Protein in INSANE! Membrane UpperLeaflet>POPC=1.0 LowerLeaflet>POPC=1.0
241418
    1AU     AUC    1  10.018  33.226   7.503
    1AU     AUC    2  10.289  33.204   7.345
    1AU     AUC    3  10.282  33.206   7.672
    1AU     AUC    4   9.753  33.245   7.335
    1AU     AUC    5   9.750  33.246   7.664
    1AU     AUC    6   9.875  33.507   7.497
    1AU     AUC    7  10.203  33.482   7.504
    1AU     AUC    8   9.829  32.969   7.500
    1AU     AUC    9  10.161  32.944   7.503
    1AU     AUC   10  10.001  33.063   7.768
    1AU     AUC   11  10.029  33.391   7.771
    1AU     AUC   12  10.013  33.059   7.238
    1AU     AUC   13  10.034  33.388   7.232
    1AU     AUC   14  10.558  33.190   7.193
    1AU     AUC   15  10.559  33.178   7.509
    1AU     AUC   16  10.535  33.185   7.830
    1AU     AUC   17   9.501  33.257   7.168
    1AU     AUC   18   9.475  33.263   7.504
    1AU     AUC   19   9.496  33.270   7.827
    1AU     AUC   20   9.745  33.780   7.494
    1AU     AUC   21  10.061  33.780   7.488
    1AU     AUC   22  10.380  33.730   7.502
    1AU     AUC   23   9.642  32.724   7.498
    1AU     AUC   24   9.975  32.681   7.489
    1AU     AUC   25  10.298  32.667   7.511
    1AU     AUC   26   9.981  32.901   8.023
    1AU     AUC   27  10.006  33.221   8.056
    1AU     AUC   28  10.042  33.543   8.032
    1AU     AUC   29  10.025  32.900   6.985
    1AU     AUC   30  10.050  33.221   6.960
    1AU     AUC   31  10.053  33.534   6.963
    1AU     AUC   32  10.264  33.037   7.950
    1AU     AUC   33  10.304  33.372   7.953
    1AU     AUC   34  10.302  33.045   7.072
    1AU     AUC   35  10.321  33.374   7.073
    1AU     AUC   36   9.734  33.081   7.943
    1AU     AUC   37   9.755  33.409   7.942
    1AU     AUC   38   9.747  33.077   7.068
    1AU     AUC   39   9.763  33.400   7.044
    1AU     AUC   40  10.487  33.455   7.355
    1AU     AUC   41  10.474  33.471   7.685
    1AU     AUC   42   9.603  33.534   7.322
    1AU     AUC   43   9.599  33.538   7.668
    1AU     AUC   44  10.445  32.911   7.347
    1AU     AUC   45  10.428  32.914   7.673
    1AU     AUC   46   9.544  32.983   7.339
    1AU     AUC   47   9.555  32.976   7.673
    1AU     AUC   48   9.884  33.679   7.769
    1AU     AUC   49  10.218  33.660   7.775
    1AU     AUC   50   9.815  32.799   7.773
    1AU     AUC   51  10.146  32.776   7.772
    1AU     AUC   52   9.886  33.679   7.213
    1AU     AUC   53  10.218  33.652   7.226
    1AU     AUC   54   9.812  32.792   7.229
    1AU     AUC   55  10.156  32.768   7.228
    1AU    AUSL   56  10.486  33.146   8.119
    1AU    AUSL   57  10.287  32.794   8.109
    1AU     AUL   58  10.373  33.094   8.428
    1AU       S   59  10.562  32.404   8.254
    1AU     LIG   60  10.473  32.064   8.524
    1AU     LIG   61  10.692  31.735   8.765
    1AU     LIG   62  10.981  31.523   9.072
    1AU     LIG   63  11.104  31.224   9.418
    1AU     LIG   64  11.038  31.020   9.852
    1AU       S   65  10.767  32.808   8.462
    1AU     LIG   66  10.973  33.024   8.836
    1AU     LIG   67  10.996  33.123   9.299
    1AU     LIG   68  11.167  32.980   9.721
    1AU     LIG   69  11.505  32.759   9.966
    1AU     LIG   70  11.837  32.716  10.299
    1AU    AUSL   71  10.086  33.014   8.262
    1AU    AUSL   72   9.882  33.374   8.274
    1AU     AUL   73  10.073  33.216   8.582
    1AU       S   74  10.391  32.660   8.641
    1AU     LIG   75  10.321  32.564   9.089
    1AU     LIG   76  10.441  32.397   9.513
    1AU     LIG   77  10.616  32.240   9.918
    1AU     LIG   78  10.697  32.243  10.367
    1AU     LIG   79  10.815  32.364  10.804
    1AU       S   80   9.596  33.225   8.738
    1AU     LIG   81   9.439  33.126   9.157
    1AU     LIG   82   9.390  33.032   9.600
    1AU     LIG   83   9.273  33.015  10.036
    1AU     LIG   84   9.182  33.224  10.436
    1AU     LIG   85   9.164  33.602  10.720
    1AU    AUSL   86  10.229  33.401   8.249
    1AU    AUSL   87  10.608  33.467   8.005
    1AU     AUL   88  10.606  33.358   8.376
    1AU       S   89  10.241  33.708   8.607
    1AU     LIG   90  10.441  33.837   9.024
    1AU     LIG   91  10.609  33.935   9.468
    1AU     LIG   92  10.626  34.077   9.935
    1AU     LIG   93  10.715  34.120  10.404
    1AU     LIG   94  10.719  34.102  10.873
    1AU       S   95  10.880  33.764   8.284
    1AU     LIG   96  11.256  33.596   8.489
    1AU     LIG   97  11.632  33.795   8.629
    1AU     LIG   98  11.821  33.847   9.046
    1AU     LIG   99  12.039  34.116   9.369
    1AU     LIG  100  12.383  34.265   9.669
    1AU    AUSL  101  10.505  33.301   6.877
    1AU    AUSL  102  10.358  33.618   6.935
    1AU     AUL  103  10.307  33.662   6.621
    1AU       S  104  10.691  33.319   6.448
    1AU     LIG  105  10.961  33.180   6.095
    1AU     LIG  106  10.982  32.918   5.712
    1AU     LIG  107  11.019  32.734   5.283
    1AU     LIG  108  11.212  32.708   4.861
    1AU     LIG  109  11.625  32.724   4.629
    1AU       S  110  10.812  33.741   6.675
    1AU     LIG  111  11.026  33.920   6.308
    1AU     LIG  112  11.205  34.168   5.951
    1AU     LIG  113  11.411  34.398   5.594
    1AU     LIG  114  11.604  34.692   5.277
    1AU     LIG  115  11.569  35.056   4.942
    1AU    AUSL  116  10.313  33.029   6.799
    1AU    AUSL  117  10.555  32.899   7.037
    1AU     AUL  118  10.771  33.086   6.895
    1AU       S  119  10.756  32.640   6.650
    1AU     LIG  120  11.007  32.353   6.335
    1AU     LIG  121  11.190  31.933   6.192
    1AU     LIG  122  11.463  31.658   5.913
    1AU     LIG  123  11.875  31.578   5.679
    1AU     LIG  124  12.277  31.598   5.412
    1AU       S  125  10.584  33.037   6.399
    1AU     LIG  126  10.703  32.708   6.113
    1AU     LIG  127  10.619  32.551   5.680
    1AU     LIG  128  10.592  32.458   5.215
    1AU     LIG  129  10.721  32.534   4.771
    1AU     LIG  130  10.832  32.429   4.324
    1AU    AUSL  131  10.194  33.340   6.728
    1AU    AUSL  132   9.913  33.064   6.781
    1AU     AUL  133  10.103  32.964   6.528
    1AU       S  134   9.684  33.138   6.286
    1AU     LIG  135   9.701  32.840   5.940
    1AU     LIG  136   9.425  32.599   5.659
    1AU     LIG  137   9.237  32.572   5.233
    1AU     LIG  138   9.063  32.518   4.796
    1AU     LIG  139   9.094  32.442   4.320
    1AU       S  140  10.431  33.288   6.290
    1AU     LIG  141  10.502  33.095   5.848
    1AU     LIG  142  10.573  32.981   5.378
    1AU     LIG  143  10.750  33.034   4.937
    1AU     LIG  144  10.738  33.356   4.577
    1AU     LIG  145  10.731  33.778   4.345
    1AU    AUSL  146   9.553  33.325   8.144
    1AU    AUSL  147   9.758  33.646   8.071
    1AU     AUL  148   9.678  33.617   8.419
    1AU       S  149   9.364  33.232   8.616
    1AU     LIG  150   9.139  32.865   8.832
    1AU     LIG  151   9.045  32.789   9.294
    1AU     LIG  152   8.871  32.879   9.730
    1AU     LIG  153   8.544  32.856  10.075
    1AU     LIG  154   8.116  32.983  10.266
    1AU       S  155   9.323  33.962   8.258
    1AU     LIG  156   9.291  34.170   8.696
    1AU     LIG  157   9.206  34.392   9.111
    1AU     LIG  158   9.016  34.498   9.532
    1AU     LIG  159   8.897  34.745   9.920
    1AU     LIG  160   8.690  34.911  10.310
    1AU    AUSL  161   9.737  33.049   8.227
    1AU    AUSL  162   9.483  32.980   7.971
    1AU     AUL  163   9.277  33.139   8.139
    1AU       S  164   9.269  32.678   8.363
    1AU     LIG  165   8.805  32.613   8.335
    1AU     LIG  166   8.487  32.293   8.420
    1AU     LIG  167   8.275  31.965   8.678
    1AU     LIG  168   8.049  31.656   8.949
    1AU     LIG  169   7.709  31.568   9.274
    1AU       S  170   9.580  32.993   8.592
    1AU     LIG  171   9.619  32.697   8.925
    1AU     LIG  172   9.515  32.587   9.359
    1AU     LIG  173   9.265  32.551   9.758
    1AU     LIG  174   9.020  32.582  10.162
    1AU     LIG  175   9.032  32.496  10.628
    1AU    AUSL  176   9.590  33.190   6.832
    1AU    AUSL  177   9.701  32.821   6.955
    1AU     AUL  178   9.772  32.792   6.643
    1AU       S  179   9.447  33.120   6.389
    1AU     LIG  180   9.212  32.977   5.986
    1AU     LIG  181   8.968  32.853   5.587
    1AU     LIG  182   8.767  32.807   5.158
    1AU     LIG  183   8.365  32.837   4.894
    1AU     LIG  184   8.008  33.017   4.631
    1AU       S  185   9.287  32.635   6.636
    1AU     LIG  186   9.124  32.175   6.516
    1AU     LIG  187   8.758  31.898   6.411
    1AU     LIG  188   8.565  31.617   6.085
    1AU     LIG  189   8.662  31.432   5.643
    1AU     LIG  190   8.718  31.306   5.175
    1AU    AUSL  191   9.865  33.415   6.740
    1AU    AUSL  192   9.467  33.536   7.013
    1AU     AUL  193   9.534  33.530   6.671
    1AU       S  194   9.127  33.818   6.750
    1AU     LIG  195   8.834  33.995   6.425
    1AU     LIG  196   8.762  34.147   5.981
    1AU     LIG  197   8.551  34.299   5.574
    1AU     LIG  198   8.149  34.375   5.299
    1AU     LIG  199   7.735  34.552   5.100
    1AU       S  200   9.804  33.360   6.278
    1AU     LIG  201   9.571  33.332   5.841
    1AU     LIG  202   9.415  33.078   5.471
    1AU     LIG  203   9.223  33.049   5.029
    1AU     LIG  204   9.199  33.259   4.592
    1AU     LIG  205   9.098  33.514   4.188
    1AU    AUSL  206  10.691  33.629   7.487
    1AU    AUSL  207  10.669  33.488   7.128
    1AU     AUL  208  10.756  33.930   7.347
    1AU       S  209  10.970  33.596   6.884
    1AU     LIG  210  11.312  33.567   6.571
    1AU     LIG  211  11.544  33.844   6.262
    1AU     LIG  212  11.724  34.172   5.961
    1AU     LIG  213  11.924  34.417   5.616
    1AU     LIG  214  12.276  34.479   5.316
    1AU       S  215  11.198  33.680   7.331
    1AU     LIG  216  11.710  33.784   7.402
    1AU     LIG  217  12.195  33.781   7.510
    1AU     LIG  218  12.676  33.927   7.522
    1AU     LIG  219  12.976  34.333   7.483
    1AU     LIG  220  13.137  34.772   7.616
    1AU    AUSL  221  10.810  33.290   7.380
    1AU    AUSL  222  10.748  33.019   7.656
    1AU     AUL  223  11.035  33.197   7.774
    1AU       S  224  11.183  33.354   7.265
    1AU     LIG  225  11.558  33.483   7.032
    1AU     LIG  226  12.043  33.483   7.113
    1AU     LIG  227  12.519  33.471   7.262
    1AU     LIG  228  12.977  33.653   7.194
    1AU     LIG  229  13.421  33.766   7.051
    1AU       S  230  11.232  32.776   7.540
    1AU     LIG  231  11.707  32.663   7.625
    1AU     LIG  232  12.037  32.327   7.688
    1AU     LIG  233  12.471  32.175   7.791
    1AU     LIG  234  12.946  32.171   7.869
    1AU     LIG  235  13.395  32.343   7.852
    1AU    AUSL  236  10.738  33.363   7.704
    1AU    AUSL  237  10.535  33.765   7.782
    1AU     AUL  238  10.886  33.657   7.791
    1AU       S  239  10.846  34.019   8.149
    1AU     LIG  240  11.222  34.105   8.446
    1AU     LIG  241  11.493  34.370   8.701
    1AU     LIG  242  11.502  34.841   8.739
    1AU     LIG  243  11.717  35.222   8.876
    1AU     LIG  244  12.041  35.537   8.979
    1AU       S  245  11.280  33.520   7.490
    1AU     LIG  246  11.612  33.528   7.826
    1AU     LIG  247  12.072  33.540   7.943
    1AU     LIG  248  12.539  33.476   7.791
    1AU     LIG  249  12.984  33.537   7.947
    1AU     LIG  250  13.418  33.709   7.990
    1AU    AUSL  251   9.461  33.764   7.520
    1AU    AUSL  252   9.433  33.567   7.926
    1AU     AUL  253   9.148  33.781   7.702
    1AU       S  254   9.165  33.711   8.227
    1AU     LIG  255   8.869  33.940   8.516
    1AU     LIG  256   8.794  34.140   8.934
    1AU     LIG  257   8.568  34.332   9.306
    1AU     LIG  258   8.167  34.363   9.580
    1AU     LIG  259   7.723  34.371   9.784
    1AU       S  260   9.362  34.230   7.516
    1AU     LIG  261   8.943  34.419   7.337
    1AU     LIG  262   8.517  34.673   7.400
    1AU     LIG  263   8.128  34.979   7.473
    1AU     LIG  264   7.699  35.228   7.509
    1AU     LIG  265   7.228  35.113   7.573
    1AU    AUSL  266   9.315  33.441   7.295
    1AU    AUSL  267   9.591  33.832   7.203
    1AU     AUL  268   9.214  33.756   7.256
    1AU       S  269   8.965  33.373   6.917
    1AU     LIG  270   8.622  33.741   6.844
    1AU     LIG  271   8.185  33.981   6.831
    1AU     LIG  272   7.780  34.215   6.699
    1AU     LIG  273   7.321  34.287   6.804
    1AU     LIG  274   6.883  34.370   6.662
    1AU       S  275   9.342  34.199   7.015
    1AU     LIG  276   9.008  34.376   6.731
    1AU     LIG  277   8.887  34.535   6.305
    1AU     LIG  278   8.785  34.887   6.011
    1AU     LIG  279   8.553  35.309   5.941
    1AU     LIG  280   8.297  35.631   5.706
    1AU    AUSL  281   9.276  33.434   7.658
    1AU    AUSL  282   9.240  33.121   7.365
    1AU     AUL  283   8.987  33.439   7.428
    1AU       S  284   8.744  32.977   7.527
    1AU     LIG  285   8.336  32.714   7.468
    1AU     LIG  286   7.908  32.755   7.584
    1AU     LIG  287   7.566  32.912   7.334
    1AU     LIG  288   7.133  32.804   7.269
    1AU     LIG  289   6.949  32.381   7.188
    1AU       S  290   8.856  33.421   7.940
    1AU     LIG  291   8.396  33.573   7.988
    1AU     LIG  292   7.946  33.759   8.037
    1AU     LIG  293   7.616  34.073   8.186
    1AU     LIG  294   7.165  34.211   8.103
    1AU     LIG  295   6.716  34.351   8.094
    1AU    AUSL  296  10.629  32.703   7.564
    1AU    AUSL  297  10.565  32.877   7.921
    1AU     AUL  298  10.893  32.872   7.911
    1AU       S  299  11.075  32.529   7.575
    1AU     LIG  300  11.440  32.248   7.500
    1AU     LIG  301  11.777  31.934   7.486
    1AU     LIG  302  12.220  31.800   7.504
    1AU     LIG  303  12.474  31.407   7.465
    1AU     LIG  304  12.878  31.338   7.278
    1AU       S  305  10.771  32.437   8.122
    1AU     LIG  306  10.970  32.125   8.401
    1AU     LIG  307  11.189  31.864   8.709
    1AU     LIG  308  11.482  31.596   8.949
    1AU     LIG  309  11.861  31.498   9.196
    1AU     LIG  310  12.249  31.592   9.448
    1AU    AUSL  311  10.747  32.959   7.312
    1AU    AUSL  312  10.433  32.629   7.239
    1AU     AUL  313  10.744  32.601   7.208
    1AU       S  314  11.176  32.846   7.315
    1AU     LIG  315  11.538  32.609   7.146
    1AU     LIG  316  11.916  32.338   7.191
    1AU     LIG  317  12.386  32.251   7.288
    1AU     LIG  318  12.848  32.200   7.188
    1AU     LIG  319  13.256  32.370   7.064
    1AU       S  320  10.703  32.417   6.742
    1AU     LIG  321  10.780  31.991   6.623
    1AU     LIG  322  10.950  31.595   6.500
    1AU     LIG  323  11.295  31.380   6.320
    1AU     LIG  324  11.403  30.977   6.144
    1AU     LIG  325  11.706  30.640   6.088
    1AU    AUSL  326   9.332  32.797   7.516
    1AU    AUSL  327   9.407  33.008   7.060
    1AU     AUL  328   9.120  32.858   7.217
    1AU       S  329   9.149  32.830   6.714
    1AU     LIG  330   8.743  32.519   6.620
    1AU     LIG  331   8.369  32.220   6.510
    1AU     LIG  332   8.179  31.966   6.154
    1AU     LIG  333   7.752  31.786   6.037
    1AU     LIG  334   7.503  31.494   5.773
    1AU       S  335   8.814  32.697   7.583
    1AU     LIG  336   8.534  32.454   7.870
    1AU     LIG  337   8.101  32.292   7.730
    1AU     LIG  338   7.740  32.063   7.494
    1AU     LIG  339   7.315  31.907   7.339
    1AU     LIG  340   7.013  31.512   7.379
    1AU    AUSL  341   9.265  33.098   7.717
    1AU    AUSL  342   9.512  32.663   7.796
    1AU     AUL  343   9.205  32.797   7.868
    1AU       S  344   9.267  32.428   8.199
    1AU     LIG  345   8.901  32.140   8.145
    1AU     LIG  346   8.540  31.842   8.181
    1AU     LIG  347   8.351  31.512   8.455
    1AU     LIG  348   8.130  31.186   8.714
    1AU     LIG  349   7.893  30.751   8.698
    1AU       S  350   8.763  32.990   7.712
    1AU     LIG  351   8.258  33.123   7.760
    1AU     LIG  352   7.735  33.189   7.773
    1AU     LIG  353   7.282  32.949   7.763
    1AU     LIG  354   6.975  32.580   7.733
    1AU     LIG  355   6.766  32.334   8.075
    1AU    AUSL  356  10.041  33.862   7.956
    1AU    AUSL  357   9.636  33.849   7.821
    1AU     AUL  358   9.829  33.916   8.227
    1AU       S  359   9.400  34.151   8.014
    1AU     LIG  360   9.062  34.386   8.283
    1AU     LIG  361   8.941  34.578   8.697
    1AU     LIG  362   8.752  34.948   8.932
    1AU     LIG  363   8.484  35.356   8.960
    1AU     LIG  364   8.083  35.616   8.926
    1AU       S  365   9.998  34.359   8.085
    1AU     LIG  366  10.264  34.584   8.405
    1AU     LIG  367  10.479  34.975   8.539
    1AU     LIG  368  10.508  35.442   8.641
    1AU     LIG  369  10.500  35.752   9.006
    1AU     LIG  370  10.412  35.833   9.467
    1AU    AUSL  371   9.892  33.995   7.647
    1AU    AUSL  372  10.253  33.979   7.307
    1AU     AUL  373  10.106  34.239   7.483
    1AU       S  374   9.813  34.405   7.868
    1AU     LIG  375   9.895  34.848   8.126
    1AU     LIG  376  10.106  35.245   8.301
    1AU     LIG  377  10.013  35.712   8.384
    1AU     LIG  378   9.673  36.081   8.329
    1AU     LIG  379   9.481  36.528   8.345
    1AU       S  380  10.278  34.444   7.065
    1AU     LIG  381  10.532  34.813   7.120
    1AU     LIG  382  10.749  35.126   6.877
    1AU     LIG  383  10.767  35.535   6.666
    1AU     LIG  384  10.814  35.906   6.391
    1AU     LIG  385  10.744  36.356   6.301
    1AU    AUSL  386  10.252  33.958   7.666
    1AU    AUSL  387  10.325  33.681   8.069
    1AU     AUL  388  10.374  34.026   7.970
    1AU       S  389  10.635  33.898   8.384
    1AU     LIG  390  10.897  33.875   8.777
    1AU     LIG  391  11.298  33.970   8.977
    1AU     LIG  392  11.553  34.280   9.222
    1AU     LIG  393  11.554  34.581   9.590
    1AU     LIG  394  11.434  34.947   9.880
    1AU       S  395  10.175  34.483   7.904
    1AU     LIG  396  10.406  34.890   8.014
    1AU     LIG  397  10.611  35.284   8.152
    1AU     LIG  398  10.923  35.564   8.334
    1AU     LIG  399  10.891  35.953   8.521
    1AU     LIG  400  10.673  36.354   8.445
    1AU    AUSL  401  10.014  32.596   7.936
    1AU    AUSL  402  10.361  32.608   7.818
    1AU     AUL  403  10.084  32.560   8.225
    1AU       S  404  10.167  32.094   8.041
    1AU     LIG  405  10.111  31.742   8.324
    1AU     LIG  406   9.793  31.420   8.437
    1AU     LIG  407   9.699  30.971   8.506
    1AU     LIG  408   9.754  30.586   8.773
    1AU     LIG  409   9.733  30.415   9.221
    1AU       S  410  10.601  32.321   7.956
    1AU     LIG  411  10.634  31.888   8.069
    1AU     LIG  412  10.905  31.614   8.315
    1AU     LIG  413  11.151  31.358   8.614
    1AU     LIG  414  11.472  31.087   8.823
    1AU     LIG  415  11.710  30.675   8.771
    1AU    AUSL  416   9.800  32.536   7.663
    1AU    AUSL  417   9.732  32.744   8.075
    1AU     AUL  418   9.712  32.387   7.970
    1AU       S  419  10.011  31.986   7.850
    1AU     LIG  420   9.752  31.649   7.960
    1AU     LIG  421   9.501  31.285   8.023
    1AU     LIG  422   9.524  30.843   8.040
    1AU     LIG  423   9.567  30.471   8.302
    1AU     LIG  424   9.598  30.006   8.355
    1AU       S  425   9.489  32.540   8.416
    1AU     LIG  426   9.089  32.281   8.635
    1AU     LIG  427   8.785  31.901   8.637
    1AU     LIG  428   8.566  31.569   8.924
    1AU     LIG  429   8.599  31.312   9.344
    1AU     LIG  430   8.672  31.130   9.798
    1AU    AUSL  431  10.120  32.437   7.642
    1AU    AUSL  432   9.766  32.486   7.316
    1AU     AUL  433   9.685  32.265   7.600
    1AU       S  434   9.778  32.020   7.170
    1AU     LIG  435   9.487  31.721   6.986
    1AU     LIG  436   9.443  31.266   7.019
    1AU     LIG  437   9.470  30.834   6.836
    1AU     LIG  438   9.501  30.355   6.766
    1AU     LIG  439   9.368  29.887   6.813
    1AU       S  440  10.243  32.057   7.734
    1AU     LIG  441  10.265  31.565   7.866
    1AU     LIG  442  10.016  31.182   8.040
    1AU     LIG  443  10.011  30.722   8.180
    1AU     LIG  444  10.043  30.249   8.220
    1AU     LIG  445  10.252  29.815   8.164
    1AU    AUSL  446  10.093  33.844   7.007
    1AU    AUSL  447  10.489  33.750   7.228
    1AU     AUL  448  10.434  33.970   6.965
    1AU       S  449  10.145  34.358   6.805
    1AU     LIG  450  10.456  34.710   6.618
    1AU     LIG  451  10.611  35.115   6.385
    1AU     LIG  452  10.631  35.430   6.024
    1AU     LIG  453  10.449  35.617   5.620
    1AU     LIG  454  10.262  36.006   5.415
    1AU       S  455  10.944  33.872   6.886
    1AU     LIG  456  11.322  34.067   6.701
    1AU     LIG  457  11.463  34.368   6.358
    1AU     LIG  458  11.668  34.731   6.093
    1AU     LIG  459  11.852  35.203   6.119
    1AU     LIG  460  11.993  35.682   6.176
    1AU    AUSL  461   9.893  33.988   7.290
    1AU    AUSL  462   9.773  33.691   6.925
    1AU     AUL  463   9.806  34.007   6.932
    1AU       S  464   9.941  34.474   7.066
    1AU     LIG  465  10.073  34.900   6.894
    1AU     LIG  466  10.272  35.313   6.755
    1AU     LIG  467  10.102  35.769   6.699
    1AU     LIG  468   9.752  36.126   6.717
    1AU     LIG  469   9.490  36.543   6.717
    1AU       S  470   9.359  34.013   6.712
    1AU     LIG  471   9.280  34.201   6.281
    1AU     LIG  472   9.174  34.433   5.867
    1AU     LIG  473   9.112  34.538   5.401
    1AU     LIG  474   9.122  34.849   5.038
    1AU     LIG  475   8.904  35.188   4.777
    1AU    AUSL  476   9.968  32.583   7.027
    1AU    AUSL  477   9.492  32.686   7.216
    1AU     AUL  478   9.658  32.471   6.954
    1AU       S  479   9.168  32.508   6.875
    1AU     LIG  480   8.890  32.167   6.988
    1AU     LIG  481   8.540  31.898   6.887
    1AU     LIG  482   8.286  31.694   6.569
    1AU     LIG  483   8.081  31.440   6.238
    1AU     LIG  484   7.790  31.078   6.106
    1AU       S  485   9.936  32.045   6.950
    1AU     LIG  486   9.867  31.723   6.639
    1AU     LIG  487   9.687  31.304   6.569
    1AU     LIG  488   9.755  30.871   6.401
    1AU     LIG  489   9.854  30.608   6.005
    1AU     LIG  490  10.040  30.417   5.598
    1AU    AUSL  491  10.132  32.465   7.312
    1AU    AUSL  492  10.262  32.723   6.928
    1AU     AUL  493  10.302  32.377   7.031
    1AU       S  494  10.054  31.994   7.266
    1AU     LIG  495   9.952  31.531   7.115
    1AU     LIG  496   9.926  31.077   6.961
    1AU     LIG  497   9.947  30.624   6.823
    1AU     LIG  498  10.014  30.159   6.746
    1AU     LIG  499  10.258  29.736   6.785
    1AU       S  500  10.476  32.557   6.575
    1AU     LIG  501  10.509  32.245   6.256
    1AU     LIG  502  10.684  31.847   6.125
    1AU     LIG  503  10.956  31.520   5.956
    1AU     LIG  504  11.179  31.353   5.584
    1AU     LIG  505  11.303  31.216   5.151
    2AU     AUC  506   6.500  24.718   7.506
    2AU     AUC  507   6.774  24.701   7.349
    2AU     AUC  508   6.764  24.701   7.676
    2AU     AUC  509   6.235  24.734   7.336
    2AU     AUC  510   6.231  24.734   7.668
    2AU     AUC  511   6.352  24.993   7.500
    2AU     AUC  512   6.682  24.975   7.509
    2AU     AUC  513   6.315  24.461   7.502
    2AU     AUC  514   6.647  24.439   7.506
    2AU     AUC  515   6.484  24.555   7.772
    2AU     AUC  516   6.508  24.882   7.775
    2AU     AUC  517   6.499  24.552   7.240
    2AU     AUC  518   6.515  24.881   7.235
    2AU     AUC  519   7.043  24.695   7.197
    2AU     AUC  520   7.046  24.681   7.512
    2AU     AUC  521   7.019  24.684   7.832
    2AU     AUC  522   5.985  24.746   7.168
    2AU     AUC  523   5.957  24.748   7.506
    2AU     AUC  524   5.976  24.755   7.830
    2AU     AUC  525   6.212  25.258   7.499
    2AU     AUC  526   6.538  25.260   7.497
    2AU     AUC  527   6.851  25.229   7.509
    2AU     AUC  528   6.130  24.214   7.498
    2AU     AUC  529   6.464  24.175   7.490
    2AU     AUC  530   6.786  24.164   7.513
    2AU     AUC  531   6.465  24.393   8.028
    2AU     AUC  532   6.485  24.713   8.060
    2AU     AUC  533   6.517  25.034   8.034
    2AU     AUC  534   6.515  24.396   6.986
    2AU     AUC  535   6.534  24.717   6.964
    2AU     AUC  536   6.530  25.032   6.967
    2AU     AUC  537   6.747  24.531   7.954
    2AU     AUC  538   6.784  24.866   7.956
    2AU     AUC  539   6.790  24.545   7.076
    2AU     AUC  540   6.800  24.874   7.079
    2AU     AUC  541   6.215  24.570   7.947
    2AU     AUC  542   6.232  24.899   7.946
    2AU     AUC  543   6.234  24.569   7.067
    2AU     AUC  544   6.242  24.895   7.044
    2AU     AUC  545   6.963  24.957   7.358
    2AU     AUC  546   6.956  24.967   7.689
    2AU     AUC  547   6.078  25.020   7.324
    2AU     AUC  548   6.073  25.023   7.670
    2AU     AUC  549   6.933  24.411   7.350
    2AU     AUC  550   6.911  24.412   7.677
    2AU     AUC  551   6.032  24.470   7.339
    2AU     AUC  552   6.038  24.463   7.675
    2AU     AUC  553   6.358  25.167   7.771
    2AU     AUC  554   6.696  25.152   7.778
    2AU     AUC  555   6.301  24.291   7.775
    2AU     AUC  556   6.632  24.270   7.776
    2AU     AUC  557   6.357  25.155   7.209
    2AU     AUC  558   6.691  25.153   7.230
    2AU     AUC  559   6.303  24.284   7.230
    2AU     AUC  560   6.647  24.264   7.229
    2AU    AUSL  561   6.971  24.644   8.120
    2AU    AUSL  562   6.771  24.286   8.113
    2AU     AUL  563   6.856  24.592   8.428
    2AU       S  564   7.066  23.901   8.258
    2AU     LIG  565   6.957  23.507   8.458
    2AU     LIG  566   7.187  23.202   8.721
    2AU     LIG  567   7.470  23.036   9.050
    2AU     LIG  568   7.780  22.995   9.391
    2AU     LIG  569   8.036  22.840   9.746
    2AU       S  570   7.250  24.308   8.468
    2AU     LIG  571   7.319  24.339   8.932
    2AU     LIG  572   7.416  24.297   9.397
    2AU     LIG  573   7.702  24.361   9.773
    2AU     LIG  574   8.118  24.562   9.915
    2AU     LIG  575   8.487  24.670  10.186
    2AU    AUSL  576   6.568  24.505   8.265
    2AU    AUSL  577   6.358  24.869   8.278
    2AU     AUL  578   6.551  24.703   8.584
    2AU       S  579   6.876  24.159   8.645
    2AU     LIG  580   6.876  24.154   9.121
    2AU     LIG  581   6.986  24.069   9.570
    2AU     LIG  582   7.299  23.997   9.908
    2AU     LIG  583   7.367  23.841  10.350
    2AU     LIG  584   7.190  23.933  10.772
    2AU       S  585   6.075  24.733   8.746
    2AU     LIG  586   5.910  24.625   9.183
    2AU     LIG  587   5.806  24.568   9.648
    2AU     LIG  588   5.663  24.692  10.089
    2AU     LIG  589   5.721  24.994  10.475
    2AU     LIG  590   5.697  25.258  10.883
    2AU    AUSL  591   6.705  24.891   8.252
    2AU    AUSL  592   7.088  24.967   8.004
    2AU     AUL  593   7.087  24.860   8.376
    2AU       S  594   6.706  25.200   8.603
    2AU     LIG  595   6.913  25.449   8.935
    2AU     LIG  596   7.066  25.417   9.379
    2AU     LIG  597   6.999  25.460   9.851
    2AU     LIG  598   7.157  25.539  10.282
    2AU     LIG  599   7.214  25.441  10.734
    2AU       S  600   7.340  25.284   8.285
    2AU     LIG  601   7.749  25.220   8.432
    2AU     LIG  602   7.951  25.367   8.801
    2AU     LIG  603   8.142  25.635   9.123
    2AU     LIG  604   8.390  25.802   9.483
    2AU     LIG  605   8.798  25.803   9.734
    2AU    AUSL  606   6.989  24.806   6.884
    2AU    AUSL  607   6.834  25.116   6.948
    2AU     AUL  608   6.785  25.163   6.634
    2AU       S  609   7.170  24.833   6.452
    2AU     LIG  610   7.462  24.664   6.120
    2AU     LIG  611   7.495  24.414   5.731
    2AU     LIG  612   7.571  24.306   5.276
    2AU     LIG  613   7.826  24.193   4.887
    2AU     LIG  614   8.256  24.125   4.668
    2AU       S  615   7.285  25.271   6.679
    2AU     LIG  616   7.490  25.502   6.309
    2AU     LIG  617   7.749  25.692   5.965
    2AU     LIG  618   7.956  25.988   5.682
    2AU     LIG  619   8.100  26.215   5.297
    2AU     LIG  620   8.024  26.524   4.939
    2AU    AUSL  621   6.803  24.529   6.803
    2AU    AUSL  622   7.045  24.405   7.042
    2AU     AUL  623   7.261  24.596   6.898
    2AU       S  624   7.251  24.146   6.656
    2AU     LIG  625   7.518  23.879   6.340
    2AU     LIG  626   7.668  23.451   6.158
    2AU     LIG  627   7.951  23.180   5.874
    2AU     LIG  628   8.287  23.059   5.544
    2AU     LIG  629   8.666  22.967   5.252
    2AU       S  630   7.066  24.542   6.404
    2AU     LIG  631   7.181  24.204   6.110
    2AU     LIG  632   7.106  24.082   5.658
    2AU     LIG  633   7.126  24.060   5.179
    2AU     LIG  634   7.217  24.067   4.712
    2AU     LIG  635   7.263  23.825   4.292
    2AU    AUSL  636   6.675  24.835   6.733
    2AU    AUSL  637   6.397  24.562   6.781
    2AU     AUL  638   6.591  24.444   6.543
    2AU       S  639   6.199  24.648   6.282
    2AU     LIG  640   6.186  24.339   5.942
    2AU     LIG  641   5.962  24.090   5.625
    2AU     LIG  642   5.773  24.073   5.197
    2AU     LIG  643   5.813  24.070   4.717
    2AU     LIG  644   5.752  24.014   4.233
    2AU       S  645   6.898  24.788   6.298
    2AU     LIG  646   7.012  24.617   5.860
    2AU     LIG  647   7.110  24.535   5.395
    2AU     LIG  648   7.250  24.556   4.940
    2AU     LIG  649   7.297  24.880   4.587
    2AU     LIG  650   7.424  25.241   4.300
    2AU    AUSL  651   6.032  24.815   8.147
    2AU    AUSL  652   6.233  25.144   8.072
    2AU     AUL  653   6.154  25.119   8.415
    2AU       S  654   5.844  24.734   8.620
    2AU     LIG  655   5.605  24.380   8.850
    2AU     LIG  656   5.474  24.326   9.321
    2AU     LIG  657   5.315  24.444   9.768
    2AU     LIG  658   5.068  24.353  10.162
    2AU     LIG  659   4.665  24.524  10.369
    2AU       S  660   5.793  25.459   8.243
    2AU     LIG  661   5.819  25.609   8.690
    2AU     LIG  662   5.765  25.908   9.036
    2AU     LIG  663   5.479  26.064   9.359
    2AU     LIG  664   5.402  26.303   9.759
    2AU     LIG  665   5.263  26.517  10.163
    2AU    AUSL  666   6.219  24.540   8.231
    2AU    AUSL  667   5.963  24.463   7.976
    2AU     AUL  668   5.760  24.621   8.146
    2AU       S  669   5.762  24.162   8.370
    2AU     LIG  670   5.319  24.058   8.444
    2AU     LIG  671   5.034  23.691   8.506
    2AU     LIG  672   4.842  23.286   8.638
    2AU     LIG  673   4.627  23.003   8.929
    2AU     LIG  674   4.445  22.893   9.351
    2AU       S  675   6.055  24.491   8.602
    2AU     LIG  676   6.073  24.193   8.939
    2AU     LIG  677   5.947  24.132   9.386
    2AU     LIG  678   5.675  24.066   9.774
    2AU     LIG  679   5.577  23.881  10.209
    2AU     LIG  680   5.666  23.713  10.661
    2AU    AUSL  681   6.074  24.686   6.830
    2AU    AUSL  682   6.195  24.308   6.955
    2AU     AUL  683   6.242  24.293   6.639
    2AU       S  684   5.948  24.627   6.370
    2AU     LIG  685   5.703  24.496   5.983
    2AU     LIG  686   5.504  24.326   5.590
    2AU     LIG  687   5.287  24.318   5.182
    2AU     LIG  688   4.860  24.407   4.987
    2AU     LIG  689   4.582  24.502   4.626
    2AU       S  690   5.769  24.095   6.659
    2AU     LIG  691   5.556  23.654   6.552
    2AU     LIG  692   5.348  23.248   6.435
    2AU     LIG  693   5.182  22.934   6.129
    2AU     LIG  694   4.932  22.929   5.749
    2AU     LIG  695   4.786  22.745   5.336
    2AU    AUSL  696   6.348  24.917   6.750
    2AU    AUSL  697   5.948  25.025   7.011
    2AU     AUL  698   6.017  25.022   6.671
    2AU       S  699   5.609  25.306   6.733
    2AU     LIG  700   5.420  25.526   6.345
    2AU     LIG  701   5.200  25.601   5.919
    2AU     LIG  702   4.910  25.655   5.537
    2AU     LIG  703   4.524  25.808   5.285
    2AU     LIG  704   4.226  26.120   5.072
    2AU       S  705   6.307  24.870   6.284
    2AU     LIG  706   6.075  24.835   5.839
    2AU     LIG  707   5.929  24.580   5.460
    2AU     LIG  708   5.750  24.550   5.009
    2AU     LIG  709   5.720  24.728   4.559
    2AU     LIG  710   5.663  24.986   4.148
    2AU    AUSL  711   7.162  25.122   7.494
    2AU    AUSL  712   7.141  25.005   7.136
    2AU     AUL  713   7.228  25.423   7.387
    2AU       S  714   7.426  25.135   6.892
    2AU     LIG  715   7.809  25.247   6.653
    2AU     LIG  716   8.021  25.371   6.259
    2AU     LIG  717   8.265  25.682   5.979
    2AU     LIG  718   8.452  25.855   5.573
    2AU     LIG  719   8.841  25.927   5.305
    2AU       S  720   7.676  25.190   7.321
    2AU     LIG  721   8.190  25.284   7.328
    2AU     LIG  722   8.664  25.346   7.528
    2AU     LIG  723   9.125  25.560   7.538
    2AU     LIG  724   9.372  25.971   7.420
    2AU     LIG  725   9.502  26.423   7.299
    2AU    AUSL  726   7.293  24.797   7.375
    2AU    AUSL  727   7.225  24.518   7.660
    2AU     AUL  728   7.539  24.677   7.730
    2AU       S  729   7.677  24.874   7.250
    2AU     LIG  730   8.151  24.766   7.253
    2AU     LIG  731   8.627  24.881   7.316
    2AU     LIG  732   9.067  25.125   7.268
    2AU     LIG  733   9.525  25.120   7.083
    2AU     LIG  734  10.019  25.149   7.119
    2AU       S  735   7.672  24.193   7.580
    2AU     LIG  736   8.105  24.047   7.723
    2AU     LIG  737   8.562  23.906   7.686
    2AU     LIG  738   8.927  23.638   7.762
    2AU     LIG  739   9.345  23.763   7.907
    2AU     LIG  740   9.767  23.942   7.975
    2AU    AUSL  741   7.239  24.862   7.711
    2AU    AUSL  742   7.007  25.265   7.788
    2AU     AUL  743   7.359  25.172   7.792
    2AU       S  744   7.308  25.529   8.160
    2AU     LIG  745   7.621  25.714   8.459
    2AU     LIG  746   7.983  25.869   8.675
    2AU     LIG  747   8.128  26.283   8.792
    2AU     LIG  748   8.391  26.662   8.901
    2AU     LIG  749   8.621  27.073   8.999
    2AU       S  750   7.769  25.051   7.507
    2AU     LIG  751   8.204  24.960   7.723
    2AU     LIG  752   8.663  24.910   7.832
    2AU     LIG  753   9.068  25.146   7.871
    2AU     LIG  754   9.476  25.222   8.091
    2AU     LIG  755   9.920  25.345   8.001
    2AU    AUSL  756   5.923  25.244   7.523
    2AU    AUSL  757   5.910  25.053   7.928
    2AU     AUL  758   5.615  25.255   7.710
    2AU       S  759   5.641  25.195   8.231
    2AU     LIG  760   5.377  25.378   8.571
    2AU     LIG  761   5.354  25.595   8.999
    2AU     LIG  762   5.148  25.646   9.431
    2AU     LIG  763   4.777  25.660   9.732
    2AU     LIG  764   4.386  25.885   9.869
    2AU       S  765   5.773  25.709   7.507
    2AU     LIG  766   5.418  26.009   7.303
    2AU     LIG  767   5.041  26.362   7.268
    2AU     LIG  768   4.577  26.560   7.239
    2AU     LIG  769   4.108  26.558   7.347
    2AU     LIG  770   3.826  26.558   7.716
    2AU    AUSL  771   5.795  24.929   7.295
    2AU    AUSL  772   6.053  25.319   7.210
    2AU     AUL  773   5.681  25.237   7.246
    2AU       S  774   5.447  24.862   6.911
    2AU     LIG  775   5.106  25.216   6.794
    2AU     LIG  776   4.658  25.426   6.787
    2AU     LIG  777   4.176  25.548   6.777
    2AU     LIG  778   3.733  25.746   6.709
    2AU     LIG  779   3.295  25.941   6.770
    2AU       S  780   5.779  25.687   7.004
    2AU     LIG  781   5.503  25.910   6.686
    2AU     LIG  782   5.386  26.167   6.284
    2AU     LIG  783   5.181  26.556   6.044
    2AU     LIG  784   5.052  27.030   5.984
    2AU     LIG  785   4.768  27.329   6.190
    2AU    AUSL  786   5.754  24.912   7.662
    2AU    AUSL  787   5.729  24.609   7.367
    2AU     AUL  788   5.469  24.922   7.428
    2AU       S  789   5.225  24.458   7.518
    2AU     LIG  790   4.767  24.279   7.502
    2AU     LIG  791   4.289  24.205   7.456
    2AU     LIG  792   3.829  24.104   7.351
    2AU     LIG  793   3.413  23.878   7.331
    2AU     LIG  794   3.014  23.729   7.105
    2AU       S  795   5.339  24.888   7.945
    2AU     LIG  796   4.960  25.105   8.114
    2AU     LIG  797   4.510  25.269   8.103
    2AU     LIG  798   4.076  25.482   8.059
    2AU     LIG  799   3.662  25.698   8.165
    2AU     LIG  800   3.241  25.924   8.289
    2AU    AUSL  801   7.110  24.204   7.570
    2AU    AUSL  802   7.046  24.373   7.924
    2AU     AUL  803   7.367  24.408   7.927
    2AU       S  804   7.482  23.997   7.628
    2AU     LIG  805   7.776  23.685   7.523
    2AU     LIG  806   8.204  23.595   7.458
    2AU     LIG  807   8.605  23.405   7.428
    2AU     LIG  808   9.013  23.184   7.511
    2AU     LIG  809   9.267  22.946   7.833
    2AU       S  810   7.278  23.948   8.112
    2AU     LIG  811   7.458  23.571   8.354
    2AU     LIG  812   7.695  23.264   8.625
    2AU     LIG  813   7.964  22.985   8.899
    2AU     LIG  814   8.276  22.924   9.249
    2AU     LIG  815   8.728  22.905   9.389
    2AU    AUSL  816   7.240  24.463   7.318
    2AU    AUSL  817   6.928  24.126   7.240
    2AU     AUL  818   7.238  24.115   7.204
    2AU       S  819   7.676  24.307   7.357
    2AU     LIG  820   8.062  24.041   7.219
    2AU     LIG  821   8.534  23.893   7.182
    2AU     LIG  822   8.969  23.687   7.216
    2AU     LIG  823   9.426  23.663   7.085
    2AU     LIG  824   9.880  23.675   7.000
    2AU       S  825   7.209  23.893   6.752
    2AU     LIG  826   7.362  23.452   6.592
    2AU     LIG  827   7.516  23.004   6.435
    2AU     LIG  828   7.634  22.503   6.442
    2AU     LIG  829   7.932  22.108   6.431
    2AU     LIG  830   8.334  21.878   6.314
    2AU    AUSL  831   5.816  24.282   7.509
    2AU    AUSL  832   5.901  24.495   7.059
    2AU     AUL  833   5.600  24.375   7.199
    2AU       S  834   5.662  24.312   6.706
    2AU     LIG  835   5.244  24.070   6.638
    2AU     LIG  836   5.030  23.657   6.553
    2AU     LIG  837   4.841  23.303   6.303
    2AU     LIG  838   4.540  23.144   5.987
    2AU     LIG  839   4.488  23.120   5.520
    2AU       S  840   5.299  24.184   7.553
    2AU     LIG  841   5.021  23.828   7.482
    2AU     LIG  842   4.557  23.762   7.506
    2AU     LIG  843   4.088  23.732   7.593
    2AU     LIG  844   3.644  23.591   7.693
    2AU     LIG  845   3.345  23.381   7.990
    2AU    AUSL  846   5.748  24.575   7.718
    2AU    AUSL  847   6.000  24.152   7.797
    2AU     AUL  848   5.687  24.260   7.863
    2AU       S  849   5.767  23.920   8.218
    2AU     LIG  850   5.425  23.608   8.181
    2AU     LIG  851   5.128  23.245   8.207
    2AU     LIG  852   5.026  22.835   8.425
    2AU     LIG  853   4.832  22.556   8.754
    2AU     LIG  854   4.630  22.183   8.962
    2AU       S  855   5.264  24.471   7.694
    2AU     LIG  856   4.852  24.690   7.798
    2AU     LIG  857   4.380  24.648   7.717
    2AU     LIG  858   3.912  24.505   7.676
    2AU     LIG  859   3.462  24.306   7.663
    2AU     LIG  860   3.249  23.914   7.836
    2AU    AUSL  861   6.515  25.350   7.950
    2AU    AUSL  862   6.108  25.340   7.816
    2AU     AUL  863   6.305  25.435   8.213
    2AU       S  864   5.885  25.654   7.992
    2AU     LIG  865   5.700  25.959   8.331
    2AU     LIG  866   5.608  26.267   8.695
    2AU     LIG  867   5.432  26.656   8.906
    2AU     LIG  868   5.262  27.101   8.846
    2AU     LIG  869   4.847  27.328   8.824
    2AU       S  870   6.497  25.871   8.029
    2AU     LIG  871   6.777  26.055   8.351
    2AU     LIG  872   6.979  26.355   8.642
    2AU     LIG  873   6.845  26.806   8.746
    2AU     LIG  874   6.628  27.205   8.913
    2AU     LIG  875   6.367  27.587   9.043
    2AU    AUSL  876   6.367  25.480   7.639
    2AU    AUSL  877   6.705  25.494   7.321
    2AU     AUL  878   6.317  25.730   7.371
    2AU       S  879   6.342  25.897   7.844
    2AU     LIG  880   6.465  26.361   7.986
    2AU     LIG  881   6.637  26.692   8.269
    2AU     LIG  882   6.580  27.139   8.402
    2AU     LIG  883   6.543  27.585   8.554
    2AU     LIG  884   6.455  28.062   8.551
    2AU       S  885   6.798  25.896   7.211
    2AU     LIG  886   6.938  26.321   7.132
    2AU     LIG  887   7.041  26.630   6.819
    2AU     LIG  888   7.248  27.045   6.727
    2AU     LIG  889   7.482  27.474   6.765
    2AU     LIG  890   7.420  27.919   6.636
    2AU    AUSL  891   6.727  25.455   7.665
    2AU    AUSL  892   6.799  25.171   8.074
    2AU     AUL  893   6.837  25.509   7.993
    2AU       S  894   7.108  25.400   8.403
    2AU     LIG  895   7.395  25.391   8.781
    2AU     LIG  896   7.610  25.707   8.997
    2AU     LIG  897   7.845  26.050   9.153
    2AU     LIG  898   7.996  26.262   9.513
    2AU     LIG  899   7.813  26.514   9.862
    2AU       S  900   6.684  25.920   7.729
    2AU     LIG  901   6.967  26.245   7.909
    2AU     LIG  902   7.133  26.558   8.199
    2AU     LIG  903   7.092  27.008   8.335
    2AU     LIG  904   7.264  27.456   8.362
    2AU     LIG  905   7.550  27.848   8.366
    2AU    AUSL  906   6.500  24.089   7.938
    2AU    AUSL  907   6.849  24.099   7.822
    2AU     AUL  908   6.582  24.033   8.223
    2AU       S  909   6.651  23.568   8.024
    2AU     LIG  910   6.488  23.156   8.211
    2AU     LIG  911   6.159  22.813   8.298
    2AU     LIG  912   6.029  22.440   8.565
    2AU     LIG  913   6.091  22.137   8.917
    2AU     LIG  914   6.253  22.019   9.352
    2AU       S  915   7.090  23.813   7.965
    2AU     LIG  916   7.140  23.356   8.007
    2AU     LIG  917   7.364  23.030   8.274
    2AU     LIG  918   7.564  22.758   8.618
    2AU     LIG  919   7.906  22.470   8.787
    2AU     LIG  920   8.243  22.137   8.915
    2AU    AUSL  921   6.288  24.031   7.663
    2AU    AUSL  922   6.219  24.235   8.078
    2AU     AUL  923   6.203  23.877   7.970
    2AU       S  924   6.485  23.471   7.812
    2AU     LIG  925   6.238  23.111   7.718
    2AU     LIG  926   5.977  22.743   7.796
    2AU     LIG  927   5.935  22.384   8.067
    2AU     LIG  928   5.693  22.077   8.339
    2AU     LIG  929   5.534  21.641   8.229
    2AU       S  930   5.994  24.031   8.424
    2AU     LIG  931   5.650  23.722   8.656
    2AU     LIG  932   5.369  23.320   8.661
    2AU     LIG  933   5.155  22.958   8.904
    2AU     LIG  934   4.930  22.725   9.247
    2AU     LIG  935   4.775  22.662   9.690
    2AU    AUSL  936   6.606  23.933   7.643
    2AU    AUSL  937   6.262  23.978   7.317
    2AU     AUL  938   6.155  23.774   7.600
    2AU       S  939   6.274  23.495   7.195
    2AU     LIG  940   6.076  23.049   7.195
    2AU     LIG  941   5.860  22.636   7.089
    2AU     LIG  942   5.606  22.238   7.004
    2AU     LIG  943   5.573  21.785   6.942
    2AU     LIG  944   5.460  21.465   6.605
    2AU       S  945   6.733  23.558   7.733
    2AU     LIG  946   6.758  23.065   7.773
    2AU     LIG  947   6.493  22.697   7.927
    2AU     LIG  948   6.487  22.278   8.153
    2AU     LIG  949   6.813  21.898   8.212
    2AU     LIG  950   7.024  21.451   8.248
    2AU    AUSL  951   6.563  25.341   6.996
    2AU    AUSL  952   6.954  25.266   7.245
    2AU     AUL  953   6.897  25.456   6.976
    2AU       S  954   6.639  25.838   6.805
    2AU     LIG  955   6.570  26.094   6.437
    2AU     LIG  956   6.776  26.508   6.360
    2AU     LIG  957   6.840  26.878   6.063
    2AU     LIG  958   6.803  27.182   5.683
    2AU     LIG  959   6.741  27.608   5.457
    2AU       S  960   7.402  25.432   6.915
    2AU     LIG  961   7.675  25.752   6.710
    2AU     LIG  962   7.990  25.863   6.389
    2AU     LIG  963   8.174  26.200   6.118
    2AU     LIG  964   8.430  26.626   6.088
    2AU     LIG  965   8.670  27.066   6.050
    2AU    AUSL  966   6.379  25.401   7.294
    2AU    AUSL  967   6.245  25.204   6.922
    2AU     AUL  968   6.268  25.551   7.006
    2AU       S  969   6.602  25.950   7.031
    2AU     LIG  970   6.547  26.401   6.834
    2AU     LIG  971   6.526  26.876   6.770
    2AU     LIG  972   6.318  27.326   6.848
    2AU     LIG  973   6.249  27.753   6.636
    2AU     LIG  974   5.988  28.092   6.389
    2AU       S  975   5.859  25.510   6.712
    2AU     LIG  976   5.870  25.783   6.343
    2AU     LIG  977   5.646  25.857   5.947
    2AU     LIG  978   5.414  25.893   5.532
    2AU     LIG  979   5.324  26.188   5.174
    2AU     LIG  980   5.235  26.632   5.032
    2AU    AUSL  981   6.463  24.078   7.029
    2AU    AUSL  982   5.984  24.172   7.215
    2AU     AUL  983   6.158  23.951   6.956
    2AU       S  984   5.658  23.980   6.910
    2AU     LIG  985   5.293  23.696   7.011
    2AU     LIG  986   5.108  23.273   6.894
    2AU     LIG  987   4.973  22.914   6.608
    2AU     LIG  988   4.730  22.725   6.245
    2AU     LIG  989   4.595  22.288   6.124
    2AU       S  990   6.440  23.529   6.979
    2AU     LIG  991   6.293  23.188   6.744
    2AU     LIG  992   6.118  22.786   6.665
    2AU     LIG  993   6.236  22.367   6.511
    2AU     LIG  994   6.396  22.117   6.134
    2AU     LIG  995   6.564  21.977   5.706
    2AU    AUSL  996   6.629  23.961   7.314
    2AU    AUSL  997   6.757  24.223   6.930
    2AU     AUL  998   6.795  23.878   7.026
    2AU       S  999   6.555  23.499   7.277
    2AU     LIG 1000   6.581  23.047   7.178
    2AU     LIG 1001   6.413  22.617   7.051
    2AU     LIG 1002   6.542  22.175   6.892
    2AU     LIG 1003   6.658  21.712   6.840
    2AU     LIG 1004   6.776  21.373   6.533
    2AU       S 1005   6.984  24.056   6.578
    2AU     LIG 1006   7.037  23.719   6.270
    2AU     LIG 1007   7.176  23.297   6.130
    2AU     LIG 1008   7.463  23.005   5.910
    2AU     LIG 1009   7.705  22.867   5.525
    2AU     LIG 1010   7.895  22.669   5.135
    3AU     AUC 1011  38.801  17.841   7.504
    3AU     AUC 1012  39.073  17.821   7.346
    3AU     AUC 1013  39.066  17.826   7.674
    3AU     AUC 1014  38.537  17.855   7.333
    3AU     AUC 1015  38.533  17.863   7.667
    3AU     AUC 1016  38.656  18.117   7.492
    3AU     AUC 1017  38.986  18.094   7.502
    3AU     AUC 1018  38.613  17.585   7.507
    3AU     AUC 1019  38.943  17.562   7.509
    3AU     AUC 1020  38.785  17.682   7.777
    3AU     AUC 1021  38.812  18.010   7.770
    3AU     AUC 1022  38.798  17.672   7.240
    3AU     AUC 1023  38.818  17.999   7.230
    3AU     AUC 1024  39.341  17.810   7.194
    3AU     AUC 1025  39.343  17.799   7.512
    3AU     AUC 1026  39.323  17.808   7.833
    3AU     AUC 1027  38.286  17.860   7.161
    3AU     AUC 1028  38.259  17.875   7.497
    3AU     AUC 1029  38.277  17.892   7.826
    3AU     AUC 1030  38.528  18.393   7.477
    3AU     AUC 1031  38.838  18.378   7.476
    3AU     AUC 1032  39.164  18.338   7.497
    3AU     AUC 1033  38.430  17.340   7.510
    3AU     AUC 1034  38.755  17.296   7.503
    3AU     AUC 1035  39.078  17.286   7.519
    3AU     AUC 1036  38.776  17.530   8.040
    3AU     AUC 1037  38.800  17.852   8.058
    3AU     AUC 1038  38.817  18.178   8.017
    3AU     AUC 1039  38.812  17.510   6.988
    3AU     AUC 1040  38.836  17.831   6.959
    3AU     AUC 1041  38.837  18.143   6.961
    3AU     AUC 1042  39.062  17.667   7.949
    3AU     AUC 1043  39.093  18.000   7.953
    3AU     AUC 1044  39.087  17.662   7.075
    3AU     AUC 1045  39.104  17.993   7.073
    3AU     AUC 1046  38.515  17.703   7.961
    3AU     AUC 1047  38.535  18.032   7.941
    3AU     AUC 1048  38.534  17.681   7.066
    3AU     AUC 1049  38.546  18.002   7.039
    3AU     AUC 1050  39.268  18.075   7.350
    3AU     AUC 1051  39.261  18.090   7.683
    3AU     AUC 1052  38.385  18.142   7.313
    3AU     AUC 1053  38.385  18.159   7.661
    3AU     AUC 1054  39.226  17.534   7.353
    3AU     AUC 1055  39.209  17.533   7.678
    3AU     AUC 1056  38.332  17.595   7.339
    3AU     AUC 1057  38.338  17.598   7.679
    3AU     AUC 1058  38.673  18.304   7.753
    3AU     AUC 1059  39.004  18.270   7.772
    3AU     AUC 1060  38.593  17.420   7.790
    3AU     AUC 1061  38.920  17.389   7.775
    3AU     AUC 1062  38.663  18.280   7.205
    3AU     AUC 1063  39.001  18.265   7.223
    3AU     AUC 1064  38.603  17.403   7.234
    3AU     AUC 1065  38.939  17.384   7.235
    3AU    AUSL 1066  39.301  17.778   8.130
    3AU    AUSL 1067  39.040  17.408   8.068
    3AU     AUL 1068  39.298  17.424   8.299
    3AU       S 1069  39.378  16.922   8.162
    3AU     LIG 1070  39.294  16.586   8.403
    3AU     LIG 1071  39.510  16.413   8.753
    3AU     LIG 1072  39.664  16.110   9.026
    3AU     LIG 1073  39.854  15.743   9.175
    3AU     LIG 1074  39.989  15.567   9.579
    3AU       S 1075  39.650  17.761   8.482
    3AU     LIG 1076  39.766  17.923   8.910
    3AU     LIG 1077  39.897  17.722   9.320
    3AU     LIG 1078  40.117  17.605   9.729
    3AU     LIG 1079  40.353  17.742  10.122
    3AU     LIG 1080  40.579  17.731  10.544
    3AU    AUSL 1081  38.979  17.686   8.270
    3AU    AUSL 1082  38.642  18.019   8.272
    3AU     AUL 1083  38.893  17.899   8.551
    3AU       S 1084  39.331  17.672   8.729
    3AU     LIG 1085  39.222  17.343   9.057
    3AU     LIG 1086  39.222  17.036   9.425
    3AU     LIG 1087  39.335  16.924   9.869
    3AU     LIG 1088  39.372  16.882  10.331
    3AU     LIG 1089  39.474  16.828  10.781
    3AU       S 1090  38.423  17.918   8.753
    3AU     LIG 1091  38.216  17.877   9.173
    3AU     LIG 1092  38.211  17.691   9.591
    3AU     LIG 1093  38.104  17.789  10.030
    3AU     LIG 1094  38.064  18.185  10.297
    3AU     LIG 1095  37.969  18.494  10.641
    3AU    AUSL 1096  38.971  18.065   8.221
    3AU    AUSL 1097  39.391  18.094   8.000
    3AU     AUL 1098  39.245  18.029   8.366
    3AU       S 1099  38.970  18.417   8.584
    3AU     LIG 1100  39.203  18.440   8.987
    3AU     LIG 1101  39.468  18.542   9.367
    3AU     LIG 1102  39.421  18.609   9.850
    3AU     LIG 1103  39.489  18.622  10.325
    3AU     LIG 1104  39.650  18.647  10.767
    3AU       S 1105  39.664  18.306   8.292
    3AU     LIG 1106  40.023  18.175   8.525
    3AU     LIG 1107  40.340  18.393   8.768
    3AU     LIG 1108  40.545  18.662   9.083
    3AU     LIG 1109  40.698  18.939   9.415
    3AU     LIG 1110  40.992  18.928   9.786
    3AU    AUSL 1111  39.287  17.923   6.882
    3AU    AUSL 1112  39.144  18.249   6.935
    3AU     AUL 1113  39.066  18.278   6.624
    3AU       S 1114  39.483  17.954   6.463
    3AU     LIG 1115  39.773  17.822   6.129
    3AU     LIG 1116  39.820  17.570   5.751
    3AU     LIG 1117  39.867  17.430   5.312
    3AU     LIG 1118  40.148  17.420   4.945
    3AU     LIG 1119  40.609  17.420   4.802
    3AU       S 1120  39.561  18.395   6.675
    3AU     LIG 1121  39.750  18.590   6.287
    3AU     LIG 1122  39.980  18.806   5.928
    3AU     LIG 1123  40.221  18.950   5.544
    3AU     LIG 1124  40.420  19.306   5.316
    3AU     LIG 1125  40.322  19.721   5.103
    3AU    AUSL 1126  39.102  17.643   6.800
    3AU    AUSL 1127  39.340  17.517   7.040
    3AU     AUL 1128  39.557  17.702   6.900
    3AU       S 1129  39.539  17.249   6.655
    3AU     LIG 1130  39.714  16.861   6.356
    3AU     LIG 1131  39.966  16.449   6.270
    3AU     LIG 1132  40.172  16.123   6.008
    3AU     LIG 1133  40.400  16.049   5.615
    3AU     LIG 1134  40.752  16.167   5.318
    3AU       S 1135  39.384  17.654   6.405
    3AU     LIG 1136  39.508  17.321   6.113
    3AU     LIG 1137  39.430  17.250   5.642
    3AU     LIG 1138  39.405  17.237   5.165
    3AU     LIG 1139  39.640  17.048   4.811
    3AU     LIG 1140  39.778  16.759   4.464
    3AU    AUSL 1141  38.981  17.953   6.730
    3AU    AUSL 1142  38.703  17.668   6.781
    3AU     AUL 1143  38.897  17.588   6.520
    3AU       S 1144  38.464  17.732   6.281
    3AU     LIG 1145  38.454  17.473   5.893
    3AU     LIG 1146  38.194  17.247   5.572
    3AU     LIG 1147  37.946  17.261   5.167
    3AU     LIG 1148  37.813  17.105   4.731
    3AU     LIG 1149  37.873  16.896   4.294
    3AU       S 1150  39.239  17.914   6.303
    3AU     LIG 1151  39.329  17.738   5.868
    3AU     LIG 1152  39.440  17.711   5.402
    3AU     LIG 1153  39.577  17.686   4.941
    3AU     LIG 1154  39.568  17.932   4.527
    3AU     LIG 1155  39.678  18.100   4.095
    3AU    AUSL 1156  38.327  17.931   8.146
    3AU    AUSL 1157  38.541  18.282   8.049
    3AU     AUL 1158  38.426  18.263   8.381
    3AU       S 1159  38.154  17.913   8.652
    3AU     LIG 1160  37.962  17.541   8.884
    3AU     LIG 1161  37.821  17.462   9.345
    3AU     LIG 1162  37.532  17.414   9.741
    3AU     LIG 1163  37.325  17.404  10.177
    3AU     LIG 1164  37.041  17.591  10.508
    3AU       S 1165  38.098  18.629   8.197
    3AU     LIG 1166  38.022  18.783   8.645
    3AU     LIG 1167  37.979  18.979   9.078
    3AU     LIG 1168  37.945  19.374   9.332
    3AU     LIG 1169  37.860  19.524   9.779
    3AU     LIG 1170  37.700  19.588  10.229
    3AU    AUSL 1171  38.616  17.667   8.266
    3AU    AUSL 1172  38.229  17.616   7.964
    3AU     AUL 1173  38.242  17.628   8.264
    3AU       S 1174  37.934  17.247   8.314
    3AU     LIG 1175  37.496  17.168   8.290
    3AU     LIG 1176  37.241  16.818   8.418
    3AU     LIG 1177  37.013  16.515   8.685
    3AU     LIG 1178  36.817  16.277   9.033
    3AU     LIG 1179  36.496  16.226   9.363
    3AU       S 1180  38.454  17.644   8.714
    3AU     LIG 1181  38.412  17.405   9.108
    3AU     LIG 1182  38.243  17.185   9.471
    3AU     LIG 1183  38.012  17.278   9.853
    3AU     LIG 1184  37.778  17.169  10.235
    3AU     LIG 1185  37.596  17.055  10.650
    3AU    AUSL 1186  38.380  17.794   6.828
    3AU    AUSL 1187  38.492  17.421   6.949
    3AU     AUL 1188  38.577  17.396   6.640
    3AU       S 1189  38.237  17.726   6.391
    3AU     LIG 1190  37.979  17.622   5.993
    3AU     LIG 1191  37.746  17.518   5.583
    3AU     LIG 1192  37.433  17.395   5.237
    3AU     LIG 1193  37.122  17.478   4.883
    3AU     LIG 1194  37.065  17.616   4.438
    3AU       S 1195  38.085  17.272   6.616
    3AU     LIG 1196  37.778  16.885   6.437
    3AU     LIG 1197  37.488  16.501   6.402
    3AU     LIG 1198  37.238  16.242   6.100
    3AU     LIG 1199  37.191  16.111   5.645
    3AU     LIG 1200  37.357  15.842   5.281
    3AU    AUSL 1201  38.651  18.018   6.732
    3AU    AUSL 1202  38.241  18.130   7.001
    3AU     AUL 1203  38.323  18.143   6.663
    3AU       S 1204  37.891  18.400   6.735
    3AU     LIG 1205  37.745  18.710   6.376
    3AU     LIG 1206  37.574  18.779   5.927
    3AU     LIG 1207  37.243  18.705   5.564
    3AU     LIG 1208  36.888  18.857   5.279
    3AU     LIG 1209  36.580  19.051   4.979
    3AU       S 1210  38.588  17.962   6.275
    3AU     LIG 1211  38.341  17.981   5.863
    3AU     LIG 1212  38.200  17.751   5.486
    3AU     LIG 1213  38.092  17.745   5.026
    3AU     LIG 1214  38.058  17.984   4.609
    3AU     LIG 1215  37.951  18.300   4.258
    3AU    AUSL 1216  39.471  18.241   7.480
    3AU    AUSL 1217  39.447  18.115   7.130
    3AU     AUL 1218  39.564  18.533   7.363
    3AU       S 1219  39.736  18.230   6.871
    3AU     LIG 1220  39.980  18.159   6.481
    3AU     LIG 1221  40.232  18.413   6.173
    3AU     LIG 1222  40.500  18.708   5.911
    3AU     LIG 1223  40.741  18.975   5.600
    3AU     LIG 1224  41.127  19.139   5.370
    3AU       S 1225  39.993  18.265   7.297
    3AU     LIG 1226  40.518  18.266   7.328
    3AU     LIG 1227  40.998  18.311   7.398
    3AU     LIG 1228  41.460  18.460   7.480
    3AU     LIG 1229  41.667  18.920   7.498
    3AU     LIG 1230  41.946  19.322   7.476
    3AU    AUSL 1231  39.591  17.907   7.377
    3AU    AUSL 1232  39.528  17.641   7.663
    3AU     AUL 1233  39.825  17.808   7.765
    3AU       S 1234  39.966  17.957   7.245
    3AU     LIG 1235  40.367  17.912   6.999
    3AU     LIG 1236  40.841  17.905   7.117
    3AU     LIG 1237  41.330  18.039   7.089
    3AU     LIG 1238  41.764  18.264   7.072
    3AU     LIG 1239  42.203  18.422   6.995
    3AU       S 1240  39.976  17.362   7.555
    3AU     LIG 1241  40.389  17.206   7.625
    3AU     LIG 1242  40.662  16.853   7.689
    3AU     LIG 1243  41.106  16.759   7.704
    3AU     LIG 1244  41.538  16.853   7.870
    3AU     LIG 1245  41.914  17.098   8.033
    3AU    AUSL 1246  39.532  17.986   7.706
    3AU    AUSL 1247  39.330  18.385   7.779
    3AU     AUL 1248  39.675  18.291   7.779
    3AU       S 1249  39.622  18.601   8.176
    3AU     LIG 1250  39.988  18.694   8.481
    3AU     LIG 1251  40.299  18.944   8.737
    3AU     LIG 1252  40.566  19.274   8.978
    3AU     LIG 1253  40.739  19.744   8.987
    3AU     LIG 1254  40.956  20.190   8.890
    3AU       S 1255  40.065  18.133   7.485
    3AU     LIG 1256  40.428  18.102   7.801
    3AU     LIG 1257  40.879  18.187   7.881
    3AU     LIG 1258  41.312  18.316   7.974
    3AU     LIG 1259  41.784  18.317   7.965
    3AU     LIG 1260  42.255  18.351   7.973
    3AU    AUSL 1261  38.243  18.380   7.505
    3AU    AUSL 1262  38.223  18.194   7.928
    3AU     AUL 1263  37.934  18.401   7.695
    3AU       S 1264  37.940  18.354   8.214
    3AU     LIG 1265  37.795  18.322   8.655
    3AU     LIG 1266  37.629  18.602   9.000
    3AU     LIG 1267  37.320  18.789   9.321
    3AU     LIG 1268  36.908  18.913   9.551
    3AU     LIG 1269  36.494  19.079   9.746
    3AU       S 1270  38.145  18.851   7.476
    3AU     LIG 1271  37.759  19.168   7.424
    3AU     LIG 1272  37.303  19.402   7.440
    3AU     LIG 1273  36.858  19.620   7.540
    3AU     LIG 1274  36.432  19.846   7.591
    3AU     LIG 1275  36.022  19.950   7.831
    3AU    AUSL 1276  38.105  18.047   7.296
    3AU    AUSL 1277  38.359  18.431   7.178
    3AU     AUL 1278  37.991  18.361   7.240
    3AU       S 1279  37.739  17.952   6.929
    3AU     LIG 1280  37.370  18.265   6.842
    3AU     LIG 1281  36.892  18.406   6.839
    3AU     LIG 1282  36.419  18.450   6.723
    3AU     LIG 1283  35.957  18.560   6.648
    3AU     LIG 1284  35.494  18.661   6.583
    3AU       S 1285  38.140  18.798   6.988
    3AU     LIG 1286  37.818  19.050   6.783
    3AU     LIG 1287  37.737  19.277   6.375
    3AU     LIG 1288  37.646  19.669   6.124
    3AU     LIG 1289  37.346  20.035   6.000
    3AU     LIG 1290  36.885  20.181   6.040
    3AU    AUSL 1291  38.071  18.058   7.659
    3AU    AUSL 1292  38.015  17.725   7.337
    3AU     AUL 1293  37.788  18.077   7.433
    3AU       S 1294  37.533  17.623   7.415
    3AU     LIG 1295  37.075  17.445   7.432
    3AU     LIG 1296  36.641  17.304   7.456
    3AU     LIG 1297  36.233  17.356   7.252
    3AU     LIG 1298  35.934  17.085   7.099
    3AU     LIG 1299  35.718  16.688   7.035
    3AU       S 1300  37.690  18.001   7.964
    3AU     LIG 1301  37.285  18.211   8.080
    3AU     LIG 1302  36.813  18.268   7.998
    3AU     LIG 1303  36.411  18.523   8.044
    3AU     LIG 1304  36.109  18.752   8.333
    3AU     LIG 1305  35.655  18.707   8.411
    3AU    AUSL 1306  39.408  17.329   7.573
    3AU    AUSL 1307  39.343  17.494   7.925
    3AU     AUL 1308  39.662  17.510   7.938
    3AU       S 1309  39.822  17.141   7.607
    3AU     LIG 1310  40.074  16.785   7.639
    3AU     LIG 1311  40.370  16.548   7.394
    3AU     LIG 1312  40.828  16.472   7.363
    3AU     LIG 1313  41.283  16.365   7.420
    3AU     LIG 1314  41.738  16.254   7.489
    3AU       S 1315  39.595  17.031   8.069
    3AU     LIG 1316  39.790  16.732   8.419
    3AU     LIG 1317  40.003  16.358   8.641
    3AU     LIG 1318  40.194  16.071   8.950
    3AU     LIG 1319  40.547  16.077   9.271
    3AU     LIG 1320  40.910  16.178   9.569
    3AU    AUSL 1321  39.527  17.576   7.319
    3AU    AUSL 1322  39.216  17.260   7.251
    3AU     AUL 1323  39.518  17.216   7.219
    3AU       S 1324  39.956  17.443   7.326
    3AU     LIG 1325  40.179  17.045   7.187
    3AU     LIG 1326  40.625  16.927   7.157
    3AU     LIG 1327  41.089  16.873   7.169
    3AU     LIG 1328  41.548  16.766   7.231
    3AU     LIG 1329  41.923  17.035   7.318
    3AU       S 1330  39.497  17.034   6.757
    3AU     LIG 1331  39.540  16.575   6.842
    3AU     LIG 1332  39.852  16.262   6.745
    3AU     LIG 1333  40.011  15.934   6.460
    3AU     LIG 1334  40.214  15.620   6.177
    3AU     LIG 1335  40.405  15.219   6.025
    3AU    AUSL 1336  38.129  17.417   7.520
    3AU    AUSL 1337  38.196  17.606   7.057
    3AU     AUL 1338  37.946  17.378   7.241
    3AU       S 1339  37.936  17.483   6.735
    3AU     LIG 1340  37.519  17.304   6.617
    3AU     LIG 1341  37.246  16.941   6.530
    3AU     LIG 1342  36.968  16.609   6.365
    3AU     LIG 1343  36.718  16.284   6.124
    3AU     LIG 1344  36.467  16.200   5.733
    3AU       S 1345  37.558  17.373   7.555
    3AU     LIG 1346  37.321  16.993   7.394
    3AU     LIG 1347  36.876  16.855   7.289
    3AU     LIG 1348  36.386  16.848   7.333
    3AU     LIG 1349  35.954  16.768   7.499
    3AU     LIG 1350  35.638  16.420   7.492
    3AU    AUSL 1351  38.044  17.721   7.687
    3AU    AUSL 1352  38.284  17.293   7.811
    3AU     AUL 1353  37.962  17.425   7.844
    3AU       S 1354  37.992  17.026   8.148
    3AU     LIG 1355  37.642  16.724   8.072
    3AU     LIG 1356  37.329  16.389   8.144
    3AU     LIG 1357  37.130  16.086   8.429
    3AU     LIG 1358  36.861  15.851   8.737
    3AU     LIG 1359  36.516  15.513   8.777
    3AU       S 1360  37.553  17.643   7.639
    3AU     LIG 1361  37.146  17.818   7.774
    3AU     LIG 1362  36.679  17.752   7.737
    3AU     LIG 1363  36.247  17.535   7.725
    3AU     LIG 1364  35.814  17.320   7.592
    3AU     LIG 1365  35.501  17.094   7.890
    3AU    AUSL 1366  38.820  18.496   7.946
    3AU    AUSL 1367  38.439  18.483   7.789
    3AU     AUL 1368  38.603  18.553   8.210
    3AU       S 1369  38.224  18.804   7.956
    3AU     LIG 1370  38.242  19.120   8.304
    3AU     LIG 1371  38.091  19.304   8.707
    3AU     LIG 1372  37.758  19.572   8.874
    3AU     LIG 1373  37.387  19.863   8.843
    3AU     LIG 1374  37.041  20.125   9.023
    3AU       S 1375  38.740  18.982   8.004
    3AU     LIG 1376  38.890  19.246   8.360
    3AU     LIG 1377  38.847  19.644   8.604
    3AU     LIG 1378  38.887  19.935   8.966
    3AU     LIG 1379  38.767  20.298   9.247
    3AU     LIG 1380  38.883  20.626   9.573
    3AU    AUSL 1381  38.719  18.623   7.604
    3AU    AUSL 1382  39.003  18.584   7.318
    3AU     AUL 1383  39.176  18.801   7.527
    3AU       S 1384  38.616  19.008   7.704
    3AU     LIG 1385  38.543  19.421   8.028
    3AU     LIG 1386  38.705  19.846   8.157
    3AU     LIG 1387  38.779  20.298   8.283
    3AU     LIG 1388  38.421  20.637   8.300
    3AU     LIG 1389  38.019  20.925   8.339
    3AU       S 1390  38.866  19.059   7.222
    3AU     LIG 1391  39.063  19.461   7.089
    3AU     LIG 1392  39.286  19.714   6.773
    3AU     LIG 1393  39.230  20.132   6.573
    3AU     LIG 1394  39.327  20.609   6.662
    3AU     LIG 1395  39.511  21.053   6.812
    3AU    AUSL 1396  39.033  18.523   7.669
    3AU    AUSL 1397  39.114  18.325   8.056
    3AU     AUL 1398  39.164  18.679   7.949
    3AU       S 1399  39.418  18.518   8.379
    3AU     LIG 1400  39.668  18.442   8.787
    3AU     LIG 1401  39.990  18.642   9.050
    3AU     LIG 1402  40.202  19.010   9.249
    3AU     LIG 1403  40.393  19.378   9.471
    3AU     LIG 1404  40.289  19.713   9.794
    3AU       S 1405  38.866  19.090   7.789
    3AU     LIG 1406  39.041  19.503   7.938
    3AU     LIG 1407  39.205  19.826   8.247
    3AU     LIG 1408  39.325  20.277   8.311
    3AU     LIG 1409  39.631  20.643   8.256
    3AU     LIG 1410  39.774  21.084   8.296
    3AU    AUSL 1411  38.775  17.208   7.967
    3AU    AUSL 1412  39.151  17.214   7.810
    3AU     AUL 1413  38.961  17.181   8.258
    3AU       S 1414  38.925  16.715   8.051
    3AU     LIG 1415  38.771  16.468   8.381
    3AU     LIG 1416  38.672  16.036   8.422
    3AU     LIG 1417  38.732  15.611   8.518
    3AU     LIG 1418  38.765  15.370   8.910
    3AU     LIG 1419  38.577  15.186   9.311
    3AU       S 1420  39.393  16.897   7.884
    3AU     LIG 1421  39.692  16.552   7.952
    3AU     LIG 1422  39.657  16.230   8.284
    3AU     LIG 1423  39.774  15.885   8.590
    3AU     LIG 1424  40.099  15.593   8.738
    3AU     LIG 1425  40.383  15.305   8.941
    3AU    AUSL 1426  38.565  17.149   7.685
    3AU    AUSL 1427  38.494  17.389   8.094
    3AU     AUL 1428  38.472  17.029   8.002
    3AU       S 1429  38.740  16.613   7.897
    3AU     LIG 1430  38.413  16.284   8.050
    3AU     LIG 1431  38.361  15.796   8.099
    3AU     LIG 1432  38.199  15.342   8.195
    3AU     LIG 1433  37.922  14.922   8.174
    3AU     LIG 1434  37.815  14.449   8.223
    3AU       S 1435  38.188  17.132   8.416
    3AU     LIG 1436  37.795  16.823   8.564
    3AU     LIG 1437  37.525  16.432   8.623
    3AU     LIG 1438  37.298  16.133   8.913
    3AU     LIG 1439  37.141  15.933   9.310
    3AU     LIG 1440  37.247  15.659   9.701
    3AU    AUSL 1441  38.884  17.055   7.658
    3AU    AUSL 1442  38.565  17.098   7.332
    3AU     AUL 1443  38.454  16.879   7.592
    3AU       S 1444  38.618  16.617   7.183
    3AU     LIG 1445  38.488  16.202   6.961
    3AU     LIG 1446  38.367  15.728   6.860
    3AU     LIG 1447  38.299  15.250   6.812
    3AU     LIG 1448  38.062  14.808   6.839
    3AU     LIG 1449  38.025  14.340   6.704
    3AU       S 1450  38.979  16.652   7.760
    3AU     LIG 1451  38.847  16.149   7.838
    3AU     LIG 1452  38.885  15.740   8.034
    3AU     LIG 1453  39.133  15.403   8.245
    3AU     LIG 1454  39.396  15.036   8.394
    3AU     LIG 1455  39.513  14.642   8.154
    3AU    AUSL 1456  38.866  18.453   7.011
    3AU    AUSL 1457  39.274  18.393   7.226
    3AU     AUL 1458  39.181  18.630   6.978
    3AU       S 1459  38.843  19.007   6.942
    3AU     LIG 1460  38.976  19.316   6.595
    3AU     LIG 1461  39.069  19.676   6.300
    3AU     LIG 1462  39.036  19.928   5.917
    3AU     LIG 1463  38.929  20.308   5.674
    3AU     LIG 1464  39.031  20.734   5.511
    3AU       S 1465  39.687  18.520   6.875
    3AU     LIG 1466  40.089  18.625   6.671
    3AU     LIG 1467  40.283  18.905   6.344
    3AU     LIG 1468  40.603  19.184   6.116
    3AU     LIG 1469  40.904  19.564   6.102
    3AU     LIG 1470  41.126  19.865   5.817
    3AU    AUSL 1471  38.650  18.579   7.268
    3AU    AUSL 1472  38.553  18.284   6.925
    3AU     AUL 1473  38.594  18.584   6.872
    3AU       S 1474  38.579  19.006   7.196
    3AU     LIG 1475  38.583  19.423   6.917
    3AU     LIG 1476  38.783  19.791   6.709
    3AU     LIG 1477  38.716  20.242   6.630
    3AU     LIG 1478  38.359  20.567   6.683
    3AU     LIG 1479  38.029  20.936   6.649
    3AU       S 1480  38.123  18.620   6.717
    3AU     LIG 1481  38.178  19.003   6.415
    3AU     LIG 1482  38.045  19.158   5.972
    3AU     LIG 1483  37.951  19.385   5.554
    3AU     LIG 1484  37.753  19.506   5.112
    3AU     LIG 1485  37.486  19.691   4.744
    3AU    AUSL 1486  38.756  17.189   7.035
    3AU    AUSL 1487  38.297  17.298   7.223
    3AU     AUL 1488  38.425  17.060   6.984
    3AU       S 1489  37.959  17.148   6.810
    3AU     LIG 1490  37.575  16.871   6.925
    3AU     LIG 1491  37.236  16.532   6.852
    3AU     LIG 1492  37.047  16.164   6.593
    3AU     LIG 1493  36.670  15.889   6.464
    3AU     LIG 1494  36.439  15.468   6.409
    3AU       S 1495  38.756  16.672   6.936
    3AU     LIG 1496  38.871  16.361   6.610
    3AU     LIG 1497  38.767  15.931   6.611
    3AU     LIG 1498  38.714  15.507   6.484
    3AU     LIG 1499  38.806  15.294   6.075
    3AU     LIG 1500  38.747  15.190   5.611
    3AU    AUSL 1501  38.926  17.082   7.329
    3AU    AUSL 1502  39.046  17.340   6.933
    3AU     AUL 1503  39.105  17.008   7.053
    3AU       S 1504  38.877  16.619   7.273
    3AU     LIG 1505  38.989  16.224   7.079
    3AU     LIG 1506  38.805  15.815   7.110
    3AU     LIG 1507  38.776  15.397   6.991
    3AU     LIG 1508  39.036  15.146   6.710
    3AU     LIG 1509  39.440  14.917   6.670
    3AU       S 1510  39.257  17.166   6.579
    3AU     LIG 1511  39.212  16.728   6.465
    3AU     LIG 1512  39.473  16.384   6.361
    3AU     LIG 1513  39.654  16.050   6.071
    3AU     LIG 1514  39.837  16.039   5.625
    3AU     LIG 1515  40.068  16.059   5.213
    4AU     AUC 1516  11.824   1.084   7.499
    4AU     AUC 1517  12.096   1.063   7.341
    4AU     AUC 1518  12.088   1.067   7.668
    4AU     AUC 1519  11.558   1.099   7.333
    4AU     AUC 1520  11.556   1.104   7.662
    4AU     AUC 1521  11.678   1.363   7.492
    4AU     AUC 1522  12.007   1.341   7.498
    4AU     AUC 1523  11.637   0.826   7.499
    4AU     AUC 1524  11.968   0.803   7.500
    4AU     AUC 1525  11.808   0.922   7.766
    4AU     AUC 1526  11.834   1.250   7.766
    4AU     AUC 1527  11.820   0.916   7.235
    4AU     AUC 1528  11.838   1.244   7.228
    4AU     AUC 1529  12.364   1.052   7.190
    4AU     AUC 1530  12.369   1.042   7.504
    4AU     AUC 1531  12.343   1.050   7.823
    4AU     AUC 1532  11.305   1.106   7.166
    4AU     AUC 1533  11.279   1.115   7.503
    4AU     AUC 1534  11.302   1.127   7.826
    4AU     AUC 1535  11.547   1.639   7.485
    4AU     AUC 1536  11.858   1.636   7.477
    4AU     AUC 1537  12.180   1.588   7.494
    4AU     AUC 1538  11.456   0.579   7.500
    4AU     AUC 1539  11.784   0.536   7.489
    4AU     AUC 1540  12.104   0.527   7.509
    4AU     AUC 1541  11.788   0.762   8.022
    4AU     AUC 1542  11.813   1.082   8.052
    4AU     AUC 1543  11.846   1.404   8.025
    4AU     AUC 1544  11.832   0.756   6.982
    4AU     AUC 1545  11.855   1.077   6.957
    4AU     AUC 1546  11.855   1.387   6.960
    4AU     AUC 1547  12.071   0.900   7.946
    4AU     AUC 1548  12.110   1.237   7.946
    4AU     AUC 1549  12.108   0.905   7.070
    4AU     AUC 1550  12.125   1.235   7.070
    4AU     AUC 1551  11.539   0.939   7.942
    4AU     AUC 1552  11.562   1.268   7.938
    4AU     AUC 1553  11.553   0.930   7.065
    4AU     AUC 1554  11.564   1.249   7.042
    4AU     AUC 1555  12.290   1.317   7.347
    4AU     AUC 1556  12.282   1.333   7.678
    4AU     AUC 1557  11.405   1.387   7.319
    4AU     AUC 1558  11.405   1.396   7.664
    4AU     AUC 1559  12.252   0.772   7.345
    4AU     AUC 1560  12.232   0.776   7.671
    4AU     AUC 1561  11.353   0.839   7.339
    4AU     AUC 1562  11.364   0.834   7.675
    4AU     AUC 1563  11.690   1.540   7.758
    4AU     AUC 1564  12.021   1.518   7.767
    4AU     AUC 1565  11.623   0.656   7.773
    4AU     AUC 1566  11.952   0.635   7.771
    4AU     AUC 1567  11.685   1.532   7.209
    4AU     AUC 1568  12.019   1.510   7.219
    4AU     AUC 1569  11.624   0.648   7.227
    4AU     AUC 1570  11.963   0.625   7.225
    4AU    AUSL 1571  12.294   1.013   8.111
    4AU    AUSL 1572  12.094   0.658   8.106
    4AU     AUL 1573  12.182   0.967   8.421
    4AU       S 1574  12.376   0.277   8.249
    4AU     LIG 1575  12.263  44.974   8.535
    4AU     LIG 1576  12.499  44.644   8.734
    4AU     LIG 1577  12.788  44.406   9.015
    4AU     LIG 1578  13.068  44.276   9.366
    4AU     LIG 1579  13.228  44.097   9.760
    4AU       S 1580  12.573   0.678   8.459
    4AU     LIG 1581  12.640   0.711   8.920
    4AU     LIG 1582  12.749   0.704   9.379
    4AU     LIG 1583  13.045   0.750   9.754
    4AU     LIG 1584  13.422   0.790  10.054
    4AU     LIG 1585  13.810   0.904  10.306
    4AU    AUSL 1586  11.893   0.878   8.259
    4AU    AUSL 1587  11.690   1.233   8.270
    4AU     AUL 1588  11.876   1.073   8.580
    4AU       S 1589  12.204   0.534   8.640
    4AU     LIG 1590  12.228   0.464   9.105
    4AU     LIG 1591  12.399   0.339   9.525
    4AU     LIG 1592  12.516   0.246   9.970
    4AU     LIG 1593  12.680   0.231  10.413
    4AU     LIG 1594  12.718   0.142  10.873
    4AU       S 1595  11.398   1.089   8.737
    4AU     LIG 1596  11.209   1.007   9.156
    4AU     LIG 1597  11.128   0.927   9.612
    4AU     LIG 1598  11.041   0.987  10.071
    4AU     LIG 1599  11.123   1.313  10.438
    4AU     LIG 1600  11.243   1.633  10.797
    4AU    AUSL 1601  12.037   1.267   8.242
    4AU    AUSL 1602  12.410   1.336   7.992
    4AU     AUL 1603  12.422   1.226   8.361
    4AU       S 1604  12.055   1.560   8.607
    4AU     LIG 1605  12.225   1.717   9.028
    4AU     LIG 1606  12.425   1.758   9.467
    4AU     LIG 1607  12.564   1.746   9.933
    4AU     LIG 1608  12.635   1.795  10.398
    4AU     LIG 1609  12.793   1.777  10.840
    4AU       S 1610  12.665   1.657   8.276
    4AU     LIG 1611  13.044   1.553   8.491
    4AU     LIG 1612  13.371   1.765   8.718
    4AU     LIG 1613  13.549   1.990   9.084
    4AU     LIG 1614  13.854   1.996   9.451
    4AU     LIG 1615  14.268   2.107   9.656
    4AU    AUSL 1616  12.308   1.164   6.876
    4AU    AUSL 1617  12.160   1.484   6.931
    4AU     AUL 1618  12.093   1.521   6.619
    4AU       S 1619  12.502   1.193   6.454
    4AU     LIG 1620  12.811   1.036   6.144
    4AU     LIG 1621  12.868   0.776   5.765
    4AU     LIG 1622  12.970   0.650   5.313
    4AU     LIG 1623  13.345   0.543   5.016
    4AU     LIG 1624  13.767   0.661   4.802
    4AU       S 1625  12.591   1.630   6.670
    4AU     LIG 1626  12.747   1.824   6.277
    4AU     LIG 1627  12.974   2.079   5.951
    4AU     LIG 1628  13.143   2.238   5.537
    4AU     LIG 1629  13.149   2.574   5.199
    4AU     LIG 1630  13.175   2.988   4.954
    4AU    AUSL 1631  12.121   0.887   6.797
    4AU    AUSL 1632  12.361   0.761   7.037
    4AU     AUL 1633  12.579   0.949   6.896
    4AU       S 1634  12.561   0.502   6.651
    4AU     LIG 1635  12.835   0.249   6.340
    4AU     LIG 1636  12.990  44.829   6.168
    4AU     LIG 1637  13.275  44.466   6.021
    4AU     LIG 1638  13.698  44.266   5.882
    4AU     LIG 1639  14.154  44.353   5.762
    4AU       S 1640  12.397   0.902   6.400
    4AU     LIG 1641  12.511   0.574   6.108
    4AU     LIG 1642  12.481   0.459   5.649
    4AU     LIG 1643  12.505   0.459   5.169
    4AU     LIG 1644  12.594   0.456   4.699
    4AU     LIG 1645  12.746   0.553   4.254
    4AU    AUSL 1646  11.999   1.197   6.726
    4AU    AUSL 1647  11.719   0.919   6.777
    4AU     AUL 1648  11.912   0.827   6.520
    4AU       S 1649  11.482   0.988   6.285
    4AU     LIG 1650  11.485   0.691   5.934
    4AU     LIG 1651  11.219   0.448   5.641
    4AU     LIG 1652  11.035   0.440   5.214
    4AU     LIG 1653  10.891   0.313   4.790
    4AU     LIG 1654  10.854   0.249   4.323
    4AU       S 1655  12.250   1.154   6.295
    4AU     LIG 1656  12.379   0.998   5.859
    4AU     LIG 1657  12.521   0.924   5.409
    4AU     LIG 1658  12.597   0.938   4.941
    4AU     LIG 1659  12.536   1.219   4.544
    4AU     LIG 1660  12.663   1.513   4.184
    4AU    AUSL 1661  11.360   1.185   8.141
    4AU    AUSL 1662  11.565   1.506   8.067
    4AU     AUL 1663  11.492   1.477   8.417
    4AU       S 1664  11.166   1.112   8.611
    4AU     LIG 1665  10.908   0.769   8.804
    4AU     LIG 1666  10.825   0.662   9.259
    4AU     LIG 1667  10.664   0.716   9.710
    4AU     LIG 1668  10.435   0.609  10.110
    4AU     LIG 1669  10.036   0.657  10.369
    4AU       S 1670  11.144   1.827   8.248
    4AU     LIG 1671  11.189   2.015   8.677
    4AU     LIG 1672  11.131   2.240   9.066
    4AU     LIG 1673  10.810   2.488   9.271
    4AU     LIG 1674  10.565   2.651   9.632
    4AU     LIG 1675  10.419   2.842  10.048
    4AU    AUSL 1676  11.543   0.909   8.225
    4AU    AUSL 1677  11.282   0.833   7.969
    4AU     AUL 1678  11.084   0.997   8.138
    4AU       S 1679  11.083   0.536   8.359
    4AU     LIG 1680  10.640   0.484   8.435
    4AU     LIG 1681  10.313   0.170   8.499
    4AU     LIG 1682  10.068  44.818   8.667
    4AU     LIG 1683   9.826  44.533   8.948
    4AU     LIG 1684   9.616  44.323   9.318
    4AU       S 1685  11.379   0.856   8.597
    4AU     LIG 1686  11.344   0.553   8.952
    4AU     LIG 1687  11.275   0.472   9.419
    4AU     LIG 1688  11.080   0.458   9.864
    4AU     LIG 1689  10.848   0.298  10.258
    4AU     LIG 1690  10.791   0.270  10.737
    4AU    AUSL 1691  11.396   1.044   6.830
    4AU    AUSL 1692  11.508   0.677   6.947
    4AU     AUL 1693  11.585   0.645   6.639
    4AU       S 1694  11.250   0.981   6.392
    4AU     LIG 1695  11.000   0.827   5.997
    4AU     LIG 1696  10.774   0.722   5.576
    4AU     LIG 1697  10.588   0.733   5.131
    4AU     LIG 1698  10.190   0.862   4.870
    4AU     LIG 1699   9.847   1.135   4.665
    4AU       S 1700  11.087   0.538   6.615
    4AU     LIG 1701  10.763   0.165   6.439
    4AU     LIG 1702  10.510  44.759   6.385
    4AU     LIG 1703  10.249  44.474   6.114
    4AU     LIG 1704  10.021  44.249   5.784
    4AU     LIG 1705  10.016  44.009   5.369
    4AU    AUSL 1706  11.670   1.268   6.734
    4AU    AUSL 1707  11.257   1.377   7.007
    4AU     AUL 1708  11.345   1.396   6.666
    4AU       S 1709  10.899   1.626   6.751
    4AU     LIG 1710  10.715   1.892   6.385
    4AU     LIG 1711  10.622   2.061   5.939
    4AU     LIG 1712  10.351   2.188   5.562
    4AU     LIG 1713   9.939   2.301   5.358
    4AU     LIG 1714   9.735   2.474   4.960
    4AU       S 1715  11.603   1.212   6.273
    4AU     LIG 1716  11.354   1.186   5.846
    4AU     LIG 1717  11.228   0.933   5.467
    4AU     LIG 1718  11.077   0.929   5.014
    4AU     LIG 1719  11.105   1.179   4.596
    4AU     LIG 1720  11.184   1.398   4.168
    4AU    AUSL 1721  12.491   1.485   7.482
    4AU    AUSL 1722  12.470   1.355   7.123
    4AU     AUL 1723  12.560   1.789   7.358
    4AU       S 1724  12.758   1.470   6.863
    4AU     LIG 1725  13.006   1.415   6.470
    4AU     LIG 1726  13.248   1.694   6.176
    4AU     LIG 1727  13.482   1.982   5.876
    4AU     LIG 1728  13.821   2.042   5.548
    4AU     LIG 1729  14.247   2.194   5.415
    4AU       S 1730  12.993   1.537   7.300
    4AU     LIG 1731  13.442   1.723   7.290
    4AU     LIG 1732  13.887   1.738   7.472
    4AU     LIG 1733  14.350   1.862   7.431
    4AU     LIG 1734  14.649   2.230   7.439
    4AU     LIG 1735  14.829   2.682   7.498
    4AU    AUSL 1736  12.617   1.152   7.366
    4AU    AUSL 1737  12.548   0.879   7.651
    4AU     AUL 1738  12.866   1.032   7.712
    4AU       S 1739  13.011   1.227   7.236
    4AU     LIG 1740  13.520   1.213   7.271
    4AU     LIG 1741  14.026   1.284   7.277
    4AU     LIG 1742  14.507   1.397   7.216
    4AU     LIG 1743  14.903   1.562   6.995
    4AU     LIG 1744  15.354   1.754   6.990
    4AU       S 1745  12.988   0.539   7.575
    4AU     LIG 1746  13.363   0.372   7.800
    4AU     LIG 1747  13.763   0.116   7.748
    4AU     LIG 1748  14.228  44.998   7.668
    4AU     LIG 1749  14.640   0.006   7.908
    4AU     LIG 1750  14.983  44.904   8.218
    4AU    AUSL 1751  12.566   1.223   7.702
    4AU    AUSL 1752  12.335   1.634   7.775
    4AU     AUL 1753  12.685   1.532   7.785
    4AU       S 1754  12.632   1.904   8.133
    4AU     LIG 1755  12.966   2.060   8.457
    4AU     LIG 1756  13.314   2.281   8.694
    4AU     LIG 1757  13.538   2.664   8.847
    4AU     LIG 1758  13.729   3.093   8.722
    4AU     LIG 1759  13.865   3.554   8.713
    4AU       S 1760  13.083   1.416   7.489
    4AU     LIG 1761  13.484   1.447   7.729
    4AU     LIG 1762  13.931   1.325   7.783
    4AU     LIG 1763  14.389   1.440   7.717
    4AU     LIG 1764  14.783   1.735   7.749
    4AU     LIG 1765  15.206   1.870   7.979
    4AU    AUSL 1766  11.264   1.621   7.520
    4AU    AUSL 1767  11.245   1.430   7.923
    4AU     AUL 1768  10.955   1.641   7.706
    4AU       S 1769  10.980   1.572   8.228
    4AU     LIG 1770  10.762   1.740   8.601
    4AU     LIG 1771  10.671   2.043   8.946
    4AU     LIG 1772  10.421   2.158   9.332
    4AU     LIG 1773  10.074   2.138   9.648
    4AU     LIG 1774   9.654   2.269   9.798
    4AU       S 1775  11.162   2.087   7.514
    4AU     LIG 1776  10.718   2.284   7.403
    4AU     LIG 1777  10.260   2.499   7.418
    4AU     LIG 1778   9.810   2.725   7.386
    4AU     LIG 1779   9.417   3.018   7.380
    4AU     LIG 1780   9.038   3.012   7.632
    4AU    AUSL 1781  11.126   1.288   7.302
    4AU    AUSL 1782  11.384   1.681   7.198
    4AU     AUL 1783  11.015   1.605   7.254
    4AU       S 1784  10.750   1.183   6.942
    4AU     LIG 1785  10.325   1.416   6.863
    4AU     LIG 1786   9.838   1.484   6.805
    4AU     LIG 1787   9.327   1.561   6.793
    4AU     LIG 1788   8.887   1.844   6.752
    4AU     LIG 1789   8.525   2.200   6.717
    4AU       S 1790  11.139   2.048   7.014
    4AU     LIG 1791  10.842   2.279   6.724
    4AU     LIG 1792  10.745   2.423   6.288
    4AU     LIG 1793  10.638   2.756   5.972
    4AU     LIG 1794  10.461   3.210   5.943
    4AU     LIG 1795  10.150   3.578   5.955
    4AU    AUSL 1796  11.084   1.291   7.662
    4AU    AUSL 1797  11.037   0.968   7.351
    4AU     AUL 1798  10.808   1.325   7.433
    4AU       S 1799  10.559   0.870   7.408
    4AU     LIG 1800  10.162   0.601   7.278
    4AU     LIG 1801   9.709   0.454   7.307
    4AU     LIG 1802   9.259   0.582   7.247
    4AU     LIG 1803   8.819   0.445   7.198
    4AU     LIG 1804   8.389   0.297   7.162
    4AU       S 1805  10.667   1.277   7.942
    4AU     LIG 1806  10.198   1.375   7.936
    4AU     LIG 1807   9.842   1.569   8.146
    4AU     LIG 1808   9.555   1.914   8.186
    4AU     LIG 1809   9.108   1.924   8.234
    4AU     LIG 1810   8.723   1.910   8.022
    4AU    AUSL 1811  12.429   0.565   7.566
    4AU    AUSL 1812  12.369   0.740   7.916
    4AU     AUL 1813  12.692   0.769   7.916
    4AU       S 1814  12.808   0.344   7.622
    4AU     LIG 1815  13.121  44.996   7.548
    4AU     LIG 1816  13.527  44.745   7.479
    4AU     LIG 1817  13.988  44.575   7.493
    4AU     LIG 1818  14.430  44.351   7.552
    4AU     LIG 1819  14.817  44.080   7.593
    4AU       S 1820  12.592   0.315   8.109
    4AU     LIG 1821  12.770   0.001   8.413
    4AU     LIG 1822  13.021  44.742   8.696
    4AU     LIG 1823  13.307  44.508   8.973
    4AU     LIG 1824  13.560  44.471   9.367
    4AU     LIG 1825  13.971  44.612   9.556
    4AU    AUSL 1826  12.562   0.818   7.310
    4AU    AUSL 1827  12.243   0.488   7.238
    4AU     AUL 1828  12.554   0.469   7.203
    4AU       S 1829  13.004   0.641   7.351
    4AU     LIG 1830  13.421   0.334   7.294
    4AU     LIG 1831  13.857   0.066   7.248
    4AU     LIG 1832  14.289  44.845   7.165
    4AU     LIG 1833  14.716  44.847   6.942
    4AU     LIG 1834  15.118   0.054   6.752
    4AU       S 1835  12.515   0.264   6.745
    4AU     LIG 1836  12.663  44.838   6.602
    4AU     LIG 1837  12.838  44.420   6.444
    4AU     LIG 1838  13.038  44.040   6.225
    4AU     LIG 1839  13.341  43.669   6.180
    4AU     LIG 1840  13.792  43.706   6.143
    4AU    AUSL 1841  11.153   0.660   7.523
    4AU    AUSL 1842  11.211   0.857   7.062
    4AU     AUL 1843  10.969   0.617   7.250
    4AU       S 1844  10.942   0.739   6.745
    4AU     LIG 1845  10.500   0.570   6.682
    4AU     LIG 1846  10.248   0.185   6.566
    4AU     LIG 1847   9.990  44.821   6.415
    4AU     LIG 1848   9.731  44.570   6.109
    4AU     LIG 1849   9.468  44.667   5.728
    4AU       S 1850  10.581   0.640   7.564
    4AU     LIG 1851  10.386   0.221   7.537
    4AU     LIG 1852   9.949   0.070   7.568
    4AU     LIG 1853   9.479   0.082   7.610
    4AU     LIG 1854   9.122  44.761   7.625
    4AU     LIG 1855   8.978  44.358   7.405
    4AU    AUSL 1856  11.069   0.954   7.709
    4AU    AUSL 1857  11.320   0.519   7.800
    4AU     AUL 1858  10.991   0.640   7.854
    4AU       S 1859  11.077   0.296   8.209
    4AU     LIG 1860  10.694   0.025   8.177
    4AU     LIG 1861  10.323  44.730   8.208
    4AU     LIG 1862  10.097  44.368   8.417
    4AU     LIG 1863   9.883  44.070   8.718
    4AU     LIG 1864   9.588  43.688   8.776
    4AU       S 1865  10.582   0.885   7.651
    4AU     LIG 1866  10.114   0.998   7.608
    4AU     LIG 1867   9.687   0.899   7.543
    4AU     LIG 1868   9.379   0.617   7.736
    4AU     LIG 1869   9.019   0.314   7.659
    4AU     LIG 1870   8.561   0.426   7.650
    4AU    AUSL 1871  11.834   1.724   7.939
    4AU    AUSL 1872  11.456   1.711   7.813
    4AU     AUL 1873  11.656   1.766   8.229
    4AU       S 1874  11.226   2.014   8.014
    4AU     LIG 1875  10.921   2.269   8.322
    4AU     LIG 1876  10.819   2.499   8.735
    4AU     LIG 1877  10.668   2.897   8.974
    4AU     LIG 1878  10.446   3.333   8.967
    4AU     LIG 1879  10.089   3.681   8.940
    4AU       S 1880  11.728   2.216   8.042
    4AU     LIG 1881  11.933   2.437   8.409
    4AU     LIG 1882  12.082   2.842   8.576
    4AU     LIG 1883  12.044   3.281   8.728
    4AU     LIG 1884  12.009   3.487   9.165
    4AU     LIG 1885  12.091   3.727   9.573
    4AU    AUSL 1886  11.703   1.867   7.619
    4AU    AUSL 1887  12.037   1.831   7.298
    4AU     AUL 1888  12.012   2.112   7.488
    4AU       S 1889  11.598   2.267   7.781
    4AU     LIG 1890  11.605   2.702   8.076
    4AU     LIG 1891  11.782   3.110   8.253
    4AU     LIG 1892  11.889   3.562   8.308
    4AU     LIG 1893  11.599   3.938   8.309
    4AU     LIG 1894  11.262   4.274   8.280
    4AU       S 1895  12.008   2.315   7.035
    4AU     LIG 1896  12.254   2.730   6.929
    4AU     LIG 1897  12.444   3.118   6.730
    4AU     LIG 1898  12.507   3.573   6.669
    4AU     LIG 1899  12.814   3.939   6.761
    4AU     LIG 1900  12.744   4.405   6.817
    4AU    AUSL 1901  12.048   1.805   7.659
    4AU    AUSL 1902  12.123   1.551   8.060
    4AU     AUL 1903  12.156   1.904   7.960
    4AU       S 1904  12.424   1.773   8.370
    4AU     LIG 1905  12.670   1.786   8.775
    4AU     LIG 1906  13.011   2.000   9.006
    4AU     LIG 1907  13.221   2.378   9.203
    4AU     LIG 1908  13.203   2.697   9.558
    4AU     LIG 1909  13.196   3.050   9.881
    4AU       S 1910  11.917   2.346   7.907
    4AU     LIG 1911  12.130   2.768   8.058
    4AU     LIG 1912  12.290   3.194   8.252
    4AU     LIG 1913  12.446   3.645   8.330
    4AU     LIG 1914  12.753   4.039   8.290
    4AU     LIG 1915  12.823   4.516   8.247
    4AU    AUSL 1916  11.821   0.453   7.936
    4AU    AUSL 1917  12.166   0.469   7.818
    4AU     AUL 1918  11.894   0.428   8.228
    4AU       S 1919  11.979  44.960   8.049
    4AU     LIG 1920  11.916  44.619   8.341
    4AU     LIG 1921  11.620  44.263   8.409
    4AU     LIG 1922  11.459  43.828   8.405
    4AU     LIG 1923  11.492  43.419   8.617
    4AU     LIG 1924  11.455  43.062   8.955
    4AU       S 1925  12.411   0.180   7.957
    4AU     LIG 1926  12.436  44.741   8.110
    4AU     LIG 1927  12.761  44.472   8.329
    4AU     LIG 1928  13.056  44.219   8.609
    4AU     LIG 1929  13.289  43.812   8.727
    4AU     LIG 1930  13.418  43.338   8.697
    4AU    AUSL 1931  11.607   0.388   7.664
    4AU    AUSL 1932  11.542   0.604   8.074
    4AU     AUL 1933  11.516   0.243   7.968
    4AU       S 1934  11.828  44.848   7.874
    4AU     LIG 1935  11.538  44.522   7.971
    4AU     LIG 1936  11.314  44.122   7.990
    4AU     LIG 1937  11.328  43.662   7.928
    4AU     LIG 1938  11.281  43.242   8.113
    4AU     LIG 1939  11.316  42.974   8.473
    4AU       S 1940  11.307   0.400   8.420
    4AU     LIG 1941  10.935   0.119   8.650
    4AU     LIG 1942  10.597  44.759   8.651
    4AU     LIG 1943  10.330  44.414   8.873
    4AU     LIG 1944  10.092  44.150   9.197
    4AU     LIG 1945   9.881  43.955   9.590
    4AU    AUSL 1946  11.929   0.293   7.639
    4AU    AUSL 1947  11.580   0.337   7.315
    4AU     AUL 1948  11.509   0.108   7.593
    4AU       S 1949  11.599  44.871   7.155
    4AU     LIG 1950  11.347  44.515   7.005
    4AU     LIG 1951  11.337  44.055   7.095
    4AU     LIG 1952  11.255  43.604   7.013
    4AU     LIG 1953  11.201  43.253   6.708
    4AU     LIG 1954  10.905  42.899   6.642
    4AU       S 1955  12.052  44.908   7.737
    4AU     LIG 1956  12.039  44.402   7.891
    4AU     LIG 1957  11.807  43.966   8.024
    4AU     LIG 1958  11.774  43.479   8.164
    4AU     LIG 1959  12.032  43.074   8.304
    4AU     LIG 1960  12.217  42.608   8.341
    4AU    AUSL 1961  11.884   1.698   6.996
    4AU    AUSL 1962  12.292   1.621   7.223
    4AU     AUL 1963  12.218   1.848   6.967
    4AU       S 1964  11.887   2.206   6.812
    4AU     LIG 1965  12.099   2.462   6.519
    4AU     LIG 1966  12.104   2.896   6.416
    4AU     LIG 1967  12.123   3.349   6.325
    4AU     LIG 1968  11.989   3.685   6.008
    4AU     LIG 1969  11.813   3.990   5.669
    4AU       S 1970  12.727   1.754   6.882
    4AU     LIG 1971  13.102   1.897   6.645
    4AU     LIG 1972  13.314   2.197   6.333
    4AU     LIG 1973  13.500   2.629   6.193
    4AU     LIG 1974  13.646   3.107   6.183
    4AU     LIG 1975  13.996   3.419   6.118
    4AU    AUSL 1976  11.682   1.843   7.270
    4AU    AUSL 1977  11.568   1.527   6.937
    4AU     AUL 1978  11.585   1.827   6.893
    4AU       S 1979  11.682   2.289   7.100
    4AU     LIG 1980  11.756   2.725   6.833
    4AU     LIG 1981  11.940   3.185   6.808
    4AU     LIG 1982  11.904   3.649   6.680
    4AU     LIG 1983  11.475   3.880   6.628
    4AU     LIG 1984  11.167   4.173   6.398
    4AU       S 1985  11.114   1.851   6.739
    4AU     LIG 1986  11.177   2.115   6.353
    4AU     LIG 1987  11.089   2.291   5.926
    4AU     LIG 1988  10.803   2.432   5.588
    4AU     LIG 1989  10.577   2.627   5.223
    4AU     LIG 1990  10.519   3.010   4.937
    4AU    AUSL 1991  11.772   0.438   7.021
    4AU    AUSL 1992  11.316   0.544   7.217
    4AU     AUL 1993  11.442   0.323   6.958
    4AU       S 1994  10.965   0.405   6.811
    4AU     LIG 1995  10.594   0.118   6.946
    4AU     LIG 1996  10.294  44.744   6.852
    4AU     LIG 1997  10.125  44.359   6.594
    4AU     LIG 1998   9.859  44.075   6.283
    4AU     LIG 1999   9.555  43.666   6.243
    4AU       S 2000  11.745  44.913   6.932
    4AU     LIG 2001  11.722  44.572   6.649
    4AU     LIG 2002  11.556  44.150   6.644
    4AU     LIG 2003  11.424  43.712   6.541
    4AU     LIG 2004  11.317  43.401   6.194
    4AU     LIG 2005  11.478  43.289   5.749
    4AU    AUSL 2006  11.942   0.323   7.309
    4AU    AUSL 2007  12.069   0.582   6.928
    4AU     AUL 2008  12.112   0.238   7.031
    4AU       S 2009  11.871  44.840   7.250
    4AU     LIG 2010  11.813  44.339   7.104
    4AU     LIG 2011  11.812  43.830   6.974
    4AU     LIG 2012  12.073  43.369   6.947
    4AU     LIG 2013  12.295  42.923   6.892
    4AU     LIG 2014  12.591  42.602   6.680
    4AU       S 2015  12.286   0.417   6.575
    4AU     LIG 2016  12.348   0.096   6.266
    4AU     LIG 2017  12.492  44.684   6.135
    4AU     LIG 2018  12.774  44.386   5.928
    4AU     LIG 2019  13.017  44.162   5.596
    4AU     LIG 2020  13.043  44.083   5.115
    5AU     AUC 2021  32.312   3.235   7.504
    5AU     AUC 2022  32.586   3.213   7.350
    5AU     AUC 2023  32.572   3.213   7.679
    5AU     AUC 2024  32.053   3.256   7.330
    5AU     AUC 2025  32.042   3.259   7.660
    5AU     AUC 2026  32.172   3.515   7.494
    5AU     AUC 2027  32.501   3.486   7.510
    5AU     AUC 2028  32.121   2.981   7.497
    5AU     AUC 2029  32.452   2.953   7.507
    5AU     AUC 2030  32.288   3.073   7.770
    5AU     AUC 2031  32.319   3.399   7.773
    5AU     AUC 2032  32.310   3.069   7.238
    5AU     AUC 2033  32.338   3.397   7.235
    5AU     AUC 2034  32.855   3.201   7.202
    5AU     AUC 2035  32.851   3.184   7.519
    5AU     AUC 2036  32.823   3.190   7.841
    5AU     AUC 2037  31.807   3.274   7.158
    5AU     AUC 2038  31.775   3.281   7.494
    5AU     AUC 2039  31.785   3.288   7.816
    5AU     AUC 2040  32.048   3.795   7.482
    5AU     AUC 2041  32.357   3.775   7.485
    5AU     AUC 2042  32.681   3.728   7.514
    5AU     AUC 2043  31.931   2.737   7.492
    5AU     AUC 2044  32.264   2.690   7.492
    5AU     AUC 2045  32.585   2.676   7.517
    5AU     AUC 2046  32.260   2.916   8.024
    5AU     AUC 2047  32.287   3.235   8.057
    5AU     AUC 2048  32.324   3.556   8.032
    5AU     AUC 2049  32.321   2.910   6.985
    5AU     AUC 2050  32.353   3.234   6.960
    5AU     AUC 2051  32.369   3.548   6.972
    5AU     AUC 2052  32.547   3.046   7.956
    5AU     AUC 2053  32.589   3.381   7.961
    5AU     AUC 2054  32.597   3.061   7.072
    5AU     AUC 2055  32.627   3.392   7.085
    5AU     AUC 2056  32.015   3.097   7.938
    5AU     AUC 2057  32.042   3.426   7.935
    5AU     AUC 2058  32.047   3.085   7.063
    5AU     AUC 2059  32.073   3.408   7.043
    5AU     AUC 2060  32.786   3.464   7.366
    5AU     AUC 2061  32.769   3.475   7.697
    5AU     AUC 2062  31.909   3.549   7.309
    5AU     AUC 2063  31.898   3.556   7.655
    5AU     AUC 2064  32.734   2.923   7.353
    5AU     AUC 2065  32.716   2.919   7.682
    5AU     AUC 2066  31.842   2.998   7.331
    5AU     AUC 2067  31.841   2.993   7.664
    5AU     AUC 2068  32.183   3.693   7.760
    5AU     AUC 2069  32.511   3.655   7.784
    5AU     AUC 2070  32.099   2.813   7.770
    5AU     AUC 2071  32.430   2.785   7.778
    5AU     AUC 2072  32.193   3.685   7.216
    5AU     AUC 2073  32.526   3.663   7.235
    5AU     AUC 2074  32.108   2.801   7.225
    5AU     AUC 2075  32.447   2.780   7.229
    5AU    AUSL 2076  32.766   3.155   8.129
    5AU    AUSL 2077  32.565   2.808   8.116
    5AU     AUL 2078  32.641   3.115   8.437
    5AU       S 2079  32.832   2.415   8.273
    5AU     LIG 2080  32.728   2.104   8.561
    5AU     LIG 2081  32.971   1.769   8.768
    5AU     LIG 2082  33.249   1.515   9.057
    5AU     LIG 2083  33.518   1.340   9.412
    5AU     LIG 2084  33.515   1.208   9.878
    5AU       S 2085  33.034   2.825   8.474
    5AU     LIG 2086  33.064   2.938   8.925
    5AU     LIG 2087  33.186   2.931   9.377
    5AU     LIG 2088  33.472   2.778   9.724
    5AU     LIG 2089  33.764   2.771  10.093
    5AU     LIG 2090  34.159   2.845  10.332
    5AU    AUSL 2091  32.359   3.025   8.264
    5AU    AUSL 2092  32.158   3.392   8.272
    5AU     AUL 2093  32.328   3.219   8.584
    5AU       S 2094  32.664   2.682   8.655
    5AU     LIG 2095  32.754   2.569   9.120
    5AU     LIG 2096  32.762   2.398   9.576
    5AU     LIG 2097  32.843   2.194  10.012
    5AU     LIG 2098  33.037   2.276  10.441
    5AU     LIG 2099  33.053   2.475  10.882
    5AU       S 2100  31.846   3.263   8.727
    5AU     LIG 2101  31.643   3.138   9.134
    5AU     LIG 2102  31.563   2.998   9.576
    5AU     LIG 2103  31.419   2.996  10.024
    5AU     LIG 2104  31.401   3.287  10.412
    5AU     LIG 2105  31.368   3.654  10.731
    5AU    AUSL 2106  32.508   3.416   8.253
    5AU    AUSL 2107  32.890   3.475   8.016
    5AU     AUL 2108  32.889   3.370   8.384
    5AU       S 2109  32.519   3.704   8.617
    5AU     LIG 2110  32.700   3.794   9.052
    5AU     LIG 2111  32.933   3.815   9.474
    5AU     LIG 2112  32.957   3.818   9.962
    5AU     LIG 2113  32.884   3.822  10.445
    5AU     LIG 2114  32.923   3.808  10.924
    5AU       S 2115  33.142   3.798   8.303
    5AU     LIG 2116  33.513   3.734   8.562
    5AU     LIG 2117  33.891   3.851   8.783
    5AU     LIG 2118  34.078   4.137   9.085
    5AU     LIG 2119  34.396   4.375   9.332
    5AU     LIG 2120  34.735   4.432   9.668
    5AU    AUSL 2121  32.811   3.314   6.892
    5AU    AUSL 2122  32.679   3.650   6.948
    5AU     AUL 2123  32.618   3.690   6.628
    5AU       S 2124  33.023   3.350   6.475
    5AU     LIG 2125  33.310   3.122   6.185
    5AU     LIG 2126  33.347   2.892   5.778
    5AU     LIG 2127  33.433   2.798   5.323
    5AU     LIG 2128  33.785   2.758   5.004
    5AU     LIG 2129  34.138   2.895   4.716
    5AU       S 2130  33.109   3.789   6.706
    5AU     LIG 2131  33.289   4.050   6.351
    5AU     LIG 2132  33.479   4.290   5.978
    5AU     LIG 2133  33.711   4.530   5.641
    5AU     LIG 2134  33.774   4.733   5.220
    5AU     LIG 2135  33.805   5.153   4.997
    5AU    AUSL 2136  32.598   3.051   6.786
    5AU    AUSL 2137  32.842   2.916   7.037
    5AU     AUL 2138  33.063   3.084   6.899
    5AU       S 2139  33.035   2.646   6.640
    5AU     LIG 2140  33.290   2.340   6.332
    5AU     LIG 2141  33.525   1.931   6.222
    5AU     LIG 2142  33.792   1.680   5.918
    5AU     LIG 2143  34.054   1.751   5.522
    5AU     LIG 2144  34.399   1.887   5.211
    5AU       S 2145  32.860   3.045   6.407
    5AU     LIG 2146  32.979   2.697   6.116
    5AU     LIG 2147  32.960   2.575   5.654
    5AU     LIG 2148  32.983   2.571   5.170
    5AU     LIG 2149  33.049   2.575   4.693
    5AU     LIG 2150  33.120   2.468   4.222
    5AU    AUSL 2151  32.511   3.383   6.750
    5AU    AUSL 2152  32.204   3.068   6.788
    5AU     AUL 2153  32.360   3.133   6.490
    5AU       S 2154  31.805   3.080   6.332
    5AU     LIG 2155  31.663   2.814   5.961
    5AU     LIG 2156  31.472   2.641   5.556
    5AU     LIG 2157  31.382   2.614   5.089
    5AU     LIG 2158  31.418   2.522   4.619
    5AU     LIG 2159  31.487   2.541   4.136
    5AU       S 2160  32.808   3.324   6.318
    5AU     LIG 2161  32.888   3.141   5.878
    5AU     LIG 2162  32.978   3.040   5.420
    5AU     LIG 2163  33.008   3.049   4.943
    5AU     LIG 2164  33.048   3.304   4.537
    5AU     LIG 2165  33.199   3.691   4.292
    5AU    AUSL 2166  31.832   3.348   8.132
    5AU    AUSL 2167  32.042   3.667   8.062
    5AU     AUL 2168  31.956   3.645   8.405
    5AU       S 2169  31.613   3.291   8.593
    5AU     LIG 2170  31.332   2.953   8.767
    5AU     LIG 2171  31.282   2.744   9.190
    5AU     LIG 2172  31.138   2.713   9.654
    5AU     LIG 2173  30.948   2.761  10.088
    5AU     LIG 2174  30.588   2.933  10.358
    5AU       S 2175  31.616   3.997   8.213
    5AU     LIG 2176  31.392   4.107   8.608
    5AU     LIG 2177  31.329   4.312   9.029
    5AU     LIG 2178  31.256   4.574   9.409
    5AU     LIG 2179  31.284   4.807   9.822
    5AU     LIG 2180  31.067   5.047  10.164
    5AU    AUSL 2181  32.010   3.069   8.222
    5AU    AUSL 2182  31.760   2.994   7.961
    5AU     AUL 2183  31.556   3.161   8.120
    5AU       S 2184  31.546   2.705   8.347
    5AU     LIG 2185  31.095   2.667   8.392
    5AU     LIG 2186  30.776   2.353   8.475
    5AU     LIG 2187  30.565   1.997   8.672
    5AU     LIG 2188  30.349   1.665   8.912
    5AU     LIG 2189  30.187   1.506   9.324
    5AU       S 2190  31.823   3.028   8.595
    5AU     LIG 2191  31.743   2.684   8.913
    5AU     LIG 2192  31.723   2.553   9.372
    5AU     LIG 2193  31.585   2.522   9.831
    5AU     LIG 2194  31.632   2.399  10.285
    5AU     LIG 2195  31.484   2.239  10.713
    5AU    AUSL 2196  31.894   3.226   6.830
    5AU    AUSL 2197  32.002   2.816   6.942
    5AU     AUL 2198  32.105   2.830   6.623
    5AU       S 2199  31.640   3.213   6.502
    5AU     LIG 2200  31.297   3.011   6.268
    5AU     LIG 2201  31.172   2.985   5.821
    5AU     LIG 2202  31.060   2.923   5.367
    5AU     LIG 2203  30.887   3.016   4.943
    5AU     LIG 2204  30.582   3.068   4.589
    5AU       S 2205  31.613   2.637   6.623
    5AU     LIG 2206  31.330   2.212   6.557
    5AU     LIG 2207  31.077   1.845   6.434
    5AU     LIG 2208  30.895   1.572   6.103
    5AU     LIG 2209  30.808   1.403   5.669
    5AU     LIG 2210  30.801   1.208   5.235
    5AU    AUSL 2211  32.177   3.414   6.734
    5AU    AUSL 2212  31.779   3.547   6.984
    5AU     AUL 2213  31.940   3.609   6.644
    5AU       S 2214  31.473   3.794   6.690
    5AU     LIG 2215  31.135   3.975   6.405
    5AU     LIG 2216  30.941   3.948   5.995
    5AU     LIG 2217  30.711   4.093   5.620
    5AU     LIG 2218  30.429   4.132   5.242
    5AU     LIG 2219  30.080   4.351   5.037
    5AU       S 2220  31.915   3.300   6.260
    5AU     LIG 2221  31.571   3.315   5.921
    5AU     LIG 2222  31.523   3.146   5.471
    5AU     LIG 2223  31.397   3.131   5.004
    5AU     LIG 2224  31.250   3.385   4.614
    5AU     LIG 2225  31.218   3.662   4.207
    5AU    AUSL 2226  32.989   3.626   7.507
    5AU    AUSL 2227  32.968   3.504   7.149
    5AU     AUL 2228  33.073   3.927   7.396
    5AU       S 2229  33.267   3.609   6.891
    5AU     LIG 2230  33.506   3.579   6.479
    5AU     LIG 2231  33.718   3.842   6.150
    5AU     LIG 2232  33.973   4.147   5.893
    5AU     LIG 2233  34.366   4.345   5.719
    5AU     LIG 2234  34.795   4.298   5.481
    5AU       S 2235  33.495   3.655   7.332
    5AU     LIG 2236  33.963   3.699   7.215
    5AU     LIG 2237  34.406   3.796   7.413
    5AU     LIG 2238  34.859   3.954   7.477
    5AU     LIG 2239  35.128   4.344   7.553
    5AU     LIG 2240  35.372   4.645   7.820
    5AU    AUSL 2241  33.104   3.290   7.394
    5AU    AUSL 2242  33.033   3.017   7.664
    5AU     AUL 2243  33.329   3.178   7.782
    5AU       S 2244  33.480   3.346   7.275
    5AU     LIG 2245  33.905   3.157   7.272
    5AU     LIG 2246  34.349   3.317   7.257
    5AU     LIG 2247  34.832   3.466   7.301
    5AU     LIG 2248  35.265   3.623   7.105
    5AU     LIG 2249  35.737   3.580   6.931
    5AU       S 2250  33.508   2.765   7.527
    5AU     LIG 2251  33.925   2.567   7.638
    5AU     LIG 2252  34.211   2.238   7.799
    5AU     LIG 2253  34.682   2.170   7.855
    5AU     LIG 2254  35.128   2.193   8.036
    5AU     LIG 2255  35.618   2.235   8.117
    5AU    AUSL 2256  33.037   3.359   7.724
    5AU    AUSL 2257  32.837   3.774   7.801
    5AU     AUL 2258  33.187   3.650   7.817
    5AU       S 2259  33.111   4.038   8.145
    5AU     LIG 2260  33.416   4.228   8.463
    5AU     LIG 2261  33.822   4.355   8.675
    5AU     LIG 2262  34.115   4.632   8.918
    5AU     LIG 2263  34.120   5.068   9.076
    5AU     LIG 2264  34.157   5.538   9.099
    5AU       S 2265  33.584   3.509   7.516
    5AU     LIG 2266  34.043   3.483   7.667
    5AU     LIG 2267  34.508   3.411   7.758
    5AU     LIG 2268  34.978   3.344   7.804
    5AU     LIG 2269  35.360   3.579   7.989
    5AU     LIG 2270  35.609   4.001   7.977
    5AU    AUSL 2271  31.763   3.783   7.503
    5AU    AUSL 2272  31.730   3.594   7.906
    5AU     AUL 2273  31.447   3.797   7.676
    5AU       S 2274  31.452   3.746   8.199
    5AU     LIG 2275  31.178   3.632   8.554
    5AU     LIG 2276  31.102   3.853   8.956
    5AU     LIG 2277  30.790   4.146   9.131
    5AU     LIG 2278  30.573   4.430   9.461
    5AU     LIG 2279  30.218   4.558   9.778
    5AU       S 2280  31.647   4.243   7.485
    5AU     LIG 2281  31.131   4.248   7.401
    5AU     LIG 2282  30.666   4.406   7.489
    5AU     LIG 2283  30.298   4.749   7.538
    5AU     LIG 2284  29.919   5.074   7.597
    5AU     LIG 2285  29.628   5.398   7.813
    5AU    AUSL 2286  31.629   3.468   7.276
    5AU    AUSL 2287  31.890   3.840   7.182
    5AU     AUL 2288  31.521   3.774   7.223
    5AU       S 2289  31.272   3.409   6.906
    5AU     LIG 2290  31.035   3.896   6.899
    5AU     LIG 2291  30.568   3.921   6.748
    5AU     LIG 2292  30.073   3.816   6.666
    5AU     LIG 2293  29.588   3.894   6.586
    5AU     LIG 2294  29.213   4.213   6.520
    5AU       S 2295  31.674   4.212   6.989
    5AU     LIG 2296  31.270   4.349   6.755
    5AU     LIG 2297  31.114   4.524   6.339
    5AU     LIG 2298  30.965   4.926   6.100
    5AU     LIG 2299  30.711   5.348   6.021
    5AU     LIG 2300  30.400   5.735   5.972
    5AU    AUSL 2301  31.577   3.451   7.642
    5AU    AUSL 2302  31.546   3.152   7.352
    5AU     AUL 2303  31.306   3.477   7.412
    5AU       S 2304  31.020   3.035   7.477
    5AU     LIG 2305  30.659   2.756   7.260
    5AU     LIG 2306  30.216   2.592   7.376
    5AU     LIG 2307  29.734   2.474   7.392
    5AU     LIG 2308  29.310   2.622   7.234
    5AU     LIG 2309  28.944   2.480   6.967
    5AU       S 2310  31.146   3.451   7.922
    5AU     LIG 2311  30.759   3.632   8.136
    5AU     LIG 2312  30.456   3.992   8.176
    5AU     LIG 2313  29.984   4.049   8.303
    5AU     LIG 2314  29.502   4.074   8.340
    5AU     LIG 2315  29.022   4.104   8.273
    5AU    AUSL 2316  32.912   2.702   7.566
    5AU    AUSL 2317  32.850   2.885   7.934
    5AU     AUL 2318  33.179   2.850   7.910
    5AU       S 2319  33.354   2.521   7.561
    5AU     LIG 2320  33.643   2.209   7.402
    5AU     LIG 2321  33.973   1.902   7.482
    5AU     LIG 2322  34.439   1.892   7.479
    5AU     LIG 2323  34.835   1.677   7.617
    5AU     LIG 2324  35.154   1.351   7.762
    5AU       S 2325  33.038   2.440   8.158
    5AU     LIG 2326  33.234   2.122   8.450
    5AU     LIG 2327  33.494   1.825   8.711
    5AU     LIG 2328  33.765   1.560   8.998
    5AU     LIG 2329  34.061   1.545   9.375
    5AU     LIG 2330  34.378   1.621   9.739
    5AU    AUSL 2331  33.034   2.963   7.317
    5AU    AUSL 2332  32.719   2.652   7.242
    5AU     AUL 2333  33.021   2.607   7.200
    5AU       S 2334  33.459   2.840   7.309
    5AU     LIG 2335  33.831   2.619   7.138
    5AU     LIG 2336  34.169   2.309   7.249
    5AU     LIG 2337  34.623   2.273   7.167
    5AU     LIG 2338  35.079   2.263   7.029
    5AU     LIG 2339  35.526   2.279   6.849
    5AU       S 2340  32.983   2.435   6.726
    5AU     LIG 2341  33.090   1.988   6.652
    5AU     LIG 2342  33.277   1.581   6.506
    5AU     LIG 2343  33.576   1.306   6.269
    5AU     LIG 2344  33.852   0.913   6.201
    5AU     LIG 2345  34.298   0.875   6.024
    5AU    AUSL 2346  31.615   2.822   7.493
    5AU    AUSL 2347  31.721   3.019   7.049
    5AU     AUL 2348  31.408   2.935   7.180
    5AU       S 2349  31.481   2.800   6.709
    5AU     LIG 2350  31.060   2.651   6.596
    5AU     LIG 2351  30.795   2.267   6.528
    5AU     LIG 2352  30.566   1.944   6.256
    5AU     LIG 2353  30.192   1.741   6.035
    5AU     LIG 2354  29.731   1.760   5.871
    5AU       S 2355  31.091   2.760   7.527
    5AU     LIG 2356  30.853   2.393   7.569
    5AU     LIG 2357  30.536   2.184   7.320
    5AU     LIG 2358  30.076   2.078   7.399
    5AU     LIG 2359  29.678   2.012   7.665
    5AU     LIG 2360  29.355   1.706   7.857
    5AU    AUSL 2361  31.551   3.115   7.703
    5AU    AUSL 2362  31.794   2.683   7.783
    5AU     AUL 2363  31.478   2.796   7.840
    5AU       S 2364  31.545   2.463   8.208
    5AU     LIG 2365  31.171   2.194   8.178
    5AU     LIG 2366  30.811   1.889   8.221
    5AU     LIG 2367  30.561   1.541   8.425
    5AU     LIG 2368  30.469   1.185   8.723
    5AU     LIG 2369  30.310   0.724   8.765
    5AU       S 2370  31.064   3.032   7.667
    5AU     LIG 2371  30.602   2.890   7.747
    5AU     LIG 2372  30.132   2.994   7.678
    5AU     LIG 2373  29.656   2.905   7.644
    5AU     LIG 2374  29.243   2.685   7.742
    5AU     LIG 2375  28.851   2.430   7.810
    5AU    AUSL 2376  32.318   3.875   7.952
    5AU    AUSL 2377  31.955   3.874   7.798
    5AU     AUL 2378  32.129   3.936   8.228
    5AU       S 2379  31.724   4.180   7.973
    5AU     LIG 2380  31.388   4.445   8.215
    5AU     LIG 2381  31.174   4.595   8.621
    5AU     LIG 2382  30.985   4.954   8.897
    5AU     LIG 2383  30.715   5.371   8.956
    5AU     LIG 2384  30.475   5.790   9.051
    5AU       S 2385  32.205   4.376   8.008
    5AU     LIG 2386  32.308   4.618   8.381
    5AU     LIG 2387  32.461   5.018   8.567
    5AU     LIG 2388  32.550   5.296   8.951
    5AU     LIG 2389  32.518   5.504   9.391
    5AU     LIG 2390  32.551   5.862   9.700
    5AU    AUSL 2391  32.231   4.019   7.616
    5AU    AUSL 2392  32.536   3.984   7.334
    5AU     AUL 2393  32.681   4.199   7.570
    5AU       S 2394  32.111   4.404   7.706
    5AU     LIG 2395  32.029   4.846   7.984
    5AU     LIG 2396  32.158   5.282   8.201
    5AU     LIG 2397  32.070   5.776   8.301
    5AU     LIG 2398  31.978   6.256   8.416
    5AU     LIG 2399  32.102   6.711   8.305
    5AU       S 2400  32.439   4.461   7.209
    5AU     LIG 2401  32.645   4.888   7.027
    5AU     LIG 2402  32.839   5.299   6.782
    5AU     LIG 2403  33.157   5.724   6.721
    5AU     LIG 2404  33.362   6.204   6.669
    5AU     LIG 2405  33.506   6.696   6.671
    5AU    AUSL 2406  32.540   3.907   7.681
    5AU    AUSL 2407  32.605   3.700   8.073
    5AU     AUL 2408  32.636   4.063   7.965
    5AU       S 2409  32.891   3.919   8.380
    5AU     LIG 2410  33.107   3.966   8.788
    5AU     LIG 2411  33.492   4.111   8.989
    5AU     LIG 2412  33.703   4.481   9.182
    5AU     LIG 2413  33.819   4.829   9.476
    5AU     LIG 2414  33.731   4.999   9.916
    5AU       S 2415  32.364   4.486   7.820
    5AU     LIG 2416  32.539   4.896   8.023
    5AU     LIG 2417  32.765   5.266   8.222
    5AU     LIG 2418  33.139   5.576   8.245
    5AU     LIG 2419  33.322   6.011   8.189
    5AU     LIG 2420  33.396   6.478   8.181
    5AU    AUSL 2421  32.292   2.607   7.940
    5AU    AUSL 2422  32.644   2.618   7.829
    5AU     AUL 2423  32.359   2.582   8.233
    5AU       S 2424  32.438   2.111   8.057
    5AU     LIG 2425  32.389   1.757   8.336
    5AU     LIG 2426  32.090   1.407   8.428
    5AU     LIG 2427  31.957   0.961   8.431
    5AU     LIG 2428  31.896   0.502   8.503
    5AU     LIG 2429  32.069   0.145   8.772
    5AU       S 2430  32.878   2.327   7.974
    5AU     LIG 2431  32.899   1.891   8.126
    5AU     LIG 2432  33.200   1.596   8.342
    5AU     LIG 2433  33.457   1.308   8.627
    5AU     LIG 2434  33.641   0.892   8.788
    5AU     LIG 2435  33.972   0.660   9.028
    5AU    AUSL 2436  32.083   2.546   7.664
    5AU    AUSL 2437  32.010   2.763   8.069
    5AU     AUL 2438  31.980   2.403   7.962
    5AU       S 2439  32.281   1.995   7.873
    5AU     LIG 2440  32.039   1.609   7.954
    5AU     LIG 2441  31.796   1.204   8.009
    5AU     LIG 2442  31.665   0.739   8.045
    5AU     LIG 2443  31.712   0.263   8.067
    5AU     LIG 2444  31.798  44.949   8.392
    5AU       S 2445  31.774   2.571   8.409
    5AU     LIG 2446  31.397   2.347   8.673
    5AU     LIG 2447  31.093   1.974   8.654
    5AU     LIG 2448  30.864   1.597   8.835
    5AU     LIG 2449  30.669   1.353   9.185
    5AU     LIG 2450  30.572   1.324   9.645
    5AU    AUSL 2451  32.404   2.445   7.649
    5AU    AUSL 2452  32.063   2.496   7.316
    5AU     AUL 2453  31.977   2.270   7.590
    5AU       S 2454  32.098   2.016   7.170
    5AU     LIG 2455  31.826   1.701   6.956
    5AU     LIG 2456  31.703   1.251   6.956
    5AU     LIG 2457  31.724   0.782   6.908
    5AU     LIG 2458  31.486   0.378   6.794
    5AU     LIG 2459  31.406  44.944   6.647
    5AU       S 2460  32.518   2.065   7.751
    5AU     LIG 2461  32.550   1.573   7.885
    5AU     LIG 2462  32.313   1.155   8.032
    5AU     LIG 2463  32.176   0.676   8.062
    5AU     LIG 2464  32.246   0.241   8.245
    5AU     LIG 2465  32.545   0.114   8.564
    5AU    AUSL 2466  32.406   3.861   7.021
    5AU    AUSL 2467  32.798   3.779   7.248
    5AU     AUL 2468  32.728   4.029   7.003
    5AU       S 2469  32.386   4.404   6.932
    5AU     LIG 2470  32.437   4.746   6.585
    5AU     LIG 2471  32.526   5.137   6.313
    5AU     LIG 2472  32.480   5.383   5.879
    5AU     LIG 2473  32.444   5.807   5.637
    5AU     LIG 2474  32.519   6.203   5.386
    5AU       S 2475  33.235   3.901   6.919
    5AU     LIG 2476  33.635   4.019   6.727
    5AU     LIG 2477  33.806   4.295   6.381
    5AU     LIG 2478  33.971   4.631   6.088
    5AU     LIG 2479  34.167   5.070   6.054
    5AU     LIG 2480  34.257   5.546   6.059
    5AU    AUSL 2481  32.184   3.984   7.274
    5AU    AUSL 2482  32.102   3.683   6.950
    5AU     AUL 2483  32.125   3.983   6.874
    5AU       S 2484  32.140   4.398   7.201
    5AU     LIG 2485  32.124   4.832   6.996
    5AU     LIG 2486  32.298   5.227   6.804
    5AU     LIG 2487  32.165   5.690   6.840
    5AU     LIG 2488  32.185   6.141   6.723
    5AU     LIG 2489  31.907   6.487   6.600
    5AU       S 2490  31.649   4.023   6.730
    5AU     LIG 2491  31.564   4.239   6.329
    5AU     LIG 2492  31.334   4.297   5.918
    5AU     LIG 2493  31.335   4.500   5.477
    5AU     LIG 2494  31.341   4.790   5.083
    5AU     LIG 2495  31.176   5.195   4.893
    5AU    AUSL 2496  32.268   2.588   7.028
    5AU    AUSL 2497  31.789   2.697   7.212
    5AU     AUL 2498  31.950   2.463   6.965
    5AU       S 2499  31.456   2.524   6.907
    5AU     LIG 2500  31.030   2.344   7.027
    5AU     LIG 2501  30.829   1.934   6.920
    5AU     LIG 2502  30.663   1.601   6.621
    5AU     LIG 2503  30.462   1.345   6.273
    5AU     LIG 2504  30.356   0.892   6.119
    5AU       S 2505  32.257   2.058   6.947
    5AU     LIG 2506  32.211   1.768   6.615
    5AU     LIG 2507  32.014   1.363   6.560
    5AU     LIG 2508  31.981   0.900   6.475
    5AU     LIG 2509  31.889   0.542   6.152
    5AU     LIG 2510  31.846   0.185   5.812
    5AU    AUSL 2511  32.428   2.474   7.319
    5AU    AUSL 2512  32.553   2.744   6.925
    5AU     AUL 2513  32.611   2.397   7.046
    5AU       S 2514  32.367   2.003   7.267
    5AU     LIG 2515  32.297   1.539   7.078
    5AU     LIG 2516  32.189   1.076   6.949
    5AU     LIG 2517  32.241   0.603   6.864
    5AU     LIG 2518  32.525   0.199   6.959
    5AU     LIG 2519  32.871  44.870   6.851
    5AU       S 2520  32.732   2.576   6.570
    5AU     LIG 2521  32.787   2.227   6.288
    5AU     LIG 2522  33.021   1.861   6.147
    5AU     LIG 2523  33.291   1.560   5.909
    5AU     LIG 2524  33.541   1.406   5.518
    5AU     LIG 2525  33.637   1.136   5.122
    6AU     AUC 2526  27.201   9.033   7.503
    6AU     AUC 2527  27.473   9.013   7.345
    6AU     AUC 2528  27.465   9.015   7.672
    6AU     AUC 2529  26.936   9.049   7.336
    6AU     AUC 2530  26.934   9.052   7.665
    6AU     AUC 2531  27.056   9.312   7.495
    6AU     AUC 2532  27.385   9.289   7.503
    6AU     AUC 2533  27.014   8.775   7.502
    6AU     AUC 2534  27.344   8.752   7.504
    6AU     AUC 2535  27.185   8.869   7.770
    6AU     AUC 2536  27.211   9.198   7.771
    6AU     AUC 2537  27.197   8.866   7.238
    6AU     AUC 2538  27.217   9.195   7.232
    6AU     AUC 2539  27.741   9.002   7.194
    6AU     AUC 2540  27.745   8.990   7.509
    6AU     AUC 2541  27.719   8.997   7.828
    6AU     AUC 2542  26.684   9.059   7.169
    6AU     AUC 2543  26.658   9.065   7.506
    6AU     AUC 2544  26.680   9.075   7.829
    6AU     AUC 2545  26.928   9.589   7.490
    6AU     AUC 2546  27.237   9.583   7.482
    6AU     AUC 2547  27.559   9.536   7.501
    6AU     AUC 2548  26.831   8.528   7.501
    6AU     AUC 2549  27.160   8.486   7.491
    6AU     AUC 2550  27.480   8.475   7.513
    6AU     AUC 2551  27.165   8.708   8.026
    6AU     AUC 2552  27.190   9.029   8.056
    6AU     AUC 2553  27.222   9.351   8.030
    6AU     AUC 2554  27.208   8.707   6.986
    6AU     AUC 2555  27.233   9.028   6.960
    6AU     AUC 2556  27.235   9.340   6.964
    6AU     AUC 2557  27.447   8.846   7.951
    6AU     AUC 2558  27.487   9.183   7.952
    6AU     AUC 2559  27.485   8.856   7.073
    6AU     AUC 2560  27.504   9.186   7.074
    6AU     AUC 2561  26.917   8.886   7.945
    6AU     AUC 2562  26.939   9.216   7.942
    6AU     AUC 2563  26.931   8.881   7.068
    6AU     AUC 2564  26.945   9.202   7.045
    6AU     AUC 2565  27.669   9.266   7.353
    6AU     AUC 2566  27.660   9.281   7.684
    6AU     AUC 2567  26.785   9.338   7.322
    6AU     AUC 2568  26.784   9.345   7.667
    6AU     AUC 2569  27.627   8.722   7.349
    6AU     AUC 2570  27.608   8.725   7.675
    6AU     AUC 2571  26.729   8.788   7.341
    6AU     AUC 2572  26.741   8.781   7.677
    6AU     AUC 2573  27.068   9.488   7.763
    6AU     AUC 2574  27.398   9.464   7.774
    6AU     AUC 2575  27.000   8.604   7.776
    6AU     AUC 2576  27.330   8.582   7.774
    6AU     AUC 2577  27.065   9.483   7.212
    6AU     AUC 2578  27.399   9.460   7.224
    6AU     AUC 2579  26.998   8.598   7.230
    6AU     AUC 2580  27.339   8.576   7.229
    6AU    AUSL 2581  27.672   8.959   8.116
    6AU    AUSL 2582  27.470   8.602   8.111
    6AU     AUL 2583  27.559   8.911   8.424
    6AU       S 2584  27.761   8.222   8.252
    6AU     LIG 2585  27.654   7.888   8.506
    6AU     LIG 2586  27.893   7.562   8.710
    6AU     LIG 2587  28.160   7.300   8.988
    6AU     LIG 2588  28.351   7.103   9.368
    6AU     LIG 2589  28.270   6.846   9.768
    6AU       S 2590  27.949   8.622   8.469
    6AU     LIG 2591  28.003   8.692   8.934
    6AU     LIG 2592  28.098   8.711   9.403
    6AU     LIG 2593  28.345   8.588   9.797
    6AU     LIG 2594  28.740   8.537  10.082
    6AU     LIG 2595  29.088   8.634  10.407
    6AU    AUSL 2596  27.270   8.823   8.263
    6AU    AUSL 2597  27.067   9.180   8.274
    6AU     AUL 2598  27.254   9.019   8.583
    6AU       S 2599  27.577   8.478   8.642
    6AU     LIG 2600  27.585   8.448   9.113
    6AU     LIG 2601  27.748   8.351   9.539
    6AU     LIG 2602  28.002   8.186   9.887
    6AU     LIG 2603  28.104   8.106  10.328
    6AU     LIG 2604  28.248   8.074  10.762
    6AU       S 2605  26.778   9.030   8.746
    6AU     LIG 2606  26.616   8.918   9.184
    6AU     LIG 2607  26.511   8.858   9.654
    6AU     LIG 2608  26.560   9.031  10.110
    6AU     LIG 2609  26.546   9.353  10.487
    6AU     LIG 2610  26.371   9.614  10.867
    6AU    AUSL 2611  27.414   9.213   8.247
    6AU    AUSL 2612  27.787   9.283   7.999
    6AU     AUL 2613  27.799   9.171   8.367
    6AU       S 2614  27.430   9.506   8.609
    6AU     LIG 2615  27.635   9.581   9.029
    6AU     LIG 2616  27.909   9.658   9.408
    6AU     LIG 2617  27.909   9.723   9.886
    6AU     LIG 2618  27.774   9.828  10.336
    6AU     LIG 2619  27.762   9.927  10.795
    6AU       S 2620  28.043   9.602   8.282
    6AU     LIG 2621  28.429   9.509   8.487
    6AU     LIG 2622  28.730   9.730   8.741
    6AU     LIG 2623  28.924   9.972   9.088
    6AU     LIG 2624  29.231   9.966   9.445
    6AU     LIG 2625  29.612  10.023   9.719
    6AU    AUSL 2626  27.687   9.115   6.881
    6AU    AUSL 2627  27.542   9.437   6.936
    6AU     AUL 2628  27.475   9.475   6.623
    6AU       S 2629  27.887   9.145   6.462
    6AU     LIG 2630  28.172   8.999   6.123
    6AU     LIG 2631  28.198   8.721   5.745
    6AU     LIG 2632  28.270   8.605   5.295
    6AU     LIG 2633  28.615   8.630   4.971
    6AU     LIG 2634  29.075   8.677   4.846
    6AU       S 2635  27.972   9.584   6.672
    6AU     LIG 2636  28.104   9.750   6.244
    6AU     LIG 2637  28.335  10.016   5.918
    6AU     LIG 2638  28.582  10.343   5.685
    6AU     LIG 2639  28.587  10.622   5.300
    6AU     LIG 2640  28.681  10.983   5.004
    6AU    AUSL 2641  27.497   8.840   6.799
    6AU    AUSL 2642  27.737   8.711   7.040
    6AU     AUL 2643  27.955   8.896   6.902
    6AU       S 2644  27.937   8.451   6.653
    6AU     LIG 2645  28.200   8.169   6.346
    6AU     LIG 2646  28.371   7.749   6.217
    6AU     LIG 2647  28.647   7.460   5.970
    6AU     LIG 2648  29.018   7.393   5.680
    6AU     LIG 2649  29.346   7.350   5.338
    6AU       S 2650  27.778   8.855   6.406
    6AU     LIG 2651  27.900   8.525   6.129
    6AU     LIG 2652  27.848   8.334   5.710
    6AU     LIG 2653  27.857   8.277   5.240
    6AU     LIG 2654  27.830   8.233   4.771
    6AU     LIG 2655  27.911   8.440   4.359
    6AU    AUSL 2656  27.380   9.152   6.731
    6AU    AUSL 2657  27.098   8.867   6.781
    6AU     AUL 2658  27.289   8.798   6.514
    6AU       S 2659  26.839   8.913   6.286
    6AU     LIG 2660  26.713   8.597   5.940
    6AU     LIG 2661  26.604   8.379   5.527
    6AU     LIG 2662  26.565   8.316   5.062
    6AU     LIG 2663  26.478   8.211   4.613
    6AU     LIG 2664  26.323   8.333   4.185
    6AU       S 2665  27.644   9.112   6.301
    6AU     LIG 2666  27.722   8.924   5.866
    6AU     LIG 2667  27.793   8.772   5.418
    6AU     LIG 2668  27.870   8.729   4.945
    6AU     LIG 2669  27.796   8.935   4.518
    6AU     LIG 2670  27.943   9.295   4.248
    6AU    AUSL 2671  26.737   9.131   8.145
    6AU    AUSL 2672  26.941   9.454   8.072
    6AU     AUL 2673  26.866   9.420   8.422
    6AU       S 2674  26.548   9.042   8.617
    6AU     LIG 2675  26.305   8.693   8.831
    6AU     LIG 2676  26.211   8.598   9.293
    6AU     LIG 2677  25.989   8.630   9.713
    6AU     LIG 2678  25.602   8.718   9.985
    6AU     LIG 2679  25.390   8.673  10.399
    6AU       S 2680  26.522   9.771   8.254
    6AU     LIG 2681  26.497   9.907   8.713
    6AU     LIG 2682  26.445  10.100   9.138
    6AU     LIG 2683  26.281  10.441   9.398
    6AU     LIG 2684  26.196  10.666   9.802
    6AU     LIG 2685  26.116  10.819  10.247
    6AU    AUSL 2686  26.920   8.856   8.228
    6AU    AUSL 2687  26.664   8.781   7.973
    6AU     AUL 2688  26.460   8.942   8.142
    6AU       S 2689  26.461   8.479   8.365
    6AU     LIG 2690  26.019   8.426   8.435
    6AU     LIG 2691  25.692   8.110   8.492
    6AU     LIG 2692  25.424   7.782   8.671
    6AU     LIG 2693  25.137   7.473   8.887
    6AU     LIG 2694  24.910   7.282   9.256
    6AU       S 2695  26.762   8.798   8.598
    6AU     LIG 2696  26.761   8.487   8.938
    6AU     LIG 2697  26.681   8.422   9.403
    6AU     LIG 2698  26.428   8.353   9.804
    6AU     LIG 2699  26.353   8.210  10.260
    6AU     LIG 2700  26.217   8.253  10.725
    6AU    AUSL 2701  26.777   8.995   6.834
    6AU    AUSL 2702  26.884   8.627   6.951
    6AU     AUL 2703  26.976   8.592   6.647
    6AU       S 2704  26.629   8.930   6.415
    6AU     LIG 2705  26.296   8.808   6.152
    6AU     LIG 2706  26.218   8.668   5.716
    6AU     LIG 2707  26.157   8.601   5.248
    6AU     LIG 2708  25.845   8.574   4.877
    6AU     LIG 2709  25.484   8.670   4.576
    6AU       S 2710  26.478   8.474   6.616
    6AU     LIG 2711  26.212   8.053   6.454
    6AU     LIG 2712  25.959   7.668   6.323
    6AU     LIG 2713  25.726   7.379   6.031
    6AU     LIG 2714  25.570   7.191   5.640
    6AU     LIG 2715  25.630   7.097   5.179
    6AU    AUSL 2716  27.049   9.218   6.736
    6AU    AUSL 2717  26.641   9.333   7.011
    6AU     AUL 2718  26.730   9.350   6.670
    6AU       S 2719  26.296   9.595   6.755
    6AU     LIG 2720  26.020   9.813   6.450
    6AU     LIG 2721  25.982   9.983   6.011
    6AU     LIG 2722  25.797  10.088   5.578
    6AU     LIG 2723  25.376  10.185   5.355
    6AU     LIG 2724  24.971  10.250   5.104
    6AU       S 2725  26.955   9.151   6.267
    6AU     LIG 2726  26.663   9.097   5.854
    6AU     LIG 2727  26.588   8.883   5.425
    6AU     LIG 2728  26.546   8.826   4.948
    6AU     LIG 2729  26.609   9.024   4.511
    6AU     LIG 2730  26.473   9.391   4.229
    6AU    AUSL 2731  27.870   9.433   7.488
    6AU    AUSL 2732  27.849   9.304   7.129
    6AU     AUL 2733  27.948   9.734   7.362
    6AU       S 2734  28.139   9.417   6.867
    6AU     LIG 2735  28.386   9.373   6.467
    6AU     LIG 2736  28.621   9.656   6.166
    6AU     LIG 2737  28.866   9.956   5.886
    6AU     LIG 2738  29.161  10.221   5.629
    6AU     LIG 2739  29.584  10.221   5.399
    6AU       S 2740  28.380   9.478   7.305
    6AU     LIG 2741  28.860   9.642   7.285
    6AU     LIG 2742  29.327   9.766   7.421
    6AU     LIG 2743  29.783   9.946   7.458
    6AU     LIG 2744  30.012  10.373   7.488
    6AU     LIG 2745  30.361  10.690   7.544
    6AU    AUSL 2746  27.994   9.101   7.373
    6AU    AUSL 2747  27.926   8.829   7.657
    6AU     AUL 2748  28.240   8.988   7.730
    6AU       S 2749  28.373   9.168   7.246
    6AU     LIG 2750  28.835   9.128   7.207
    6AU     LIG 2751  29.281   9.281   7.256
    6AU     LIG 2752  29.733   9.465   7.252
    6AU     LIG 2753  30.199   9.637   7.277
    6AU     LIG 2754  30.592   9.803   7.043
    6AU       S 2755  28.366   8.497   7.588
    6AU     LIG 2756  28.750   8.242   7.745
    6AU     LIG 2757  29.178   8.014   7.774
    6AU     LIG 2758  29.617   7.804   7.741
    6AU     LIG 2759  30.075   7.657   7.770
    6AU     LIG 2760  30.473   7.682   8.037
    6AU    AUSL 2761  27.940   9.172   7.708
    6AU    AUSL 2762  27.715   9.582   7.783
    6AU     AUL 2763  28.067   9.477   7.790
    6AU       S 2764  28.009   9.849   8.137
    6AU     LIG 2765  28.337  10.015   8.462
    6AU     LIG 2766  28.664  10.245   8.722
    6AU     LIG 2767  29.007  10.504   8.919
    6AU     LIG 2768  29.297  10.904   8.876
    6AU     LIG 2769  29.439  11.359   8.957
    6AU       S 2770  28.473   9.357   7.501
    6AU     LIG 2771  28.936   9.326   7.678
    6AU     LIG 2772  29.421   9.377   7.746
    6AU     LIG 2773  29.896   9.499   7.734
    6AU     LIG 2774  30.389   9.485   7.753
    6AU     LIG 2775  30.797   9.657   7.970
    6AU    AUSL 2776  26.645   9.570   7.523
    6AU    AUSL 2777  26.623   9.377   7.925
    6AU     AUL 2778  26.334   9.588   7.706
    6AU       S 2779  26.357   9.521   8.228
    6AU     LIG 2780  26.057   9.735   8.506
    6AU     LIG 2781  26.006   9.923   8.929
    6AU     LIG 2782  25.843  10.177   9.289
    6AU     LIG 2783  25.463  10.228   9.590
    6AU     LIG 2784  25.093  10.287   9.899
    6AU       S 2785  26.538  10.036   7.516
    6AU     LIG 2786  26.088  10.250   7.455
    6AU     LIG 2787  25.640  10.490   7.509
    6AU     LIG 2788  25.208  10.750   7.600
    6AU     LIG 2789  24.870  11.068   7.778
    6AU     LIG 2790  24.403  11.201   7.722
    6AU    AUSL 2791  26.502   9.241   7.302
    6AU    AUSL 2792  26.764   9.632   7.201
    6AU     AUL 2793  26.395   9.556   7.259
    6AU       S 2794  26.136   9.157   6.930
    6AU     LIG 2795  25.783   9.538   6.853
    6AU     LIG 2796  25.343   9.821   6.863
    6AU     LIG 2797  24.871  10.051   6.901
    6AU     LIG 2798  24.373  10.161   6.860
    6AU     LIG 2799  23.884  10.095   6.823
    6AU       S 2800  26.514  10.000   7.013
    6AU     LIG 2801  26.228  10.227   6.691
    6AU     LIG 2802  26.146  10.419   6.261
    6AU     LIG 2803  26.039  10.842   6.049
    6AU     LIG 2804  25.794  11.265   6.016
    6AU     LIG 2805  25.379  11.483   5.945
    6AU    AUSL 2806  26.460   9.239   7.664
    6AU    AUSL 2807  26.416   8.921   7.358
    6AU     AUL 2808  26.180   9.264   7.433
    6AU       S 2809  25.928   8.806   7.472
    6AU     LIG 2810  25.467   8.608   7.454
    6AU     LIG 2811  24.993   8.528   7.344
    6AU     LIG 2812  24.505   8.444   7.303
    6AU     LIG 2813  24.030   8.399   7.293
    6AU     LIG 2814  23.620   8.519   7.063
    6AU       S 2815  26.041   9.231   7.947
    6AU     LIG 2816  25.614   9.443   8.063
    6AU     LIG 2817  25.182   9.694   8.116
    6AU     LIG 2818  24.748   9.952   8.169
    6AU     LIG 2819  24.318  10.139   8.338
    6AU     LIG 2820  23.847  10.217   8.256
    6AU    AUSL 2821  27.804   8.516   7.569
    6AU    AUSL 2822  27.744   8.687   7.919
    6AU     AUL 2823  28.062   8.724   7.928
    6AU       S 2824  28.178   8.311   7.627
    6AU     LIG 2825  28.365   7.924   7.595
    6AU     LIG 2826  28.775   7.750   7.542
    6AU     LIG 2827  29.193   7.561   7.526
    6AU     LIG 2828  29.606   7.353   7.485
    6AU     LIG 2829  29.875   7.102   7.210
    6AU       S 2830  27.976   8.262   8.111
    6AU     LIG 2831  28.165   7.938   8.411
    6AU     LIG 2832  28.414   7.654   8.701
    6AU     LIG 2833  28.675   7.368   8.986
    6AU     LIG 2834  29.071   7.238   9.199
    6AU     LIG 2835  29.507   7.197   9.394
    6AU    AUSL 2836  27.934   8.768   7.315
    6AU    AUSL 2837  27.617   8.439   7.240
    6AU     AUL 2838  27.926   8.416   7.205
    6AU       S 2839  28.364   8.610   7.355
    6AU     LIG 2840  28.646   8.224   7.248
    6AU     LIG 2841  29.091   8.043   7.266
    6AU     LIG 2842  29.520   7.835   7.238
    6AU     LIG 2843  29.957   7.651   7.257
    6AU     LIG 2844  30.356   7.562   7.027
    6AU       S 2845  27.886   8.222   6.742
    6AU     LIG 2846  27.981   7.787   6.616
    6AU     LIG 2847  28.134   7.370   6.470
    6AU     LIG 2848  28.458   7.090   6.293
    6AU     LIG 2849  28.757   6.715   6.301
    6AU     LIG 2850  29.108   6.512   6.080
    6AU    AUSL 2851  26.527   8.604   7.525
    6AU    AUSL 2852  26.589   8.812   7.063
    6AU     AUL 2853  26.333   8.598   7.241
    6AU       S 2854  26.328   8.677   6.733
    6AU     LIG 2855  25.923   8.468   6.599
    6AU     LIG 2856  25.687   8.081   6.487
    6AU     LIG 2857  25.494   7.833   6.141
    6AU     LIG 2858  25.243   7.524   5.897
    6AU     LIG 2859  25.146   7.409   5.444
    6AU       S 2860  25.969   8.552   7.581
    6AU     LIG 2861  25.728   8.167   7.505
    6AU     LIG 2862  25.264   8.103   7.492
    6AU     LIG 2863  24.796   8.117   7.591
    6AU     LIG 2864  24.390   7.901   7.504
    6AU     LIG 2865  24.182   7.471   7.506
    6AU    AUSL 2866  26.449   8.901   7.715
    6AU    AUSL 2867  26.700   8.465   7.803
    6AU     AUL 2868  26.381   8.586   7.864
    6AU       S 2869  26.457   8.234   8.209
    6AU     LIG 2870  26.067   7.968   8.166
    6AU     LIG 2871  25.695   7.665   8.213
    6AU     LIG 2872  25.422   7.331   8.425
    6AU     LIG 2873  25.267   7.004   8.728
    6AU     LIG 2874  24.977   6.622   8.746
    6AU       S 2875  25.970   8.820   7.682
    6AU     LIG 2876  25.553   8.971   7.810
    6AU     LIG 2877  25.097   8.850   7.746
    6AU     LIG 2878  24.686   8.608   7.760
    6AU     LIG 2879  24.303   8.332   7.768
    6AU     LIG 2880  23.848   8.267   7.755
    6AU    AUSL 2881  27.209   9.671   7.947
    6AU    AUSL 2882  26.836   9.661   7.816
    6AU     AUL 2883  27.033   9.716   8.235
    6AU       S 2884  26.603   9.963   8.016
    6AU     LIG 2885  26.287  10.199   8.342
    6AU     LIG 2886  26.192  10.381   8.783
    6AU     LIG 2887  26.027  10.750   9.048
    6AU     LIG 2888  25.821  11.201   9.054
    6AU     LIG 2889  25.604  11.647   9.021
    6AU       S 2890  27.085  10.174   8.052
    6AU     LIG 2891  27.264  10.528   8.353
    6AU     LIG 2892  27.404  10.945   8.519
    6AU     LIG 2893  27.255  11.364   8.676
    6AU     LIG 2894  27.149  11.498   9.112
    6AU     LIG 2895  27.051  11.704   9.528
    6AU    AUSL 2896  27.088   9.819   7.623
    6AU    AUSL 2897  27.416   9.780   7.308
    6AU     AUL 2898  27.437  10.056   7.509
    6AU       S 2899  26.976  10.212   7.755
    6AU     LIG 2900  27.029  10.710   7.921
    6AU     LIG 2901  27.321  11.070   8.023
    6AU     LIG 2902  27.274  11.502   8.177
    6AU     LIG 2903  27.160  11.931   8.363
    6AU     LIG 2904  26.842  12.294   8.434
    6AU       S 2905  27.382  10.261   7.057
    6AU     LIG 2906  27.657  10.656   6.954
    6AU     LIG 2907  27.834  10.987   6.658
    6AU     LIG 2908  27.782  11.461   6.607
    6AU     LIG 2909  27.706  11.948   6.637
    6AU     LIG 2910  27.805  12.444   6.643
    6AU    AUSL 2911  27.424   9.743   7.669
    6AU    AUSL 2912  27.500   9.498   8.066
    6AU     AUL 2913  27.531   9.853   7.970
    6AU       S 2914  27.805   9.718   8.377
    6AU     LIG 2915  28.062   9.731   8.785
    6AU     LIG 2916  28.378   9.957   9.045
    6AU     LIG 2917  28.586  10.340   9.245
    6AU     LIG 2918  28.539  10.671   9.600
    6AU     LIG 2919  28.464  10.931  10.008
    6AU       S 2920  27.254  10.269   7.910
    6AU     LIG 2921  27.565  10.618   7.946
    6AU     LIG 2922  27.794  10.948   8.186
    6AU     LIG 2923  27.711  11.358   8.396
    6AU     LIG 2924  27.680  11.839   8.373
    6AU     LIG 2925  27.888  12.298   8.340
    6AU    AUSL 2926  27.199   8.402   7.937
    6AU    AUSL 2927  27.545   8.414   7.821
    6AU     AUL 2928  27.276   8.358   8.226
    6AU       S 2929  27.362   7.895   8.036
    6AU     LIG 2930  27.266   7.575   8.338
    6AU     LIG 2931  26.983   7.232   8.450
    6AU     LIG 2932  26.917   6.784   8.497
    6AU     LIG 2933  26.933   6.343   8.635
    6AU     LIG 2934  26.999   6.111   9.043
    6AU       S 2935  27.794   8.131   7.959
    6AU     LIG 2936  27.855   7.696   8.074
    6AU     LIG 2937  28.165   7.415   8.302
    6AU     LIG 2938  28.449   7.142   8.579
    6AU     LIG 2939  28.799   6.859   8.767
    6AU     LIG 2940  29.076   6.441   8.752
    6AU    AUSL 2941  26.985   8.337   7.665
    6AU    AUSL 2942  26.920   8.549   8.079
    6AU     AUL 2943  26.902   8.189   7.973
    6AU       S 2944  27.190   7.778   7.843
    6AU     LIG 2945  26.956   7.386   7.951
    6AU     LIG 2946  26.736   6.975   8.051
    6AU     LIG 2947  26.679   6.505   8.134
    6AU     LIG 2948  26.479   6.085   8.238
    6AU     LIG 2949  26.330   5.650   8.287
    6AU       S 2950  26.681   8.340   8.421
    6AU     LIG 2951  26.303   8.046   8.639
    6AU     LIG 2952  25.954   7.692   8.659
    6AU     LIG 2953  25.658   7.373   8.885
    6AU     LIG 2954  25.423   7.237   9.274
    6AU     LIG 2955  25.357   7.277   9.754
    6AU    AUSL 2956  27.305   8.240   7.644
    6AU    AUSL 2957  26.953   8.289   7.318
    6AU     AUL 2958  26.870   8.068   7.598
    6AU       S 2959  26.960   7.810   7.170
    6AU     LIG 2960  26.739   7.396   7.012
    6AU     LIG 2961  26.567   6.945   6.922
    6AU     LIG 2962  26.523   6.470   6.851
    6AU     LIG 2963  26.513   6.052   6.608
    6AU     LIG 2964  26.492   5.565   6.561
    6AU       S 2965  27.435   7.860   7.740
    6AU     LIG 2966  27.472   7.373   7.913
    6AU     LIG 2967  27.255   6.958   8.098
    6AU     LIG 2968  27.209   6.468   8.202
    6AU     LIG 2969  27.363   5.996   8.311
    6AU     LIG 2970  27.623   5.566   8.401
    6AU    AUSL 2971  27.266   9.651   7.002
    6AU    AUSL 2972  27.673   9.571   7.230
    6AU     AUL 2973  27.602   9.800   6.977
    6AU       S 2974  27.278  10.165   6.820
    6AU     LIG 2975  27.473  10.453   6.525
    6AU     LIG 2976  27.438  10.860   6.333
    6AU     LIG 2977  27.518  11.286   6.192
    6AU     LIG 2978  27.558  11.505   5.774
    6AU     LIG 2979  27.427  11.845   5.481
    6AU       S 2980  28.109   9.700   6.885
    6AU     LIG 2981  28.446   9.874   6.612
    6AU     LIG 2982  28.651  10.176   6.297
    6AU     LIG 2983  28.963  10.466   6.060
    6AU     LIG 2984  29.276  10.859   6.080
    6AU     LIG 2985  29.487  11.267   6.267
    6AU    AUSL 2986  27.063   9.793   7.277
    6AU    AUSL 2987  26.952   9.483   6.935
    6AU     AUL 2988  26.969   9.790   6.907
    6AU       S 2989  27.076  10.244   7.129
    6AU     LIG 2990  27.154  10.695   6.867
    6AU     LIG 2991  27.364  11.132   6.757
    6AU     LIG 2992  27.279  11.582   6.589
    6AU     LIG 2993  26.982  11.965   6.595
    6AU     LIG 2994  26.922  12.462   6.554
    6AU       S 2995  26.507   9.808   6.726
    6AU     LIG 2996  26.470   9.998   6.285
    6AU     LIG 2997  26.420  10.196   5.855
    6AU     LIG 2998  26.287  10.266   5.407
    6AU     LIG 2999  26.266  10.600   5.087
    6AU     LIG 3000  25.952  10.926   4.954
    6AU    AUSL 3001  27.150   8.389   7.026
    6AU    AUSL 3002  26.685   8.493   7.217
    6AU     AUL 3003  26.829   8.269   6.960
    6AU       S 3004  26.352   8.344   6.824
    6AU     LIG 3005  25.985   8.068   6.939
    6AU     LIG 3006  25.762   7.680   6.808
    6AU     LIG 3007  25.501   7.451   6.490
    6AU     LIG 3008  25.277   7.121   6.228
    6AU     LIG 3009  24.913   6.793   6.237
    6AU       S 3010  27.124   7.854   6.957
    6AU     LIG 3011  27.082   7.537   6.648
    6AU     LIG 3012  26.859   7.158   6.548
    6AU     LIG 3013  26.805   6.707   6.490
    6AU     LIG 3014  26.817   6.334   6.198
    6AU     LIG 3015  26.931   6.180   5.751
    6AU    AUSL 3016  27.317   8.274   7.314
    6AU    AUSL 3017  27.444   8.535   6.929
    6AU     AUL 3018  27.486   8.189   7.032
    6AU       S 3019  27.245   7.806   7.270
    6AU     LIG 3020  27.239   7.353   7.112
    6AU     LIG 3021  27.079   6.925   6.953
    6AU     LIG 3022  27.053   6.449   6.863
    6AU     LIG 3023  27.270   6.017   6.821
    6AU     LIG 3024  27.609   5.670   6.833
    6AU       S 3025  27.656   8.372   6.575
    6AU     LIG 3026  27.704   8.059   6.257
    6AU     LIG 3027  27.871   7.662   6.121
    6AU     LIG 3028  28.134   7.344   5.930
    6AU     LIG 3029  28.154   7.147   5.501
    6AU     LIG 3030  28.289   6.862   5.141
    7AU     AUC 3031  24.974  22.435   7.502
    7AU     AUC 3032  25.244  22.414   7.341
    7AU     AUC 3033  25.242  22.413   7.670
    7AU     AUC 3034  24.707  22.453   7.335
    7AU     AUC 3035  24.708  22.460   7.666
    7AU     AUC 3036  24.831  22.713   7.495
    7AU     AUC 3037  25.162  22.685   7.502
    7AU     AUC 3038  24.785  22.182   7.503
    7AU     AUC 3039  25.116  22.154   7.502
    7AU     AUC 3040  24.959  22.274   7.771
    7AU     AUC 3041  24.990  22.599   7.771
    7AU     AUC 3042  24.966  22.268   7.237
    7AU     AUC 3043  24.987  22.596   7.230
    7AU     AUC 3044  25.506  22.407   7.184
    7AU     AUC 3045  25.520  22.390   7.501
    7AU     AUC 3046  25.498  22.391   7.824
    7AU     AUC 3047  24.452  22.463   7.170
    7AU     AUC 3048  24.431  22.476   7.508
    7AU     AUC 3049  24.456  22.492   7.830
    7AU     AUC 3050  24.707  22.990   7.486
    7AU     AUC 3051  25.015  22.971   7.482
    7AU     AUC 3052  25.338  22.927   7.501
    7AU     AUC 3053  24.599  21.938   7.507
    7AU     AUC 3054  24.931  21.894   7.491
    7AU     AUC 3055  25.251  21.875   7.507
    7AU     AUC 3056  24.938  22.116   8.028
    7AU     AUC 3057  24.966  22.435   8.057
    7AU     AUC 3058  25.006  22.756   8.030
    7AU     AUC 3059  24.975  22.110   6.985
    7AU     AUC 3060  24.998  22.431   6.957
    7AU     AUC 3061  25.002  22.744   6.961
    7AU     AUC 3062  25.223  22.246   7.951
    7AU     AUC 3063  25.269  22.581   7.950
    7AU     AUC 3064  25.251  22.262   7.068
    7AU     AUC 3065  25.269  22.593   7.067
    7AU     AUC 3066  24.692  22.300   7.948
    7AU     AUC 3067  24.718  22.629   7.942
    7AU     AUC 3068  24.697  22.283   7.068
    7AU     AUC 3069  24.711  22.604   7.043
    7AU     AUC 3070  25.438  22.669   7.342
    7AU     AUC 3071  25.447  22.669   7.680
    7AU     AUC 3072  24.558  22.743   7.321
    7AU     AUC 3073  24.563  22.756   7.666
    7AU     AUC 3074  25.396  22.120   7.341
    7AU     AUC 3075  25.376  22.118   7.674
    7AU     AUC 3076  24.498  22.194   7.345
    7AU     AUC 3077  24.513  22.193   7.681
    7AU     AUC 3078  24.855  22.893   7.761
    7AU     AUC 3079  25.184  22.854   7.776
    7AU     AUC 3080  24.771  22.015   7.780
    7AU     AUC 3081  25.101  21.985   7.776
    7AU     AUC 3082  24.833  22.880   7.210
    7AU     AUC 3083  25.171  22.862   7.225
    7AU     AUC 3084  24.767  22.002   7.233
    7AU     AUC 3085  25.113  21.978   7.226
    7AU    AUSL 3086  25.446  22.358   8.114
    7AU    AUSL 3087  25.241  22.002   8.113
    7AU     AUL 3088  25.329  22.312   8.425
    7AU       S 3089  25.565  21.626   8.264
    7AU     LIG 3090  25.644  21.180   8.426
    7AU     LIG 3091  25.759  20.777   8.676
    7AU     LIG 3092  25.961  20.457   8.969
    7AU     LIG 3093  26.307  20.387   9.263
    7AU     LIG 3094  26.516  20.491   9.677
    7AU       S 3095  25.741  22.049   8.458
    7AU     LIG 3096  25.953  22.113   8.869
    7AU     LIG 3097  25.985  22.065   9.334
    7AU     LIG 3098  25.918  22.141   9.796
    7AU     LIG 3099  26.145  22.147  10.200
    7AU     LIG 3100  26.603  22.108  10.329
    7AU    AUSL 3101  25.042  22.226   8.263
    7AU    AUSL 3102  24.842  22.595   8.273
    7AU     AUL 3103  25.024  22.427   8.581
    7AU       S 3104  25.368  21.884   8.641
    7AU     LIG 3105  25.515  21.940   9.093
    7AU     LIG 3106  25.557  21.850   9.557
    7AU     LIG 3107  25.683  21.707   9.993
    7AU     LIG 3108  25.693  21.644  10.457
    7AU     LIG 3109  25.656  21.678  10.925
    7AU       S 3110  24.545  22.468   8.735
    7AU     LIG 3111  24.358  22.355   9.148
    7AU     LIG 3112  24.314  22.188   9.590
    7AU     LIG 3113  24.171  22.189  10.042
    7AU     LIG 3114  24.079  22.511  10.380
    7AU     LIG 3115  23.901  22.897  10.610
    7AU    AUSL 3116  25.189  22.614   8.245
    7AU    AUSL 3117  25.581  22.668   7.984
    7AU     AUL 3118  25.566  22.572   8.361
    7AU       S 3119  25.217  22.913   8.606
    7AU     LIG 3120  25.450  23.037   9.008
    7AU     LIG 3121  25.594  23.045   9.471
    7AU     LIG 3122  25.630  23.091   9.954
    7AU     LIG 3123  25.682  23.293  10.380
    7AU     LIG 3124  25.779  23.251  10.841
    7AU       S 3125  25.886  22.942   8.262
    7AU     LIG 3126  26.281  22.762   8.437
    7AU     LIG 3127  26.586  22.923   8.735
    7AU     LIG 3128  26.775  23.167   9.086
    7AU     LIG 3129  27.008  23.397   9.431
    7AU     LIG 3130  27.400  23.439   9.718
    7AU    AUSL 3131  25.449  22.524   6.874
    7AU    AUSL 3132  25.309  22.852   6.936
    7AU     AUL 3133  25.226  22.883   6.626
    7AU       S 3134  25.637  22.561   6.451
    7AU     LIG 3135  25.938  22.404   6.133
    7AU     LIG 3136  25.957  22.142   5.750
    7AU     LIG 3137  25.992  21.996   5.309
    7AU     LIG 3138  26.307  21.893   4.986
    7AU     LIG 3139  26.719  21.915   4.773
    7AU       S 3140  25.724  22.998   6.667
    7AU     LIG 3141  25.964  23.018   6.264
    7AU     LIG 3142  26.214  23.342   6.005
    7AU     LIG 3143  26.464  23.704   5.797
    7AU     LIG 3144  26.503  24.029   5.435
    7AU     LIG 3145  26.413  24.275   5.030
    7AU    AUSL 3146  25.263  22.245   6.794
    7AU    AUSL 3147  25.503  22.124   7.033
    7AU     AUL 3148  25.722  22.309   6.888
    7AU       S 3149  25.698  21.860   6.641
    7AU     LIG 3150  25.949  21.618   6.316
    7AU     LIG 3151  26.168  21.240   6.155
    7AU     LIG 3152  26.436  21.048   5.820
    7AU     LIG 3153  26.746  21.048   5.469
    7AU     LIG 3154  27.132  20.820   5.305
    7AU       S 3155  25.532  22.265   6.394
    7AU     LIG 3156  25.608  21.928   6.091
    7AU     LIG 3157  25.586  21.803   5.634
    7AU     LIG 3158  25.549  21.768   5.160
    7AU     LIG 3159  25.676  21.581   4.745
    7AU     LIG 3160  25.936  21.523   4.355
    7AU    AUSL 3161  25.140  22.555   6.726
    7AU    AUSL 3162  24.859  22.268   6.781
    7AU     AUL 3163  25.051  22.182   6.523
    7AU       S 3164  24.618  22.331   6.285
    7AU     LIG 3165  24.587  22.017   5.931
    7AU     LIG 3166  24.393  21.749   5.592
    7AU     LIG 3167  24.175  21.795   5.184
    7AU     LIG 3168  24.104  21.705   4.735
    7AU     LIG 3169  24.285  21.505   4.354
    7AU       S 3170  25.380  22.519   6.296
    7AU     LIG 3171  25.495  22.371   5.858
    7AU     LIG 3172  25.559  22.263   5.397
    7AU     LIG 3173  25.654  22.229   4.929
    7AU     LIG 3174  25.627  22.436   4.490
    7AU     LIG 3175  25.762  22.673   4.089
    7AU    AUSL 3176  24.512  22.552   8.144
    7AU    AUSL 3177  24.726  22.871   8.068
    7AU     AUL 3178  24.650  22.851   8.412
    7AU       S 3179  24.312  22.501   8.611
    7AU     LIG 3180  24.041  22.158   8.787
    7AU     LIG 3181  23.986  21.984   9.221
    7AU     LIG 3182  23.856  21.960   9.683
    7AU     LIG 3183  23.653  22.028  10.108
    7AU     LIG 3184  23.286  22.169  10.382
    7AU       S 3185  24.318  23.221   8.232
    7AU     LIG 3186  24.223  23.468   8.627
    7AU     LIG 3187  24.178  23.683   9.047
    7AU     LIG 3188  23.969  23.747   9.449
    7AU     LIG 3189  23.707  23.932   9.786
    7AU     LIG 3190  23.601  24.336  10.005
    7AU    AUSL 3191  24.693  22.273   8.232
    7AU    AUSL 3192  24.440  22.199   7.976
    7AU     AUL 3193  24.236  22.357   8.145
    7AU       S 3194  24.236  21.896   8.373
    7AU     LIG 3195  23.791  21.830   8.445
    7AU     LIG 3196  23.492  21.485   8.515
    7AU     LIG 3197  23.262  21.105   8.661
    7AU     LIG 3198  23.058  20.861   9.006
    7AU     LIG 3199  22.749  20.875   9.368
    7AU       S 3200  24.521  22.228   8.607
    7AU     LIG 3201  24.448  21.890   8.937
    7AU     LIG 3202  24.401  21.724   9.384
    7AU     LIG 3203  24.287  21.707   9.848
    7AU     LIG 3204  24.262  21.668  10.320
    7AU     LIG 3205  24.258  21.507  10.776
    7AU    AUSL 3206  24.537  22.397   6.833
    7AU    AUSL 3207  24.650  22.022   6.957
    7AU     AUL 3208  24.721  21.998   6.645
    7AU       S 3209  24.386  22.326   6.399
    7AU     LIG 3210  24.118  22.190   6.020
    7AU     LIG 3211  23.936  21.996   5.612
    7AU     LIG 3212  23.663  21.912   5.219
    7AU     LIG 3213  23.338  22.051   4.887
    7AU     LIG 3214  22.999  22.342   4.694
    7AU       S 3215  24.239  21.827   6.645
    7AU     LIG 3216  24.002  21.364   6.546
    7AU     LIG 3217  23.735  21.025   6.358
    7AU     LIG 3218  23.421  20.854   6.047
    7AU     LIG 3219  23.353  20.701   5.596
    7AU     LIG 3220  23.410  20.564   5.136
    7AU    AUSL 3221  24.810  22.618   6.735
    7AU    AUSL 3222  24.410  22.735   7.010
    7AU     AUL 3223  24.485  22.744   6.668
    7AU       S 3224  24.066  23.012   6.758
    7AU     LIG 3225  23.835  23.292   6.456
    7AU     LIG 3226  23.817  23.484   6.009
    7AU     LIG 3227  23.621  23.510   5.557
    7AU     LIG 3228  23.227  23.540   5.275
    7AU     LIG 3229  22.836  23.779   5.149
    7AU       S 3230  24.737  22.558   6.274
    7AU     LIG 3231  24.485  22.523   5.848
    7AU     LIG 3232  24.374  22.252   5.479
    7AU     LIG 3233  24.426  22.232   5.005
    7AU     LIG 3234  24.525  22.501   4.609
    7AU     LIG 3235  24.373  22.749   4.223
    7AU    AUSL 3236  25.641  22.817   7.485
    7AU    AUSL 3237  25.612  22.720   7.114
    7AU     AUL 3238  25.742  23.115   7.360
    7AU       S 3239  25.894  22.849   6.872
    7AU     LIG 3240  26.272  22.826   6.636
    7AU     LIG 3241  26.519  23.052   6.305
    7AU     LIG 3242  26.757  23.322   5.988
    7AU     LIG 3243  27.022  23.611   5.713
    7AU     LIG 3244  27.442  23.736   5.508
    7AU       S 3245  26.181  22.861   7.374
    7AU     LIG 3246  26.638  22.999   7.515
    7AU     LIG 3247  27.113  23.013   7.526
    7AU     LIG 3248  27.512  23.298   7.524
    7AU     LIG 3249  27.843  23.662   7.526
    7AU     LIG 3250  27.963  24.116   7.479
    7AU    AUSL 3251  25.756  22.505   7.337
    7AU    AUSL 3252  25.668  22.215   7.652
    7AU     AUL 3253  25.992  22.263   7.523
    7AU       S 3254  26.170  22.642   7.233
    7AU     LIG 3255  26.592  22.777   7.054
    7AU     LIG 3256  27.064  22.731   7.091
    7AU     LIG 3257  27.501  22.953   7.129
    7AU     LIG 3258  27.902  23.252   7.176
    7AU     LIG 3259  28.361  23.353   7.070
    7AU       S 3260  26.067  21.761   7.703
    7AU     LIG 3261  26.518  21.650   7.796
    7AU     LIG 3262  26.993  21.665   7.838
    7AU     LIG 3263  27.398  21.427   7.787
    7AU     LIG 3264  27.870  21.528   7.926
    7AU     LIG 3265  28.284  21.327   7.807
    7AU    AUSL 3266  25.754  22.547   7.697
    7AU    AUSL 3267  25.502  22.971   7.785
    7AU     AUL 3268  25.832  22.888   7.766
    7AU       S 3269  25.811  23.212   8.157
    7AU     LIG 3270  26.230  23.287   8.447
    7AU     LIG 3271  26.588  23.503   8.710
    7AU     LIG 3272  26.824  23.900   8.897
    7AU     LIG 3273  27.089  24.341   8.892
    7AU     LIG 3274  27.219  24.809   9.007
    7AU       S 3275  26.262  22.673   7.604
    7AU     LIG 3276  26.609  22.672   7.948
    7AU     LIG 3277  27.087  22.680   7.943
    7AU     LIG 3278  27.549  22.493   7.951
    7AU     LIG 3279  28.014  22.623   7.976
    7AU     LIG 3280  28.427  22.798   8.112
    7AU    AUSL 3281  24.427  22.983   7.519
    7AU    AUSL 3282  24.406  22.801   7.923
    7AU     AUL 3283  24.118  23.012   7.703
    7AU       S 3284  24.148  22.958   8.225
    7AU     LIG 3285  24.036  22.987   8.680
    7AU     LIG 3286  23.867  23.267   9.035
    7AU     LIG 3287  23.578  23.417   9.397
    7AU     LIG 3288  23.275  23.644   9.685
    7AU     LIG 3289  22.904  23.591   9.984
    7AU       S 3290  24.339  23.454   7.498
    7AU     LIG 3291  23.980  23.771   7.373
    7AU     LIG 3292  23.530  24.003   7.405
    7AU     LIG 3293  23.064  24.114   7.526
    7AU     LIG 3294  22.602  24.229   7.456
    7AU     LIG 3295  22.251  24.405   7.698
    7AU    AUSL 3296  24.275  22.653   7.306
    7AU    AUSL 3297  24.532  23.032   7.188
    7AU     AUL 3298  24.165  22.966   7.262
    7AU       S 3299  23.906  22.569   6.934
    7AU     LIG 3300  23.557  22.932   6.830
    7AU     LIG 3301  23.103  23.163   6.836
    7AU     LIG 3302  22.634  23.345   6.850
    7AU     LIG 3303  22.140  23.375   6.876
    7AU     LIG 3304  21.691  23.371   7.035
    7AU       S 3305  24.308  23.400   7.005
    7AU     LIG 3306  24.067  23.695   6.729
    7AU     LIG 3307  24.030  23.974   6.341
    7AU     LIG 3308  23.864  24.398   6.175
    7AU     LIG 3309  23.494  24.691   6.140
    7AU     LIG 3310  23.258  25.067   5.986
    7AU    AUSL 3311  24.237  22.656   7.668
    7AU    AUSL 3312  24.189  22.333   7.365
    7AU     AUL 3313  23.952  22.670   7.438
    7AU       S 3314  23.697  22.212   7.499
    7AU     LIG 3315  23.246  21.984   7.481
    7AU     LIG 3316  22.773  21.881   7.500
    7AU     LIG 3317  22.341  21.755   7.314
    7AU     LIG 3318  21.861  21.687   7.212
    7AU     LIG 3319  21.386  21.715   7.146
    7AU       S 3320  23.825  22.658   7.953
    7AU     LIG 3321  23.368  22.833   8.022
    7AU     LIG 3322  22.876  22.870   7.989
    7AU     LIG 3323  22.487  23.105   8.154
    7AU     LIG 3324  22.066  23.161   8.343
    7AU     LIG 3325  21.617  23.240   8.332
    7AU    AUSL 3326  25.568  21.906   7.554
    7AU    AUSL 3327  25.523  22.078   7.930
    7AU     AUL 3328  25.850  22.165   7.879
    7AU       S 3329  25.855  21.613   7.611
    7AU     LIG 3330  26.207  21.286   7.581
    7AU     LIG 3331  26.667  21.182   7.600
    7AU     LIG 3332  27.131  21.058   7.509
    7AU     LIG 3333  27.460  20.721   7.389
    7AU     LIG 3334  27.689  20.297   7.278
    7AU       S 3335  25.757  21.707   8.102
    7AU     LIG 3336  26.068  21.467   8.334
    7AU     LIG 3337  26.157  21.094   8.611
    7AU     LIG 3338  26.351  20.796   8.921
    7AU     LIG 3339  26.689  20.737   9.243
    7AU     LIG 3340  26.964  20.768   9.626
    7AU    AUSL 3341  25.702  22.164   7.313
    7AU    AUSL 3342  25.399  21.829   7.223
    7AU     AUL 3343  25.727  21.866   7.178
    7AU       S 3344  26.132  21.784   7.447
    7AU     LIG 3345  26.515  21.599   7.274
    7AU     LIG 3346  26.955  21.507   7.343
    7AU     LIG 3347  27.357  21.448   7.132
    7AU     LIG 3348  27.805  21.424   6.960
    7AU     LIG 3349  28.202  21.640   7.102
    7AU       S 3350  25.667  21.601   6.755
    7AU     LIG 3351  25.861  21.188   6.592
    7AU     LIG 3352  26.031  20.775   6.379
    7AU     LIG 3353  26.200  20.306   6.339
    7AU     LIG 3354  26.437  19.888   6.216
    7AU     LIG 3355  26.701  19.470   6.281
    7AU    AUSL 3356  24.293  22.014   7.531
    7AU    AUSL 3357  24.359  22.212   7.066
    7AU     AUL 3358  24.094  22.032   7.240
    7AU       S 3359  24.102  22.043   6.730
    7AU     LIG 3360  23.700  21.778   6.597
    7AU     LIG 3361  23.410  21.397   6.496
    7AU     LIG 3362  23.049  21.162   6.255
    7AU     LIG 3363  22.655  20.976   6.031
    7AU     LIG 3364  22.318  20.886   5.705
    7AU       S 3365  23.747  21.949   7.592
    7AU     LIG 3366  23.518  21.549   7.523
    7AU     LIG 3367  23.060  21.450   7.453
    7AU     LIG 3368  22.594  21.321   7.496
    7AU     LIG 3369  22.310  20.957   7.646
    7AU     LIG 3370  21.948  20.759   7.916
    7AU    AUSL 3371  24.223  22.318   7.720
    7AU    AUSL 3372  24.469  21.880   7.812
    7AU     AUL 3373  24.154  22.010   7.875
    7AU       S 3374  24.233  21.656   8.218
    7AU     LIG 3375  23.855  21.399   8.153
    7AU     LIG 3376  23.524  21.074   8.189
    7AU     LIG 3377  23.386  20.683   8.395
    7AU     LIG 3378  23.124  20.440   8.703
    7AU     LIG 3379  22.753  20.127   8.730
    7AU       S 3380  23.736  22.235   7.701
    7AU     LIG 3381  23.292  22.389   7.785
    7AU     LIG 3382  22.821  22.414   7.704
    7AU     LIG 3383  22.398  22.219   7.624
    7AU     LIG 3384  22.051  21.921   7.709
    7AU     LIG 3385  21.767  21.635   7.948
    7AU    AUSL 3386  25.003  23.074   7.950
    7AU    AUSL 3387  24.632  23.075   7.805
    7AU     AUL 3388  24.825  23.140   8.227
    7AU       S 3389  24.424  23.390   7.983
    7AU     LIG 3390  24.453  23.772   8.265
    7AU     LIG 3391  24.275  23.999   8.656
    7AU     LIG 3392  23.978  24.270   8.933
    7AU     LIG 3393  23.746  24.713   8.934
    7AU     LIG 3394  23.354  24.978   8.827
    7AU       S 3395  24.904  23.584   8.009
    7AU     LIG 3396  24.950  23.906   8.358
    7AU     LIG 3397  24.996  24.279   8.613
    7AU     LIG 3398  25.227  24.564   8.906
    7AU     LIG 3399  25.163  24.734   9.353
    7AU     LIG 3400  25.220  25.020   9.741
    7AU    AUSL 3401  24.901  23.216   7.612
    7AU    AUSL 3402  25.174  23.180   7.326
    7AU     AUL 3403  25.362  23.387   7.529
    7AU       S 3404  24.797  23.605   7.706
    7AU     LIG 3405  24.741  24.059   7.924
    7AU     LIG 3406  24.950  24.474   8.101
    7AU     LIG 3407  25.062  24.944   8.209
    7AU     LIG 3408  25.027  25.432   8.305
    7AU     LIG 3409  25.029  25.926   8.367
    7AU       S 3410  25.046  23.663   7.243
    7AU     LIG 3411  25.198  24.095   7.111
    7AU     LIG 3412  25.362  24.415   6.770
    7AU     LIG 3413  25.372  24.894   6.662
    7AU     LIG 3414  25.345  25.391   6.645
    7AU     LIG 3415  25.593  25.805   6.572
    7AU    AUSL 3416  25.213  23.115   7.674
    7AU    AUSL 3417  25.293  22.893   8.066
    7AU     AUL 3418  25.329  23.257   7.971
    7AU       S 3419  25.614  23.095   8.370
    7AU     LIG 3420  25.906  23.040   8.755
    7AU     LIG 3421  26.255  23.235   8.999
    7AU     LIG 3422  26.502  23.581   9.227
    7AU     LIG 3423  26.481  23.923   9.554
    7AU     LIG 3424  26.297  24.266   9.839
    7AU       S 3425  25.054  23.675   7.794
    7AU     LIG 3426  25.252  24.054   7.964
    7AU     LIG 3427  25.402  24.328   8.307
    7AU     LIG 3428  25.452  24.753   8.477
    7AU     LIG 3429  25.491  25.220   8.394
    7AU     LIG 3430  25.490  25.697   8.313
    7AU    AUSL 3431  24.968  21.809   7.942
    7AU    AUSL 3432  25.317  21.810   7.821
    7AU     AUL 3433  25.071  21.730   8.223
    7AU       S 3434  25.097  21.270   8.002
    7AU     LIG 3435  24.910  20.875   8.190
    7AU     LIG 3436  24.591  20.533   8.236
    7AU     LIG 3437  24.515  20.108   8.421
    7AU     LIG 3438  24.437  19.747   8.700
    7AU     LIG 3439  24.551  19.597   9.126
    7AU       S 3440  25.543  21.525   7.988
    7AU     LIG 3441  25.849  21.194   7.955
    7AU     LIG 3442  25.995  20.817   8.205
    7AU     LIG 3443  26.191  20.506   8.514
    7AU     LIG 3444  26.466  20.223   8.789
    7AU     LIG 3445  26.705  19.803   8.843
    7AU    AUSL 3446  24.750  21.756   7.670
    7AU    AUSL 3447  24.693  21.964   8.085
    7AU     AUL 3448  24.676  21.601   7.982
    7AU       S 3449  24.916  21.179   7.772
    7AU     LIG 3450  24.689  20.771   7.734
    7AU     LIG 3451  24.487  20.347   7.759
    7AU     LIG 3452  24.309  19.988   7.978
    7AU     LIG 3453  24.172  19.661   8.265
    7AU     LIG 3454  24.299  19.274   8.482
    7AU       S 3455  24.460  21.764   8.427
    7AU     LIG 3456  24.092  21.462   8.647
    7AU     LIG 3457  23.787  21.074   8.639
    7AU     LIG 3458  23.552  20.723   8.879
    7AU     LIG 3459  23.446  20.391   9.203
    7AU     LIG 3460  23.435  20.279   9.668
    7AU    AUSL 3461  25.064  21.652   7.642
    7AU    AUSL 3462  24.730  21.697   7.326
    7AU     AUL 3463  24.593  21.518   7.612
    7AU       S 3464  24.753  21.220   7.237
    7AU     LIG 3465  24.474  20.838   7.270
    7AU     LIG 3466  24.369  20.380   7.257
    7AU     LIG 3467  24.466  19.982   7.050
    7AU     LIG 3468  24.305  19.587   6.865
    7AU     LIG 3469  24.149  19.142   6.858
    7AU       S 3470  25.190  21.274   7.733
    7AU     LIG 3471  25.214  20.781   7.781
    7AU     LIG 3472  24.980  20.384   7.935
    7AU     LIG 3473  24.889  19.921   8.072
    7AU     LIG 3474  25.134  19.469   8.081
    7AU     LIG 3475  25.308  19.008   7.989
    7AU    AUSL 3476  25.033  23.054   7.018
    7AU    AUSL 3477  25.444  22.990   7.232
    7AU     AUL 3478  25.347  23.232   6.986
    7AU       S 3479  25.013  23.617   6.960
    7AU     LIG 3480  25.123  23.954   6.622
    7AU     LIG 3481  25.288  24.229   6.267
    7AU     LIG 3482  25.253  24.493   5.868
    7AU     LIG 3483  25.247  24.859   5.564
    7AU     LIG 3484  25.053  25.216   5.315
    7AU       S 3485  25.849  23.140   6.868
    7AU     LIG 3486  26.186  23.338   6.598
    7AU     LIG 3487  26.507  23.588   6.350
    7AU     LIG 3488  26.839  23.854   6.141
    7AU     LIG 3489  27.098  24.261   6.169
    7AU     LIG 3490  27.290  24.707   6.162
    7AU    AUSL 3491  24.823  23.179   7.278
    7AU    AUSL 3492  24.720  22.888   6.927
    7AU     AUL 3493  24.764  23.192   6.882
    7AU       S 3494  24.757  23.605   7.205
    7AU     LIG 3495  24.713  24.021   6.929
    7AU     LIG 3496  24.886  24.474   6.930
    7AU     LIG 3497  24.862  24.920   6.761
    7AU     LIG 3498  24.790  25.382   6.650
    7AU     LIG 3499  24.364  25.625   6.615
    7AU       S 3500  24.293  23.223   6.719
    7AU     LIG 3501  24.285  23.493   6.306
    7AU     LIG 3502  24.240  23.768   5.909
    7AU     LIG 3503  24.030  23.853   5.490
    7AU     LIG 3504  23.928  24.070   5.071
    7AU     LIG 3505  23.755  24.457   4.845
    7AU    AUSL 3506  24.918  21.794   7.032
    7AU    AUSL 3507  24.451  21.892   7.228
    7AU     AUL 3508  24.607  21.660   6.976
    7AU       S 3509  24.118  21.714   6.870
    7AU     LIG 3510  23.755  21.454   7.007
    7AU     LIG 3511  23.569  21.063   6.857
    7AU     LIG 3512  23.293  20.829   6.560
    7AU     LIG 3513  22.917  20.639   6.330
    7AU     LIG 3514  22.523  20.343   6.277
    7AU       S 3515  24.882  21.231   6.993
    7AU     LIG 3516  24.751  20.799   6.843
    7AU     LIG 3517  24.490  20.409   6.748
    7AU     LIG 3518  24.517  19.993   6.527
    7AU     LIG 3519  24.575  19.815   6.086
    7AU     LIG 3520  24.632  19.617   5.653
    7AU    AUSL 3521  25.098  21.676   7.311
    7AU    AUSL 3522  25.212  21.941   6.925
    7AU     AUL 3523  25.232  21.593   6.999
    7AU       S 3524  25.032  21.213   7.273
    7AU     LIG 3525  24.982  20.748   7.306
    7AU     LIG 3526  24.866  20.335   7.093
    7AU     LIG 3527  24.953  19.918   6.852
    7AU     LIG 3528  25.298  19.559   6.779
    7AU     LIG 3529  25.572  19.151   6.772
    7AU       S 3530  25.442  21.781   6.570
    7AU     LIG 3531  25.470  21.427   6.304
    7AU     LIG 3532  25.676  21.074   6.124
    7AU     LIG 3533  25.938  20.914   5.799
    7AU     LIG 3534  26.061  20.824   5.360
    7AU     LIG 3535  26.269  20.536   5.052
    8AU     AUC 3536  43.079   9.619   7.497
    8AU     AUC 3537  43.351   9.599   7.339
    8AU     AUC 3538  43.343   9.602   7.666
    8AU     AUC 3539  42.816   9.635   7.330
    8AU     AUC 3540  42.812   9.636   7.660
    8AU     AUC 3541  42.932   9.898   7.491
    8AU     AUC 3542  43.261   9.876   7.498
    8AU     AUC 3543  42.895   9.360   7.496
    8AU     AUC 3544  43.225   9.337   7.498
    8AU     AUC 3545  43.064   9.455   7.764
    8AU     AUC 3546  43.088   9.784   7.765
    8AU     AUC 3547  43.077   9.450   7.232
    8AU     AUC 3548  43.094   9.780   7.227
    8AU     AUC 3549  43.619   9.588   7.186
    8AU     AUC 3550  43.623   9.577   7.502
    8AU     AUC 3551  43.597   9.584   7.822
    8AU     AUC 3552  42.566   9.649   7.163
    8AU     AUC 3553  42.541   9.654   7.502
    8AU     AUC 3554  42.557   9.657   7.822
    8AU     AUC 3555  42.799  10.172   7.488
    8AU     AUC 3556  43.114  10.172   7.481
    8AU     AUC 3557  43.435  10.125   7.495
    8AU     AUC 3558  42.709   9.112   7.494
    8AU     AUC 3559  43.042   9.071   7.486
    8AU     AUC 3560  43.362   9.061   7.508
    8AU     AUC 3561  43.044   9.293   8.020
    8AU     AUC 3562  43.067   9.614   8.051
    8AU     AUC 3563  43.098   9.936   8.025
    8AU     AUC 3564  43.091   9.289   6.979
    8AU     AUC 3565  43.109   9.611   6.954
    8AU     AUC 3566  43.110   9.925   6.959
    8AU     AUC 3567  43.326   9.433   7.945
    8AU     AUC 3568  43.363   9.769   7.946
    8AU     AUC 3569  43.365   9.440   7.067
    8AU     AUC 3570  43.379   9.770   7.067
    8AU     AUC 3571  42.796   9.471   7.939
    8AU     AUC 3572  42.814   9.799   7.936
    8AU     AUC 3573  42.812   9.467   7.061
    8AU     AUC 3574  42.820   9.790   7.040
    8AU     AUC 3575  43.545   9.852   7.346
    8AU     AUC 3576  43.535   9.868   7.677
    8AU     AUC 3577  42.658   9.924   7.317
    8AU     AUC 3578  42.657   9.927   7.663
    8AU     AUC 3579  43.509   9.308   7.343
    8AU     AUC 3580  43.488   9.311   7.669
    8AU     AUC 3581  42.619   9.370   7.334
    8AU     AUC 3582  42.617   9.364   7.667
    8AU     AUC 3583  42.941  10.072   7.761
    8AU     AUC 3584  43.274  10.054   7.768
    8AU     AUC 3585  42.879   9.190   7.769
    8AU     AUC 3586  43.210   9.168   7.769
    8AU     AUC 3587  42.941  10.070   7.209
    8AU     AUC 3588  43.274  10.045   7.219
    8AU     AUC 3589  42.883   9.180   7.226
    8AU     AUC 3590  43.223   9.160   7.224
    8AU    AUSL 3591  43.548   9.545   8.111
    8AU    AUSL 3592  43.350   9.189   8.105
    8AU     AUL 3593  43.435   9.499   8.421
    8AU       S 3594  43.642   8.807   8.246
    8AU     LIG 3595  43.530   8.473   8.505
    8AU     LIG 3596  43.773   8.147   8.716
    8AU     LIG 3597  44.050   7.878   8.988
    8AU     LIG 3598  44.273   7.699   9.369
    8AU     LIG 3599  44.203   7.561   9.833
    8AU       S 3600  43.828   9.211   8.459
    8AU     LIG 3601  43.895   9.241   8.921
    8AU     LIG 3602  44.079   9.228   9.354
    8AU     LIG 3603  44.409   9.175   9.693
    8AU     LIG 3604  44.731   9.322  10.006
    8AU     LIG 3605   0.030   9.426  10.351
    8AU    AUSL 3606  43.149   9.408   8.257
    8AU    AUSL 3607  42.942   9.765   8.269
    8AU     AUL 3608  43.127   9.601   8.579
    8AU       S 3609  43.460   9.063   8.633
    8AU     LIG 3610  43.467   9.008   9.092
    8AU     LIG 3611  43.679   8.923   9.494
    8AU     LIG 3612  43.727   8.708   9.907
    8AU     LIG 3613  43.647   8.642  10.363
    8AU     LIG 3614  43.729   8.693  10.834
    8AU       S 3615  42.648   9.623   8.736
    8AU     LIG 3616  42.477   9.508   9.159
    8AU     LIG 3617  42.374   9.420   9.612
    8AU     LIG 3618  42.279   9.409  10.078
    8AU     LIG 3619  42.299   9.694  10.480
    8AU     LIG 3620  42.350  10.001  10.861
    8AU    AUSL 3621  43.289   9.798   8.242
    8AU    AUSL 3622  43.665   9.869   7.993
    8AU     AUL 3623  43.674   9.760   8.362
    8AU       S 3624  43.298  10.093   8.602
    8AU     LIG 3625  43.495  10.233   9.010
    8AU     LIG 3626  43.674  10.256   9.455
    8AU     LIG 3627  43.716  10.332   9.931
    8AU     LIG 3628  43.768  10.461  10.390
    8AU     LIG 3629  43.824  10.413  10.864
    8AU       S 3630  43.915  10.190   8.277
    8AU     LIG 3631  44.295  10.085   8.476
    8AU     LIG 3632  44.631  10.303   8.675
    8AU     LIG 3633  44.822  10.520   9.026
    8AU     LIG 3634   0.036  10.844   9.269
    8AU     LIG 3635   0.367  10.912   9.595
    8AU    AUSL 3636  43.560   9.700   6.871
    8AU    AUSL 3637  43.414  10.020   6.926
    8AU     AUL 3638  43.340  10.053   6.616
    8AU       S 3639  43.746   9.726   6.445
    8AU     LIG 3640  44.078   9.546   6.174
    8AU     LIG 3641  44.145   9.297   5.793
    8AU     LIG 3642  44.242   9.133   5.359
    8AU     LIG 3643  44.577   9.101   5.017
    8AU     LIG 3644  44.989   9.178   4.788
    8AU       S 3645  43.838  10.167   6.655
    8AU     LIG 3646  44.012  10.429   6.289
    8AU     LIG 3647  44.227  10.678   5.928
    8AU     LIG 3648  44.486  10.980   5.649
    8AU     LIG 3649  44.586  11.298   5.307
    8AU     LIG 3650  44.638  11.698   5.048
    8AU    AUSL 3651  43.376   9.420   6.794
    8AU    AUSL 3652  43.619   9.298   7.034
    8AU     AUL 3653  43.832   9.488   6.889
    8AU       S 3654  43.819   9.040   6.649
    8AU     LIG 3655  44.111   8.827   6.342
    8AU     LIG 3656  44.211   8.441   6.100
    8AU     LIG 3657  44.510   8.109   5.957
    8AU     LIG 3658  44.886   7.965   5.709
    8AU     LIG 3659   0.170   7.940   5.327
    8AU       S 3660  43.639   9.433   6.395
    8AU     LIG 3661  43.762   9.104   6.099
    8AU     LIG 3662  43.821   8.920   5.662
    8AU     LIG 3663  43.803   8.920   5.180
    8AU     LIG 3664  43.779   8.704   4.748
    8AU     LIG 3665  43.972   8.630   4.313
    8AU    AUSL 3666  43.249   9.727   6.724
    8AU    AUSL 3667  42.968   9.454   6.774
    8AU     AUL 3668  43.159   9.343   6.529
    8AU       S 3669  42.755   9.537   6.277
    8AU     LIG 3670  42.735   9.219   5.940
    8AU     LIG 3671  42.487   8.943   5.658
    8AU     LIG 3672  42.309   8.925   5.234
    8AU     LIG 3673  42.284   8.868   4.774
    8AU     LIG 3674  42.334   8.855   4.300
    8AU       S 3675  43.483   9.681   6.293
    8AU     LIG 3676  43.659   9.545   5.869
    8AU     LIG 3677  43.777   9.392   5.436
    8AU     LIG 3678  43.823   9.464   4.974
    8AU     LIG 3679  43.866   9.762   4.597
    8AU     LIG 3680  43.858   9.922   4.149
    8AU    AUSL 3681  42.613   9.714   8.139
    8AU    AUSL 3682  42.814  10.035   8.064
    8AU     AUL 3683  42.739  10.008   8.413
    8AU       S 3684  42.414   9.646   8.608
    8AU     LIG 3685  42.157   9.302   8.807
    8AU     LIG 3686  42.083   9.165   9.260
    8AU     LIG 3687  41.927   9.137   9.721
    8AU     LIG 3688  41.553   9.066  10.009
    8AU     LIG 3689  41.248   9.156  10.366
    8AU       S 3690  42.376  10.345   8.248
    8AU     LIG 3691  42.429  10.556   8.671
    8AU     LIG 3692  42.400  10.791   9.068
    8AU     LIG 3693  42.101  11.016   9.337
    8AU     LIG 3694  41.957  11.126   9.779
    8AU     LIG 3695  41.864  11.447  10.127
    8AU    AUSL 3696  42.799   9.439   8.225
    8AU    AUSL 3697  42.547   9.365   7.968
    8AU     AUL 3698  42.340   9.518   8.137
    8AU       S 3699  42.345   9.060   8.364
    8AU     LIG 3700  41.901   9.008   8.436
    8AU     LIG 3701  41.566   8.698   8.482
    8AU     LIG 3702  41.333   8.342   8.649
    8AU     LIG 3703  41.113   8.105   8.978
    8AU     LIG 3704  40.845   8.171   9.361
    8AU       S 3705  42.630   9.390   8.597
    8AU     LIG 3706  42.590   9.062   8.921
    8AU     LIG 3707  42.546   8.981   9.380
    8AU     LIG 3708  42.390   8.951   9.823
    8AU     LIG 3709  42.168   8.900  10.232
    8AU     LIG 3710  42.034   8.858  10.689
    8AU    AUSL 3711  42.646   9.590   6.825
    8AU    AUSL 3712  42.773   9.202   6.954
    8AU     AUL 3713  42.801   9.190   6.635
    8AU       S 3714  42.502   9.530   6.376
    8AU     LIG 3715  42.248   9.358   5.990
    8AU     LIG 3716  42.021   9.166   5.602
    8AU     LIG 3717  41.807   9.075   5.181
    8AU     LIG 3718  41.412   9.042   4.903
    8AU     LIG 3719  41.123   9.068   4.529
    8AU       S 3720  42.321   8.996   6.687
    8AU     LIG 3721  42.054   8.604   6.612
    8AU     LIG 3722  41.801   8.258   6.447
    8AU     LIG 3723  41.595   7.997   6.125
    8AU     LIG 3724  41.471   7.899   5.692
    8AU     LIG 3725  41.334   7.600   5.371
    8AU    AUSL 3726  42.922   9.807   6.734
    8AU    AUSL 3727  42.519   9.927   7.008
    8AU     AUL 3728  42.591   9.936   6.665
    8AU       S 3729  42.186  10.232   6.748
    8AU     LIG 3730  41.868  10.468   6.499
    8AU     LIG 3731  41.817  10.693   6.093
    8AU     LIG 3732  41.691  10.808   5.651
    8AU     LIG 3733  41.320  10.801   5.355
    8AU     LIG 3734  40.874  10.875   5.213
    8AU       S 3735  42.862   9.758   6.275
    8AU     LIG 3736  42.606   9.714   5.841
    8AU     LIG 3737  42.455   9.430   5.488
    8AU     LIG 3738  42.353   9.396   5.018
    8AU     LIG 3739  42.403   9.638   4.598
    8AU     LIG 3740  42.475   9.913   4.202
    8AU    AUSL 3741  43.748  10.025   7.479
    8AU    AUSL 3742  43.726   9.889   7.117
    8AU     AUL 3743  43.815  10.325   7.339
    8AU       S 3744  44.014  10.003   6.853
    8AU     LIG 3745  44.250   9.979   6.439
    8AU     LIG 3746  44.491  10.273   6.156
    8AU     LIG 3747  44.733  10.591   5.900
    8AU     LIG 3748  44.973  10.754   5.535
    8AU     LIG 3749   0.435  10.797   5.415
    8AU       S 3750  44.255  10.079   7.291
    8AU     LIG 3751  44.751  10.235   7.335
    8AU     LIG 3752   0.223  10.359   7.477
    8AU     LIG 3753   0.705  10.478   7.521
    8AU     LIG 3754   1.058  10.787   7.519
    8AU     LIG 3755   1.192  11.085   7.865
    8AU    AUSL 3756  43.870   9.690   7.364
    8AU    AUSL 3757  43.806   9.418   7.651
    8AU     AUL 3758  44.118   9.583   7.721
    8AU       S 3759  44.256   9.758   7.234
    8AU     LIG 3760  44.743   9.727   7.281
    8AU     LIG 3761   0.183   9.926   7.205
    8AU     LIG 3762   0.571  10.214   7.105
    8AU     LIG 3763   1.030  10.438   7.087
    8AU     LIG 3764   1.468  10.418   6.834
    8AU       S 3765  44.252   9.089   7.586
    8AU     LIG 3766  44.660   8.863   7.748
    8AU     LIG 3767   0.098   8.643   7.767
    8AU     LIG 3768   0.554   8.456   7.745
    8AU     LIG 3769   1.044   8.478   7.765
    8AU     LIG 3770   1.418   8.667   8.002
    8AU    AUSL 3771  43.813   9.762   7.698
    8AU    AUSL 3772  43.589  10.166   7.774
    8AU     AUL 3773  43.941  10.065   7.787
    8AU       S 3774  43.890  10.435   8.137
    8AU     LIG 3775  44.241  10.596   8.439
    8AU     LIG 3776  44.589  10.830   8.675
    8AU     LIG 3777  44.812  11.208   8.865
    8AU     LIG 3778  44.979  11.646   8.724
    8AU     LIG 3779   0.176  12.071   8.803
    8AU       S 3780  44.323   9.959   7.471
    8AU     LIG 3781  44.667   9.946   7.753
    8AU     LIG 3782   0.113   9.910   7.716
    8AU     LIG 3783   0.561  10.033   7.742
    8AU     LIG 3784   1.006  10.116   7.924
    8AU     LIG 3785   1.332  10.403   8.130
    8AU    AUSL 3786  42.514  10.151   7.518
    8AU    AUSL 3787  42.491   9.953   7.918
    8AU     AUL 3788  42.199  10.160   7.697
    8AU       S 3789  42.220  10.086   8.219
    8AU     LIG 3790  42.047  10.212   8.631
    8AU     LIG 3791  41.966  10.537   8.959
    8AU     LIG 3792  41.700  10.693   9.312
    8AU     LIG 3793  41.302  10.791   9.549
    8AU     LIG 3794  40.922  11.001   9.750
    8AU       S 3795  42.411  10.617   7.522
    8AU     LIG 3796  41.987  10.753   7.320
    8AU     LIG 3797  41.546  10.942   7.401
    8AU     LIG 3798  41.136  11.180   7.349
    8AU     LIG 3799  40.707  11.345   7.489
    8AU     LIG 3800  40.417  11.442   7.837
    8AU    AUSL 3801  42.363   9.831   7.288
    8AU    AUSL 3802  42.643  10.221   7.201
    8AU     AUL 3803  42.267  10.148   7.253
    8AU       S 3804  41.998   9.812   6.903
    8AU     LIG 3805  41.605  10.102   6.798
    8AU     LIG 3806  41.107  10.196   6.746
    8AU     LIG 3807  40.623  10.248   6.603
    8AU     LIG 3808  40.155  10.340   6.754
    8AU     LIG 3809  39.821  10.715   6.837
    8AU       S 3810  42.408  10.600   7.024
    8AU     LIG 3811  42.091  10.849   6.769
    8AU     LIG 3812  42.044  11.118   6.379
    8AU     LIG 3813  41.911  11.562   6.308
    8AU     LIG 3814  41.651  11.957   6.207
    8AU     LIG 3815  41.412  12.133   5.833
    8AU    AUSL 3816  42.332   9.815   7.651
    8AU    AUSL 3817  42.336   9.507   7.371
    8AU     AUL 3818  42.042   9.775   7.418
    8AU       S 3819  41.833   9.254   7.524
    8AU     LIG 3820  41.410   9.118   7.355
    8AU     LIG 3821  40.942   9.045   7.270
    8AU     LIG 3822  40.464   9.010   7.284
    8AU     LIG 3823  40.015   8.888   7.219
    8AU     LIG 3824  39.778   8.841   6.803
    8AU       S 3825  41.914   9.782   7.926
    8AU     LIG 3826  41.463   9.881   8.050
    8AU     LIG 3827  41.076  10.133   8.156
    8AU     LIG 3828  40.772  10.437   8.306
    8AU     LIG 3829  40.311  10.416   8.277
    8AU     LIG 3830  39.873  10.392   8.101
    8AU    AUSL 3831  43.687   9.104   7.565
    8AU    AUSL 3832  43.624   9.274   7.914
    8AU     AUL 3833  43.944   9.315   7.922
    8AU       S 3834  44.062   8.899   7.624
    8AU     LIG 3835  44.297   8.531   7.585
    8AU     LIG 3836  44.721   8.382   7.510
    8AU     LIG 3837   0.161   8.221   7.469
    8AU     LIG 3838   0.567   7.978   7.498
    8AU     LIG 3839   0.691   7.526   7.609
    8AU       S 3840  43.858   8.852   8.105
    8AU     LIG 3841  44.041   8.528   8.412
    8AU     LIG 3842  44.289   8.248   8.706
    8AU     LIG 3843  44.562   7.975   8.991
    8AU     LIG 3844  44.922   7.987   9.294
    8AU     LIG 3845   0.254   8.212   9.560
    8AU    AUSL 3846  43.815   9.356   7.310
    8AU    AUSL 3847  43.503   9.024   7.236
    8AU     AUL 3848  43.813   9.006   7.199
    8AU       S 3849  44.249   9.199   7.354
    8AU     LIG 3850  44.574   8.845   7.249
    8AU     LIG 3851   0.041   8.694   7.254
    8AU     LIG 3852   0.505   8.531   7.242
    8AU     LIG 3853   0.987   8.463   7.252
    8AU     LIG 3854   1.396   8.540   7.017
    8AU       S 3855  43.781   8.797   6.742
    8AU     LIG 3856  43.967   8.386   6.578
    8AU     LIG 3857  44.171   8.002   6.377
    8AU     LIG 3858  44.418   7.645   6.190
    8AU     LIG 3859  44.726   7.268   6.221
    8AU     LIG 3860   0.153   7.059   6.253
    8AU    AUSL 3861  42.391   9.187   7.495
    8AU    AUSL 3862  42.485   9.393   7.057
    8AU     AUL 3863  42.153   9.389   7.178
    8AU       S 3864  42.237   9.200   6.725
    8AU     LIG 3865  41.794   9.047   6.704
    8AU     LIG 3866  41.526   8.679   6.612
    8AU     LIG 3867  41.292   8.356   6.358
    8AU     LIG 3868  41.101   8.116   5.991
    8AU     LIG 3869  40.969   7.953   5.559
    8AU       S 3870  41.958   9.028   7.488
    8AU     LIG 3871  41.645   8.713   7.572
    8AU     LIG 3872  41.227   8.610   7.384
    8AU     LIG 3873  40.744   8.592   7.424
    8AU     LIG 3874  40.285   8.575   7.556
    8AU     LIG 3875  40.036   8.319   7.863
    8AU    AUSL 3876  42.327   9.479   7.716
    8AU    AUSL 3877  42.576   9.053   7.787
    8AU     AUL 3878  42.268   9.172   7.864
    8AU       S 3879  42.339   8.817   8.207
    8AU     LIG 3880  41.955   8.556   8.170
    8AU     LIG 3881  41.597   8.247   8.204
    8AU     LIG 3882  41.372   7.884   8.413
    8AU     LIG 3883  41.165   7.625   8.755
    8AU     LIG 3884  40.866   7.258   8.881
    8AU       S 3885  41.845   9.339   7.669
    8AU     LIG 3886  41.440   9.565   7.630
    8AU     LIG 3887  41.007   9.489   7.512
    8AU     LIG 3888  40.708   9.205   7.709
    8AU     LIG 3889  40.268   9.084   7.742
    8AU     LIG 3890  39.919   8.827   7.854
    8AU    AUSL 3891  43.090  10.255   7.946
    8AU    AUSL 3892  42.696  10.239   7.815
    8AU     AUL 3893  42.888  10.302   8.225
    8AU       S 3894  42.456  10.536   8.015
    8AU     LIG 3895  42.158  10.800   8.315
    8AU     LIG 3896  42.061  11.011   8.746
    8AU     LIG 3897  41.968  11.429   8.988
    8AU     LIG 3898  41.805  11.905   9.007
    8AU     LIG 3899  41.488  12.259   8.886
    8AU       S 3900  43.018  10.749   8.065
    8AU     LIG 3901  43.234  10.961   8.424
    8AU     LIG 3902  43.335  11.388   8.587
    8AU     LIG 3903  43.288  11.771   8.864
    8AU     LIG 3904  43.164  12.035   9.257
    8AU     LIG 3905  42.998  12.422   9.496
    8AU    AUSL 3906  42.947  10.393   7.633
    8AU    AUSL 3907  43.300  10.370   7.302
    8AU     AUL 3908  43.199  10.642   7.482
    8AU       S 3909  42.850  10.796   7.833
    8AU     LIG 3910  42.886  11.228   8.124
    8AU     LIG 3911  43.047  11.668   8.249
    8AU     LIG 3912  42.886  12.130   8.257
    8AU     LIG 3913  42.755  12.589   8.348
    8AU     LIG 3914  42.609  13.036   8.239
    8AU       S 3915  43.289  10.852   7.040
    8AU     LIG 3916  43.507  11.275   6.943
    8AU     LIG 3917  43.678  11.688   6.791
    8AU     LIG 3918  43.994  12.050   6.845
    8AU     LIG 3919  44.330  12.329   6.637
    8AU     LIG 3920  44.394  12.827   6.662
    8AU    AUSL 3921  43.302  10.347   7.661
    8AU    AUSL 3922  43.379  10.081   8.061
    8AU     AUL 3923  43.418  10.430   7.959
    8AU       S 3924  43.676  10.305   8.376
    8AU     LIG 3925  43.939  10.338   8.767
    8AU     LIG 3926  44.289  10.544   8.986
    8AU     LIG 3927  44.519  10.905   9.191
    8AU     LIG 3928  44.714  11.144   9.550
    8AU     LIG 3929  44.686  11.303  10.000
    8AU       S 3930  43.196  10.880   7.912
    8AU     LIG 3931  43.398  11.298   8.068
    8AU     LIG 3932  43.609  11.696   8.246
    8AU     LIG 3933  43.950  12.056   8.197
    8AU     LIG 3934  44.127  12.507   8.105
    8AU     LIG 3935  44.134  12.977   8.198
    8AU    AUSL 3936  43.079   8.988   7.933
    8AU    AUSL 3937  43.425   9.000   7.815
    8AU     AUL 3938  43.156   8.945   8.220
    8AU       S 3939  43.237   8.480   8.032
    8AU     LIG 3940  43.128   8.166   8.334
    8AU     LIG 3941  42.858   7.809   8.440
    8AU     LIG 3942  42.789   7.364   8.506
    8AU     LIG 3943  42.753   6.942   8.685
    8AU     LIG 3944  42.773   6.776   9.136
    8AU       S 3945  43.671   8.717   7.955
    8AU     LIG 3946  43.731   8.282   8.074
    8AU     LIG 3947  44.045   8.007   8.304
    8AU     LIG 3948  44.340   7.743   8.576
    8AU     LIG 3949  44.665   7.452   8.787
    8AU     LIG 3950   0.022   7.111   8.781
    8AU    AUSL 3951  42.865   8.925   7.659
    8AU    AUSL 3952  42.798   9.134   8.070
    8AU     AUL 3953  42.779   8.777   7.964
    8AU       S 3954  43.059   8.360   7.833
    8AU     LIG 3955  42.824   7.951   7.943
    8AU     LIG 3956  42.598   7.526   8.058
    8AU     LIG 3957  42.474   7.064   8.213
    8AU     LIG 3958  42.271   6.631   8.360
    8AU     LIG 3959  42.053   6.167   8.383
    8AU       S 3960  42.570   8.931   8.414
    8AU     LIG 3961  42.208   8.655   8.656
    8AU     LIG 3962  41.867   8.304   8.646
    8AU     LIG 3963  41.608   7.959   8.863
    8AU     LIG 3964  41.397   7.728   9.213
    8AU     LIG 3965  41.420   7.593   9.661
    8AU    AUSL 3966  43.184   8.825   7.641
    8AU    AUSL 3967  42.840   8.873   7.312
    8AU     AUL 3968  42.743   8.660   7.595
    8AU       S 3969  42.861   8.403   7.178
    8AU     LIG 3970  42.576   8.082   6.999
    8AU     LIG 3971  42.446   7.637   7.011
    8AU     LIG 3972  42.433   7.184   6.890
    8AU     LIG 3973  42.171   6.772   6.852
    8AU     LIG 3974  42.195   6.363   6.632
    8AU       S 3975  43.310   8.444   7.742
    8AU     LIG 3976  43.340   7.954   7.918
    8AU     LIG 3977  43.118   7.522   8.088
    8AU     LIG 3978  42.996   7.028   8.176
    8AU     LIG 3979  43.003   6.520   8.234
    8AU     LIG 3980  43.195   6.071   8.370
    8AU    AUSL 3981  43.144  10.236   7.002
    8AU    AUSL 3982  43.543  10.149   7.222
    8AU     AUL 3983  43.482  10.380   6.972
    8AU       S 3984  43.162  10.740   6.804
    8AU     LIG 3985  43.396  11.004   6.525
    8AU     LIG 3986  43.410  11.440   6.389
    8AU     LIG 3987  43.379  11.658   5.962
    8AU     LIG 3988  43.243  11.961   5.621
    8AU     LIG 3989  43.090  12.402   5.605
    8AU       S 3990  43.983  10.280   6.866
    8AU     LIG 3991  44.366  10.437   6.659
    8AU     LIG 3992  44.525  10.762   6.347
    8AU     LIG 3993  44.689  11.152   6.107
    8AU     LIG 3994  44.861  11.625   6.078
    8AU     LIG 3995   0.200  11.923   5.881
    8AU    AUSL 3996  42.942  10.381   7.280
    8AU    AUSL 3997  42.828  10.073   6.929
    8AU     AUL 3998  42.851  10.373   6.912
    8AU       S 3999  42.950  10.843   7.076
    8AU     LIG 4000  43.020  11.244   6.798
    8AU     LIG 4001  43.103  11.711   6.726
    8AU     LIG 4002  42.849  12.137   6.691
    8AU     LIG 4003  42.676  12.585   6.667
    8AU     LIG 4004  42.657  13.024   6.512
    8AU       S 4005  42.398  10.421   6.722
    8AU     LIG 4006  42.307  10.670   6.317
    8AU     LIG 4007  42.223  10.930   5.911
    8AU     LIG 4008  42.140  10.979   5.445
    8AU     LIG 4009  42.107  11.254   5.064
    8AU     LIG 4010  41.909  11.572   4.790
    8AU    AUSL 4011  43.039   8.969   7.023
    8AU    AUSL 4012  42.565   9.072   7.216
    8AU     AUL 4013  42.723   8.849   6.952
    8AU       S 4014  42.213   8.916   6.981
    8AU     LIG 4015  41.807   8.677   7.070
    8AU     LIG 4016  41.585   8.276   6.924
    8AU     LIG 4017  41.426   7.932   6.618
    8AU     LIG 4018  41.192   7.681   6.272
    8AU     LIG 4019  40.927   7.283   6.144
    8AU       S 4020  43.015   8.431   6.959
    8AU     LIG 4021  42.952   8.121   6.647
    8AU     LIG 4022  42.724   7.735   6.588
    8AU     LIG 4023  42.735   7.287   6.455
    8AU     LIG 4024  42.798   7.025   6.045
    8AU     LIG 4025  42.880   6.871   5.579
    8AU    AUSL 4026  43.205   8.857   7.311
    8AU    AUSL 4027  43.331   9.115   6.925
    8AU     AUL 4028  43.376   8.771   7.028
    8AU       S 4029  43.135   8.385   7.270
    8AU     LIG 4030  43.049   7.916   7.117
    8AU     LIG 4031  42.930   7.459   6.967
    8AU     LIG 4032  42.927   6.990   6.851
    8AU     LIG 4033  43.107   6.533   6.816
    8AU     LIG 4034  43.401   6.178   6.675
    8AU       S 4035  43.550   8.948   6.570
    8AU     LIG 4036  43.642   8.624   6.255
    8AU     LIG 4037  43.759   8.197   6.126
    8AU     LIG 4038  44.031   7.926   5.861
    8AU     LIG 4039  44.089   7.787   5.404
    8AU     LIG 4040  44.223   7.607   4.984
    9AU     AUC 4041  15.238  21.561   7.506
    9AU     AUC 4042  15.511  21.540   7.347
    9AU     AUC 4043  15.503  21.544   7.675
    9AU     AUC 4044  14.973  21.577   7.340
    9AU     AUC 4045  14.970  21.581   7.670
    9AU     AUC 4046  15.094  21.840   7.499
    9AU     AUC 4047  15.423  21.818   7.505
    9AU     AUC 4048  15.050  21.305   7.506
    9AU     AUC 4049  15.382  21.280   7.507
    9AU     AUC 4050  15.222  21.399   7.774
    9AU     AUC 4051  15.249  21.727   7.773
    9AU     AUC 4052  15.234  21.393   7.242
    9AU     AUC 4053  15.254  21.721   7.235
    9AU     AUC 4054  15.779  21.527   7.195
    9AU     AUC 4055  15.782  21.517   7.511
    9AU     AUC 4056  15.757  21.526   7.830
    9AU     AUC 4057  14.720  21.585   7.173
    9AU     AUC 4058  14.693  21.592   7.510
    9AU     AUC 4059  14.716  21.604   7.834
    9AU     AUC 4060  14.963  22.115   7.494
    9AU     AUC 4061  15.276  22.113   7.485
    9AU     AUC 4062  15.598  22.065   7.499
    9AU     AUC 4063  14.866  21.059   7.506
    9AU     AUC 4064  15.196  21.017   7.495
    9AU     AUC 4065  15.517  21.004   7.516
    9AU     AUC 4066  15.203  21.239   8.030
    9AU     AUC 4067  15.228  21.560   8.059
    9AU     AUC 4068  15.262  21.881   8.032
    9AU     AUC 4069  15.244  21.233   6.989
    9AU     AUC 4070  15.270  21.553   6.963
    9AU     AUC 4071  15.273  21.864   6.967
    9AU     AUC 4072  15.486  21.376   7.955
    9AU     AUC 4073  15.526  21.713   7.953
    9AU     AUC 4074  15.522  21.381   7.076
    9AU     AUC 4075  15.541  21.710   7.075
    9AU     AUC 4076  14.953  21.416   7.949
    9AU     AUC 4077  14.976  21.745   7.946
    9AU     AUC 4078  14.967  21.408   7.072
    9AU     AUC 4079  14.981  21.727   7.050
    9AU     AUC 4080  15.707  21.792   7.352
    9AU     AUC 4081  15.697  21.809   7.683
    9AU     AUC 4082  14.822  21.864   7.326
    9AU     AUC 4083  14.819  21.872   7.672
    9AU     AUC 4084  15.665  21.248   7.351
    9AU     AUC 4085  15.647  21.252   7.678
    9AU     AUC 4086  14.765  21.317   7.346
    9AU     AUC 4087  14.776  21.311   7.683
    9AU     AUC 4088  15.104  22.016   7.768
    9AU     AUC 4089  15.437  21.996   7.773
    9AU     AUC 4090  15.036  21.135   7.780
    9AU     AUC 4091  15.368  21.113   7.778
    9AU     AUC 4092  15.103  22.010   7.217
    9AU     AUC 4093  15.438  21.986   7.224
    9AU     AUC 4094  15.035  21.126   7.233
    9AU     AUC 4095  15.376  21.103   7.232
    9AU    AUSL 4096  15.711  21.490   8.117
    9AU    AUSL 4097  15.507  21.132   8.115
    9AU     AUL 4098  15.601  21.441   8.423
    9AU       S 4099  15.794  20.750   8.266
    9AU     LIG 4100  15.669  20.384   8.486
    9AU     LIG 4101  15.885  20.042   8.704
    9AU     LIG 4102  16.141  19.778   9.002
    9AU     LIG 4103  16.191  19.534   9.401
    9AU     LIG 4104  16.209  19.476   9.876
    9AU       S 4105  15.985  21.150   8.476
    9AU     LIG 4106  16.001  21.180   8.949
    9AU     LIG 4107  16.263  21.188   9.347
    9AU     LIG 4108  16.572  21.027   9.678
    9AU     LIG 4109  16.861  20.994  10.055
    9AU     LIG 4110  17.168  21.236  10.309
    9AU    AUSL 4111  15.309  21.356   8.267
    9AU    AUSL 4112  15.105  21.712   8.278
    9AU     AUL 4113  15.303  21.562   8.585
    9AU       S 4114  15.594  21.013   8.653
    9AU     LIG 4115  15.440  20.995   9.112
    9AU     LIG 4116  15.455  20.860   9.582
    9AU     LIG 4117  15.615  20.613   9.976
    9AU     LIG 4118  15.880  20.518  10.375
    9AU     LIG 4119  16.242  20.539  10.694
    9AU       S 4120  14.830  21.556   8.750
    9AU     LIG 4121  14.678  21.450   9.184
    9AU     LIG 4122  14.619  21.344   9.638
    9AU     LIG 4123  14.473  21.378  10.081
    9AU     LIG 4124  14.486  21.736  10.418
    9AU     LIG 4125  14.513  22.113  10.729
    9AU    AUSL 4126  15.452  21.745   8.249
    9AU    AUSL 4127  15.828  21.813   7.999
    9AU     AUL 4128  15.835  21.707   8.370
    9AU       S 4129  15.468  22.052   8.608
    9AU     LIG 4130  15.642  22.178   9.041
    9AU     LIG 4131  15.803  22.240   9.497
    9AU     LIG 4132  15.818  22.364   9.969
    9AU     LIG 4133  15.847  22.417  10.449
    9AU     LIG 4134  16.069  22.429  10.876
    9AU       S 4135  16.086  22.133   8.277
    9AU     LIG 4136  16.466  22.079   8.505
    9AU     LIG 4137  16.796  22.339   8.669
    9AU     LIG 4138  16.963  22.571   9.029
    9AU     LIG 4139  17.090  22.791   9.420
    9AU     LIG 4140  17.430  22.800   9.748
    9AU    AUSL 4141  15.724  21.637   6.880
    9AU    AUSL 4142  15.578  21.958   6.935
    9AU     AUL 4143  15.511  21.994   6.623
    9AU       S 4144  15.916  21.662   6.458
    9AU     LIG 4145  16.211  21.507   6.131
    9AU     LIG 4146  16.257  21.252   5.749
    9AU     LIG 4147  16.326  21.126   5.299
    9AU     LIG 4148  16.599  21.088   4.913
    9AU     LIG 4149  16.987  21.218   4.663
    9AU       S 4150  16.010  22.105   6.661
    9AU     LIG 4151  16.176  22.360   6.270
    9AU     LIG 4152  16.391  22.612   5.895
    9AU     LIG 4153  16.615  22.851   5.523
    9AU     LIG 4154  16.785  23.125   5.150
    9AU     LIG 4155  16.909  23.562   5.000
    9AU    AUSL 4156  15.535  21.361   6.802
    9AU    AUSL 4157  15.774  21.234   7.042
    9AU     AUL 4158  15.993  21.420   6.901
    9AU       S 4159  15.977  20.968   6.660
    9AU     LIG 4160  16.242  20.682   6.359
    9AU     LIG 4161  16.368  20.242   6.204
    9AU     LIG 4162  16.645  19.940   5.960
    9AU     LIG 4163  17.008  19.918   5.650
    9AU     LIG 4164  17.299  20.108   5.308
    9AU       S 4165  15.813  21.367   6.405
    9AU     LIG 4166  15.937  21.028   6.116
    9AU     LIG 4167  15.887  20.908   5.653
    9AU     LIG 4168  15.882  20.895   5.165
    9AU     LIG 4169  15.910  20.917   4.679
    9AU     LIG 4170  16.053  20.806   4.230
    9AU    AUSL 4171  15.415  21.672   6.732
    9AU    AUSL 4172  15.135  21.394   6.784
    9AU     AUL 4173  15.327  21.303   6.526
    9AU       S 4174  14.893  21.456   6.294
    9AU     LIG 4175  14.905  21.172   5.928
    9AU     LIG 4176  14.743  20.915   5.581
    9AU     LIG 4177  14.502  20.941   5.189
    9AU     LIG 4178  14.278  20.751   4.820
    9AU     LIG 4179  14.278  20.734   4.343
    9AU       S 4180  15.667  21.625   6.300
    9AU     LIG 4181  15.767  21.440   5.866
    9AU     LIG 4182  15.876  21.368   5.407
    9AU     LIG 4183  15.994  21.363   4.944
    9AU     LIG 4184  15.951  21.548   4.499
    9AU     LIG 4185  16.093  21.795   4.108
    9AU    AUSL 4186  14.774  21.660   8.150
    9AU    AUSL 4187  14.979  21.983   8.075
    9AU     AUL 4188  14.891  21.948   8.424
    9AU       S 4189  14.598  21.546   8.630
    9AU     LIG 4190  14.398  21.168   8.852
    9AU     LIG 4191  14.348  21.048   9.310
    9AU     LIG 4192  14.136  21.141   9.729
    9AU     LIG 4193  13.797  21.176  10.070
    9AU     LIG 4194  13.415  21.253  10.344
    9AU       S 4195  14.551  22.307   8.255
    9AU     LIG 4196  14.552  22.503   8.690
    9AU     LIG 4197  14.467  22.735   9.081
    9AU     LIG 4198  14.154  22.951   9.350
    9AU     LIG 4199  13.991  23.032   9.799
    9AU     LIG 4200  14.091  23.211  10.242
    9AU    AUSL 4201  14.959  21.386   8.231
    9AU    AUSL 4202  14.695  21.310   7.979
    9AU     AUL 4203  14.498  21.480   8.151
    9AU       S 4204  14.496  21.013   8.366
    9AU     LIG 4205  14.062  20.891   8.460
    9AU     LIG 4206  13.785  20.521   8.507
    9AU     LIG 4207  13.553  20.133   8.615
    9AU     LIG 4208  13.328  19.924   8.962
    9AU     LIG 4209  12.971  20.014   9.260
    9AU       S 4210  14.819  21.318   8.602
    9AU     LIG 4211  14.890  21.035   8.968
    9AU     LIG 4212  14.846  20.921   9.429
    9AU     LIG 4213  14.569  20.857   9.816
    9AU     LIG 4214  14.238  20.882  10.160
    9AU     LIG 4215  14.047  20.720  10.551
    9AU    AUSL 4216  14.813  21.521   6.838
    9AU    AUSL 4217  14.919  21.154   6.954
    9AU     AUL 4218  15.008  21.118   6.650
    9AU       S 4219  14.670  21.458   6.405
    9AU     LIG 4220  14.420  21.283   6.047
    9AU     LIG 4221  14.259  21.087   5.643
    9AU     LIG 4222  13.993  20.940   5.278
    9AU     LIG 4223  13.617  21.046   5.028
    9AU     LIG 4224  13.372  21.329   4.742
    9AU       S 4225  14.512  21.014   6.614
    9AU     LIG 4226  14.264  20.589   6.438
    9AU     LIG 4227  14.026  20.172   6.342
    9AU     LIG 4228  13.782  19.868   6.051
    9AU     LIG 4229  13.698  19.699   5.612
    9AU     LIG 4230  13.763  19.598   5.146
    9AU    AUSL 4231  15.086  21.745   6.741
    9AU    AUSL 4232  14.677  21.857   7.015
    9AU     AUL 4233  14.764  21.874   6.674
    9AU       S 4234  14.328  22.119   6.756
    9AU     LIG 4235  14.117  22.356   6.394
    9AU     LIG 4236  14.006  22.514   5.946
    9AU     LIG 4237  13.791  22.544   5.517
    9AU     LIG 4238  13.361  22.541   5.323
    9AU     LIG 4239  12.996  22.799   5.164
    9AU       S 4240  15.016  21.685   6.280
    9AU     LIG 4241  14.748  21.660   5.864
    9AU     LIG 4242  14.635  21.410   5.478
    9AU     LIG 4243  14.604  21.427   4.997
    9AU     LIG 4244  14.591  21.680   4.578
    9AU     LIG 4245  14.495  22.018   4.244
    9AU    AUSL 4246  15.910  21.960   7.485
    9AU    AUSL 4247  15.889  21.828   7.126
    9AU     AUL 4248  15.989  22.258   7.354
    9AU       S 4249  16.177  21.942   6.866
    9AU     LIG 4250  16.487  22.010   6.512
    9AU     LIG 4251  16.696  22.328   6.222
    9AU     LIG 4252  16.915  22.602   5.897
    9AU     LIG 4253  17.289  22.671   5.596
    9AU     LIG 4254  17.673  22.587   5.320
    9AU       S 4255  16.421  21.999   7.303
    9AU     LIG 4256  16.908  22.132   7.257
    9AU     LIG 4257  17.379  22.244   7.401
    9AU     LIG 4258  17.830  22.388   7.537
    9AU     LIG 4259  17.980  22.826   7.669
    9AU     LIG 4260  17.940  23.232   7.426
    9AU    AUSL 4261  16.032  21.628   7.375
    9AU    AUSL 4262  15.963  21.356   7.660
    9AU     AUL 4263  16.273  21.519   7.742
    9AU       S 4264  16.410  21.691   7.249
    9AU     LIG 4265  16.870  21.612   7.220
    9AU     LIG 4266  17.330  21.749   7.262
    9AU     LIG 4267  17.793  21.913   7.299
    9AU     LIG 4268  18.170  22.059   7.022
    9AU     LIG 4269  18.586  22.195   6.824
    9AU       S 4270  16.412  21.042   7.569
    9AU     LIG 4271  16.832  20.822   7.659
    9AU     LIG 4272  17.260  20.615   7.717
    9AU     LIG 4273  17.710  20.465   7.751
    9AU     LIG 4274  18.180  20.505   7.784
    9AU     LIG 4275  18.546  20.345   8.047
    9AU    AUSL 4276  15.975  21.700   7.707
    9AU    AUSL 4277  15.754  22.107   7.777
    9AU     AUL 4278  16.108  22.004   7.786
    9AU       S 4279  16.055  22.379   8.132
    9AU     LIG 4280  16.356  22.580   8.458
    9AU     LIG 4281  16.643  22.850   8.729
    9AU     LIG 4282  16.951  23.166   8.873
    9AU     LIG 4283  16.992  23.651   8.846
    9AU     LIG 4284  17.241  24.005   9.075
    9AU       S 4285  16.518  21.874   7.502
    9AU     LIG 4286  16.998  21.846   7.668
    9AU     LIG 4287  17.492  21.866   7.739
    9AU     LIG 4288  17.962  21.959   7.808
    9AU     LIG 4289  18.377  22.219   7.854
    9AU     LIG 4290  18.730  22.394   8.158
    9AU    AUSL 4291  14.679  22.097   7.526
    9AU    AUSL 4292  14.656  21.905   7.933
    9AU     AUL 4293  14.370  22.116   7.711
    9AU       S 4294  14.384  22.058   8.236
    9AU     LIG 4295  14.103  22.310   8.542
    9AU     LIG 4296  14.014  22.507   8.980
    9AU     LIG 4297  13.793  22.591   9.410
    9AU     LIG 4298  13.507  22.700   9.783
    9AU     LIG 4299  13.125  22.836  10.040
    9AU       S 4300  14.571  22.564   7.519
    9AU     LIG 4301  14.118  22.754   7.386
    9AU     LIG 4302  13.647  22.971   7.417
    9AU     LIG 4303  13.178  23.198   7.442
    9AU     LIG 4304  12.694  23.337   7.530
    9AU     LIG 4305  12.295  23.599   7.690
    9AU    AUSL 4306  14.540  21.767   7.307
    9AU    AUSL 4307  14.803  22.159   7.206
    9AU     AUL 4308  14.432  22.083   7.261
    9AU       S 4309  14.173  21.678   6.938
    9AU     LIG 4310  13.818  22.017   6.813
    9AU     LIG 4311  13.356  22.220   6.791
    9AU     LIG 4312  12.864  22.348   6.785
    9AU     LIG 4313  12.407  22.546   6.789
    9AU     LIG 4314  12.047  22.818   6.632
    9AU       S 4315  14.559  22.527   7.020
    9AU     LIG 4316  14.244  22.741   6.730
    9AU     LIG 4317  14.151  22.882   6.287
    9AU     LIG 4318  13.967  23.208   5.994
    9AU     LIG 4319  13.695  23.619   5.985
    9AU     LIG 4320  13.405  23.995   5.901
    9AU    AUSL 4321  14.497  21.768   7.669
    9AU    AUSL 4322  14.449  21.447   7.361
    9AU     AUL 4323  14.219  21.797   7.438
    9AU       S 4324  13.965  21.344   7.456
    9AU     LIG 4325  13.489  21.195   7.448
    9AU     LIG 4326  13.022  21.154   7.572
    9AU     LIG 4327  12.572  21.072   7.467
    9AU     LIG 4328  12.316  20.725   7.253
    9AU     LIG 4329  12.049  20.611   6.901
    9AU       S 4330  14.076  21.760   7.950
    9AU     LIG 4331  13.649  21.971   8.071
    9AU     LIG 4332  13.166  22.061   8.083
    9AU     LIG 4333  12.765  22.312   8.213
    9AU     LIG 4334  12.286  22.430   8.241
    9AU     LIG 4335  11.818  22.557   8.298
    9AU    AUSL 4336  15.843  21.041   7.573
    9AU    AUSL 4337  15.782  21.215   7.925
    9AU     AUL 4338  16.105  21.237   7.926
    9AU       S 4339  16.235  20.837   7.620
    9AU     LIG 4340  16.490  20.468   7.524
    9AU     LIG 4341  16.904  20.259   7.583
    9AU     LIG 4342  17.363  20.134   7.530
    9AU     LIG 4343  17.809  19.964   7.601
    9AU     LIG 4344  18.143  19.718   7.873
    9AU       S 4345  16.009  20.784   8.120
    9AU     LIG 4346  16.177  20.420   8.395
    9AU     LIG 4347  16.400  20.096   8.661
    9AU     LIG 4348  16.648  19.948   9.033
    9AU     LIG 4349  17.001  20.050   9.347
    9AU     LIG 4350  17.355  20.197   9.637
    9AU    AUSL 4351  15.969  21.295   7.317
    9AU    AUSL 4352  15.655  20.962   7.244
    9AU     AUL 4353  15.964  20.942   7.210
    9AU       S 4354  16.397  21.160   7.346
    9AU     LIG 4355  16.659  20.816   7.172
    9AU     LIG 4356  17.065  20.596   7.232
    9AU     LIG 4357  17.529  20.545   7.268
    9AU     LIG 4358  17.977  20.419   7.310
    9AU     LIG 4359  18.434  20.486   7.270
    9AU       S 4360  15.928  20.728   6.756
    9AU     LIG 4361  16.036  20.281   6.621
    9AU     LIG 4362  16.164  19.839   6.469
    9AU     LIG 4363  16.441  19.518   6.259
    9AU     LIG 4364  16.635  19.068   6.209
    9AU     LIG 4365  17.049  18.808   6.124
    9AU    AUSL 4366  14.563  21.134   7.529
    9AU    AUSL 4367  14.624  21.339   7.068
    9AU     AUL 4368  14.371  21.109   7.249
    9AU       S 4369  14.358  21.220   6.742
    9AU     LIG 4370  13.959  20.993   6.581
    9AU     LIG 4371  13.737  20.584   6.501
    9AU     LIG 4372  13.507  20.211   6.337
    9AU     LIG 4373  13.210  19.958   6.075
    9AU     LIG 4374  12.736  19.903   5.973
    9AU       S 4375  13.993  21.093   7.578
    9AU     LIG 4376  13.683  20.731   7.522
    9AU     LIG 4377  13.199  20.665   7.500
    9AU     LIG 4378  12.712  20.583   7.555
    9AU     LIG 4379  12.258  20.465   7.707
    9AU     LIG 4380  12.153  20.046   7.931
    9AU    AUSL 4381  14.483  21.431   7.719
    9AU    AUSL 4382  14.735  20.996   7.808
    9AU     AUL 4383  14.408  21.114   7.863
    9AU       S 4384  14.496  20.767   8.212
    9AU     LIG 4385  14.149  20.455   8.152
    9AU     LIG 4386  13.831  20.101   8.175
    9AU     LIG 4387  13.675  19.682   8.341
    9AU     LIG 4388  13.414  19.306   8.468
    9AU     LIG 4389  13.042  19.015   8.491
    9AU       S 4390  14.000  21.355   7.676
    9AU     LIG 4391  13.585  21.535   7.808
    9AU     LIG 4392  13.109  21.621   7.786
    9AU     LIG 4393  12.629  21.523   7.776
    9AU     LIG 4394  12.273  21.231   7.882
    9AU     LIG 4395  11.970  20.878   7.894
    9AU    AUSL 4396  15.253  22.200   7.950
    9AU    AUSL 4397  14.863  22.186   7.822
    9AU     AUL 4398  15.058  22.245   8.235
    9AU       S 4399  14.633  22.492   8.017
    9AU     LIG 4400  14.309  22.745   8.305
    9AU     LIG 4401  14.151  22.941   8.721
    9AU     LIG 4402  13.936  23.324   8.949
    9AU     LIG 4403  13.671  23.760   8.969
    9AU     LIG 4404  13.264  24.032   9.018
    9AU       S 4405  15.184  22.692   8.067
    9AU     LIG 4406  15.439  22.909   8.408
    9AU     LIG 4407  15.605  23.320   8.567
    9AU     LIG 4408  15.583  23.646   8.916
    9AU     LIG 4409  15.545  23.882   9.338
    9AU     LIG 4410  15.370  24.235   9.598
    9AU    AUSL 4411  15.113  22.337   7.635
    9AU    AUSL 4412  15.461  22.308   7.302
    9AU     AUL 4413  15.371  22.580   7.481
    9AU       S 4414  15.026  22.745   7.830
    9AU     LIG 4415  15.098  23.186   8.105
    9AU     LIG 4416  15.297  23.593   8.238
    9AU     LIG 4417  15.183  24.063   8.275
    9AU     LIG 4418  14.930  24.483   8.280
    9AU     LIG 4419  14.839  24.923   8.465
    9AU       S 4420  15.444  22.787   7.038
    9AU     LIG 4421  15.678  23.205   6.991
    9AU     LIG 4422  16.009  23.475   6.802
    9AU     LIG 4423  16.183  23.893   6.691
    9AU     LIG 4424  16.398  24.279   6.507
    9AU     LIG 4425  16.532  24.732   6.595
    9AU    AUSL 4426  15.467  22.287   7.662
    9AU    AUSL 4427  15.542  22.025   8.065
    9AU     AUL 4428  15.581  22.370   7.961
    9AU       S 4429  15.846  22.253   8.372
    9AU     LIG 4430  16.071  22.287   8.773
    9AU     LIG 4431  16.423  22.471   9.000
    9AU     LIG 4432  16.584  22.799   9.293
    9AU     LIG 4433  16.641  22.893   9.760
    9AU     LIG 4434  16.556  23.186  10.131
    9AU       S 4435  15.376  22.825   7.906
    9AU     LIG 4436  15.641  23.219   8.046
    9AU     LIG 4437  16.034  23.495   8.168
    9AU     LIG 4438  16.382  23.839   8.121
    9AU     LIG 4439  16.592  24.250   8.242
    9AU     LIG 4440  16.484  24.705   8.328
    9AU    AUSL 4441  15.236  20.935   7.941
    9AU    AUSL 4442  15.583  20.942   7.825
    9AU     AUL 4443  15.311  20.884   8.227
    9AU       S 4444  15.391  20.421   8.030
    9AU     LIG 4445  15.314  20.044   8.269
    9AU     LIG 4446  14.975  19.745   8.363
    9AU     LIG 4447  14.906  19.301   8.446
    9AU     LIG 4448  15.196  18.993   8.672
    9AU     LIG 4449  15.382  18.932   9.102
    9AU       S 4450  15.826  20.659   7.969
    9AU     LIG 4451  15.863  20.211   8.045
    9AU     LIG 4452  16.113  19.891   8.272
    9AU     LIG 4453  16.316  19.573   8.562
    9AU     LIG 4454  16.578  19.203   8.696
    9AU     LIG 4455  16.854  18.837   8.810
    9AU    AUSL 4456  15.020  20.871   7.670
    9AU    AUSL 4457  14.956  21.080   8.082
    9AU     AUL 4458  14.942  20.720   7.979
    9AU       S 4459  15.220  20.308   7.827
    9AU     LIG 4460  14.983  19.905   7.863
    9AU     LIG 4461  14.752  19.487   7.968
    9AU     LIG 4462  14.386  19.184   8.098
    9AU     LIG 4463  14.095  18.786   8.114
    9AU     LIG 4464  14.119  18.314   8.207
    9AU       S 4465  14.716  20.868   8.426
    9AU     LIG 4466  14.377  20.518   8.623
    9AU     LIG 4467  14.084  20.113   8.626
    9AU     LIG 4468  13.822  19.752   8.833
    9AU     LIG 4469  13.643  19.599   9.245
    9AU     LIG 4470  13.710  19.681   9.715
    9AU    AUSL 4471  15.340  20.774   7.647
    9AU    AUSL 4472  14.989  20.819   7.323
    9AU     AUL 4473  14.894  20.609   7.607
    9AU       S 4474  14.999  20.341   7.189
    9AU     LIG 4475  14.811  19.892   7.141
    9AU     LIG 4476  14.674  19.430   7.089
    9AU     LIG 4477  14.436  19.031   6.949
    9AU     LIG 4478  14.173  18.622   7.017
    9AU     LIG 4479  14.028  18.202   6.874
    9AU       S 4480  15.468  20.399   7.736
    9AU     LIG 4481  15.508  19.906   7.812
    9AU     LIG 4482  15.300  19.522   8.017
    9AU     LIG 4483  15.265  19.080   8.163
    9AU     LIG 4484  15.391  18.642   8.314
    9AU     LIG 4485  15.703  18.281   8.388
    9AU    AUSL 4486  15.304  22.174   7.003
    9AU    AUSL 4487  15.713  22.095   7.226
    9AU     AUL 4488  15.641  22.318   6.969
    9AU       S 4489  15.318  22.678   6.802
    9AU     LIG 4490  15.577  22.975   6.546
    9AU     LIG 4491  15.713  23.390   6.369
    9AU     LIG 4492  15.809  23.590   5.933
    9AU     LIG 4493  15.660  23.860   5.562
    9AU     LIG 4494  15.363  24.207   5.429
    9AU       S 4495  16.148  22.228   6.877
    9AU     LIG 4496  16.467  22.512   6.662
    9AU     LIG 4497  16.606  22.842   6.327
    9AU     LIG 4498  16.763  23.304   6.215
    9AU     LIG 4499  17.118  23.640   6.147
    9AU     LIG 4500  17.232  24.138   6.137
    9AU    AUSL 4501  15.103  22.321   7.281
    9AU    AUSL 4502  14.988  22.006   6.943
    9AU     AUL 4503  15.008  22.307   6.906
    9AU       S 4504  15.105  22.774   7.081
    9AU     LIG 4505  15.187  23.180   6.824
    9AU     LIG 4506  15.360  23.611   6.738
    9AU     LIG 4507  15.153  24.063   6.734
    9AU     LIG 4508  14.844  24.454   6.721
    9AU     LIG 4509  14.754  24.902   6.574
    9AU       S 4510  14.538  22.331   6.746
    9AU     LIG 4511  14.583  22.581   6.361
    9AU     LIG 4512  14.483  22.702   5.923
    9AU     LIG 4513  14.216  22.850   5.568
    9AU     LIG 4514  14.179  23.153   5.208
    9AU     LIG 4515  14.183  23.548   4.944
    9AU    AUSL 4516  15.182  20.916   7.029
    9AU    AUSL 4517  14.723  21.024   7.222
    9AU     AUL 4518  14.855  20.796   6.969
    9AU       S 4519  14.388  20.893   6.809
    9AU     LIG 4520  14.049  20.584   6.918
    9AU     LIG 4521  13.819  20.179   6.817
    9AU     LIG 4522  13.704  19.794   6.564
    9AU     LIG 4523  13.444  19.533   6.270
    9AU     LIG 4524  13.284  19.103   6.167
    9AU       S 4525  15.153  20.383   6.966
    9AU     LIG 4526  15.042  20.051   6.704
    9AU     LIG 4527  14.972  19.609   6.702
    9AU     LIG 4528  15.148  19.191   6.600
    9AU     LIG 4529  15.391  18.962   6.251
    9AU     LIG 4530  15.407  18.886   5.773
    9AU    AUSL 4531  15.352  20.804   7.317
    9AU    AUSL 4532  15.480  21.058   6.934
    9AU     AUL 4533  15.518  20.716   7.033
    9AU       S 4534  15.275  20.340   7.278
    9AU     LIG 4535  15.317  19.903   7.134
    9AU     LIG 4536  15.221  19.451   7.124
    9AU     LIG 4537  15.471  19.083   6.995
    9AU     LIG 4538  15.651  18.718   6.806
    9AU     LIG 4539  15.834  18.311   6.666
    9AU       S 4540  15.702  20.888   6.580
    9AU     LIG 4541  15.752  20.554   6.275
    9AU     LIG 4542  15.868  20.124   6.146
    9AU     LIG 4543  16.146  19.813   5.931
    9AU     LIG 4544  16.401  19.717   5.535
    9AU     LIG 4545  16.528  19.456   5.151
   10AU     AUC 4546  14.972  37.927   7.506
   10AU     AUC 4547  15.244  37.904   7.349
   10AU     AUC 4548  15.235  37.907   7.677
   10AU     AUC 4549  14.708  37.945   7.337
   10AU     AUC 4550  14.705  37.952   7.667
   10AU     AUC 4551  14.830  38.205   7.495
   10AU     AUC 4552  15.159  38.179   7.506
   10AU     AUC 4553  14.783  37.672   7.505
   10AU     AUC 4554  15.114  37.645   7.508
   10AU     AUC 4555  14.954  37.767   7.774
   10AU     AUC 4556  14.983  38.093   7.774
   10AU     AUC 4557  14.968  37.759   7.241
   10AU     AUC 4558  14.991  38.087   7.233
   10AU     AUC 4559  15.511  37.891   7.199
   10AU     AUC 4560  15.512  37.879   7.514
   10AU     AUC 4561  15.488  37.887   7.835
   10AU     AUC 4562  14.457  37.954   7.169
   10AU     AUC 4563  14.429  37.966   7.506
   10AU     AUC 4564  14.451  37.982   7.828
   10AU     AUC 4565  14.707  38.483   7.485
   10AU     AUC 4566  15.014  38.466   7.481
   10AU     AUC 4567  15.338  38.422   7.504
   10AU     AUC 4568  14.599  37.428   7.507
   10AU     AUC 4569  14.927  37.382   7.496
   10AU     AUC 4570  15.247  37.367   7.518
   10AU     AUC 4571  14.932  37.610   8.030
   10AU     AUC 4572  14.958  37.930   8.060
   10AU     AUC 4573  14.995  38.251   8.032
   10AU     AUC 4574  14.979  37.600   6.989
   10AU     AUC 4575  15.008  37.920   6.962
   10AU     AUC 4576  15.013  38.232   6.965
   10AU     AUC 4577  15.216  37.742   7.957
   10AU     AUC 4578  15.258  38.077   7.958
   10AU     AUC 4579  15.257  37.747   7.077
   10AU     AUC 4580  15.278  38.078   7.077
   10AU     AUC 4581  14.685  37.791   7.948
   10AU     AUC 4582  14.710  38.121   7.942
   10AU     AUC 4583  14.703  37.775   7.070
   10AU     AUC 4584  14.719  38.094   7.044
   10AU     AUC 4585  15.442  38.158   7.356
   10AU     AUC 4586  15.431  38.170   7.690
   10AU     AUC 4587  14.560  38.234   7.319
   10AU     AUC 4588  14.560  38.247   7.664
   10AU     AUC 4589  15.395  37.611   7.353
   10AU     AUC 4590  15.377  37.615   7.680
   10AU     AUC 4591  14.500  37.687   7.344
   10AU     AUC 4592  14.511  37.685   7.681
   10AU     AUC 4593  14.847  38.386   7.761
   10AU     AUC 4594  15.175  38.350   7.779
   10AU     AUC 4595  14.768  37.505   7.781
   10AU     AUC 4596  15.098  37.479   7.780
   10AU     AUC 4597  14.840  38.371   7.210
   10AU     AUC 4598  15.177  38.352   7.228
   10AU     AUC 4599  14.767  37.494   7.233
   10AU     AUC 4600  15.107  37.468   7.232
   10AU    AUSL 4601  15.439  37.852   8.124
   10AU    AUSL 4602  15.236  37.499   8.117
   10AU     AUL 4603  15.322  37.804   8.433
   10AU       S 4604  15.519  37.114   8.268
   10AU     LIG 4605  15.422  36.753   8.516
   10AU     LIG 4606  15.675  36.435   8.746
   10AU     LIG 4607  15.943  36.262   9.096
   10AU     LIG 4608  16.033  36.123   9.545
   10AU     LIG 4609  16.231  35.884   9.906
   10AU       S 4610  15.724  37.526   8.469
   10AU     LIG 4611  16.158  37.693   8.649
   10AU     LIG 4612  16.397  37.765   9.056
   10AU     LIG 4613  16.477  37.716   9.515
   10AU     LIG 4614  16.531  37.587   9.967
   10AU     LIG 4615  16.714  37.583  10.398
   10AU    AUSL 4616  15.034  37.722   8.267
   10AU    AUSL 4617  14.833  38.088   8.276
   10AU     AUL 4618  15.016  37.923   8.584
   10AU       S 4619  15.341  37.373   8.649
   10AU     LIG 4620  15.240  37.277   9.093
   10AU     LIG 4621  15.367  37.125   9.522
   10AU     LIG 4622  15.554  37.022   9.941
   10AU     LIG 4623  15.673  37.134  10.386
   10AU     LIG 4624  15.620  37.291  10.837
   10AU       S 4625  14.539  37.954   8.743
   10AU     LIG 4626  14.348  37.836   9.163
   10AU     LIG 4627  14.245  37.731   9.616
   10AU     LIG 4628  14.089  37.780  10.059
   10AU     LIG 4629  14.070  38.127  10.404
   10AU     LIG 4630  14.053  38.452  10.766
   10AU    AUSL 4631  15.181  38.111   8.251
   10AU    AUSL 4632  15.560  38.171   8.007
   10AU     AUL 4633  15.559  38.066   8.380
   10AU       S 4634  15.199  38.409   8.615
   10AU     LIG 4635  15.392  38.598   9.012
   10AU     LIG 4636  15.676  38.629   9.406
   10AU     LIG 4637  15.742  38.597   9.900
   10AU     LIG 4638  15.747  38.679  10.385
   10AU     LIG 4639  15.752  38.774  10.861
   10AU       S 4640  15.830  38.474   8.283
   10AU     LIG 4641  16.200  38.291   8.496
   10AU     LIG 4642  16.535  38.453   8.758
   10AU     LIG 4643  16.728  38.713   9.095
   10AU     LIG 4644  16.927  38.991   9.415
   10AU     LIG 4645  17.321  38.963   9.693
   10AU    AUSL 4646  15.462  38.007   6.887
   10AU    AUSL 4647  15.321  38.334   6.942
   10AU     AUL 4648  15.253  38.366   6.629
   10AU       S 4649  15.666  38.035   6.469
   10AU     LIG 4650  15.992  37.869   6.184
   10AU     LIG 4651  16.038  37.640   5.783
   10AU     LIG 4652  16.063  37.483   5.344
   10AU     LIG 4653  16.310  37.453   4.954
   10AU     LIG 4654  16.735  37.557   4.769
   10AU       S 4655  15.752  38.470   6.686
   10AU     LIG 4656  15.940  38.579   6.267
   10AU     LIG 4657  16.166  38.843   5.927
   10AU     LIG 4658  16.420  39.180   5.695
   10AU     LIG 4659  16.438  39.502   5.344
   10AU     LIG 4660  16.443  39.700   4.900
   10AU    AUSL 4661  15.273  37.731   6.804
   10AU    AUSL 4662  15.506  37.596   7.042
   10AU     AUL 4663  15.727  37.786   6.909
   10AU       S 4664  15.710  37.337   6.667
   10AU     LIG 4665  16.009  37.082   6.385
   10AU     LIG 4666  16.089  36.654   6.191
   10AU     LIG 4667  16.323  36.328   5.943
   10AU     LIG 4668  16.726  36.351   5.678
   10AU     LIG 4669  17.124  36.443   5.431
   10AU       S 4670  15.558  37.740   6.412
   10AU     LIG 4671  15.692  37.408   6.124
   10AU     LIG 4672  15.651  37.320   5.658
   10AU     LIG 4673  15.598  37.330   5.176
   10AU     LIG 4674  15.677  37.335   4.701
   10AU     LIG 4675  15.671  37.241   4.223
   10AU    AUSL 4676  15.156  38.043   6.733
   10AU    AUSL 4677  14.873  37.760   6.783
   10AU     AUL 4678  15.069  37.678   6.523
   10AU       S 4679  14.632  37.821   6.288
   10AU     LIG 4680  14.618  37.575   5.892
   10AU     LIG 4681  14.413  37.328   5.550
   10AU     LIG 4682  14.109  37.148   5.232
   10AU     LIG 4683  14.036  36.891   4.830
   10AU     LIG 4684  13.969  36.792   4.366
   10AU       S 4685  15.419  38.000   6.310
   10AU     LIG 4686  15.561  37.844   5.885
   10AU     LIG 4687  15.653  37.790   5.425
   10AU     LIG 4688  15.682  37.803   4.947
   10AU     LIG 4689  15.678  38.073   4.542
   10AU     LIG 4690  15.848  38.439   4.260
   10AU    AUSL 4691  14.504  38.042   8.142
   10AU    AUSL 4692  14.715  38.362   8.069
   10AU     AUL 4693  14.629  38.337   8.414
   10AU       S 4694  14.306  37.968   8.614
   10AU     LIG 4695  14.047  37.616   8.810
   10AU     LIG 4696  13.929  37.510   9.262
   10AU     LIG 4697  13.751  37.570   9.709
   10AU     LIG 4698  13.540  37.633  10.132
   10AU     LIG 4699  13.183  37.773  10.425
   10AU       S 4700  14.306  38.712   8.230
   10AU     LIG 4701  14.185  38.938   8.637
   10AU     LIG 4702  14.075  39.169   9.043
   10AU     LIG 4703  13.965  39.254   9.501
   10AU     LIG 4704  13.820  39.427   9.920
   10AU     LIG 4705  13.639  39.806  10.131
   10AU    AUSL 4706  14.685  37.765   8.231
   10AU    AUSL 4707  14.430  37.688   7.975
   10AU     AUL 4708  14.227  37.853   8.140
   10AU       S 4709  14.227  37.393   8.368
   10AU     LIG 4710  13.785  37.329   8.443
   10AU     LIG 4711  13.487  36.988   8.505
   10AU     LIG 4712  13.241  36.615   8.624
   10AU     LIG 4713  12.995  36.369   8.935
   10AU     LIG 4714  12.833  36.331   9.386
   10AU       S 4715  14.518  37.717   8.603
   10AU     LIG 4716  14.490  37.394   8.938
   10AU     LIG 4717  14.377  37.286   9.386
   10AU     LIG 4718  14.144  37.249   9.812
   10AU     LIG 4719  14.026  37.062  10.240
   10AU     LIG 4720  14.106  36.869  10.674
   10AU    AUSL 4721  14.551  37.887   6.834
   10AU    AUSL 4722  14.653  37.521   6.952
   10AU     AUL 4723  14.746  37.486   6.646
   10AU       S 4724  14.407  37.822   6.398
   10AU     LIG 4725  14.138  37.689   6.024
   10AU     LIG 4726  13.945  37.531   5.607
   10AU     LIG 4727  13.624  37.357   5.291
   10AU     LIG 4728  13.251  37.423   4.999
   10AU     LIG 4729  13.092  37.510   4.566
   10AU       S 4730  14.248  37.383   6.616
   10AU     LIG 4731  13.992  36.960   6.455
   10AU     LIG 4732  13.756  36.567   6.344
   10AU     LIG 4733  13.544  36.309   6.011
   10AU     LIG 4734  13.399  36.176   5.583
   10AU     LIG 4735  13.353  36.038   5.128
   10AU    AUSL 4736  14.826  38.109   6.737
   10AU    AUSL 4737  14.416  38.224   7.008
   10AU     AUL 4738  14.501  38.237   6.669
   10AU       S 4739  14.068  38.488   6.749
   10AU     LIG 4740  13.820  38.765   6.452
   10AU     LIG 4741  13.728  38.930   6.000
   10AU     LIG 4742  13.463  38.925   5.582
   10AU     LIG 4743  13.114  39.052   5.286
   10AU     LIG 4744  12.872  39.353   5.019
   10AU       S 4745  14.756  38.052   6.277
   10AU     LIG 4746  14.471  38.072   5.885
   10AU     LIG 4747  14.359  37.845   5.492
   10AU     LIG 4748  14.394  37.880   5.009
   10AU     LIG 4749  14.420  38.066   4.556
   10AU     LIG 4750  14.238  38.229   4.138
   10AU    AUSL 4751  15.643  38.321   7.492
   10AU    AUSL 4752  15.622  38.196   7.138
   10AU     AUL 4753  15.739  38.613   7.374
   10AU       S 4754  15.919  38.308   6.885
   10AU     LIG 4755  16.204  38.216   6.530
   10AU     LIG 4756  16.451  38.479   6.209
   10AU     LIG 4757  16.677  38.773   5.895
   10AU     LIG 4758  16.950  39.025   5.611
   10AU     LIG 4759  17.394  38.986   5.422
   10AU       S 4760  16.170  38.347   7.322
   10AU     LIG 4761  16.705  38.289   7.407
   10AU     LIG 4762  17.148  38.371   7.530
   10AU     LIG 4763  17.575  38.582   7.574
   10AU     LIG 4764  17.883  38.940   7.454
   10AU     LIG 4765  17.956  39.420   7.413
   10AU    AUSL 4766  15.763  37.987   7.382
   10AU    AUSL 4767  15.694  37.716   7.661
   10AU     AUL 4768  15.995  37.879   7.762
   10AU       S 4769  16.146  38.043   7.251
   10AU     LIG 4770  16.512  38.200   6.960
   10AU     LIG 4771  17.037  38.179   7.029
   10AU     LIG 4772  17.508  38.304   7.141
   10AU     LIG 4773  17.961  38.368   7.300
   10AU     LIG 4774  18.270  38.710   7.166
   10AU       S 4775  16.149  37.433   7.545
   10AU     LIG 4776  16.562  37.326   7.712
   10AU     LIG 4777  16.915  37.030   7.757
   10AU     LIG 4778  17.327  37.065   8.008
   10AU     LIG 4779  17.788  36.965   7.943
   10AU     LIG 4780  18.197  37.248   7.932
   10AU    AUSL 4781  15.701  38.059   7.712
   10AU    AUSL 4782  15.497  38.469   7.791
   10AU     AUL 4783  15.842  38.359   7.793
   10AU       S 4784  15.787  38.726   8.146
   10AU     LIG 4785  16.166  38.812   8.459
   10AU     LIG 4786  16.512  38.991   8.720
   10AU     LIG 4787  16.806  39.261   8.967
   10AU     LIG 4788  16.964  39.709   8.988
   10AU     LIG 4789  17.069  40.176   8.985
   10AU       S 4790  16.236  38.218   7.503
   10AU     LIG 4791  16.538  38.300   7.882
   10AU     LIG 4792  16.988  38.225   8.049
   10AU     LIG 4793  17.441  38.182   7.918
   10AU     LIG 4794  17.914  38.306   7.853
   10AU     LIG 4795  18.293  38.386   8.118
   10AU    AUSL 4796  14.426  38.474   7.515
   10AU    AUSL 4797  14.398  38.292   7.919
   10AU     AUL 4798  14.113  38.501   7.689
   10AU       S 4799  14.138  38.454   8.209
   10AU     LIG 4800  14.022  38.438   8.649
   10AU     LIG 4801  13.842  38.709   8.980
   10AU     LIG 4802  13.587  38.985   9.258
   10AU     LIG 4803  13.181  39.045   9.498
   10AU     LIG 4804  12.730  39.134   9.615
   10AU       S 4805  14.336  38.944   7.493
   10AU     LIG 4806  13.992  39.301   7.476
   10AU     LIG 4807  13.576  39.565   7.550
   10AU     LIG 4808  13.099  39.674   7.640
   10AU     LIG 4809  12.627  39.766   7.754
   10AU     LIG 4810  12.159  39.670   7.813
   10AU    AUSL 4811  14.277  38.139   7.300
   10AU    AUSL 4812  14.538  38.524   7.187
   10AU     AUL 4813  14.171  38.456   7.253
   10AU       S 4814  13.910  38.048   6.931
   10AU     LIG 4815  13.544  38.370   6.795
   10AU     LIG 4816  13.053  38.516   6.767
   10AU     LIG 4817  12.542  38.577   6.763
   10AU     LIG 4818  12.079  38.741   6.667
   10AU     LIG 4819  11.723  38.938   6.424
   10AU       S 4820  14.314  38.889   7.001
   10AU     LIG 4821  14.062  39.166   6.721
   10AU     LIG 4822  14.010  39.398   6.323
   10AU     LIG 4823  13.824  39.739   6.078
   10AU     LIG 4824  13.586  40.136   6.099
   10AU     LIG 4825  13.293  40.494   6.155
   10AU    AUSL 4826  14.235  38.146   7.662
   10AU    AUSL 4827  14.185  37.820   7.357
   10AU     AUL 4828  13.957  38.173   7.429
   10AU       S 4829  13.701  37.720   7.453
   10AU     LIG 4830  13.242  37.517   7.435
   10AU     LIG 4831  12.787  37.381   7.453
   10AU     LIG 4832  12.372  37.277   7.241
   10AU     LIG 4833  11.902  37.242   7.186
   10AU     LIG 4834  11.434  37.222   7.108
   10AU       S 4835  13.820  38.152   7.944
   10AU     LIG 4836  13.377  38.321   8.046
   10AU     LIG 4837  12.893  38.337   7.958
   10AU     LIG 4838  12.456  38.551   8.024
   10AU     LIG 4839  12.055  38.786   8.089
   10AU     LIG 4840  11.709  39.092   8.191
   10AU    AUSL 4841  15.573  37.401   7.573
   10AU    AUSL 4842  15.513  37.580   7.929
   10AU     AUL 4843  15.837  37.581   7.922
   10AU       S 4844  15.987  37.207   7.604
   10AU     LIG 4845  16.322  36.941   7.464
   10AU     LIG 4846  16.640  36.649   7.554
   10AU     LIG 4847  17.070  36.570   7.437
   10AU     LIG 4848  17.259  36.152   7.363
   10AU     LIG 4849  17.567  35.880   7.533
   10AU       S 4850  15.728  37.143   8.134
   10AU     LIG 4851  15.924  36.819   8.418
   10AU     LIG 4852  16.182  36.541   8.702
   10AU     LIG 4853  16.451  36.265   8.982
   10AU     LIG 4854  16.765  36.293   9.345
   10AU     LIG 4855  17.004  36.459   9.735
   10AU    AUSL 4856  15.697  37.655   7.318
   10AU    AUSL 4857  15.381  37.328   7.243
   10AU     AUL 4858  15.686  37.296   7.214
   10AU       S 4859  16.121  37.524   7.325
   10AU     LIG 4860  16.526  37.322   7.189
   10AU     LIG 4861  16.847  36.994   7.233
   10AU     LIG 4862  17.273  36.917   7.038
   10AU     LIG 4863  17.745  36.974   7.099
   10AU     LIG 4864  18.216  36.876   7.019
   10AU       S 4865  15.659  37.091   6.755
   10AU     LIG 4866  15.815  36.648   6.630
   10AU     LIG 4867  15.988  36.208   6.476
   10AU     LIG 4868  16.126  35.758   6.311
   10AU     LIG 4869  16.386  35.367   6.250
   10AU     LIG 4870  16.712  35.021   6.228
   10AU    AUSL 4871  14.297  37.510   7.530
   10AU    AUSL 4872  14.360  37.708   7.066
   10AU     AUL 4873  14.106  37.480   7.251
   10AU       S 4874  14.094  37.590   6.742
   10AU     LIG 4875  13.688  37.369   6.593
   10AU     LIG 4876  13.464  36.964   6.519
   10AU     LIG 4877  13.245  36.659   6.242
   10AU     LIG 4878  13.054  36.477   5.847
   10AU     LIG 4879  12.663  36.378   5.589
   10AU       S 4880  13.731  37.486   7.583
   10AU     LIG 4881  13.542  37.095   7.443
   10AU     LIG 4882  13.107  36.986   7.333
   10AU     LIG 4883  12.658  36.863   7.396
   10AU     LIG 4884  12.387  36.500   7.466
   10AU     LIG 4885  11.935  36.473   7.444
   10AU    AUSL 4886  14.218  37.809   7.715
   10AU    AUSL 4887  14.467  37.371   7.809
   10AU     AUL 4888  14.145  37.492   7.863
   10AU       S 4889  14.228  37.153   8.220
   10AU     LIG 4890  13.857  36.893   8.155
   10AU     LIG 4891  13.529  36.570   8.183
   10AU     LIG 4892  13.415  36.177   8.400
   10AU     LIG 4893  13.361  35.818   8.692
   10AU     LIG 4894  13.131  35.649   9.052
   10AU       S 4895  13.737  37.741   7.680
   10AU     LIG 4896  13.304  37.911   7.750
   10AU     LIG 4897  12.845  37.900   7.619
   10AU     LIG 4898  12.412  37.735   7.498
   10AU     LIG 4899  12.086  37.447   7.647
   10AU     LIG 4900  11.768  37.245   7.935
   10AU    AUSL 4901  14.987  38.570   7.948
   10AU    AUSL 4902  14.624  38.566   7.804
   10AU     AUL 4903  14.813  38.626   8.232
   10AU       S 4904  14.407  38.873   7.979
   10AU     LIG 4905  14.365  39.250   8.259
   10AU     LIG 4906  14.162  39.496   8.618
   10AU     LIG 4907  13.954  39.848   8.882
   10AU     LIG 4908  13.601  40.174   8.984
   10AU     LIG 4909  13.302  40.527   9.144
   10AU       S 4910  14.872  39.068   8.008
   10AU     LIG 4911  14.918  39.316   8.381
   10AU     LIG 4912  15.058  39.709   8.582
   10AU     LIG 4913  15.021  40.186   8.626
   10AU     LIG 4914  14.829  40.585   8.816
   10AU     LIG 4915  14.995  40.964   9.054
   10AU    AUSL 4916  14.891  38.712   7.612
   10AU    AUSL 4917  15.186  38.673   7.323
   10AU     AUL 4918  15.337  38.897   7.552
   10AU       S 4919  14.782  39.102   7.703
   10AU     LIG 4920  14.683  39.534   7.972
   10AU     LIG 4921  14.845  39.955   8.192
   10AU     LIG 4922  14.750  40.430   8.236
   10AU     LIG 4923  14.846  40.899   8.350
   10AU     LIG 4924  14.850  41.385   8.450
   10AU       S 4925  15.074  39.141   7.198
   10AU     LIG 4926  15.319  39.517   7.070
   10AU     LIG 4927  15.386  39.870   6.772
   10AU     LIG 4928  15.335  40.321   6.651
   10AU     LIG 4929  15.328  40.806   6.712
   10AU     LIG 4930  15.594  41.208   6.710
   10AU    AUSL 4931  15.203  38.605   7.673
   10AU    AUSL 4932  15.275  38.394   8.070
   10AU     AUL 4933  15.309  38.756   7.963
   10AU       S 4934  15.578  38.608   8.375
   10AU     LIG 4935  15.845  38.568   8.778
   10AU     LIG 4936  16.185  38.736   9.031
   10AU     LIG 4937  16.410  39.086   9.246
   10AU     LIG 4938  16.519  39.433   9.535
   10AU     LIG 4939  16.350  39.781   9.825
   10AU       S 4940  15.030  39.177   7.826
   10AU     LIG 4941  15.187  39.591   8.031
   10AU     LIG 4942  15.356  39.984   8.255
   10AU     LIG 4943  15.488  40.421   8.387
   10AU     LIG 4944  15.627  40.884   8.423
   10AU     LIG 4945  15.731  41.355   8.496
   10AU    AUSL 4946  14.965  37.302   7.944
   10AU    AUSL 4947  15.312  37.308   7.829
   10AU     AUL 4948  15.038  37.260   8.233
   10AU       S 4949  15.122  36.794   8.048
   10AU     LIG 4950  15.025  36.448   8.328
   10AU     LIG 4951  14.719  36.102   8.397
   10AU     LIG 4952  14.573  35.661   8.395
   10AU     LIG 4953  14.637  35.262   8.615
   10AU     LIG 4954  14.724  34.978   8.969
   10AU       S 4955  15.554  37.023   7.969
   10AU     LIG 4956  15.600  36.581   8.071
   10AU     LIG 4957  15.904  36.305   8.307
   10AU     LIG 4958  16.099  36.032   8.649
   10AU     LIG 4959  16.379  35.700   8.856
   10AU     LIG 4960  16.660  35.310   8.938
   10AU    AUSL 4961  14.750  37.238   7.672
   10AU    AUSL 4962  14.687  37.457   8.084
   10AU     AUL 4963  14.666  37.094   7.981
   10AU       S 4964  14.958  36.685   7.858
   10AU     LIG 4965  14.679  36.341   7.938
   10AU     LIG 4966  14.437  35.955   7.970
   10AU     LIG 4967  14.400  35.498   7.934
   10AU     LIG 4968  14.372  35.136   8.197
   10AU     LIG 4969  14.293  34.864   8.567
   10AU       S 4970  14.451  37.256   8.428
   10AU     LIG 4971  14.081  36.958   8.647
   10AU     LIG 4972  13.772  36.577   8.641
   10AU     LIG 4973  13.514  36.269   8.903
   10AU     LIG 4974  13.279  36.101   9.269
   10AU     LIG 4975  13.201  36.092   9.735
   10AU    AUSL 4976  15.070  37.139   7.650
   10AU    AUSL 4977  14.719  37.185   7.325
   10AU     AUL 4978  14.635  36.968   7.608
   10AU       S 4979  14.730  36.705   7.183
   10AU     LIG 4980  14.541  36.267   7.076
   10AU     LIG 4981  14.447  35.789   7.023
   10AU     LIG 4982  14.178  35.379   7.007
   10AU     LIG 4983  14.122  34.944   6.820
   10AU     LIG 4984  14.136  34.487   6.697
   10AU       S 4985  15.195  36.754   7.748
   10AU     LIG 4986  15.187  36.247   7.883
   10AU     LIG 4987  14.938  35.821   8.018
   10AU     LIG 4988  14.887  35.334   8.135
   10AU     LIG 4989  15.116  34.887   8.188
   10AU     LIG 4990  15.229  34.402   8.227
   10AU    AUSL 4991  15.044  38.543   7.014
   10AU    AUSL 4992  15.452  38.475   7.233
   10AU     AUL 4993  15.364  38.713   6.980
   10AU       S 4994  15.026  39.099   6.923
   10AU     LIG 4995  15.119  39.449   6.598
   10AU     LIG 4996  15.213  39.785   6.270
   10AU     LIG 4997  15.300  39.905   5.806
   10AU     LIG 4998  15.321  40.287   5.532
   10AU     LIG 4999  15.144  40.703   5.619
   10AU       S 5000  15.875  38.598   6.890
   10AU     LIG 5001  16.262  38.715   6.649
   10AU     LIG 5002  16.477  38.999   6.316
   10AU     LIG 5003  16.743  39.341   6.086
   10AU     LIG 5004  16.952  39.805   6.114
   10AU     LIG 5005  17.158  40.268   6.172
   10AU    AUSL 5006  14.832  38.671   7.273
   10AU    AUSL 5007  14.730  38.375   6.932
   10AU     AUL 5008  14.767  38.677   6.880
   10AU       S 5009  14.783  39.101   7.196
   10AU     LIG 5010  14.804  39.572   7.001
   10AU     LIG 5011  14.884  39.938   6.668
   10AU     LIG 5012  14.837  40.421   6.659
   10AU     LIG 5013  14.811  40.853   6.817
   10AU     LIG 5014  14.548  41.226   6.789
   10AU       S 5015  14.291  38.704   6.725
   10AU     LIG 5016  14.281  38.936   6.306
   10AU     LIG 5017  14.182  39.152   5.896
   10AU     LIG 5018  13.883  39.209   5.537
   10AU     LIG 5019  13.566  39.371   5.211
   10AU     LIG 5020  13.387  39.727   4.936
   10AU    AUSL 5021  14.914  37.282   7.032
   10AU    AUSL 5022  14.457  37.394   7.223
   10AU     AUL 5023  14.587  37.163   6.972
   10AU       S 5024  14.122  37.267   6.812
   10AU     LIG 5025  13.774  36.978   6.944
   10AU     LIG 5026  13.568  36.568   6.838
   10AU     LIG 5027  13.386  36.253   6.535
   10AU     LIG 5028  13.252  35.935   6.213
   10AU     LIG 5029  13.093  35.595   5.933
   10AU       S 5030  14.883  36.748   6.967
   10AU     LIG 5031  14.800  36.445   6.661
   10AU     LIG 5032  14.669  36.020   6.617
   10AU     LIG 5033  14.717  35.569   6.526
   10AU     LIG 5034  14.699  35.297   6.121
   10AU     LIG 5035  14.662  35.173   5.645
   10AU    AUSL 5036  15.082  37.165   7.319
   10AU    AUSL 5037  15.210  37.425   6.930
   10AU     AUL 5038  15.247  37.083   7.029
   10AU       S 5039  15.012  36.701   7.278
   10AU     LIG 5040  15.050  36.260   7.085
   10AU     LIG 5041  14.986  35.801   6.958
   10AU     LIG 5042  15.129  35.373   6.813
   10AU     LIG 5043  15.411  35.004   6.940
   10AU     LIG 5044  15.616  34.568   6.961
   10AU       S 5045  15.437  37.254   6.575
   10AU     LIG 5046  15.541  36.908   6.271
   10AU     LIG 5047  15.619  36.447   6.180
   10AU     LIG 5048  15.843  36.068   6.006
   10AU     LIG 5049  16.146  35.803   5.775
   10AU     LIG 5050  16.246  35.721   5.323
   11POPC   NC3 5051  23.933   6.448   9.519
   11POPC   PO4 5052  23.425   6.824   9.844
   11POPC   GL1 5053  23.525   6.708   9.335
   11POPC   GL2 5054  23.605   6.427   9.125
   11POPC   C1A 5055  23.695   6.868   8.892
   11POPC   D2A 5056  23.892   6.868   8.460
   11POPC   C3A 5057  23.691   6.987   8.032
   11POPC   C4A 5058  23.626   6.717   7.642
   11POPC   C1B 5059  24.046   6.498   8.870
   11POPC   C2B 5060  24.126   6.413   8.423
   11POPC   C3B 5061  24.045   6.596   8.022
   11POPC   C4B 5062  24.023   6.402   7.641
   12POPC   NC3 5063  17.586   9.553   9.502
   12POPC   PO4 5064  17.810  10.158   9.525
   12POPC   GL1 5065  17.655   9.932   9.190
   12POPC   GL2 5066  17.374  10.039   9.067
   12POPC   C1A 5067  17.640   9.630   8.843
   12POPC   D2A 5068  17.667   9.395   8.463
   12POPC   C3A 5069  17.453   9.660   8.118
   12POPC   C4A 5070  17.654   9.862   7.733
   12POPC   C1B 5071  17.222   9.943   8.722
   12POPC   C2B 5072  17.297  10.072   8.360
   12POPC   C3B 5073  17.353  10.166   7.966
   12POPC   C4B 5074  17.161   9.840   7.676
   13POPC   NC3 5075  14.543   7.184   9.417
   13POPC   PO4 5076  14.553   6.532   9.423
   13POPC   GL1 5077  14.444   6.734   9.125
   13POPC   GL2 5078  14.087   6.702   9.204
   13POPC   C1A 5079  14.620   6.623   8.750
   13POPC   D2A 5080  14.460   6.763   8.433
   13POPC   C3A 5081  14.479   6.622   8.038
   13POPC   C4A 5082  14.331   6.863   7.706
   13POPC   C1B 5083  14.106   6.527   8.771
   13POPC   C2B 5084  14.007   6.612   8.287
   13POPC   C3B 5085  14.028   6.475   7.824
   13POPC   C4B 5086  14.039   6.274   7.362
   14POPC   NC3 5087   8.485  39.589   9.414
   14POPC   PO4 5088   8.186  39.038   9.652
   14POPC   GL1 5089   8.322  39.086   9.179
   14POPC   GL2 5090   8.525  39.359   8.980
   14POPC   C1A 5091   8.127  39.146   8.755
   14POPC   D2A 5092   8.035  39.448   8.442
   14POPC   C3A 5093   7.942  39.287   8.056
   14POPC   C4A 5094   8.051  38.941   7.772
   14POPC   C1B 5095   8.617  39.084   8.653
   14POPC   C2B 5096   8.375  39.033   8.281
   14POPC   C3B 5097   8.436  39.283   7.911
   14POPC   C4B 5098   8.690  39.258   7.569
   15POPC   NC3 5099  29.787  37.860   9.523
   15POPC   PO4 5100  30.218  37.385   9.380
   15POPC   GL1 5101  30.073  37.726   9.118
   15POPC   GL2 5102  29.794  37.498   9.108
   15POPC   C1A 5103  29.980  37.944   8.719
   15POPC   D2A 5104  30.193  37.763   8.346
   15POPC   C3A 5105  29.975  37.571   7.992
   15POPC   C4A 5106  30.019  37.695   7.556
   15POPC   C1B 5107  29.565  37.569   8.726
   15POPC   C2B 5108  29.574  37.730   8.310
   15POPC   C3B 5109  29.452  37.506   7.925
   15POPC   C4B 5110  29.586  37.449   7.460
   16POPC   NC3 5111  41.746  36.000   9.290
   16POPC   PO4 5112  41.191  36.061   9.642
   16POPC   GL1 5113  41.218  36.083   9.204
   16POPC   GL2 5114  41.447  36.368   9.072
   16POPC   C1A 5115  41.211  35.969   8.780
   16POPC   D2A 5116  41.246  36.270   8.417
   16POPC   C3A 5117  41.394  36.100   8.006
   16POPC   C4A 5118  41.637  35.996   7.647
   16POPC   C1B 5119  41.673  36.169   8.701
   16POPC   C2B 5120  41.860  36.271   8.369
   16POPC   C3B 5121  41.777  36.440   7.993
   16POPC   C4B 5122  42.012  36.367   7.642
   17POPC   NC3 5123  41.366  25.868   9.747
   17POPC   PO4 5124  40.833  26.068   9.357
   17POPC   GL1 5125  40.764  25.987   8.978
   17POPC   GL2 5126  40.979  25.716   8.989
   17POPC   C1A 5127  40.618  25.870   8.611
   17POPC   D2A 5128  40.799  25.680   8.272
   17POPC   C3A 5129  40.716  25.976   8.015
   17POPC   C4A 5130  40.610  25.788   7.662
   17POPC   C1B 5131  41.147  25.827   8.605
   17POPC   C2B 5132  41.015  26.204   8.392
   17POPC   C3B 5133  41.162  26.430   8.036
   17POPC   C4B 5134  41.032  26.173   7.664
   18POPC   NC3 5135  24.116  33.750   9.513
   18POPC   PO4 5136  24.781  33.660   9.614
   18POPC   GL1 5137  24.563  33.752   9.177
   18POPC   GL2 5138  24.285  33.601   9.042
   18POPC   C1A 5139  24.515  33.991   8.758
   18POPC   D2A 5140  24.632  33.866   8.320
   18POPC   C3A 5141  24.636  34.102   7.959
   18POPC   C4A 5142  24.206  34.184   7.934
   18POPC   C1B 5143  24.654  33.508   8.697
   18POPC   C2B 5144  24.783  33.397   8.255
   18POPC   C3B 5145  24.761  33.626   7.837
   18POPC   C4B 5146  24.658  33.479   7.406
   19POPC   NC3 5147  30.944  38.315   9.596
   19POPC   PO4 5148  30.465  38.665   9.422
   19POPC   GL1 5149  30.719  38.508   9.152
   19POPC   GL2 5150  30.723  38.160   9.172
   19POPC   C1A 5151  30.814  38.451   8.748
   19POPC   D2A 5152  30.802  38.601   8.346
   19POPC   C3A 5153  30.474  38.585   8.047
   19POPC   C4A 5154  30.713  38.403   7.726
   19POPC   C1B 5155  30.493  38.038   8.828
   19POPC   C2B 5156  30.437  38.216   8.431
   19POPC   C3B 5157  30.506  38.061   8.032
   19POPC   C4B 5158  30.516  37.886   7.585
   20POPC   NC3 5159  29.053  26.615   9.517
   20POPC   PO4 5160  29.146  27.262   9.401
   20POPC   GL1 5161  29.163  26.918   9.095
   20POPC   GL2 5162  28.975  26.604   9.029
   20POPC   C1A 5163  29.453  26.717   8.786
   20POPC   D2A 5164  29.610  26.859   8.380
   20POPC   C3A 5165  29.490  26.606   8.020
   20POPC   C4A 5166  29.268  26.619   7.654
   20POPC   C1B 5167  28.965  26.761   8.658
   20POPC   C2B 5168  29.114  26.570   8.351
   20POPC   C3B 5169  28.888  26.639   7.985
   20POPC   C4B 5170  28.783  26.504   7.550
   21POPC   NC3 5171  18.162  40.695   9.778
   21POPC   PO4 5172  18.736  40.423   9.571
   21POPC   GL1 5173  18.421  40.596   9.298
   21POPC   GL2 5174  18.333  40.949   9.249
   21POPC   C1A 5175  18.386  40.608   8.836
   21POPC   D2A 5176  18.584  40.371   8.473
   21POPC   C3A 5177  18.389  40.494   8.070
   21POPC   C4A 5178  18.303  40.762   7.727
   21POPC   C1B 5179  18.510  41.158   8.865
   21POPC   C2B 5180  18.387  41.329   8.469
   21POPC   C3B 5181  18.465  41.234   8.065
   21POPC   C4B 5182  18.415  41.242   7.648
   22POPC   NC3 5183  43.875  25.597   9.436
   22POPC   PO4 5184  43.580  25.001   9.466
   22POPC   GL1 5185  43.755  25.082   9.080
   22POPC   GL2 5186  44.058  25.224   9.137
   22POPC   C1A 5187  43.775  25.405   8.747
   22POPC   D2A 5188  43.754  25.530   8.311
   22POPC   C3A 5189  43.692  25.201   8.020
   22POPC   C4A 5190  43.818  25.030   7.650
   22POPC   C1B 5191  44.256  25.233   8.725
   22POPC   C2B 5192  44.175  25.246   8.233
   22POPC   C3B 5193  44.130  25.396   7.793
   22POPC   C4B 5194  44.190  25.239   7.333
   23POPC   NC3 5195   1.213  17.064   9.707
   23POPC   PO4 5196   1.401  17.652   9.470
   23POPC   GL1 5197   1.175  17.533   9.179
   23POPC   GL2 5198   1.214  17.184   9.205
   23POPC   C1A 5199   1.201  17.744   8.798
   23POPC   D2A 5200   1.449  17.676   8.438
   23POPC   C3A 5201   1.266  17.849   8.044
   23POPC   C4A 5202   0.991  17.729   7.747
   23POPC   C1B 5203   1.327  17.241   8.784
   23POPC   C2B 5204   1.270  17.108   8.372
   23POPC   C3B 5205   1.289  17.353   8.033
   23POPC   C4B 5206   1.459  17.446   7.675
   24POPC   NC3 5207  43.362  16.349   9.544
   24POPC   PO4 5208  43.019  15.720   9.703
   24POPC   GL1 5209  43.123  15.808   9.273
   24POPC   GL2 5210  43.119  16.157   9.131
   24POPC   C1A 5211  43.344  15.771   8.885
   24POPC   D2A 5212  43.317  16.053   8.574
   24POPC   C3A 5213  43.302  15.939   8.166
   24POPC   C4A 5214  43.258  15.741   7.786
   24POPC   C1B 5215  42.878  16.228   8.736
   24POPC   C2B 5216  42.998  16.341   8.295
   24POPC   C3B 5217  42.984  16.203   7.862
   24POPC   C4B 5218  42.720  16.124   7.527
   25POPC   NC3 5219  24.210  41.883   9.443
   25POPC   PO4 5220  24.771  41.368   9.423
   25POPC   GL1 5221  24.670  41.669   9.143
   25POPC   GL2 5222  24.354  41.506   9.133
   25POPC   C1A 5223  24.729  41.755   8.698
   25POPC   D2A 5224  24.916  41.676   8.268
   25POPC   C3A 5225  24.665  41.773   7.890
   25POPC   C4A 5226  24.466  41.946   7.488
   25POPC   C1B 5227  24.223  41.579   8.733
   25POPC   C2B 5228  24.424  41.497   8.339
   25POPC   C3B 5229  24.219  41.509   7.967
   25POPC   C4B 5230  24.054  41.808   7.742
   26POPC   NC3 5231  25.773  12.175   9.581
   26POPC   PO4 5232  26.347  11.853   9.683
   26POPC   GL1 5233  26.203  12.039   9.281
   26POPC   GL2 5234  26.313  12.376   9.262
   26POPC   C1A 5235  26.084  12.019   8.815
   26POPC   D2A 5236  25.874  12.051   8.374
   26POPC   C3A 5237  25.982  12.121   7.932
   26POPC   C4A 5238  25.992  12.004   7.488
   26POPC   C1B 5239  26.429  12.404   8.815
   26POPC   C2B 5240  26.331  12.308   8.350
   26POPC   C3B 5241  26.326  12.482   7.901
   26POPC   C4B 5242  26.426  12.330   7.471
   27POPC   NC3 5243  17.507  27.801   9.372
   27POPC   PO4 5244  17.322  27.124   9.476
   27POPC   GL1 5245  17.381  27.330   9.117
   27POPC   GL2 5246  17.085  27.537   9.111
   27POPC   C1A 5247  17.682  27.314   8.791
   27POPC   D2A 5248  17.701  27.519   8.412
   27POPC   C3A 5249  17.588  27.337   8.019
   27POPC   C4A 5250  17.819  27.585   7.725
   27POPC   C1B 5251  17.220  27.566   8.671
   27POPC   C2B 5252  17.252  27.731   8.233
   27POPC   C3B 5253  17.003  27.781   7.847
   27POPC   C4B 5254  17.174  27.995   7.465
   28POPC   NC3 5255   1.087   5.330   9.705
   28POPC   PO4 5256   1.210   5.983   9.638
   28POPC   GL1 5257   1.044   5.912   9.214
   28POPC   GL2 5258   1.386   5.843   9.071
   28POPC   C1A 5259   1.073   6.063   8.769
   28POPC   D2A 5260   1.455   6.039   8.513
   28POPC   C3A 5261   1.384   5.773   8.152
   28POPC   C4A 5262   1.135   5.913   7.801
   28POPC   C1B 5263   1.287   5.579   8.684
   28POPC   C2B 5264   0.980   5.356   8.426
   28POPC   C3B 5265   0.914   5.476   7.994
   28POPC   C4B 5266   1.233   5.383   7.692
   29POPC   NC3 5267  43.367  42.662   9.528
   29POPC   PO4 5268  42.980  42.204   9.586
   29POPC   GL1 5269  43.002  42.240   9.159
   29POPC   GL2 5270  42.972  42.640   9.175
   29POPC   C1A 5271  42.944  41.995   8.719
   29POPC   D2A 5272  42.804  42.206   8.307
   29POPC   C3A 5273  42.859  42.090   7.880
   29POPC   C4A 5274  42.560  42.177   7.554
   29POPC   C1B 5275  42.854  42.479   8.757
   29POPC   C2B 5276  43.250  42.340   8.464
   29POPC   C3B 5277  43.334  42.246   8.009
   29POPC   C4B 5278  43.333  42.505   7.614
   30POPC   NC3 5279   2.271   2.253   9.576
   30POPC   PO4 5280   1.807   1.818   9.305
   30POPC   GL1 5281   2.022   2.045   9.049
   30POPC   GL2 5282   2.155   2.375   9.078
   30POPC   C1A 5283   2.087   2.030   8.645
   30POPC   D2A 5284   1.803   2.045   8.342
   30POPC   C3A 5285   2.100   2.009   7.972
   30POPC   C4A 5286   2.138   1.612   7.711
   30POPC   C1B 5287   1.800   2.437   8.754
   30POPC   C2B 5288   1.767   2.562   8.309
   30POPC   C3B 5289   1.651   2.308   7.949
   30POPC   C4B 5290   1.803   2.128   7.575
   31POPC   NC3 5291  40.829  17.682   9.618
   31POPC   PO4 5292  40.479  18.075   9.419
   31POPC   GL1 5293  40.770  17.807   9.120
   31POPC   GL2 5294  40.817  17.434   9.147
   31POPC   C1A 5295  41.064  17.693   8.768
   31POPC   D2A 5296  41.144  17.487   8.360
   31POPC   C3A 5297  41.077  17.724   7.993
   31POPC   C4A 5298  40.842  17.750   7.611
   31POPC   C1B 5299  40.896  17.199   8.730
   31POPC   C2B 5300  40.911  17.045   8.273
   31POPC   C3B 5301  40.985  17.236   7.868
   31POPC   C4B 5302  40.868  17.254   7.454
   32POPC   NC3 5303   8.365  12.777   9.675
   32POPC   PO4 5304   7.676  12.793   9.586
   32POPC   GL1 5305   7.929  12.770   9.184
   32POPC   GL2 5306   8.249  12.905   9.207
   32POPC   C1A 5307   8.064  12.898   8.728
   32POPC   D2A 5308   7.850  13.051   8.372
   32POPC   C3A 5309   7.912  12.774   8.043
   32POPC   C4A 5310   7.879  12.719   7.625
   32POPC   C1B 5311   8.527  13.047   8.893
   32POPC   C2B 5312   8.606  12.895   8.517
   32POPC   C3B 5313   8.546  12.860   8.111
   32POPC   C4B 5314   8.344  12.881   7.746
   33POPC   NC3 5315   0.969   5.368   9.223
   33POPC   PO4 5316   1.351   4.942   9.670
   33POPC   GL1 5317   1.214   4.911   9.211
   33POPC   GL2 5318   1.502   5.002   9.026
   33POPC   C1A 5319   0.953   4.916   8.796
   33POPC   D2A 5320   1.052   4.791   8.401
   33POPC   C3A 5321   0.975   4.965   8.050
   33POPC   C4A 5322   1.158   4.826   7.721
   33POPC   C1B 5323   1.411   5.068   8.595
   33POPC   C2B 5324   1.495   4.963   8.170
   33POPC   C3B 5325   1.614   5.049   7.754
   33POPC   C4B 5326   1.470   4.953   7.338
   34POPC   NC3 5327  39.750  30.535   9.495
   34POPC   PO4 5328  39.114  30.294   9.550
   34POPC   GL1 5329  39.225  30.544   9.172
   34POPC   GL2 5330  39.519  30.809   9.135
   34POPC   C1A 5331  39.014  30.417   8.788
   34POPC   D2A 5332  38.752  30.614   8.473
   34POPC   C3A 5333  38.858  30.591   8.062
   34POPC   C4A 5334  39.211  30.450   7.844
   34POPC   C1B 5335  39.476  30.635   8.737
   34POPC   C2B 5336  39.324  30.551   8.361
   34POPC   C3B 5337  39.642  30.548   8.078
   34POPC   C4B 5338  39.665  30.649   7.691
   35POPC   NC3 5339  19.228   5.404   9.471
   35POPC   PO4 5340  18.926   4.788   9.442
   35POPC   GL1 5341  19.180   4.969   9.124
   35POPC   GL2 5342  18.918   5.219   9.103
   35POPC   C1A 5343  19.280   5.206   8.731
   35POPC   D2A 5344  19.425   5.192   8.293
   35POPC   C3A 5345  19.201   5.143   7.915
   35POPC   C4A 5346  19.079   5.284   7.532
   35POPC   C1B 5347  18.825   4.934   8.769
   35POPC   C2B 5348  18.922   5.076   8.381
   35POPC   C3B 5349  18.871   4.806   8.082
   35POPC   C4B 5350  18.951   4.714   7.682
   36POPC   NC3 5351  32.025  21.438   9.823
   36POPC   PO4 5352  32.547  21.133   9.739
   36POPC   GL1 5353  32.355  21.174   9.289
   36POPC   GL2 5354  32.044  21.063   9.390
   36POPC   C1A 5355  32.344  21.265   8.790
   36POPC   D2A 5356  32.328  21.618   8.486
   36POPC   C3A 5357  32.415  21.635   8.041
   36POPC   C4A 5358  32.250  21.453   7.676
   36POPC   C1B 5359  31.900  21.141   8.979
   36POPC   C2B 5360  31.896  21.122   8.521
   36POPC   C3B 5361  32.061  21.251   8.116
   36POPC   C4B 5362  31.872  21.101   7.703
   37POPC   NC3 5363  36.550  35.807   9.364
   37POPC   PO4 5364  36.031  36.208   9.382
   37POPC   GL1 5365  36.275  36.134   9.079
   37POPC   GL2 5366  36.446  36.466   9.099
   37POPC   C1A 5367  36.103  35.840   8.799
   37POPC   D2A 5368  35.831  35.965   8.498
   37POPC   C3A 5369  35.979  35.840   8.101
   37POPC   C4A 5370  36.061  35.978   7.699
   37POPC   C1B 5371  36.559  36.287   8.696
   37POPC   C2B 5372  36.475  35.918   8.440
   37POPC   C3B 5373  36.474  35.947   8.002
   37POPC   C4B 5374  36.464  36.314   7.717
   38POPC   NC3 5375  13.544   7.135   9.391
   38POPC   PO4 5376  13.984   7.598   9.232
   38POPC   GL1 5377  13.594   7.539   9.031
   38POPC   GL2 5378  13.366   7.853   9.020
   38POPC   C1A 5379  13.659   7.411   8.636
   38POPC   D2A 5380  13.873   7.600   8.310
   38POPC   C3A 5381  13.764   7.331   8.008
   38POPC   C4A 5382  13.950   7.189   7.643
   38POPC   C1B 5383  13.183   7.593   8.697
   38POPC   C2B 5384  13.267   7.450   8.276
   38POPC   C3B 5385  13.296   7.199   7.914
   38POPC   C4B 5386  13.499   7.437   7.554
   39POPC   NC3 5387   1.422  18.913   9.456
   39POPC   PO4 5388   0.860  19.254   9.383
   39POPC   GL1 5389   1.243  19.190   9.077
   39POPC   GL2 5390   1.321  18.806   8.968
   39POPC   C1A 5391   1.426  19.210   8.668
   39POPC   D2A 5392   1.390  18.861   8.362
   39POPC   C3A 5393   1.336  18.961   7.921
   39POPC   C4A 5394   1.279  19.381   7.671
   39POPC   C1B 5395   0.939  18.981   8.749
   39POPC   C2B 5396   0.816  19.019   8.349
   39POPC   C3B 5397   0.883  19.179   7.903
   39POPC   C4B 5398   1.019  18.967   7.508
   40POPC   NC3 5399  20.980  23.678   9.493
   40POPC   PO4 5400  20.517  24.132   9.634
   40POPC   GL1 5401  20.566  23.893   9.190
   40POPC   GL2 5402  20.731  23.537   9.079
   40POPC   C1A 5403  20.342  23.708   8.819
   40POPC   D2A 5404  20.574  23.559   8.470
   40POPC   C3A 5405  20.518  23.609   8.053
   40POPC   C4A 5406  20.278  23.361   7.787
   40POPC   C1B 5407  20.897  23.823   8.747
   40POPC   C2B 5408  20.825  23.960   8.291
   40POPC   C3B 5409  20.959  23.821   7.876
   40POPC   C4B 5410  20.939  23.936   7.458
   41POPC   NC3 5411  18.773   0.070  10.012
   41POPC   PO4 5412  18.217   0.225   9.697
   41POPC   GL1 5413  18.462   0.407   9.193
   41POPC   GL2 5414  18.635   0.724   9.256
   41POPC   C1A 5415  18.324   0.417   8.735
   41POPC   D2A 5416  18.162   0.647   8.430
   41POPC   C3A 5417  18.143   0.386   8.108
   41POPC   C4A 5418  18.169   0.654   7.758
   41POPC   C1B 5419  18.785   0.586   8.826
   41POPC   C2B 5420  18.697   0.694   8.423
   41POPC   C3B 5421  18.619   0.542   8.041
   41POPC   C4B 5422  18.661   0.770   7.683
   42POPC   NC3 5423   2.082  24.168   9.243
   42POPC   PO4 5424   1.748  24.634   9.643
   42POPC   GL1 5425   1.996  24.652   9.154
   42POPC   GL2 5426   1.831  24.463   8.842
   42POPC   C1A 5427   2.287  24.489   8.731
   42POPC   D2A 5428   2.037  24.334   8.383
   42POPC   C3A 5429   2.163  24.253   7.995
   42POPC   C4A 5430   2.204  24.497   7.655
   42POPC   C1B 5431   1.757  24.008   8.655
   42POPC   C2B 5432   1.537  23.987   8.252
   42POPC   C3B 5433   1.634  24.219   7.873
   42POPC   C4B 5434   1.801  24.226   7.441
   43POPC   NC3 5435  20.458  39.810   9.379
   43POPC   PO4 5436  21.083  39.547   9.260
   43POPC   GL1 5437  20.826  39.844   9.050
   43POPC   GL2 5438  21.018  40.089   9.015
   43POPC   C1A 5439  20.448  39.941   8.734
   43POPC   D2A 5440  20.462  39.870   8.274
   43POPC   C3A 5441  20.402  40.163   7.945
   43POPC   C4A 5442  20.390  40.083   7.481
   43POPC   C1B 5443  20.925  39.976   8.586
   43POPC   C2B 5444  20.818  40.252   8.280
   43POPC   C3B 5445  20.976  40.293   7.902
   43POPC   C4B 5446  20.827  39.984   7.692
   44POPC   NC3 5447   7.648  43.842   9.596
   44POPC   PO4 5448   7.139  43.572   9.442
   44POPC   GL1 5449   7.298  43.909   9.205
   44POPC   GL2 5450   7.628  43.786   9.082
   44POPC   C1A 5451   7.174  43.996   8.816
   44POPC   D2A 5452   7.324  43.800   8.440
   44POPC   C3A 5453   7.281  44.017   8.045
   44POPC   C4A 5454   7.127  43.926   7.642
   44POPC   C1B 5455   7.841  43.482   8.816
   44POPC   C2B 5456   7.777  43.302   8.434
   44POPC   C3B 5457   7.794  43.484   8.037
   44POPC   C4B 5458   7.598  43.730   7.709
   45POPC   NC3 5459   4.543  13.077   9.250
   45POPC   PO4 5460   5.120  12.756   9.462
   45POPC   GL1 5461   4.985  12.884   9.063
   45POPC   GL2 5462   5.068  13.213   9.066
   45POPC   C1A 5463   4.843  12.826   8.639
   45POPC   D2A 5464   4.614  12.521   8.402
   45POPC   C3A 5465   4.865  12.511   8.021
   45POPC   C4A 5466   4.882  12.902   7.718
   45POPC   C1B 5467   5.280  13.086   8.654
   45POPC   C2B 5468   5.124  13.008   8.206
   45POPC   C3B 5469   5.359  13.038   7.813
   45POPC   C4B 5470   5.297  12.974   7.340
   46POPC   NC3 5471  36.754  11.767   9.548
   46POPC   PO4 5472  37.204  12.265   9.426
   46POPC   GL1 5473  36.867  12.347   9.133
   46POPC   GL2 5474  36.600  12.067   9.123
   46POPC   C1A 5475  36.931  12.152   8.736
   46POPC   D2A 5476  36.835  11.913   8.382
   46POPC   C3A 5477  36.832  12.167   8.013
   46POPC   C4A 5478  37.279  12.232   7.851
   46POPC   C1B 5479  36.444  11.875   8.712
   46POPC   C2B 5480  36.447  11.571   8.326
   46POPC   C3B 5481  36.681  11.680   7.956
   46POPC   C4B 5482  37.111  11.753   7.959
   47POPC   NC3 5483  37.782  22.854   9.527
   47POPC   PO4 5484  37.315  23.404   9.496
   47POPC   GL1 5485  37.601  23.209   9.212
   47POPC   GL2 5486  37.355  22.980   9.160
   47POPC   C1A 5487  37.786  22.949   8.869
   47POPC   D2A 5488  37.760  23.101   8.447
   47POPC   C3A 5489  37.821  22.808   8.117
   47POPC   C4A 5490  37.775  22.916   7.717
   47POPC   C1B 5491  37.312  23.065   8.744
   47POPC   C2B 5492  37.367  22.807   8.375
   47POPC   C3B 5493  37.336  22.947   7.971
   47POPC   C4B 5494  37.126  22.939   7.608
   48POPC   NC3 5495  13.417  13.255   9.254
   48POPC   PO4 5496  13.806  13.732   9.539
   48POPC   GL1 5497  13.745  13.885   9.165
   48POPC   GL2 5498  13.452  13.944   9.106
   48POPC   C1A 5499  13.911  13.889   8.788
   48POPC   D2A 5500  13.983  13.934   8.356
   48POPC   C3A 5501  13.680  13.693   8.121
   48POPC   C4A 5502  13.513  13.805   7.700
   48POPC   C1B 5503  13.394  13.742   8.715
   48POPC   C2B 5504  13.392  13.363   8.458
   48POPC   C3B 5505  13.424  13.226   8.037
   48POPC   C4B 5506  13.799  13.356   7.758
   49POPC   NC3 5507  40.314  32.926   9.860
   49POPC   PO4 5508  39.831  33.301   9.587
   49POPC   GL1 5509  39.978  33.073   9.230
   49POPC   GL2 5510  39.998  33.367   9.089
   49POPC   C1A 5511  39.970  32.912   8.778
   49POPC   D2A 5512  39.799  32.732   8.361
   49POPC   C3A 5513  39.893  32.829   7.909
   49POPC   C4A 5514  40.130  32.958   7.518
   49POPC   C1B 5515  39.802  33.368   8.683
   49POPC   C2B 5516  39.911  33.246   8.264
   49POPC   C3B 5517  39.839  33.313   7.815
   49POPC   C4B 5518  39.883  33.373   7.335
   50POPC   NC3 5519  35.574  28.297   9.461
   50POPC   PO4 5520  34.940  28.687   9.444
   50POPC   GL1 5521  35.068  28.530   9.068
   50POPC   GL2 5522  35.422  28.506   8.973
   50POPC   C1A 5523  35.005  28.558   8.643
   50POPC   D2A 5524  35.304  28.359   8.401
   50POPC   C3A 5525  35.399  28.444   7.988
   50POPC   C4A 5526  35.014  28.444   7.777
   50POPC   C1B 5527  35.559  28.126   8.759
   50POPC   C2B 5528  35.689  28.035   8.333
   50POPC   C3B 5529  35.707  28.025   7.886
   50POPC   C4B 5530  35.380  28.119   7.581
   51POPC   NC3 5531  41.123  31.792   9.496
   51POPC   PO4 5532  40.580  32.251   9.504
   51POPC   GL1 5533  40.841  32.218   9.156
   51POPC   GL2 5534  40.516  32.295   8.981
   51POPC   C1A 5535  40.876  32.014   8.757
   51POPC   D2A 5536  40.737  31.922   8.353
   51POPC   C3A 5537  40.754  32.265   8.074
   51POPC   C4A 5538  40.940  32.285   7.674
   51POPC   C1B 5539  40.608  32.639   8.709
   51POPC   C2B 5540  40.928  32.737   8.416
   51POPC   C3B 5541  40.785  32.785   8.021
   51POPC   C4B 5542  40.570  32.645   7.641
   52POPC   NC3 5543  44.937  40.600   9.812
   52POPC   PO4 5544  44.315  40.735   9.522
   52POPC   GL1 5545  44.392  40.751   9.080
   52POPC   GL2 5546  44.723  40.850   9.012
   52POPC   C1A 5547  44.421  40.762   8.629
   52POPC   D2A 5548  44.761  40.633   8.372
   52POPC   C3A 5549  44.662  40.777   7.997
   52POPC   C4A 5550  44.365  40.757   7.667
   52POPC   C1B 5551  44.868  41.034   8.701
   52POPC   C2B 5552   0.065  41.038   8.313
   52POPC   C3B 5553  44.904  41.225   7.939
   52POPC   C4B 5554  44.820  41.014   7.578
   53POPC   NC3 5555   4.605   1.994   9.517
   53POPC   PO4 5556   3.990   2.380   9.270
   53POPC   GL1 5557   4.176   1.998   9.077
   53POPC   GL2 5558   4.530   1.849   9.051
   53POPC   C1A 5559   4.260   1.905   8.639
   53POPC   D2A 5560   4.066   2.072   8.296
   53POPC   C3A 5561   4.128   1.770   7.973
   53POPC   C4A 5562   4.124   1.826   7.579
   53POPC   C1B 5563   4.603   2.243   8.806
   53POPC   C2B 5564   4.573   2.293   8.354
   53POPC   C3B 5565   4.767   2.083   7.999
   53POPC   C4B 5566   4.629   1.769   7.691
   54POPC   NC3 5567  24.031  36.290   9.339
   54POPC   PO4 5568  24.710  36.222   9.509
   54POPC   GL1 5569  24.730  36.031   9.138
   54POPC   GL2 5570  24.399  36.054   9.093
   54POPC   C1A 5571  24.916  36.075   8.751
   54POPC   D2A 5572  24.884  36.374   8.397
   54POPC   C3A 5573  24.724  36.238   7.978
   54POPC   C4A 5574  24.659  36.444   7.561
   54POPC   C1B 5575  24.489  36.365   8.792
   54POPC   C2B 5576  24.386  36.219   8.387
   54POPC   C3B 5577  24.146  36.000   8.089
   54POPC   C4B 5578  24.276  36.086   7.684
   55POPC   NC3 5579  31.102   6.334   9.510
   55POPC   PO4 5580  31.195   7.043   9.447
   55POPC   GL1 5581  31.290   6.803   9.123
   55POPC   GL2 5582  31.642   6.870   9.121
   55POPC   C1A 5583  31.290   6.808   8.691
   55POPC   D2A 5584  31.073   6.772   8.322
   55POPC   C3A 5585  31.154   6.457   8.057
   55POPC   C4A 5586  31.379   6.463   7.705
   55POPC   C1B 5587  31.775   6.712   8.705
   55POPC   C2B 5588  31.607   6.611   8.288
   55POPC   C3B 5589  31.832   6.546   7.887
   55POPC   C4B 5590  31.895   6.524   7.417
   56POPC   NC3 5591  27.931  34.696   9.830
   56POPC   PO4 5592  28.489  34.631   9.519
   56POPC   GL1 5593  28.485  34.723   9.108
   56POPC   GL2 5594  28.154  34.566   9.111
   56POPC   C1A 5595  28.655  34.501   8.720
   56POPC   D2A 5596  28.857  34.355   8.306
   56POPC   C3A 5597  28.635  34.568   7.941
   56POPC   C4A 5598  28.368  34.941   7.831
   56POPC   C1B 5599  28.189  34.715   8.688
   56POPC   C2B 5600  28.154  34.769   8.268
   56POPC   C3B 5601  28.031  34.571   7.907
   56POPC   C4B 5602  28.092  34.316   7.574
   57POPC   NC3 5603  24.707  24.394   9.967
   57POPC   PO4 5604  24.425  24.262   9.596
   57POPC   GL1 5605  24.409  24.461   9.168
   57POPC   GL2 5606  24.748  24.513   9.046
   57POPC   C1A 5607  24.367  24.511   8.701
   57POPC   D2A 5608  24.551  24.299   8.349
   57POPC   C3A 5609  24.414  24.434   7.934
   57POPC   C4A 5610  24.232  24.201   7.584
   57POPC   C1B 5611  24.812  24.748   8.636
   57POPC   C2B 5612  24.571  24.814   8.257
   57POPC   C3B 5613  24.712  24.844   7.819
   57POPC   C4B 5614  24.827  24.591   7.454
   58POPC   NC3 5615  24.784   5.921   9.513
   58POPC   PO4 5616  24.336   5.514   9.839
   58POPC   GL1 5617  24.480   5.510   9.384
   58POPC   GL2 5618  24.389   5.801   9.216
   58POPC   C1A 5619  24.626   5.483   8.915
   58POPC   D2A 5620  24.585   5.498   8.427
   58POPC   C3A 5621  24.298   5.631   8.066
   58POPC   C4A 5622  24.412   5.776   7.646
   58POPC   C1B 5623  24.255   5.891   8.802
   58POPC   C2B 5624  24.384   5.990   8.397
   58POPC   C3B 5625  24.397   6.163   7.978
   58POPC   C4B 5626  24.787   6.157   7.704
   59POPC   NC3 5627  30.060  39.623   9.465
   59POPC   PO4 5628  29.699  39.070   9.565
   59POPC   GL1 5629  29.774  39.279   9.209
   59POPC   GL2 5630  29.491  39.205   9.057
   59POPC   C1A 5631  30.110  39.297   8.901
   59POPC   D2A 5632  30.312  39.336   8.512
   59POPC   C3A 5633  30.153  39.026   8.229
   59POPC   C4A 5634  29.994  39.158   7.835
   59POPC   C1B 5635  29.672  39.479   8.738
   59POPC   C2B 5636  29.768  39.368   8.318
   59POPC   C3B 5637  29.534  39.320   7.948
   59POPC   C4B 5638  29.553  39.241   7.483
   60POPC   NC3 5639  16.957  33.901   9.410
   60POPC   PO4 5640  16.960  33.243   9.524
   60POPC   GL1 5641  16.652  33.384   9.200
   60POPC   GL2 5642  16.527  33.664   9.266
   60POPC   C1A 5643  16.745  33.399   8.758
   60POPC   D2A 5644  16.832  33.702   8.426
   60POPC   C3A 5645  16.846  33.508   8.030
   60POPC   C4A 5646  16.723  33.480   7.580
   60POPC   C1B 5647  16.580  33.924   8.831
   60POPC   C2B 5648  16.561  34.123   8.388
   60POPC   C3B 5649  16.844  34.057   8.027
   60POPC   C4B 5650  16.741  33.997   7.595
   61POPC   NC3 5651  32.343  19.304   9.447
   61POPC   PO4 5652  31.887  18.888   9.465
   61POPC   GL1 5653  32.219  18.888   9.161
   61POPC   GL2 5654  31.976  18.795   8.977
   61POPC   C1A 5655  32.430  19.095   8.823
   61POPC   D2A 5656  32.156  19.388   8.613
   61POPC   C3A 5657  32.215  19.480   8.187
   61POPC   C4A 5658  32.573  19.397   7.888
   61POPC   C1B 5659  32.037  18.878   8.592
   61POPC   C2B 5660  32.302  18.979   8.268
   61POPC   C3B 5661  32.256  18.796   7.873
   61POPC   C4B 5662  32.052  18.723   7.476
   62POPC   NC3 5663  31.745  42.625   9.587
   62POPC   PO4 5664  31.645  41.980   9.482
   62POPC   GL1 5665  31.661  42.284   9.173
   62POPC   GL2 5666  31.999  42.370   9.199
   62POPC   C1A 5667  31.573  42.166   8.739
   62POPC   D2A 5668  31.212  42.076   8.469
   62POPC   C3A 5669  31.243  42.373   8.147
   62POPC   C4A 5670  31.353  42.336   7.691
   62POPC   C1B 5671  31.889  42.610   8.827
   62POPC   C2B 5672  31.681  42.630   8.424
   62POPC   C3B 5673  31.740  42.462   8.020
   62POPC   C4B 5674  31.684  42.728   7.683
   63POPC   NC3 5675  12.848  42.871   9.882
   63POPC   PO4 5676  13.191  42.508   9.354
   63POPC   GL1 5677  12.985  42.662   8.988
   63POPC   GL2 5678  12.833  42.968   9.080
   63POPC   C1A 5679  12.977  42.782   8.577
   63POPC   D2A 5680  13.184  42.737   8.192
   63POPC   C3A 5681  12.951  42.899   7.881
   63POPC   C4A 5682  12.869  43.345   7.864
   63POPC   C1B 5683  12.510  42.888   8.738
   63POPC   C2B 5684  12.573  42.978   8.282
   63POPC   C3B 5685  12.414  43.115   7.882
   63POPC   C4B 5686  12.536  43.267   7.464
   64POPC   NC3 5687   1.459   4.537   9.484
   64POPC   PO4 5688   0.866   4.086   9.492
   64POPC   GL1 5689   0.868   4.149   9.078
   64POPC   GL2 5690   1.124   4.395   9.142
   64POPC   C1A 5691   0.872   4.420   8.709
   64POPC   D2A 5692   0.640   4.528   8.350
   64POPC   C3A 5693   0.905   4.406   8.080
   64POPC   C4A 5694   1.035   4.310   7.679
   64POPC   C1B 5695   1.361   4.567   8.804
   64POPC   C2B 5696   1.361   4.401   8.403
   64POPC   C3B 5697   1.391   4.480   8.014
   64POPC   C4B 5698   1.613   4.563   7.700
   65POPC   NC3 5699  21.286   4.496   9.505
   65POPC   PO4 5700  21.831   4.052   9.569
   65POPC   GL1 5701  21.630   4.317   9.141
   65POPC   GL2 5702  21.264   4.330   9.047
   65POPC   C1A 5703  21.503   4.530   8.667
   65POPC   D2A 5704  21.649   4.662   8.207
   65POPC   C3A 5705  21.465   4.485   7.802
   65POPC   C4A 5706  21.173   4.495   7.416
   65POPC   C1B 5707  21.114   4.019   8.788
   65POPC   C2B 5708  20.975   4.028   8.406
   65POPC   C3B 5709  21.024   4.357   8.129
   65POPC   C4B 5710  21.097   4.109   7.771
   66POPC   NC3 5711  22.955  37.420   9.707
   66POPC   PO4 5712  23.427  37.731   9.347
   66POPC   GL1 5713  23.067  37.658   9.102
   66POPC   GL2 5714  22.799  37.466   9.225
   66POPC   C1A 5715  22.753  37.886   8.872
   66POPC   D2A 5716  22.635  38.045   8.464
   66POPC   C3A 5717  22.889  37.940   8.108
   66POPC   C4A 5718  23.189  37.754   7.841
   66POPC   C1B 5719  22.773  37.360   8.788
   66POPC   C2B 5720  22.815  37.162   8.387
   66POPC   C3B 5721  22.837  37.382   8.020
   66POPC   C4B 5722  22.775  37.532   7.613
   67POPC   NC3 5723  34.329  30.298   9.386
   67POPC   PO4 5724  34.704  30.839   9.611
   67POPC   GL1 5725  34.596  30.752   9.206
   67POPC   GL2 5726  34.927  30.640   9.123
   67POPC   C1A 5727  34.488  30.558   8.803
   67POPC   D2A 5728  34.385  30.754   8.422
   67POPC   C3A 5729  34.544  30.568   8.050
   67POPC   C4A 5730  34.345  30.708   7.690
   67POPC   C1B 5731  34.864  30.903   8.730
   67POPC   C2B 5732  34.883  30.911   8.264
   67POPC   C3B 5733  34.787  30.963   7.819
   67POPC   C4B 5734  34.751  31.058   7.394
   68POPC   NC3 5735  41.742  17.276   9.619
   68POPC   PO4 5736  41.198  17.430   9.678
   68POPC   GL1 5737  41.334  17.466   9.211
   68POPC   GL2 5738  41.703  17.511   9.145
   68POPC   C1A 5739  41.413  17.303   8.767
   68POPC   D2A 5740  41.648  17.408   8.373
   68POPC   C3A 5741  41.476  17.374   7.956
   68POPC   C4A 5742  41.612  17.556   7.559
   68POPC   C1B 5743  41.572  17.786   8.784
   68POPC   C2B 5744  41.443  17.900   8.368
   68POPC   C3B 5745  41.558  17.871   7.956
   68POPC   C4B 5746  41.310  17.968   7.598
   69POPC   NC3 5747  43.081  18.881   9.586
   69POPC   PO4 5748  42.964  19.517   9.795
   69POPC   GL1 5749  43.002  19.262   9.278
   69POPC   GL2 5750  43.198  19.417   9.039
   69POPC   C1A 5751  43.236  18.932   8.974
   69POPC   D2A 5752  43.346  18.787   8.608
   69POPC   C3A 5753  43.133  18.886   8.233
   69POPC   C4A 5754  43.138  18.776   7.798
   69POPC   C1B 5755  43.409  19.312   8.661
   69POPC   C2B 5756  43.567  19.144   8.277
   69POPC   C3B 5757  43.271  19.294   7.959
   69POPC   C4B 5758  43.026  19.278   7.565
   70POPC   NC3 5759   8.053  36.001   9.534
   70POPC   PO4 5760   7.851  36.711   9.536
   70POPC   GL1 5761   8.049  36.421   9.198
   70POPC   GL2 5762   8.141  36.104   9.052
   70POPC   C1A 5763   8.155  36.540   8.748
   70POPC   D2A 5764   8.315  36.477   8.275
   70POPC   C3A 5765   8.266  36.270   7.830
   70POPC   C4A 5766   8.057  36.064   7.474
   70POPC   C1B 5767   8.219  36.035   8.616
   70POPC   C2B 5768   8.128  35.929   8.172
   70POPC   C3B 5769   8.328  35.754   7.781
   70POPC   C4B 5770   8.182  35.495   7.429
   71POPC   NC3 5771  29.814  41.142   9.431
   71POPC   PO4 5772  29.715  40.444   9.579
   71POPC   GL1 5773  29.783  40.626   9.166
   71POPC   GL2 5774  30.134  40.645   9.216
   71POPC   C1A 5775  29.622  40.752   8.717
   71POPC   D2A 5776  29.609  40.945   8.279
   71POPC   C3A 5777  29.661  40.652   7.926
   71POPC   C4A 5778  29.951  40.472   7.615
   71POPC   C1B 5779  30.118  40.848   8.817
   71POPC   C2B 5780  30.063  40.693   8.414
   71POPC   C3B 5781  30.157  40.780   8.000
   71POPC   C4B 5782  29.999  41.010   7.659
   72POPC   NC3 5783  42.380  13.397   9.791
   72POPC   PO4 5784  42.286  13.553   9.176
   72POPC   GL1 5785  42.247  13.907   8.947
   72POPC   GL2 5786  42.529  14.054   9.118
   72POPC   C1A 5787  42.169  13.855   8.507
   72POPC   D2A 5788  42.464  13.554   8.464
   72POPC   C3A 5789  42.466  13.517   8.079
   72POPC   C4A 5790  42.330  13.409   7.735
   72POPC   C1B 5791  42.581  14.114   8.627
   72POPC   C2B 5792  42.552  14.021   8.163
   72POPC   C3B 5793  42.275  13.921   7.789
   72POPC   C4B 5794  42.150  13.988   7.333
   73POPC   NC3 5795  38.676   4.872   9.625
   73POPC   PO4 5796  38.123   5.177   9.840
   73POPC   GL1 5797  38.105   5.138   9.321
   73POPC   GL2 5798  38.441   5.101   9.207
   73POPC   C1A 5799  38.158   5.183   8.809
   73POPC   D2A 5800  38.421   4.972   8.460
   73POPC   C3A 5801  38.442   5.153   8.028
   73POPC   C4A 5802  38.346   4.948   7.614
   73POPC   C1B 5803  38.672   5.241   8.829
   73POPC   C2B 5804  38.787   5.348   8.420
   73POPC   C3B 5805  38.862   5.475   7.986
   73POPC   C4B 5806  38.781   5.241   7.592
   74POPC   NC3 5807   6.354  38.379   9.542
   74POPC   PO4 5808   6.963  38.415   9.632
   74POPC   GL1 5809   6.707  38.456   9.197
   74POPC   GL2 5810   6.505  38.146   9.113
   74POPC   C1A 5811   6.805  38.370   8.744
   74POPC   D2A 5812   6.935  38.550   8.348
   74POPC   C3A 5813   6.637  38.767   8.051
   74POPC   C4A 5814   6.708  38.592   7.626
   74POPC   C1B 5815   6.305  38.290   8.726
   74POPC   C2B 5816   6.366  38.378   8.273
   74POPC   C3B 5817   6.249  38.486   7.833
   74POPC   C4B 5818   6.266  38.515   7.367
   75POPC   NC3 5819  36.120  42.585   9.544
   75POPC   PO4 5820  36.414  42.011   9.693
   75POPC   GL1 5821  36.213  42.186   9.245
   75POPC   GL2 5822  36.400  42.491   9.125
   75POPC   C1A 5823  36.104  42.121   8.789
   75POPC   D2A 5824  36.303  42.043   8.369
   75POPC   C3A 5825  36.065  42.056   7.983
   75POPC   C4A 5826  36.237  42.213   7.602
   75POPC   C1B 5827  36.055  42.637   8.839
   75POPC   C2B 5828  35.972  42.472   8.416
   75POPC   C3B 5829  36.010  42.566   7.975
   75POPC   C4B 5830  35.758  42.385   7.626
   76POPC   NC3 5831  33.074  17.661   9.531
   76POPC   PO4 5832  33.056  16.984   9.576
   76POPC   GL1 5833  33.118  17.305   9.186
   76POPC   GL2 5834  32.850  17.494   9.114
   76POPC   C1A 5835  33.247  17.550   8.788
   76POPC   D2A 5836  33.434  17.609   8.379
   76POPC   C3A 5837  33.198  17.686   8.009
   76POPC   C4A 5838  33.448  17.541   7.690
   76POPC   C1B 5839  32.604  17.558   8.752
   76POPC   C2B 5840  32.857  17.581   8.414
   76POPC   C3B 5841  32.717  17.463   8.033
   76POPC   C4B 5842  32.584  17.684   7.720
   77POPC   NC3 5843  34.427  17.061   9.417
   77POPC   PO4 5844  34.508  17.686   9.539
   77POPC   GL1 5845  34.464  17.511   9.148
   77POPC   GL2 5846  34.729  17.278   9.055
   77POPC   C1A 5847  34.295  17.418   8.755
   77POPC   D2A 5848  34.444  17.539   8.376
   77POPC   C3A 5849  34.460  17.407   8.011
   77POPC   C4A 5850  34.466  17.441   7.607
   77POPC   C1B 5851  34.861  17.236   8.600
   77POPC   C2B 5852  34.939  17.172   8.149
   77POPC   C3B 5853  34.816  17.086   7.704
   77POPC   C4B 5854  34.944  16.998   7.247
   78POPC   NC3 5855   6.849  30.605   9.508
   78POPC   PO4 5856   6.221  30.859   9.471
   78POPC   GL1 5857   6.431  30.584   9.182
   78POPC   GL2 5858   6.625  30.877   9.150
   78POPC   C1A 5859   6.435  30.378   8.777
   78POPC   D2A 5860   6.652  30.482   8.379
   78POPC   C3A 5861   6.530  30.379   7.972
   78POPC   C4A 5862   6.672  30.572   7.579
   78POPC   C1B 5863   6.648  30.843   8.752
   78POPC   C2B 5864   6.571  31.019   8.382
   78POPC   C3B 5865   6.702  30.887   7.991
   78POPC   C4B 5866   6.692  31.166   7.633
   79POPC   NC3 5867  21.575  43.056   9.632
   79POPC   PO4 5868  20.896  43.122   9.462
   79POPC   GL1 5869  21.095  42.906   9.121
   79POPC   GL2 5870  21.473  42.831   9.152
   79POPC   C1A 5871  21.078  43.055   8.708
   79POPC   D2A 5872  21.354  43.134   8.373
   79POPC   C3A 5873  21.159  43.148   7.993
   79POPC   C4A 5874  21.345  43.340   7.667
   79POPC   C1B 5875  21.542  42.764   8.702
   79POPC   C2B 5876  21.821  42.860   8.348
   79POPC   C3B 5877  21.724  43.072   7.978
   79POPC   C4B 5878  21.494  42.833   7.707
   80POPC   NC3 5879  37.878  20.583   9.543
   80POPC   PO4 5880  37.780  20.067   9.338
   80POPC   GL1 5881  37.799  20.447   9.064
   80POPC   GL2 5882  38.090  20.695   9.085
   80POPC   C1A 5883  37.698  20.771   8.740
   80POPC   D2A 5884  37.516  20.780   8.320
   80POPC   C3A 5885  37.541  20.606   7.907
   80POPC   C4A 5886  37.252  20.609   7.531
   80POPC   C1B 5887  38.084  20.460   8.655
   80POPC   C2B 5888  37.945  20.437   8.208
   80POPC   C3B 5889  38.055  20.699   7.842
   80POPC   C4B 5890  38.109  20.892   7.407
   81POPC   NC3 5891   1.927  21.263   9.609
   81POPC   PO4 5892   1.741  21.934   9.404
   81POPC   GL1 5893   1.909  21.559   9.201
   81POPC   GL2 5894   2.286  21.456   9.255
   81POPC   C1A 5895   1.976  21.225   8.906
   81POPC   D2A 5896   2.127  21.312   8.500
   81POPC   C3A 5897   1.894  21.353   8.090
   81POPC   C4A 5898   1.614  21.575   7.782
   81POPC   C1B 5899   2.501  21.271   8.883
   81POPC   C2B 5900   2.589  21.097   8.468
   81POPC   C3B 5901   2.408  21.226   8.105
   81POPC   C4B 5902   2.300  21.379   7.719
   82POPC   NC3 5903  13.068   9.558   9.558
   82POPC   PO4 5904  12.458   9.816   9.402
   82POPC   GL1 5905  12.569  10.078   9.039
   82POPC   GL2 5906  12.284  10.018   8.855
   82POPC   C1A 5907  12.743   9.963   8.611
   82POPC   D2A 5908  12.949   9.625   8.398
   82POPC   C3A 5909  13.143   9.660   7.997
   82POPC   C4A 5910  12.986   9.825   7.621
   82POPC   C1B 5911  12.445   9.596   8.784
   82POPC   C2B 5912  12.436   9.525   8.356
   82POPC   C3B 5913  12.674   9.451   7.980
   82POPC   C4B 5914  12.431   9.192   7.792
   83POPC   NC3 5915  34.907  40.886   9.526
   83POPC   PO4 5916  34.331  40.582   9.616
   83POPC   GL1 5917  34.477  40.888   9.223
   83POPC   GL2 5918  34.818  41.003   9.037
   83POPC   C1A 5919  34.375  41.030   8.793
   83POPC   D2A 5920  34.489  40.976   8.334
   83POPC   C3A 5921  34.238  40.997   7.988
   83POPC   C4A 5922  34.273  40.759   7.623
   83POPC   C1B 5923  34.744  40.683   8.677
   83POPC   C2B 5924  34.721  40.562   8.220
   83POPC   C3B 5925  34.767  40.696   7.816
   83POPC   C4B 5926  34.809  40.515   7.415
   84POPC   NC3 5927   7.145  33.251   9.548
   84POPC   PO4 5928   7.124  33.834   9.636
   84POPC   GL1 5929   6.991  33.893   9.168
   84POPC   GL2 5930   6.827  33.595   9.065
   84POPC   C1A 5931   7.092  33.960   8.694
   84POPC   D2A 5932   7.179  33.731   8.281
   84POPC   C3A 5933   7.372  33.795   7.852
   84POPC   C4A 5934   7.732  33.677   7.574
   84POPC   C1B 5935   6.753  33.583   8.609
   84POPC   C2B 5936   6.850  33.361   8.210
   84POPC   C3B 5937   7.046  33.423   7.824
   84POPC   C4B 5938   7.329  33.356   7.470
   85POPC   NC3 5939   1.523  41.422   9.571
   85POPC   PO4 5940   2.201  41.581   9.440
   85POPC   GL1 5941   1.943  41.534   9.090
   85POPC   GL2 5942   1.831  41.184   9.097
   85POPC   C1A 5943   2.065  41.754   8.705
   85POPC   D2A 5944   2.081  41.704   8.269
   85POPC   C3A 5945   1.734  41.526   8.064
   85POPC   C4A 5946   1.765  41.710   7.677
   85POPC   C1B 5947   2.062  41.228   8.669
   85POPC   C2B 5948   2.116  41.182   8.197
   85POPC   C3B 5949   2.179  41.450   7.796
   85POPC   C4B 5950   2.114  41.247   7.364
   86POPC   NC3 5951  32.717  13.950   9.303
   86POPC   PO4 5952  33.197  13.580   9.493
   86POPC   GL1 5953  33.047  13.586   9.099
   86POPC   GL2 5954  33.259  13.858   9.068
   86POPC   C1A 5955  32.865  13.568   8.670
   86POPC   D2A 5956  32.917  13.352   8.264
   86POPC   C3A 5957  32.717  13.524   7.889
   86POPC   C4A 5958  32.744  13.971   7.775
   86POPC   C1B 5959  33.368  13.615   8.708
   86POPC   C2B 5960  33.467  13.752   8.312
   86POPC   C3B 5961  33.200  13.718   7.966
   86POPC   C4B 5962  33.172  13.286   7.820
   87POPC   NC3 5963  31.231  28.923   9.289
   87POPC   PO4 5964  31.893  29.123   9.277
   87POPC   GL1 5965  31.555  29.280   9.122
   87POPC   GL2 5966  31.564  28.950   8.913
   87POPC   C1A 5967  31.460  29.388   8.734
   87POPC   D2A 5968  31.564  29.099   8.370
   87POPC   C3A 5969  31.592  29.317   7.978
   87POPC   C4A 5970  31.434  29.308   7.596
   87POPC   C1B 5971  31.166  28.970   8.673
   87POPC   C2B 5972  31.066  28.808   8.318
   87POPC   C3B 5973  31.279  28.888   7.969
   87POPC   C4B 5974  31.094  28.816   7.617
   88POPC   NC3 5975  36.377   3.954   9.586
   88POPC   PO4 5976  36.313   4.665   9.469
   88POPC   GL1 5977  36.357   4.390   9.127
   88POPC   GL2 5978  36.034   4.501   9.036
   88POPC   C1A 5979  36.327   4.325   8.670
   88POPC   D2A 5980  36.194   4.459   8.283
   88POPC   C3A 5981  36.341   4.268   7.952
   88POPC   C4A 5982  36.046   4.048   7.720
   88POPC   C1B 5983  35.818   4.371   8.656
   88POPC   C2B 5984  35.696   4.555   8.258
   88POPC   C3B 5985  35.871   4.523   7.855
   88POPC   C4B 5986  35.638   4.294   7.527
   89POPC   NC3 5987   3.869  34.735   9.475
   89POPC   PO4 5988   4.509  34.443   9.455
   89POPC   GL1 5989   4.407  34.349   9.035
   89POPC   GL2 5990   4.250  34.652   9.047
   89POPC   C1A 5991   4.517  34.598   8.609
   89POPC   D2A 5992   4.726  34.428   8.219
   89POPC   C3A 5993   4.468  34.499   7.851
   89POPC   C4A 5994   4.315  34.942   7.934
   89POPC   C1B 5995   4.060  34.395   8.676
   89POPC   C2B 5996   4.115  34.432   8.220
   89POPC   C3B 5997   3.887  34.663   7.873
   89POPC   C4B 5998   3.800  35.096   7.799
   90POPC   NC3 5999  26.403  32.403   9.357
   90POPC   PO4 6000  25.700  32.295   9.494
   90POPC   GL1 6001  25.942  32.067   9.189
   90POPC   GL2 6002  26.299  31.996   9.072
   90POPC   C1A 6003  25.858  32.080   8.764
   90POPC   D2A 6004  25.827  32.468   8.514
   90POPC   C3A 6005  25.812  32.475   8.062
   90POPC   C4A 6006  25.616  32.169   7.791
   90POPC   C1B 6007  26.345  32.126   8.636
   90POPC   C2B 6008  26.065  32.051   8.285
   90POPC   C3B 6009  26.103  32.032   7.858
   90POPC   C4B 6010  26.428  32.035   7.544
   91POPC   NC3 6011  17.473   1.369   9.591
   91POPC   PO4 6012  17.221   0.788   9.614
   91POPC   GL1 6013  17.387   1.019   9.209
   91POPC   GL2 6014  17.303   1.360   9.128
   91POPC   C1A 6015  17.354   1.056   8.738
   91POPC   D2A 6016  17.324   0.868   8.329
   91POPC   C3A 6017  17.367   1.244   8.072
   91POPC   C4A 6018  17.211   1.334   7.684
   91POPC   C1B 6019  17.689   1.439   8.866
   91POPC   C2B 6020  17.880   1.502   8.474
   91POPC   C3B 6021  17.679   1.694   8.141
   91POPC   C4B 6022  17.669   1.570   7.711
   92POPC   NC3 6023  38.349   7.688   9.476
   92POPC   PO4 6024  38.387   7.068   9.706
   92POPC   GL1 6025  38.364   7.237   9.216
   92POPC   GL2 6026  38.313   7.558   9.005
   92POPC   C1A 6027  38.530   7.179   8.776
   92POPC   D2A 6028  38.442   7.053   8.350
   92POPC   C3A 6029  38.667   7.229   8.032
   92POPC   C4A 6030  38.366   7.236   7.698
   92POPC   C1B 6031  38.115   7.800   8.690
   92POPC   C2B 6032  38.127   7.794   8.254
   92POPC   C3B 6033  38.317   7.757   7.857
   92POPC   C4B 6034  38.711   7.604   7.678
   93POPC   NC3 6035  24.245  14.316   9.516
   93POPC   PO4 6036  24.673  14.917   9.446
   93POPC   GL1 6037  24.553  14.556   9.173
   93POPC   GL2 6038  24.192  14.688   9.141
   93POPC   C1A 6039  24.612  14.243   8.813
   93POPC   D2A 6040  24.775  14.382   8.426
   93POPC   C3A 6041  24.598  14.368   8.052
   93POPC   C4A 6042  24.873  14.089   7.840
   93POPC   C1B 6043  24.303  14.631   8.708
   93POPC   C2B 6044  24.213  14.266   8.423
   93POPC   C3B 6045  24.060  14.321   7.995
   93POPC   C4B 6046  24.198  14.698   7.751
   94POPC   NC3 6047   6.103   0.543   9.354
   94POPC   PO4 6048   5.726  44.970   9.390
   94POPC   GL1 6049   5.837   0.207   9.048
   94POPC   GL2 6050   5.664   0.541   9.069
   94POPC   C1A 6051   6.022   0.406   8.690
   94POPC   D2A 6052   5.856   0.527   8.293
   94POPC   C3A 6053   5.953   0.262   7.984
   94POPC   C4A 6054   6.171   0.380   7.640
   94POPC   C1B 6055   5.672   0.800   8.690
   94POPC   C2B 6056   5.379   0.836   8.347
   94POPC   C3B 6057   5.462   0.895   7.907
   94POPC   C4B 6058   5.696   0.580   7.675
   95POPC   NC3 6059  35.321  20.367   9.531
   95POPC   PO4 6060  34.990  20.959   9.374
   95POPC   GL1 6061  35.193  20.644   9.086
   95POPC   GL2 6062  34.886  20.475   9.029
   95POPC   C1A 6063  35.495  20.749   8.702
   95POPC   D2A 6064  35.431  21.006   8.346
   95POPC   C3A 6065  35.366  20.899   7.936
   95POPC   C4A 6066  35.521  20.640   7.633
   95POPC   C1B 6067  35.004  20.626   8.601
   95POPC   C2B 6068  35.013  20.628   8.164
   95POPC   C3B 6069  35.025  20.580   7.705
   95POPC   C4B 6070  35.147  20.821   7.330
   96POPC   NC3 6071  43.917  38.010   9.861
   96POPC   PO4 6072  44.049  37.393   9.648
   96POPC   GL1 6073  44.076  37.637   9.281
   96POPC   GL2 6074  43.904  37.977   9.356
   96POPC   C1A 6075  44.009  37.481   8.847
   96POPC   D2A 6076  44.036  37.587   8.420
   96POPC   C3A 6077  43.927  37.495   7.997
   96POPC   C4A 6078  43.733  37.647   7.662
   96POPC   C1B 6079  43.979  38.010   8.940
   96POPC   C2B 6080  43.962  38.095   8.519
   96POPC   C3B 6081  43.731  37.918   8.166
   96POPC   C4B 6082  44.005  38.028   7.826
   97POPC   NC3 6083  40.961   5.464   9.553
   97POPC   PO4 6084  40.746   4.860   9.335
   97POPC   GL1 6085  40.809   5.211   9.116
   97POPC   GL2 6086  41.136   5.210   9.148
   97POPC   C1A 6087  40.717   5.156   8.709
   97POPC   D2A 6088  40.727   4.756   8.526
   97POPC   C3A 6089  40.660   4.857   8.125
   97POPC   C4A 6090  40.628   4.652   7.764
   97POPC   C1B 6091  41.145   4.924   8.802
   97POPC   C2B 6092  41.159   5.165   8.433
   97POPC   C3B 6093  41.003   5.258   8.074
   97POPC   C4B 6094  40.817   5.153   7.721
   98POPC   NC3 6095  35.247  22.672   9.570
   98POPC   PO4 6096  35.639  23.253   9.457
   98POPC   GL1 6097  35.460  22.972   9.162
   98POPC   GL2 6098  35.116  22.909   9.163
   98POPC   C1A 6099  35.321  23.095   8.738
   98POPC   D2A 6100  35.505  22.967   8.377
   98POPC   C3A 6101  35.261  23.078   8.036
   98POPC   C4A 6102  35.315  23.273   7.670
   98POPC   C1B 6103  34.870  22.768   8.843
   98POPC   C2B 6104  34.971  22.870   8.422
   98POPC   C3B 6105  35.016  22.623   8.049
   98POPC   C4B 6106  35.193  22.616   7.635
   99POPC   NC3 6107   9.082  12.919   9.726
   99POPC   PO4 6108   8.543  13.191   9.549
   99POPC   GL1 6109   8.779  12.866   9.291
   99POPC   GL2 6110   9.121  12.977   9.204
   99POPC   C1A 6111   8.911  12.668   8.858
   99POPC   D2A 6112   9.131  12.796   8.424
   99POPC   C3A 6113   9.007  12.697   7.985
   99POPC   C4A 6114   8.728  12.524   7.709
   99POPC   C1B 6115   9.028  13.162   8.812
   99POPC   C2B 6116   8.908  13.296   8.418
   99POPC   C3B 6117   9.030  13.195   8.043
   99POPC   C4B 6118   8.753  13.175   7.726
  100POPC   NC3 6119  30.184  40.306   9.597
  100POPC   PO4 6120  29.651  39.844   9.432
  100POPC   GL1 6121  29.924  40.113   9.182
  100POPC   GL2 6122  30.259  40.018   9.196
  100POPC   C1A 6123  29.868  40.287   8.772
  100POPC   D2A 6124  29.731  40.291   8.350
  100POPC   C3A 6125  30.019  40.189   8.039
  100POPC   C4A 6126  30.228  39.998   7.697
  100POPC   C1B 6127  30.215  39.828   8.805
  100POPC   C2B 6128  29.976  39.821   8.439
  100POPC   C3B 6129  30.089  39.644   8.039
  100POPC   C4B 6130  29.870  39.623   7.659
  101POPC   NC3 6131  44.386   1.556   9.535
  101POPC   PO4 6132  44.045   1.045   9.266
  101POPC   GL1 6133  43.731   1.310   9.091
  101POPC   GL2 6134  43.778   1.672   9.166
  101POPC   C1A 6135  43.584   1.100   8.719
  101POPC   D2A 6136  43.853   0.856   8.432
  101POPC   C3A 6137  43.803   0.854   7.973
  101POPC   C4A 6138  44.160   1.004   7.756
  101POPC   C1B 6139  43.543   1.625   8.752
  101POPC   C2B 6140  43.533   1.451   8.335
  101POPC   C3B 6141  43.886   1.342   8.099
  101POPC   C4B 6142  43.919   1.422   7.667
  102POPC   NC3 6143   3.859  17.358   9.477
  102POPC   PO4 6144   3.744  18.010   9.221
  102POPC   GL1 6145   3.386  17.771   9.128
  102POPC   GL2 6146   3.316  17.401   9.152
  102POPC   C1A 6147   3.434  17.595   8.707
  102POPC   D2A 6148   3.823  17.527   8.482
  102POPC   C3A 6149   3.769  17.703   8.085
  102POPC   C4A 6150   3.484  17.586   7.747
  102POPC   C1B 6151   3.365  17.089   8.793
  102POPC   C2B 6152   3.562  17.077   8.370
  102POPC   C3B 6153   3.352  17.123   7.958
  102POPC   C4B 6154   3.308  17.190   7.500
  103POPC   NC3 6155  36.923  42.545   9.391
  103POPC   PO4 6156  36.660  42.010   9.127
  103POPC   GL1 6157  37.036  42.237   8.971
  103POPC   GL2 6158  37.158  42.599   8.944
  103POPC   C1A 6159  37.052  42.298   8.533
  103POPC   D2A 6160  36.881  42.077   8.199
  103POPC   C3A 6161  36.666  42.283   7.877
  103POPC   C4A 6162  36.718  42.080   7.470
  103POPC   C1B 6163  36.740  42.691   8.748
  103POPC   C2B 6164  36.718  42.671   8.295
  103POPC   C3B 6165  37.078  42.560   8.047
  103POPC   C4B 6166  37.096  42.374   7.623
  104POPC   NC3 6167  41.855  42.994   9.552
  104POPC   PO4 6168  41.404  43.592   9.599
  104POPC   GL1 6169  41.392  43.218   9.311
  104POPC   GL2 6170  41.170  43.345   9.056
  104POPC   C1A 6171  41.592  43.082   8.900
  104POPC   D2A 6172  41.717  42.803   8.542
  104POPC   C3A 6173  41.771  43.003   8.132
  104POPC   C4A 6174  41.686  42.868   7.754
  104POPC   C1B 6175  41.334  43.512   8.710
  104POPC   C2B 6176  41.388  43.221   8.399
  104POPC   C3B 6177  41.268  42.995   8.033
  104POPC   C4B 6178  41.359  43.295   7.707
  105POPC   NC3 6179  30.462  23.541   9.760
  105POPC   PO4 6180  29.845  23.565   9.428
  105POPC   GL1 6181  29.890  23.571   9.029
  105POPC   GL2 6182  30.189  23.810   9.055
  105POPC   C1A 6183  29.796  23.849   8.730
  105POPC   D2A 6184  29.895  24.161   8.473
  105POPC   C3A 6185  29.960  23.927   8.092
  105POPC   C4A 6186  29.912  23.731   7.675
  105POPC   C1B 6187  30.264  23.587   8.660
  105POPC   C2B 6188  30.209  23.495   8.214
  105POPC   C3B 6189  30.385  23.719   7.866
  105POPC   C4B 6190  30.358  23.667   7.397
  106POPC   NC3 6191  35.621  19.659  10.169
  106POPC   PO4 6192  35.268  19.935   9.722
  106POPC   GL1 6193  35.237  19.775   9.281
  106POPC   GL2 6194  35.188  20.083   9.142
  106POPC   C1A 6195  35.354  19.753   8.794
  106POPC   D2A 6196  35.632  19.939   8.420
  106POPC   C3A 6197  35.504  19.782   7.984
  106POPC   C4A 6198  35.131  19.571   7.779
  106POPC   C1B 6199  35.354  20.267   8.761
  106POPC   C2B 6200  35.418  20.407   8.337
  106POPC   C3B 6201  35.645  20.287   8.006
  106POPC   C4B 6202  35.599  20.134   7.605
  107POPC   NC3 6203  18.535  25.100   9.656
  107POPC   PO4 6204  17.962  25.414   9.586
  107POPC   GL1 6205  18.231  25.234   9.252
  107POPC   GL2 6206  18.502  25.479   9.295
  107POPC   C1A 6207  18.151  25.068   8.812
  107POPC   D2A 6208  18.360  25.067   8.398
  107POPC   C3A 6209  18.143  25.332   8.099
  107POPC   C4A 6210  17.944  25.150   7.771
  107POPC   C1B 6211  18.380  25.534   8.865
  107POPC   C2B 6212  18.472  25.549   8.438
  107POPC   C3B 6213  18.642  25.479   8.012
  107POPC   C4B 6214  18.663  25.770   7.654
  108POPC   NC3 6215   3.244  19.929   9.430
  108POPC   PO4 6216   2.675  19.638   9.428
  108POPC   GL1 6217   2.910  19.635   9.093
  108POPC   GL2 6218   2.907  19.980   9.049
  108POPC   C1A 6219   2.740  19.684   8.675
  108POPC   D2A 6220   2.866  19.780   8.270
  108POPC   C3A 6221   2.626  19.705   7.881
  108POPC   C4A 6222   2.503  19.594   7.435
  108POPC   C1B 6223   3.030  20.152   8.653
  108POPC   C2B 6224   3.164  20.224   8.230
  108POPC   C3B 6225   3.145  19.911   7.870
  108POPC   C4B 6226   2.968  19.803   7.465
  109POPC   NC3 6227  24.863  16.753   9.567
  109POPC   PO4 6228  25.521  16.653   9.540
  109POPC   GL1 6229  25.261  16.823   9.253
  109POPC   GL2 6230  25.429  16.699   9.030
  109POPC   C1A 6231  24.969  16.802   8.897
  109POPC   D2A 6232  25.242  16.770   8.511
  109POPC   C3A 6233  25.096  16.956   8.127
  109POPC   C4A 6234  25.035  16.838   7.701
  109POPC   C1B 6235  25.621  16.419   8.776
  109POPC   C2B 6236  25.471  16.321   8.379
  109POPC   C3B 6237  25.676  16.249   7.995
  109POPC   C4B 6238  25.633  16.365   7.552
  110POPC   NC3 6239  28.176   3.454   9.767
  110POPC   PO4 6240  28.757   3.093   9.533
  110POPC   GL1 6241  28.473   3.444   9.352
  110POPC   GL2 6242  28.555   3.773   9.258
  110POPC   C1A 6243  28.174   3.489   8.987
  110POPC   D2A 6244  28.212   3.529   8.523
  110POPC   C3A 6245  28.141   3.722   8.123
  110POPC   C4A 6246  28.161   3.861   7.686
  110POPC   C1B 6247  28.640   3.613   8.824
  110POPC   C2B 6248  28.642   3.786   8.403
  110POPC   C3B 6249  28.593   3.929   7.974
  110POPC   C4B 6250  28.637   3.794   7.527
  111POPC   NC3 6251  11.314  28.545   9.700
  111POPC   PO4 6252  10.898  28.125   9.333
  111POPC   GL1 6253  11.225  28.403   9.205
  111POPC   GL2 6254  11.057  28.704   9.277
  111POPC   C1A 6255  11.365  28.293   8.786
  111POPC   D2A 6256  11.082  28.140   8.432
  111POPC   C3A 6257  11.296  28.282   8.053
  111POPC   C4A 6258  11.223  28.280   7.641
  111POPC   C1B 6259  11.152  28.767   8.830
  111POPC   C2B 6260  11.203  28.630   8.415
  111POPC   C3B 6261  11.193  28.830   8.017
  111POPC   C4B 6262  11.370  28.768   7.620
  112POPC   NC3 6263  44.290  16.869   9.716
  112POPC   PO4 6264  43.708  16.684   9.558
  112POPC   GL1 6265  44.059  16.798   9.243
  112POPC   GL2 6266  44.173  16.506   9.015
  112POPC   C1A 6267  44.013  16.943   8.817
  112POPC   D2A 6268  43.786  16.863   8.426
  112POPC   C3A 6269  43.983  16.797   8.014
  112POPC   C4A 6270  43.798  16.625   7.641
  112POPC   C1B 6271  43.754  16.495   8.839
  112POPC   C2B 6272  43.657  16.372   8.384
  112POPC   C3B 6273  43.995  16.273   8.103
  112POPC   C4B 6274  44.080  16.199   7.689
  113POPC   NC3 6275  38.492  22.188   9.523
  113POPC   PO4 6276  38.216  22.792   9.363
  113POPC   GL1 6277  38.217  22.407   9.079
  113POPC   GL2 6278  38.260  22.014   9.103
  113POPC   C1A 6279  38.200  22.321   8.622
  113POPC   D2A 6280  38.244  22.521   8.195
  113POPC   C3A 6281  38.588  22.415   7.904
  113POPC   C4A 6282  38.613  22.387   7.465
  113POPC   C1B 6283  38.104  21.797   8.731
  113POPC   C2B 6284  38.132  21.894   8.305
  113POPC   C3B 6285  38.259  22.035   7.881
  113POPC   C4B 6286  38.434  21.906   7.496
  114POPC   NC3 6287   3.052  16.971   9.426
  114POPC   PO4 6288   2.798  16.384   9.521
  114POPC   GL1 6289   2.690  16.629   9.164
  114POPC   GL2 6290   2.373  16.422   9.103
  114POPC   C1A 6291   2.857  16.884   8.799
  114POPC   D2A 6292   3.114  16.830   8.395
  114POPC   C3A 6293   2.954  16.790   7.937
  114POPC   C4A 6294   2.932  16.869   7.460
  114POPC   C1B 6295   2.402  16.667   8.751
  114POPC   C2B 6296   2.628  16.676   8.376
  114POPC   C3B 6297   2.556  16.471   8.003
  114POPC   C4B 6298   2.515  16.641   7.634
  115POPC   NC3 6299  30.417  35.267   9.336
  115POPC   PO4 6300  30.780  35.742   9.545
  115POPC   GL1 6301  30.758  35.595   9.115
  115POPC   GL2 6302  30.889  35.299   9.049
  115POPC   C1A 6303  30.627  35.529   8.669
  115POPC   D2A 6304  30.335  35.422   8.363
  115POPC   C3A 6305  30.555  35.499   7.976
  115POPC   C4A 6306  30.714  35.405   7.559
  115POPC   C1B 6307  30.634  35.032   8.767
  115POPC   C2B 6308  30.774  35.146   8.325
  115POPC   C3B 6309  30.778  35.012   7.895
  115POPC   C4B 6310  30.522  34.932   7.512
  116POPC   NC3 6311  42.162  27.370   9.582
  116POPC   PO4 6312  42.740  27.565   9.545
  116POPC   GL1 6313  42.474  27.403   9.181
  116POPC   GL2 6314  42.305  27.702   9.048
  116POPC   C1A 6315  42.294  27.262   8.781
  116POPC   D2A 6316  42.284  27.479   8.425
  116POPC   C3A 6317  42.306  27.314   7.995
  116POPC   C4A 6318  42.142  27.434   7.569
  116POPC   C1B 6319  42.466  27.928   8.667
  116POPC   C2B 6320  42.615  27.804   8.253
  116POPC   C3B 6321  42.515  27.748   7.844
  116POPC   C4B 6322  42.502  27.742   7.418
  117POPC   NC3 6323  43.671  28.671   9.245
  117POPC   PO4 6324  43.785  29.224   9.543
  117POPC   GL1 6325  43.867  29.241   9.140
  117POPC   GL2 6326  44.083  28.938   9.053
  117POPC   C1A 6327  43.675  29.482   8.815
  117POPC   D2A 6328  43.763  29.322   8.406
  117POPC   C3A 6329  43.686  29.505   8.018
  117POPC   C4A 6330  43.788  29.372   7.591
  117POPC   C1B 6331  44.152  29.159   8.712
  117POPC   C2B 6332  44.088  28.925   8.337
  117POPC   C3B 6333  44.022  29.103   7.978
  117POPC   C4B 6334  44.216  29.108   7.620
  118POPC   NC3 6335  32.952  31.638   9.706
  118POPC   PO4 6336  32.825  30.956   9.614
  118POPC   GL1 6337  32.862  31.262   9.257
  118POPC   GL2 6338  32.981  31.629   9.185
  118POPC   C1A 6339  32.886  31.315   8.809
  118POPC   D2A 6340  33.056  31.500   8.440
  118POPC   C3A 6341  32.849  31.542   8.020
  118POPC   C4A 6342  33.169  31.380   7.735
  118POPC   C1B 6343  33.313  31.691   8.852
  118POPC   C2B 6344  33.349  31.919   8.482
  118POPC   C3B 6345  33.315  31.766   8.069
  118POPC   C4B 6346  33.248  31.889   7.655
  119POPC   NC3 6347   9.291  43.923  10.051
  119POPC   PO4 6348   8.856  43.835   9.590
  119POPC   GL1 6349   8.756  43.742   9.151
  119POPC   GL2 6350   8.685  44.046   8.997
  119POPC   C1A 6351   8.903  43.611   8.733
  119POPC   D2A 6352   9.196  43.787   8.413
  119POPC   C3A 6353   9.171  43.700   7.952
  119POPC   C4A 6354   9.247  43.901   7.546
  119POPC   C1B 6355   8.764  44.060   8.550
  119POPC   C2B 6356   8.704  43.792   8.190
  119POPC   C3B 6357   8.758  44.000   7.788
  119POPC   C4B 6358   8.511  44.176   7.470
  120POPC   NC3 6359   6.873  13.788   9.374
  120POPC   PO4 6360   6.266  13.506   9.425
  120POPC   GL1 6361   6.467  13.647   9.082
  120POPC   GL2 6362   6.384  13.981   9.150
  120POPC   C1A 6363   6.784  13.565   8.769
  120POPC   D2A 6364   6.970  13.468   8.408
  120POPC   C3A 6365   6.734  13.450   8.076
  120POPC   C4A 6366   6.874  13.430   7.683
  120POPC   C1B 6367   6.594  14.035   8.752
  120POPC   C2B 6368   6.600  13.868   8.329
  120POPC   C3B 6369   6.752  13.934   7.878
  120POPC   C4B 6370   6.703  13.893   7.419
  121POPC   NC3 6371  21.814  41.259   9.379
  121POPC   PO4 6372  22.287  41.777   9.389
  121POPC   GL1 6373  22.311  41.607   9.000
  121POPC   GL2 6374  22.247  41.262   9.053
  121POPC   C1A 6375  22.274  41.526   8.568
  121POPC   D2A 6376  22.388  41.452   8.137
  121POPC   C3A 6377  22.089  41.622   7.890
  121POPC   C4A 6378  22.119  41.790   7.470
  121POPC   C1B 6379  22.452  41.042   8.713
  121POPC   C2B 6380  22.259  40.992   8.314
  121POPC   C3B 6381  22.088  41.084   7.915
  121POPC   C4B 6382  22.187  41.287   7.531
  122POPC   NC3 6383  41.212  36.676   9.594
  122POPC   PO4 6384  41.534  37.248   9.627
  122POPC   GL1 6385  41.443  37.028   9.275
  122POPC   GL2 6386  41.736  36.814   9.229
  122POPC   C1A 6387  41.338  36.888   8.873
  122POPC   D2A 6388  41.275  37.120   8.492
  122POPC   C3A 6389  41.258  36.902   8.090
  122POPC   C4A 6390  41.395  37.141   7.737
  122POPC   C1B 6391  41.805  36.682   8.804
  122POPC   C2B 6392  41.677  36.792   8.417
  122POPC   C3B 6393  41.767  36.966   8.041
  122POPC   C4B 6394  41.725  36.785   7.612
  123POPC   NC3 6395  15.955   5.300   9.693
  123POPC   PO4 6396  15.877   4.709   9.521
  123POPC   GL1 6397  15.794   4.992   9.178
  123POPC   GL2 6398  15.979   5.326   9.154
  123POPC   C1A 6399  15.923   5.035   8.746
  123POPC   D2A 6400  15.807   4.941   8.340
  123POPC   C3A 6401  16.157   5.068   8.075
  123POPC   C4A 6402  16.122   5.012   7.648
  123POPC   C1B 6403  15.714   5.513   8.775
  123POPC   C2B 6404  15.588   5.406   8.355
  123POPC   C3B 6405  15.758   5.375   7.930
  123POPC   C4B 6406  16.071   5.661   7.723
  124POPC   NC3 6407  44.514  34.575   9.603
  124POPC   PO4 6408   0.060  34.775   9.352
  124POPC   GL1 6409  44.754  34.633   9.072
  124POPC   GL2 6410  44.480  34.413   9.127
  124POPC   C1A 6411  44.743  34.546   8.646
  124POPC   D2A 6412  44.678  34.748   8.259
  124POPC   C3A 6413  44.848  34.531   7.970
  124POPC   C4A 6414  44.803  34.423   7.558
  124POPC   C1B 6415  44.409  34.182   8.767
  124POPC   C2B 6416  44.346  34.342   8.342
  124POPC   C3B 6417  44.455  34.206   7.908
  124POPC   C4B 6418  44.390  34.150   7.456
  125POPC   NC3 6419  41.671   6.422   9.354
  125POPC   PO4 6420  41.371   6.947   9.261
  125POPC   GL1 6421  41.395   6.605   8.970
  125POPC   GL2 6422  41.162   6.362   8.969
  125POPC   C1A 6423  41.657   6.424   8.646
  125POPC   D2A 6424  41.783   6.550   8.207
  125POPC   C3A 6425  41.496   6.620   7.870
  125POPC   C4A 6426  41.453   6.785   7.432
  125POPC   C1B 6427  41.234   6.075   8.652
  125POPC   C2B 6428  41.545   6.074   8.281
  125POPC   C3B 6429  41.757   6.135   7.880
  125POPC   C4B 6430  41.537   6.272   7.500
  126POPC   NC3 6431   2.533   8.544   9.389
  126POPC   PO4 6432   2.768   7.916   9.390
  126POPC   GL1 6433   2.850   8.243   9.068
  126POPC   GL2 6434   3.155   8.454   9.030
  126POPC   C1A 6435   2.993   8.092   8.668
  126POPC   D2A 6436   2.783   8.226   8.325
  126POPC   C3A 6437   2.680   8.002   8.006
  126POPC   C4A 6438   2.629   8.198   7.599
  126POPC   C1B 6439   3.107   8.587   8.604
  126POPC   C2B 6440   3.211   8.451   8.182
  126POPC   C3B 6441   3.101   8.195   7.811
  126POPC   C4B 6442   3.051   8.168   7.342
  127POPC   NC3 6443  18.704  23.579   9.462
  127POPC   PO4 6444  18.174  23.792   9.351
  127POPC   GL1 6445  18.526  23.797   9.034
  127POPC   GL2 6446  18.719  23.440   8.986
  127POPC   C1A 6447  18.439  23.688   8.625
  127POPC   D2A 6448  18.387  23.499   8.236
  127POPC   C3A 6449  18.394  23.749   7.895
  127POPC   C4A 6450  18.045  23.686   7.634
  127POPC   C1B 6451  18.671  23.225   8.568
  127POPC   C2B 6452  18.526  23.002   8.161
  127POPC   C3B 6453  18.385  23.216   7.747
  127POPC   C4B 6454  18.405  23.397   7.305
  128POPC   NC3 6455  11.599   5.192   9.890
  128POPC   PO4 6456  11.174   5.027   9.372
  128POPC   GL1 6457  10.997   5.175   8.985
  128POPC   GL2 6458  11.277   5.412   8.928
  128POPC   C1A 6459  11.018   5.247   8.515
  128POPC   D2A 6460  11.414   5.405   8.421
  128POPC   C3A 6461  11.401   5.412   8.029
  128POPC   C4A 6462  11.133   5.354   7.727
  128POPC   C1B 6463  11.400   4.987   8.707
  128POPC   C2B 6464  11.315   4.900   8.247
  128POPC   C3B 6465  11.501   4.959   7.822
  128POPC   C4B 6466  11.479   4.847   7.375
  129POPC   NC3 6467  12.317   9.283   9.469
  129POPC   PO4 6468  11.852   8.766   9.588
  129POPC   GL1 6469  11.968   8.686   9.195
  129POPC   GL2 6470  12.321   8.803   9.180
  129POPC   C1A 6471  11.960   9.012   8.882
  129POPC   D2A 6472  12.176   9.042   8.482
  129POPC   C3A 6473  12.034   8.954   8.055
  129POPC   C4A 6474  11.920   9.241   7.734
  129POPC   C1B 6475  12.269   8.566   8.795
  129POPC   C2B 6476  12.248   8.360   8.407
  129POPC   C3B 6477  12.492   8.431   8.037
  129POPC   C4B 6478  12.376   8.692   7.720
  130POPC   NC3 6479  10.391  13.839   9.346
  130POPC   PO4 6480  10.652  13.185   9.360
  130POPC   GL1 6481  10.529  13.440   9.061
  130POPC   GL2 6482  10.808  13.656   9.069
  130POPC   C1A 6483  10.223  13.543   8.737
  130POPC   D2A 6484  10.078  13.390   8.344
  130POPC   C3A 6485  10.280  13.549   7.988
  130POPC   C4A 6486  10.416  13.851   7.715
  130POPC   C1B 6487  10.730  13.534   8.616
  130POPC   C2B 6488  10.608  13.794   8.296
  130POPC   C3B 6489  10.842  13.915   7.960
  130POPC   C4B 6490  10.847  13.488   7.830
  131POPC   NC3 6491  30.767  26.764   9.620
  131POPC   PO4 6492  30.095  26.645   9.618
  131POPC   GL1 6493  30.475  26.599   9.220
  131POPC   GL2 6494  30.814  26.838   9.133
  131POPC   C1A 6495  30.673  26.500   8.797
  131POPC   D2A 6496  30.781  26.663   8.412
  131POPC   C3A 6497  30.524  26.490   8.123
  131POPC   C4A 6498  30.540  26.648   7.730
  131POPC   C1B 6499  30.820  27.087   8.766
  131POPC   C2B 6500  30.854  27.249   8.372
  131POPC   C3B 6501  30.736  27.033   8.026
  131POPC   C4B 6502  30.892  27.002   7.616
  132POPC   NC3 6503  38.074  24.269   9.402
  132POPC   PO4 6504  37.462  24.558   9.233
  132POPC   GL1 6505  37.861  24.587   9.049
  132POPC   GL2 6506  38.015  24.921   9.022
  132POPC   C1A 6507  37.922  24.497   8.633
  132POPC   D2A 6508  37.674  24.483   8.273
  132POPC   C3A 6509  37.924  24.300   7.962
  132POPC   C4A 6510  37.752  24.371   7.590
  132POPC   C1B 6511  38.034  25.048   8.613
  132POPC   C2B 6512  38.067  24.816   8.244
  132POPC   C3B 6513  37.835  24.791   7.875
  132POPC   C4B 6514  37.868  24.826   7.388
  133POPC   NC3 6515  40.451  14.390   9.557
  133POPC   PO4 6516  41.099  14.423   9.490
  133POPC   GL1 6517  40.961  14.101   9.195
  133POPC   GL2 6518  40.638  14.209   9.115
  133POPC   C1A 6519  41.029  13.982   8.762
  133POPC   D2A 6520  40.986  13.983   8.296
  133POPC   C3A 6521  41.021  14.387   8.050
  133POPC   C4A 6522  41.028  14.847   7.936
  133POPC   C1B 6523  40.416  14.380   8.769
  133POPC   C2B 6524  40.356  14.290   8.322
  133POPC   C3B 6525  40.518  14.306   7.907
  133POPC   C4B 6526  40.463  14.344   7.478
  134POPC   NC3 6527  28.068  41.767   9.433
  134POPC   PO4 6528  28.443  41.269   9.688
  134POPC   GL1 6529  28.430  41.305   9.221
  134POPC   GL2 6530  28.594  41.610   9.115
  134POPC   C1A 6531  28.316  41.282   8.768
  134POPC   D2A 6532  28.503  41.244   8.351
  134POPC   C3A 6533  28.260  41.440   8.062
  134POPC   C4A 6534  28.130  41.497   7.679
  134POPC   C1B 6535  28.774  41.491   8.697
  134POPC   C2B 6536  28.862  41.619   8.274
  134POPC   C3B 6537  28.727  41.571   7.870
  134POPC   C4B 6538  28.506  41.849   7.637
  135POPC   NC3 6539  17.670  31.647   9.714
  135POPC   PO4 6540  17.291  31.056   9.703
  135POPC   GL1 6541  17.521  31.333   9.332
  135POPC   GL2 6542  17.449  31.694   9.215
  135POPC   C1A 6543  17.615  31.379   8.866
  135POPC   D2A 6544  17.359  31.368   8.465
  135POPC   C3A 6545  17.552  31.333   8.032
  135POPC   C4A 6546  17.700  31.112   7.644
  135POPC   C1B 6547  17.431  31.836   8.740
  135POPC   C2B 6548  17.732  31.722   8.358
  135POPC   C3B 6549  17.838  31.730   7.880
  135POPC   C4B 6550  17.505  31.725   7.591
  136POPC   NC3 6551  17.944   3.232   9.354
  136POPC   PO4 6552  18.581   3.384   9.487
  136POPC   GL1 6553  18.382   3.370   9.070
  136POPC   GL2 6554  18.292   3.703   8.875
  136POPC   C1A 6555  18.553   3.202   8.696
  136POPC   D2A 6556  18.583   3.391   8.309
  136POPC   C3A 6557  18.265   3.645   8.170
  136POPC   C4A 6558  18.216   3.765   7.746
  136POPC   C1B 6559  18.085   3.396   8.622
  136POPC   C2B 6560  18.047   3.166   8.221
  136POPC   C3B 6561  18.084   3.275   7.780
  136POPC   C4B 6562  17.760   3.434   7.456
  137POPC   NC3 6563  13.959   8.639   9.550
  137POPC   PO4 6564  13.436   9.200   9.497
  137POPC   GL1 6565  13.513   8.956   9.096
  137POPC   GL2 6566  13.805   8.753   9.089
  137POPC   C1A 6567  13.526   9.059   8.643
  137POPC   D2A 6568  13.808   9.157   8.305
  137POPC   C3A 6569  13.618   9.300   7.962
  137POPC   C4A 6570  13.663   9.173   7.561
  137POPC   C1B 6571  14.012   8.905   8.746
  137POPC   C2B 6572  14.092   8.749   8.337
  137POPC   C3B 6573  13.903   8.834   7.867
  137POPC   C4B 6574  13.709   8.703   7.412
  138POPC   NC3 6575  27.002   4.686   9.482
  138POPC   PO4 6576  26.532   4.204   9.517
  138POPC   GL1 6577  26.699   4.223   9.094
  138POPC   GL2 6578  27.052   4.296   9.131
  138POPC   C1A 6579  26.763   4.330   8.652
  138POPC   D2A 6580  26.767   4.191   8.255
  138POPC   C3A 6581  26.488   4.221   7.914
  138POPC   C4A 6582  26.838   4.232   7.650
  138POPC   C1B 6583  27.197   4.554   8.762
  138POPC   C2B 6584  27.119   4.641   8.301
  138POPC   C3B 6585  27.211   4.501   7.890
  138POPC   C4B 6586  27.215   4.519   7.448
  139POPC   NC3 6587  39.612   1.218   9.608
  139POPC   PO4 6588  39.076   0.813   9.635
  139POPC   GL1 6589  39.218   0.951   9.229
  139POPC   GL2 6590  39.572   1.015   9.156
  139POPC   C1A 6591  39.178   1.272   8.887
  139POPC   D2A 6592  38.990   1.478   8.523
  139POPC   C3A 6593  39.152   1.500   8.076
  139POPC   C4A 6594  39.154   1.636   7.617
  139POPC   C1B 6595  39.569   0.977   8.717
  139POPC   C2B 6596  39.179   0.998   8.430
  139POPC   C3B 6597  39.173   0.926   7.982
  139POPC   C4B 6598  39.577   0.816   7.783
  140POPC   NC3 6599  36.603   6.018   9.503
  140POPC   PO4 6600  36.833   5.414   9.467
  140POPC   GL1 6601  36.796   5.581   9.037
  140POPC   GL2 6602  36.705   5.891   9.013
  140POPC   C1A 6603  36.968   5.712   8.615
  140POPC   D2A 6604  37.293   5.594   8.305
  140POPC   C3A 6605  37.046   5.718   7.970
  140POPC   C4A 6606  36.618   5.624   7.837
  140POPC   C1B 6607  36.657   6.154   8.689
  140POPC   C2B 6608  36.818   6.239   8.286
  140POPC   C3B 6609  36.707   6.132   7.884
  140POPC   C4B 6610  36.564   6.231   7.490
  141POPC   NC3 6611  19.152  31.170   9.396
  141POPC   PO4 6612  18.754  31.780   9.593
  141POPC   GL1 6613  18.847  31.638   9.136
  141POPC   GL2 6614  18.950  31.307   8.959
  141POPC   C1A 6615  19.063  31.717   8.711
  141POPC   D2A 6616  18.983  31.510   8.299
  141POPC   C3A 6617  19.205  31.589   7.899
  141POPC   C4A 6618  19.404  31.706   7.485
  141POPC   C1B 6619  18.753  31.022   8.663
  141POPC   C2B 6620  18.385  31.056   8.426
  141POPC   C3B 6621  18.452  30.992   8.009
  141POPC   C4B 6622  18.841  31.145   7.865
  142POPC   NC3 6623   6.072  43.484   9.284
  142POPC   PO4 6624   5.860  42.840   9.595
  142POPC   GL1 6625   5.813  43.068   9.225
  142POPC   GL2 6626   6.177  42.966   9.183
  142POPC   C1A 6627   5.727  43.313   8.805
  142POPC   D2A 6628   5.969  43.411   8.446
  142POPC   C3A 6629   5.822  43.265   8.053
  142POPC   C4A 6630   5.864  43.397   7.637
  142POPC   C1B 6631   6.094  42.968   8.760
  142POPC   C2B 6632   6.043  42.794   8.376
  142POPC   C3B 6633   6.141  42.888   7.977
  142POPC   C4B 6634   5.941  42.896   7.620
  143POPC   NC3 6635  31.763  16.963   9.566
  143POPC   PO4 6636  31.186  16.766   9.457
  143POPC   GL1 6637  31.352  16.587   9.132
  143POPC   GL2 6638  31.679  16.549   9.236
  143POPC   C1A 6639  31.411  16.715   8.737
  143POPC   D2A 6640  31.394  16.619   8.333
  143POPC   C3A 6641  31.537  16.821   8.004
  143POPC   C4A 6642  31.327  16.823   7.620
  143POPC   C1B 6643  31.767  16.359   8.854
  143POPC   C2B 6644  31.878  16.551   8.469
  143POPC   C3B 6645  31.859  16.398   8.041
  143POPC   C4B 6646  31.645  16.434   7.661
  144POPC   NC3 6647   0.180   6.018   9.322
  144POPC   PO4 6648   0.612   5.574   9.440
  144POPC   GL1 6649   0.517   5.687   9.059
  144POPC   GL2 6650   0.181   5.549   9.065
  144POPC   C1A 6651   0.695   5.739   8.648
  144POPC   D2A 6652   0.868   5.949   8.264
  144POPC   C3A 6653   0.626   5.906   7.843
  144POPC   C4A 6654   0.824   5.631   7.484
  144POPC   C1B 6655   0.143   5.815   8.711
  144POPC   C2B 6656   0.320   5.852   8.325
  144POPC   C3B 6657   0.131   5.725   8.013
  144POPC   C4B 6658   0.103   5.965   7.668
  145POPC   NC3 6659  10.939  17.846   9.448
  145POPC   PO4 6660  11.379  17.383   9.472
  145POPC   GL1 6661  11.347  17.460   9.065
  145POPC   GL2 6662  11.272  17.824   9.035
  145POPC   C1A 6663  11.376  17.188   8.717
  145POPC   D2A 6664  11.159  17.083   8.310
  145POPC   C3A 6665  11.285  17.298   7.903
  145POPC   C4A 6666  11.477  17.518   7.484
  145POPC   C1B 6667  11.098  17.651   8.635
  145POPC   C2B 6668  11.080  17.676   8.186
  145POPC   C3B 6669  11.101  17.769   7.756
  145POPC   C4B 6670  10.983  17.683   7.356
  146POPC   NC3 6671  24.011  37.249   9.623
  146POPC   PO4 6672  23.721  36.639   9.448
  146POPC   GL1 6673  23.763  36.874   9.117
  146POPC   GL2 6674  23.448  36.763   9.029
  146POPC   C1A 6675  23.736  37.082   8.731
  146POPC   D2A 6676  23.943  36.934   8.404
  146POPC   C3A 6677  23.715  37.006   8.075
  146POPC   C4A 6678  23.711  36.884   7.689
  146POPC   C1B 6679  23.652  36.566   8.725
  146POPC   C2B 6680  23.451  36.700   8.402
  146POPC   C3B 6681  23.461  36.558   8.031
  146POPC   C4B 6682  23.295  36.604   7.676
  147POPC   NC3 6683  16.535  43.969   9.685
  147POPC   PO4 6684  17.168  43.873   9.461
  147POPC   GL1 6685  16.985  43.840   9.086
  147POPC   GL2 6686  16.639  43.815   9.201
  147POPC   C1A 6687  16.882  43.635   8.713
  147POPC   D2A 6688  17.113  43.609   8.322
  147POPC   C3A 6689  16.848  43.817   8.047
  147POPC   C4A 6690  16.572  43.648   7.782
  147POPC   C1B 6691  16.615  44.125   8.876
  147POPC   C2B 6692  16.770  44.095   8.477
  147POPC   C3B 6693  16.472  44.143   8.158
  147POPC   C4B 6694  16.452  44.134   7.718
  148POPC   NC3 6695  37.724  10.289   9.593
  148POPC   PO4 6696  37.468  10.932   9.620
  148POPC   GL1 6697  37.326  10.724   9.234
  148POPC   GL2 6698  37.347  10.365   9.195
  148POPC   C1A 6699  37.520  10.688   8.836
  148POPC   D2A 6700  37.811  10.511   8.530
  148POPC   C3A 6701  37.679  10.652   8.090
  148POPC   C4A 6702  37.591  10.600   7.620
  148POPC   C1B 6703  37.432  10.127   8.785
  148POPC   C2B 6704  37.597  10.076   8.354
  148POPC   C3B 6705  37.698  10.158   7.929
  148POPC   C4B 6706  37.400  10.062   7.620
  149POPC   NC3 6707  32.737  14.317   9.839
  149POPC   PO4 6708  33.296  14.573   9.545
  149POPC   GL1 6709  33.076  14.339   9.221
  149POPC   GL2 6710  32.800  14.451   9.313
  149POPC   C1A 6711  33.075  14.199   8.756
  149POPC   D2A 6712  33.309  14.274   8.374
  149POPC   C3A 6713  33.131  14.304   7.964
  149POPC   C4A 6714  33.320  14.571   7.674
  149POPC   C1B 6715  32.711  14.561   8.891
  149POPC   C2B 6716  32.529  14.479   8.473
  149POPC   C3B 6717  32.691  14.550   8.066
  149POPC   C4B 6718  32.740  14.479   7.625
  150POPC   NC3 6719  12.380  15.485   9.505
  150POPC   PO4 6720  13.060  15.621   9.411
  150POPC   GL1 6721  12.978  15.891   9.109
  150POPC   GL2 6722  12.689  16.089   9.242
  150POPC   C1A 6723  13.102  16.069   8.748
  150POPC   D2A 6724  12.852  16.149   8.399
  150POPC   C3A 6725  13.034  16.038   8.037
  150POPC   C4A 6726  12.984  16.041   7.615
  150POPC   C1B 6727  12.573  15.935   8.812
  150POPC   C2B 6728  12.487  15.777   8.363
  150POPC   C3B 6729  12.598  15.763   7.891
  150POPC   C4B 6730  12.532  15.876   7.437
  151POPC   NC3 6731  35.886   4.815   9.449
  151POPC   PO4 6732  36.127   5.392   9.572
  151POPC   GL1 6733  36.254   5.221   9.151
  151POPC   GL2 6734  36.037   5.020   9.003
  151POPC   C1A 6735  36.386   5.247   8.688
  151POPC   D2A 6736  36.427   5.387   8.256
  151POPC   C3A 6737  36.397   5.144   7.905
  151POPC   C4A 6738  36.163   4.950   7.577
  151POPC   C1B 6739  36.053   4.837   8.597
  151POPC   C2B 6740  36.012   4.960   8.168
  151POPC   C3B 6741  35.722   5.028   7.824
  151POPC   C4B 6742  35.699   4.785   7.420
  152POPC   NC3 6743   4.459  35.542   9.481
  152POPC   PO4 6744   3.873  35.213   9.415
  152POPC   GL1 6745   4.192  35.198   9.097
  152POPC   GL2 6746   4.265  35.562   8.999
  152POPC   C1A 6747   4.383  35.192   8.672
  152POPC   D2A 6748   4.425  35.634   8.459
  152POPC   C3A 6749   4.481  35.558   7.995
  152POPC   C4A 6750   4.550  35.283   7.620
  152POPC   C1B 6751   3.933  35.396   8.688
  152POPC   C2B 6752   4.060  35.344   8.252
  152POPC   C3B 6753   3.914  35.574   7.921
  152POPC   C4B 6754   4.095  35.486   7.547
  153POPC   NC3 6755  37.167  13.706   9.494
  153POPC   PO4 6756  36.556  13.846   9.594
  153POPC   GL1 6757  36.770  13.561   9.229
  153POPC   GL2 6758  36.999  13.256   9.247
  153POPC   C1A 6759  37.039  13.597   8.835
  153POPC   D2A 6760  36.919  13.680   8.413
  153POPC   C3A 6761  37.043  13.539   8.002
  153POPC   C4A 6762  36.843  13.562   7.597
  153POPC   C1B 6763  37.194  13.105   8.846
  153POPC   C2B 6764  37.222  13.259   8.425
  153POPC   C3B 6765  37.306  13.107   8.028
  153POPC   C4B 6766  37.139  13.162   7.623
  154POPC   NC3 6767   0.824  43.437   9.429
  154POPC   PO4 6768   0.244  43.186   9.402
  154POPC   GL1 6769   0.371  43.061   9.034
  154POPC   GL2 6770   0.656  42.925   9.170
  154POPC   C1A 6771   0.335  43.029   8.584
  154POPC   D2A 6772   0.447  42.882   8.179
  154POPC   C3A 6773   0.257  43.131   7.847
  154POPC   C4A 6774   0.201  43.137   7.395
  154POPC   C1B 6775   0.804  43.178   8.791
  154POPC   C2B 6776   0.763  43.253   8.341
  154POPC   C3B 6777   0.750  43.182   7.878
  154POPC   C4B 6778   0.704  43.109   7.396
  155POPC   NC3 6779   2.582  43.460   9.418
  155POPC   PO4 6780   3.038  43.956   9.403
  155POPC   GL1 6781   2.705  43.865   9.126
  155POPC   GL2 6782   2.632  44.175   8.995
  155POPC   C1A 6783   2.737  43.637   8.743
  155POPC   D2A 6784   2.911  43.796   8.386
  155POPC   C3A 6785   2.764  43.760   7.983
  155POPC   C4A 6786   2.871  44.149   7.852
  155POPC   C1B 6787   2.390  44.183   8.638
  155POPC   C2B 6788   2.456  44.101   8.216
  155POPC   C3B 6789   2.367  44.210   7.814
  155POPC   C4B 6790   2.503  44.277   7.375
  156POPC   NC3 6791   0.065  31.061   9.489
  156POPC   PO4 6792   0.708  31.455   9.434
  156POPC   GL1 6793   0.384  31.489   9.095
  156POPC   GL2 6794   0.104  31.735   9.063
  156POPC   C1A 6795   0.487  31.742   8.721
  156POPC   D2A 6796   0.710  31.886   8.374
  156POPC   C3A 6797   0.571  31.663   8.032
  156POPC   C4A 6798   0.459  31.339   7.746
  156POPC   C1B 6799   0.028  31.520   8.625
  156POPC   C2B 6800   0.091  31.492   8.157
  156POPC   C3B 6801  44.960  31.218   7.815
  156POPC   C4B 6802  44.936  31.209   7.344
  157POPC   NC3 6803  20.915  28.101   9.485
  157POPC   PO4 6804  21.597  28.179   9.541
  157POPC   GL1 6805  21.461  28.459   9.198
  157POPC   GL2 6806  21.121  28.495   9.224
  157POPC   C1A 6807  21.515  28.446   8.769
  157POPC   D2A 6808  21.400  28.603   8.372
  157POPC   C3A 6809  21.669  28.400   8.056
  157POPC   C4A 6810  21.668  28.301   7.613
  157POPC   C1B 6811  21.029  28.586   8.800
  157POPC   C2B 6812  20.953  28.352   8.444
  157POPC   C3B 6813  20.948  28.336   8.016
  157POPC   C4B 6814  21.155  28.430   7.613
  158POPC   NC3 6815  40.483  30.428   9.307
  158POPC   PO4 6816  39.934  30.951   9.425
  158POPC   GL1 6817  40.209  30.814   9.130
  158POPC   GL2 6818  39.994  30.541   9.044
  158POPC   C1A 6819  40.400  30.667   8.717
  158POPC   D2A 6820  40.598  30.676   8.305
  158POPC   C3A 6821  40.349  30.546   7.910
  158POPC   C4A 6822  40.205  30.803   7.517
  158POPC   C1B 6823  39.922  30.868   8.729
  158POPC   C2B 6824  40.059  30.749   8.338
  158POPC   C3B 6825  40.002  30.909   7.978
  158POPC   C4B 6826  39.826  31.135   7.691
  159POPC   NC3 6827  24.432  12.862   9.692
  159POPC   PO4 6828  24.802  13.386   9.431
  159POPC   GL1 6829  24.727  13.113   9.113
  159POPC   GL2 6830  24.569  12.807   9.208
  159POPC   C1A 6831  24.505  13.057   8.742
  159POPC   D2A 6832  24.359  13.021   8.308
  159POPC   C3A 6833  24.627  12.824   7.995
  159POPC   C4A 6834  24.610  12.980   7.573
  159POPC   C1B 6835  24.288  12.613   8.916
  159POPC   C2B 6836  24.298  12.531   8.480
  159POPC   C3B 6837  24.123  12.628   8.064
  159POPC   C4B 6838  24.254  12.624   7.655
  160POPC   NC3 6839  28.705  27.314   9.233
  160POPC   PO4 6840  28.333  27.792   9.523
  160POPC   GL1 6841  28.245  27.472   9.081
  160POPC   GL2 6842  28.562  27.355   8.765
  160POPC   C1A 6843  28.093  27.373   8.657
  160POPC   D2A 6844  28.365  27.522   8.282
  160POPC   C3A 6845  28.222  27.564   7.826
  160POPC   C4A 6846  28.007  27.384   7.437
  160POPC   C1B 6847  28.908  27.493   8.463
  160POPC   C2B 6848  29.011  27.902   8.303
  160POPC   C3B 6849  28.689  27.996   8.022
  160POPC   C4B 6850  28.631  27.831   7.597
  161POPC   NC3 6851   7.072   3.622   9.374
  161POPC   PO4 6852   7.688   3.761   9.715
  161POPC   GL1 6853   7.597   3.607   9.282
  161POPC   GL2 6854   7.630   3.296   9.133
  161POPC   C1A 6855   7.501   3.673   8.834
  161POPC   D2A 6856   7.287   3.660   8.439
  161POPC   C3A 6857   7.541   3.668   8.073
  161POPC   C4A 6858   7.674   3.567   7.663
  161POPC   C1B 6859   7.285   3.218   8.790
  161POPC   C2B 6860   7.164   3.174   8.345
  161POPC   C3B 6861   7.404   3.166   7.963
  161POPC   C4B 6862   7.354   3.200   7.506
  162POPC   NC3 6863  30.237  17.554   9.597
  162POPC   PO4 6864  29.656  17.247   9.518
  162POPC   GL1 6865  29.873  17.495   9.198
  162POPC   GL2 6866  30.159  17.751   9.147
  162POPC   C1A 6867  29.791  17.635   8.806
  162POPC   D2A 6868  29.709  17.438   8.428
  162POPC   C3A 6869  29.788  17.631   8.035
  162POPC   C4A 6870  29.704  17.472   7.637
  162POPC   C1B 6871  30.264  17.430   8.858
  162POPC   C2B 6872  30.187  17.659   8.474
  162POPC   C3B 6873  30.314  17.556   8.088
  162POPC   C4B 6874  30.220  17.464   7.670
  163POPC   NC3 6875  20.006  25.939   9.517
  163POPC   PO4 6876  19.602  26.491   9.523
  163POPC   GL1 6877  19.717  26.237   9.185
  163POPC   GL2 6878  19.796  25.906   9.059
  163POPC   C1A 6879  19.803  26.280   8.728
  163POPC   D2A 6880  19.675  26.408   8.319
  163POPC   C3A 6881  19.873  26.230   7.961
  163POPC   C4A 6882  19.734  26.004   7.574
  163POPC   C1B 6883  19.830  25.736   8.663
  163POPC   C2B 6884  20.028  25.890   8.307
  163POPC   C3B 6885  19.969  25.690   7.921
  163POPC   C4B 6886  19.585  25.563   7.810
  164POPC   NC3 6887   5.295  36.988   9.538
  164POPC   PO4 6888   4.602  37.013   9.595
  164POPC   GL1 6889   4.854  37.007   9.224
  164POPC   GL2 6890   5.174  36.875   9.051
  164POPC   C1A 6891   4.774  36.991   8.772
  164POPC   D2A 6892   4.965  36.875   8.386
  164POPC   C3A 6893   4.831  37.110   8.064
  164POPC   C4A 6894   4.903  36.905   7.700
  164POPC   C1B 6895   5.294  37.146   8.660
  164POPC   C2B 6896   5.275  37.321   8.269
  164POPC   C3B 6897   5.355  37.034   7.906
  164POPC   C4B 6898   5.338  36.605   7.734
  165POPC   NC3 6899  14.745   4.978   9.771
  165POPC   PO4 6900  15.438   5.036   9.566
  165POPC   GL1 6901  15.240   4.973   9.198
  165POPC   GL2 6902  14.846   4.982   9.257
  165POPC   C1A 6903  15.407   5.037   8.777
  165POPC   D2A 6904  15.157   5.021   8.402
  165POPC   C3A 6905  15.394   5.008   8.025
  165POPC   C4A 6906  15.443   4.802   7.609
  165POPC   C1B 6907  14.896   5.138   8.844
  165POPC   C2B 6908  15.145   5.471   8.628
  165POPC   C3B 6909  15.129   5.458   8.156
  165POPC   C4B 6910  14.878   5.263   7.831
  166POPC   NC3 6911  13.823  27.855   9.376
  166POPC   PO4 6912  14.352  28.367   9.398
  166POPC   GL1 6913  14.189  28.355   9.041
  166POPC   GL2 6914  14.182  28.019   9.043
  166POPC   C1A 6915  14.119  28.373   8.644
  166POPC   D2A 6916  14.366  28.448   8.283
  166POPC   C3A 6917  14.158  28.364   7.889
  166POPC   C4A 6918  14.409  28.260   7.535
  166POPC   C1B 6919  14.523  28.073   8.770
  166POPC   C2B 6920  14.394  27.929   8.391
  166POPC   C3B 6921  14.521  27.980   7.985
  166POPC   C4B 6922  14.353  27.758   7.658
  167POPC   NC3 6923  10.164   6.048   9.384
  167POPC   PO4 6924   9.595   5.658   9.490
  167POPC   GL1 6925   9.748   5.816   9.140
  167POPC   GL2 6926   9.616   6.144   9.188
  167POPC   C1A 6927   9.906   5.977   8.763
  167POPC   D2A 6928   9.919   5.762   8.388
  167POPC   C3A 6929   9.928   6.000   8.055
  167POPC   C4A 6930   9.728   5.830   7.722
  167POPC   C1B 6931   9.433   6.240   8.800
  167POPC   C2B 6932   9.574   6.171   8.417
  167POPC   C3B 6933   9.423   5.983   8.102
  167POPC   C4B 6934   9.216   5.921   7.744
  168POPC   NC3 6935   6.846  14.895   9.244
  168POPC   PO4 6936   6.947  14.233   9.516
  168POPC   GL1 6937   6.752  14.362   9.150
  168POPC   GL2 6938   6.431  14.496   9.224
  168POPC   C1A 6939   6.889  14.466   8.740
  168POPC   D2A 6940   6.736  14.363   8.364
  168POPC   C3A 6941   6.977  14.375   8.008
  168POPC   C4A 6942   6.775  14.607   7.757
  168POPC   C1B 6943   6.339  14.485   8.782
  168POPC   C2B 6944   6.221  14.203   8.430
  168POPC   C3B 6945   6.357  14.251   8.037
  168POPC   C4B 6946   6.430  14.257   7.616
  169POPC   NC3 6947  38.693  33.280   9.407
  169POPC   PO4 6948  38.429  32.653   9.534
  169POPC   GL1 6949  38.389  32.904   9.178
  169POPC   GL2 6950  38.152  32.646   9.092
  169POPC   C1A 6951  38.453  33.191   8.792
  169POPC   D2A 6952  38.556  33.336   8.368
  169POPC   C3A 6953  38.209  33.368   8.071
  169POPC   C4A 6954  38.158  33.222   7.624
  169POPC   C1B 6955  38.389  32.687   8.730
  169POPC   C2B 6956  38.584  32.793   8.361
  169POPC   C3B 6957  38.396  32.812   7.947
  169POPC   C4B 6958  38.321  32.729   7.510
  170POPC   NC3 6959   1.033  32.797   9.389
  170POPC   PO4 6960   1.005  32.125   9.423
  170POPC   GL1 6961   1.205  32.124   9.042
  170POPC   GL2 6962   1.227  32.487   9.032
  170POPC   C1A 6963   1.150  31.908   8.639
  170POPC   D2A 6964   1.247  31.874   8.207
  170POPC   C3A 6965   0.975  32.070   7.947
  170POPC   C4A 6966   1.145  32.385   7.694
  170POPC   C1B 6967   1.304  32.594   8.613
  170POPC   C2B 6968   1.352  32.401   8.199
  170POPC   C3B 6969   1.576  32.571   7.838
  170POPC   C4B 6970   1.517  32.724   7.385
  171POPC   NC3 6971   0.828  20.432   9.468
  171POPC   PO4 6972   1.323  20.875   9.516
  171POPC   GL1 6973   1.228  20.668   9.197
  171POPC   GL2 6974   0.959  20.886   9.114
  171POPC   C1A 6975   1.500  20.460   8.881
  171POPC   D2A 6976   1.657  20.555   8.474
  171POPC   C3A 6977   1.364  20.404   8.154
  171POPC   C4A 6978   1.360  20.454   7.703
  171POPC   C1B 6979   1.052  20.631   8.726
  171POPC   C2B 6980   1.241  20.846   8.386
  171POPC   C3B 6981   1.131  20.816   7.962
  171POPC   C4B 6982   0.967  21.130   7.747
  172POPC   NC3 6983  43.448  26.822   9.986
  172POPC   PO4 6984  43.035  26.766   9.411
  172POPC   GL1 6985  43.148  26.862   9.014
  172POPC   GL2 6986  43.332  27.173   9.020
  172POPC   C1A 6987  43.275  26.703   8.631
  172POPC   D2A 6988  43.298  26.814   8.232
  172POPC   C3A 6989  43.084  26.651   7.910
  172POPC   C4A 6990  43.453  26.611   7.731
  172POPC   C1B 6991  43.164  27.201   8.610
  172POPC   C2B 6992  43.291  27.314   8.218
  172POPC   C3B 6993  43.320  27.114   7.807
  172POPC   C4B 6994  43.058  26.944   7.479
  173POPC   NC3 6995  38.364  11.735   9.561
  173POPC   PO4 6996  38.755  12.354   9.593
  173POPC   GL1 6997  38.667  12.188   9.202
  173POPC   GL2 6998  38.545  11.880   9.075
  173POPC   C1A 6999  38.541  12.340   8.800
  173POPC   D2A 7000  38.305  12.322   8.414
  173POPC   C3A 7001  38.538  12.245   8.045
  173POPC   C4A 7002  38.306  12.298   7.700
  173POPC   C1B 7003  38.242  11.906   8.724
  173POPC   C2B 7004  38.038  11.885   8.302
  173POPC   C3B 7005  38.293  11.807   7.911
  173POPC   C4B 7006  38.734  11.650   7.878
  174POPC   NC3 7007  20.643  19.490   9.404
  174POPC   PO4 7008  20.422  20.181   9.551
  174POPC   GL1 7009  20.466  19.929   9.186
  174POPC   GL2 7010  20.783  19.883   9.062
  174POPC   C1A 7011  20.405  19.912   8.737
  174POPC   D2A 7012  20.433  20.133   8.338
  174POPC   C3A 7013  20.467  19.834   7.991
  174POPC   C4A 7014  20.492  19.855   7.523
  174POPC   C1B 7015  20.847  20.164   8.723
  174POPC   C2B 7016  20.942  20.024   8.325
  174POPC   C3B 7017  21.034  19.675   8.129
  174POPC   C4B 7018  20.924  19.818   7.754
  175POPC   NC3 7019  32.049  41.758   9.477
  175POPC   PO4 7020  32.669  41.633   9.534
  175POPC   GL1 7021  32.523  41.376   9.167
  175POPC   GL2 7022  32.161  41.385   9.081
  175POPC   C1A 7023  32.518  41.518   8.746
  175POPC   D2A 7024  32.620  41.729   8.402
  175POPC   C3A 7025  32.620  41.618   8.015
  175POPC   C4A 7026  32.296  41.664   7.743
  175POPC   C1B 7027  32.135  41.218   8.652
  175POPC   C2B 7028  32.150  41.482   8.258
  175POPC   C3B 7029  31.841  41.511   7.914
  175POPC   C4B 7030  32.014  41.288   7.560
  176POPC   NC3 7031   4.836  19.609   9.537
  176POPC   PO4 7032   4.151  19.366   9.560
  176POPC   GL1 7033   4.203  19.551   9.163
  176POPC   GL2 7034   4.535  19.496   9.161
  176POPC   C1A 7035   4.313  19.868   8.862
  176POPC   D2A 7036   4.278  20.079   8.477
  176POPC   C3A 7037   4.130  19.915   8.111
  176POPC   C4A 7038   4.299  19.985   7.696
  176POPC   C1B 7039   4.559  19.414   8.750
  176POPC   C2B 7040   4.413  19.584   8.403
  176POPC   C3B 7041   4.431  19.523   7.969
  176POPC   C4B 7042   4.696  19.584   7.617
  177POPC   NC3 7043   1.006  28.055   9.602
  177POPC   PO4 7044   1.424  28.631   9.553
  177POPC   GL1 7045   1.314  28.676   9.169
  177POPC   GL2 7046   1.154  28.349   9.199
  177POPC   C1A 7047   1.366  28.495   8.757
  177POPC   D2A 7048   1.204  28.295   8.395
  177POPC   C3A 7049   1.221  28.531   8.024
  177POPC   C4A 7050   1.439  28.427   7.678
  177POPC   C1B 7051   0.922  28.235   8.849
  177POPC   C2B 7052   0.726  28.104   8.452
  177POPC   C3B 7053   0.891  28.084   8.035
  177POPC   C4B 7054   0.720  28.097   7.657
  178POPC   NC3 7055  22.855  39.684   9.607
  178POPC   PO4 7056  22.693  40.292   9.277
  178POPC   GL1 7057  22.886  40.179   8.993
  178POPC   GL2 7058  23.155  40.070   9.187
  178POPC   C1A 7059  22.949  40.206   8.585
  178POPC   D2A 7060  23.196  40.389   8.286
  178POPC   C3A 7061  23.061  40.177   7.969
  178POPC   C4A 7062  22.933  40.404   7.657
  178POPC   C1B 7063  23.318  39.942   8.829
  178POPC   C2B 7064  23.346  39.894   8.432
  178POPC   C3B 7065  23.491  39.920   8.061
  178POPC   C4B 7066  23.346  39.845   7.690
  179POPC   NC3 7067  36.962  10.935   9.606
  179POPC   PO4 7068  36.687  10.321   9.491
  179POPC   GL1 7069  36.859  10.510   9.160
  179POPC   GL2 7070  36.769  10.836   9.141
  179POPC   C1A 7071  37.063  10.471   8.775
  179POPC   D2A 7072  37.319  10.486   8.416
  179POPC   C3A 7073  37.243  10.367   8.004
  179POPC   C4A 7074  37.094  10.496   7.590
  179POPC   C1B 7075  36.613  10.675   8.733
  179POPC   C2B 7076  36.854  10.687   8.364
  179POPC   C3B 7077  36.813  10.629   7.980
  179POPC   C4B 7078  36.779  10.894   7.683
  180POPC   NC3 7079  24.982  33.270   9.496
  180POPC   PO4 7080  25.563  32.956   9.550
  180POPC   GL1 7081  25.430  33.152   9.180
  180POPC   GL2 7082  25.134  32.972   9.124
  180POPC   C1A 7083  25.439  33.178   8.721
  180POPC   D2A 7084  25.625  32.931   8.347
  180POPC   C3A 7085  25.518  32.956   7.887
  180POPC   C4A 7086  25.523  33.087   7.407
  180POPC   C1B 7087  24.943  33.035   8.741
  180POPC   C2B 7088  25.105  32.968   8.344
  180POPC   C3B 7089  24.898  32.860   7.995
  180POPC   C4B 7090  24.700  33.135   7.779
  181POPC   NC3 7091  16.959   7.653   9.592
  181POPC   PO4 7092  16.677   7.087   9.905
  181POPC   GL1 7093  16.791   7.146   9.441
  181POPC   GL2 7094  16.541   7.371   9.295
  181POPC   C1A 7095  16.952   7.292   8.998
  181POPC   D2A 7096  16.875   7.546   8.604
  181POPC   C3A 7097  16.874   7.435   8.155
  181POPC   C4A 7098  16.900   7.746   7.832
  181POPC   C1B 7099  16.460   7.309   8.835
  181POPC   C2B 7100  16.409   7.090   8.434
  181POPC   C3B 7101  16.498   7.119   7.991
  181POPC   C4B 7102  16.531   7.173   7.542
  182POPC   NC3 7103  41.708  24.177   9.790
  182POPC   PO4 7104  41.376  24.689   9.703
  182POPC   GL1 7105  41.373  24.615   9.206
  182POPC   GL2 7106  41.030  24.500   9.162
  182POPC   C1A 7107  41.593  24.435   8.780
  182POPC   D2A 7108  41.455  24.271   8.325
  182POPC   C3A 7109  41.673  24.289   7.906
  182POPC   C4A 7110  41.797  24.633   7.633
  182POPC   C1B 7111  41.114  24.568   8.728
  182POPC   C2B 7112  41.371  24.772   8.423
  182POPC   C3B 7113  41.316  24.664   7.963
  182POPC   C4B 7114  41.175  24.243   7.756
  183POPC   NC3 7115  35.663  31.796   9.766
  183POPC   PO4 7116  35.306  31.461   9.340
  183POPC   GL1 7117  35.290  31.423   8.970
  183POPC   GL2 7118  35.274  31.789   8.916
  183POPC   C1A 7119  35.337  31.127   8.664
  183POPC   D2A 7120  35.482  31.234   8.278
  183POPC   C3A 7121  35.156  31.295   7.982
  183POPC   C4A 7122  35.171  31.312   7.527
  183POPC   C1B 7123  35.265  31.643   8.515
  183POPC   C2B 7124  35.298  31.765   8.128
  183POPC   C3B 7125  35.109  31.821   7.733
  183POPC   C4B 7126  35.019  31.735   7.304
  184POPC   NC3 7127   6.596  28.397  10.139
  184POPC   PO4 7128   6.229  28.534   9.562
  184POPC   GL1 7129   6.296  28.523   9.109
  184POPC   GL2 7130   6.557  28.278   9.014
  184POPC   C1A 7131   6.401  28.635   8.679
  184POPC   D2A 7132   6.536  28.507   8.278
  184POPC   C3A 7133   6.327  28.605   7.874
  184POPC   C4A 7134   6.563  28.727   7.490
  184POPC   C1B 7135   6.881  28.470   8.698
  184POPC   C2B 7136   7.044  28.647   8.293
  184POPC   C3B 7137   6.862  28.575   7.885
  184POPC   C4B 7138   6.604  28.175   7.867
  185POPC   NC3 7139  22.445  25.828   9.563
  185POPC   PO4 7140  22.010  26.399   9.642
  185POPC   GL1 7141  21.934  26.294   9.219
  185POPC   GL2 7142  22.045  25.933   9.153
  185POPC   C1A 7143  22.080  26.310   8.798
  185POPC   D2A 7144  22.000  25.987   8.530
  185POPC   C3A 7145  22.083  26.098   8.153
  185POPC   C4A 7146  22.046  26.028   7.771
  185POPC   C1B 7147  22.397  25.888   8.828
  185POPC   C2B 7148  22.512  25.897   8.360
  185POPC   C3B 7149  22.498  25.821   7.892
  185POPC   C4B 7150  22.462  25.860   7.442
  186POPC   NC3 7151  12.034  26.475   9.451
  186POPC   PO4 7152  12.309  26.995   9.549
  186POPC   GL1 7153  12.334  26.906   9.124
  186POPC   GL2 7154  11.989  26.869   9.125
  186POPC   C1A 7155  12.200  26.801   8.689
  186POPC   D2A 7156  12.134  26.526   8.363
  186POPC   C3A 7157  12.057  26.718   7.985
  186POPC   C4A 7158  12.264  26.835   7.635
  186POPC   C1B 7159  11.734  26.678   8.824
  186POPC   C2B 7160  11.685  26.772   8.397
  186POPC   C3B 7161  11.593  26.991   8.038
  186POPC   C4B 7162  11.764  27.031   7.648
  187POPC   NC3 7163  29.075  37.165   9.620
  187POPC   PO4 7164  29.555  36.682   9.536
  187POPC   GL1 7165  29.334  36.866   9.231
  187POPC   GL2 7166  29.396  37.184   9.104
  187POPC   C1A 7167  29.428  36.746   8.799
  187POPC   D2A 7168  29.274  36.697   8.381
  187POPC   C3A 7169  29.512  36.697   7.995
  187POPC   C4A 7170  29.282  36.863   7.654
  187POPC   C1B 7171  29.004  37.045   8.884
  187POPC   C2B 7172  28.863  37.006   8.454
  187POPC   C3B 7173  28.948  37.138   7.986
  187POPC   C4B 7174  28.768  37.374   7.591
  188POPC   NC3 7175  20.333  13.584   9.961
  188POPC   PO4 7176  20.792  13.714   9.537
  188POPC   GL1 7177  20.456  13.651   9.218
  188POPC   GL2 7178  20.620  13.363   9.148
  188POPC   C1A 7179  20.252  13.469   8.809
  188POPC   D2A 7180  20.096  13.493   8.377
  188POPC   C3A 7181  20.297  13.365   8.008
  188POPC   C4A 7182  20.350  13.772   7.827
  188POPC   C1B 7183  20.709  13.666   8.783
  188POPC   C2B 7184  20.644  13.446   8.402
  188POPC   C3B 7185  20.784  13.551   8.013
  188POPC   C4B 7186  20.828  13.978   7.885
  189POPC   NC3 7187  28.481  39.851   9.588
  189POPC   PO4 7188  28.130  40.463   9.468
  189POPC   GL1 7189  28.196  40.084   9.207
  189POPC   GL2 7190  27.929  39.978   8.972
  189POPC   C1A 7191  28.415  40.048   8.816
  189POPC   D2A 7192  28.382  40.200   8.408
  189POPC   C3A 7193  28.344  39.894   8.080
  189POPC   C4A 7194  28.392  39.945   7.658
  189POPC   C1B 7195  28.016  40.390   8.783
  189POPC   C2B 7196  27.972  40.517   8.347
  189POPC   C3B 7197  28.090  40.328   7.933
  189POPC   C4B 7198  27.991  40.192   7.477
  190POPC   NC3 7199  42.586  42.056   9.790
  190POPC   PO4 7200  42.226  42.635   9.584
  190POPC   GL1 7201  42.512  42.370   9.346
  190POPC   GL2 7202  42.467  42.618   9.109
  190POPC   C1A 7203  42.506  42.122   8.940
  190POPC   D2A 7204  42.355  42.046   8.475
  190POPC   C3A 7205  42.217  42.288   8.077
  190POPC   C4A 7206  41.886  42.081   7.800
  190POPC   C1B 7207  42.291  42.530   8.716
  190POPC   C2B 7208  42.503  42.616   8.382
  190POPC   C3B 7209  42.652  42.581   7.970
  190POPC   C4B 7210  42.338  42.615   7.642
  191POPC   NC3 7211  26.699  19.124   9.538
  191POPC   PO4 7212  27.154  18.685   9.641
  191POPC   GL1 7213  27.006  18.890   9.208
  191POPC   GL2 7214  26.854  19.228   9.056
  191POPC   C1A 7215  27.107  18.881   8.769
  191POPC   D2A 7216  26.894  18.691   8.419
  191POPC   C3A 7217  26.772  19.035   8.166
  191POPC   C4A 7218  26.995  19.155   7.803
  191POPC   C1B 7219  26.766  19.339   8.603
  191POPC   C2B 7220  26.559  19.540   8.241
  191POPC   C3B 7221  26.624  19.495   7.797
  191POPC   C4B 7222  26.740  19.565   7.348
  192POPC   NC3 7223  26.666  35.762   9.279
  192POPC   PO4 7224  26.523  36.337   9.618
  192POPC   GL1 7225  26.707  36.253   9.179
  192POPC   GL2 7226  27.079  36.260   9.217
  192POPC   C1A 7227  26.632  36.065   8.713
  192POPC   D2A 7228  26.557  36.064   8.245
  192POPC   C3A 7229  26.816  36.251   7.926
  192POPC   C4A 7230  26.812  36.012   7.562
  192POPC   C1B 7231  27.093  36.316   8.781
  192POPC   C2B 7232  27.040  36.116   8.378
  192POPC   C3B 7233  27.171  35.892   8.025
  192POPC   C4B 7234  27.321  36.028   7.642
  193POPC   NC3 7235  30.982  17.174   9.427
  193POPC   PO4 7236  30.668  17.568   9.776
  193POPC   GL1 7237  30.599  17.472   9.233
  193POPC   GL2 7238  30.882  17.427   9.017
  193POPC   C1A 7239  30.639  17.736   8.733
  193POPC   D2A 7240  30.615  17.955   8.326
  193POPC   C3A 7241  30.889  17.824   7.987
  193POPC   C4A 7242  30.747  17.421   7.842
  193POPC   C1B 7243  30.749  17.234   8.614
  193POPC   C2B 7244  30.916  17.041   8.220
  193POPC   C3B 7245  30.852  16.944   7.755
  193POPC   C4B 7246  31.002  17.180   7.374
  194POPC   NC3 7247  40.885  22.617   9.506
  194POPC   PO4 7248  40.633  21.981   9.530
  194POPC   GL1 7249  40.794  22.216   9.190
  194POPC   GL2 7250  40.540  22.504   9.122
  194POPC   C1A 7251  41.017  22.083   8.833
  194POPC   D2A 7252  40.906  21.894   8.450
  194POPC   C3A 7253  41.132  21.950   8.096
  194POPC   C4A 7254  41.008  22.116   7.752
  194POPC   C1B 7255  40.812  22.571   8.809
  194POPC   C2B 7256  40.912  22.390   8.422
  194POPC   C3B 7257  40.659  22.228   8.103
  194POPC   C4B 7258  40.703  22.507   7.762
  195POPC   NC3 7259  14.346   7.742   9.459
  195POPC   PO4 7260  14.116   7.106   9.573
  195POPC   GL1 7261  14.197   7.186   9.066
  195POPC   GL2 7262  14.468   7.490   9.011
  195POPC   C1A 7263  14.173   7.286   8.632
  195POPC   D2A 7264  14.155   7.110   8.230
  195POPC   C3A 7265  14.307   7.406   7.965
  195POPC   C4A 7266  14.378   7.583   7.554
  195POPC   C1B 7267  14.658   7.123   8.787
  195POPC   C2B 7268  14.936   6.929   8.455
  195POPC   C3B 7269  14.710   7.054   8.081
  195POPC   C4B 7270  14.690   7.219   7.694
  196POPC   NC3 7271   1.555  14.311   9.728
  196POPC   PO4 7272   2.256  14.215   9.710
  196POPC   GL1 7273   2.238  14.317   9.214
  196POPC   GL2 7274   1.931  14.324   9.010
  196POPC   C1A 7275   2.296  14.211   8.721
  196POPC   D2A 7276   2.072  14.220   8.319
  196POPC   C3A 7277   2.358  14.309   7.985
  196POPC   C4A 7278   2.636  14.200   7.667
  196POPC   C1B 7279   2.024  14.626   8.681
  196POPC   C2B 7280   2.302  14.726   8.352
  196POPC   C3B 7281   2.128  14.754   7.930
  196POPC   C4B 7282   1.835  14.387   7.873
  197POPC   NC3 7283  31.152  28.245   9.592
  197POPC   PO4 7284  31.551  28.724   9.552
  197POPC   GL1 7285  31.531  28.498   9.180
  197POPC   GL2 7286  31.877  28.588   9.115
  197POPC   C1A 7287  31.397  28.503   8.738
  197POPC   D2A 7288  31.539  28.576   8.319
  197POPC   C3A 7289  31.321  28.351   8.002
  197POPC   C4A 7290  31.490  28.084   7.656
  197POPC   C1B 7291  31.933  28.647   8.672
  197POPC   C2B 7292  32.049  28.729   8.233
  197POPC   C3B 7293  31.789  28.837   7.875
  197POPC   C4B 7294  31.542  28.574   7.616
  198POPC   NC3 7295  25.139  26.077   9.581
  198POPC   PO4 7296  25.553  26.445   9.568
  198POPC   GL1 7297  25.414  26.205   9.155
  198POPC   GL2 7298  25.046  26.148   9.045
  198POPC   C1A 7299  25.419  26.069   8.697
  198POPC   D2A 7300  25.446  26.247   8.267
  198POPC   C3A 7301  25.310  25.999   7.910
  198POPC   C4A 7302  25.526  25.935   7.486
  198POPC   C1B 7303  24.797  26.319   8.658
  198POPC   C2B 7304  24.726  26.311   8.165
  198POPC   C3B 7305  24.962  26.366   7.741
  198POPC   C4B 7306  25.011  26.381   7.253
  199POPC   NC3 7307   9.457  22.086   9.385
  199POPC   PO4 7308  10.094  22.086   9.558
  199POPC   GL1 7309  10.062  21.838   9.129
  199POPC   GL2 7310   9.710  21.767   9.079
  199POPC   C1A 7311  10.022  21.869   8.659
  199POPC   D2A 7312  10.042  22.256   8.420
  199POPC   C3A 7313   9.932  22.269   7.986
  199POPC   C4A 7314  10.021  22.433   7.531
  199POPC   C1B 7315   9.511  21.742   8.674
  199POPC   C2B 7316   9.557  21.814   8.221
  199POPC   C3B 7317   9.418  21.793   7.805
  199POPC   C4B 7318   9.624  21.814   7.349
  200POPC   NC3 7319  29.326  19.372   9.382
  200POPC   PO4 7320  29.568  18.780   9.575
  200POPC   GL1 7321  29.414  18.903   9.176
  200POPC   GL2 7322  29.031  18.989   9.155
  200POPC   C1A 7323  29.390  19.117   8.765
  200POPC   D2A 7324  29.230  18.998   8.359
  200POPC   C3A 7325  29.414  18.997   7.955
  200POPC   C4A 7326  29.054  19.007   7.699
  200POPC   C1B 7327  29.131  18.680   8.818
  200POPC   C2B 7328  28.972  18.564   8.431
  200POPC   C3B 7329  28.833  18.708   8.046
  200POPC   C4B 7330  28.853  18.530   7.627
  201POPC   NC3 7331  12.959  32.994   9.626
  201POPC   PO4 7332  12.406  33.139   9.633
  201POPC   GL1 7333  12.641  33.021   9.198
  201POPC   GL2 7334  13.056  33.023   9.121
  201POPC   C1A 7335  12.757  33.033   8.718
  201POPC   D2A 7336  12.756  33.229   8.297
  201POPC   C3A 7337  12.793  33.001   7.906
  201POPC   C4A 7338  12.574  33.016   7.510
  201POPC   C1B 7339  13.289  33.062   8.676
  201POPC   C2B 7340  13.274  33.123   8.184
  201POPC   C3B 7341  13.267  32.877   7.778
  201POPC   C4B 7342  13.160  32.800   7.344
  202POPC   NC3 7343  39.714  31.362   9.507
  202POPC   PO4 7344  39.200  31.642   9.859
  202POPC   GL1 7345  39.104  31.531   9.324
  202POPC   GL2 7346  39.314  31.278   9.158
  202POPC   C1A 7347  39.097  31.522   8.780
  202POPC   D2A 7348  39.278  31.448   8.356
  202POPC   C3A 7349  39.081  31.420   7.941
  202POPC   C4A 7350  39.218  31.681   7.589
  202POPC   C1B 7351  39.473  31.148   8.733
  202POPC   C2B 7352  39.613  31.029   8.333
  202POPC   C3B 7353  39.423  31.011   7.963
  202POPC   C4B 7354  39.070  30.951   7.766
  203POPC   NC3 7355  27.100  43.059   9.548
  203POPC   PO4 7356  27.645  43.355   9.543
  203POPC   GL1 7357  27.419  43.235   9.183
  203POPC   GL2 7358  27.636  42.980   9.104
  203POPC   C1A 7359  27.238  43.280   8.769
  203POPC   D2A 7360  27.258  43.514   8.365
  203POPC   C3A 7361  27.454  43.329   8.009
  203POPC   C4A 7362  27.492  43.443   7.582
  203POPC   C1B 7363  27.606  42.921   8.668
  203POPC   C2B 7364  27.647  42.860   8.223
  203POPC   C3B 7365  27.746  42.955   7.793
  203POPC   C4B 7366  27.855  43.153   7.359
  204POPC   NC3 7367   6.845   7.830   9.534
  204POPC   PO4 7368   6.380   8.328   9.372
  204POPC   GL1 7369   6.695   8.270   9.075
  204POPC   GL2 7370   6.800   7.923   9.009
  204POPC   C1A 7371   6.537   8.217   8.659
  204POPC   D2A 7372   6.401   7.900   8.390
  204POPC   C3A 7373   6.434   8.126   8.028
  204POPC   C4A 7374   6.184   8.225   7.669
  204POPC   C1B 7375   7.047   8.200   8.705
  204POPC   C2B 7376   7.096   8.454   8.305
  204POPC   C3B 7377   6.889   8.389   7.902
  204POPC   C4B 7378   6.750   8.009   7.663
  205POPC   NC3 7379  34.724   9.961   9.570
  205POPC   PO4 7380  34.305   9.454   9.439
  205POPC   GL1 7381  34.408   9.541   9.022
  205POPC   GL2 7382  34.607   9.788   9.110
  205POPC   C1A 7383  34.636   9.440   8.668
  205POPC   D2A 7384  34.655   9.726   8.358
  205POPC   C3A 7385  34.350   9.596   8.115
  205POPC   C4A 7386  34.534   9.574   7.746
  205POPC   C1B 7387  34.463  10.002   8.761
  205POPC   C2B 7388  34.245  10.042   8.360
  205POPC   C3B 7389  34.428  10.094   7.934
  205POPC   C4B 7390  34.443   9.995   7.467
  206POPC   NC3 7391  29.827  33.383   9.225
  206POPC   PO4 7392  30.131  33.963   9.480
  206POPC   GL1 7393  29.926  33.924   9.107
  206POPC   GL2 7394  29.576  33.834   9.152
  206POPC   C1A 7395  29.948  34.148   8.728
  206POPC   D2A 7396  29.747  34.167   8.333
  206POPC   C3A 7397  29.983  34.093   7.965
  206POPC   C4A 7398  29.882  33.917   7.584
  206POPC   C1B 7399  29.629  33.726   8.707
  206POPC   C2B 7400  29.498  33.609   8.301
  206POPC   C3B 7401  29.778  33.598   7.990
  206POPC   C4B 7402  29.971  33.418   7.632
  207POPC   NC3 7403  29.129  21.638   9.385
  207POPC   PO4 7404  29.428  21.112   9.489
  207POPC   GL1 7405  29.499  21.381   9.075
  207POPC   GL2 7406  29.696  21.689   9.039
  207POPC   C1A 7407  29.358  21.485   8.604
  207POPC   D2A 7408  28.985  21.543   8.276
  207POPC   C3A 7409  28.816  21.378   7.859
  207POPC   C4A 7410  28.599  21.534   7.457
  207POPC   C1B 7411  29.640  21.926   8.637
  207POPC   C2B 7412  29.339  21.929   8.300
  207POPC   C3B 7413  29.394  21.638   7.959
  207POPC   C4B 7414  29.304  21.283   7.697
  208POPC   NC3 7415  18.345  33.977   9.928
  208POPC   PO4 7416  18.235  33.427   9.608
  208POPC   GL1 7417  18.378  33.688   9.227
  208POPC   GL2 7418  18.567  34.013   9.109
  208POPC   C1A 7419  18.144  33.827   8.850
  208POPC   D2A 7420  18.086  34.113   8.474
  208POPC   C3A 7421  18.080  33.922   8.057
  208POPC   C4A 7422  18.180  33.551   7.754
  208POPC   C1B 7423  18.538  34.059   8.669
  208POPC   C2B 7424  18.526  33.838   8.311
  208POPC   C3B 7425  18.555  33.876   7.886
  208POPC   C4B 7426  18.436  33.880   7.486
  209POPC   NC3 7427   5.012   8.603   9.583
  209POPC   PO4 7428   5.502   8.127   9.636
  209POPC   GL1 7429   5.180   8.311   9.208
  209POPC   GL2 7430   5.215   8.566   9.033
  209POPC   C1A 7431   4.980   8.133   8.805
  209POPC   D2A 7432   5.099   7.967   8.373
  209POPC   C3A 7433   5.208   8.169   7.957
  209POPC   C4A 7434   5.033   8.176   7.531
  209POPC   C1B 7435   5.210   8.527   8.570
  209POPC   C2B 7436   4.867   8.446   8.296
  209POPC   C3B 7437   4.887   8.530   7.882
  209POPC   C4B 7438   5.267   8.603   7.615
  210POPC   NC3 7439  36.974  43.294   9.717
  210POPC   PO4 7440  36.555  42.868   9.503
  210POPC   GL1 7441  36.924  43.049   9.253
  210POPC   GL2 7442  36.954  43.418   9.169
  210POPC   C1A 7443  37.045  43.104   8.804
  210POPC   D2A 7444  36.815  43.179   8.422
  210POPC   C3A 7445  36.905  43.078   8.008
  210POPC   C4A 7446  36.888  42.823   7.637
  210POPC   C1B 7447  36.704  43.569   8.766
  210POPC   C2B 7448  36.734  43.675   8.298
  210POPC   C3B 7449  36.691  43.601   7.824
  210POPC   C4B 7450  36.615  43.571   7.337
  211POPC   NC3 7451  41.771  24.922   9.536
  211POPC   PO4 7452  41.706  25.620   9.552
  211POPC   GL1 7453  41.641  25.314   9.220
  211POPC   GL2 7454  42.001  25.352   9.129
  211POPC   C1A 7455  41.651  25.003   8.870
  211POPC   D2A 7456  41.810  25.118   8.462
  211POPC   C3A 7457  41.555  25.116   8.103
  211POPC   C4A 7458  41.666  25.112   7.702
  211POPC   C1B 7459  41.759  25.528   8.764
  211POPC   C2B 7460  41.534  25.566   8.345
  211POPC   C3B 7461  41.655  25.581   7.876
  211POPC   C4B 7462  41.851  25.516   7.446
  212POPC   NC3 7463  26.257   5.319   9.549
  212POPC   PO4 7464  25.750   4.809   9.554
  212POPC   GL1 7465  25.998   4.946   9.257
  212POPC   GL2 7466  26.333   4.812   9.278
  212POPC   C1A 7467  25.916   4.844   8.857
  212POPC   D2A 7468  26.097   4.845   8.479
  212POPC   C3A 7469  25.784   4.910   8.161
  212POPC   C4A 7470  25.835   5.122   7.790
  212POPC   C1B 7471  26.398   5.023   8.894
  212POPC   C2B 7472  26.485   5.219   8.514
  212POPC   C3B 7473  26.292   5.154   8.128
  212POPC   C4B 7474  26.369   5.118   7.716
  213POPC   NC3 7475  18.181  14.775   9.315
  213POPC   PO4 7476  18.379  15.254   9.708
  213POPC   GL1 7477  18.357  15.328   9.244
  213POPC   GL2 7478  18.012  15.259   9.143
  213POPC   C1A 7479  18.596  15.373   8.861
  213POPC   D2A 7480  18.665  15.225   8.454
  213POPC   C3A 7481  18.360  15.177   8.144
  213POPC   C4A 7482  18.515  15.164   7.717
  213POPC   C1B 7483  18.139  15.107   8.721
  213POPC   C2B 7484  17.949  14.942   8.344
  213POPC   C3B 7485  18.075  14.777   7.956
  213POPC   C4B 7486  17.907  14.719   7.586
  214POPC   NC3 7487   8.430  17.600   9.595
  214POPC   PO4 7488   7.867  17.355   9.677
  214POPC   GL1 7489   7.990  17.501   9.241
  214POPC   GL2 7490   8.256  17.711   9.110
  214POPC   C1A 7491   7.884  17.603   8.790
  214POPC   D2A 7492   8.097  17.646   8.380
  214POPC   C3A 7493   7.938  17.560   7.962
  214POPC   C4A 7494   8.087  17.789   7.619
  214POPC   C1B 7495   8.400  17.886   8.731
  214POPC   C2B 7496   8.493  17.973   8.285
  214POPC   C3B 7497   8.457  17.669   7.940
  214POPC   C4B 7498   8.526  17.549   7.487
  215POPC   NC3 7499  23.204   1.736   9.435
  215POPC   PO4 7500  22.567   1.888   9.489
  215POPC   GL1 7501  22.866   2.008   9.153
  215POPC   GL2 7502  23.146   2.260   9.148
  215POPC   C1A 7503  22.994   1.874   8.747
  215POPC   D2A 7504  22.885   2.049   8.344
  215POPC   C3A 7505  22.919   1.805   7.960
  215POPC   C4A 7506  23.291   1.700   7.745
  215POPC   C1B 7507  23.053   2.403   8.727
  215POPC   C2B 7508  23.291   2.421   8.345
  215POPC   C3B 7509  23.146   2.280   7.971
  215POPC   C4B 7510  22.689   2.318   7.909
  216POPC   NC3 7511  31.020  24.266   9.538
  216POPC   PO4 7512  30.636  24.816   9.523
  216POPC   GL1 7513  30.516  24.588   9.157
  216POPC   GL2 7514  30.603  24.230   9.211
  216POPC   C1A 7515  30.507  24.739   8.736
  216POPC   D2A 7516  30.561  24.526   8.349
  216POPC   C3A 7517  30.585  24.705   7.937
  216POPC   C4A 7518  30.982  24.815   7.709
  216POPC   C1B 7519  30.778  24.301   8.791
  216POPC   C2B 7520  30.930  24.166   8.368
  216POPC   C3B 7521  30.883  24.304   7.919
  216POPC   C4B 7522  31.090  24.328   7.497
  217POPC   NC3 7523   0.257  37.466   9.640
  217POPC   PO4 7524   0.833  37.746   9.759
  217POPC   GL1 7525   0.544  37.811   9.365
  217POPC   GL2 7526   0.427  37.454   9.171
  217POPC   C1A 7527   0.361  37.892   8.977
  217POPC   D2A 7528   0.390  37.654   8.588
  217POPC   C3A 7529   0.597  37.877   8.249
  217POPC   C4A 7530   0.416  37.855   7.835
  217POPC   C1B 7531   0.115  37.275   8.919
  217POPC   C2B 7532   0.105  37.179   8.481
  217POPC   C3B 7533   0.264  37.416   8.117
  217POPC   C4B 7534   0.364  37.349   7.677
  218POPC   NC3 7535  35.935   2.406   9.284
  218POPC   PO4 7536  36.453   2.749   9.535
  218POPC   GL1 7537  36.254   2.812   9.132
  218POPC   GL2 7538  35.907   2.895   9.058
  218POPC   C1A 7539  36.263   2.891   8.697
  218POPC   D2A 7540  35.995   3.109   8.401
  218POPC   C3A 7541  35.953   3.100   7.957
  218POPC   C4A 7542  36.131   2.941   7.537
  218POPC   C1B 7543  35.819   2.661   8.668
  218POPC   C2B 7544  36.030   2.598   8.278
  218POPC   C3B 7545  35.896   2.610   7.872
  218POPC   C4B 7546  35.829   2.389   7.513
  219POPC   NC3 7547  13.207  16.045   9.525
  219POPC   PO4 7548  12.786  16.566   9.588
  219POPC   GL1 7549  12.906  16.716   9.186
  219POPC   GL2 7550  13.100  16.410   9.151
  219POPC   C1A 7551  12.844  16.979   8.835
  219POPC   D2A 7552  12.548  17.151   8.539
  219POPC   C3A 7553  12.608  17.037   8.108
  219POPC   C4A 7554  12.420  16.683   7.961
  219POPC   C1B 7555  12.727  16.422   8.838
  219POPC   C2B 7556  12.715  16.647   8.467
  219POPC   C3B 7557  12.963  16.616   8.135
  219POPC   C4B 7558  12.824  16.489   7.749
  220POPC   NC3 7559  38.943  25.555   9.461
  220POPC   PO4 7560  39.289  26.080   9.625
  220POPC   GL1 7561  39.259  26.071   9.172
  220POPC   GL2 7562  39.372  25.756   9.097
  220POPC   C1A 7563  39.007  25.998   8.792
  220POPC   D2A 7564  39.029  26.219   8.404
  220POPC   C3A 7565  39.277  26.021   8.105
  220POPC   C4A 7566  39.340  26.110   7.671
  220POPC   C1B 7567  39.542  25.871   8.681
  220POPC   C2B 7568  39.772  25.851   8.271
  220POPC   C3B 7569  39.642  25.733   7.828
  220POPC   C4B 7570  39.633  25.790   7.361
  221POPC   NC3 7571  34.843  32.128   9.592
  221POPC   PO4 7572  34.482  32.475   9.246
  221POPC   GL1 7573  34.556  32.148   9.000
  221POPC   GL2 7574  34.889  32.077   9.080
  221POPC   C1A 7575  34.428  32.163   8.568
  221POPC   D2A 7576  34.566  32.433   8.223
  221POPC   C3A 7577  34.362  32.387   7.840
  221POPC   C4A 7578  34.453  32.425   7.415
  221POPC   C1B 7579  34.790  31.796   8.727
  221POPC   C2B 7580  34.809  31.862   8.301
  221POPC   C3B 7581  35.003  32.189   8.086
  221POPC   C4B 7582  34.873  32.311   7.687
  222POPC   NC3 7583  44.350   5.543   9.613
  222POPC   PO4 7584  44.757   6.060   9.490
  222POPC   GL1 7585  44.739   5.849   9.122
  222POPC   GL2 7586  44.561   5.577   9.157
  222POPC   C1A 7587  44.634   5.971   8.712
  222POPC   D2A 7588  44.847   6.109   8.350
  222POPC   C3A 7589  44.654   5.879   7.994
  222POPC   C4A 7590  44.602   5.953   7.571
  222POPC   C1B 7591  44.767   5.467   8.792
  222POPC   C2B 7592  44.776   5.579   8.397
  222POPC   C3B 7593  44.495   5.409   8.127
  222POPC   C4B 7594  44.506   5.481   7.699
  223POPC   NC3 7595  19.022  36.496   9.477
  223POPC   PO4 7596  19.150  35.828   9.528
  223POPC   GL1 7597  19.302  36.014   9.203
  223POPC   GL2 7598  19.610  35.844   9.178
  223POPC   C1A 7599  19.120  36.228   8.839
  223POPC   D2A 7600  18.802  36.181   8.496
  223POPC   C3A 7601  18.931  36.169   8.058
  223POPC   C4A 7602  19.215  35.871   7.897
  223POPC   C1B 7603  19.420  35.822   8.754
  223POPC   C2B 7604  19.308  36.044   8.382
  223POPC   C3B 7605  19.446  36.293   8.022
  223POPC   C4B 7606  19.611  36.106   7.625
  224POPC   NC3 7607  27.962   1.853   9.566
  224POPC   PO4 7608  28.553   2.245   9.540
  224POPC   GL1 7609  28.234   2.085   9.192
  224POPC   GL2 7610  28.025   1.756   9.090
  224POPC   C1A 7611  28.292   2.084   8.750
  224POPC   D2A 7612  28.501   1.964   8.391
  224POPC   C3A 7613  28.414   2.187   8.045
  224POPC   C4A 7614  28.403   1.985   7.694
  224POPC   C1B 7615  27.784   1.763   8.738
  224POPC   C2B 7616  27.994   1.823   8.400
  224POPC   C3B 7617  28.141   1.725   8.048
  224POPC   C4B 7618  27.918   1.798   7.689
  225POPC   NC3 7619  15.524   8.759   9.441
  225POPC   PO4 7620  15.057   9.190   9.578
  225POPC   GL1 7621  15.220   9.107   9.203
  225POPC   GL2 7622  15.091   8.758   9.139
  225POPC   C1A 7623  15.178   9.092   8.760
  225POPC   D2A 7624  14.971   8.792   8.500
  225POPC   C3A 7625  15.045   8.816   8.061
  225POPC   C4A 7626  14.777   9.068   7.775
  225POPC   C1B 7627  15.332   8.566   8.795
  225POPC   C2B 7628  15.481   8.731   8.391
  225POPC   C3B 7629  15.520   9.013   8.035
  225POPC   C4B 7630  15.281   9.101   7.690
  226POPC   NC3 7631  42.695  20.119   9.348
  226POPC   PO4 7632  43.131  20.591   9.583
  226POPC   GL1 7633  43.134  20.658   9.161
  226POPC   GL2 7634  43.464  20.753   9.193
  226POPC   C1A 7635  43.058  20.757   8.729
  226POPC   D2A 7636  42.954  20.541   8.336
  226POPC   C3A 7637  43.003  20.790   7.944
  226POPC   C4A 7638  42.793  20.590   7.634
  226POPC   C1B 7639  43.579  20.777   8.773
  226POPC   C2B 7640  43.410  20.753   8.343
  226POPC   C3B 7641  43.411  20.516   7.927
  226POPC   C4B 7642  43.316  20.589   7.464
  227POPC   NC3 7643  23.358  15.442   9.526
  227POPC   PO4 7644  23.832  15.002   9.403
  227POPC   GL1 7645  23.882  15.236   9.061
  227POPC   GL2 7646  23.674  15.479   9.129
  227POPC   C1A 7647  23.864  15.113   8.672
  227POPC   D2A 7648  23.592  15.092   8.358
  227POPC   C3A 7649  23.826  15.012   8.020
  227POPC   C4A 7650  23.862  15.099   7.630
  227POPC   C1B 7651  23.464  15.407   8.761
  227POPC   C2B 7652  23.540  15.590   8.400
  227POPC   C3B 7653  23.626  15.481   8.020
  227POPC   C4B 7654  23.479  15.424   7.662
  228POPC   NC3 7655  40.259  35.316   9.537
  228POPC   PO4 7656  39.611  35.104   9.557
  228POPC   GL1 7657  39.890  35.244   9.179
  228POPC   GL2 7658  40.223  35.069   9.097
  228POPC   C1A 7659  40.117  35.469   8.810
  228POPC   D2A 7660  40.016  35.661   8.409
  228POPC   C3A 7661  40.273  35.624   8.031
  228POPC   C4A 7662  40.160  35.563   7.610
  228POPC   C1B 7663  40.244  34.851   8.721
  228POPC   C2B 7664  40.210  35.164   8.390
  228POPC   C3B 7665  40.084  35.170   7.982
  228POPC   C4B 7666  40.261  35.041   7.603
  229POPC   NC3 7667  25.467  30.967   9.494
  229POPC   PO4 7668  24.883  30.573   9.468
  229POPC   GL1 7669  25.113  30.805   9.157
  229POPC   GL2 7670  25.022  31.124   9.005
  229POPC   C1A 7671  25.351  30.638   8.824
  229POPC   D2A 7672  25.450  30.408   8.463
  229POPC   C3A 7673  25.284  30.604   8.133
  229POPC   C4A 7674  25.106  30.669   7.743
  229POPC   C1B 7675  25.418  31.142   8.795
  229POPC   C2B 7676  25.519  31.011   8.386
  229POPC   C3B 7677  25.319  31.088   7.975
  229POPC   C4B 7678  24.864  31.117   7.799
  230POPC   NC3 7679  25.795  33.431   9.480
  230POPC   PO4 7680  26.031  34.106   9.647
  230POPC   GL1 7681  26.101  33.928   9.208
  230POPC   GL2 7682  25.749  33.883   9.193
  230POPC   C1A 7683  26.194  33.893   8.712
  230POPC   D2A 7684  26.156  33.744   8.227
  230POPC   C3A 7685  26.101  34.054   7.860
  230POPC   C4A 7686  26.176  34.199   7.373
  230POPC   C1B 7687  25.727  33.682   8.803
  230POPC   C2B 7688  25.588  33.839   8.417
  230POPC   C3B 7689  25.661  33.798   8.016
  230POPC   C4B 7690  25.616  33.464   7.753
  231POPC   NC3 7691  18.558  41.345   9.508
  231POPC   PO4 7692  18.066  41.821   9.564
  231POPC   GL1 7693  18.226  41.826   9.149
  231POPC   GL2 7694  18.246  41.484   9.148
  231POPC   C1A 7695  18.449  41.761   8.731
  231POPC   D2A 7696  18.409  41.941   8.349
  231POPC   C3A 7697  18.343  41.771   7.947
  231POPC   C4A 7698  17.995  41.881   7.663
  231POPC   C1B 7699  18.018  41.511   8.790
  231POPC   C2B 7700  17.997  41.671   8.405
  231POPC   C3B 7701  17.996  41.425   8.061
  231POPC   C4B 7702  17.836  41.408   7.677
  232POPC   NC3 7703   6.302  40.254   9.476
  232POPC   PO4 7704   6.606  40.886   9.586
  232POPC   GL1 7705   6.555  40.628   9.243
  232POPC   GL2 7706   6.611  40.907   9.042
  232POPC   C1A 7707   6.446  40.484   8.823
  232POPC   D2A 7708   6.566  40.767   8.473
  232POPC   C3A 7709   6.383  40.652   8.075
  232POPC   C4A 7710   6.467  40.657   7.630
  232POPC   C1B 7711   6.957  41.001   8.775
  232POPC   C2B 7712   7.086  40.940   8.365
  232POPC   C3B 7713   6.814  40.948   7.990
  232POPC   C4B 7714   6.839  41.303   7.750
  233POPC   NC3 7715  28.091  43.419   9.652
  233POPC   PO4 7716  28.434  42.856   9.401
  233POPC   GL1 7717  28.379  43.241   9.168
  233POPC   GL2 7718  28.039  43.324   9.166
  233POPC   C1A 7719  28.589  43.185   8.764
  233POPC   D2A 7720  28.607  43.019   8.352
  233POPC   C3A 7721  28.717  43.173   7.955
  233POPC   C4A 7722  28.767  42.771   7.755
  233POPC   C1B 7723  28.082  43.045   8.811
  233POPC   C2B 7724  28.110  42.957   8.398
  233POPC   C3B 7725  28.216  43.078   7.980
  233POPC   C4B 7726  28.177  42.814   7.576
  234POPC   NC3 7727   2.225  19.506   9.413
  234POPC   PO4 7728   2.016  20.184   9.489
  234POPC   GL1 7729   1.899  19.943   9.166
  234POPC   GL2 7730   1.560  19.963   9.172
  234POPC   C1A 7731   2.051  19.866   8.769
  234POPC   D2A 7732   2.307  19.806   8.436
  234POPC   C3A 7733   2.092  19.898   8.101
  234POPC   C4A 7734   2.123  19.735   7.734
  234POPC   C1B 7735   1.548  19.708   8.801
  234POPC   C2B 7736   1.799  19.554   8.426
  234POPC   C3B 7737   1.714  19.517   7.982
  234POPC   C4B 7738   1.664  19.680   7.540
  235POPC   NC3 7739   5.896  41.690   9.508
  235POPC   PO4 7740   5.869  41.056   9.210
  235POPC   GL1 7741   5.820  41.422   9.018
  235POPC   GL2 7742   6.017  41.719   9.042
  235POPC   C1A 7743   5.810  41.360   8.592
  235POPC   D2A 7744   5.626  41.327   8.194
  235POPC   C3A 7745   5.878  41.479   7.867
  235POPC   C4A 7746   5.543  41.653   7.597
  235POPC   C1B 7747   5.802  41.871   8.718
  235POPC   C2B 7748   5.868  41.780   8.306
  235POPC   C3B 7749   5.734  41.978   7.968
  235POPC   C4B 7750   5.956  41.930   7.622
  236POPC   NC3 7751  15.940  30.794   9.527
  236POPC   PO4 7752  16.468  30.407   9.307
  236POPC   GL1 7753  16.148  30.664   9.082
  236POPC   GL2 7754  16.124  31.057   9.085
  236POPC   C1A 7755  16.203  30.750   8.664
  236POPC   D2A 7756  16.296  30.694   8.242
  236POPC   C3A 7757  15.947  30.688   7.977
  236POPC   C4A 7758  15.943  30.496   7.589
  236POPC   C1B 7759  15.789  31.024   8.760
  236POPC   C2B 7760  15.609  30.795   8.394
  236POPC   C3B 7761  15.523  30.999   7.978
  236POPC   C4B 7762  15.805  31.023   7.589
  237POPC   NC3 7763  25.793  14.558   9.399
  237POPC   PO4 7764  26.399  14.300   9.501
  237POPC   GL1 7765  26.176  14.427   9.074
  237POPC   GL2 7766  26.274  14.749   8.893
  237POPC   C1A 7767  25.863  14.540   8.726
  237POPC   D2A 7768  25.982  14.718   8.324
  237POPC   C3A 7769  25.654  14.603   8.039
  237POPC   C4A 7770  25.729  14.331   7.702
  237POPC   C1B 7771  26.453  14.489   8.601
  237POPC   C2B 7772  26.272  14.271   8.259
  237POPC   C3B 7773  26.193  14.447   7.879
  237POPC   C4B 7774  26.160  14.303   7.459
  238POPC   NC3 7775  20.544  31.670  10.188
  238POPC   PO4 7776  20.512  31.492   9.571
  238POPC   GL1 7777  20.683  31.494   9.126
  238POPC   GL2 7778  20.799  31.184   9.094
  238POPC   C1A 7779  20.797  31.434   8.659
  238POPC   D2A 7780  20.872  31.629   8.259
  238POPC   C3A 7781  20.483  31.535   8.053
  238POPC   C4A 7782  20.259  31.530   7.663
  238POPC   C1B 7783  20.849  30.898   8.761
  238POPC   C2B 7784  20.663  30.752   8.386
  238POPC   C3B 7785  20.817  30.895   8.001
  238POPC   C4B 7786  20.679  31.206   7.697
  239POPC   NC3 7787   4.472  36.585   9.545
  239POPC   PO4 7788   4.438  35.973   9.694
  239POPC   GL1 7789   4.499  36.085   9.273
  239POPC   GL2 7790   4.219  36.311   9.192
  239POPC   C1A 7791   4.462  36.061   8.817
  239POPC   D2A 7792   4.223  36.237   8.480
  239POPC   C3A 7793   4.324  36.042   8.121
  239POPC   C4A 7794   4.371  36.092   7.702
  239POPC   C1B 7795   3.952  36.476   8.855
  239POPC   C2B 7796   3.972  36.689   8.439
  239POPC   C3B 7797   4.140  36.547   8.041
  239POPC   C4B 7798   3.957  36.467   7.664
  240POPC   NC3 7799  13.875  26.303   9.501
  240POPC   PO4 7800  13.385  25.938   9.397
  240POPC   GL1 7801  13.689  26.005   9.115
  240POPC   GL2 7802  13.884  25.743   8.977
  240POPC   C1A 7803  13.782  26.235   8.788
  240POPC   D2A 7804  13.612  26.196   8.399
  240POPC   C3A 7805  13.905  26.114   8.106
  240POPC   C4A 7806  13.993  25.845   7.788
  240POPC   C1B 7807  13.572  25.739   8.644
  240POPC   C2B 7808  13.579  25.687   8.192
  240POPC   C3B 7809  13.582  25.544   7.772
  240POPC   C4B 7810  13.673  25.741   7.378
  241POPC   NC3 7811   0.712   6.932   9.155
  241POPC   PO4 7812   0.349   6.439   9.425
  241POPC   GL1 7813   0.230   6.409   9.012
  241POPC   GL2 7814   0.328   6.698   8.929
  241POPC   C1A 7815   0.331   6.281   8.603
  241POPC   D2A 7816   0.545   6.348   8.214
  241POPC   C3A 7817   0.315   6.393   7.841
  241POPC   C4A 7818   0.407   6.337   7.411
  241POPC   C1B 7819   0.435   6.792   8.502
  241POPC   C2B 7820   0.425   6.846   8.060
  241POPC   C3B 7821   0.316   7.141   7.711
  241POPC   C4B 7822   0.487   7.188   7.267
  242POPC   NC3 7823  36.030  36.661   9.381
  242POPC   PO4 7824  36.391  37.257   9.477
  242POPC   GL1 7825  36.259  37.266   9.036
  242POPC   GL2 7826  36.096  36.922   8.952
  242POPC   C1A 7827  36.294  37.192   8.581
  242POPC   D2A 7828  36.022  36.878   8.402
  242POPC   C3A 7829  35.871  37.037   8.058
  242POPC   C4A 7830  35.967  37.218   7.676
  242POPC   C1B 7831  36.075  36.486   8.736
  242POPC   C2B 7832  36.163  36.319   8.316
  242POPC   C3B 7833  36.096  36.571   7.950
  242POPC   C4B 7834  36.348  36.922   7.821
  243POPC   NC3 7835   3.980  42.063   9.547
  243POPC   PO4 7836   3.550  42.543   9.767
  243POPC   GL1 7837   3.601  42.400   9.333
  243POPC   GL2 7838   3.545  42.023   9.270
  243POPC   C1A 7839   3.507  42.412   8.881
  243POPC   D2A 7840   3.623  42.597   8.474
  243POPC   C3A 7841   3.713  42.337   8.153
  243POPC   C4A 7842   3.534  42.316   7.739
  243POPC   C1B 7843   3.699  41.906   8.864
  243POPC   C2B 7844   3.463  42.021   8.512
  243POPC   C3B 7845   3.376  41.961   8.101
  243POPC   C4B 7846   3.771  41.897   7.904
  244POPC   NC3 7847  44.878   6.509   9.509
  244POPC   PO4 7848  44.544   7.028   9.362
  244POPC   GL1 7849  44.797   6.719   9.045
  244POPC   GL2 7850  44.725   6.356   9.044
  244POPC   C1A 7851  44.954   6.629   8.605
  244POPC   D2A 7852  44.979   6.941   8.264
  244POPC   C3A 7853  44.864   6.836   7.821
  244POPC   C4A 7854  44.419   6.689   7.720
  244POPC   C1B 7855  44.489   6.472   8.667
  244POPC   C2B 7856  44.593   6.581   8.230
  244POPC   C3B 7857  44.764   6.350   7.895
  244POPC   C4B 7858  44.901   6.392   7.497
  245POPC   NC3 7859  39.878  36.395   9.442
  245POPC   PO4 7860  40.008  35.704   9.436
  245POPC   GL1 7861  39.913  35.999   9.089
  245POPC   GL2 7862  40.118  36.336   9.002
  245POPC   C1A 7863  39.795  36.109   8.658
  245POPC   D2A 7864  40.064  36.153   8.297
  245POPC   C3A 7865  39.951  36.021   7.890
  245POPC   C4A 7866  40.050  36.380   7.668
  245POPC   C1B 7867  40.306  35.987   8.767
  245POPC   C2B 7868  40.495  35.918   8.371
  245POPC   C3B 7869  40.445  36.099   7.955
  245POPC   C4B 7870  40.555  35.866   7.621
  246POPC   NC3 7871  17.247   6.352   9.393
  246POPC   PO4 7872  17.798   5.897   9.481
  246POPC   GL1 7873  17.540   5.973   9.149
  246POPC   GL2 7874  17.738   6.257   9.129
  246POPC   C1A 7875  17.439   6.112   8.720
  246POPC   D2A 7876  17.272   6.202   8.296
  246POPC   C3A 7877  17.306   5.835   8.062
  246POPC   C4A 7878  17.347   5.549   7.760
  246POPC   C1B 7879  17.907   6.316   8.750
  246POPC   C2B 7880  17.763   6.336   8.357
  246POPC   C3B 7881  17.969   6.156   8.030
  246POPC   C4B 7882  17.677   6.018   7.759
  247POPC   NC3 7883  22.626   4.889   9.519
  247POPC   PO4 7884  23.206   5.254   9.595
  247POPC   GL1 7885  23.030   5.389   9.159
  247POPC   GL2 7886  22.865   5.102   9.018
  247POPC   C1A 7887  23.149   5.396   8.697
  247POPC   D2A 7888  23.217   5.478   8.256
  247POPC   C3A 7889  23.052   5.216   7.972
  247POPC   C4A 7890  22.777   5.368   7.689
  247POPC   C1B 7891  22.737   4.883   8.640
  247POPC   C2B 7892  22.793   4.783   8.214
  247POPC   C3B 7893  22.625   4.929   7.847
  247POPC   C4B 7894  22.547   5.024   7.389
  248POPC   NC3 7895  24.986  27.962   9.455
  248POPC   PO4 7896  25.066  27.259   9.550
  248POPC   GL1 7897  25.233  27.548   9.263
  248POPC   GL2 7898  25.102  27.357   9.015
  248POPC   C1A 7899  25.580  27.557   8.953
  248POPC   D2A 7900  25.687  27.483   8.518
  248POPC   C3A 7901  25.480  27.715   8.181
  248POPC   C4A 7902  25.307  27.620   7.764
  248POPC   C1B 7903  24.907  27.453   8.626
  248POPC   C2B 7904  24.977  27.530   8.186
  248POPC   C3B 7905  24.805  27.679   7.811
  248POPC   C4B 7906  24.910  27.548   7.393
  249POPC   NC3 7907  19.332  24.628   9.531
  249POPC   PO4 7908  20.019  24.535   9.447
  249POPC   GL1 7909  19.696  24.509   9.168
  249POPC   GL2 7910  19.868  24.268   8.996
  249POPC   C1A 7911  19.579  24.588   8.740
  249POPC   D2A 7912  19.814  24.771   8.391
  249POPC   C3A 7913  19.705  24.600   7.993
  249POPC   C4A 7914  19.841  24.708   7.611
  249POPC   C1B 7915  20.060  24.379   8.628
  249POPC   C2B 7916  19.984  24.233   8.219
  249POPC   C3B 7917  20.065  24.236   7.765
  249POPC   C4B 7918  20.004  24.260   7.322
  250POPC   NC3 7919  30.979  39.757   9.340
  250POPC   PO4 7920  30.645  40.300   9.565
  250POPC   GL1 7921  30.743  40.165   9.153
  250POPC   GL2 7922  30.785  40.448   9.023
  250POPC   C1A 7923  30.714  40.026   8.691
  250POPC   D2A 7924  30.495  39.782   8.339
  250POPC   C3A 7925  30.645  39.797   7.916
  250POPC   C4A 7926  30.819  40.145   7.666
  250POPC   C1B 7927  30.366  40.374   8.868
  250POPC   C2B 7928  30.287  40.238   8.476
  250POPC   C3B 7929  30.530  40.259   8.115
  250POPC   C4B 7930  30.441  40.459   7.745
  251POPC   NC3 7931   8.304  27.668   9.611
  251POPC   PO4 7932   7.682  27.538   9.688
  251POPC   GL1 7933   7.968  27.500   9.278
  251POPC   GL2 7934   8.005  27.834   9.149
  251POPC   C1A 7935   8.356  27.519   8.963
  251POPC   D2A 7936   8.349  27.648   8.523
  251POPC   C3A 7937   8.465  27.694   8.070
  251POPC   C4A 7938   8.393  27.619   7.592
  251POPC   C1B 7939   7.962  27.986   8.675
  251POPC   C2B 7940   8.056  27.965   8.213
  251POPC   C3B 7941   7.934  27.755   7.812
  251POPC   C4B 7942   7.610  27.737   7.455
  252POPC   NC3 7943  34.817  19.793   9.591
  252POPC   PO4 7944  34.294  19.433   9.190
  252POPC   GL1 7945  34.473  19.726   8.970
  252POPC   GL2 7946  34.752  19.829   9.083
  252POPC   C1A 7947  34.424  19.900   8.634
  252POPC   D2A 7948  34.448  19.615   8.372
  252POPC   C3A 7949  34.737  19.720   8.087
  252POPC   C4A 7950  34.632  19.665   7.664
  252POPC   C1B 7951  34.903  20.023   8.729
  252POPC   C2B 7952  35.133  19.973   8.359
  252POPC   C3B 7953  35.145  20.143   7.965
  252POPC   C4B 7954  34.792  20.120   7.772
  253POPC   NC3 7955  19.868  19.534  10.032
  253POPC   PO4 7956  19.858  19.782   9.411
  253POPC   GL1 7957  19.976  19.761   8.984
  253POPC   GL2 7958  19.651  19.911   8.948
  253POPC   C1A 7959  19.944  19.994   8.543
  253POPC   D2A 7960  19.583  20.133   8.320
  253POPC   C3A 7961  19.615  20.051   7.911
  253POPC   C4A 7962  19.968  19.780   7.806
  253POPC   C1B 7963  19.641  19.592   8.631
  253POPC   C2B 7964  19.615  19.620   8.181
  253POPC   C3B 7965  19.491  19.600   7.734
  253POPC   C4B 7966  19.407  19.513   7.258
  254POPC   NC3 7967  33.324  13.126   9.455
  254POPC   PO4 7968  32.886  12.631   9.341
  254POPC   GL1 7969  33.161  12.842   9.054
  254POPC   GL2 7970  33.483  12.719   8.940
  254POPC   C1A 7971  33.203  13.134   8.712
  254POPC   D2A 7972  33.411  13.187   8.308
  254POPC   C3A 7973  33.228  12.832   8.088
  254POPC   C4A 7974  32.920  12.519   7.942
  254POPC   C1B 7975  33.171  12.500   8.662
  254POPC   C2B 7976  33.161  12.243   8.326
  254POPC   C3B 7977  33.402  12.342   7.995
  254POPC   C4B 7978  33.568  12.468   7.606
  255POPC   NC3 7979  43.101  35.147   9.676
  255POPC   PO4 7980  43.136  34.458   9.626
  255POPC   GL1 7981  43.098  34.657   9.208
  255POPC   GL2 7982  43.250  34.324   9.087
  255POPC   C1A 7983  43.153  34.774   8.807
  255POPC   D2A 7984  43.261  34.669   8.417
  255POPC   C3A 7985  43.038  34.674   8.034
  255POPC   C4A 7986  43.206  34.629   7.619
  255POPC   C1B 7987  42.861  34.369   8.852
  255POPC   C2B 7988  42.719  34.450   8.444
  255POPC   C3B 7989  42.623  34.181   8.105
  255POPC   C4B 7990  42.831  34.301   7.727
  256POPC   NC3 7991  33.854  15.163   9.937
  256POPC   PO4 7992  33.589  15.462   9.470
  256POPC   GL1 7993  33.685  15.201   9.190
  256POPC   GL2 7994  33.977  15.119   9.171
  256POPC   C1A 7995  33.553  15.084   8.804
  256POPC   D2A 7996  33.463  15.318   8.428
  256POPC   C3A 7997  33.656  15.167   8.047
  256POPC   C4A 7998  33.687  14.959   7.690
  256POPC   C1B 7999  34.028  14.934   8.775
  256POPC   C2B 8000  34.023  15.069   8.363
  256POPC   C3B 8001  34.120  14.841   7.954
  256POPC   C4B 8002  34.129  14.842   7.477
  257POPC   NC3 8003   6.099  44.021   9.570
  257POPC   PO4 8004   5.618  43.567   9.428
  257POPC   GL1 8005   5.615  43.839   9.101
  257POPC   GL2 8006   5.935  43.939   9.093
  257POPC   C1A 8007   5.689  43.817   8.676
  257POPC   D2A 8008   5.757  43.993   8.291
  257POPC   C3A 8009   5.728  43.770   7.955
  257POPC   C4A 8010   5.515  43.760   7.560
  257POPC   C1B 8011   6.200  43.821   8.734
  257POPC   C2B 8012   6.345  44.053   8.360
  257POPC   C3B 8013   6.216  44.088   7.944
  257POPC   C4B 8014   6.033  43.902   7.580
  258POPC   NC3 8015  17.708  42.131   9.491
  258POPC   PO4 8016  17.312  42.736   9.400
  258POPC   GL1 8017  17.497  42.450   9.151
  258POPC   GL2 8018  17.244  42.217   9.238
  258POPC   C1A 8019  17.681  42.456   8.752
  258POPC   D2A 8020  17.607  42.733   8.401
  258POPC   C3A 8021  17.639  42.514   8.011
  258POPC   C4A 8022  17.411  42.571   7.634
  258POPC   C1B 8023  17.235  42.203   8.785
  258POPC   C2B 8024  17.399  42.229   8.363
  258POPC   C3B 8025  17.234  42.184   7.937
  258POPC   C4B 8026  17.164  42.163   7.466
  259POPC   NC3 8027   3.305  39.936   9.457
  259POPC   PO4 8028   2.672  40.061   9.567
  259POPC   GL1 8029   2.782  40.063   9.166
  259POPC   GL2 8030   2.758  39.736   9.051
  259POPC   C1A 8031   2.587  40.127   8.758
  259POPC   D2A 8032   2.705  40.077   8.337
  259POPC   C3A 8033   2.531  40.254   7.997
  259POPC   C4A 8034   2.485  39.998   7.649
  259POPC   C1B 8035   2.880  39.679   8.636
  259POPC   C2B 8036   2.973  39.626   8.219
  259POPC   C3B 8037   2.950  39.881   7.874
  259POPC   C4B 8038   2.965  39.755   7.448
  260POPC   NC3 8039   7.395  11.411   9.528
  260POPC   PO4 8040   6.948  10.942   9.647
  260POPC   GL1 8041   7.084  11.114   9.229
  260POPC   GL2 8042   7.091  11.507   9.129
  260POPC   C1A 8043   7.325  11.088   8.817
  260POPC   D2A 8044   7.396  11.164   8.357
  260POPC   C3A 8045   7.430  10.880   7.993
  260POPC   C4A 8046   7.576  10.878   7.539
  260POPC   C1B 8047   7.220  11.593   8.682
  260POPC   C2B 8048   7.492  11.677   8.296
  260POPC   C3B 8049   7.488  11.438   7.903
  260POPC   C4B 8050   7.404  11.391   7.470
  261POPC   NC3 8051   8.593   8.093   9.445
  261POPC   PO4 8052   9.266   8.324   9.526
  261POPC   GL1 8053   9.074   8.096   9.221
  261POPC   GL2 8054   8.914   8.389   9.139
  261POPC   C1A 8055   8.930   8.025   8.792
  261POPC   D2A 8056   8.971   8.288   8.433
  261POPC   C3A 8057   8.992   8.053   8.050
  261POPC   C4A 8058   9.217   8.182   7.691
  261POPC   C1B 8059   8.651   8.479   8.794
  261POPC   C2B 8060   8.446   8.358   8.451
  261POPC   C3B 8061   8.583   8.386   8.055
  261POPC   C4B 8062   8.711   8.219   7.659
  262POPC   NC3 8063  30.145  44.413   9.461
  262POPC   PO4 8064  29.481  44.200   9.437
  262POPC   GL1 8065  29.608  44.446   9.062
  262POPC   GL2 8066  29.960  44.533   9.001
  262POPC   C1A 8067  29.432  44.587   8.680
  262POPC   D2A 8068  29.484  44.823   8.318
  262POPC   C3A 8069  29.805  44.645   8.060
  262POPC   C4A 8070  29.735  44.563   7.615
  262POPC   C1B 8071  30.242  44.381   8.691
  262POPC   C2B 8072  30.488  44.417   8.343
  262POPC   C3B 8073  30.485  44.296   7.945
  262POPC   C4B 8074  30.233  44.575   7.723
  263POPC   NC3 8075   5.663  11.671   9.332
  263POPC   PO4 8076   5.905  12.191   9.718
  263POPC   GL1 8077   6.092  12.005   9.295
  263POPC   GL2 8078   5.854  12.153   9.098
  263POPC   C1A 8079   6.234  11.971   8.813
  263POPC   D2A 8080   6.187  12.233   8.446
  263POPC   C3A 8081   5.874  12.137   8.133
  263POPC   C4A 8082   5.992  12.120   7.724
  263POPC   C1B 8083   5.740  12.103   8.659
  263POPC   C2B 8084   5.462  11.791   8.514
  263POPC   C3B 8085   5.506  11.742   8.125
  263POPC   C4B 8086   5.463  12.027   7.778
  264POPC   NC3 8087  17.876  13.111   9.438
  264POPC   PO4 8088  17.296  12.851   9.581
  264POPC   GL1 8089  17.387  12.982   9.117
  264POPC   GL2 8090  17.701  13.119   8.982
  264POPC   C1A 8091  17.321  13.111   8.664
  264POPC   D2A 8092  17.145  13.273   8.302
  264POPC   C3A 8093  17.293  13.080   7.953
  264POPC   C4A 8094  17.327  12.680   7.813
  264POPC   C1B 8095  17.957  13.086   8.633
  264POPC   C2B 8096  17.980  12.851   8.252
  264POPC   C3B 8097  17.796  12.917   7.866
  264POPC   C4B 8098  17.649  13.293   7.689
  265POPC   NC3 8099  21.980   9.454   9.414
  265POPC   PO4 8100  22.123   8.821   9.565
  265POPC   GL1 8101  22.292   8.870   9.151
  265POPC   GL2 8102  22.383   9.240   9.184
  265POPC   C1A 8103  22.391   8.814   8.724
  265POPC   D2A 8104  22.411   9.051   8.358
  265POPC   C3A 8105  22.140   8.927   8.078
  265POPC   C4A 8106  22.100   8.631   7.748
  265POPC   C1B 8107  22.147   9.252   8.794
  265POPC   C2B 8108  21.953   9.285   8.389
  265POPC   C3B 8109  21.978   9.401   7.946
  265POPC   C4B 8110  21.665   9.469   7.621
  266POPC   NC3 8111  42.867  13.328   9.301
  266POPC   PO4 8112  42.705  13.827   9.767
  266POPC   GL1 8113  42.949  13.848   9.332
  266POPC   GL2 8114  43.257  14.051   9.208
  266POPC   C1A 8115  42.878  13.797   8.867
  266POPC   D2A 8116  42.930  13.803   8.422
  266POPC   C3A 8117  42.970  13.507   8.106
  266POPC   C4A 8118  42.802  13.567   7.698
  266POPC   C1B 8119  43.284  14.065   8.715
  266POPC   C2B 8120  43.407  13.889   8.277
  266POPC   C3B 8121  43.412  13.662   7.889
  266POPC   C4B 8122  43.240  13.297   7.673
  267POPC   NC3 8123  39.293  36.834   9.541
  267POPC   PO4 8124  38.949  37.297   9.176
  267POPC   GL1 8125  39.360  37.164   9.136
  267POPC   GL2 8126  39.385  36.808   9.045
  267POPC   C1A 8127  39.539  37.217   8.753
  267POPC   D2A 8128  39.519  36.936   8.420
  267POPC   C3A 8129  39.396  36.922   7.984
  267POPC   C4A 8130  39.043  37.095   7.785
  267POPC   C1B 8131  39.716  36.624   8.806
  267POPC   C2B 8132  39.863  36.588   8.401
  267POPC   C3B 8133  39.680  36.460   8.034
  267POPC   C4B 8134  39.584  36.582   7.621
  268POPC   NC3 8135  14.545  26.489   9.535
  268POPC   PO4 8136  14.159  25.927   9.538
  268POPC   GL1 8137  14.204  26.122   9.151
  268POPC   GL2 8138  14.546  26.219   9.089
  268POPC   C1A 8139  14.235  26.006   8.727
  268POPC   D2A 8140  14.549  25.921   8.471
  268POPC   C3A 8141  14.450  26.059   8.067
  268POPC   C4A 8142  14.483  25.971   7.634
  268POPC   C1B 8143  14.682  26.425   8.665
  268POPC   C2B 8144  14.734  26.545   8.217
  268POPC   C3B 8145  14.734  26.401   7.786
  268POPC   C4B 8146  14.738  26.295   7.327
  269POPC   NC3 8147  31.986  33.163   9.767
  269POPC   PO4 8148  32.168  33.789   9.547
  269POPC   GL1 8149  32.267  33.764   9.161
  269POPC   GL2 8150  32.012  33.565   9.072
  269POPC   C1A 8151  32.437  33.709   8.761
  269POPC   D2A 8152  32.571  33.453   8.393
  269POPC   C3A 8153  32.473  33.646   7.997
  269POPC   C4A 8154  32.272  33.531   7.627
  269POPC   C1B 8155  31.985  33.992   8.817
  269POPC   C2B 8156  32.238  34.204   8.518
  269POPC   C3B 8157  32.268  34.140   8.100
  269POPC   C4B 8158  32.190  34.022   7.668
  270POPC   NC3 8159   2.850  12.290   9.398
  270POPC   PO4 8160   2.490  11.722   9.260
  270POPC   GL1 8161   2.914  11.867   9.134
  270POPC   GL2 8162   3.079  12.195   8.973
  270POPC   C1A 8163   2.937  11.788   8.731
  270POPC   D2A 8164   2.648  11.883   8.383
  270POPC   C3A 8165   2.791  12.186   8.073
  270POPC   C4A 8166   2.957  12.134   7.652
  270POPC   C1B 8167   2.855  12.297   8.611
  270POPC   C2B 8168   2.626  12.583   8.360
  270POPC   C3B 8169   2.454  12.628   7.951
  270POPC   C4B 8170   2.563  12.534   7.551
  271POPC   NC3 8171   3.808   2.041   9.497
  271POPC   PO4 8172   3.330   1.571   9.502
  271POPC   GL1 8173   3.321   1.731   9.102
  271POPC   GL2 8174   3.690   1.753   9.087
  271POPC   C1A 8175   3.249   1.996   8.737
  271POPC   D2A 8176   3.434   2.099   8.354
  271POPC   C3A 8177   3.257   2.271   8.054
  271POPC   C4A 8178   3.268   2.178   7.625
  271POPC   C1B 8179   3.759   1.896   8.684
  271POPC   C2B 8180   3.707   1.686   8.260
  271POPC   C3B 8181   3.606   1.858   7.838
  271POPC   C4B 8182   3.653   1.880   7.368
  272POPC   NC3 8183   7.030  40.633   9.621
  272POPC   PO4 8184   7.550  41.067   9.718
  272POPC   GL1 8185   7.349  40.838   9.270
  272POPC   GL2 8186   7.060  40.623   9.129
  272POPC   C1A 8187   7.414  40.751   8.799
  272POPC   D2A 8188   7.770  40.548   8.536
  272POPC   C3A 8189   7.604  40.482   8.119
  272POPC   C4A 8190   7.277  40.742   7.933
  272POPC   C1B 8191   6.945  40.481   8.720
  272POPC   C2B 8192   7.065  40.426   8.298
  272POPC   C3B 8193   6.842  40.413   7.922
  272POPC   C4B 8194   6.966  40.618   7.561
  273POPC   NC3 8195   4.898   6.043   9.655
  273POPC   PO4 8196   5.126   5.396   9.659
  273POPC   GL1 8197   5.181   5.808   9.309
  273POPC   GL2 8198   5.524   5.990   9.287
  273POPC   C1A 8199   5.049   5.969   8.846
  273POPC   D2A 8200   4.782   5.772   8.477
  273POPC   C3A 8201   4.852   5.958   8.050
  273POPC   C4A 8202   4.942   6.372   7.855
  273POPC   C1B 8203   5.548   5.982   8.842
  273POPC   C2B 8204   5.361   5.849   8.434
  273POPC   C3B 8205   5.380   5.921   7.992
  273POPC   C4B 8206   5.443   6.144   7.621
  274POPC   NC3 8207  14.747  12.844   9.318
  274POPC   PO4 8208  15.302  12.992   9.542
  274POPC   GL1 8209  15.385  12.669   9.164
  274POPC   GL2 8210  15.052  12.534   9.040
  274POPC   C1A 8211  15.508  12.564   8.691
  274POPC   D2A 8212  15.336  12.519   8.234
  274POPC   C3A 8213  15.257  12.858   7.906
  274POPC   C4A 8214  15.150  12.882   7.449
  274POPC   C1B 8215  14.775  12.686   8.668
  274POPC   C2B 8216  14.853  12.794   8.224
  274POPC   C3B 8217  14.739  12.835   7.785
  274POPC   C4B 8218  14.787  12.520   7.425
  275POPC   NC3 8219  34.878  28.229   9.474
  275POPC   PO4 8220  34.312  28.405   9.689
  275POPC   GL1 8221  34.441  28.365   9.215
  275POPC   GL2 8222  34.579  28.651   9.073
  275POPC   C1A 8223  34.562  28.282   8.741
  275POPC   D2A 8224  34.787  28.168   8.353
  275POPC   C3A 8225  34.521  28.038   8.023
  275POPC   C4A 8226  34.527  28.143   7.597
  275POPC   C1B 8227  34.316  28.753   8.754
  275POPC   C2B 8228  34.493  28.703   8.364
  275POPC   C3B 8229  34.529  28.532   7.973
  275POPC   C4B 8230  34.198  28.498   7.694
  276POPC   NC3 8231  44.180  44.000   9.796
  276POPC   PO4 8232  44.707  44.029   9.382
  276POPC   GL1 8233  44.608  43.867   9.033
  276POPC   GL2 8234  44.961  43.736   8.987
  276POPC   C1A 8235  44.643  43.842   8.591
  276POPC   D2A 8236  44.852  43.654   8.278
  276POPC   C3A 8237  44.549  43.691   7.997
  276POPC   C4A 8238  44.612  43.854   7.636
  276POPC   C1B 8239  44.975  44.174   8.797
  276POPC   C2B 8240  44.820  44.290   8.373
  276POPC   C3B 8241  44.914  44.075   8.002
  276POPC   C4B 8242   0.150  44.073   7.636
  277POPC   NC3 8243   5.345  17.761   9.439
  277POPC   PO4 8244   4.984  17.120   9.527
  277POPC   GL1 8245   5.003  17.356   9.160
  277POPC   GL2 8246   5.360  17.351   9.080
  277POPC   C1A 8247   5.006  17.158   8.747
  277POPC   D2A 8248   5.322  17.239   8.407
  277POPC   C3A 8249   5.106  17.306   8.027
  277POPC   C4A 8250   4.843  17.011   7.817
  277POPC   C1B 8251   5.194  17.619   8.736
  277POPC   C2B 8252   5.444  17.876   8.466
  277POPC   C3B 8253   5.500  17.883   8.029
  277POPC   C4B 8254   5.090  17.778   7.814
  278POPC   NC3 8255  18.932  17.215   9.395
  278POPC   PO4 8256  19.349  16.613   9.403
  278POPC   GL1 8257  19.045  16.726   9.153
  278POPC   GL2 8258  19.189  17.010   8.984
  278POPC   C1A 8259  18.946  16.500   8.793
  278POPC   D2A 8260  18.816  16.322   8.392
  278POPC   C3A 8261  19.049  16.520   8.055
  278POPC   C4A 8262  19.022  16.809   7.725
  278POPC   C1B 8263  18.738  16.971   8.823
  278POPC   C2B 8264  18.791  16.833   8.423
  278POPC   C3B 8265  18.817  17.087   8.084
  278POPC   C4B 8266  18.564  17.076   7.707
  279POPC   NC3 8267  35.701  38.295   9.504
  279POPC   PO4 8268  34.993  38.165   9.470
  279POPC   GL1 8269  35.108  38.298   9.107
  279POPC   GL2 8270  35.388  38.498   9.159
  279POPC   C1A 8271  35.240  38.196   8.698
  279POPC   D2A 8272  35.076  38.297   8.292
  279POPC   C3A 8273  35.337  38.433   7.951
  279POPC   C4A 8274  35.760  38.500   7.806
  279POPC   C1B 8275  35.203  38.716   8.819
  279POPC   C2B 8276  35.454  38.775   8.464
  279POPC   C3B 8277  35.568  38.878   8.071
  279POPC   C4B 8278  35.407  38.843   7.639
  280POPC   NC3 8279  15.538   7.122   9.486
  280POPC   PO4 8280  14.921   7.462   9.450
  280POPC   GL1 8281  15.139   7.317   9.132
  280POPC   GL2 8282  15.454   7.439   9.085
  280POPC   C1A 8283  15.103   7.339   8.711
  280POPC   D2A 8284  14.846   7.434   8.394
  280POPC   C3A 8285  15.044   7.425   7.999
  280POPC   C4A 8286  14.798   7.729   7.807
  280POPC   C1B 8287  15.554   7.538   8.694
  280POPC   C2B 8288  15.479   7.346   8.276
  280POPC   C3B 8289  15.531   7.439   7.810
  280POPC   C4B 8290  15.631   7.562   7.350
  281POPC   NC3 8291  31.504  30.257   9.477
  281POPC   PO4 8292  31.542  29.630   9.557
  281POPC   GL1 8293  31.439  29.804   9.139
  281POPC   GL2 8294  31.189  30.106   9.125
  281POPC   C1A 8295  31.750  29.806   8.794
  281POPC   D2A 8296  31.727  29.615   8.365
  281POPC   C3A 8297  31.674  29.854   7.995
  281POPC   C4A 8298  31.326  29.786   7.751
  281POPC   C1B 8299  31.445  30.240   8.813
  281POPC   C2B 8300  31.451  30.035   8.447
  281POPC   C3B 8301  31.160  29.971   8.184
  281POPC   C4B 8302  31.295  30.279   7.868
  282POPC   NC3 8303  20.796   6.212   9.435
  282POPC   PO4 8304  20.630   6.942   9.389
  282POPC   GL1 8305  20.580   6.863   9.018
  282POPC   GL2 8306  20.782   6.548   9.039
  282POPC   C1A 8307  20.508   6.666   8.623
  282POPC   D2A 8308  20.679   6.488   8.257
  282POPC   C3A 8309  20.571   6.696   7.894
  282POPC   C4A 8310  20.514   6.871   7.475
  282POPC   C1B 8311  20.992   6.856   8.756
  282POPC   C2B 8312  20.872   6.970   8.346
  282POPC   C3B 8313  21.062   6.869   7.965
  282POPC   C4B 8314  20.986   6.676   7.598
  283POPC   NC3 8315  34.801  24.822   9.672
  283POPC   PO4 8316  34.487  25.421   9.599
  283POPC   GL1 8317  34.432  25.319   9.162
  283POPC   GL2 8318  34.515  24.972   9.082
  283POPC   C1A 8319  34.602  25.374   8.741
  283POPC   D2A 8320  34.731  25.603   8.356
  283POPC   C3A 8321  34.622  25.438   7.971
  283POPC   C4A 8322  34.543  25.528   7.528
  283POPC   C1B 8323  34.859  24.923   8.764
  283POPC   C2B 8324  34.884  25.099   8.372
  283POPC   C3B 8325  34.932  25.027   7.954
  283POPC   C4B 8326  34.592  25.040   7.658
  284POPC   NC3 8327  28.534  44.939   9.498
  284POPC   PO4 8328  28.736   0.525   9.802
  284POPC   GL1 8329  28.520   0.425   9.326
  284POPC   GL2 8330  28.401   0.728   9.114
  284POPC   C1A 8331  28.333   0.271   8.875
  284POPC   D2A 8332  28.166   0.312   8.417
  284POPC   C3A 8333  28.480   0.306   8.061
  284POPC   C4A 8334  28.608   0.617   7.741
  284POPC   C1B 8335  28.059   0.725   8.774
  284POPC   C2B 8336  27.771   0.867   8.447
  284POPC   C3B 8337  27.817   0.753   8.017
  284POPC   C4B 8338  28.097   0.517   7.823
  285POPC   NC3 8339  31.073  31.270   9.546
  285POPC   PO4 8340  31.809  31.308   9.493
  285POPC   GL1 8341  31.694  31.496   9.099
  285POPC   GL2 8342  31.358  31.582   9.132
  285POPC   C1A 8343  31.637  31.627   8.665
  285POPC   D2A 8344  31.754  31.412   8.275
  285POPC   C3A 8345  31.741  31.510   7.850
  285POPC   C4A 8346  31.505  31.372   7.509
  285POPC   C1B 8347  31.114  31.618   8.733
  285POPC   C2B 8348  31.263  31.628   8.306
  285POPC   C3B 8349  31.197  31.472   7.909
  285POPC   C4B 8350  31.109  31.666   7.516
  286POPC   NC3 8351   9.981   5.418   9.463
  286POPC   PO4 8352  10.191   4.844   9.394
  286POPC   GL1 8353   9.786   4.985   9.153
  286POPC   GL2 8354   9.592   5.285   9.136
  286POPC   C1A 8355   9.594   4.889   8.766
  286POPC   D2A 8356   9.617   5.052   8.378
  286POPC   C3A 8357   9.481   4.829   8.012
  286POPC   C4A 8358   9.760   4.898   7.642
  286POPC   C1B 8359   9.845   5.395   8.764
  286POPC   C2B 8360  10.063   5.280   8.371
  286POPC   C3B 8361   9.838   5.297   7.972
  286POPC   C4B 8362   9.886   5.390   7.541
  287POPC   NC3 8363  35.612  43.391   9.481
  287POPC   PO4 8364  35.081  42.974   9.453
  287POPC   GL1 8365  35.383  43.082   9.157
  287POPC   GL2 8366  35.597  42.804   9.154
  287POPC   C1A 8367  35.401  43.330   8.788
  287POPC   D2A 8368  35.207  43.125   8.406
  287POPC   C3A 8369  35.356  43.255   8.008
  287POPC   C4A 8370  35.212  43.063   7.637
  287POPC   C1B 8371  35.535  42.849   8.706
  287POPC   C2B 8372  35.566  42.745   8.266
  287POPC   C3B 8373  35.599  42.824   7.834
  287POPC   C4B 8374  35.625  42.863   7.373
  288POPC   NC3 8375  18.846  19.651   9.542
  288POPC   PO4 8376  19.451  19.313   9.741
  288POPC   GL1 8377  19.370  19.550   9.253
  288POPC   GL2 8378  19.201  19.859   9.204
  288POPC   C1A 8379  19.174  19.531   8.803
  288POPC   D2A 8380  19.189  19.787   8.421
  288POPC   C3A 8381  19.059  19.608   8.025
  288POPC   C4A 8382  19.041  19.370   7.650
  288POPC   C1B 8383  18.932  19.994   8.843
  288POPC   C2B 8384  18.933  20.230   8.431
  288POPC   C3B 8385  19.025  20.142   7.998
  288POPC   C4B 8386  18.768  20.223   7.604
  289POPC   NC3 8387  41.872  15.647   9.874
  289POPC   PO4 8388  41.709  15.087   9.477
  289POPC   GL1 8389  41.705  15.193   9.049
  289POPC   GL2 8390  41.382  15.036   8.987
  289POPC   C1A 8391  41.702  15.136   8.590
  289POPC   D2A 8392  41.910  15.395   8.333
  289POPC   C3A 8393  41.763  15.434   7.943
  289POPC   C4A 8394  41.741  15.053   7.804
  289POPC   C1B 8395  41.201  15.070   8.569
  289POPC   C2B 8396  41.387  15.147   8.163
  289POPC   C3B 8397  41.292  15.286   7.732
  289POPC   C4B 8398  41.299  15.652   7.435
  290POPC   NC3 8399   1.737  39.259   9.554
  290POPC   PO4 8400   2.280  39.247   9.430
  290POPC   GL1 8401   2.011  39.272   9.104
  290POPC   GL2 8402   1.773  39.568   9.139
  290POPC   C1A 8403   2.070  39.013   8.752
  290POPC   D2A 8404   2.187  39.140   8.341
  290POPC   C3A 8405   1.996  39.002   7.956
  290POPC   C4A 8406   2.045  39.241   7.574
  290POPC   C1B 8407   1.669  39.339   8.734
  290POPC   C2B 8408   1.676  39.043   8.421
  290POPC   C3B 8409   1.535  39.186   8.086
  290POPC   C4B 8410   1.552  39.184   7.674
  291POPC   NC3 8411  32.520  16.469   9.303
  291POPC   PO4 8412  32.222  17.040   9.627
  291POPC   GL1 8413  32.114  16.856   9.219
  291POPC   GL2 8414  32.168  16.605   8.993
  291POPC   C1A 8415  31.850  16.960   8.852
  291POPC   D2A 8416  31.906  17.087   8.422
  291POPC   C3A 8417  32.068  16.872   8.065
  291POPC   C4A 8418  31.893  16.906   7.650
  291POPC   C1B 8419  32.292  16.318   8.674
  291POPC   C2B 8420  32.328  16.442   8.249
  291POPC   C3B 8421  32.336  16.258   7.857
  291POPC   C4B 8422  32.492  16.613   7.666
  292POPC   NC3 8423   0.757  16.192   9.592
  292POPC   PO4 8424   1.433  15.877   9.458
  292POPC   GL1 8425   1.255  15.951   9.101
  292POPC   GL2 8426   0.936  15.869   9.209
  292POPC   C1A 8427   1.294  15.807   8.670
  292POPC   D2A 8428   1.361  15.623   8.258
  292POPC   C3A 8429   1.262  15.908   7.933
  292POPC   C4A 8430   1.376  16.250   7.710
  292POPC   C1B 8431   0.780  15.970   8.790
  292POPC   C2B 8432   0.921  16.014   8.359
  292POPC   C3B 8433   0.761  16.029   7.947
  292POPC   C4B 8434   0.879  16.068   7.512
  293POPC   NC3 8435  13.364  30.299   9.255
  293POPC   PO4 8436  13.111  29.758   9.593
  293POPC   GL1 8437  12.976  29.858   9.128
  293POPC   GL2 8438  12.907  30.227   9.044
  293POPC   C1A 8439  12.659  29.901   8.746
  293POPC   D2A 8440  12.492  29.950   8.311
  293POPC   C3A 8441  12.631  29.629   8.027
  293POPC   C4A 8442  13.042  29.700   7.865
  293POPC   C1B 8443  13.139  30.070   8.675
  293POPC   C2B 8444  13.112  30.066   8.242
  293POPC   C3B 8445  12.850  30.188   7.909
  293POPC   C4B 8446  12.483  30.452   7.812
  294POPC   NC3 8447  38.914   4.113   9.533
  294POPC   PO4 8448  39.170   4.748   9.553
  294POPC   GL1 8449  39.032   4.495   9.182
  294POPC   GL2 8450  39.174   4.198   9.106
  294POPC   C1A 8451  39.012   4.399   8.692
  294POPC   D2A 8452  38.815   4.482   8.284
  294POPC   C3A 8453  39.193   4.509   8.039
  294POPC   C4A 8454  39.334   4.105   7.854
  294POPC   C1B 8455  39.464   4.119   8.779
  294POPC   C2B 8456  39.533   3.982   8.370
  294POPC   C3B 8457  39.797   4.093   8.049
  294POPC   C4B 8458  39.809   3.938   7.649
  295POPC   NC3 8459  10.997  21.958   9.536
  295POPC   PO4 8460  11.060  22.647   9.495
  295POPC   GL1 8461  11.246  22.431   9.131
  295POPC   GL2 8462  11.238  22.049   9.097
  295POPC   C1A 8463  11.191  22.334   8.693
  295POPC   D2A 8464  11.202  22.091   8.360
  295POPC   C3A 8465  11.479  22.232   8.080
  295POPC   C4A 8466  11.416  22.378   7.682
  295POPC   C1B 8467  11.435  21.801   8.746
  295POPC   C2B 8468  11.531  21.678   8.360
  295POPC   C3B 8469  11.705  21.777   7.994
  295POPC   C4B 8470  11.653  21.911   7.598
  296POPC   NC3 8471  32.007  31.719   9.441
  296POPC   PO4 8472  32.659  31.923   9.486
  296POPC   GL1 8473  32.458  31.641   9.159
  296POPC   GL2 8474  32.307  31.328   9.246
  296POPC   C1A 8475  32.135  31.632   8.823
  296POPC   D2A 8476  32.084  31.764   8.420
  296POPC   C3A 8477  32.239  31.526   8.092
  296POPC   C4A 8478  32.215  31.437   7.679
  296POPC   C1B 8479  32.394  31.193   8.806
  296POPC   C2B 8480  32.407  31.115   8.354
  296POPC   C3B 8481  32.518  31.067   7.913
  296POPC   C4B 8482  32.684  31.309   7.575
  297POPC   NC3 8483   1.535  40.490   9.392
  297POPC   PO4 8484   2.320  40.588   9.426
  297POPC   GL1 8485   2.167  40.773   9.059
  297POPC   GL2 8486   1.852  40.656   9.053
  297POPC   C1A 8487   2.055  40.715   8.600
  297POPC   D2A 8488   2.108  40.463   8.241
  297POPC   C3A 8489   1.986  40.748   7.928
  297POPC   C4A 8490   1.822  41.118   7.775
  297POPC   C1B 8491   1.596  40.449   8.749
  297POPC   C2B 8492   1.610  40.564   8.346
  297POPC   C3B 8493   1.668  40.347   7.985
  297POPC   C4B 8494   1.591  40.434   7.568
  298POPC   NC3 8495  27.044  16.546   9.611
  298POPC   PO4 8496  26.653  17.064   9.701
  298POPC   GL1 8497  26.706  16.780   9.312
  298POPC   GL2 8498  26.439  16.721   9.139
  298POPC   C1A 8499  26.877  16.500   8.929
  298POPC   D2A 8500  26.999  16.338   8.496
  298POPC   C3A 8501  27.045  16.491   8.081
  298POPC   C4A 8502  26.793  16.656   7.753
  298POPC   C1B 8503  26.674  16.951   8.807
  298POPC   C2B 8504  27.011  16.865   8.463
  298POPC   C3B 8505  27.107  16.994   8.007
  298POPC   C4B 8506  27.123  17.065   7.538
  299POPC   NC3 8507  16.370  15.052   9.542
  299POPC   PO4 8508  16.321  15.694   9.478
  299POPC   GL1 8509  16.609  15.449   9.168
  299POPC   GL2 8510  16.799  15.108   9.202
  299POPC   C1A 8511  16.650  15.231   8.757
  299POPC   D2A 8512  16.884  15.145   8.392
  299POPC   C3A 8513  16.634  15.197   8.021
  299POPC   C4A 8514  16.627  15.436   7.627
  299POPC   C1B 8515  17.091  14.939   8.841
  299POPC   C2B 8516  17.121  14.698   8.420
  299POPC   C3B 8517  16.996  14.805   8.012
  299POPC   C4B 8518  17.005  14.997   7.637
  300POPC   NC3 8519  29.581  27.099   9.321
  300POPC   PO4 8520  30.049  27.591   9.629
  300POPC   GL1 8521  30.095  27.654   9.160
  300POPC   GL2 8522  30.036  27.298   9.086
  300POPC   C1A 8523  29.895  27.876   8.747
  300POPC   D2A 8524  29.871  27.765   8.278
  300POPC   C3A 8525  30.206  27.844   7.964
  300POPC   C4A 8526  30.276  27.716   7.535
  300POPC   C1B 8527  29.837  27.358   8.664
  300POPC   C2B 8528  29.910  27.252   8.253
  300POPC   C3B 8529  29.916  27.423   7.811
  300POPC   C4B 8530  29.795  27.165   7.417
  301POPC   NC3 8531  23.991  35.291   9.378
  301POPC   PO4 8532  23.496  34.913   9.605
  301POPC   GL1 8533  23.475  35.088   9.152
  301POPC   GL2 8534  23.600  35.416   9.088
  301POPC   C1A 8535  23.680  35.103   8.712
  301POPC   D2A 8536  23.981  35.013   8.396
  301POPC   C3A 8537  23.828  35.169   8.027
  301POPC   C4A 8538  24.106  35.491   7.916
  301POPC   C1B 8539  23.428  35.657   8.752
  301POPC   C2B 8540  23.564  35.686   8.333
  301POPC   C3B 8541  23.574  35.594   7.911
  301POPC   C4B 8542  23.812  35.850   7.714
  302POPC   NC3 8543  44.519  12.571   9.402
  302POPC   PO4 8544  44.802  13.069   9.554
  302POPC   GL1 8545  44.656  13.098   9.147
  302POPC   GL2 8546  44.857  12.809   9.071
  302POPC   C1A 8547  44.503  12.955   8.737
  302POPC   D2A 8548  44.552  12.699   8.378
  302POPC   C3A 8549  44.695  12.949   8.074
  302POPC   C4A 8550  44.391  13.016   7.751
  302POPC   C1B 8551   0.012  12.751   8.660
  302POPC   C2B 8552   0.039  12.597   8.229
  302POPC   C3B 8553   0.061  12.697   7.787
  302POPC   C4B 8554  44.831  12.691   7.404
  303POPC   NC3 8555   2.205  12.991   9.535
  303POPC   PO4 8556   2.461  12.435   9.179
  303POPC   GL1 8557   2.117  12.764   9.096
  303POPC   GL2 8558   2.293  13.091   9.042
  303POPC   C1A 8559   1.887  12.991   8.755
  303POPC   D2A 8560   1.879  12.725   8.385
  303POPC   C3A 8561   1.920  12.855   7.968
  303POPC   C4A 8562   1.967  12.509   7.719
  303POPC   C1B 8563   2.384  12.897   8.681
  303POPC   C2B 8564   2.284  13.007   8.311
  303POPC   C3B 8565   2.441  13.129   7.993
  303POPC   C4B 8566   2.310  13.048   7.653
  304POPC   NC3 8567  10.863  16.082   9.458
  304POPC   PO4 8568  10.257  16.474   9.673
  304POPC   GL1 8569  10.358  16.687   9.300
  304POPC   GL2 8570  10.694  16.554   9.227
  304POPC   C1A 8571  10.180  16.743   8.872
  304POPC   D2A 8572  10.297  16.472   8.515
  304POPC   C3A 8573  10.376  16.507   8.074
  304POPC   C4A 8574  10.060  16.668   7.826
  304POPC   C1B 8575  10.675  16.721   8.793
  304POPC   C2B 8576  10.665  16.836   8.372
  304POPC   C3B 8577  10.449  17.006   8.015
  304POPC   C4B 8578  10.715  16.881   7.697
  305POPC   NC3 8579  22.042  16.191   9.437
  305POPC   PO4 8580  21.873  15.636   9.320
  305POPC   GL1 8581  22.000  15.879   9.048
  305POPC   GL2 8582  22.347  15.906   9.149
  305POPC   C1A 8583  22.081  15.835   8.638
  305POPC   D2A 8584  22.429  15.885   8.370
  305POPC   C3A 8585  22.287  15.825   7.957
  305POPC   C4A 8586  21.978  15.985   7.698
  305POPC   C1B 8587  22.368  16.221   8.819
  305POPC   C2B 8588  22.615  16.360   8.466
  305POPC   C3B 8589  22.458  16.303   8.060
  305POPC   C4B 8590  22.320  16.337   7.642
  306POPC   NC3 8591  25.753  35.506   9.597
  306POPC   PO4 8592  26.029  34.891   9.592
  306POPC   GL1 8593  25.882  35.166   9.209
  306POPC   GL2 8594  25.945  35.547   9.134
  306POPC   C1A 8595  25.788  35.252   8.756
  306POPC   D2A 8596  26.071  35.206   8.409
  306POPC   C3A 8597  25.993  35.469   8.051
  306POPC   C4A 8598  25.984  35.525   7.600
  306POPC   C1B 8599  26.090  35.667   8.708
  306POPC   C2B 8600  26.068  35.917   8.300
  306POPC   C3B 8601  26.260  35.884   7.865
  306POPC   C4B 8602  26.334  35.936   7.392
  307POPC   NC3 8603   9.483  40.769   9.742
  307POPC   PO4 8604  10.012  40.831   9.362
  307POPC   GL1 8605   9.858  40.771   9.021
  307POPC   GL2 8606   9.518  40.883   9.143
  307POPC   C1A 8607  10.005  40.603   8.665
  307POPC   D2A 8608   9.872  40.349   8.352
  307POPC   C3A 8609   9.897  40.590   7.999
  307POPC   C4A 8610   9.674  40.882   7.768
  307POPC   C1B 8611   9.581  41.023   8.702
  307POPC   C2B 8612   9.524  40.855   8.304
  307POPC   C3B 8613   9.472  41.219   8.073
  307POPC   C4B 8614   9.279  41.227   7.715
  308POPC   NC3 8615   1.577  16.335   9.431
  308POPC   PO4 8616   1.030  16.641   9.586
  308POPC   GL1 8617   1.181  16.642   9.179
  308POPC   GL2 8618   0.946  16.384   9.089
  308POPC   C1A 8619   1.048  16.798   8.747
  308POPC   D2A 8620   0.788  16.827   8.354
  308POPC   C3A 8621   0.939  16.978   7.969
  308POPC   C4A 8622   1.337  16.908   7.798
  308POPC   C1B 8623   1.272  16.318   8.768
  308POPC   C2B 8624   1.394  16.221   8.349
  308POPC   C3B 8625   1.090  16.440   8.097
  308POPC   C4B 8626   0.960  16.527   7.707
  309POPC   NC3 8627  25.931  15.347   9.706
  309POPC   PO4 8628  26.192  14.836   9.372
  309POPC   GL1 8629  25.995  15.099   9.172
  309POPC   GL2 8630  26.185  15.377   9.275
  309POPC   C1A 8631  25.834  15.060   8.741
  309POPC   D2A 8632  25.579  15.032   8.354
  309POPC   C3A 8633  25.737  15.163   8.004
  309POPC   C4A 8634  25.985  14.909   7.774
  309POPC   C1B 8635  26.248  15.371   8.830
  309POPC   C2B 8636  26.030  15.434   8.439
  309POPC   C3B 8637  26.209  15.270   8.103
  309POPC   C4B 8638  26.217  15.398   7.720
  310POPC   NC3 8639  35.247  10.793   9.534
  310POPC   PO4 8640  35.740  10.468   9.279
  310POPC   GL1 8641  35.305  10.391   9.096
  310POPC   GL2 8642  35.065  10.716   9.054
  310POPC   C1A 8643  35.343  10.173   8.708
  310POPC   D2A 8644  35.267  10.377   8.353
  310POPC   C3A 8645  35.494  10.303   7.998
  310POPC   C4A 8646  35.243  10.269   7.645
  310POPC   C1B 8647  35.055  10.807   8.573
  310POPC   C2B 8648  35.285  10.851   8.145
  310POPC   C3B 8649  35.488  10.753   7.725
  310POPC   C4B 8650  35.854  10.814   7.411
  311POPC   NC3 8651  42.376  38.429   9.571
  311POPC   PO4 8652  41.771  38.132   9.500
  311POPC   GL1 8653  42.073  38.224   9.130
  311POPC   GL2 8654  42.420  38.409   9.090
  311POPC   C1A 8655  42.136  38.383   8.692
  311POPC   D2A 8656  42.038  38.233   8.297
  311POPC   C3A 8657  42.290  38.413   8.005
  311POPC   C4A 8658  42.474  38.250   7.664
  311POPC   C1B 8659  42.673  38.496   8.768
  311POPC   C2B 8660  42.609  38.626   8.370
  311POPC   C3B 8661  42.797  38.555   8.009
  311POPC   C4B 8662  42.669  38.720   7.665
  312POPC   NC3 8663  16.079   6.288   9.376
  312POPC   PO4 8664  15.811   5.736   9.617
  312POPC   GL1 8665  15.839   5.839   9.192
  312POPC   GL2 8666  15.581   6.099   9.201
  312POPC   C1A 8667  16.126   5.854   8.814
  312POPC   D2A 8668  16.370   6.057   8.449
  312POPC   C3A 8669  16.205   6.136   8.004
  312POPC   C4A 8670  15.926   6.145   7.623
  312POPC   C1B 8671  15.652   6.078   8.760
  312POPC   C2B 8672  15.827   5.896   8.389
  312POPC   C3B 8673  15.677   5.886   7.994
  312POPC   C4B 8674  15.573   5.748   7.605
  313POPC   NC3 8675  30.834  21.900   9.451
  313POPC   PO4 8676  30.217  22.182   9.512
  313POPC   GL1 8677  30.444  22.192   9.134
  313POPC   GL2 8678  30.782  22.336   9.134
  313POPC   C1A 8679  30.433  22.497   8.803
  313POPC   D2A 8680  30.484  22.599   8.377
  313POPC   C3A 8681  30.515  22.275   8.073
  313POPC   C4A 8682  30.628  22.235   7.642
  313POPC   C1B 8683  30.893  22.305   8.701
  313POPC   C2B 8684  30.955  22.056   8.376
  313POPC   C3B 8685  30.901  21.945   7.962
  313POPC   C4B 8686  30.941  21.831   7.545
  314POPC   NC3 8687   3.328   9.594   9.497
  314POPC   PO4 8688   3.741  10.085   9.674
  314POPC   GL1 8689   3.634   9.972   9.237
  314POPC   GL2 8690   3.841  10.242   9.113
  314POPC   C1A 8691   3.437   9.713   8.863
  314POPC   D2A 8692   3.503   9.395   8.506
  314POPC   C3A 8693   3.302   9.503   8.127
  314POPC   C4A 8694   3.364   9.653   7.720
  314POPC   C1B 8695   3.808  10.032   8.711
  314POPC   C2B 8696   3.515   9.921   8.370
  314POPC   C3B 8697   3.582  10.059   7.948
  314POPC   C4B 8698   3.991  10.025   7.760
  315POPC   NC3 8699   9.634  10.276   9.708
  315POPC   PO4 8700  10.160  10.432   9.402
  315POPC   GL1 8701   9.771  10.360   9.177
  315POPC   GL2 8702   9.524  10.109   9.229
  315POPC   C1A 8703   9.661  10.612   8.816
  315POPC   D2A 8704   9.833  10.844   8.456
  315POPC   C3A 8705   9.746  10.661   8.065
  315POPC   C4A 8706   9.665  10.774   7.653
  315POPC   C1B 8707   9.413  10.163   8.793
  315POPC   C2B 8708   9.478  10.373   8.395
  315POPC   C3B 8709   9.532  10.194   7.992
  315POPC   C4B 8710   9.625  10.267   7.570
  316POPC   NC3 8711  44.655  30.162   9.331
  316POPC   PO4 8712  44.431  29.524   9.488
  316POPC   GL1 8713  44.621  29.699   9.119
  316POPC   GL2 8714  44.941  29.597   9.024
  316POPC   C1A 8715  44.551  29.888   8.711
  316POPC   D2A 8716  44.442  29.672   8.321
  316POPC   C3A 8717  44.603  29.853   7.940
  316POPC   C4A 8718  44.483  29.989   7.526
  316POPC   C1B 8719   0.017  29.757   8.603
  316POPC   C2B 8720  44.929  29.511   8.267
  316POPC   C3B 8721  44.983  29.501   7.858
  316POPC   C4B 8722  44.939  29.777   7.548
  317POPC   NC3 8723  37.319   6.480   9.274
  317POPC   PO4 8724  37.857   6.649   9.515
  317POPC   GL1 8725  37.959   6.764   9.137
  317POPC   GL2 8726  37.889   7.118   9.095
  317POPC   C1A 8727  37.674   6.697   8.775
  317POPC   D2A 8728  37.376   6.733   8.450
  317POPC   C3A 8729  37.479   6.660   8.042
  317POPC   C4A 8730  37.406   6.834   7.617
  317POPC   C1B 8731  38.069   6.997   8.708
  317POPC   C2B 8732  37.893   6.876   8.341
  317POPC   C3B 8733  38.020   6.973   7.972
  317POPC   C4B 8734  37.902   6.908   7.562
  318POPC   NC3 8735  37.750  13.995   9.454
  318POPC   PO4 8736  37.430  13.332   9.489
  318POPC   GL1 8737  37.622  13.544   9.177
  318POPC   GL2 8738  37.445  13.825   9.083
  318POPC   C1A 8739  37.561  13.468   8.753
  318POPC   D2A 8740  37.423  13.731   8.412
  318POPC   C3A 8741  37.559  13.586   8.063
  318POPC   C4A 8742  37.572  13.407   7.697
  318POPC   C1B 8743  37.778  13.928   8.729
  318POPC   C2B 8744  37.884  13.938   8.250
  318POPC   C3B 8745  38.003  13.736   7.813
  318POPC   C4B 8746  38.112  13.982   7.352
  319POPC   NC3 8747  35.417  23.387   9.838
  319POPC   PO4 8748  35.869  23.862   9.530
  319POPC   GL1 8749  35.988  23.996   9.075
  319POPC   GL2 8750  36.365  23.993   8.953
  319POPC   C1A 8751  35.947  23.839   8.664
  319POPC   D2A 8752  36.237  23.606   8.437
  319POPC   C3A 8753  36.370  23.768   8.041
  319POPC   C4A 8754  36.190  23.599   7.676
  319POPC   C1B 8755  36.394  24.069   8.491
  319POPC   C2B 8756  36.020  24.117   8.230
  319POPC   C3B 8757  36.021  24.079   7.770
  319POPC   C4B 8758  36.352  24.046   7.414
  320POPC   NC3 8759  20.148  28.149   9.111
  320POPC   PO4 8760  20.603  28.460   9.447
  320POPC   GL1 8761  20.583  28.494   9.061
  320POPC   GL2 8762  20.734  28.215   8.997
  320POPC   C1A 8763  20.525  28.572   8.658
  320POPC   D2A 8764  20.480  28.336   8.297
  320POPC   C3A 8765  20.421  28.534   7.916
  320POPC   C4A 8766  20.634  28.385   7.584
  320POPC   C1B 8767  20.616  27.977   8.653
  320POPC   C2B 8768  20.370  27.844   8.306
  320POPC   C3B 8769  20.554  28.003   7.929
  320POPC   C4B 8770  20.928  27.968   7.658
  321POPC   NC3 8771  12.380   6.436   9.521
  321POPC   PO4 8772  12.116   7.103   9.601
  321POPC   GL1 8773  12.163   6.787   9.223
  321POPC   GL2 8774  11.882   6.560   9.139
  321POPC   C1A 8775  12.214   6.691   8.776
  321POPC   D2A 8776  11.985   6.672   8.398
  321POPC   C3A 8777  12.237   6.590   8.045
  321POPC   C4A 8778  12.311   6.806   7.682
  321POPC   C1B 8779  11.881   6.310   8.807
  321POPC   C2B 8780  11.694   6.251   8.445
  321POPC   C3B 8781  11.816   6.270   8.054
  321POPC   C4B 8782  11.872   6.550   7.723
  322POPC   NC3 8783  20.912  42.666   9.527
  322POPC   PO4 8784  20.769  41.946   9.476
  322POPC   GL1 8785  20.803  42.239   9.198
  322POPC   GL2 8786  20.514  42.416   9.231
  322POPC   C1A 8787  20.645  42.193   8.794
  322POPC   D2A 8788  20.619  42.429   8.439
  322POPC   C3A 8789  20.478  42.310   8.061
  322POPC   C4A 8790  20.687  42.245   7.695
  322POPC   C1B 8791  20.226  42.508   8.850
  322POPC   C2B 8792  20.174  42.679   8.397
  322POPC   C3B 8793  20.066  42.609   7.978
  322POPC   C4B 8794  20.407  42.667   7.671
  323POPC   NC3 8795  11.492  37.965   9.858
  323POPC   PO4 8796  10.916  37.801   9.587
  323POPC   GL1 8797  11.025  37.726   9.152
  323POPC   GL2 8798  11.141  38.042   9.099
  323POPC   C1A 8799  11.167  37.588   8.724
  323POPC   D2A 8800  10.973  37.634   8.291
  323POPC   C3A 8801  11.259  37.483   7.944
  323POPC   C4A 8802  11.178  37.215   7.564
  323POPC   C1B 8803  10.994  38.051   8.675
  323POPC   C2B 8804  11.253  38.057   8.289
  323POPC   C3B 8805  11.397  37.985   7.872
  323POPC   C4B 8806  11.274  37.872   7.455
  324POPC   NC3 8807  41.681  38.622   9.540
  324POPC   PO4 8808  41.469  39.354   9.614
  324POPC   GL1 8809  41.634  39.477   9.220
  324POPC   GL2 8810  41.702  39.106   9.190
  324POPC   C1A 8811  41.761  39.563   8.784
  324POPC   D2A 8812  41.610  39.704   8.410
  324POPC   C3A 8813  41.662  39.586   7.983
  324POPC   C4A 8814  41.636  39.480   7.576
  324POPC   C1B 8815  41.376  39.228   8.867
  324POPC   C2B 8816  41.356  39.249   8.418
  324POPC   C3B 8817  41.466  39.107   7.969
  324POPC   C4B 8818  41.818  38.992   7.725
  325POPC   NC3 8819  20.804  33.687   9.674
  325POPC   PO4 8820  20.345  34.165   9.676
  325POPC   GL1 8821  20.669  33.984   9.286
  325POPC   GL2 8822  20.702  33.630   9.186
  325POPC   C1A 8823  20.737  33.977   8.830
  325POPC   D2A 8824  20.906  34.054   8.431
  325POPC   C3A 8825  20.658  33.922   8.060
  325POPC   C4A 8826  20.671  34.125   7.670
  325POPC   C1B 8827  20.675  33.436   8.801
  325POPC   C2B 8828  20.831  33.546   8.393
  325POPC   C3B 8829  20.874  33.388   7.979
  325POPC   C4B 8830  20.717  33.574   7.613
  326POPC   NC3 8831  37.891  13.233   9.479
  326POPC   PO4 8832  37.921  12.554   9.400
  326POPC   GL1 8833  37.616  12.641   9.146
  326POPC   GL2 8834  37.575  12.980   9.155
  326POPC   C1A 8835  37.413  12.549   8.777
  326POPC   D2A 8836  37.429  12.797   8.432
  326POPC   C3A 8837  37.534  12.653   8.033
  326POPC   C4A 8838  37.649  12.914   7.684
  326POPC   C1B 8839  37.772  12.984   8.766
  326POPC   C2B 8840  37.751  13.190   8.368
  326POPC   C3B 8841  37.934  13.233   8.000
  326POPC   C4B 8842  38.103  13.140   7.625
  327POPC   NC3 8843  33.357  19.800   9.606
  327POPC   PO4 8844  32.738  19.568   9.521
  327POPC   GL1 8845  33.060  19.663   9.211
  327POPC   GL2 8846  33.075  20.023   9.249
  327POPC   C1A 8847  33.220  19.680   8.786
  327POPC   D2A 8848  32.988  19.651   8.377
  327POPC   C3A 8849  33.159  19.589   7.960
  327POPC   C4A 8850  32.922  19.626   7.570
  327POPC   C1B 8851  33.255  20.193   8.889
  327POPC   C2B 8852  33.182  20.151   8.459
  327POPC   C3B 8853  33.184  20.093   8.039
  327POPC   C4B 8854  33.400  20.284   7.735
  328POPC   NC3 8855  35.210  27.366   9.466
  328POPC   PO4 8856  35.656  27.841   9.332
  328POPC   GL1 8857  35.350  27.741   9.078
  328POPC   GL2 8858  35.222  28.056   9.151
  328POPC   C1A 8859  35.277  27.389   8.805
  328POPC   D2A 8860  35.168  27.195   8.440
  328POPC   C3A 8861  35.075  27.470   8.122
  328POPC   C4A 8862  35.332  27.547   7.788
  328POPC   C1B 8863  35.027  28.054   8.805
  328POPC   C2B 8864  35.201  27.847   8.482
  328POPC   C3B 8865  35.217  27.966   8.068
  328POPC   C4B 8866  34.923  27.876   7.756
  329POPC   NC3 8867  32.352  37.636   9.522
  329POPC   PO4 8868  32.019  38.187   9.634
  329POPC   GL1 8869  32.226  37.997   9.184
  329POPC   GL2 8870  32.129  37.630   9.053
  329POPC   C1A 8871  32.325  37.902   8.706
  329POPC   D2A 8872  32.120  37.728   8.333
  329POPC   C3A 8873  32.328  37.848   7.943
  329POPC   C4A 8874  32.301  37.918   7.470
  329POPC   C1B 8875  32.381  37.395   8.700
  329POPC   C2B 8876  32.362  37.312   8.220
  329POPC   C3B 8877  32.142  37.381   7.846
  329POPC   C4B 8878  32.259  37.421   7.404
  330POPC   NC3 8879   2.210  42.922   9.604
  330POPC   PO4 8880   1.571  42.853   9.418
  330POPC   GL1 8881   1.899  43.099   9.096
  330POPC   GL2 8882   2.298  43.072   9.112
  330POPC   C1A 8883   1.745  43.256   8.688
  330POPC   D2A 8884   1.588  42.930   8.389
  330POPC   C3A 8885   1.813  42.913   8.011
  330POPC   C4A 8886   1.848  43.270   7.785
  330POPC   C1B 8887   2.241  43.189   8.677
  330POPC   C2B 8888   2.058  43.263   8.277
  330POPC   C3B 8889   2.304  43.140   7.919
  330POPC   C4B 8890   2.137  42.951   7.521
  331POPC   NC3 8891  20.464  17.852   9.717
  331POPC   PO4 8892  20.735  18.469   9.595
  331POPC   GL1 8893  20.608  18.372   9.187
  331POPC   GL2 8894  20.489  18.079   9.263
  331POPC   C1A 8895  20.586  18.270   8.733
  331POPC   D2A 8896  20.775  18.428   8.368
  331POPC   C3A 8897  20.526  18.503   8.008
  331POPC   C4A 8898  20.678  18.530   7.588
  331POPC   C1B 8899  20.900  18.005   9.023
  331POPC   C2B 8900  20.963  17.961   8.547
  331POPC   C3B 8901  20.777  17.945   8.128
  331POPC   C4B 8902  20.589  18.053   7.745
  332POPC   NC3 8903   1.559  26.752   9.433
  332POPC   PO4 8904   0.939  26.985   9.303
  332POPC   GL1 8905   1.262  26.801   9.027
  332POPC   GL2 8906   1.510  27.070   9.043
  332POPC   C1A 8907   1.223  26.507   8.679
  332POPC   D2A 8908   0.900  26.609   8.370
  332POPC   C3A 8909   1.084  26.662   7.981
  332POPC   C4A 8910   1.414  26.383   7.887
  332POPC   C1B 8911   1.557  26.903   8.609
  332POPC   C2B 8912   1.627  26.797   8.179
  332POPC   C3B 8913   1.487  26.971   7.805
  332POPC   C4B 8914   1.055  27.143   7.801
  333POPC   NC3 8915  29.569  13.365   9.454
  333POPC   PO4 8916  29.013  13.792   9.444
  333POPC   GL1 8917  29.185  13.610   9.134
  333POPC   GL2 8918  29.464  13.825   9.089
  333POPC   C1A 8919  29.057  13.694   8.723
  333POPC   D2A 8920  28.887  13.570   8.309
  333POPC   C3A 8921  28.945  13.736   7.912
  333POPC   C4A 8922  28.773  13.738   7.472
  333POPC   C1B 8923  29.572  13.555   8.778
  333POPC   C2B 8924  29.402  13.567   8.366
  333POPC   C3B 8925  29.582  13.641   7.975
  333POPC   C4B 8926  29.616  13.825   7.566
  334POPC   NC3 8927  37.370  33.882   9.537
  334POPC   PO4 8928  36.789  33.472   9.570
  334POPC   GL1 8929  36.905  33.761   9.243
  334POPC   GL2 8930  36.617  33.983   9.158
  334POPC   C1A 8931  37.026  33.861   8.823
  334POPC   D2A 8932  37.038  33.979   8.395
  334POPC   C3A 8933  36.863  33.682   8.132
  334POPC   C4A 8934  36.681  33.649   7.757
  334POPC   C1B 8935  36.580  34.120   8.697
  334POPC   C2B 8936  36.579  34.120   8.241
  334POPC   C3B 8937  36.441  34.253   7.852
  334POPC   C4B 8938  36.570  34.068   7.453
  335POPC   NC3 8939   9.176  24.621   9.523
  335POPC   PO4 8940   8.637  24.625   9.384
  335POPC   GL1 8941   9.002  24.609   9.029
  335POPC   GL2 8942   9.384  24.667   9.056
  335POPC   C1A 8943   9.167  24.634   8.573
  335POPC   D2A 8944   9.108  24.667   8.104
  335POPC   C3A 8945   8.826  24.382   7.854
  335POPC   C4A 8946   8.690  24.357   7.402
  335POPC   C1B 8947   9.599  24.409   8.734
  335POPC   C2B 8948   9.480  24.244   8.311
  335POPC   C3B 8949   9.399  24.293   7.872
  335POPC   C4B 8950   9.431  24.424   7.445
  336POPC   NC3 8951  29.123  32.738   9.484
  336POPC   PO4 8952  29.532  33.345   9.577
  336POPC   GL1 8953  29.330  33.233   9.172
  336POPC   GL2 8954  28.959  33.184   9.202
  336POPC   C1A 8955  29.426  33.169   8.721
  336POPC   D2A 8956  29.605  33.076   8.325
  336POPC   C3A 8957  29.360  33.045   8.022
  336POPC   C4A 8958  29.492  33.277   7.698
  336POPC   C1B 8959  28.979  32.906   8.831
  336POPC   C2B 8960  29.018  32.809   8.391
  336POPC   C3B 8961  28.835  32.991   8.025
  336POPC   C4B 8962  29.028  33.028   7.641
  337POPC   NC3 8963  23.451  14.728   9.448
  337POPC   PO4 8964  23.813  14.156   9.601
  337POPC   GL1 8965  23.789  14.335   9.226
  337POPC   GL2 8966  23.450  14.280   9.180
  337POPC   C1A 8967  23.828  14.437   8.805
  337POPC   D2A 8968  23.860  14.660   8.425
  337POPC   C3A 8969  23.523  14.634   8.138
  337POPC   C4A 8970  23.687  14.593   7.741
  337POPC   C1B 8971  23.402  14.127   8.752
  337POPC   C2B 8972  23.642  14.197   8.371
  337POPC   C3B 8973  23.506  14.161   7.958
  337POPC   C4B 8974  23.511  14.158   7.524
  338POPC   NC3 8975  32.515  15.785   9.608
  338POPC   PO4 8976  32.091  16.341   9.462
  338POPC   GL1 8977  32.167  16.094   9.127
  338POPC   GL2 8978  32.147  15.782   9.243
  338POPC   C1A 8979  31.974  15.877   8.752
  338POPC   D2A 8980  32.052  15.995   8.335
  338POPC   C3A 8981  31.817  15.869   7.981
  338POPC   C4A 8982  31.931  16.015   7.574
  338POPC   C1B 8983  32.433  15.688   8.924
  338POPC   C2B 8984  32.558  15.618   8.482
  338POPC   C3B 8985  32.385  15.719   8.048
  338POPC   C4B 8986  32.584  15.835   7.664
  339POPC   NC3 8987  43.532   3.021   9.403
  339POPC   PO4 8988  43.037   2.606   9.644
  339POPC   GL1 8989  43.068   2.720   9.176
  339POPC   GL2 8990  43.040   3.027   9.198
  339POPC   C1A 8991  43.128   2.570   8.745
  339POPC   D2A 8992  43.361   2.673   8.370
  339POPC   C3A 8993  43.302   2.474   7.998
  339POPC   C4A 8994  43.270   2.584   7.562
  339POPC   C1B 8995  43.190   3.086   8.768
  339POPC   C2B 8996  43.336   3.189   8.344
  339POPC   C3B 8997  43.321   3.022   7.931
  339POPC   C4B 8998  43.057   3.078   7.553
  340POPC   NC3 8999  41.802  21.024   9.690
  340POPC   PO4 9000  41.590  21.694   9.573
  340POPC   GL1 9001  41.568  21.326   9.292
  340POPC   GL2 9002  41.245  21.144   9.396
  340POPC   C1A 9003  41.722  21.321   8.840
  340POPC   D2A 9004  41.618  21.518   8.425
  340POPC   C3A 9005  41.819  21.332   8.074
  340POPC   C4A 9006  41.803  21.481   7.652
  340POPC   C1B 9007  41.282  21.088   8.935
  340POPC   C2B 9008  41.418  21.043   8.505
  340POPC   C3B 9009  41.348  21.121   8.072
  340POPC   C4B 9010  41.595  21.030   7.723
  341POPC   NC3 9011  39.708  41.057   9.560
  341POPC   PO4 9012  40.212  40.525   9.598
  341POPC   GL1 9013  40.114  40.717   9.203
  341POPC   GL2 9014  39.748  40.746   9.110
  341POPC   C1A 9015  40.118  40.755   8.747
  341POPC   D2A 9016  39.920  40.815   8.351
  341POPC   C3A 9017  40.161  40.659   7.998
  341POPC   C4A 9018  40.098  40.975   7.696
  341POPC   C1B 9019  39.635  40.494   8.727
  341POPC   C2B 9020  39.684  40.337   8.286
  341POPC   C3B 9021  39.657  40.601   7.880
  341POPC   C4B 9022  39.804  40.657   7.424
  342POPC   NC3 9023   9.807  20.412   9.488
  342POPC   PO4 9024   9.978  21.093   9.559
  342POPC   GL1 9025   9.856  20.818   9.184
  342POPC   GL2 9026   9.506  20.755   9.127
  342POPC   C1A 9027   9.928  20.478   8.867
  342POPC   D2A 9028   9.965  20.644   8.484
  342POPC   C3A 9029   9.884  20.435   8.173
  342POPC   C4A 9030   9.896  20.721   7.836
  342POPC   C1B 9031   9.503  20.688   8.664
  342POPC   C2B 9032   9.533  20.792   8.204
  342POPC   C3B 9033   9.391  20.699   7.761
  342POPC   C4B 9034   9.295  20.603   7.322
  343POPC   NC3 9035   4.929  39.611   9.561
  343POPC   PO4 9036   5.009  40.310   9.483
  343POPC   GL1 9037   5.172  40.165   9.120
  343POPC   GL2 9038   5.188  39.800   9.169
  343POPC   C1A 9039   5.252  40.326   8.720
  343POPC   D2A 9040   5.040  40.158   8.370
  343POPC   C3A 9041   4.934  40.367   8.014
  343POPC   C4A 9042   4.796  40.140   7.684
  343POPC   C1B 9043   5.043  39.822   8.761
  343POPC   C2B 9044   4.918  39.645   8.380
  343POPC   C3B 9045   4.928  39.719   7.958
  343POPC   C4B 9046   4.791  39.492   7.596
  344POPC   NC3 9047   7.885  21.739   9.542
  344POPC   PO4 9048   7.805  22.288   9.413
  344POPC   GL1 9049   7.643  22.039   9.054
  344POPC   GL2 9050   7.564  21.671   9.144
  344POPC   C1A 9051   7.473  22.208   8.645
  344POPC   D2A 9052   7.304  22.449   8.279
  344POPC   C3A 9053   7.367  22.239   7.873
  344POPC   C4A 9054   7.667  21.929   7.750
  344POPC   C1B 9055   7.382  21.696   8.722
  344POPC   C2B 9056   7.358  21.844   8.275
  344POPC   C3B 9057   7.175  21.764   7.865
  344POPC   C4B 9058   7.265  21.883   7.432
  345POPC   NC3 9059  39.561  43.289   9.571
  345POPC   PO4 9060  39.017  42.836   9.481
  345POPC   GL1 9061  39.191  43.134   9.204
  345POPC   GL2 9062  38.949  43.354   9.032
  345POPC   C1A 9063  39.389  43.035   8.814
  345POPC   D2A 9064  39.478  42.763   8.439
  345POPC   C3A 9065  39.430  42.994   8.045
  345POPC   C4A 9066  39.335  43.171   7.602
  345POPC   C1B 9067  38.880  42.940   8.800
  345POPC   C2B 9068  38.978  42.859   8.358
  345POPC   C3B 9069  38.922  43.033   7.917
  345POPC   C4B 9070  38.885  42.971   7.434
  346POPC   NC3 9071  27.879  18.013   9.358
  346POPC   PO4 9072  27.421  17.567   9.515
  346POPC   GL1 9073  27.434  17.814   9.149
  346POPC   GL2 9074  27.745  17.663   9.022
  346POPC   C1A 9075  27.381  17.830   8.685
  346POPC   D2A 9076  27.716  17.776   8.351
  346POPC   C3A 9077  27.549  17.807   7.924
  346POPC   C4A 9078  27.363  17.533   7.586
  346POPC   C1B 9079  27.765  17.338   8.720
  346POPC   C2B 9080  28.084  17.331   8.441
  346POPC   C3B 9081  28.118  17.495   8.037
  346POPC   C4B 9082  27.850  17.421   7.680
  347POPC   NC3 9083  21.929  39.626   9.519
  347POPC   PO4 9084  22.481  39.982   9.703
  347POPC   GL1 9085  22.325  39.945   9.222
  347POPC   GL2 9086  22.064  39.733   9.038
  347POPC   C1A 9087  22.123  40.192   8.827
  347POPC   D2A 9088  21.946  39.934   8.491
  347POPC   C3A 9089  22.022  40.068   8.044
  347POPC   C4A 9090  22.074  40.115   7.582
  347POPC   C1B 9091  22.424  39.810   8.751
  347POPC   C2B 9092  22.458  40.034   8.377
  347POPC   C3B 9093  22.617  39.864   8.011
  347POPC   C4B 9094  22.756  39.941   7.617
  348POPC   NC3 9095  35.357  18.543   9.448
  348POPC   PO4 9096  35.182  17.915   9.574
  348POPC   GL1 9097  35.336  18.099   9.185
  348POPC   GL2 9098  35.044  18.269   9.139
  348POPC   C1A 9099  35.457  18.318   8.769
  348POPC   D2A 9100  35.534  18.230   8.305
  348POPC   C3A 9101  35.345  18.504   7.976
  348POPC   C4A 9102  35.453  18.660   7.542
  348POPC   C1B 9103  35.006  18.112   8.747
  348POPC   C2B 9104  35.022  18.199   8.338
  348POPC   C3B 9105  35.185  18.012   7.991
  348POPC   C4B 9106  35.588  18.089   7.788
  349POPC   NC3 9107  23.401  36.026   9.569
  349POPC   PO4 9108  24.050  35.826   9.421
  349POPC   GL1 9109  23.701  35.919   9.148
  349POPC   GL2 9110  23.551  36.259   9.141
  349POPC   C1A 9111  23.802  36.027   8.733
  349POPC   D2A 9112  23.692  36.204   8.361
  349POPC   C3A 9113  23.954  36.481   8.155
  349POPC   C4A 9114  23.855  36.367   7.747
  349POPC   C1B 9115  23.306  36.169   8.793
  349POPC   C2B 9116  23.184  36.245   8.372
  349POPC   C3B 9117  23.372  36.068   7.980
  349POPC   C4B 9118  23.434  36.136   7.540
  350POPC   NC3 9119  33.199   9.307   9.518
  350POPC   PO4 9120  32.797   8.786   9.374
  350POPC   GL1 9121  33.131   8.730   9.082
  350POPC   GL2 9122  33.475   8.796   9.194
  350POPC   C1A 9123  33.209   8.813   8.649
  350POPC   D2A 9124  33.080   9.121   8.364
  350POPC   C3A 9125  32.993   9.016   7.913
  350POPC   C4A 9126  32.793   9.226   7.548
  350POPC   C1B 9127  33.526   9.146   8.880
  350POPC   C2B 9128  33.604   9.289   8.445
  350POPC   C3B 9129  33.414   9.339   8.016
  350POPC   C4B 9130  33.313   9.305   7.577
  351POPC   NC3 9131  20.233  29.690   9.427
  351POPC   PO4 9132  20.163  30.404   9.589
  351POPC   GL1 9133  20.426  30.213   9.242
  351POPC   GL2 9134  20.813  30.190   9.255
  351POPC   C1A 9135  20.345  30.025   8.820
  351POPC   D2A 9136  20.159  30.098   8.392
  351POPC   C3A 9137  20.432  29.965   8.068
  351POPC   C4A 9138  20.348  29.781   7.709
  351POPC   C1B 9139  20.884  29.977   8.839
  351POPC   C2B 9140  21.058  29.935   8.402
  351POPC   C3B 9141  20.922  29.847   7.978
  351POPC   C4B 9142  20.818  29.642   7.590
  352POPC   NC3 9143  17.392   3.701   9.567
  352POPC   PO4 9144  17.998   3.692   9.288
  352POPC   GL1 9145  17.612   3.551   9.109
  352POPC   GL2 9146  17.347   3.800   9.063
  352POPC   C1A 9147  17.530   3.448   8.681
  352POPC   D2A 9148  17.317   3.653   8.329
  352POPC   C3A 9149  17.320   3.487   7.921
  352POPC   C4A 9150  17.266   3.292   7.538
  352POPC   C1B 9151  17.690   3.927   8.782
  352POPC   C2B 9152  17.826   3.782   8.405
  352POPC   C3B 9153  17.784   3.643   7.993
  352POPC   C4B 9154  17.758   3.906   7.632
  353POPC   NC3 9155  23.038  17.232   9.440
  353POPC   PO4 9156  23.120  17.813   9.467
  353POPC   GL1 9157  22.758  17.637   9.191
  353POPC   GL2 9158  22.706  17.267   9.063
  353POPC   C1A 9159  22.573  17.683   8.777
  353POPC   D2A 9160  22.715  17.548   8.374
  353POPC   C3A 9161  22.636  17.713   7.952
  353POPC   C4A 9162  22.824  17.743   7.533
  353POPC   C1B 9163  23.047  17.401   8.761
  353POPC   C2B 9164  23.135  17.218   8.335
  353POPC   C3B 9165  23.054  17.429   7.939
  353POPC   C4B 9166  23.168  17.314   7.518
  354POPC   NC3 9167  22.797  12.597   9.793
  354POPC   PO4 9168  23.324  12.620   9.342
  354POPC   GL1 9169  23.012  12.907   9.207
  354POPC   GL2 9170  22.661  12.779   9.107
  354POPC   C1A 9171  23.052  13.087   8.808
  354POPC   D2A 9172  22.856  13.012   8.424
  354POPC   C3A 9173  23.151  13.017   8.094
  354POPC   C4A 9174  22.993  13.043   7.696
  354POPC   C1B 9175  22.472  12.508   8.754
  354POPC   C2B 9176  22.452  12.436   8.313
  354POPC   C3B 9177  22.457  12.635   7.900
  354POPC   C4B 9178  22.779  12.603   7.579
  355POPC   NC3 9179  16.828  11.070   9.294
  355POPC   PO4 9180  16.454  10.491   9.436
  355POPC   GL1 9181  16.578  10.320   9.011
  355POPC   GL2 9182  16.924  10.280   9.009
  355POPC   C1A 9183  16.319  10.182   8.657
  355POPC   D2A 9184  16.296  10.272   8.200
  355POPC   C3A 9185  16.652  10.510   8.040
  355POPC   C4A 9186  16.663  10.691   7.647
  355POPC   C1B 9187  16.900  10.618   8.683
  355POPC   C2B 9188  17.120  10.568   8.252
  355POPC   C3B 9189  17.140  10.573   7.781
  355POPC   C4B 9190  17.169  10.636   7.314
  356POPC   NC3 9191  19.481  29.252   9.601
  356POPC   PO4 9192  19.726  28.629   9.564
  356POPC   GL1 9193  19.698  28.970   9.229
  356POPC   GL2 9194  20.000  29.185   9.240
  356POPC   C1A 9195  19.646  29.137   8.803
  356POPC   D2A 9196  19.720  28.955   8.380
  356POPC   C3A 9197  19.716  29.206   7.993
  356POPC   C4A 9198  19.761  29.025   7.585
  356POPC   C1B 9199  20.127  29.349   8.836
  356POPC   C2B 9200  20.300  29.178   8.431
  356POPC   C3B 9201  20.222  29.038   7.991
  356POPC   C4B 9202  20.130  29.336   7.686
  357POPC   NC3 9203   1.928  44.829   9.506
  357POPC   PO4 9204   2.309  44.265   9.398
  357POPC   GL1 9205   2.259  44.528   9.078
  357POPC   GL2 9206   1.920  44.562   9.082
  357POPC   C1A 9207   2.170  44.668   8.655
  357POPC   D2A 9208   2.092  44.455   8.290
  357POPC   C3A 9209   2.093  44.667   7.913
  357POPC   C4A 9210   2.072  44.525   7.524
  357POPC   C1B 9211   1.890  44.257   8.773
  357POPC   C2B 9212   1.660  44.205   8.418
  357POPC   C3B 9213   1.640  44.417   8.037
  357POPC   C4B 9214   1.656  44.238   7.632
  358POPC   NC3 9215   4.808  21.377   9.612
  358POPC   PO4 9216   5.013  20.722   9.522
  358POPC   GL1 9217   4.854  21.039   9.214
  358POPC   GL2 9218   4.998  21.401   9.154
  358POPC   C1A 9219   4.995  21.075   8.778
  358POPC   D2A 9220   5.248  21.246   8.408
  358POPC   C3A 9221   5.109  21.384   7.993
  358POPC   C4A 9222   4.756  21.196   7.796
  358POPC   C1B 9223   4.983  21.579   8.727
  358POPC   C2B 9224   4.754  21.490   8.345
  358POPC   C3B 9225   4.698  21.689   7.913
  358POPC   C4B 9226   4.895  21.723   7.476
  359POPC   NC3 9227  18.353  21.192   9.594
  359POPC   PO4 9228  18.671  21.699   9.615
  359POPC   GL1 9229  18.656  21.462   9.222
  359POPC   GL2 9230  18.382  21.651   9.123
  359POPC   C1A 9231  18.483  21.294   8.767
  359POPC   D2A 9232  18.366  21.412   8.281
  359POPC   C3A 9233  18.482  21.192   7.849
  359POPC   C4A 9234  18.252  20.962   7.485
  359POPC   C1B 9235  18.632  21.786   8.738
  359POPC   C2B 9236  18.623  21.876   8.265
  359POPC   C3B 9237  18.461  21.707   7.852
  359POPC   C4B 9238  18.309  21.857   7.456
  360POPC   NC3 9239  40.218   3.042   9.670
  360POPC   PO4 9240  39.888   2.414   9.478
  360POPC   GL1 9241  40.080   2.709   9.158
  360POPC   GL2 9242  40.155   2.464   9.033
  360POPC   C1A 9243  39.958   2.830   8.710
  360POPC   D2A 9244  39.687   2.928   8.351
  360POPC   C3A 9245  39.833   2.982   7.947
  360POPC   C4A 9246  39.754   2.711   7.629
  360POPC   C1B 9247  40.414   2.487   8.716
  360POPC   C2B 9248  40.378   2.703   8.388
  360POPC   C3B 9249  40.499   2.735   7.990
  360POPC   C4B 9250  40.251   2.829   7.660
  361POPC   NC3 9251  17.519  12.529   9.345
  361POPC   PO4 9252  17.481  11.878   9.440
  361POPC   GL1 9253  17.457  12.050   9.040
  361POPC   GL2 9254  17.194  12.311   9.011
  361POPC   C1A 9255  17.359  11.941   8.611
  361POPC   D2A 9256  17.263  11.733   8.208
  361POPC   C3A 9257  17.632  11.675   7.986
  361POPC   C4A 9258  17.888  12.002   7.802
  361POPC   C1B 9259  17.134  12.623   8.667
  361POPC   C2B 9260  17.446  12.739   8.325
  361POPC   C3B 9261  17.668  12.420   8.069
  361POPC   C4B 9262  17.408  12.164   7.768
  362POPC   NC3 9263  29.340  31.385   9.651
  362POPC   PO4 9264  28.760  31.398   9.680
  362POPC   GL1 9265  28.980  31.438   9.222
  362POPC   GL2 9266  29.356  31.466   9.154
  362POPC   C1A 9267  28.995  31.273   8.791
  362POPC   D2A 9268  29.076  31.114   8.374
  362POPC   C3A 9269  29.026  31.400   8.024
  362POPC   C4A 9270  29.212  31.462   7.608
  362POPC   C1B 9271  29.488  31.369   8.750
  362POPC   C2B 9272  29.355  31.559   8.391
  362POPC   C3B 9273  29.514  31.511   8.014
  362POPC   C4B 9274  29.763  31.355   7.727
  363POPC   NC3 9275  24.294  29.399   9.476
  363POPC   PO4 9276  24.453  30.078   9.470
  363POPC   GL1 9277  24.554  29.949   9.090
  363POPC   GL2 9278  24.761  29.671   9.200
  363POPC   C1A 9279  24.365  30.121   8.718
  363POPC   D2A 9280  24.111  30.038   8.361
  363POPC   C3A 9281  24.272  29.787   8.030
  363POPC   C4A 9282  24.426  29.847   7.605
  363POPC   C1B 9283  24.565  29.496   8.838
  363POPC   C2B 9284  24.547  29.715   8.460
  363POPC   C3B 9285  24.724  29.991   8.141
  363POPC   C4B 9286  24.921  29.806   7.788
  364POPC   NC3 9287  34.160  33.194   9.723
  364POPC   PO4 9288  33.643  32.815   9.534
  364POPC   GL1 9289  33.822  33.021   9.185
  364POPC   GL2 9290  33.955  33.358   9.274
  364POPC   C1A 9291  33.819  32.946   8.741
  364POPC   D2A 9292  33.617  32.779   8.392
  364POPC   C3A 9293  33.802  33.003   8.100
  364POPC   C4A 9294  34.011  32.919   7.723
  364POPC   C1B 9295  34.159  33.307   8.871
  364POPC   C2B 9296  34.123  33.264   8.413
  364POPC   C3B 9297  34.122  33.378   7.956
  364POPC   C4B 9298  34.357  33.247   7.588
  365POPC   NC3 9299   1.713  25.765   9.460
  365POPC   PO4 9300   2.330  25.988   9.470
  365POPC   GL1 9301   2.031  26.010   9.137
  365POPC   GL2 9302   2.113  25.667   9.098
  365POPC   C1A 9303   1.714  25.931   8.803
  365POPC   D2A 9304   1.745  25.705   8.409
  365POPC   C3A 9305   1.902  25.940   8.094
  365POPC   C4A 9306   1.747  26.035   7.707
  365POPC   C1B 9307   2.192  25.792   8.668
  365POPC   C2B 9308   2.373  25.784   8.249
  365POPC   C3B 9309   2.307  25.813   7.823
  365POPC   C4B 9310   2.068  25.728   7.444
  366POPC   NC3 9311  31.924  39.946   9.551
  366POPC   PO4 9312  32.594  39.755   9.504
  366POPC   GL1 9313  32.320  40.016   9.179
  366POPC   GL2 9314  31.990  39.903   9.048
  366POPC   C1A 9315  32.291  40.119   8.707
  366POPC   D2A 9316  32.200  39.881   8.316
  366POPC   C3A 9317  32.084  40.101   8.021
  366POPC   C4A 9318  32.280  40.345   7.718
  366POPC   C1B 9319  31.833  39.577   8.747
  366POPC   C2B 9320  31.899  39.410   8.320
  366POPC   C3B 9321  31.788  39.649   7.969
  366POPC   C4B 9322  31.746  39.974   7.672
  367POPC   NC3 9323   0.033  20.374   9.548
  367POPC   PO4 9324   0.532  20.872   9.523
  367POPC   GL1 9325   0.327  20.598   9.164
  367POPC   GL2 9326   0.628  20.526   9.029
  367POPC   C1A 9327   0.304  20.389   8.704
  367POPC   D2A 9328   0.184  20.215   8.342
  367POPC   C3A 9329   0.328  20.359   7.958
  367POPC   C4A 9330   0.084  20.385   7.539
  367POPC   C1B 9331   0.610  20.861   8.708
  367POPC   C2B 9332   0.749  20.758   8.305
  367POPC   C3B 9333   0.638  20.773   7.891
  367POPC   C4B 9334   0.561  20.551   7.534
  368POPC   NC3 9335   1.015  38.109   9.522
  368POPC   PO4 9336   1.418  38.693   9.369
  368POPC   GL1 9337   1.137  38.554   9.087
  368POPC   GL2 9338   1.211  38.232   9.061
  368POPC   C1A 9339   1.055  38.508   8.654
  368POPC   D2A 9340   0.996  38.225   8.327
  368POPC   C3A 9341   1.105  38.457   8.017
  368POPC   C4A 9342   1.229  38.396   7.627
  368POPC   C1B 9343   1.440  38.157   8.699
  368POPC   C2B 9344   1.474  38.035   8.296
  368POPC   C3B 9345   1.405  38.002   7.911
  368POPC   C4B 9346   1.694  38.200   7.662
  369POPC   NC3 9347  44.897  35.977   9.479
  369POPC   PO4 9348  44.457  36.563   9.587
  369POPC   GL1 9349  44.506  36.237   9.308
  369POPC   GL2 9350  44.777  36.386   9.169
  369POPC   C1A 9351  44.544  36.006   8.899
  369POPC   D2A 9352  44.370  35.997   8.494
  369POPC   C3A 9353  44.659  35.866   8.146
  369POPC   C4A 9354  44.702  35.924   7.716
  369POPC   C1B 9355  44.875  36.415   8.773
  369POPC   C2B 9356  44.804  36.272   8.395
  369POPC   C3B 9357  44.767  36.387   7.968
  369POPC   C4B 9358   0.097  36.514   7.698
  370POPC   NC3 9359  22.282  40.382   9.482
  370POPC   PO4 9360  22.076  41.044   9.691
  370POPC   GL1 9361  22.054  40.812   9.210
  370POPC   GL2 9362  22.335  40.613   9.041
  370POPC   C1A 9363  22.013  40.749   8.695
  370POPC   D2A 9364  22.155  40.494   8.292
  370POPC   C3A 9365  21.980  40.573   7.845
  370POPC   C4A 9366  21.867  40.897   7.471
  370POPC   C1B 9367  22.514  40.483   8.657
  370POPC   C2B 9368  22.677  40.479   8.218
  370POPC   C3B 9369  22.460  40.336   7.855
  370POPC   C4B 9370  22.516  40.345   7.397
  371POPC   NC3 9371   2.728  27.144   9.462
  371POPC   PO4 9372   2.594  26.554   9.411
  371POPC   GL1 9373   2.469  26.642   9.025
  371POPC   GL2 9374   2.674  26.939   8.999
  371POPC   C1A 9375   2.584  26.602   8.574
  371POPC   D2A 9376   2.790  26.846   8.268
  371POPC   C3A 9377   2.710  26.825   7.843
  371POPC   C4A 9378   2.923  26.591   7.547
  371POPC   C1B 9379   2.733  27.205   8.638
  371POPC   C2B 9380   3.041  27.287   8.337
  371POPC   C3B 9381   3.146  27.121   7.941
  371POPC   C4B 9382   2.921  27.220   7.572
  372POPC   NC3 9383  34.041  19.105   9.386
  372POPC   PO4 9384  33.474  19.368   9.509
  372POPC   GL1 9385  33.574  19.083   9.150
  372POPC   GL2 9386  33.639  18.724   9.283
  372POPC   C1A 9387  33.789  19.095   8.721
  372POPC   D2A 9388  33.785  19.302   8.303
  372POPC   C3A 9389  33.904  19.134   7.902
  372POPC   C4A 9390  33.587  19.317   7.659
  372POPC   C1B 9391  33.565  18.648   8.852
  372POPC   C2B 9392  33.692  18.648   8.404
  372POPC   C3B 9393  33.853  18.554   7.987
  372POPC   C4B 9394  33.965  18.661   7.556
  373POPC   NC3 9395  38.094   1.773   9.441
  373POPC   PO4 9396  38.603   2.170   9.685
  373POPC   GL1 9397  38.487   2.199   9.194
  373POPC   GL2 9398  38.199   1.991   9.002
  373POPC   C1A 9399  38.471   2.284   8.719
  373POPC   D2A 9400  38.320   2.048   8.361
  373POPC   C3A 9401  38.501   2.136   7.933
  373POPC   C4A 9402  38.516   2.104   7.472
  373POPC   C1B 9403  38.485   1.688   8.866
  373POPC   C2B 9404  38.492   1.496   8.481
  373POPC   C3B 9405  38.397   1.631   8.080
  373POPC   C4B 9406  38.685   1.683   7.763
  374POPC   NC3 9407  12.745  11.219   9.466
  374POPC   PO4 9408  13.118  11.718   9.546
  374POPC   GL1 9409  12.876  11.602   9.134
  374POPC   GL2 9410  12.901  11.223   8.996
  374POPC   C1A 9411  12.915  11.579   8.655
  374POPC   D2A 9412  12.627  11.360   8.375
  374POPC   C3A 9413  12.632  11.558   7.970
  374POPC   C4A 9414  13.060  11.653   7.795
  374POPC   C1B 9415  12.577  10.987   8.749
  374POPC   C2B 9416  12.452  10.834   8.338
  374POPC   C3B 9417  12.664  11.022   7.994
  374POPC   C4B 9418  12.771  11.037   7.591
  375POPC   NC3 9419  33.770  37.461   9.609
  375POPC   PO4 9420  33.727  36.820   9.503
  375POPC   GL1 9421  33.809  37.003   9.128
  375POPC   GL2 9422  33.958  37.302   9.119
  375POPC   C1A 9423  33.659  37.171   8.744
  375POPC   D2A 9424  33.649  36.967   8.372
  375POPC   C3A 9425  33.526  37.143   8.012
  375POPC   C4A 9426  33.555  36.888   7.654
  375POPC   C1B 9427  34.186  37.104   8.788
  375POPC   C2B 9428  34.164  36.918   8.392
  375POPC   C3B 9429  33.953  36.807   8.003
  375POPC   C4B 9430  34.058  36.926   7.587
  376POPC   NC3 9431  35.652  33.537   9.458
  376POPC   PO4 9432  35.223  33.917   9.797
  376POPC   GL1 9433  35.235  33.849   9.291
  376POPC   GL2 9434  35.171  34.190   9.158
  376POPC   C1A 9435  35.424  33.615   8.857
  376POPC   D2A 9436  35.424  33.499   8.395
  376POPC   C3A 9437  35.507  33.840   8.044
  376POPC   C4A 9438  35.696  33.820   7.631
  376POPC   C1B 9439  35.044  33.943   8.785
  376POPC   C2B 9440  35.074  33.877   8.352
  376POPC   C3B 9441  35.034  33.723   7.950
  376POPC   C4B 9442  35.094  33.884   7.504
  377POPC   NC3 9443   3.413  18.251   9.433
  377POPC   PO4 9444   4.030  18.691   9.456
  377POPC   GL1 9445   3.646  18.608   9.085
  377POPC   GL2 9446   3.431  18.284   8.934
  377POPC   C1A 9447   3.577  18.587   8.585
  377POPC   D2A 9448   3.541  18.179   8.352
  377POPC   C3A 9449   3.821  18.247   8.002
  377POPC   C4A 9450   3.653  18.578   7.730
  377POPC   C1B 9451   3.094  17.998   8.793
  377POPC   C2B 9452   3.067  17.761   8.387
  377POPC   C3B 9453   3.092  17.890   7.958
  377POPC   C4B 9454   3.422  18.094   7.713
  378POPC   NC3 9455  34.267  19.864   9.395
  378POPC   PO4 9456  33.660  20.127   9.530
  378POPC   GL1 9457  33.582  19.875   9.142
  378POPC   GL2 9458  33.786  19.568   9.101
  378POPC   C1A 9459  33.638  19.961   8.690
  378POPC   D2A 9460  33.493  19.739   8.339
  378POPC   C3A 9461  33.697  19.740   7.955
  378POPC   C4A 9462  33.833  20.018   7.628
  378POPC   C1B 9463  33.985  19.608   8.668
  378POPC   C2B 9464  34.014  19.896   8.324
  378POPC   C3B 9465  34.220  19.802   7.957
  378POPC   C4B 9466  34.081  19.562   7.620
  379POPC   NC3 9467  43.561  14.856   9.621
  379POPC   PO4 9468  43.671  14.219   9.552
  379POPC   GL1 9469  43.885  14.416   9.186
  379POPC   GL2 9470  44.166  14.678   9.289
  379POPC   C1A 9471  44.009  14.225   8.782
  379POPC   D2A 9472  44.317  14.336   8.433
  379POPC   C3A 9473  44.064  14.380   8.045
  379POPC   C4A 9474  43.675  14.116   7.906
  379POPC   C1B 9475  44.238  14.653   8.847
  379POPC   C2B 9476  43.948  14.716   8.466
  379POPC   C3B 9477  43.828  14.859   8.028
  379POPC   C4B 9478  43.428  14.935   7.809
  380POPC   NC3 9479   5.934   8.238   9.485
  380POPC   PO4 9480   5.503   7.724   9.206
  380POPC   GL1 9481   5.835   8.001   9.052
  380POPC   GL2 9482   5.667   8.341   9.081
  380POPC   C1A 9483   6.022   8.311   8.733
  380POPC   D2A 9484   6.062   8.366   8.289
  380POPC   C3A 9485   5.945   7.963   8.086
  380POPC   C4A 9486   5.876   7.824   7.688
  380POPC   C1B 9487   5.491   8.135   8.719
  380POPC   C2B 9488   5.559   8.210   8.329
  380POPC   C3B 9489   5.586   8.518   8.031
  380POPC   C4B 9490   5.659   8.288   7.663
  381POPC   NC3 9491   5.579  16.145   9.530
  381POPC   PO4 9492   5.232  15.583   9.512
  381POPC   GL1 9493   5.255  15.937   9.186
  381POPC   GL2 9494   4.946  16.160   9.069
  381POPC   C1A 9495   5.373  15.957   8.786
  381POPC   D2A 9496   5.217  15.641   8.519
  381POPC   C3A 9497   5.161  15.795   8.115
  381POPC   C4A 9498   5.289  15.753   7.685
  381POPC   C1B 9499   4.851  15.843   8.813
  381POPC   C2B 9500   4.723  15.802   8.394
  381POPC   C3B 9501   4.731  16.078   8.037
  381POPC   C4B 9502   4.901  16.061   7.653
  382POPC   NC3 9503  27.228  12.938   9.553
  382POPC   PO4 9504  27.836  12.653   9.637
  382POPC   GL1 9505  27.724  12.874   9.207
  382POPC   GL2 9506  27.412  13.047   9.103
  382POPC   C1A 9507  27.804  13.061   8.795
  382POPC   D2A 9508  27.755  12.803   8.437
  382POPC   C3A 9509  27.901  12.943   8.039
  382POPC   C4A 9510  27.852  12.735   7.647
  382POPC   C1B 9511  27.279  12.971   8.693
  382POPC   C2B 9512  27.357  13.061   8.265
  382POPC   C3B 9513  27.420  12.926   7.834
  382POPC   C4B 9514  27.329  12.650   7.450
  383POPC   NC3 9515  21.055  35.762   9.380
  383POPC   PO4 9516  21.272  36.341   9.641
  383POPC   GL1 9517  21.344  36.214   9.179
  383POPC   GL2 9518  21.376  35.904   9.031
  383POPC   C1A 9519  21.475  36.304   8.732
  383POPC   D2A 9520  21.212  36.291   8.372
  383POPC   C3A 9521  21.235  36.456   7.979
  383POPC   C4A 9522  21.444  36.294   7.586
  383POPC   C1B 9523  21.107  35.910   8.694
  383POPC   C2B 9524  21.083  35.733   8.289
  383POPC   C3B 9525  21.243  35.938   7.939
  383POPC   C4B 9526  21.574  35.807   7.700
  384POPC   NC3 9527  21.646   3.626   9.575
  384POPC   PO4 9528  21.137   3.264   9.502
  384POPC   GL1 9529  21.092   3.616   9.189
  384POPC   GL2 9530  21.396   3.851   9.192
  384POPC   C1A 9531  21.238   3.529   8.764
  384POPC   D2A 9532  21.062   3.525   8.332
  384POPC   C3A 9533  21.113   3.184   8.036
  384POPC   C4A 9534  21.437   3.014   7.771
  384POPC   C1B 9535  21.614   3.904   8.795
  384POPC   C2B 9536  21.590   3.681   8.411
  384POPC   C3B 9537  21.444   3.603   8.005
  384POPC   C4B 9538  21.748   3.420   7.754
  385POPC   NC3 9539   8.641  38.876   9.703
  385POPC   PO4 9540   9.080  38.418   9.493
  385POPC   GL1 9541   9.013  38.485   9.101
  385POPC   GL2 9542   9.245  38.751   9.101
  385POPC   C1A 9543   8.921  38.330   8.699
  385POPC   D2A 9544   9.209  38.383   8.350
  385POPC   C3A 9545   8.980  38.391   7.967
  385POPC   C4A 9546   8.616  38.148   8.022
  385POPC   C1B 9547   9.088  38.816   8.700
  385POPC   C2B 9548   8.809  38.714   8.359
  385POPC   C3B 9549   8.803  38.899   7.985
  385POPC   C4B 9550   9.048  38.902   7.632
  386POPC   NC3 9551   0.230  27.767   9.645
  386POPC   PO4 9552   0.889  27.621   9.709
  386POPC   GL1 9553   0.680  27.699   9.311
  386POPC   GL2 9554   0.380  27.475   9.246
  386POPC   C1A 9555   0.633  27.797   8.865
  386POPC   D2A 9556   0.702  27.600   8.443
  386POPC   C3A 9557   0.527  27.694   8.015
  386POPC   C4A 9558   0.527  27.264   7.777
  386POPC   C1B 9559   0.124  27.650   8.886
  386POPC   C2B 9560   0.199  27.746   8.441
  386POPC   C3B 9561   0.126  27.414   8.113
  386POPC   C4B 9562   0.064  27.420   7.667
  387POPC   NC3 9563  37.976   4.274   9.841
  387POPC   PO4 9564  37.488   4.075   9.337
  387POPC   GL1 9565  37.577   4.337   9.016
  387POPC   GL2 9566  37.289   4.451   8.993
  387POPC   C1A 9567  37.799   4.311   8.637
  387POPC   D2A 9568  37.962   4.024   8.341
  387POPC   C3A 9569  37.995   4.251   7.977
  387POPC   C4A 9570  37.934   4.173   7.537
  387POPC   C1B 9571  37.277   4.329   8.575
  387POPC   C2B 9572  37.514   4.443   8.230
  387POPC   C3B 9573  37.513   4.352   7.809
  387POPC   C4B 9574  37.365   4.071   7.512
  388POPC   NC3 9575   2.984   1.958   9.459
  388POPC   PO4 9576   2.354   1.818   9.710
  388POPC   GL1 9577   2.497   1.943   9.177
  388POPC   GL2 9578   2.827   1.861   8.984
  388POPC   C1A 9579   2.546   2.184   8.769
  388POPC   D2A 9580   2.884   2.266   8.456
  388POPC   C3A 9581   2.757   2.149   8.055
  388POPC   C4A 9582   2.504   2.268   7.742
  388POPC   C1B 9583   2.963   1.554   8.694
  388POPC   C2B 9584   3.152   1.677   8.326
  388POPC   C3B 9585   3.098   1.793   7.941
  388POPC   C4B 9586   2.816   1.860   7.608
  389POPC   NC3 9587  42.019  20.315   9.602
  389POPC   PO4 9588  41.464  20.702   9.595
  389POPC   GL1 9589  41.547  20.766   9.232
  389POPC   GL2 9590  41.240  20.619   9.111
  389POPC   C1A 9591  41.714  20.807   8.872
  389POPC   D2A 9592  41.830  20.583   8.532
  389POPC   C3A 9593  41.680  20.730   8.141
  389POPC   C4A 9594  41.803  20.561   7.746
  389POPC   C1B 9595  41.302  20.571   8.667
  389POPC   C2B 9596  41.148  20.675   8.240
  389POPC   C3B 9597  41.287  20.630   7.799
  389POPC   C4B 9598  41.147  20.501   7.388
  390POPC   NC3 9599  26.340  40.151   9.673
  390POPC   PO4 9600  25.757  40.019   9.439
  390POPC   GL1 9601  25.844  40.190   9.064
  390POPC   GL2 9602  26.148  40.374   9.187
  390POPC   C1A 9603  25.889  39.933   8.688
  390POPC   D2A 9604  25.880  39.605   8.385
  390POPC   C3A 9605  25.895  39.852   8.016
  390POPC   C4A 9606  25.986  39.824   7.562
  390POPC   C1B 9607  26.272  40.243   8.758
  390POPC   C2B 9608  26.172  40.208   8.300
  390POPC   C3B 9609  26.204  40.214   7.844
  390POPC   C4B 9610  26.316  40.203   7.373
  391POPC   NC3 9611  33.953  36.393   9.489
  391POPC   PO4 9612  33.372  36.133   9.588
  391POPC   GL1 9613  33.637  36.069   9.172
  391POPC   GL2 9614  33.946  36.224   9.012
  391POPC   C1A 9615  33.545  36.213   8.710
  391POPC   D2A 9616  33.594  36.351   8.268
  391POPC   C3A 9617  33.474  36.069   7.920
  391POPC   C4A 9618  33.222  35.960   7.559
  391POPC   C1B 9619  34.205  35.998   8.709
  391POPC   C2B 9620  34.284  35.853   8.279
  391POPC   C3B 9621  33.981  36.003   7.971
  391POPC   C4B 9622  33.930  36.133   7.567
  392POPC   NC3 9623  22.360  37.235   9.549
  392POPC   PO4 9624  22.110  36.711   9.525
  392POPC   GL1 9625  22.208  36.850   9.134
  392POPC   GL2 9626  22.507  37.049   9.116
  392POPC   C1A 9627  22.017  36.866   8.725
  392POPC   D2A 9628  21.766  36.633   8.420
  392POPC   C3A 9629  22.045  36.600   8.096
  392POPC   C4A 9630  22.128  36.828   7.733
  392POPC   C1B 9631  22.553  36.873   8.749
  392POPC   C2B 9632  22.374  36.913   8.336
  392POPC   C3B 9633  22.590  36.911   7.947
  392POPC   C4B 9634  22.529  37.085   7.518
  393POPC   NC3 9635   6.448  15.649   9.515
  393POPC   PO4 9636   7.026  15.230   9.523
  393POPC   GL1 9637   6.644  15.348   9.166
  393POPC   GL2 9638   6.746  15.706   9.103
  393POPC   C1A 9639   6.466  15.145   8.751
  393POPC   D2A 9640   6.471  14.833   8.387
  393POPC   C3A 9641   6.536  15.021   7.960
  393POPC   C4A 9642   6.691  15.037   7.512
  393POPC   C1B 9643   6.829  15.503   8.717
  393POPC   C2B 9644   6.781  15.284   8.363
  393POPC   C3B 9645   6.870  15.419   7.985
  393POPC   C4B 9646   6.553  15.488   7.697
  394POPC   NC3 9647  33.614  22.494   9.609
  394POPC   PO4 9648  33.771  21.820   9.450
  394POPC   GL1 9649  33.831  21.988   9.075
  394POPC   GL2 9650  33.863  22.328   9.193
  394POPC   C1A 9651  34.076  21.945   8.708
  394POPC   D2A 9652  34.235  22.172   8.372
  394POPC   C3A 9653  34.020  22.111   8.007
  394POPC   C4A 9654  34.037  22.023   7.610
  394POPC   C1B 9655  33.937  22.453   8.786
  394POPC   C2B 9656  33.762  22.358   8.393
  394POPC   C3B 9657  33.761  22.551   7.994
  394POPC   C4B 9658  33.947  22.521   7.604
  395POPC   NC3 9659  35.160  34.340   9.654
  395POPC   PO4 9660  35.526  34.869   9.746
  395POPC   GL1 9661  35.283  34.699   9.325
  395POPC   GL2 9662  34.968  34.699   9.210
  395POPC   C1A 9663  35.381  34.601   8.869
  395POPC   D2A 9664  35.714  34.686   8.554
  395POPC   C3A 9665  35.490  34.738   8.179
  395POPC   C4A 9666  35.536  34.733   7.747
  395POPC   C1B 9667  34.913  34.452   8.802
  395POPC   C2B 9668  35.223  34.348   8.458
  395POPC   C3B 9669  35.197  34.288   8.010
  395POPC   C4B 9670  35.440  34.250   7.637
  396POPC   NC3 9671  44.100   2.537   9.491
  396POPC   PO4 9672  43.470   2.457   9.359
  396POPC   GL1 9673  43.574   2.698   9.018
  396POPC   GL2 9674  43.929   2.671   9.019
  396POPC   C1A 9675  43.671   2.954   8.666
  396POPC   D2A 9676  43.830   2.972   8.240
  396POPC   C3A 9677  43.734   2.748   7.861
  396POPC   C4A 9678  43.592   2.959   7.473
  396POPC   C1B 9679  44.171   2.945   8.726
  396POPC   C2B 9680  44.336   2.849   8.311
  396POPC   C3B 9681  44.229   2.957   7.882
  396POPC   C4B 9682  44.338   3.388   7.692
  397POPC   NC3 9683  34.259  42.370   9.315
  397POPC   PO4 9684  34.860  41.999   9.462
  397POPC   GL1 9685  34.687  42.078   9.078
  397POPC   GL2 9686  34.377  41.928   9.120
  397POPC   C1A 9687  34.697  42.382   8.715
  397POPC   D2A 9688  34.467  42.432   8.324
  397POPC   C3A 9689  34.722  42.469   7.954
  397POPC   C4A 9690  35.034  42.169   7.907
  397POPC   C1B 9691  34.291  42.083   8.721
  397POPC   C2B 9692  34.579  41.903   8.434
  397POPC   C3B 9693  34.550  41.989   8.015
  397POPC   C4B 9694  34.262  42.298   7.870
  398POPC   NC3 9695  42.801  20.935   9.539
  398POPC   PO4 9696  43.172  21.505   9.521
  398POPC   GL1 9697  43.038  21.261   9.181
  398POPC   GL2 9698  43.364  21.238   9.057
  398POPC   C1A 9699  42.809  21.207   8.786
  398POPC   D2A 9700  42.933  21.117   8.326
  398POPC   C3A 9701  42.848  21.299   7.869
  398POPC   C4A 9702  43.104  21.481   7.497
  398POPC   C1B 9703  43.337  21.214   8.651
  398POPC   C2B 9704  43.505  21.297   8.289
  398POPC   C3B 9705  43.350  21.223   7.920
  398POPC   C4B 9706  43.460  21.057   7.571
  399POPC   NC3 9707  34.269  30.986   9.572
  399POPC   PO4 9708  33.745  30.576   9.517
  399POPC   GL1 9709  33.909  30.784   9.203
  399POPC   GL2 9710  33.660  31.027   9.145
  399POPC   C1A 9711  33.972  30.651   8.787
  399POPC   D2A 9712  33.846  30.771   8.399
  399POPC   C3A 9713  34.021  30.536   8.099
  399POPC   C4A 9714  33.825  30.652   7.750
  399POPC   C1B 9715  33.383  31.166   8.847
  399POPC   C2B 9716  33.453  31.148   8.432
  399POPC   C3B 9717  33.560  31.120   8.010
  399POPC   C4B 9718  33.390  30.935   7.637
  400POPC   NC3 9719  16.065   0.473   9.589
  400POPC   PO4 9720  15.545   0.828   9.421
  400POPC   GL1 9721  15.861   0.641   9.119
  400POPC   GL2 9722  15.978   0.275   9.065
  400POPC   C1A 9723  15.988   0.654   8.684
  400POPC   D2A 9724  15.888   0.455   8.285
  400POPC   C3A 9725  15.930   0.740   7.901
  400POPC   C4A 9726  15.700   0.776   7.493
  400POPC   C1B 9727  16.212   0.178   8.625
  400POPC   C2B 9728  16.279   0.141   8.170
  400POPC   C3B 9729  15.986   0.242   7.834
  400POPC   C4B 9730  15.678   0.261   7.512
  401POPC   NC3 9731   8.783  40.498   9.403
  401POPC   PO4 9732   9.123  41.044   9.663
  401POPC   GL1 9733   8.984  40.966   9.238
  401POPC   GL2 9734   8.635  40.860   9.073
  401POPC   C1A 9735   9.093  40.926   8.817
  401POPC   D2A 9736   9.075  41.098   8.400
  401POPC   C3A 9737   9.080  40.839   8.014
  401POPC   C4A 9738   9.312  40.495   7.807
  401POPC   C1B 9739   8.702  40.643   8.663
  401POPC   C2B 9740   8.603  40.726   8.216
  401POPC   C3B 9741   8.499  40.554   7.786
  401POPC   C4B 9742   8.461  40.464   7.313
  402POPC   NC3 9743   5.174  43.726   9.329
  402POPC   PO4 9744   4.882  44.167   9.741
  402POPC   GL1 9745   5.118  44.227   9.190
  402POPC   GL2 9746   5.019  43.946   8.881
  402POPC   C1A 9747   5.414  44.237   8.814
  402POPC   D2A 9748   5.257  43.981   8.449
  402POPC   C3A 9749   5.274  44.004   8.017
  402POPC   C4A 9750   4.917  43.995   7.749
  402POPC   C1B 9751   4.765  43.577   8.686
  402POPC   C2B 9752   4.667  43.465   8.260
  402POPC   C3B 9753   4.844  43.501   7.868
  402POPC   C4B 9754   4.704  43.597   7.430
  403POPC   NC3 9755  29.321  28.624   9.620
  403POPC   PO4 9756  29.207  28.034   9.647
  403POPC   GL1 9757  29.110  28.289   9.297
  403POPC   GL2 9758  29.048  28.076   9.052
  403POPC   C1A 9759  29.199  28.538   8.920
  403POPC   D2A 9760  29.172  28.634   8.443
  403POPC   C3A 9761  29.130  28.370   8.062
  403POPC   C4A 9762  29.277  28.414   7.624
  403POPC   C1B 9763  29.283  28.108   8.696
  403POPC   C2B 9764  29.525  28.139   8.352
  403POPC   C3B 9765  29.449  27.943   7.980
  403POPC   C4B 9766  29.111  27.936   7.708
  404POPC   NC3 9767  11.676  12.498   9.418
  404POPC   PO4 9768  11.093  12.859   9.580
  404POPC   GL1 9769  11.269  12.886   9.180
  404POPC   GL2 9770  11.219  12.542   9.129
  404POPC   C1A 9771  11.328  12.925   8.730
  404POPC   D2A 9772  11.530  12.838   8.334
  404POPC   C3A 9773  11.367  12.788   7.913
  404POPC   C4A 9774  11.523  12.832   7.427
  404POPC   C1B 9775  11.000  12.541   8.728
  404POPC   C2B 9776  11.009  12.706   8.321
  404POPC   C3B 9777  10.974  12.477   7.936
  404POPC   C4B 9778  11.174  12.495   7.538
  405POPC   NC3 9779  21.099  32.832   9.533
  405POPC   PO4 9780  21.621  33.184   9.739
  405POPC   GL1 9781  21.405  33.123   9.228
  405POPC   GL2 9782  21.065  33.247   9.164
  405POPC   C1A 9783  21.522  32.903   8.820
  405POPC   D2A 9784  21.290  32.700   8.478
  405POPC   C3A 9785  21.502  32.773   8.068
  405POPC   C4A 9786  21.438  32.843   7.632
  405POPC   C1B 9787  21.103  33.173   8.711
  405POPC   C2B 9788  21.317  33.360   8.350
  405POPC   C3B 9789  21.359  33.278   7.907
  405POPC   C4B 9790  21.112  33.225   7.520
  406POPC   NC3 9791  36.381  33.747   9.585
  406POPC   PO4 9792  35.749  33.998   9.345
  406POPC   GL1 9793  36.069  33.694   9.158
  406POPC   GL2 9794  36.422  33.499   9.158
  406POPC   C1A 9795  36.001  33.568   8.766
  406POPC   D2A 9796  35.845  33.792   8.420
  406POPC   C3A 9797  36.054  33.880   8.030
  406POPC   C4A 9798  36.202  33.776   7.626
  406POPC   C1B 9799  36.583  33.606   8.776
  406POPC   C2B 9800  36.382  33.662   8.397
  406POPC   C3B 9801  36.310  33.434   8.045
  406POPC   C4B 9802  36.373  33.277   7.636
  407POPC   NC3 9803  32.755  35.111   9.516
  407POPC   PO4 9804  33.004  35.743   9.395
  407POPC   GL1 9805  32.929  35.413   9.142
  407POPC   GL2 9806  33.268  35.266   9.139
  407POPC   C1A 9807  32.684  35.409   8.755
  407POPC   D2A 9808  32.787  35.690   8.396
  407POPC   C3A 9809  32.920  35.647   7.942
  407POPC   C4A 9810  32.875  35.287   7.641
  407POPC   C1B 9811  33.207  35.392   8.710
  407POPC   C2B 9812  32.989  35.113   8.439
  407POPC   C3B 9813  33.139  34.945   8.076
  407POPC   C4B 9814  33.348  35.152   7.773
  408POPC   NC3 9815  17.950  17.403   9.435
  408POPC   PO4 9816  18.597  17.550   9.600
  408POPC   GL1 9817  18.448  17.618   9.177
  408POPC   GL2 9818  18.264  17.320   9.042
  408POPC   C1A 9819  18.618  17.514   8.769
  408POPC   D2A 9820  18.473  17.222   8.431
  408POPC   C3A 9821  18.388  17.436   8.036
  408POPC   C4A 9822  18.519  17.626   7.634
  408POPC   C1B 9823  18.101  17.496   8.603
  408POPC   C2B 9824  17.895  17.564   8.202
  408POPC   C3B 9825  17.899  17.362   7.778
  408POPC   C4B 9826  17.808  17.266   7.342
  409POPC   NC3 9827  27.575  25.923   9.543
  409POPC   PO4 9828  27.629  26.527   9.268
  409POPC   GL1 9829  27.677  26.149   9.112
  409POPC   GL2 9830  27.378  26.022   9.083
  409POPC   C1A 9831  27.831  26.043   8.752
  409POPC   D2A 9832  27.802  26.369   8.442
  409POPC   C3A 9833  27.822  26.243   8.022
  409POPC   C4A 9834  27.856  25.837   7.784
  409POPC   C1B 9835  27.351  26.306   8.733
  409POPC   C2B 9836  27.199  26.164   8.381
  409POPC   C3B 9837  27.441  25.935   8.136
  409POPC   C4B 9838  27.425  26.074   7.733
  410POPC   NC3 9839  41.674   2.876   9.675
  410POPC   PO4 9840  41.096   2.552   9.424
  410POPC   GL1 9841  41.306   2.833   9.122
  410POPC   GL2 9842  41.692   2.827   9.167
  410POPC   C1A 9843  41.474   2.823   8.705
  410POPC   D2A 9844  41.471   3.027   8.313
  410POPC   C3A 9845  41.545   2.699   8.038
  410POPC   C4A 9846  41.429   2.683   7.628
  410POPC   C1B 9847  41.922   3.027   8.822
  410POPC   C2B 9848  41.929   2.814   8.420
  410POPC   C3B 9849  41.940   3.027   8.051
  410POPC   C4B 9850  41.738   3.084   7.679
  411POPC   NC3 9851  14.360  10.999   9.470
  411POPC   PO4 9852  14.101  11.652   9.373
  411POPC   GL1 9853  14.163  11.316   9.097
  411POPC   GL2 9854  14.504  11.186   9.029
  411POPC   C1A 9855  14.171  11.358   8.669
  411POPC   D2A 9856  14.047  11.624   8.362
  411POPC   C3A 9857  14.207  11.486   8.029
  411POPC   C4A 9858  14.300  11.099   7.912
  411POPC   C1B 9859  14.626  11.551   8.793
  411POPC   C2B 9860  14.599  11.420   8.367
  411POPC   C3B 9861  14.714  11.458   7.962
  411POPC   C4B 9862  15.091  11.431   7.734
  412POPC   NC3 9863  18.879  29.649   9.336
  412POPC   PO4 9864  19.131  30.231   9.521
  412POPC   GL1 9865  19.214  30.045   9.115
  412POPC   GL2 9866  19.441  30.303   9.003
  412POPC   C1A 9867  19.146  29.792   8.702
  412POPC   D2A 9868  19.374  29.644   8.304
  412POPC   C3A 9869  19.196  29.749   7.888
  412POPC   C4A 9870  18.796  29.904   7.741
  412POPC   C1B 9871  19.192  30.299   8.667
  412POPC   C2B 9872  19.114  30.121   8.278
  412POPC   C3B 9873  19.289  30.247   7.904
  412POPC   C4B 9874  19.021  30.317   7.591
  413POPC   NC3 9875   3.359  43.616   9.449
  413POPC   PO4 9876   3.893  44.078   9.618
  413POPC   GL1 9877   3.573  44.136   9.270
  413POPC   GL2 9878   3.606  43.849   9.066
  413POPC   C1A 9879   3.421  44.246   8.829
  413POPC   D2A 9880   3.387  44.012   8.443
  413POPC   C3A 9881   3.358  44.183   8.051
  413POPC   C4A 9882   3.581  43.977   7.769
  413POPC   C1B 9883   3.268  43.669   8.795
  413POPC   C2B 9884   3.302  43.465   8.392
  413POPC   C3B 9885   3.256  43.658   8.013
  413POPC   C4B 9886   3.115  43.663   7.592
  414POPC   NC3 9887  27.349  34.392   9.566
  414POPC   PO4 9888  27.659  34.990   9.601
  414POPC   GL1 9889  27.686  34.685   9.268
  414POPC   GL2 9890  27.379  34.546   9.089
  414POPC   C1A 9891  27.714  34.841   8.829
  414POPC   D2A 9892  27.625  34.900   8.380
  414POPC   C3A 9893  27.548  34.525   8.114
  414POPC   C4A 9894  27.574  34.385   7.680
  414POPC   C1B 9895  27.374  34.493   8.642
  414POPC   C2B 9896  27.094  34.641   8.350
  414POPC   C3B 9897  27.026  34.490   7.965
  414POPC   C4B 9898  27.089  34.508   7.559
  415POPC   NC3 9899  10.987  21.323   9.596
  415POPC   PO4 9900  11.429  21.769   9.498
  415POPC   GL1 9901  11.220  21.534   9.164
  415POPC   GL2 9902  10.870  21.632   9.171
  415POPC   C1A 9903  11.208  21.329   8.743
  415POPC   D2A 9904  11.295  21.167   8.311
  415POPC   C3A 9905  11.312  21.424   7.965
  415POPC   C4A 9906  11.227  21.829   7.884
  415POPC   C1B 9907  10.943  21.775   8.761
  415POPC   C2B 9908  11.026  21.617   8.350
  415POPC   C3B 9909  10.806  21.473   7.993
  415POPC   C4B 9910  10.873  21.602   7.567
  416POPC   NC3 9911  11.160  36.386  10.069
  416POPC   PO4 9912  11.065  35.940   9.753
  416POPC   GL1 9913  11.062  35.973   9.256
  416POPC   GL2 9914  11.245  36.275   9.193
  416POPC   C1A 9915  11.288  35.891   8.849
  416POPC   D2A 9916  11.403  35.908   8.395
  416POPC   C3A 9917  11.127  35.926   8.023
  416POPC   C4A 9918  11.151  36.078   7.576
  416POPC   C1B 9919  11.107  36.362   8.759
  416POPC   C2B 9920  11.167  36.362   8.305
  416POPC   C3B 9921  10.943  36.408   7.909
  416POPC   C4B 9922  10.917  36.528   7.452
  417POPC   NC3 9923   9.666  28.767   9.524
  417POPC   PO4 9924   9.926  29.409   9.627
  417POPC   GL1 9925   9.832  29.163   9.259
  417POPC   GL2 9926  10.077  28.970   9.155
  417POPC   C1A 9927   9.618  29.052   8.869
  417POPC   D2A 9928   9.791  29.277   8.513
  417POPC   C3A 9929   9.615  29.263   8.105
  417POPC   C4A 9930   9.716  29.035   7.757
  417POPC   C1B 9931  10.081  28.872   8.722
  417POPC   C2B 9932   9.909  28.824   8.297
  417POPC   C3B 9933  10.224  28.844   7.978
  417POPC   C4B 9934  10.305  29.066   7.599
  418POPC   NC3 9935  26.343   1.691   9.523
  418POPC   PO4 9936  25.892   2.209   9.475
  418POPC   GL1 9937  25.900   2.039   9.110
  418POPC   GL2 9938  26.249   2.038   9.151
  418POPC   C1A 9939  25.819   1.970   8.695
  418POPC   D2A 9940  25.978   2.056   8.320
  418POPC   C3A 9941  25.667   2.089   8.057
  418POPC   C4A 9942  25.580   1.937   7.674
  418POPC   C1B 9943  26.374   1.881   8.771
  418POPC   C2B 9944  26.441   1.857   8.359
  418POPC   C3B 9945  26.373   2.067   7.982
  418POPC   C4B 9946  26.374   1.891   7.591
  419POPC   NC3 9947  12.097  13.199   9.237
  419POPC   PO4 9948  12.155  12.538   9.441
  419POPC   GL1 9949  12.163  12.720   9.077
  419POPC   GL2 9950  12.492  12.950   9.074
  419POPC   C1A 9951  11.848  12.837   8.743
  419POPC   D2A 9952  11.893  13.195   8.419
  419POPC   C3A 9953  11.794  13.080   7.975
  419POPC   C4A 9954  11.839  12.662   7.803
  419POPC   C1B 9955  12.326  12.938   8.649
  419POPC   C2B 9956  12.126  12.751   8.281
  419POPC   C3B 9957  12.326  12.723   7.887
  419POPC   C4B 9958  12.485  12.936   7.544
  420POPC   NC3 9959  29.550  15.280   9.528
  420POPC   PO4 9960  30.333  15.364   9.483
  420POPC   GL1 9961  29.968  15.277   9.215
  420POPC   GL2 9962  29.807  14.938   9.199
  420POPC   C1A 9963  29.886  15.416   8.799
  420POPC   D2A 9964  30.099  15.300   8.420
  420POPC   C3A 9965  29.892  15.359   8.036
  420POPC   C4A 9966  29.673  15.355   7.676
  420POPC   C1B 9967  29.732  14.953   8.758
  420POPC   C2B 9968  29.586  15.139   8.397
  420POPC   C3B 9969  29.671  14.896   8.046
  420POPC   C4B 9970  29.938  14.929   7.710
  421POPC   NC3 9971  16.566  16.846   9.524
  421POPC   PO4 9972  17.261  16.895   9.628
  421POPC   GL1 9973  17.001  16.719   9.275
  421POPC   GL2 9974  16.731  16.466   9.212
  421POPC   C1A 9975  16.944  16.754   8.820
  421POPC   D2A 9976  17.030  16.795   8.368
  421POPC   C3A 9977  16.749  17.080   8.187
  421POPC   C4A 9978  16.440  17.047   7.878
  421POPC   C1B 9979  16.642  16.349   8.752
  421POPC   C2B 9980  16.548  16.580   8.381
  421POPC   C3B 9981  16.704  16.606   7.975
  421POPC   C4B 9982  16.633  16.427   7.593
  422POPC   NC3 9983  41.037  42.531   9.496
  422POPC   PO4 9984  40.849  41.898   9.498
  422POPC   GL1 9985  40.859  42.180   9.155
  422POPC   GL2 9986  40.611  42.473   9.193
  422POPC   C1A 9987  40.820  42.068   8.729
  422POPC   D2A 9988  40.640  42.084   8.345
  422POPC   C3A 9989  40.939  42.034   8.033
  422POPC   C4A 9990  40.824  42.103   7.582
  422POPC   C1B 9991  40.849  42.586   8.815
  422POPC   C2B 9992  40.939  42.588   8.357
  422POPC   C3B 9993  40.714  42.484   7.982
  422POPC   C4B 9994  40.806  42.603   7.604
  423POPC   NC3 9995  29.639  41.905   9.166
  423POPC   PO4 9996  30.043  42.361   9.558
  423POPC   GL1 9997  29.968  42.307   9.127
  423POPC   GL2 9998  29.855  42.620   9.041
  423POPC   C1A 9999  30.035  42.134   8.706
  423POPC   D2A10000  29.818  41.990   8.336
  423POPC   C3A10001  30.011  42.221   8.033
  423POPC   C4A10002  30.389  42.308   7.834
  423POPC   C1B10003  29.682  42.499   8.659
  423POPC   C2B10004  29.361  42.264   8.449
  423POPC   C3B10005  29.489  42.250   8.015
  423POPC   C4B10006  29.715  42.624   7.910
  424POPC   NC310007  29.811  37.160   9.514
  424POPC   PO410008  30.373  36.696   9.619
  424POPC   GL110009  30.174  36.874   9.179
  424POPC   GL210010  29.828  36.862   9.119
  424POPC   C1A10011  30.058  36.642   8.748
  424POPC   D2A10012  29.832  36.666   8.394
  424POPC   C3A10013  30.091  36.917   8.140
  424POPC   C4A10014  30.208  36.921   7.718
  424POPC   C1B10015  29.796  37.104   8.726
  424POPC   C2B10016  29.631  37.158   8.276
  424POPC   C3B10017  29.742  37.105   7.800
  424POPC   C4B10018  29.685  36.964   7.343
  425POPC   NC310019  28.841  15.784   9.564
  425POPC   PO410020  28.188  16.019   9.536
  425POPC   GL110021  28.466  15.904   9.199
  425POPC   GL210022  28.177  15.665   9.125
  425POPC   C1A10023  28.739  15.991   8.758
  425POPC   D2A10024  28.799  16.264   8.377
  425POPC   C3A10025  28.674  16.130   7.945
  425POPC   C4A10026  28.330  16.206   7.665
  425POPC   C1B10027  28.231  15.959   8.761
  425POPC   C2B10028  28.387  15.965   8.345
  425POPC   C3B10029  28.277  15.795   7.944
  425POPC   C4B10030  28.269  15.740   7.462
  426POPC   NC310031  44.235  29.095   9.503
  426POPC   PO410032  44.858  28.916   9.518
  426POPC   GL110033  44.619  29.180   9.171
  426POPC   GL210034  44.620  28.969   9.024
  426POPC   C1A10035  44.643  29.359   8.713
  426POPC   D2A10036  44.538  29.137   8.365
  426POPC   C3A10037  44.556  29.259   7.964
  426POPC   C4A10038  44.538  29.486   7.572
  426POPC   C1B10039  44.913  28.896   8.699
  426POPC   C2B10040   0.013  28.999   8.290
  426POPC   C3B10041  44.913  28.884   7.868
  426POPC   C4B10042  44.889  29.130   7.507
  427POPC   NC310043  35.130  42.517   9.416
  427POPC   PO410044  35.768  42.250   9.510
  427POPC   GL110045  35.725  42.320   9.081
  427POPC   GL210046  35.403  42.186   9.124
  427POPC   C1A10047  35.499  42.365   8.638
  427POPC   D2A10048  35.103  42.517   8.412
  427POPC   C3A10049  35.129  42.737   8.015
  427POPC   C4A10050  35.274  42.520   7.614
  427POPC   C1B10051  35.608  41.914   8.820
  427POPC   C2B10052  35.766  41.989   8.415
  427POPC   C3B10053  35.577  42.228   8.077
  427POPC   C4B10054  35.444  41.924   7.747
  428POPC   NC310055   2.767  26.145   9.478
  428POPC   PO410056   2.897  25.585   9.485
  428POPC   GL110057   2.661  25.768   9.101
  428POPC   GL210058   2.522  26.121   9.024
  428POPC   C1A10059   2.700  25.812   8.653
  428POPC   D2A10060   2.748  26.122   8.344
  428POPC   C3A10061   2.829  25.936   7.946
  428POPC   C4A10062   3.164  26.139   7.719
  428POPC   C1B10063   2.216  26.288   8.730
  428POPC   C2B10064   2.275  26.285   8.275
  428POPC   C3B10065   2.472  26.333   7.835
  428POPC   C4B10066   2.479  26.376   7.351
  429POPC   NC310067  31.493  15.390   9.542
  429POPC   PO410068  31.724  14.750   9.383
  429POPC   GL110069  31.549  15.095   9.138
  429POPC   GL210070  31.773  15.438   9.127
  429POPC   C1A10071  31.227  15.240   8.819
  429POPC   D2A10072  31.116  15.369   8.396
  429POPC   C3A10073  31.214  15.127   8.039
  429POPC   C4A10074  31.202  14.899   7.662
  429POPC   C1B10075  31.726  15.278   8.708
  429POPC   C2B10076  31.677  15.131   8.317
  429POPC   C3B10077  31.666  15.353   7.958
  429POPC   C4B10078  31.645  15.155   7.618
  430POPC   NC310079   7.212  19.267   9.458
  430POPC   PO410080   7.903  19.196   9.430
  430POPC   GL110081   7.704  19.036   9.095
  430POPC   GL210082   7.370  18.886   9.139
  430POPC   C1A10083   7.623  18.983   8.675
  430POPC   D2A10084   7.272  18.773   8.539
  430POPC   C3A10085   7.239  18.886   8.115
  430POPC   C4A10086   7.513  19.172   7.892
  430POPC   C1B10087   7.186  19.199   8.824
  430POPC   C2B10088   7.159  19.322   8.419
  430POPC   C3B10089   6.994  19.329   8.020
  430POPC   C4B10090   7.164  19.430   7.623
  431POPC   NC310091  25.858  42.847   9.521
  431POPC   PO410092  26.365  43.250   9.381
  431POPC   GL110093  26.138  42.993   9.118
  431POPC   GL210094  25.833  43.213   9.131
  431POPC   C1A10095  26.199  42.935   8.696
  431POPC   D2A10096  26.295  43.149   8.329
  431POPC   C3A10097  26.232  42.938   7.943
  431POPC   C4A10098  26.055  43.285   7.761
  431POPC   C1B10099  25.683  42.911   8.831
  431POPC   C2B10100  25.795  42.774   8.404
  431POPC   C3B10101  25.713  42.958   8.022
  431POPC   C4B10102  25.719  42.840   7.619
  432POPC   NC310103   7.031   4.328   9.408
  432POPC   PO410104   7.719   4.524   9.418
  432POPC   GL110105   7.445   4.434   9.138
  432POPC   GL210106   7.464   4.088   9.172
  432POPC   C1A10107   7.271   4.598   8.776
  432POPC   D2A10108   7.445   4.607   8.373
  432POPC   C3A10109   7.328   4.394   7.982
  432POPC   C4A10110   7.622   4.100   7.786
  432POPC   C1B10111   7.508   4.161   8.710
  432POPC   C2B10112   7.152   4.161   8.411
  432POPC   C3B10113   7.066   3.932   8.012
  432POPC   C4B10114   7.226   3.790   7.611
  433POPC   NC310115  21.772   5.310   9.824
  433POPC   PO410116  21.434   4.939   9.382
  433POPC   GL110117  21.464   4.952   8.973
  433POPC   GL210118  21.448   5.315   8.967
  433POPC   C1A10119  21.669   5.037   8.577
  433POPC   D2A10120  21.618   5.366   8.286
  433POPC   C3A10121  21.403   5.142   7.989
  433POPC   C4A10122  21.381   4.949   7.578
  433POPC   C1B10123  21.222   5.306   8.566
  433POPC   C2B10124  20.933   5.274   8.229
  433POPC   C3B10125  20.958   5.327   7.794
  433POPC   C4B10126  21.119   5.346   7.388
  434POPC   NC310127  33.307  23.559   9.881
  434POPC   PO410128  32.968  24.153   9.659
  434POPC   GL110129  33.045  23.856   9.315
  434POPC   GL210130  33.318  23.929   9.084
  434POPC   C1A10131  32.851  23.727   8.919
  434POPC   D2A10132  33.038  23.668   8.508
  434POPC   C3A10133  32.914  23.832   8.099
  434POPC   C4A10134  32.904  23.508   7.779
  434POPC   C1B10135  33.413  24.188   8.749
  434POPC   C2B10136  33.328  24.067   8.347
  434POPC   C3B10137  33.310  24.154   7.937
  434POPC   C4B10138  33.206  23.878   7.597
  435POPC   NC310139  31.132  23.457   9.408
  435POPC   PO410140  31.413  24.137   9.355
  435POPC   GL110141  31.663  23.898   9.091
  435POPC   GL210142  31.609  23.562   9.137
  435POPC   C1A10143  31.636  23.875   8.665
  435POPC   D2A10144  31.276  23.753   8.425
  435POPC   C3A10145  31.410  23.626   8.041
  435POPC   C4A10146  31.201  23.547   7.695
  435POPC   C1B10147  31.791  23.398   8.755
  435POPC   C2B10148  31.849  23.550   8.317
  435POPC   C3B10149  31.756  23.281   7.934
  435POPC   C4B10150  31.699  23.484   7.528
  436POPC   NC310151  19.230  10.886   9.544
  436POPC   PO410152  18.973  11.599   9.552
  436POPC   GL110153  19.198  11.559   9.155
  436POPC   GL210154  19.274  11.200   9.130
  436POPC   C1A10155  19.151  11.478   8.704
  436POPC   D2A10156  19.319  11.331   8.310
  436POPC   C3A10157  19.041  11.509   8.018
  436POPC   C4A10158  19.073  11.728   7.668
  436POPC   C1B10159  18.875  11.112   8.889
  436POPC   C2B10160  18.810  11.170   8.439
  436POPC   C3B10161  18.985  11.005   8.064
  436POPC   C4B10162  18.794  11.155   7.686
  437POPC   NC310163   5.549  43.194   9.690
  437POPC   PO410164   5.063  42.850   9.550
  437POPC   GL110165   5.213  42.890   9.164
  437POPC   GL210166   5.328  43.241   9.135
  437POPC   C1A10167   5.105  42.979   8.733
  437POPC   D2A10168   5.086  43.196   8.350
  437POPC   C3A10169   5.055  42.957   7.994
  437POPC   C4A10170   4.825  43.056   7.658
  437POPC   C1B10171   5.271  43.496   8.734
  437POPC   C2B10172   5.464  43.531   8.331
  437POPC   C3B10173   5.349  43.416   7.936
  437POPC   C4B10174   5.459  43.067   7.690
  438POPC   NC310175  42.568  43.694   9.583
  438POPC   PO410176  42.194  44.170   9.627
  438POPC   GL110177  42.229  43.933   9.211
  438POPC   GL210178  42.376  43.617   9.133
  438POPC   C1A10179  42.197  43.900   8.749
  438POPC   D2A10180  42.430  44.022   8.375
  438POPC   C3A10181  42.240  43.911   7.966
  438POPC   C4A10182  42.407  44.061   7.568
  438POPC   C1B10183  42.417  43.411   8.777
  438POPC   C2B10184  42.311  43.539   8.387
  438POPC   C3B10185  42.376  43.415   7.998
  438POPC   C4B10186  42.418  43.548   7.591
  439POPC   NC310187  37.829   9.437   9.444
  439POPC   PO410188  37.430   9.959   9.476
  439POPC   GL110189  37.677   9.834   9.137
  439POPC   GL210190  38.041   9.824   9.199
  439POPC   C1A10191  37.454   9.586   8.826
  439POPC   D2A10192  37.121   9.579   8.489
  439POPC   C3A10193  37.283   9.750   8.083
  439POPC   C4A10194  37.468   9.559   7.733
  439POPC   C1B10195  38.068   9.572   8.838
  439POPC   C2B10196  37.829   9.649   8.484
  439POPC   C3B10197  37.839   9.694   8.071
  439POPC   C4B10198  38.006   9.467   7.754
  440POPC   NC310199  32.981  35.980   9.784
  440POPC   PO410200  32.774  36.519   9.535
  440POPC   GL110201  33.007  36.223   9.228
  440POPC   GL210202  33.256  36.388   9.090
  440POPC   C1A10203  33.123  35.925   8.824
  440POPC   D2A10204  33.274  35.885   8.409
  440POPC   C3A10205  33.048  36.187   8.189
  440POPC   C4A10206  32.821  36.192   7.789
  440POPC   C1B10207  33.002  36.398   8.721
  440POPC   C2B10208  32.724  36.539   8.414
  440POPC   C3B10209  32.749  36.690   8.006
  440POPC   C4B10210  32.726  36.643   7.579
  441POPC   NC310211   8.568  43.454   9.543
  441POPC   PO410212   8.995  42.847   9.663
  441POPC   GL110213   8.919  42.962   9.221
  441POPC   GL210214   9.217  42.842   9.090
  441POPC   C1A10215   8.863  43.097   8.768
  441POPC   D2A10216   9.094  43.285   8.376
  441POPC   C3A10217   8.868  43.296   7.970
  441POPC   C4A10218   8.682  43.070   7.616
  441POPC   C1B10219   9.304  42.840   8.668
  441POPC   C2B10220   8.994  42.794   8.344
  441POPC   C3B10221   9.040  42.824   7.933
  441POPC   C4B10222   9.249  42.979   7.613
  442POPC   NC310223   1.499  23.408   9.250
  442POPC   PO410224   2.018  23.757   9.465
  442POPC   GL110225   1.951  23.631   9.050
  442POPC   GL210226   2.207  23.414   9.095
  442POPC   C1A10227   1.777  23.364   8.681
  442POPC   D2A10228   1.649  23.449   8.266
  442POPC   C3A10229   1.926  23.716   8.093
  442POPC   C4A10230   1.989  23.860   7.726
  442POPC   C1B10231   2.267  23.490   8.660
  442POPC   C2B10232   2.182  23.288   8.253
  442POPC   C3B10233   2.307  23.461   7.834
  442POPC   C4B10234   2.163  23.544   7.382
  443POPC   NC310235  31.598   7.338   9.446
  443POPC   PO410236  30.934   7.705   9.556
  443POPC   GL110237  31.248   7.654   9.196
  443POPC   GL210238  31.281   7.321   9.024
  443POPC   C1A10239  31.439   7.748   8.762
  443POPC   D2A10240  31.639   7.633   8.369
  443POPC   C3A10241  31.431   7.465   8.007
  443POPC   C4A10242  31.308   7.340   7.606
  443POPC   C1B10243  31.627   7.235   8.749
  443POPC   C2B10244  31.702   7.105   8.329
  443POPC   C3B10245  31.476   6.961   7.961
  443POPC   C4B10246  31.586   6.903   7.531
  444POPC   NC310247  13.454  29.461   9.414
  444POPC   PO410248  13.902  29.002   9.569
  444POPC   GL110249  13.801  29.080   9.157
  444POPC   GL210250  13.580  28.825   9.089
  444POPC   C1A10251  13.802  29.043   8.689
  444POPC   D2A10252  13.540  29.140   8.314
  444POPC   C3A10253  13.726  29.047   7.918
  444POPC   C4A10254  13.886  29.163   7.511
  444POPC   C1B10255  13.281  28.935   8.733
  444POPC   C2B10256  13.108  28.771   8.333
  444POPC   C3B10257  13.234  28.801   7.890
  444POPC   C4B10258  13.418  28.969   7.488
  445POPC   NC310259  44.750  13.531   9.561
  445POPC   PO410260  44.154  13.823   9.444
  445POPC   GL110261  44.467  13.598   9.157
  445POPC   GL210262  44.831  13.693   9.101
  445POPC   C1A10263  44.532  13.480   8.746
  445POPC   D2A10264  44.482  13.308   8.359
  445POPC   C3A10265  44.631  13.437   7.980
  445POPC   C4A10266  44.483  13.503   7.576
  445POPC   C1B10267  44.954  13.791   8.735
  445POPC   C2B10268  44.940  13.586   8.393
  445POPC   C3B10269   0.077  13.700   8.055
  445POPC   C4B10270  44.998  13.618   7.644
  446POPC   NC310271  26.409  41.327   9.467
  446POPC   PO410272  26.930  41.817   9.547
  446POPC   GL110273  26.765  41.724   9.188
  446POPC   GL210274  26.937  41.400   9.170
  446POPC   C1A10275  26.811  41.929   8.798
  446POPC   D2A10276  26.923  41.747   8.382
  446POPC   C3A10277  26.927  41.935   7.994
  446POPC   C4A10278  26.724  41.796   7.605
  446POPC   C1B10279  26.855  41.407   8.758
  446POPC   C2B10280  26.589  41.355   8.397
  446POPC   C3B10281  26.718  41.438   7.980
  446POPC   C4B10282  26.732  41.292   7.549
  447POPC   NC310283  35.140  41.555   9.506
  447POPC   PO410284  35.770  41.461   9.442
  447POPC   GL110285  35.448  41.529   9.085
  447POPC   GL210286  35.128  41.759   9.064
  447POPC   C1A10287  35.298  41.553   8.636
  447POPC   D2A10288  35.321  41.291   8.298
  447POPC   C3A10289  35.379  41.406   7.873
  447POPC   C4A10290  35.263  41.515   7.455
  447POPC   C1B10291  35.092  42.050   8.747
  447POPC   C2B10292  35.222  41.994   8.364
  447POPC   C3B10293  35.001  41.678   8.178
  447POPC   C4B10294  34.871  41.618   7.791
  448POPC   NC310295  34.382   9.022   9.602
  448POPC   PO410296  33.654   9.098   9.595
  448POPC   GL110297  33.957   9.017   9.286
  448POPC   GL210298  33.960   9.308   9.077
  448POPC   C1A10299  33.927   8.794   8.899
  448POPC   D2A10300  33.859   8.829   8.470
  448POPC   C3A10301  33.483   8.834   8.220
  448POPC   C4A10302  33.467   8.856   7.800
  448POPC   C1B10303  34.133   9.238   8.681
  448POPC   C2B10304  34.241   9.119   8.284
  448POPC   C3B10305  33.886   9.119   8.037
  448POPC   C4B10306  33.839   9.314   7.671
  449POPC   NC310307  36.636   6.622   9.533
  449POPC   PO410308  37.045   6.099   9.316
  449POPC   GL110309  36.804   6.419   9.090
  449POPC   GL210310  36.827   6.798   9.083
  449POPC   C1A10311  36.950   6.562   8.670
  449POPC   D2A10312  36.818   6.768   8.309
  449POPC   C3A10313  36.902   6.620   7.902
  449POPC   C4A10314  37.038   6.480   7.521
  449POPC   C1B10315  36.695   7.042   8.720
  449POPC   C2B10316  36.746   7.295   8.346
  449POPC   C3B10317  36.919   7.131   7.970
  449POPC   C4B10318  36.946   7.014   7.529
  450POPC   NC310319  37.565  34.555   9.465
  450POPC   PO410320  38.149  34.199   9.369
  450POPC   GL110321  37.963  34.536   9.096
  450POPC   GL210322  37.586  34.545   8.962
  450POPC   C1A10323  37.980  34.529   8.658
  450POPC   D2A10324  37.778  34.719   8.328
  450POPC   C3A10325  37.748  34.349   8.076
  450POPC   C4A10326  37.837  34.251   7.667
  450POPC   C1B10327  37.387  34.913   8.791
  450POPC   C2B10328  37.254  35.020   8.383
  450POPC   C3B10329  37.349  34.762   8.027
  450POPC   C4B10330  37.370  34.543   7.643
  451POPC   NC310331   3.220  29.636   9.616
  451POPC   PO410332   2.516  29.796   9.473
  451POPC   GL110333   2.819  29.930   9.203
  451POPC   GL210334   2.958  29.600   9.182
  451POPC   C1A10335   2.706  30.157   8.806
  451POPC   D2A10336   2.881  30.202   8.397
  451POPC   C3A10337   2.684  29.928   8.128
  451POPC   C4A10338   2.721  30.061   7.733
  451POPC   C1B10339   2.789  29.648   8.779
  451POPC   C2B10340   3.010  29.598   8.425
  451POPC   C3B10341   2.885  29.342   8.131
  451POPC   C4B10342   2.893  29.581   7.796
  452POPC   NC310343   4.537   0.200   9.520
  452POPC   PO410344   4.027   0.667   9.718
  452POPC   GL110345   4.216   0.607   9.289
  452POPC   GL210346   4.117   0.278   9.185
  452POPC   C1A10347   4.392   0.668   8.847
  452POPC   D2A10348   4.468   0.621   8.367
  452POPC   C3A10349   4.165   0.660   8.063
  452POPC   C4A10350   4.095   0.528   7.672
  452POPC   C1B10351   4.356   0.154   8.815
  452POPC   C2B10352   4.469   0.107   8.400
  452POPC   C3B10353   4.312   0.155   8.007
  452POPC   C4B10354   4.505  44.973   7.673
  453POPC   NC310355   3.164  42.638   9.506
  453POPC   PO410356   2.653  43.058   9.611
  453POPC   GL110357   2.850  43.071   9.196
  453POPC   GL210358   3.003  43.395   9.120
  453POPC   C1A10359   2.723  43.113   8.764
  453POPC   D2A10360   2.797  43.257   8.322
  453POPC   C3A10361   2.758  42.908   8.012
  453POPC   C4A10362   2.611  42.806   7.595
  453POPC   C1B10363   3.218  43.131   8.776
  453POPC   C2B10364   3.220  42.955   8.321
  453POPC   C3B10365   3.193  43.129   7.849
  453POPC   C4B10366   3.023  42.998   7.403
  454POPC   NC310367  12.140  24.641   9.569
  454POPC   PO410368  11.830  24.092   9.400
  454POPC   GL110369  11.990  24.449   9.093
  454POPC   GL210370  12.173  24.798   9.064
  454POPC   C1A10371  12.127  24.448   8.650
  454POPC   D2A10372  12.279  24.366   8.234
  454POPC   C3A10373  11.992  24.426   7.910
  454POPC   C4A10374  12.067  24.797   7.749
  454POPC   C1B10375  11.804  24.825   8.742
  454POPC   C2B10376  11.750  24.630   8.318
  454POPC   C3B10377  11.534  24.699   7.905
  454POPC   C4B10378  11.623  24.778   7.490
  455POPC   NC310379   4.411  18.985   9.533
  455POPC   PO410380   5.002  18.872   9.606
  455POPC   GL110381   4.703  18.948   9.125
  455POPC   GL210382   4.283  19.059   9.074
  455POPC   C1A10383   4.510  18.916   8.671
  455POPC   D2A10384   4.287  19.096   8.332
  455POPC   C3A10385   4.477  19.008   7.941
  455POPC   C4A10386   4.492  19.106   7.511
  455POPC   C1B10387   4.004  18.857   8.808
  455POPC   C2B10388   4.081  18.631   8.462
  455POPC   C3B10389   3.967  18.762   8.083
  455POPC   C4B10390   4.107  18.801   7.676
  456POPC   NC310391  36.355  43.366   9.436
  456POPC   PO410392  35.858  42.992   9.559
  456POPC   GL110393  36.079  42.998   9.201
  456POPC   GL210394  36.414  43.006   9.056
  456POPC   C1A10395  35.906  43.160   8.855
  456POPC   D2A10396  35.975  42.989   8.454
  456POPC   C3A10397  35.887  43.151   8.071
  456POPC   C4A10398  36.033  43.002   7.659
  456POPC   C1B10399  36.393  43.170   8.702
  456POPC   C2B10400  36.310  43.361   8.333
  456POPC   C3B10401  36.395  43.063   8.025
  456POPC   C4B10402  36.524  43.164   7.621
  457POPC   NC310403   8.320  19.418   9.441
  457POPC   PO410404   8.278  20.094   9.661
  457POPC   GL110405   8.198  19.910   9.279
  457POPC   GL210406   8.508  19.964   9.170
  457POPC   C1A10407   7.991  19.768   8.918
  457POPC   D2A10408   8.082  19.566   8.506
  457POPC   C3A10409   7.981  19.682   8.070
  457POPC   C4A10410   8.153  19.622   7.672
  457POPC   C1B10411   8.466  19.821   8.770
  457POPC   C2B10412   8.364  19.988   8.407
  457POPC   C3B10413   8.412  19.948   8.019
  457POPC   C4B10414   8.256  20.111   7.644
  458POPC   NC310415  43.983  32.303   9.361
  458POPC   PO410416  43.576  32.881   9.442
  458POPC   GL110417  43.624  32.550   9.073
  458POPC   GL210418  43.974  32.565   8.875
  458POPC   C1A10419  43.661  32.200   8.735
  458POPC   D2A10420  43.781  32.462   8.372
  458POPC   C3A10421  43.851  32.310   7.949
  458POPC   C4A10422  43.811  31.887   7.853
  458POPC   C1B10423  44.181  32.162   8.681
  458POPC   C2B10424  44.125  31.888   8.293
  458POPC   C3B10425  44.314  32.011   7.901
  458POPC   C4B10426  44.412  32.433   7.738
  459POPC   NC310427   1.986  18.648   9.473
  459POPC   PO410428   1.668  19.294   9.402
  459POPC   GL110429   1.831  19.003   9.058
  459POPC   GL210430   2.168  18.795   9.029
  459POPC   C1A10431   2.063  19.164   8.667
  459POPC   D2A10432   2.319  19.316   8.291
  459POPC   C3A10433   2.141  19.236   7.868
  459POPC   C4A10434   1.735  19.132   7.659
  459POPC   C1B10435   2.031  18.646   8.650
  459POPC   C2B10436   2.152  18.830   8.249
  459POPC   C3B10437   2.125  18.721   7.832
  459POPC   C4B10438   1.699  18.626   7.730
  460POPC   NC310439  13.181   8.778   9.464
  460POPC   PO410440  12.750   9.204   9.610
  460POPC   GL110441  12.801   9.014   9.213
  460POPC   GL210442  13.074   9.227   9.128
  460POPC   C1A10443  12.687   8.871   8.787
  460POPC   D2A10444  12.674   9.072   8.355
  460POPC   C3A10445  12.795   8.886   7.965
  460POPC   C4A10446  12.764   8.934   7.495
  460POPC   C1B10447  13.052   9.209   8.679
  460POPC   C2B10448  13.169   9.191   8.224
  460POPC   C3B10449  13.145   9.202   7.773
  460POPC   C4B10450  13.272   8.807   7.648
  461POPC   NC310451   8.495  15.521   9.369
  461POPC   PO410452   9.168  15.285   9.336
  461POPC   GL110453   8.869  15.340   9.045
  461POPC   GL210454   8.680  15.068   9.192
  461POPC   C1A10455   8.713  15.494   8.651
  461POPC   D2A10456   8.572  15.335   8.242
  461POPC   C3A10457   8.945  15.330   7.960
  461POPC   C4A10458   8.935  15.287   7.504
  461POPC   C1B10459   8.611  14.984   8.771
  461POPC   C2B10460   8.875  14.956   8.432
  461POPC   C3B10461   8.692  14.741   8.139
  461POPC   C4B10462   8.643  14.968   7.779
  462POPC   NC310463   6.474   4.307   9.563
  462POPC   PO410464   6.933   3.984   9.118
  462POPC   GL110465   6.563   4.226   9.056
  462POPC   GL210466   6.272   4.022   9.212
  462POPC   C1A10467   6.456   4.443   8.644
  462POPC   D2A10468   6.439   4.656   8.221
  462POPC   C3A10469   6.633   4.458   7.842
  462POPC   C4A10470   6.892   4.583   7.465
  462POPC   C1B10471   6.147   4.053   8.812
  462POPC   C2B10472   6.298   3.967   8.433
  462POPC   C3B10473   6.263   4.179   8.073
  462POPC   C4B10474   6.259   4.112   7.654
  463POPC   NC310475   7.495  20.819   9.571
  463POPC   PO410476   7.303  20.157   9.446
  463POPC   GL110477   7.431  20.456   9.136
  463POPC   GL210478   7.705  20.709   9.130
  463POPC   C1A10479   7.266  20.462   8.708
  463POPC   D2A10480   7.507  20.392   8.332
  463POPC   C3A10481   7.520  20.644   7.991
  463POPC   C4A10482   7.115  20.696   7.811
  463POPC   C1B10483   7.760  20.579   8.757
  463POPC   C2B10484   7.766  20.842   8.448
  463POPC   C3B10485   7.957  20.877   8.087
  463POPC   C4B10486   7.804  21.053   7.717
  464POPC   NC310487  42.634   2.710   9.450
  464POPC   PO410488  42.041   2.618   9.743
  464POPC   GL110489  42.146   2.599   9.279
  464POPC   GL210490  42.322   2.897   9.095
  464POPC   C1A10491  42.071   2.530   8.836
  464POPC   D2A10492  42.402   2.570   8.528
  464POPC   C3A10493  42.383   2.691   8.092
  464POPC   C4A10494  42.103   2.685   7.735
  464POPC   C1B10495  42.695   2.903   8.802
  464POPC   C2B10496  42.876   2.915   8.387
  464POPC   C3B10497  42.874   2.764   7.950
  464POPC   C4B10498  42.584   2.817   7.614
  465POPC   NC310499   1.101  31.679   9.506
  465POPC   PO410500   1.457  31.167   9.527
  465POPC   GL110501   1.168  31.309   9.164
  465POPC   GL210502   0.946  31.645   9.031
  465POPC   C1A10503   1.244  31.371   8.736
  465POPC   D2A10504   1.039  31.456   8.386
  465POPC   C3A10505   1.315  31.282   8.106
  465POPC   C4A10506   1.430  31.312   7.672
  465POPC   C1B10507   0.739  31.309   8.787
  465POPC   C2B10508   0.549  31.286   8.386
  465POPC   C3B10509   0.823  31.158   8.033
  465POPC   C4B10510   1.006  31.547   7.814
  466POPC   NC310511   4.151   4.515   9.576
  466POPC   PO410512   4.287   3.884   9.626
  466POPC   GL110513   4.267   4.140   9.253
  466POPC   GL210514   4.510   4.429   9.195
  466POPC   C1A10515   4.308   4.114   8.813
  466POPC   D2A10516   4.615   4.015   8.475
  466POPC   C3A10517   4.535   4.263   8.085
  466POPC   C4A10518   4.171   4.307   7.820
  466POPC   C1B10519   4.647   4.719   8.863
  466POPC   C2B10520   4.749   4.662   8.420
  466POPC   C3B10521   4.808   4.722   7.980
  466POPC   C4B10522   4.567   4.597   7.602
  467POPC   NC310523   2.184  34.088   9.493
  467POPC   PO410524   1.644  33.616   9.603
  467POPC   GL110525   1.754  33.754   9.210
  467POPC   GL210526   2.042  33.547   9.159
  467POPC   C1A10527   1.983  33.971   8.869
  467POPC   D2A10528   2.199  33.992   8.444
  467POPC   C3A10529   2.089  33.835   8.010
  467POPC   C4A10530   1.685  33.921   7.779
  467POPC   C1B10531   1.813  33.520   8.749
  467POPC   C2B10532   1.930  33.512   8.372
  467POPC   C3B10533   1.744  33.465   7.983
  467POPC   C4B10534   1.860  33.521   7.540
  468POPC   NC310535  32.510  18.428   9.839
  468POPC   PO410536  33.075  18.451   9.515
  468POPC   GL110537  33.207  18.308   9.121
  468POPC   GL210538  33.271  17.944   9.131
  468POPC   C1A10539  33.257  18.290   8.685
  468POPC   D2A10540  33.151  18.027   8.388
  468POPC   C3A10541  33.167  18.233   8.002
  468POPC   C4A10542  33.065  18.602   7.765
  468POPC   C1B10543  32.920  17.946   8.846
  468POPC   C2B10544  32.631  18.045   8.522
  468POPC   C3B10545  32.733  17.978   8.097
  468POPC   C4B10546  32.757  18.155   7.679
  469POPC   NC310547  17.850  32.604   9.483
  469POPC   PO410548  17.456  32.037   9.597
  469POPC   GL110549  17.381  32.188   9.136
  469POPC   GL210550  17.652  32.321   9.101
  469POPC   C1A10551  17.358  32.453   8.728
  469POPC   D2A10552  17.573  32.211   8.416
  469POPC   C3A10553  17.451  32.020   8.045
  469POPC   C4A10554  17.545  32.249   7.667
  469POPC   C1B10555  17.856  32.450   8.788
  469POPC   C2B10556  17.939  32.558   8.402
  469POPC   C3B10557  17.663  32.592   8.063
  469POPC   C4B10558  17.913  32.621   7.695
  470POPC   NC310559   3.608  10.525   9.632
  470POPC   PO410560   2.992  10.715   9.466
  470POPC   GL110561   3.265  10.898   9.120
  470POPC   GL210562   3.622  10.762   9.146
  470POPC   C1A10563   3.276  10.786   8.676
  470POPC   D2A10564   3.336  10.411   8.415
  470POPC   C3A10565   3.392  10.552   8.004
  470POPC   C4A10566   3.417  10.406   7.564
  470POPC   C1B10567   3.737  10.557   8.733
  470POPC   C2B10568   3.846  10.413   8.293
  470POPC   C3B10569   3.864  10.497   7.831
  470POPC   C4B10570   3.879  10.365   7.367
  471POPC   NC310571  32.107  14.871   9.617
  471POPC   PO410572  31.965  15.520   9.653
  471POPC   GL110573  32.259  15.292   9.331
  471POPC   GL210574  32.087  15.038   9.126
  471POPC   C1A10575  32.617  15.163   9.035
  471POPC   D2A10576  32.619  14.967   8.602
  471POPC   C3A10577  32.565  15.054   8.142
  471POPC   C4A10578  32.605  15.338   7.768
  471POPC   C1B10579  32.216  15.258   8.754
  471POPC   C2B10580  32.121  15.385   8.344
  471POPC   C3B10581  32.132  15.205   7.940
  471POPC   C4B10582  32.056  15.532   7.656
  472POPC   NC310583  25.216   2.564   9.597
  472POPC   PO410584  25.841   2.905   9.551
  472POPC   GL110585  25.551   2.831   9.165
  472POPC   GL210586  25.193   2.738   9.130
  472POPC   C1A10587  25.442   2.874   8.693
  472POPC   D2A10588  25.599   2.705   8.246
  472POPC   C3A10589  25.357   2.880   7.889
  472POPC   C4A10590  25.052   3.039   7.598
  472POPC   C1B10591  25.453   2.395   8.928
  472POPC   C2B10592  25.326   2.388   8.511
  472POPC   C3B10593  25.222   2.362   8.071
  472POPC   C4B10594  25.011   2.539   7.706
  473POPC   NC310595   6.696  33.725   9.555
  473POPC   PO410596   6.143  33.987   9.522
  473POPC   GL110597   6.403  33.898   9.148
  473POPC   GL210598   6.304  33.561   9.126
  473POPC   C1A10599   6.567  34.038   8.716
  473POPC   D2A10600   6.523  33.894   8.261
  473POPC   C3A10601   6.596  33.950   7.797
  473POPC   C4A10602   6.820  33.732   7.474
  473POPC   C1B10603   6.221  33.492   8.678
  473POPC   C2B10604   6.358  33.417   8.258
  473POPC   C3B10605   6.503  33.458   7.828
  473POPC   C4B10606   6.346  33.552   7.407
  474POPC   NC310607  12.337   5.813   9.626
  474POPC   PO410608  11.900   6.294   9.580
  474POPC   GL110609  12.112   6.080   9.208
  474POPC   GL210610  12.451   6.074   9.173
  474POPC   C1A10611  12.099   5.865   8.771
  474POPC   D2A10612  11.897   5.762   8.347
  474POPC   C3A10613  12.103   5.857   7.944
  474POPC   C4A10614  11.947   6.085   7.575
  474POPC   C1B10615  12.444   6.247   8.790
  474POPC   C2B10616  12.230   6.193   8.393
  474POPC   C3B10617  12.501   6.145   8.040
  474POPC   C4B10618  12.609   6.370   7.710
  475POPC   NC310619   7.032   2.704   9.397
  475POPC   PO410620   6.495   2.967   9.587
  475POPC   GL110621   6.517   2.789   9.187
  475POPC   GL210622   6.256   3.031   9.118
  475POPC   C1A10623   6.762   2.617   8.792
  475POPC   D2A10624   6.927   2.720   8.377
  475POPC   C3A10625   6.724   2.556   8.019
  475POPC   C4A10626   6.585   2.616   7.607
  475POPC   C1B10627   6.480   3.068   8.723
  475POPC   C2B10628   6.458   2.944   8.285
  475POPC   C3B10629   6.568   3.094   7.882
  475POPC   C4B10630   6.620   3.104   7.422
  476POPC   NC310631   6.109  41.020   9.590
  476POPC   PO410632   5.819  40.392   9.490
  476POPC   GL110633   6.017  40.567   9.121
  476POPC   GL210634   5.662  40.604   9.020
  476POPC   C1A10635   6.050  40.769   8.663
  476POPC   D2A10636   5.770  40.856   8.310
  476POPC   C3A10637   5.978  40.897   7.887
  476POPC   C4A10638   6.061  40.887   7.409
  476POPC   C1B10639   5.807  40.332   8.708
  476POPC   C2B10640   5.953  40.375   8.289
  476POPC   C3B10641   5.626  40.484   7.966
  476POPC   C4B10642   5.640  40.643   7.525
  477POPC   NC310643  17.510  30.660   9.723
  477POPC   PO410644  18.035  30.411   9.533
  477POPC   GL110645  17.814  30.549   9.201
  477POPC   GL210646  17.725  30.890   9.194
  477POPC   C1A10647  17.754  30.450   8.789
  477POPC   D2A10648  17.789  30.254   8.395
  477POPC   C3A10649  17.563  30.426   8.091
  477POPC   C4A10650  17.650  30.583   7.724
  477POPC   C1B10651  17.509  30.903   8.771
  477POPC   C2B10652  17.523  30.876   8.331
  477POPC   C3B10653  17.307  30.880   7.944
  477POPC   C4B10654  17.165  31.198   7.708
  478POPC   NC310655  40.121  37.367   9.368
  478POPC   PO410656  39.786  36.832   9.560
  478POPC   GL110657  39.861  36.994   9.142
  478POPC   GL210658  40.209  36.895   9.122
  478POPC   C1A10659  39.995  37.002   8.677
  478POPC   D2A10660  40.342  36.727   8.523
  478POPC   C3A10661  40.260  36.649   8.076
  478POPC   C4A10662  39.917  36.908   7.871
  478POPC   C1B10663  40.442  37.159   8.794
  478POPC   C2B10664  40.355  37.216   8.344
  478POPC   C3B10665  40.442  37.115   7.903
  478POPC   C4B10666  40.322  36.824   7.575
  479POPC   NC310667  38.985  11.091   9.482
  479POPC   PO410668  39.659  11.126   9.260
  479POPC   GL110669  39.224  11.280   9.055
  479POPC   GL210670  38.817  11.280   9.034
  479POPC   C1A10671  39.096  11.546   8.692
  479POPC   D2A10672  39.072  11.750   8.282
  479POPC   C3A10673  39.215  11.457   7.945
  479POPC   C4A10674  39.374  11.182   7.597
  479POPC   C1B10675  38.917  10.882   8.845
  479POPC   C2B10676  38.950  10.782   8.409
  479POPC   C3B10677  39.037  10.968   8.018
  479POPC   C4B10678  38.846  11.174   7.662
  480POPC   NC310679  18.531   2.566   9.443
  480POPC   PO410680  17.844   2.712   9.410
  480POPC   GL110681  17.994   2.859   9.016
  480POPC   GL210682  18.346   2.829   9.021
  480POPC   C1A10683  17.780   2.996   8.667
  480POPC   D2A10684  17.608   2.835   8.302
  480POPC   C3A10685  17.958   2.629   8.114
  480POPC   C4A10686  18.221   2.757   7.803
  480POPC   C1B10687  18.247   2.812   8.561
  480POPC   C2B10688  18.501   2.898   8.200
  480POPC   C3B10689  18.734   2.672   7.865
  480POPC   C4B10690  18.650   2.270   7.619
  481POPC   NC310691  25.332  17.782   9.578
  481POPC   PO410692  25.098  17.186   9.584
  481POPC   GL110693  24.988  17.243   9.163
  481POPC   GL210694  25.092  17.553   9.199
  481POPC   C1A10695  25.166  17.232   8.750
  481POPC   D2A10696  25.178  17.410   8.379
  481POPC   C3A10697  25.501  17.257   8.133
  481POPC   C4A10698  25.285  17.281   7.744
  481POPC   C1B10699  25.334  17.729   8.887
  481POPC   C2B10700  25.420  17.845   8.474
  481POPC   C3B10701  25.515  17.758   8.081
  481POPC   C4B10702  25.524  17.854   7.677
  482POPC   NC310703  27.709  39.218   9.644
  482POPC   PO410704  28.126  39.500   9.198
  482POPC   GL110705  27.692  39.338   9.118
  482POPC   GL210706  27.697  38.969   9.180
  482POPC   C1A10707  27.484  39.137   8.756
  482POPC   D2A10708  27.616  39.208   8.337
  482POPC   C3A10709  27.258  39.245   8.080
  482POPC   C4A10710  27.282  39.097   7.678
  482POPC   C1B10711  27.976  38.998   8.786
  482POPC   C2B10712  28.181  39.061   8.382
  482POPC   C3B10713  28.102  38.958   7.963
  482POPC   C4B10714  27.771  39.228   7.773
  483POPC   NC310715  33.531  20.564   9.475
  483POPC   PO410716  34.051  21.002   9.354
  483POPC   GL110717  33.807  20.682   9.061
  483POPC   GL210718  33.841  20.320   9.099
  483POPC   C1A10719  33.636  20.498   8.653
  483POPC   D2A10720  33.651  20.276   8.256
  483POPC   C3A10721  33.742  20.613   7.989
  483POPC   C4A10722  33.530  20.790   7.679
  483POPC   C1B10723  34.059  20.235   8.722
  483POPC   C2B10724  34.156  20.395   8.332
  483POPC   C3B10725  34.119  20.301   7.924
  483POPC   C4B10726  34.032  20.551   7.558
  484POPC   NC310727   1.589  43.345   9.392
  484POPC   PO410728   0.973  43.029   9.590
  484POPC   GL110729   1.151  43.068   9.219
  484POPC   GL210730   1.136  42.728   9.178
  484POPC   C1A10731   1.307  43.039   8.817
  484POPC   D2A10732   1.243  43.351   8.498
  484POPC   C3A10733   1.519  43.433   8.150
  484POPC   C4A10734   1.357  43.374   7.715
  484POPC   C1B10735   0.861  42.672   8.796
  484POPC   C2B10736   1.047  42.844   8.433
  484POPC   C3B10737   1.203  43.031   8.064
  484POPC   C4B10738   1.111  42.917   7.628
  485POPC   NC310739  11.551  18.747   9.914
  485POPC   PO410740  11.153  19.055   9.432
  485POPC   GL110741  11.476  19.134   9.116
  485POPC   GL210742  11.303  19.404   8.960
  485POPC   C1A10743  11.610  19.042   8.720
  485POPC   D2A10744  11.401  18.862   8.375
  485POPC   C3A10745  11.566  19.045   7.989
  485POPC   C4A10746  11.400  19.112   7.597
  485POPC   C1B10747  11.058  19.117   8.716
  485POPC   C2B10748  10.897  19.053   8.308
  485POPC   C3B10749  11.083  18.896   7.962
  485POPC   C4B10750  11.168  18.550   7.756
  486POPC   NC310751  26.794  32.280   9.818
  486POPC   PO410752  26.828  32.504   9.212
  486POPC   GL110753  26.666  32.387   8.919
  486POPC   GL210754  26.785  32.076   8.921
  486POPC   C1A10755  26.659  32.535   8.542
  486POPC   D2A10756  26.382  32.451   8.246
  486POPC   C3A10757  26.602  32.171   8.011
  486POPC   C4A10758  26.777  32.398   7.672
  486POPC   C1B10759  27.080  32.232   8.623
  486POPC   C2B10760  27.102  32.334   8.214
  486POPC   C3B10761  27.149  32.081   7.881
  486POPC   C4B10762  26.931  31.902   7.555
  487POPC   NC310763  36.940  30.517   9.502
  487POPC   PO410764  36.391  30.941   9.502
  487POPC   GL110765  36.656  30.770   9.172
  487POPC   GL210766  37.005  30.846   9.070
  487POPC   C1A10767  36.662  30.526   8.810
  487POPC   D2A10768  36.929  30.662   8.483
  487POPC   C3A10769  36.874  30.746   8.035
  487POPC   C4A10770  37.117  30.916   7.713
  487POPC   C1B10771  37.183  30.455   8.881
  487POPC   C2B10772  37.307  30.307   8.467
  487POPC   C3B10773  37.136  30.320   8.102
  487POPC   C4B10774  37.205  30.259   7.714
  488POPC   NC310775  41.093  39.081   9.520
  488POPC   PO410776  40.581  39.473   9.604
  488POPC   GL110777  40.837  39.446   9.225
  488POPC   GL210778  40.807  39.083   9.097
  488POPC   C1A10779  40.915  39.463   8.760
  488POPC   D2A10780  40.856  39.408   8.331
  488POPC   C3A10781  41.134  39.490   8.024
  488POPC   C4A10782  41.162  39.326   7.612
  488POPC   C1B10783  40.977  38.930   8.708
  488POPC   C2B10784  41.004  38.914   8.247
  488POPC   C3B10785  40.762  39.105   7.906
  488POPC   C4B10786  40.398  38.939   7.696
  489POPC   NC310787  24.001  32.817   9.852
  489POPC   PO410788  23.440  32.791   9.515
  489POPC   GL110789  23.470  32.977   9.084
  489POPC   GL210790  23.795  33.133   9.101
  489POPC   C1A10791  23.413  33.236   8.688
  489POPC   D2A10792  23.348  33.320   8.260
  489POPC   C3A10793  23.436  32.932   8.054
  489POPC   C4A10794  23.443  32.893   7.625
  489POPC   C1B10795  23.837  32.953   8.720
  489POPC   C2B10796  23.854  33.174   8.339
  489POPC   C3B10797  23.860  33.155   7.906
  489POPC   C4B10798  23.951  32.804   7.661
  490POPC   NC310799  33.612  34.730   9.461
  490POPC   PO410800  34.077  34.373   9.438
  490POPC   GL110801  33.952  34.570   9.069
  490POPC   GL210802  34.015  34.912   8.986
  490POPC   C1A10803  33.539  34.584   8.846
  490POPC   D2A10804  33.371  34.741   8.501
  490POPC   C3A10805  33.470  34.536   8.136
  490POPC   C4A10806  33.409  34.509   7.710
  490POPC   C1B10807  33.939  34.748   8.573
  490POPC   C2B10808  33.959  34.658   8.162
  490POPC   C3B10809  33.898  34.570   7.760
  490POPC   C4B10810  33.970  34.837   7.375
  491POPC   NC310811  11.702  15.697   9.314
  491POPC   PO410812  12.252  15.966   9.533
  491POPC   GL110813  12.125  15.963   9.129
  491POPC   GL210814  12.197  15.658   9.074
  491POPC   C1A10815  12.090  15.963   8.684
  491POPC   D2A10816  12.332  16.261   8.457
  491POPC   C3A10817  12.331  16.174   8.030
  491POPC   C4A10818  12.130  15.917   7.725
  491POPC   C1B10819  12.329  15.477   8.752
  491POPC   C2B10820  12.152  15.322   8.428
  491POPC   C3B10821  12.142  15.523   8.076
  491POPC   C4B10822  12.219  15.417   7.696
  492POPC   NC310823  38.227  39.773   9.571
  492POPC   PO410824  38.546  40.335   9.563
  492POPC   GL110825  38.327  40.203   9.199
  492POPC   GL210826  38.513  39.907   9.174
  492POPC   C1A10827  38.143  40.070   8.803
  492POPC   D2A10828  38.107  39.843   8.413
  492POPC   C3A10829  38.308  40.012   8.062
  492POPC   C4A10830  38.446  39.995   7.655
  492POPC   C1B10831  38.651  40.022   8.756
  492POPC   C2B10832  38.676  40.212   8.346
  492POPC   C3B10833  38.802  40.318   7.901
  492POPC   C4B10834  38.963  40.142   7.504
  493POPC   NC310835  23.414  29.779   9.532
  493POPC   PO410836  22.867  29.539   9.371
  493POPC   GL110837  22.833  29.248   9.092
  493POPC   GL210838  23.039  29.029   9.234
  493POPC   C1A10839  22.726  28.915   8.816
  493POPC   D2A10840  22.629  28.667   8.450
  493POPC   C3A10841  22.657  28.870   8.059
  493POPC   C4A10842  22.397  29.020   7.730
  493POPC   C1B10843  23.225  29.090   8.806
  493POPC   C2B10844  23.070  28.970   8.419
  493POPC   C3B10845  23.064  29.190   8.095
  493POPC   C4B10846  22.977  29.161   7.715
  494POPC   NC310847  40.394  21.533   9.519
  494POPC   PO410848  39.777  21.609   9.590
  494POPC   GL110849  39.982  21.669   9.178
  494POPC   GL210850  40.023  21.343   9.009
  494POPC   C1A10851  40.177  21.735   8.735
  494POPC   D2A10852  40.098  21.455   8.413
  494POPC   C3A10853  40.005  21.498   8.026
  494POPC   C4A10854  40.071  21.800   7.780
  494POPC   C1B10855  40.325  21.122   8.715
  494POPC   C2B10856  40.284  20.995   8.258
  494POPC   C3B10857  40.055  21.028   7.829
  494POPC   C4B10858  39.917  21.024   7.361
  495POPC   NC310859   7.761  44.720   9.489
  495POPC   PO410860   7.267  44.213   9.621
  495POPC   GL110861   7.389  44.465   9.262
  495POPC   GL210862   7.702  44.263   9.280
  495POPC   C1A10863   7.390  44.727   8.828
  495POPC   D2A10864   7.217  44.780   8.380
  495POPC   C3A10865   7.356  44.941   7.954
  495POPC   C4A10866   7.228  44.836   7.528
  495POPC   C1B10867   7.593  44.259   8.859
  495POPC   C2B10868   7.394  44.312   8.475
  495POPC   C3B10869   7.503  44.471   8.093
  495POPC   C4B10870   7.808  44.599   7.775
  496POPC   NC310871  10.866  24.975   9.326
  496POPC   PO410872  10.494  24.527   9.708
  496POPC   GL110873  10.464  24.552   9.249
  496POPC   GL210874  10.409  24.873   9.102
  496POPC   C1A10875  10.500  24.389   8.811
  496POPC   D2A10876  10.744  24.184   8.464
  496POPC   C3A10877  10.696  24.349   8.067
  496POPC   C4A10878  10.333  24.247   7.814
  496POPC   C1B10879  10.528  24.888   8.660
  496POPC   C2B10880  10.727  24.852   8.242
  496POPC   C3B10881  10.472  24.762   7.872
  496POPC   C4B10882  10.029  24.849   7.819
  497POPC   NC310883  30.473  14.896   9.495
  497POPC   PO410884  31.084  15.134   9.444
  497POPC   GL110885  30.750  15.121   9.102
  497POPC   GL210886  30.518  15.416   9.013
  497POPC   C1A10887  30.716  15.140   8.640
  497POPC   D2A10888  30.603  15.504   8.395
  497POPC   C3A10889  30.774  15.544   8.001
  497POPC   C4A10890  30.780  15.192   7.747
  497POPC   C1B10891  30.261  15.042   8.856
  497POPC   C2B10892  30.291  14.816   8.449
  497POPC   C3B10893  30.337  15.042   8.013
  497POPC   C4B10894  30.317  15.436   7.732
  498POPC   NC310895  12.923   7.919   9.387
  498POPC   PO410896  12.689   8.536   9.441
  498POPC   GL110897  12.778   8.344   9.071
  498POPC   GL210898  13.126   8.329   9.158
  498POPC   C1A10899  12.952   8.060   8.749
  498POPC   D2A10900  13.147   8.019   8.352
  498POPC   C3A10901  12.869   8.076   8.027
  498POPC   C4A10902  12.723   7.979   7.656
  498POPC   C1B10903  13.173   8.651   8.836
  498POPC   C2B10904  13.080   8.730   8.428
  498POPC   C3B10905  13.116   8.508   8.049
  498POPC   C4B10906  12.887   8.461   7.664
  499POPC   NC310907   7.392  38.218   9.531
  499POPC   PO410908   7.558  38.828   9.451
  499POPC   GL110909   7.214  38.617   9.211
  499POPC   GL210910   7.146  38.242   9.107
  499POPC   C1A10911   7.215  38.674   8.783
  499POPC   D2A10912   7.496  38.594   8.464
  499POPC   C3A10913   7.382  38.470   8.090
  499POPC   C4A10914   7.113  38.767   7.887
  499POPC   C1B10915   7.363  38.178   8.739
  499POPC   C2B10916   7.226  37.994   8.358
  499POPC   C3B10917   7.190  38.036   7.926
  499POPC   C4B10918   7.185  38.352   7.606
  500POPC   NC310919   3.715  39.304   9.495
  500POPC   PO410920   3.154  39.510   9.303
  500POPC   GL110921   3.391  39.362   8.990
  500POPC   GL210922   3.456  39.046   9.146
  500POPC   C1A10923   3.777  39.262   8.769
  500POPC   D2A10924   3.823  39.054   8.373
  500POPC   C3A10925   3.652  39.252   8.036
  500POPC   C4A10926   3.704  39.383   7.637
  500POPC   C1B10927   3.400  38.886   8.738
  500POPC   C2B10928   3.295  39.055   8.352
  500POPC   C3B10929   3.272  38.889   7.981
  500POPC   C4B10930   3.251  38.953   7.554
  501POPC   NC310931  38.904  40.024   9.551
  501POPC   PO410932  39.469  39.998   9.233
  501POPC   GL110933  39.127  40.235   9.098
  501POPC   GL210934  39.009  39.894   9.075
  501POPC   C1A10935  39.085  40.371   8.670
  501POPC   D2A10936  39.164  40.118   8.296
  501POPC   C3A10937  39.307  40.193   7.895
  501POPC   C4A10938  39.463  39.979   7.493
  501POPC   C1B10939  39.108  39.780   8.678
  501POPC   C2B10940  38.790  39.705   8.373
  501POPC   C3B10941  38.829  39.818   7.967
  501POPC   C4B10942  39.116  39.674   7.682
  502POPC   NC310943  40.632  40.715   9.539
  502POPC   PO410944  41.135  40.206   9.571
  502POPC   GL110945  41.003  40.530   9.193
  502POPC   GL210946  40.615  40.491   9.080
  502POPC   C1A10947  40.910  40.715   8.732
  502POPC   D2A10948  40.548  40.657   8.443
  502POPC   C3A10949  40.726  40.674   8.047
  502POPC   C4A10950  41.135  40.844   7.960
  502POPC   C1B10951  40.536  40.975   8.951
  502POPC   C2B10952  40.554  41.171   8.538
  502POPC   C3B10953  40.420  41.090   8.120
  502POPC   C4B10954  40.408  41.406   7.761
  503POPC   NC310955  29.058  18.649   9.546
  503POPC   PO410956  28.965  17.970   9.517
  503POPC   GL110957  28.935  18.251   9.192
  503POPC   GL210958  29.261  18.329   9.190
  503POPC   C1A10959  28.951  18.167   8.761
  503POPC   D2A10960  29.168  18.115   8.354
  503POPC   C3A10961  28.888  18.185   8.028
  503POPC   C4A10962  28.890  17.955   7.641
  503POPC   C1B10963  29.444  18.281   8.784
  503POPC   C2B10964  29.482  18.532   8.421
  503POPC   C3B10965  29.306  18.508   8.022
  503POPC   C4B10966  29.318  18.201   7.724
  504POPC   NC310967  23.185   8.139   9.448
  504POPC   PO410968  22.589   8.488   9.397
  504POPC   GL110969  22.835   8.216   9.082
  504POPC   GL210970  22.745   7.862   9.007
  504POPC   C1A10971  23.001   8.160   8.664
  504POPC   D2A10972  22.919   8.400   8.279
  504POPC   C3A10973  23.055   8.173   7.951
  504POPC   C4A10974  23.258   7.873   7.746
  504POPC   C1B10975  22.609   7.843   8.579
  504POPC   C2B10976  22.579   7.989   8.124
  504POPC   C3B10977  22.731   7.925   7.660
  504POPC   C4B10978  22.654   7.779   7.224
  505POPC   NC310979  38.047  32.060   9.482
  505POPC   PO410980  37.571  32.556   9.502
  505POPC   GL110981  37.761  32.328   9.168
  505POPC   GL210982  37.548  32.058   9.133
  505POPC   C1A10983  38.009  32.285   8.769
  505POPC   D2A10984  38.157  32.466   8.342
  505POPC   C3A10985  37.851  32.433   8.014
  505POPC   C4A10986  37.786  32.061   7.816
  505POPC   C1B10987  37.492  32.340   8.751
  505POPC   C2B10988  37.451  32.201   8.332
  505POPC   C3B10989  37.464  31.820   8.112
  505POPC   C4B10990  37.390  31.741   7.689
  506POPC   NC310991  14.788  12.640   9.917
  506POPC   PO410992  14.555  13.159   9.590
  506POPC   GL110993  14.247  12.935   9.303
  506POPC   GL210994  14.411  13.142   9.092
  506POPC   C1A10995  14.284  12.655   8.920
  506POPC   D2A10996  14.161  12.480   8.560
  506POPC   C3A10997  14.502  12.399   8.244
  506POPC   C4A10998  14.431  12.398   7.781
  506POPC   C1B10999  14.322  13.136   8.711
  506POPC   C2B11000  14.379  12.903   8.398
  506POPC   C3B11001  14.176  12.768   8.098
  506POPC   C4B11002  14.223  12.884   7.701
  507POPC   NC311003  38.533  44.905   9.562
  507POPC   PO411004  38.577  44.231   9.522
  507POPC   GL111005  38.579  44.551   9.186
  507POPC   GL211006  38.856  44.846   9.190
  507POPC   C1A11007  38.359  44.460   8.799
  507POPC   D2A11008  38.093  44.336   8.472
  507POPC   C3A11009  38.255  44.467   8.086
  507POPC   C4A11010  38.155  44.575   7.695
  507POPC   C1B11011  38.847  44.665   8.767
  507POPC   C2B11012  38.598  44.706   8.400
  507POPC   C3B11013  38.746  44.821   8.007
  507POPC   C4B11014  38.666  44.769   7.585
  508POPC   NC311015   2.869   7.492   9.513
  508POPC   PO411016   2.772   6.816   9.564
  508POPC   GL111017   2.739   7.093   9.141
  508POPC   GL211018   2.993   7.385   9.046
  508POPC   C1A11019   2.638   7.286   8.700
  508POPC   D2A11020   2.626   7.651   8.400
  508POPC   C3A11021   2.690   7.489   7.980
  508POPC   C4A11022   2.920   7.172   7.787
  508POPC   C1B11023   3.113   7.566   8.640
  508POPC   C2B11024   3.094   7.729   8.196
  508POPC   C3B11025   3.289   7.542   7.813
  508POPC   C4B11026   3.368   7.789   7.417
  509POPC   NC311027   8.053  14.243   9.666
  509POPC   PO411028   8.306  14.783   9.380
  509POPC   GL111029   8.149  14.443   9.195
  509POPC   GL211030   8.390  14.197   9.170
  509POPC   C1A11031   8.021  14.331   8.789
  509POPC   D2A11032   7.818  14.379   8.386
  509POPC   C3A11033   7.970  14.222   7.972
  509POPC   C4A11034   7.905  14.471   7.575
  509POPC   C1B11035   8.509  14.460   8.804
  509POPC   C2B11036   8.356  14.415   8.376
  509POPC   C3B11037   8.521  14.154   8.046
  509POPC   C4B11038   8.342  14.080   7.645
  510POPC   NC311039  39.532  41.808   9.491
  510POPC   PO411040  40.064  41.405   9.608
  510POPC   GL111041  40.100  41.485   9.202
  510POPC   GL211042  39.747  41.535   9.090
  510POPC   C1A11043  40.124  41.294   8.814
  510POPC   D2A11044  40.001  41.509   8.467
  510POPC   C3A11045  39.985  41.321   8.084
  510POPC   C4A11046  39.902  41.467   7.684
  510POPC   C1B11047  40.013  41.863   8.864
  510POPC   C2B11048  40.134  42.001   8.450
  510POPC   C3B11049  39.983  41.853   8.072
  510POPC   C4B11050  39.957  41.967   7.664
  511POPC   NC311051  31.691  26.665   9.511
  511POPC   PO411052  31.169  27.027   9.600
  511POPC   GL111053  31.340  26.956   9.189
  511POPC   GL211054  31.313  26.607   9.170
  511POPC   C1A11055  31.652  26.844   8.839
  511POPC   D2A11056  31.794  27.066   8.473
  511POPC   C3A11057  31.796  26.785   8.119
  511POPC   C4A11058  31.768  26.602   7.731
  511POPC   C1B11059  31.166  26.705   8.752
  511POPC   C2B11060  31.279  26.834   8.311
  511POPC   C3B11061  31.292  26.759   7.837
  511POPC   C4B11062  31.285  26.815   7.351
  512POPC   NC311063   7.010  12.306   9.300
  512POPC   PO411064   7.382  11.842   9.687
  512POPC   GL111065   7.469  11.943   9.219
  512POPC   GL211066   7.729  12.241   9.163
  512POPC   C1A11067   7.560  11.986   8.754
  512POPC   D2A11068   7.265  12.233   8.489
  512POPC   C3A11069   7.136  12.017   8.120
  512POPC   C4A11070   7.438  11.958   7.784
  512POPC   C1B11071   7.899  12.422   8.812
  512POPC   C2B11072   7.711  12.532   8.447
  512POPC   C3B11073   7.749  12.267   8.088
  512POPC   C4B11074   7.875  12.216   7.643
  513POPC   NC311075   6.043  30.427   9.456
  513POPC   PO411076   5.572  30.869   9.472
  513POPC   GL111077   5.812  30.775   9.094
  513POPC   GL211078   6.090  31.004   9.004
  513POPC   C1A11079   5.662  30.574   8.702
  513POPC   D2A11080   5.482  30.616   8.283
  513POPC   C3A11081   5.776  30.634   7.961
  513POPC   C4A11082   6.155  30.547   7.675
  513POPC   C1B11083   6.147  30.768   8.629
  513POPC   C2B11084   6.220  30.739   8.170
  513POPC   C3B11085   6.245  31.005   7.816
  513POPC   C4B11086   6.143  31.301   7.522
  514POPC   NC311087  25.718  28.532   9.273
  514POPC   PO411088  26.263  28.928   9.410
  514POPC   GL111089  26.166  28.654   9.075
  514POPC   GL211090  25.867  28.763   8.857
  514POPC   C1A11091  26.123  28.352   8.732
  514POPC   D2A11092  25.987  28.587   8.388
  514POPC   C3A11093  25.984  28.434   8.010
  514POPC   C4A11094  26.183  28.223   7.709
  514POPC   C1B11095  25.599  28.424   8.666
  514POPC   C2B11096  25.391  28.369   8.314
  514POPC   C3B11097  25.496  28.644   8.012
  514POPC   C4B11098  25.737  28.739   7.681
  515POPC   NC311099  23.707  25.646   9.430
  515POPC   PO411100  23.537  25.139   9.551
  515POPC   GL111101  23.665  25.229   9.135
  515POPC   GL211102  23.408  25.470   9.053
  515POPC   C1A11103  23.760  25.281   8.691
  515POPC   D2A11104  23.977  25.257   8.284
  515POPC   C3A11105  23.798  24.946   8.003
  515POPC   C4A11106  23.405  24.973   7.753
  515POPC   C1B11107  23.285  25.471   8.620
  515POPC   C2B11108  23.460  25.286   8.240
  515POPC   C3B11109  23.659  25.419   7.852
  515POPC   C4B11110  23.437  25.493   7.455
  516POPC   NC311111  27.577  17.960   9.777
  516POPC   PO411112  27.800  18.480   9.365
  516POPC   GL111113  27.566  18.310   9.092
  516POPC   GL211114  27.279  18.475   9.138
  516POPC   C1A11115  27.756  18.174   8.722
  516POPC   D2A11116  28.001  18.341   8.423
  516POPC   C3A11117  27.835  18.263   8.009
  516POPC   C4A11118  27.551  18.501   7.725
  516POPC   C1B11119  27.292  18.409   8.692
  516POPC   C2B11120  27.405  18.201   8.321
  516POPC   C3B11121  27.170  18.244   7.977
  516POPC   C4B11122  27.124  17.981   7.656
  517POPC   NC311123  21.825  12.627   9.566
  517POPC   PO411124  22.438  12.879   9.596
  517POPC   GL111125  22.173  12.953   9.235
  517POPC   GL211126  21.841  12.942   9.126
  517POPC   C1A11127  22.237  12.962   8.805
  517POPC   D2A11128  22.142  12.837   8.395
  517POPC   C3A11129  22.094  13.144   8.077
  517POPC   C4A11130  22.307  13.160   7.714
  517POPC   C1B11131  21.724  12.822   8.708
  517POPC   C2B11132  21.636  13.006   8.312
  517POPC   C3B11133  21.800  12.708   8.036
  517POPC   C4B11134  21.984  12.761   7.696
  518POPC   NC311135   0.581  31.906   9.350
  518POPC   PO411136   0.006  32.139   9.371
  518POPC   GL111137   0.291  32.370   9.083
  518POPC   GL211138   0.684  32.361   9.092
  518POPC   C1A11139   0.351  32.237   8.667
  518POPC   D2A11140   0.188  31.962   8.357
  518POPC   C3A11141   0.335  32.109   7.988
  518POPC   C4A11142   0.547  32.008   7.641
  518POPC   C1B11143   0.858  32.332   8.673
  518POPC   C2B11144   0.711  32.385   8.248
  518POPC   C3B11145   0.647  32.484   7.801
  518POPC   C4B11146   0.795  32.334   7.343
  519POPC   NC311147  27.095  15.452   9.590
  519POPC   PO411148  26.861  16.132   9.535
  519POPC   GL111149  26.683  15.926   9.202
  519POPC   GL211150  26.655  15.585   9.316
  519POPC   C1A11151  26.798  15.983   8.799
  519POPC   D2A11152  27.001  15.834   8.447
  519POPC   C3A11153  26.807  15.993   8.085
  519POPC   C4A11154  26.953  16.146   7.699
  519POPC   C1B11155  26.756  15.495   8.871
  519POPC   C2B11156  26.532  15.624   8.487
  519POPC   C3B11157  26.334  15.772   8.096
  519POPC   C4B11158  26.516  15.806   7.669
  520POPC   NC311159  10.072  21.547   9.539
  520POPC   PO411160   9.302  21.613   9.469
  520POPC   GL111161   9.558  21.287   9.215
  520POPC   GL211162   9.925  21.314   9.096
  520POPC   C1A11163   9.452  21.181   8.781
  520POPC   D2A11164   9.532  21.305   8.325
  520POPC   C3A11165   9.354  21.196   7.936
  520POPC   C4A11166   9.547  21.378   7.579
  520POPC   C1B11167   9.917  21.357   8.657
  520POPC   C2B11168   9.998  21.111   8.279
  520POPC   C3B11169   9.933  21.304   7.897
  520POPC   C4B11170   9.907  21.764   7.791
  521POPC   NC311171  23.809   4.197   9.680
  521POPC   PO411172  23.264   4.502   9.584
  521POPC   GL111173  23.572   4.508   9.258
  521POPC   GL211174  23.789   4.231   9.190
  521POPC   C1A11175  23.681   4.567   8.821
  521POPC   D2A11176  23.796   4.705   8.383
  521POPC   C3A11177  23.756   4.361   8.105
  521POPC   C4A11178  23.532   4.348   7.740
  521POPC   C1B11179  23.563   4.057   8.883
  521POPC   C2B11180  23.572   3.873   8.503
  521POPC   C3B11181  23.382   3.962   8.124
  521POPC   C4B11182  23.501   3.833   7.735
  522POPC   NC311183   9.276  38.831   9.594
  522POPC   PO411184   8.764  39.229   9.430
  522POPC   GL111185   9.001  39.480   9.150
  522POPC   GL211186   8.858  39.779   9.064
  522POPC   C1A11187   8.976  39.423   8.714
  522POPC   D2A11188   9.052  39.185   8.354
  522POPC   C3A11189   8.979  39.367   7.992
  522POPC   C4A11190   9.156  39.425   7.619
  522POPC   C1B11191   8.624  39.790   8.712
  522POPC   C2B11192   8.593  39.518   8.372
  522POPC   C3B11193   8.677  39.764   8.050
  522POPC   C4B11194   8.779  39.755   7.672
  523POPC   NC311195  30.977  16.357   9.443
  523POPC   PO411196  30.578  16.939   9.408
  523POPC   GL111197  30.614  16.987   9.043
  523POPC   GL211198  30.959  16.914   8.994
  523POPC   C1A11199  30.381  16.840   8.744
  523POPC   D2A11200  30.465  16.495   8.509
  523POPC   C3A11201  30.571  16.677   8.142
  523POPC   C4A11202  30.318  16.823   7.816
  523POPC   C1B11203  30.896  16.546   8.795
  523POPC   C2B11204  30.960  16.376   8.386
  523POPC   C3B11205  31.039  16.527   7.969
  523POPC   C4B11206  30.695  16.452   7.688
  524POPC   NC311207   9.348  19.906   9.392
  524POPC   PO411208   8.781  19.533   9.386
  524POPC   GL111209   8.979  19.777   9.087
  524POPC   GL211210   8.875  19.578   8.868
  524POPC   C1A11211   9.105  20.019   8.710
  524POPC   D2A11212   8.859  19.883   8.399
  524POPC   C3A11213   8.969  19.964   8.008
  524POPC   C4A11214   8.725  19.826   7.654
  524POPC   C1B11215   9.289  19.555   8.744
  524POPC   C2B11216   9.403  19.752   8.339
  524POPC   C3B11217   9.435  19.734   7.919
  524POPC   C4B11218   9.247  19.745   7.565
  525POPC   NC311219  22.839  26.725   9.761
  525POPC   PO411220  22.934  26.024   9.577
  525POPC   GL111221  22.875  26.339   9.222
  525POPC   GL211222  23.169  26.466   9.084
  525POPC   C1A11223  22.822  26.207   8.766
  525POPC   D2A11224  23.030  25.954   8.416
  525POPC   C3A11225  22.929  26.077   7.975
  525POPC   C4A11226  22.908  26.170   7.521
  525POPC   C1B11227  23.321  26.291   8.679
  525POPC   C2B11228  23.399  26.246   8.203
  525POPC   C3B11229  23.240  26.467   7.816
  525POPC   C4B11230  23.344  26.428   7.340
  526POPC   NC311231  31.328  31.965   9.479
  526POPC   PO411232  31.087  32.616   9.492
  526POPC   GL111233  31.385  32.409   9.155
  526POPC   GL211234  31.573  32.070   9.065
  526POPC   C1A11235  31.387  32.360   8.691
  526POPC   D2A11236  31.190  32.447   8.294
  526POPC   C3A11237  31.456  32.330   7.938
  526POPC   C4A11238  31.460  31.920   7.772
  526POPC   C1B11239  31.839  32.097   8.762
  526POPC   C2B11240  31.692  32.092   8.344
  526POPC   C3B11241  31.920  31.989   7.988
  526POPC   C4B11242  31.942  31.904   7.557
  527POPC   NC311243  18.519  34.797   9.611
  527POPC   PO411244  18.247  34.166   9.488
  527POPC   GL111245  18.358  34.487   9.215
  527POPC   GL211246  18.130  34.773   9.192
  527POPC   C1A11247  18.308  34.490   8.791
  527POPC   D2A11248  18.253  34.602   8.376
  527POPC   C3A11249  18.453  34.323   8.132
  527POPC   C4A11250  18.480  34.354   7.704
  527POPC   C1B11251  17.950  34.850   8.774
  527POPC   C2B11252  17.766  34.768   8.369
  527POPC   C3B11253  17.923  34.793   7.951
  527POPC   C4B11254  17.987  34.380   7.838
  528POPC   NC311255  14.686  31.589   9.388
  528POPC   PO411256  14.082  31.388   9.630
  528POPC   GL111257  14.252  31.366   9.229
  528POPC   GL211258  14.224  31.742   9.236
  528POPC   C1A11259  14.426  31.464   8.814
  528POPC   D2A11260  14.472  31.240   8.432
  528POPC   C3A11261  14.281  31.362   8.062
  528POPC   C4A11262  14.075  31.152   7.739
  528POPC   C1B11263  14.068  31.858   8.841
  528POPC   C2B11264  14.136  31.688   8.431
  528POPC   C3B11265  14.016  31.831   8.010
  528POPC   C4B11266  14.111  31.639   7.625
  529POPC   NC311267  44.276   3.923   9.341
  529POPC   PO411268  44.799   3.518   9.552
  529POPC   GL111269  44.580   3.546   9.149
  529POPC   GL211270  44.370   3.256   9.083
  529POPC   C1A11271  44.629   3.761   8.751
  529POPC   D2A11272  44.787   3.673   8.329
  529POPC   C3A11273  44.692   3.730   7.886
  529POPC   C4A11274  44.655   3.814   7.403
  529POPC   C1B11275  44.616   3.260   8.661
  529POPC   C2B11276   0.006   3.206   8.396
  529POPC   C3B11277   0.127   3.310   7.962
  529POPC   C4B11278  44.831   3.335   7.595
  530POPC   NC311279  37.231   4.557   9.473
  530POPC   PO411280  36.830   4.065   9.675
  530POPC   GL111281  36.882   4.237   9.251
  530POPC   GL211282  36.824   4.608   9.181
  530POPC   C1A11283  36.819   4.267   8.803
  530POPC   D2A11284  36.727   4.326   8.361
  530POPC   C3A11285  37.058   4.225   8.088
  530POPC   C4A11286  36.908   4.111   7.715
  530POPC   C1B11287  37.010   4.761   8.739
  530POPC   C2B11288  37.031   4.723   8.301
  530POPC   C3B11289  37.156   4.699   7.890
  530POPC   C4B11290  37.093   4.515   7.464
  531POPC   NC311291  14.143  30.163   9.457
  531POPC   PO411292  13.514  29.873   9.211
  531POPC   GL111293  13.762  30.162   8.972
  531POPC   GL211294  14.057  29.977   8.988
  531POPC   C1A11295  13.640  30.032   8.570
  531POPC   D2A11296  13.464  29.695   8.286
  531POPC   C3A11297  13.490  29.929   7.917
  531POPC   C4A11298  13.801  30.181   7.763
  531POPC   C1B11299  14.146  29.823   8.587
  531POPC   C2B11300  13.938  29.903   8.193
  531POPC   C3B11301  13.900  29.627   7.884
  531POPC   C4B11302  14.147  29.599   7.549
  532POPC   NC311303   7.065   0.344   9.541
  532POPC   PO411304   6.395   0.171   9.357
  532POPC   GL111305   6.764   0.294   9.127
  532POPC   GL211306   6.980  44.982   9.099
  532POPC   C1A11307   6.740   0.628   8.827
  532POPC   D2A11308   6.735   0.469   8.421
  532POPC   C3A11309   6.407   0.512   8.127
  532POPC   C4A11310   6.626   0.614   7.767
  532POPC   C1B11311   6.862   0.029   8.648
  532POPC   C2B11312   6.847   0.051   8.151
  532POPC   C3B11313   6.972   0.233   7.738
  532POPC   C4B11314   7.086   0.247   7.262
  533POPC   NC311315  33.810   8.515   9.524
  533POPC   PO411316  34.294   8.102   9.726
  533POPC   GL111317  33.980   8.137   9.245
  533POPC   GL211318  33.697   8.346   9.052
  533POPC   C1A11319  33.940   7.989   8.799
  533POPC   D2A11320  33.913   8.322   8.460
  533POPC   C3A11321  33.687   8.398   8.067
  533POPC   C4A11322  33.887   8.282   7.710
  533POPC   C1B11323  33.449   8.049   8.781
  533POPC   C2B11324  33.575   7.929   8.406
  533POPC   C3B11325  33.693   7.907   8.004
  533POPC   C4B11326  33.423   8.090   7.691
  534POPC   NC311327   9.873  19.093   9.737
  534POPC   PO411328   9.766  19.710   9.396
  534POPC   GL111329   9.737  19.981   9.037
  534POPC   GL211330   9.473  20.243   8.989
  534POPC   C1A11331   9.760  19.719   8.689
  534POPC   D2A11332   9.953  19.648   8.313
  534POPC   C3A11333   9.860  19.956   8.044
  534POPC   C4A11334  10.089  20.265   7.748
  534POPC   C1B11335   9.590  20.195   8.552
  534POPC   C2B11336   9.385  20.268   8.151
  534POPC   C3B11337   9.537  20.211   7.742
  534POPC   C4B11338   9.770  19.886   7.543
  535POPC   NC311339  37.649  12.171   9.362
  535POPC   PO411340  37.930  11.654   9.741
  535POPC   GL111341  38.063  11.950   9.210
  535POPC   GL211342  38.157  12.248   9.096
  535POPC   C1A11343  37.734  11.893   8.739
  535POPC   D2A11344  37.361  11.891   8.427
  535POPC   C3A11345  37.589  11.850   8.038
  535POPC   C4A11346  37.832  11.871   7.686
  535POPC   C1B11347  37.885  12.360   8.760
  535POPC   C2B11348  37.673  12.278   8.384
  535POPC   C3B11349  37.879  12.265   8.008
  535POPC   C4B11350  37.713  12.381   7.625
  536POPC   NC311351  27.819  19.655   9.657
  536POPC   PO411352  27.249  19.314   9.409
  536POPC   GL111353  27.487  19.620   9.232
  536POPC   GL211354  27.218  19.718   9.020
  536POPC   C1A11355  27.711  19.643   8.842
  536POPC   D2A11356  27.591  19.667   8.395
  536POPC   C3A11357  27.854  19.721   8.039
  536POPC   C4A11358  27.816  19.522   7.640
  536POPC   C1B11359  27.260  19.386   8.717
  536POPC   C2B11360  27.221  19.301   8.263
  536POPC   C3B11361  27.344  19.513   7.854
  536POPC   C4B11362  27.229  19.380   7.408
  537POPC   NC311363   0.218  15.406   9.582
  537POPC   PO411364   0.619  14.949   9.457
  537POPC   GL111365   0.609  15.170   9.100
  537POPC   GL211366   0.284  15.221   9.108
  537POPC   C1A11367   0.671  15.055   8.684
  537POPC   D2A11368   0.805  14.998   8.280
  537POPC   C3A11369   0.615  15.122   7.905
  537POPC   C4A11370   0.509  14.860   7.558
  537POPC   C1B11371   0.169  15.090   8.724
  537POPC   C2B11372   0.325  15.256   8.334
  537POPC   C3B11373   0.105  15.220   7.966
  537POPC   C4B11374  44.804  14.929   7.991
  538POPC   NC311375  22.501  43.031   9.731
  538POPC   PO411376  23.133  43.065   9.578
  538POPC   GL111377  22.922  42.856   9.235
  538POPC   GL211378  22.839  43.161   9.100
  538POPC   C1A11379  22.980  42.715   8.798
  538POPC   D2A11380  23.116  42.666   8.358
  538POPC   C3A11381  22.809  42.769   8.020
  538POPC   C4A11382  22.838  43.095   7.699
  538POPC   C1B11383  23.061  43.221   8.724
  538POPC   C2B11384  22.937  43.185   8.313
  538POPC   C3B11385  23.120  43.397   8.009
  538POPC   C4B11386  23.016  43.601   7.666
  539POPC   NC311387  37.779   0.216   9.598
  539POPC   PO411388  37.491   0.809   9.564
  539POPC   GL111389  37.768   0.682   9.192
  539POPC   GL211390  38.088   0.455   9.294
  539POPC   C1A11391  37.624   0.603   8.744
  539POPC   D2A11392  37.366   0.725   8.367
  539POPC   C3A11393  37.569   0.708   7.932
  539POPC   C4A11394  37.529   0.389   7.616
  539POPC   C1B11395  38.101   0.426   8.861
  539POPC   C2B11396  37.972   0.332   8.455
  539POPC   C3B11397  37.880   0.312   8.014
  539POPC   C4B11398  38.069   0.493   7.667
  540POPC   NC311399  22.546   3.191   9.555
  540POPC   PO411400  23.220   2.957   9.400
  540POPC   GL111401  23.045   2.779   9.086
  540POPC   GL211402  22.723   2.862   9.194
  540POPC   C1A11403  23.094   2.920   8.681
  540POPC   D2A11404  23.087   3.102   8.281
  540POPC   C3A11405  23.157   2.788   8.021
  540POPC   C4A11406  22.994   2.653   7.662
  540POPC   C1B11407  22.584   2.910   8.778
  540POPC   C2B11408  22.710   2.713   8.388
  540POPC   C3B11409  22.669   2.931   8.021
  540POPC   C4B11410  22.490   3.240   7.741
  541POPC   NC311411   1.398  34.359   9.600
  541POPC   PO411412   2.068  34.468   9.730
  541POPC   GL111413   2.011  34.487   9.218
  541POPC   GL211414   1.928  34.819   9.058
  541POPC   C1A11415   2.042  34.452   8.745
  541POPC   D2A11416   1.788  34.443   8.379
  541POPC   C3A11417   2.071  34.338   8.052
  541POPC   C4A11418   2.061  34.226   7.623
  541POPC   C1B11419   2.074  34.957   8.691
  541POPC   C2B11420   1.801  34.971   8.392
  541POPC   C3B11421   1.885  34.807   8.010
  541POPC   C4B11422   2.196  34.712   7.705
  542POPC   NC311423   2.467  22.076   9.564
  542POPC   PO411424   3.100  22.392   9.616
  542POPC   GL111425   2.935  22.360   9.208
  542POPC   GL211426   2.580  22.367   9.167
  542POPC   C1A11427   2.866  22.234   8.779
  542POPC   D2A11428   3.034  21.904   8.552
  542POPC   C3A11429   3.039  21.916   8.129
  542POPC   C4A11430   2.918  22.107   7.763
  542POPC   C1B11431   2.362  22.233   8.754
  542POPC   C2B11432   2.572  22.225   8.357
  542POPC   C3B11433   2.466  22.184   7.958
  542POPC   C4B11434   2.273  22.215   7.595
  543POPC   NC311435  24.607  11.892   9.524
  543POPC   PO411436  24.750  12.540   9.655
  543POPC   GL111437  24.394  12.330   9.333
  543POPC   GL211438  24.655  12.263   9.134
  543POPC   C1A11439  24.291  12.102   8.844
  543POPC   D2A11440  24.510  12.015   8.426
  543POPC   C3A11441  24.440  12.241   8.042
  543POPC   C4A11442  24.195  12.100   7.696
  543POPC   C1B11443  24.735  11.856   8.879
  543POPC   C2B11444  24.558  11.519   8.575
  543POPC   C3B11445  24.627  11.465   8.123
  543POPC   C4B11446  24.634  11.810   7.848
  544POPC   NC311447  18.496  33.083   9.468
  544POPC   PO411448  17.770  33.069   9.505
  544POPC   GL111449  18.085  33.111   9.185
  544POPC   GL211450  18.201  32.771   9.127
  544POPC   C1A11451  18.298  33.332   8.855
  544POPC   D2A11452  18.160  33.469   8.449
  544POPC   C3A11453  18.447  33.363   8.125
  544POPC   C4A11454  18.541  33.175   7.720
  544POPC   C1B11455  18.426  32.853   8.742
  544POPC   C2B11456  18.294  32.914   8.313
  544POPC   C3B11457  18.417  32.703   7.919
  544POPC   C4B11458  18.794  32.706   7.629
  545POPC   NC311459  41.177  41.541   9.485
  545POPC   PO411460  41.826  41.724   9.480
  545POPC   GL111461  41.588  41.553   9.166
  545POPC   GL211462  41.851  41.352   9.047
  545POPC   C1A11463  41.429  41.412   8.765
  545POPC   D2A11464  41.585  41.416   8.351
  545POPC   C3A11465  41.310  41.539   8.015
  545POPC   C4A11466  41.386  41.558   7.564
  545POPC   C1B11467  41.825  41.747   8.733
  545POPC   C2B11468  41.930  41.799   8.271
  545POPC   C3B11469  41.805  41.578   7.881
  545POPC   C4B11470  41.867  41.498   7.426
  546POPC   NC311471   1.200  44.191   9.756
  546POPC   PO411472   1.441  43.788   9.354
  546POPC   GL111473   1.159  44.087   9.217
  546POPC   GL211474   0.924  43.877   9.185
  546POPC   C1A11475   1.080  44.177   8.763
  546POPC   D2A11476   1.277  43.862   8.460
  546POPC   C3A11477   1.397  43.953   8.039
  546POPC   C4A11478   1.279  43.884   7.623
  546POPC   C1B11479   0.886  43.689   8.788
  546POPC   C2B11480   0.780  43.770   8.367
  546POPC   C3B11481   1.020  43.582   8.034
  546POPC   C4B11482   0.891  43.557   7.573
  547POPC   NC311483   5.166  38.773  10.052
  547POPC   PO411484   5.080  38.355   9.535
  547POPC   GL111485   5.071  38.473   9.125
  547POPC   GL211486   5.437  38.553   9.081
  547POPC   C1A11487   5.022  38.210   8.773
  547POPC   D2A11488   5.211  38.221   8.395
  547POPC   C3A11489   4.967  38.339   8.074
  547POPC   C4A11490   5.169  38.229   7.714
  547POPC   C1B11491   5.207  38.689   8.675
  547POPC   C2B11492   5.201  38.768   8.231
  547POPC   C3B11493   5.383  38.651   7.860
  547POPC   C4B11494   5.327  38.650   7.415
  548POPC   NC311495  15.316   1.133   9.647
  548POPC   PO411496  15.607   1.658   9.671
  548POPC   GL111497  15.598   1.366   9.251
  548POPC   GL211498  15.304   1.161   9.126
  548POPC   C1A11499  15.518   1.420   8.754
  548POPC   D2A11500  15.456   1.387   8.268
  548POPC   C3A11501  15.150   1.371   7.879
  548POPC   C4A11502  14.996   1.376   7.455
  548POPC   C1B11503  15.496   0.902   8.769
  548POPC   C2B11504  15.629   0.897   8.338
  548POPC   C3B11505  15.486   0.999   7.892
  548POPC   C4B11506  15.189   0.889   7.518
  549POPC   NC311507   6.058   2.857   9.564
  549POPC   PO411508   5.449   2.706   9.541
  549POPC   GL111509   5.590   2.536   9.143
  549POPC   GL211510   5.971   2.541   9.165
  549POPC   C1A11511   5.730   2.568   8.705
  549POPC   D2A11512   5.976   2.791   8.402
  549POPC   C3A11513   5.790   2.817   8.022
  549POPC   C4A11514   5.737   2.625   7.643
  549POPC   C1B11515   6.248   2.611   8.799
  549POPC   C2B11516   6.350   2.428   8.391
  549POPC   C3B11517   6.203   2.515   7.960
  549POPC   C4B11518   6.175   2.870   7.661
  550POPC   NC311519  38.978  35.052   9.486
  550POPC   PO411520  39.083  35.691   9.474
  550POPC   GL111521  39.121  35.471   9.109
  550POPC   GL211522  39.355  35.197   9.116
  550POPC   C1A11523  39.095  35.465   8.662
  550POPC   D2A11524  39.085  35.154   8.376
  550POPC   C3A11525  39.161  35.285   7.967
  550POPC   C4A11526  39.310  35.566   7.675
  550POPC   C1B11527  39.593  35.374   8.770
  550POPC   C2B11528  39.515  35.495   8.336
  550POPC   C3B11529  39.736  35.548   7.950
  550POPC   C4B11530  39.766  35.252   7.613
  551POPC   NC311531  25.350  26.862   9.545
  551POPC   PO411532  24.805  26.365   9.467
  551POPC   GL111533  25.137  26.629   9.159
  551POPC   GL211534  25.537  26.723   9.098
  551POPC   C1A11535  25.252  26.549   8.732
  551POPC   D2A11536  25.094  26.598   8.340
  551POPC   C3A11537  25.252  26.781   7.981
  551POPC   C4A11538  25.038  27.180   7.800
  551POPC   C1B11539  25.402  27.043   8.756
  551POPC   C2B11540  25.366  27.160   8.299
  551POPC   C3B11541  25.566  27.176   7.876
  551POPC   C4B11542  25.638  26.874   7.527
  552POPC   NC311543  11.537   9.141   9.561
  552POPC   PO411544  10.969   8.788   9.709
  552POPC   GL111545  11.178   9.061   9.246
  552POPC   GL211546  11.497   8.860   9.091
  552POPC   C1A11547  11.204   9.163   8.831
  552POPC   D2A11548  11.597   9.084   8.518
  552POPC   C3A11549  11.521   9.098   8.047
  552POPC   C4A11550  11.496   8.971   7.605
  552POPC   C1B11551  11.286   8.697   8.653
  552POPC   C2B11552  11.189   8.768   8.240
  552POPC   C3B11553  11.066   8.808   7.813
  552POPC   C4B11554  10.928   8.673   7.415
  553POPC   NC311555  38.691  42.470   9.576
  553POPC   PO411556  38.319  41.918   9.612
  553POPC   GL111557  38.368  42.215   9.249
  553POPC   GL211558  38.658  42.061   9.238
  553POPC   C1A11559  38.708  42.442   8.941
  553POPC   D2A11560  38.806  42.381   8.514
  553POPC   C3A11561  38.592  42.578   8.173
  553POPC   C4A11562  38.724  42.598   7.737
  553POPC   C1B11563  38.501  42.009   8.774
  553POPC   C2B11564  38.455  42.061   8.304
  553POPC   C3B11565  38.427  42.199   7.856
  553POPC   C4B11566  38.221  42.622   7.793
  554POPC   NC311567  33.372  21.548   9.394
  554POPC   PO411568  32.771  21.443   9.247
  554POPC   GL111569  33.109  21.286   9.032
  554POPC   GL211570  33.085  21.038   9.232
  554POPC   C1A11571  33.265  21.278   8.636
  554POPC   D2A11572  33.440  21.439   8.278
  554POPC   C3A11573  33.252  21.333   7.907
  554POPC   C4A11574  33.503  21.309   7.577
  554POPC   C1B11575  32.773  20.953   8.834
  554POPC   C2B11576  32.731  21.218   8.460
  554POPC   C3B11577  32.669  21.170   8.022
  554POPC   C4B11578  32.757  21.295   7.596
  555POPC   NC311579  38.650  24.608   9.595
  555POPC   PO411580  38.360  24.101   9.724
  555POPC   GL111581  38.523  24.127   9.253
  555POPC   GL211582  38.635  24.404   9.133
  555POPC   C1A11583  38.320  24.232   8.800
  555POPC   D2A11584  38.284  24.207   8.337
  555POPC   C3A11585  38.416  24.510   8.029
  555POPC   C4A11586  38.257  24.622   7.632
  555POPC   C1B11587  38.790  24.040   8.832
  555POPC   C2B11588  38.703  23.888   8.409
  555POPC   C3B11589  38.635  24.020   7.972
  555POPC   C4B11590  38.332  24.117   7.649
  556POPC   NC311591  23.147  38.087   9.420
  556POPC   PO411592  22.740  38.616   9.504
  556POPC   GL111593  22.994  38.508   9.161
  556POPC   GL211594  23.168  38.792   9.069
  556POPC   C1A11595  23.105  38.296   8.762
  556POPC   D2A11596  22.961  38.427   8.326
  556POPC   C3A11597  23.188  38.352   7.963
  556POPC   C4A11598  22.932  38.188   7.643
  556POPC   C1B11599  22.912  38.764   8.701
  556POPC   C2B11600  22.745  38.962   8.372
  556POPC   C3B11601  22.629  38.778   8.000
  556POPC   C4B11602  22.896  38.686   7.651
  557POPC   NC311603  41.250  29.834   9.550
  557POPC   PO411604  41.761  30.191   9.508
  557POPC   GL111605  41.637  29.921   9.185
  557POPC   GL211606  41.318  30.052   9.111
  557POPC   C1A11607  41.688  29.995   8.742
  557POPC   D2A11608  41.927  30.095   8.368
  557POPC   C3A11609  41.693  29.998   7.998
  557POPC   C4A11610  41.621  29.634   7.767
  557POPC   C1B11611  41.127  29.943   8.759
  557POPC   C2B11612  41.319  29.898   8.395
  557POPC   C3B11613  41.170  29.928   8.022
  557POPC   C4B11614  41.288  30.048   7.648
  558POPC   NC311615  13.569  14.157   9.582
  558POPC   PO411616  13.290  14.731   9.459
  558POPC   GL111617  13.575  14.464   9.181
  558POPC   GL211618  13.927  14.348   9.233
  558POPC   C1A11619  13.621  14.304   8.779
  558POPC   D2A11620  13.470  14.466   8.398
  558POPC   C3A11621  13.474  14.156   8.083
  558POPC   C4A11622  13.442  14.306   7.656
  558POPC   C1B11623  13.993  14.632   8.882
  558POPC   C2B11624  14.031  14.463   8.487
  558POPC   C3B11625  13.898  14.439   8.092
  558POPC   C4B11626  13.905  14.134   7.766
  559POPC   NC311627  19.369  23.630   9.576
  559POPC   PO411628  19.080  24.195   9.482
  559POPC   GL111629  19.039  23.854   9.158
  559POPC   GL211630  19.279  23.579   9.078
  559POPC   C1A11631  18.955  23.773   8.710
  559POPC   D2A11632  18.792  23.817   8.294
  559POPC   C3A11633  19.089  23.799   7.981
  559POPC   C4A11634  19.140  24.055   7.646
  559POPC   C1B11635  19.153  23.293   8.752
  559POPC   C2B11636  19.097  23.412   8.343
  559POPC   C3B11637  18.816  23.374   7.991
  559POPC   C4B11638  18.774  23.592   7.604
  560POPC   NC311639   3.687   0.487   9.471
  560POPC   PO411640   3.033   0.624   9.617
  560POPC   GL111641   3.246   0.399   9.207
  560POPC   GL211642   3.506   0.097   9.188
  560POPC   C1A11643   3.354   0.290   8.750
  560POPC   D2A11644   3.506   0.062   8.370
  560POPC   C3A11645   3.268   0.095   8.001
  560POPC   C4A11646   3.134   0.444   7.781
  560POPC   C1B11647   3.828   0.063   8.811
  560POPC   C2B11648   3.969   0.263   8.380
  560POPC   C3B11649   3.759   0.245   7.921
  560POPC   C4B11650   3.781   0.235   7.395
  561POPC   NC311651  30.408  14.107   9.356
  561POPC   PO411652  30.673  13.769   9.844
  561POPC   GL111653  30.773  13.764   9.354
  561POPC   GL211654  30.467  13.655   9.142
  561POPC   C1A11655  30.908  13.731   8.909
  561POPC   D2A11656  30.632  13.822   8.546
  561POPC   C3A11657  30.838  13.855   8.149
  561POPC   C4A11658  30.711  13.730   7.753
  561POPC   C1B11659  30.478  13.369   8.793
  561POPC   C2B11660  30.547  13.310   8.348
  561POPC   C3B11661  30.444  13.321   7.907
  561POPC   C4B11662  30.603  13.184   7.525
  562POPC   NC311663  13.014  26.241   9.378
  562POPC   PO411664  12.692  25.622   9.451
  562POPC   GL111665  12.847  25.834   9.115
  562POPC   GL211666  13.167  25.874   8.952
  562POPC   C1A11667  12.730  26.064   8.757
  562POPC   D2A11668  12.758  25.912   8.364
  562POPC   C3A11669  12.698  26.199   8.045
  562POPC   C4A11670  12.947  26.140   7.687
  562POPC   C1B11671  13.253  26.300   8.781
  562POPC   C2B11672  13.050  26.382   8.414
  562POPC   C3B11673  13.197  26.070   8.122
  562POPC   C4B11674  13.469  26.039   7.780
  563POPC   NC311675  16.867  27.072   9.572
  563POPC   PO411676  16.304  26.977   9.308
  563POPC   GL111677  16.672  26.828   9.093
  563POPC   GL211678  16.976  27.013   9.084
  563POPC   C1A11679  16.776  26.744   8.654
  563POPC   D2A11680  16.510  26.587   8.319
  563POPC   C3A11681  16.615  26.559   7.896
  563POPC   C4A11682  16.617  26.953   7.727
  563POPC   C1B11683  17.197  27.042   8.702
  563POPC   C2B11684  16.999  27.044   8.295
  563POPC   C3B11685  17.037  27.226   7.886
  563POPC   C4B11686  17.014  27.134   7.419
  564POPC   NC311687  20.028  28.299   9.655
  564POPC   PO411688  19.693  28.107   9.081
  564POPC   GL111689  19.786  28.507   9.013
  564POPC   GL211690  20.100  28.652   9.195
  564POPC   C1A11691  19.736  28.460   8.545
  564POPC   D2A11692  19.456  28.150   8.316
  564POPC   C3A11693  19.504  28.200   7.888
  564POPC   C4A11694  19.704  28.193   7.481
  564POPC   C1B11695  20.071  28.832   8.762
  564POPC   C2B11696  20.139  28.684   8.347
  564POPC   C3B11697  19.985  28.327   8.102
  564POPC   C4B11698  19.897  28.565   7.760
  565POPC   NC311699  37.972  28.009   9.565
  565POPC   PO411700  38.315  27.368   9.488
  565POPC   GL111701  38.489  27.691   9.175
  565POPC   GL211702  38.409  27.422   8.974
  565POPC   C1A11703  38.645  27.752   8.719
  565POPC   D2A11704  38.461  27.817   8.294
  565POPC   C3A11705  38.693  27.843   7.914
  565POPC   C4A11706  38.531  27.595   7.576
  565POPC   C1B11707  38.167  27.535   8.605
  565POPC   C2B11708  38.066  27.466   8.158
  565POPC   C3B11709  37.965  27.222   7.748
  565POPC   C4B11710  38.094  27.389   7.317
  566POPC   NC311711  21.803   2.968   9.420
  566POPC   PO411712  22.389   2.742   9.591
  566POPC   GL111713  22.221   2.747   9.202
  566POPC   GL211714  22.250   3.088   9.137
  566POPC   C1A11715  22.210   2.540   8.807
  566POPC   D2A11716  21.984   2.572   8.408
  566POPC   C3A11717  22.285   2.601   8.076
  566POPC   C4A11718  22.368   2.742   7.672
  566POPC   C1B11719  22.060   3.024   8.751
  566POPC   C2B11720  22.208   3.042   8.327
  566POPC   C3B11721  21.993   3.002   7.930
  566POPC   C4B11722  22.055   3.124   7.500
  567POPC   NC311723  37.997  11.246   9.501
  567POPC   PO411724  38.545  10.933   9.445
  567POPC   GL111725  38.329  11.085   9.126
  567POPC   GL211726  38.299  11.438   9.125
  567POPC   C1A11727  38.446  11.038   8.708
  567POPC   D2A11728  38.731  11.252   8.468
  567POPC   C3A11729  38.585  11.165   8.095
  567POPC   C4A11730  38.368  11.308   7.771
  567POPC   C1B11731  38.092  11.407   8.711
  567POPC   C2B11732  38.184  11.405   8.291
  567POPC   C3B11733  37.924  11.446   7.938
  567POPC   C4B11734  38.023  11.457   7.445
  568POPC   NC311735  28.770  43.253   9.480
  568POPC   PO411736  29.182  42.690   9.666
  568POPC   GL111737  29.161  42.745   9.200
  568POPC   GL211738  29.036  43.099   9.084
  568POPC   C1A11739  29.321  42.847   8.767
  568POPC   D2A11740  29.118  43.106   8.453
  568POPC   C3A11741  29.176  42.946   8.074
  568POPC   C4A11742  29.174  43.113   7.706
  568POPC   C1B11743  29.006  43.462   8.787
  568POPC   C2B11744  28.797  43.502   8.382
  568POPC   C3B11745  29.124  43.480   8.054
  568POPC   C4B11746  29.190  43.640   7.635
  569POPC   NC311747  32.471  32.387   9.579
  569POPC   PO411748  31.771  32.125   9.520
  569POPC   GL111749  32.070  32.239   9.233
  569POPC   GL211750  32.016  32.580   9.286
  569POPC   C1A11751  32.288  32.384   8.851
  569POPC   D2A11752  32.191  32.255   8.429
  569POPC   C3A11753  32.382  32.230   8.075
  569POPC   C4A11754  32.397  31.911   7.782
  569POPC   C1B11755  31.823  32.601   8.905
  569POPC   C2B11756  31.993  32.701   8.503
  569POPC   C3B11757  31.881  32.532   8.110
  569POPC   C4B11758  32.064  32.398   7.718
  570POPC   NC311759  12.722  25.098   9.499
  570POPC   PO411760  11.982  25.100   9.521
  570POPC   GL111761  12.037  25.290   9.142
  570POPC   GL211762  12.406  25.296   9.118
  570POPC   C1A11763  12.033  25.269   8.727
  570POPC   D2A11764  11.880  25.347   8.359
  570POPC   C3A11765  11.835  25.085   8.078
  570POPC   C4A11766  11.838  25.232   7.686
  570POPC   C1B11767  12.371  25.639   8.797
  570POPC   C2B11768  12.367  25.562   8.337
  570POPC   C3B11769  12.281  25.324   7.966
  570POPC   C4B11770  12.330  25.299   7.512
  571POPC   NC311771  36.023   6.551   9.676
  571POPC   PO411772  36.387   7.120   9.530
  571POPC   GL111773  36.338   6.855   9.153
  571POPC   GL211774  36.029   6.763   9.201
  571POPC   C1A11775  36.403   6.609   8.738
  571POPC   D2A11776  36.338   6.408   8.309
  571POPC   C3A11777  36.386   6.558   7.856
  571POPC   C4A11778  36.566   6.712   7.419
  571POPC   C1B11779  35.790   6.466   8.975
  571POPC   C2B11780  35.842   6.475   8.549
  571POPC   C3B11781  35.907   6.638   8.146
  571POPC   C4B11782  35.887   6.587   7.709
  572POPC   NC311783  16.715  23.465   9.447
  572POPC   PO411784  16.684  24.088   9.456
  572POPC   GL111785  16.621  23.945   9.059
  572POPC   GL211786  16.403  23.672   9.090
  572POPC   C1A11787  16.567  23.865   8.615
  572POPC   D2A11788  16.901  23.817   8.325
  572POPC   C3A11789  16.822  23.681   7.914
  572POPC   C4A11790  16.524  23.799   7.599
  572POPC   C1B11791  16.505  23.378   8.752
  572POPC   C2B11792  16.571  23.395   8.298
  572POPC   C3B11793  16.427  23.359   7.849
  572POPC   C4B11794  16.470  23.180   7.420
  573POPC   NC311795   1.341  21.722   9.542
  573POPC   PO411796   1.111  22.377   9.487
  573POPC   GL111797   1.266  22.099   9.199
  573POPC   GL211798   0.980  22.108   9.037
  573POPC   C1A11799   1.408  21.948   8.805
  573POPC   D2A11800   1.180  22.048   8.459
  573POPC   C3A11801   1.353  22.103   8.066
  573POPC   C4A11802   1.097  22.306   7.784
  573POPC   C1B11803   0.934  21.729   8.814
  573POPC   C2B11804   0.767  21.731   8.420
  573POPC   C3B11805   0.818  22.007   8.096
  573POPC   C4B11806   0.676  22.021   7.668
  574POPC   NC311807   9.756   8.390   9.507
  574POPC   PO411808   9.831   7.770   9.737
  574POPC   GL111809   9.599   7.969   9.288
  574POPC   GL211810   9.852   8.112   9.063
  574POPC   C1A11811   9.437   8.048   8.822
  574POPC   D2A11812   9.722   8.001   8.459
  574POPC   C3A11813   9.594   8.076   8.030
  574POPC   C4A11814   9.786   7.867   7.642
  574POPC   C1B11815  10.105   8.239   8.708
  574POPC   C2B11816  10.155   8.418   8.294
  574POPC   C3B11817   9.928   8.435   7.895
  574POPC   C4B11818   9.895   8.343   7.456
  575POPC   NC311819   4.819   5.200   9.342
  575POPC   PO411820   5.483   5.032   9.402
  575POPC   GL111821   5.261   5.089   9.074
  575POPC   GL211822   5.285   5.419   9.011
  575POPC   C1A11823   5.089   4.922   8.719
  575POPC   D2A11824   5.146   4.978   8.297
  575POPC   C3A11825   5.207   5.059   7.888
  575POPC   C4A11826   4.984   4.915   7.538
  575POPC   C1B11827   5.141   5.418   8.591
  575POPC   C2B11828   5.090   5.498   8.130
  575POPC   C3B11829   4.834   5.398   7.739
  575POPC   C4B11830   4.835   5.325   7.254
  576POPC   NC311831  21.912  29.948   9.738
  576POPC   PO411832  22.371  29.629   9.598
  576POPC   GL111833  22.251  29.803   9.171
  576POPC   GL211834  22.222  30.156   9.187
  576POPC   C1A11835  22.325  29.925   8.725
  576POPC   D2A11836  22.425  29.716   8.343
  576POPC   C3A11837  22.438  29.881   7.915
  576POPC   C4A11838  22.184  29.851   7.506
  576POPC   C1B11839  21.955  30.278   8.814
  576POPC   C2B11840  22.065  30.287   8.381
  576POPC   C3B11841  21.891  30.385   7.987
  576POPC   C4B11842  21.699  30.156   7.698
  577POPC   NC311843   0.029  35.215   9.552
  577POPC   PO411844  44.488  35.648   9.485
  577POPC   GL111845  44.747  35.557   9.132
  577POPC   GL211846  44.783  35.180   9.113
  577POPC   C1A11847  44.733  35.560   8.668
  577POPC   D2A11848  44.825  35.281   8.309
  577POPC   C3A11849  44.922  35.476   7.931
  577POPC   C4A11850  44.672  35.433   7.585
  577POPC   C1B11851  44.617  35.036   8.734
  577POPC   C2B11852  44.329  35.065   8.412
  577POPC   C3B11853  44.437  35.131   7.967
  577POPC   C4B11854  44.779  34.969   7.741
  578POPC   NC311855  42.048  39.371   9.499
  578POPC   PO411856  42.345  38.884   9.723
  578POPC   GL111857  42.302  39.109   9.163
  578POPC   GL211858  42.139  39.338   8.999
  578POPC   C1A11859  42.350  38.918   8.729
  578POPC   D2A11860  42.101  38.761   8.351
  578POPC   C3A11861  42.258  38.920   7.961
  578POPC   C4A11862  42.581  39.196   7.904
  578POPC   C1B11863  41.858  39.063   8.713
  578POPC   C2B11864  41.863  39.228   8.315
  578POPC   C3B11865  42.151  39.515   8.129
  578POPC   C4B11866  42.135  39.418   7.717
  579POPC   NC311867  38.747  13.573   9.561
  579POPC   PO411868  38.059  13.662   9.490
  579POPC   GL111869  38.356  13.681   9.170
  579POPC   GL211870  38.579  13.428   9.113
  579POPC   C1A11871  38.320  13.701   8.736
  579POPC   D2A11872  38.170  13.548   8.362
  579POPC   C3A11873  38.417  13.809   8.107
  579POPC   C4A11874  38.482  13.809   7.662
  579POPC   C1B11875  38.823  13.258   8.750
  579POPC   C2B11876  38.660  13.360   8.340
  579POPC   C3B11877  38.435  13.334   7.948
  579POPC   C4B11878  38.604  13.325   7.543
  580POPC   NC311879  21.232  13.854   9.616
  580POPC   PO411880  21.465  13.199   9.916
  580POPC   GL111881  21.473  13.191   9.378
  580POPC   GL211882  21.375  13.502   9.262
  580POPC   C1A11883  21.509  13.266   8.842
  580POPC   D2A11884  21.589  13.591   8.470
  580POPC   C3A11885  21.684  13.454   8.022
  580POPC   C4A11886  21.616  13.101   7.761
  580POPC   C1B11887  21.203  13.682   8.872
  580POPC   C2B11888  21.105  13.812   8.424
  580POPC   C3B11889  21.261  13.725   7.994
  580POPC   C4B11890  21.327  13.541   7.568
  581POPC   NC311891  42.466  24.616   9.440
  581POPC   PO411892  41.802  24.470   9.416
  581POPC   GL111893  42.160  24.316   9.147
  581POPC   GL211894  42.529  24.149   9.263
  581POPC   C1A11895  42.135  24.502   8.745
  581POPC   D2A11896  41.874  24.609   8.384
  581POPC   C3A11897  42.118  24.469   8.086
  581POPC   C4A11898  42.175  24.315   7.718
  581POPC   C1B11899  42.609  24.096   8.812
  581POPC   C2B11900  42.505  24.310   8.411
  581POPC   C3B11901  42.636  24.404   7.980
  581POPC   C4B11902  42.645  24.341   7.537
  582POPC   NC311903  34.335  27.507   9.367
  582POPC   PO411904  35.006  27.784   9.513
  582POPC   GL111905  34.840  27.666   9.142
  582POPC   GL211906  34.577  27.887   9.077
  582POPC   C1A11907  34.808  27.587   8.699
  582POPC   D2A11908  34.590  27.627   8.317
  582POPC   C3A11909  34.619  27.311   7.969
  582POPC   C4A11910  34.886  27.375   7.609
  582POPC   C1B11911  34.289  27.836   8.704
  582POPC   C2B11912  34.054  27.821   8.324
  582POPC   C3B11913  34.218  27.645   7.968
  582POPC   C4B11914  34.435  27.656   7.599
  583POPC   NC311915  39.343  22.728   9.497
  583POPC   PO411916  38.968  23.374   9.486
  583POPC   GL111917  39.129  23.086   9.162
  583POPC   GL211918  38.900  22.844   9.062
  583POPC   C1A11919  39.471  22.934   8.827
  583POPC   D2A11920  39.750  23.140   8.488
  583POPC   C3A11921  39.577  23.318   8.066
  583POPC   C4A11922  39.540  23.170   7.636
  583POPC   C1B11923  39.017  23.092   8.681
  583POPC   C2B11924  39.272  22.986   8.327
  583POPC   C3B11925  39.146  22.989   7.903
  583POPC   C4B11926  39.019  22.627   7.655
  584POPC   NC311927  23.421  41.923   9.509
  584POPC   PO411928  23.913  41.530   9.381
  584POPC   GL111929  23.664  41.712   9.087
  584POPC   GL211930  23.315  41.617   9.130
  584POPC   C1A11931  23.714  41.726   8.663
  584POPC   D2A11932  23.982  41.826   8.346
  584POPC   C3A11933  23.705  41.682   8.081
  584POPC   C4A11934  23.611  41.545   7.664
  584POPC   C1B11935  23.233  41.858   8.764
  584POPC   C2B11936  23.198  41.790   8.319
  584POPC   C3B11937  23.296  41.899   7.894
  584POPC   C4B11938  23.593  42.046   7.586
  585POPC   NC311939   0.238  21.235   9.543
  585POPC   PO411940   0.790  21.637   9.488
  585POPC   GL111941   0.636  21.314   9.156
  585POPC   GL211942   0.338  21.095   9.072
  585POPC   C1A11943   0.522  21.393   8.719
  585POPC   D2A11944   0.309  21.474   8.349
  585POPC   C3A11945   0.372  21.211   8.026
  585POPC   C4A11946   0.395  21.286   7.595
  585POPC   C1B11947   0.106  20.847   8.732
  585POPC   C2B11948   0.252  20.747   8.277
  585POPC   C3B11949   0.152  20.810   7.804
  585POPC   C4B11950   0.237  20.878   7.321
  586POPC   NC311951  31.661  33.792   9.438
  586POPC   PO411952  31.007  33.485   9.545
  586POPC   GL111953  31.202  33.779   9.192
  586POPC   GL211954  31.528  33.721   8.961
  586POPC   C1A11955  31.233  34.089   8.826
  586POPC   D2A11956  31.564  34.010   8.495
  586POPC   C3A11957  31.479  33.847   8.080
  586POPC   C4A11958  31.219  33.688   7.756
  586POPC   C1B11959  31.803  33.576   8.621
  586POPC   C2B11960  32.103  33.718   8.372
  586POPC   C3B11961  31.961  33.711   7.998
  586POPC   C4B11962  31.783  33.689   7.621
  587POPC   NC311963  30.425  29.503   9.168
  587POPC   PO411964  30.919  29.177   9.497
  587POPC   GL111965  31.022  29.360   9.082
  587POPC   GL211966  30.894  29.697   9.090
  587POPC   C1A11967  30.828  29.353   8.660
  587POPC   D2A11968  30.608  29.106   8.368
  587POPC   C3A11969  30.740  28.985   7.958
  587POPC   C4A11970  30.536  29.219   7.651
  587POPC   C1B11971  31.121  29.756   8.700
  587POPC   C2B11972  31.202  29.475   8.317
  587POPC   C3B11973  31.063  29.368   7.928
  587POPC   C4B11974  30.855  29.630   7.657
  588POPC   NC311975  23.928  11.343   9.495
  588POPC   PO411976  23.248  11.200   9.577
  588POPC   GL111977  23.485  11.109   9.163
  588POPC   GL211978  23.837  11.121   9.060
  588POPC   C1A11979  23.528  11.269   8.701
  588POPC   D2A11980  23.709  11.097   8.326
  588POPC   C3A11981  23.716  11.383   8.009
  588POPC   C4A11982  23.842  11.456   7.582
  588POPC   C1B11983  24.018  11.482   8.820
  588POPC   C2B11984  24.083  11.646   8.395
  588POPC   C3B11985  24.167  11.625   7.948
  588POPC   C4B11986  24.313  11.631   7.496
  589POPC   NC311987  35.096  22.010   9.511
  589POPC   PO411988  35.654  22.353   9.573
  589POPC   GL111989  35.520  22.084   9.221
  589POPC   GL211990  35.253  22.336   9.158
  589POPC   C1A11991  35.327  21.924   8.814
  589POPC   D2A11992  35.113  21.835   8.401
  589POPC   C3A11993  35.220  22.132   8.050
  589POPC   C4A11994  35.237  22.119   7.612
  589POPC   C1B11995  35.352  22.585   8.825
  589POPC   C2B11996  35.358  22.484   8.411
  589POPC   C3B11997  35.537  22.601   8.022
  589POPC   C4B11998  35.662  22.417   7.671
  590POPC   NC311999  32.466   9.009   9.582
  590POPC   PO412000  32.186   8.588   9.150
  590POPC   GL112001  32.215   9.014   9.127
  590POPC   GL212002  32.537   9.176   9.087
  590POPC   C1A12003  32.107   9.183   8.761
  590POPC   D2A12004  32.024   9.061   8.377
  590POPC   C3A12005  32.389   9.073   8.106
  590POPC   C4A12006  32.256   8.930   7.708
  590POPC   C1B12007  32.577   8.967   8.649
  590POPC   C2B12008  32.774   8.709   8.290
  590POPC   C3B12009  32.661   8.624   7.866
  590POPC   C4B12010  32.622   8.756   7.426
  591POPC   NC312011   8.057  28.633   9.601
  591POPC   PO412012   8.480  28.117   9.568
  591POPC   GL112013   8.446  28.405   9.221
  591POPC   GL212014   8.121  28.333   9.163
  591POPC   C1A12015   8.399  28.512   8.759
  591POPC   D2A12016   8.160  28.453   8.361
  591POPC   C3A12017   8.274  28.582   7.929
  591POPC   C4A12018   8.437  28.513   7.474
  591POPC   C1B12019   8.399  28.029   8.902
  591POPC   C2B12020   8.543  28.102   8.467
  591POPC   C3B12021   8.640  28.204   8.058
  591POPC   C4B12022   8.345  28.100   7.765
  592POPC   NC312023  42.675   5.851   9.343
  592POPC   PO412024  42.063   5.712   9.477
  592POPC   GL112025  42.164   5.847   9.089
  592POPC   GL212026  42.026   6.174   9.015
  592POPC   C1A12027  42.405   5.645   8.780
  592POPC   D2A12028  42.577   5.664   8.388
  592POPC   C3A12029  42.343   5.834   8.094
  592POPC   C4A12030  42.196   5.769   7.751
  592POPC   C1B12031  42.421   6.156   8.736
  592POPC   C2B12032  42.569   6.227   8.299
  592POPC   C3B12033  42.268   6.312   7.923
  592POPC   C4B12034  42.228   6.235   7.454
  593POPC   NC312035  19.805   8.780   9.717
  593POPC   PO412036  19.962   9.279   9.336
  593POPC   GL112037  19.819   9.007   9.051
  593POPC   GL212038  19.933   8.704   9.186
  593POPC   C1A12039  19.743   9.023   8.614
  593POPC   D2A12040  19.793   8.807   8.247
  593POPC   C3A12041  19.926   9.034   7.932
  593POPC   C4A12042  19.642   9.268   7.740
  593POPC   C1B12043  20.138   8.715   8.745
  593POPC   C2B12044  20.276   8.892   8.359
  593POPC   C3B12045  20.194   8.601   7.989
  593POPC   C4B12046  20.066   8.556   7.561
  594POPC   NC312047  28.128  37.480   9.553
  594POPC   PO412048  28.540  38.049   9.526
  594POPC   GL112049  28.378  37.887   9.143
  594POPC   GL212050  28.420  37.535   9.130
  594POPC   C1A12051  28.516  37.828   8.707
  594POPC   D2A12052  28.331  38.025   8.333
  594POPC   C3A12053  28.199  37.774   8.054
  594POPC   C4A12054  28.488  37.771   7.754
  594POPC   C1B12055  28.577  37.319   8.778
  594POPC   C2B12056  28.621  37.455   8.348
  594POPC   C3B12057  28.432  37.305   7.985
  594POPC   C4B12058  28.116  37.382   7.687
  595POPC   NC312059  42.938   1.322   9.574
  595POPC   PO412060  42.710   0.789   9.759
  595POPC   GL112061  42.647   0.990   9.283
  595POPC   GL212062  42.748   1.336   9.129
  595POPC   C1A12063  42.786   0.946   8.817
  595POPC   D2A12064  43.137   1.014   8.499
  595POPC   C3A12065  43.095   1.252   8.100
  595POPC   C4A12066  43.444   1.276   7.819
  595POPC   C1B12067  43.113   1.365   8.883
  595POPC   C2B12068  43.080   1.620   8.521
  595POPC   C3B12069  42.779   1.737   8.193
  595POPC   C4B12070  42.809   1.672   7.743
  596POPC   NC312071  39.497  33.634   9.550
  596POPC   PO412072  38.768  33.725   9.534
  596POPC   GL112073  39.007  33.724   9.119
  596POPC   GL212074  39.362  33.646   9.072
  596POPC   C1A12075  39.135  33.948   8.724
  596POPC   D2A12076  39.281  34.089   8.295
  596POPC   C3A12077  38.974  34.129   7.963
  596POPC   C4A12078  38.971  33.796   7.643
  596POPC   C1B12079  39.302  33.469   8.693
  596POPC   C2B12080  39.507  33.616   8.323
  596POPC   C3B12081  39.402  33.577   7.894
  596POPC   C4B12082  39.429  33.580   7.441
  597POPC   NC312083  15.307  11.343   9.505
  597POPC   PO412084  14.650  11.347   9.511
  597POPC   GL112085  14.964  11.370   9.128
  597POPC   GL212086  15.307  11.526   9.052
  597POPC   C1A12087  15.037  11.237   8.704
  597POPC   D2A12088  15.304  10.964   8.462
  597POPC   C3A12089  15.091  10.864   8.070
  597POPC   C4A12090  15.253  10.956   7.672
  597POPC   C1B12091  15.543  11.309   8.789
  597POPC   C2B12092  15.603  11.468   8.397
  597POPC   C3B12093  15.447  11.262   8.065
  597POPC   C4B12094  15.604  11.380   7.715
  598POPC   NC312095  43.137  32.748   9.465
  598POPC   PO412096  43.103  33.465   9.510
  598POPC   GL112097  43.184  33.181   9.177
  598POPC   GL212098  42.925  33.351   9.036
  598POPC   C1A12099  43.128  32.946   8.791
  598POPC   D2A12100  42.972  33.100   8.382
  598POPC   C3A12101  43.150  32.944   8.023
  598POPC   C4A12102  42.931  32.663   7.801
  598POPC   C1B12103  43.266  33.448   8.719
  598POPC   C2B12104  43.224  33.520   8.276
  598POPC   C3B12105  42.990  33.413   7.921
  598POPC   C4B12106  43.108  33.231   7.560
  599POPC   NC312107  41.477  40.534   9.521
  599POPC   PO412108  42.066  40.780   9.255
  599POPC   GL112109  41.644  40.823   9.127
  599POPC   GL212110  41.508  40.476   9.023
  599POPC   C1A12111  41.383  40.905   8.784
  599POPC   D2A12112  41.406  40.734   8.392
  599POPC   C3A12113  41.671  40.973   8.104
  599POPC   C4A12114  41.507  41.131   7.762
  599POPC   C1B12115  41.818  40.577   8.696
  599POPC   C2B12116  41.890  40.547   8.271
  599POPC   C3B12117  41.568  40.493   7.954
  599POPC   C4B12118  41.768  40.610   7.592
  600POPC   NC312119  24.274  10.529   9.531
  600POPC   PO412120  24.604  10.091   9.423
  600POPC   GL112121  24.313  10.357   9.057
  600POPC   GL212122  24.244  10.753   9.052
  600POPC   C1A12123  24.021  10.479   8.682
  600POPC   D2A12124  24.024  10.689   8.265
  600POPC   C3A12125  24.199  10.433   7.941
  600POPC   C4A12126  24.110   9.973   7.871
  600POPC   C1B12127  24.102  11.003   8.660
  600POPC   C2B12128  24.227  11.156   8.240
  600POPC   C3B12129  24.493  10.831   8.040
  600POPC   C4B12130  24.700  10.582   7.701
  601POPC   NC312131  28.982  35.688   9.380
  601POPC   PO412132  29.349  35.105   9.449
  601POPC   GL112133  29.281  35.343   9.096
  601POPC   GL212134  28.956  35.235   9.129
  601POPC   C1A12135  29.081  35.430   8.688
  601POPC   D2A12136  29.189  35.389   8.274
  601POPC   C3A12137  29.035  35.460   7.876
  601POPC   C4A12138  29.367  35.562   7.639
  601POPC   C1B12139  28.826  34.980   8.811
  601POPC   C2B12140  28.946  34.866   8.419
  601POPC   C3B12141  28.858  35.029   8.064
  601POPC   C4B12142  28.887  34.937   7.679
  602POPC   NC312143   2.490  23.712   9.577
  602POPC   PO412144   2.949  24.023   9.218
  602POPC   GL112145   2.511  23.881   9.086
  602POPC   GL212146   2.681  23.557   9.111
  602POPC   C1A12147   2.317  23.987   8.664
  602POPC   D2A12148   2.392  23.773   8.259
  602POPC   C3A12149   2.545  23.934   7.885
  602POPC   C4A12150   2.840  23.944   7.546
  602POPC   C1B12151   2.750  23.721   8.667
  602POPC   C2B12152   2.901  23.814   8.246
  602POPC   C3B12153   2.875  23.546   7.889
  602POPC   C4B12154   3.154  23.474   7.524
  603POPC   NC312155  24.985  33.970   9.327
  603POPC   PO412156  25.153  34.581   9.597
  603POPC   GL112157  25.125  34.712   9.166
  603POPC   GL212158  24.769  34.798   9.129
  603POPC   C1A12159  25.330  34.535   8.795
  603POPC   D2A12160  25.467  34.363   8.401
  603POPC   C3A12161  25.203  34.337   8.051
  603POPC   C4A12162  25.377  34.504   7.702
  603POPC   C1B12163  24.837  34.892   8.720
  603POPC   C2B12164  25.092  34.738   8.392
  603POPC   C3B12165  25.174  34.887   7.975
  603POPC   C4B12166  24.845  34.922   7.676
  604POPC   NC312167  20.189   9.677   9.423
  604POPC   PO412168  19.653   9.395   9.757
  604POPC   GL112169  19.632   9.666   9.277
  604POPC   GL212170  19.893   9.907   9.097
  604POPC   C1A12171  19.466   9.885   8.842
  604POPC   D2A12172  19.507  10.194   8.465
  604POPC   C3A12173  19.717   9.972   8.141
  604POPC   C4A12174  19.600   9.805   7.749
  604POPC   C1B12175  19.889   9.558   8.748
  604POPC   C2B12176  20.017   9.359   8.346
  604POPC   C3B12177  19.999   9.556   7.949
  604POPC   C4B12178  20.091   9.975   7.755
  605POPC   NC312179   7.678  41.219   9.306
  605POPC   PO412180   8.160  41.529   9.597
  605POPC   GL112181   8.198  41.529   9.183
  605POPC   GL212182   8.178  41.196   9.028
  605POPC   C1A12183   8.416  41.747   8.843
  605POPC   D2A12184   8.404  41.606   8.442
  605POPC   C3A12185   8.186  41.734   8.104
  605POPC   C4A12186   8.336  41.458   7.790
  605POPC   C1B12187   7.957  41.524   8.751
  605POPC   C2B12188   7.820  41.457   8.375
  605POPC   C3B12189   7.883  41.343   7.989
  605POPC   C4B12190   7.758  41.495   7.622
  606POPC   NC312191  40.589   0.927   9.232
  606POPC   PO412192  40.108   1.152   9.586
  606POPC   GL112193  40.036   1.459   9.267
  606POPC   GL212194  40.047   1.190   9.048
  606POPC   C1A12195  40.136   1.599   8.797
  606POPC   D2A12196  39.987   1.320   8.506
  606POPC   C3A12197  40.037   1.401   8.094
  606POPC   C4A12198  39.972   1.130   7.733
  606POPC   C1B12199  39.672   1.450   8.907
  606POPC   C2B12200  39.488   1.417   8.483
  606POPC   C3B12201  39.582   1.185   8.147
  606POPC   C4B12202  39.517   1.328   7.735
  607POPC   NC312203  23.139  27.321   9.562
  607POPC   PO412204  22.662  27.799   9.379
  607POPC   GL112205  22.974  27.727   9.046
  607POPC   GL212206  23.297  27.595   9.131
  607POPC   C1A12207  23.272  27.832   8.698
  607POPC   D2A12208  23.143  27.587   8.415
  607POPC   C3A12209  22.849  27.730   8.128
  607POPC   C4A12210  22.721  27.490   7.811
  607POPC   C1B12211  23.477  27.335   8.762
  607POPC   C2B12212  23.563  27.310   8.306
  607POPC   C3B12213  23.358  27.580   7.966
  607POPC   C4B12214  23.175  27.422   7.600
  608POPC   NC312215  34.290  39.544   9.412
  608POPC   PO412216  34.796  39.095   9.544
  608POPC   GL112217  34.704  39.316   9.171
  608POPC   GL212218  34.942  39.565   9.138
  608POPC   C1A12219  34.462  39.345   8.782
  608POPC   D2A12220  34.189  39.080   8.515
  608POPC   C3A12221  34.419  38.905   8.169
  608POPC   C4A12222  34.554  39.124   7.806
  608POPC   C1B12223  34.839  39.700   8.728
  608POPC   C2B12224  34.576  39.631   8.347
  608POPC   C3B12225  34.808  39.563   7.924
  608POPC   C4B12226  34.687  39.508   7.468
  609POPC   NC312227  24.414  30.596   9.542
  609POPC   PO412228  24.354  31.254   9.336
  609POPC   GL112229  24.579  30.883   9.115
  609POPC   GL212230  24.545  30.484   9.079
  609POPC   C1A12231  24.830  30.731   8.737
  609POPC   D2A12232  24.925  30.378   8.468
  609POPC   C3A12233  24.770  30.524   8.085
  609POPC   C4A12234  24.489  30.759   7.807
  609POPC   C1B12235  24.320  30.650   8.730
  609POPC   C2B12236  24.321  30.536   8.308
  609POPC   C3B12237  24.315  30.283   7.927
  609POPC   C4B12238  24.312  30.319   7.465
  610POPC   NC312239   2.691  10.248   9.345
  610POPC   PO412240   2.240  10.769   9.432
  610POPC   GL112241   2.538  10.650   9.092
  610POPC   GL212242   2.939  10.512   8.999
  610POPC   C1A12243   2.550  10.359   8.738
  610POPC   D2A12244   2.833  10.471   8.441
  610POPC   C3A12245   2.722  10.531   8.024
  610POPC   C4A12246   2.995  10.638   7.704
  610POPC   C1B12247   3.025  10.107   8.745
  610POPC   C2B12248   2.948   9.999   8.294
  610POPC   C3B12249   3.062  10.149   7.919
  610POPC   C4B12250   3.091  10.031   7.522
  611POPC   NC312251  36.813   2.437   9.550
  611POPC   PO412252  36.971   1.847   9.542
  611POPC   GL112253  36.976   2.098   9.168
  611POPC   GL212254  36.635   2.186   9.143
  611POPC   C1A12255  36.872   1.996   8.739
  611POPC   D2A12256  36.949   2.177   8.345
  611POPC   C3A12257  37.036   1.995   7.974
  611POPC   C4A12258  37.049   2.081   7.513
  611POPC   C1B12259  36.476   2.419   8.791
  611POPC   C2B12260  36.554   2.551   8.380
  611POPC   C3B12261  36.743   2.480   7.958
  611POPC   C4B12262  36.610   2.125   7.728
  612POPC   NC312263  22.798  11.038   9.493
  612POPC   PO412264  22.979  10.354   9.479
  612POPC   GL112265  22.937  10.602   9.112
  612POPC   GL212266  22.663  10.452   8.949
  612POPC   C1A12267  23.082  10.528   8.670
  612POPC   D2A12268  22.876  10.535   8.255
  612POPC   C3A12269  23.033  10.298   7.907
  612POPC   C4A12270  23.297  10.406   7.547
  612POPC   C1B12271  22.649  10.815   8.682
  612POPC   C2B12272  22.446  10.815   8.301
  612POPC   C3B12273  22.603  10.891   7.903
  612POPC   C4B12274  23.033  10.788   7.785
  613POPC   NC312275  30.628  37.731   9.428
  613POPC   PO412276  31.007  37.142   9.377
  613POPC   GL112277  30.750  37.373   9.084
  613POPC   GL212278  30.898  37.703   9.010
  613POPC   C1A12279  30.516  37.528   8.735
  613POPC   D2A12280  30.716  37.768   8.423
  613POPC   C3A12281  30.647  37.583   8.021
  613POPC   C4A12282  30.394  37.397   7.733
  613POPC   C1B12283  31.100  37.434   8.730
  613POPC   C2B12284  30.993  37.324   8.316
  613POPC   C3B12285  31.151  37.574   7.960
  613POPC   C4B12286  30.973  37.979   7.823
  614POPC   NC312287   3.816   7.185   9.418
  614POPC   PO412288   3.309   7.587   9.422
  614POPC   GL112289   3.520   7.511   9.084
  614POPC   GL212290   3.446   7.146   9.076
  614POPC   C1A12291   3.602   7.755   8.707
  614POPC   D2A12292   3.587   7.673   8.281
  614POPC   C3A12293   3.540   7.965   7.959
  614POPC   C4A12294   3.777   7.707   7.685
  614POPC   C1B12295   3.562   7.238   8.665
  614POPC   C2B12296   3.832   7.239   8.344
  614POPC   C3B12297   3.708   7.249   7.938
  614POPC   C4B12298   3.749   6.872   7.691
  615POPC   NC312299  16.240  44.508   9.524
  615POPC   PO412300  15.821  44.982   9.598
  615POPC   GL112301  15.848  44.676   9.228
  615POPC   GL212302  16.170  44.785   9.076
  615POPC   C1A12303  15.940  44.375   8.857
  615POPC   D2A12304  15.796  44.344   8.417
  615POPC   C3A12305  16.009  44.291   8.003
  615POPC   C4A12306  15.682  44.319   7.701
  615POPC   C1B12307  15.854  44.858   8.735
  615POPC   C2B12308  15.878  44.854   8.284
  615POPC   C3B12309  15.909  44.755   7.851
  615POPC   C4B12310  16.035  44.891   7.431
  616POPC   NC312311   6.820  38.859   9.504
  616POPC   PO412312   7.032  39.490   9.578
  616POPC   GL112313   6.897  39.271   9.200
  616POPC   GL212314   6.536  39.213   9.215
  616POPC   C1A12315   6.882  39.061   8.786
  616POPC   D2A12316   7.130  39.024   8.390
  616POPC   C3A12317   6.962  39.251   8.040
  616POPC   C4A12318   6.808  39.098   7.655
  616POPC   C1B12319   6.478  39.376   8.791
  616POPC   C2B12320   6.552  39.161   8.381
  616POPC   C3B12321   6.418  39.266   7.951
  616POPC   C4B12322   6.342  38.940   7.638
  617POPC   NC312323  27.396  26.898   9.383
  617POPC   PO412324  27.985  27.118   9.419
  617POPC   GL112325  27.762  27.247   9.031
  617POPC   GL212326  27.682  26.924   8.967
  617POPC   C1A12327  27.648  27.176   8.541
  617POPC   D2A12328  27.630  26.832   8.250
  617POPC   C3A12329  27.479  26.959   7.856
  617POPC   C4A12330  27.669  27.005   7.458
  617POPC   C1B12331  27.297  26.846   8.735
  617POPC   C2B12332  27.162  26.668   8.380
  617POPC   C3B12333  27.328  26.495   7.989
  617POPC   C4B12334  27.425  26.563   7.522
  618POPC   NC312335  40.730  39.914   9.575
  618POPC   PO412336  40.205  40.033   9.275
  618POPC   GL112337  40.574  39.899   9.079
  618POPC   GL212338  40.917  40.027   9.114
  618POPC   C1A12339  40.691  39.964   8.666
  618POPC   D2A12340  40.579  40.147   8.277
  618POPC   C3A12341  40.816  39.944   7.977
  618POPC   C4A12342  40.767  39.633   7.691
  618POPC   C1B12343  41.120  40.253   8.752
  618POPC   C2B12344  41.061  40.363   8.288
  618POPC   C3B12345  41.088  40.353   7.812
  618POPC   C4B12346  41.318  40.281   7.408
  619POPC   NC312347  24.101  16.087   9.706
  619POPC   PO412348  23.404  15.903   9.631
  619POPC   GL112349  23.573  15.970   9.210
  619POPC   GL212350  23.940  15.906   9.125
  619POPC   C1A12351  23.573  15.950   8.764
  619POPC   D2A12352  23.766  16.027   8.336
  619POPC   C3A12353  23.465  16.011   8.010
  619POPC   C4A12354  23.566  15.960   7.584
  619POPC   C1B12355  23.989  15.634   8.724
  619POPC   C2B12356  24.091  15.583   8.258
  619POPC   C3B12357  23.965  15.792   7.839
  619POPC   C4B12358  23.903  15.567   7.416
  620POPC   NC312359  38.885  28.353   9.486
  620POPC   PO412360  39.311  28.782   9.717
  620POPC   GL112361  39.389  28.610   9.278
  620POPC   GL212362  39.206  28.356   9.097
  620POPC   C1A12363  39.585  28.572   8.851
  620POPC   D2A12364  39.295  28.401   8.539
  620POPC   C3A12365  39.516  28.357   8.167
  620POPC   C4A12366  39.412  28.518   7.775
  620POPC   C1B12367  38.863  28.233   8.820
  620POPC   C2B12368  38.888  28.073   8.404
  620POPC   C3B12369  39.034  28.235   8.039
  620POPC   C4B12370  38.942  28.383   7.657
  621POPC   NC312371  12.324  16.442   9.558
  621POPC   PO412372  11.836  16.875   9.554
  621POPC   GL112373  12.046  16.739   9.219
  621POPC   GL212374  11.904  16.411   9.260
  621POPC   C1A12375  12.336  16.788   8.870
  621POPC   D2A12376  12.223  16.749   8.451
  621POPC   C3A12377  12.089  17.053   8.197
  621POPC   C4A12378  12.013  16.959   7.783
  621POPC   C1B12379  11.947  16.430   8.818
  621POPC   C2B12380  11.792  16.355   8.424
  621POPC   C3B12381  11.954  16.522   8.069
  621POPC   C4B12382  12.076  16.443   7.648
  622POPC   NC312383   0.243  17.704   9.672
  622POPC   PO412384   0.839  17.348   9.568
  622POPC   GL112385   0.677  17.501   9.194
  622POPC   GL212386   0.404  17.719   9.199
  622POPC   C1A12387   0.824  17.366   8.789
  622POPC   D2A12388   0.955  17.523   8.387
  622POPC   C3A12389   0.670  17.469   8.042
  622POPC   C4A12390   0.668  17.305   7.626
  622POPC   C1B12391   0.201  17.946   8.878
  622POPC   C2B12392   0.102  18.058   8.414
  622POPC   C3B12393   0.108  17.861   7.991
  622POPC   C4B12394   0.207  17.443   7.773
  623POPC   NC312395  41.961  42.157   9.413
  623POPC   PO412396  41.489  42.666   9.469
  623POPC   GL112397  41.379  42.332   9.158
  623POPC   GL212398  41.355  42.018   9.339
  623POPC   C1A12399  41.530  42.224   8.733
  623POPC   D2A12400  41.866  42.287   8.444
  623POPC   C3A12401  41.689  42.477   8.073
  623POPC   C4A12402  41.241  42.490   7.912
  623POPC   C1B12403  41.238  41.861   8.931
  623POPC   C2B12404  41.266  41.824   8.480
  623POPC   C3B12405  41.470  42.012   8.128
  623POPC   C4B12406  41.328  42.038   7.703
  624POPC   NC312407  20.875   7.335   9.425
  624POPC   PO412408  20.570   7.949   9.417
  624POPC   GL112409  20.635   7.623   9.096
  624POPC   GL212410  20.401   7.354   9.120
  624POPC   C1A12411  20.761   7.346   8.744
  624POPC   D2A12412  20.635   7.417   8.330
  624POPC   C3A12413  20.971   7.370   8.003
  624POPC   C4A12414  21.153   7.611   7.656
  624POPC   C1B12415  20.290   7.134   8.712
  624POPC   C2B12416  20.333   6.989   8.272
  624POPC   C3B12417  20.450   7.206   7.902
  624POPC   C4B12418  20.678   7.341   7.544
  625POPC   NC312419  19.734  25.230   9.479
  625POPC   PO412420  20.311  25.579   9.551
  625POPC   GL112421  20.034  25.458   9.147
  625POPC   GL212422  19.639  25.411   9.026
  625POPC   C1A12423  19.994  25.220   8.726
  625POPC   D2A12424  19.831  25.303   8.304
  625POPC   C3A12425  19.977  25.057   7.979
  625POPC   C4A12426  20.230  24.673   7.944
  625POPC   C1B12427  19.495  25.096   8.701
  625POPC   C2B12428  19.375  25.023   8.285
  625POPC   C3B12429  19.477  25.044   7.866
  625POPC   C4B12430  19.523  25.197   7.466
  626POPC   NC312431  23.435  34.470   9.511
  626POPC   PO412432  23.932  34.850   9.241
  626POPC   GL112433  23.683  34.621   9.035
  626POPC   GL212434  23.740  34.290   9.134
  626POPC   C1A12435  23.767  34.594   8.621
  626POPC   D2A12436  23.563  34.725   8.283
  626POPC   C3A12437  23.783  34.676   7.910
  626POPC   C4A12438  23.659  34.909   7.547
  626POPC   C1B12439  23.588  34.142   8.748
  626POPC   C2B12440  23.650  34.191   8.305
  626POPC   C3B12441  23.407  34.322   7.979
  626POPC   C4B12442  23.491  34.432   7.564
  627POPC   NC312443  18.590  37.292   9.528
  627POPC   PO412444  18.279  37.927   9.605
  627POPC   GL112445  18.200  37.677   9.263
  627POPC   GL212446  18.522  37.759   9.179
  627POPC   C1A12447  18.226  37.655   8.787
  627POPC   D2A12448  18.464  37.726   8.403
  627POPC   C3A12449  18.263  37.800   7.979
  627POPC   C4A12450  18.219  37.630   7.558
  627POPC   C1B12451  18.648  38.019   8.802
  627POPC   C2B12452  18.714  38.174   8.361
  627POPC   C3B12453  18.677  38.119   7.892
  627POPC   C4B12454  18.488  38.036   7.471
  628POPC   NC312455  17.686  28.567   9.720
  628POPC   PO412456  17.267  28.101   9.684
  628POPC   GL112457  17.568  28.308   9.289
  628POPC   GL212458  17.676  28.659   9.211
  628POPC   C1A12459  17.616  28.300   8.792
  628POPC   D2A12460  17.242  28.273   8.446
  628POPC   C3A12461  17.301  28.186   7.980
  628POPC   C4A12462  17.691  28.097   7.751
  628POPC   C1B12463  17.989  28.703   8.888
  628POPC   C2B12464  17.963  28.564   8.479
  628POPC   C3B12465  17.655  28.493   8.155
  628POPC   C4B12466  17.739  28.614   7.722
  629POPC   NC312467  26.389  38.265   9.412
  629POPC   PO412468  26.884  38.807   9.455
  629POPC   GL112469  26.775  38.642   9.122
  629POPC   GL212470  26.449  38.700   9.142
  629POPC   C1A12471  27.046  38.715   8.737
  629POPC   D2A12472  27.278  38.816   8.384
  629POPC   C3A12473  27.108  38.699   8.001
  629POPC   C4A12474  27.008  38.688   7.568
  629POPC   C1B12475  26.558  38.448   8.738
  629POPC   C2B12476  26.793  38.498   8.352
  629POPC   C3B12477  26.648  38.500   7.919
  629POPC   C4B12478  26.828  38.182   7.683
  630POPC   NC312479  16.511  16.020   9.767
  630POPC   PO412480  15.944  16.174   9.424
  630POPC   GL112481  15.769  16.147   9.062
  630POPC   GL212482  15.869  15.833   8.945
  630POPC   C1A12483  15.746  16.248   8.636
  630POPC   D2A12484  15.950  16.178   8.258
  630POPC   C3A12485  15.785  16.219   7.876
  630POPC   C4A12486  15.903  15.952   7.535
  630POPC   C1B12487  16.223  16.046   8.673
  630POPC   C2B12488  16.452  16.074   8.262
  630POPC   C3B12489  16.322  16.099   7.812
  630POPC   C4B12490  16.406  15.866   7.405
  631POPC   NC312491   2.857   3.666   9.412
  631POPC   PO412492   2.929   3.114   9.659
  631POPC   GL112493   2.911   3.253   9.143
  631POPC   GL212494   3.177   3.484   8.939
  631POPC   C1A12495   2.728   3.421   8.705
  631POPC   D2A12496   2.632   3.722   8.321
  631POPC   C3A12497   2.740   3.722   7.875
  631POPC   C4A12498   2.418   3.576   7.585
  631POPC   C1B12499   3.109   3.067   8.724
  631POPC   C2B12500   2.800   3.006   8.422
  631POPC   C3B12501   2.666   3.252   8.099
  631POPC   C4B12502   2.502   3.103   7.752
  632POPC   NC312503  27.412  28.598   9.727
  632POPC   PO412504  27.641  28.040   9.471
  632POPC   GL112505  27.440  28.197   9.103
  632POPC   GL212506  27.484  28.546   9.173
  632POPC   C1A12507  27.535  28.129   8.665
  632POPC   D2A12508  27.637  28.056   8.236
  632POPC   C3A12509  27.407  28.224   7.924
  632POPC   C4A12510  27.504  28.380   7.534
  632POPC   C1B12511  27.608  28.628   8.755
  632POPC   C2B12512  27.497  28.534   8.332
  632POPC   C3B12513  27.494  28.745   7.966
  632POPC   C4B12514  27.418  28.905   7.571
  633POPC   NC312515  11.526  22.702   9.501
  633POPC   PO412516  11.973  22.251   9.598
  633POPC   GL112517  11.723  22.196   9.206
  633POPC   GL212518  11.766  21.862   9.095
  633POPC   C1A12519  11.691  22.247   8.723
  633POPC   D2A12520  11.911  22.056   8.356
  633POPC   C3A12521  11.967  22.205   7.904
  633POPC   C4A12522  11.883  22.348   7.473
  633POPC   C1B12523  12.136  22.006   8.829
  633POPC   C2B12524  12.418  21.975   8.435
  633POPC   C3B12525  12.451  22.011   7.943
  633POPC   C4B12526  12.328  22.102   7.481
  634POPC   NC312527   4.256   8.490   9.509
  634POPC   PO412528   4.739   8.079   9.556
  634POPC   GL112529   4.621   8.166   9.168
  634POPC   GL212530   4.683   8.519   9.174
  634POPC   C1A12531   4.492   7.913   8.793
  634POPC   D2A12532   4.597   7.704   8.401
  634POPC   C3A12533   4.430   7.964   8.077
  634POPC   C4A12534   4.559   8.190   7.743
  634POPC   C1B12535   4.357   8.486   8.850
  634POPC   C2B12536   4.380   8.321   8.444
  634POPC   C3B12537   4.247   8.497   8.053
  634POPC   C4B12538   3.982   8.725   7.719
  635POPC   NC312539  37.166  12.717   9.395
  635POPC   PO412540  36.567  12.831   9.384
  635POPC   GL112541  36.742  12.871   9.017
  635POPC   GL212542  36.575  13.171   8.971
  635POPC   C1A12543  36.933  12.684   8.663
  635POPC   D2A12544  37.124  12.418   8.335
  635POPC   C3A12545  37.013  12.663   7.959
  635POPC   C4A12546  37.227  12.679   7.584
  635POPC   C1B12547  36.740  13.201   8.602
  635POPC   C2B12548  36.598  13.325   8.233
  635POPC   C3B12549  36.693  13.109   7.870
  635POPC   C4B12550  36.653  13.124   7.425
  636POPC   NC312551  37.238   5.546   9.326
  636POPC   PO412552  37.823   5.548   9.499
  636POPC   GL112553  37.703   5.680   9.113
  636POPC   GL212554  38.038   5.600   9.056
  636POPC   C1A12555  37.453   5.838   8.743
  636POPC   D2A12556  37.307   6.189   8.446
  636POPC   C3A12557  37.224   6.209   7.975
  636POPC   C4A12558  37.529   6.322   7.669
  636POPC   C1B12559  37.971   5.884   8.740
  636POPC   C2B12560  37.806   5.752   8.378
  636POPC   C3B12561  37.672   5.998   8.075
  636POPC   C4B12562  37.948   6.003   7.765
  637POPC   NC312563  37.946  33.706   9.342
  637POPC   PO412564  37.713  34.156   9.703
  637POPC   GL112565  37.699  34.095   9.174
  637POPC   GL212566  37.503  33.793   9.058
  637POPC   C1A12567  37.989  34.008   8.765
  637POPC   D2A12568  38.227  33.773   8.428
  637POPC   C3A12569  37.989  33.848   8.044
  637POPC   C4A12570  37.844  33.723   7.622
  637POPC   C1B12571  37.489  34.021   8.680
  637POPC   C2B12572  37.525  33.862   8.266
  637POPC   C3B12573  37.360  33.761   7.856
  637POPC   C4B12574  37.396  34.047   7.531
  638POPC   NC312575  22.337  38.831   9.681
  638POPC   PO412576  21.776  38.353   9.513
  638POPC   GL112577  22.053  38.282   9.158
  638POPC   GL212578  22.290  38.536   9.250
  638POPC   C1A12579  22.318  38.331   8.776
  638POPC   D2A12580  22.454  38.522   8.404
  638POPC   C3A12581  22.482  38.276   8.016
  638POPC   C4A12582  22.127  38.122   7.802
  638POPC   C1B12583  22.031  38.745   8.927
  638POPC   C2B12584  21.904  38.612   8.540
  638POPC   C3B12585  21.990  38.488   8.145
  638POPC   C4B12586  22.150  38.657   7.788
  639POPC   NC312587  19.788   6.160   9.811
  639POPC   PO412588  19.755   6.689   9.361
  639POPC   GL112589  19.966   6.696   8.972
  639POPC   GL212590  20.230   6.507   9.047
  639POPC   C1A12591  19.906   6.842   8.572
  639POPC   D2A12592  19.580   6.648   8.403
  639POPC   C3A12593  19.623   6.653   7.984
  639POPC   C4A12594  19.618   6.567   7.571
  639POPC   C1B12595  20.081   6.372   8.594
  639POPC   C2B12596  20.129   6.525   8.173
  639POPC   C3B12597  20.079   6.769   7.782
  639POPC   C4B12598  20.040   6.726   7.332
  640POPC   NC312599  11.215  29.395   9.527
  640POPC   PO412600  11.572  28.848   9.485
  640POPC   GL112601  11.388  29.081   9.167
  640POPC   GL212602  11.037  29.187   9.092
  640POPC   C1A12603  11.548  29.148   8.803
  640POPC   D2A12604  11.443  29.071   8.413
  640POPC   C3A12605  11.624  29.262   8.079
  640POPC   C4A12606  11.532  29.275   7.658
  640POPC   C1B12607  11.116  29.401   8.698
  640POPC   C2B12608  11.189  29.486   8.263
  640POPC   C3B12609  11.072  29.316   7.876
  640POPC   C4B12610  10.711  29.379   7.587
  641POPC   NC312611   0.299  30.319   9.418
  641POPC   PO412612   0.482  30.982   9.651
  641POPC   GL112613   0.530  31.000   9.217
  641POPC   GL212614   0.278  30.757   9.109
  641POPC   C1A12615   0.718  30.815   8.854
  641POPC   D2A12616   0.616  30.788   8.428
  641POPC   C3A12617   0.302  30.497   8.306
  641POPC   C4A12618   0.339  30.396   7.883
  641POPC   C1B12619   0.242  31.048   8.770
  641POPC   C2B12620   0.134  30.991   8.350
  641POPC   C3B12621   0.368  30.906   7.984
  641POPC   C4B12622   0.242  30.854   7.563
  642POPC   NC312623  21.242  37.371   9.220
  642POPC   PO412624  21.320  36.716   9.245
  642POPC   GL112625  21.544  36.778   8.916
  642POPC   GL212626  21.711  37.039   9.112
  642POPC   C1A12627  21.279  36.809   8.534
  642POPC   D2A12628  21.124  37.133   8.234
  642POPC   C3A12629  21.309  36.980   7.880
  642POPC   C4A12630  21.645  36.691   7.828
  642POPC   C1B12631  21.750  37.300   8.729
  642POPC   C2B12632  21.933  37.202   8.296
  642POPC   C3B12633  21.781  37.222   7.851
  642POPC   C4B12634  21.614  37.461   7.497
  643POPC   NC312635   1.476  32.336   9.469
  643POPC   PO412636   1.912  31.887   9.567
  643POPC   GL112637   1.948  32.037   9.118
  643POPC   GL212638   1.720  32.307   9.022
  643POPC   C1A12639   2.121  32.159   8.684
  643POPC   D2A12640   2.266  32.435   8.330
  643POPC   C3A12641   2.110  32.283   7.919
  643POPC   C4A12642   2.111  31.843   7.836
  643POPC   C1B12643   1.597  32.162   8.629
  643POPC   C2B12644   1.768  32.068   8.244
  643POPC   C3B12645   1.579  32.045   7.853
  643POPC   C4B12646   1.626  32.213   7.485
  644POPC   NC312647  21.185  41.982   9.665
  644POPC   PO412648  21.442  42.602   9.616
  644POPC   GL112649  21.302  42.360   9.290
  644POPC   GL212650  21.611  42.163   9.329
  644POPC   C1A12651  21.148  42.396   8.849
  644POPC   D2A12652  21.042  42.112   8.487
  644POPC   C3A12653  21.033  42.329   8.101
  644POPC   C4A12654  21.210  42.146   7.747
  644POPC   C1B12655  21.664  42.330   8.927
  644POPC   C2B12656  21.548  42.223   8.494
  644POPC   C3B12657  21.571  42.392   8.068
  644POPC   C4B12658  21.927  42.606   7.890
  645POPC   NC312659  18.978  16.254   9.451
  645POPC   PO412660  19.245  15.630   9.547
  645POPC   GL112661  19.053  15.846   9.131
  645POPC   GL212662  18.733  16.097   9.012
  645POPC   C1A12663  19.149  16.016   8.703
  645POPC   D2A12664  19.304  16.115   8.281
  645POPC   C3A12665  19.479  15.975   7.869
  645POPC   C4A12666  19.257  15.815   7.479
  645POPC   C1B12667  18.655  15.874   8.627
  645POPC   C2B12668  18.679  15.899   8.145
  645POPC   C3B12669  18.982  16.042   7.880
  645POPC   C4B12670  19.026  16.313   7.552
  646POPC   NC312671  36.609   8.154   9.541
  646POPC   PO412672  37.149   7.769   9.528
  646POPC   GL112673  36.871   7.847   9.233
  646POPC   GL212674  37.004   8.214   9.220
  646POPC   C1A12675  36.820   7.942   8.819
  646POPC   D2A12676  36.632   7.884   8.413
  646POPC   C3A12677  36.538   8.212   8.139
  646POPC   C4A12678  36.576   8.019   7.773
  646POPC   C1B12679  37.116   8.405   8.835
  646POPC   C2B12680  36.975   8.279   8.441
  646POPC   C3B12681  37.040   8.152   8.026
  646POPC   C4B12682  36.905   8.441   7.719
  647POPC   NC312683  20.669  25.482   9.840
  647POPC   PO412684  20.820  24.916   9.556
  647POPC   GL112685  20.543  24.997   9.198
  647POPC   GL212686  20.568  25.347   9.155
  647POPC   C1A12687  20.496  25.120   8.727
  647POPC   D2A12688  20.366  24.939   8.351
  647POPC   C3A12689  20.470  25.159   7.954
  647POPC   C4A12690  20.548  25.161   7.475
  647POPC   C1B12691  20.831  25.506   8.780
  647POPC   C2B12692  20.814  25.400   8.346
  647POPC   C3B12693  20.948  25.624   7.976
  647POPC   C4B12694  20.946  25.557   7.496
  648POPC   NC312695  19.613  30.286   9.470
  648POPC   PO412696  19.767  29.601   9.474
  648POPC   GL112697  19.680  29.836   9.158
  648POPC   GL212698  19.949  30.029   9.178
  648POPC   C1A12699  19.649  29.677   8.750
  648POPC   D2A12700  19.843  29.447   8.429
  648POPC   C3A12701  20.014  29.656   8.096
  648POPC   C4A12702  19.828  29.782   7.717
  648POPC   C1B12703  19.845  30.144   8.782
  648POPC   C2B12704  19.632  30.101   8.404
  648POPC   C3B12705  19.804  30.264   8.026
  648POPC   C4B12706  19.727  30.265   7.584
  649POPC   NC312707   1.657   6.039   9.500
  649POPC   PO412708   1.423   5.401   9.339
  649POPC   GL112709   1.841   5.646   9.166
  649POPC   GL212710   2.065   5.932   9.214
  649POPC   C1A12711   2.079   5.768   8.742
  649POPC   D2A12712   1.900   5.852   8.347
  649POPC   C3A12713   2.084   5.894   7.944
  649POPC   C4A12714   2.181   5.651   7.540
  649POPC   C1B12715   1.882   6.226   8.867
  649POPC   C2B12716   1.913   6.369   8.445
  649POPC   C3B12717   1.681   6.222   8.074
  649POPC   C4B12718   1.634   5.968   7.714
  650POPC   NC312719  21.993  26.858   9.565
  650POPC   PO412720  22.639  27.166   9.658
  650POPC   GL112721  22.478  26.868   9.321
  650POPC   GL212722  22.196  27.012   9.109
  650POPC   C1A12723  22.496  26.617   8.899
  650POPC   D2A12724  22.466  26.407   8.444
  650POPC   C3A12725  22.220  26.573   8.069
  650POPC   C4A12726  21.951  26.526   7.696
  650POPC   C1B12727  21.912  26.983   8.723
  650POPC   C2B12728  21.905  26.925   8.254
  650POPC   C3B12729  22.040  27.003   7.812
  650POPC   C4B12730  22.002  27.068   7.325
  651POPC   NC312731  20.177  44.294   9.392
  651POPC   PO412732  20.608  44.726   9.619
  651POPC   GL112733  20.509  44.609   9.206
  651POPC   GL212734  20.298  44.886   9.129
  651POPC   C1A12735  20.450  44.569   8.746
  651POPC   D2A12736  20.657  44.440   8.358
  651POPC   C3A12737  20.416  44.390   7.951
  651POPC   C4A12738  20.375  44.431   7.479
  651POPC   C1B12739  20.725  44.967   8.941
  651POPC   C2B12740  20.728  44.952   8.497
  651POPC   C3B12741  20.451  44.901   8.137
  651POPC   C4B12742  20.470  44.970   7.694
  652POPC   NC312743   2.632   9.310   9.278
  652POPC   PO412744   3.020   8.743   9.420
  652POPC   GL112745   3.095   9.000   9.059
  652POPC   GL212746   2.804   8.854   8.936
  652POPC   C1A12747   3.065   9.096   8.587
  652POPC   D2A12748   2.767   8.893   8.289
  652POPC   C3A12749   2.681   9.091   7.849
  652POPC   C4A12750   2.630   9.201   7.390
  652POPC   C1B12751   2.596   8.543   8.694
  652POPC   C2B12752   2.388   8.541   8.301
  652POPC   C3B12753   2.586   8.570   7.926
  652POPC   C4B12754   2.522   8.686   7.481
  653POPC   NC312755  18.471  28.047   9.464
  653POPC   PO412756  18.228  28.747   9.659
  653POPC   GL112757  18.316  28.504   9.248
  653POPC   GL212758  18.083  28.260   9.126
  653POPC   C1A12759  18.442  28.467   8.774
  653POPC   D2A12760  18.403  28.316   8.321
  653POPC   C3A12761  18.146  28.451   7.992
  653POPC   C4A12762  18.198  28.420   7.545
  653POPC   C1B12763  18.090  28.082   8.702
  653POPC   C2B12764  17.923  28.070   8.272
  653POPC   C3B12765  18.172  27.944   7.902
  653POPC   C4B12766  18.119  27.923   7.449
  654POPC   NC312767   1.075  24.336   9.521
  654POPC   PO412768   1.638  24.288   9.247
  654POPC   GL112769   1.482  24.692   9.152
  654POPC   GL212770   1.169  24.890   9.211
  654POPC   C1A12771   1.480  24.811   8.752
  654POPC   D2A12772   1.433  24.414   8.524
  654POPC   C3A12773   1.070  24.220   8.329
  654POPC   C4A12774   1.067  24.269   7.878
  654POPC   C1B12775   1.054  24.581   8.896
  654POPC   C2B12776   0.986  24.708   8.494
  654POPC   C3B12777   0.799  24.617   8.137
  654POPC   C4B12778   0.892  24.761   7.733
  655POPC   NC312779  36.134  14.817   9.327
  655POPC   PO412780  35.709  14.232   9.451
  655POPC   GL112781  36.022  14.336   9.159
  655POPC   GL212782  36.362  14.195   9.217
  655POPC   C1A12783  36.010  14.473   8.736
  655POPC   D2A12784  36.045  14.204   8.381
  655POPC   C3A12785  35.930  14.368   7.994
  655POPC   C4A12786  36.172  14.401   7.686
  655POPC   C1B12787  36.478  14.489   8.890
  655POPC   C2B12788  36.489  14.494   8.468
  655POPC   C3B12789  36.471  14.279   8.076
  655POPC   C4B12790  36.676  14.355   7.683
  656POPC   NC312791  30.275  23.350   9.297
  656POPC   PO412792  30.779  23.828   9.581
  656POPC   GL112793  30.696  23.713   9.162
  656POPC   GL212794  30.665  23.405   8.979
  656POPC   C1A12795  30.817  23.800   8.730
  656POPC   D2A12796  30.691  23.622   8.361
  656POPC   C3A12797  30.894  23.780   8.024
  656POPC   C4A12798  30.790  23.908   7.619
  656POPC   C1B12799  30.997  23.288   8.672
  656POPC   C2B12800  31.055  23.302   8.222
  656POPC   C3B12801  30.894  23.164   7.861
  656POPC   C4B12802  30.498  23.255   7.700
  657POPC   NC312803  33.175  44.911   9.225
  657POPC   PO412804  32.967  44.304   9.519
  657POPC   GL112805  33.124  44.401   9.138
  657POPC   GL212806  32.805  44.474   9.043
  657POPC   C1A12807  33.218  44.517   8.688
  657POPC   D2A12808  32.992  44.360   8.311
  657POPC   C3A12809  33.150  44.497   7.915
  657POPC   C4A12810  33.408  44.307   7.620
  657POPC   C1B12811  32.737  44.657   8.662
  657POPC   C2B12812  32.960  44.878   8.331
  657POPC   C3B12813  33.048   0.038   7.910
  657POPC   C4B12814  32.918   0.055   7.458
  658POPC   NC312815   4.725   5.206   9.828
  658POPC   PO412816   4.121   4.992   9.570
  658POPC   GL112817   4.181   4.824   9.177
  658POPC   GL212818   4.350   5.096   9.015
  658POPC   C1A12819   4.170   4.640   8.785
  658POPC   D2A12820   4.299   4.919   8.468
  658POPC   C3A12821   4.307   4.737   8.079
  658POPC   C4A12822   4.115   4.817   7.687
  658POPC   C1B12823   4.666   5.212   8.677
  658POPC   C2B12824   4.675   5.199   8.231
  658POPC   C3B12825   4.375   5.209   7.898
  658POPC   C4B12826   4.476   5.094   7.494
  659POPC   NC312827  28.348  33.370   9.485
  659POPC   PO412828  28.275  32.791   9.595
  659POPC   GL112829  28.362  32.937   9.195
  659POPC   GL212830  28.663  32.707   9.195
  659POPC   C1A12831  28.293  33.202   8.809
  659POPC   D2A12832  28.090  33.376   8.420
  659POPC   C3A12833  28.236  33.183   8.018
  659POPC   C4A12834  28.103  33.298   7.595
  659POPC   C1B12835  28.482  32.666   8.784
  659POPC   C2B12836  28.484  32.869   8.408
  659POPC   C3B12837  28.408  32.694   8.019
  659POPC   C4B12838  28.605  32.749   7.630
  660POPC   NC312839  22.579  29.229   9.540
  660POPC   PO412840  21.873  29.121   9.552
  660POPC   GL112841  22.087  29.322   9.241
  660POPC   GL212842  22.324  29.095   9.113
  660POPC   C1A12843  21.963  29.301   8.820
  660POPC   D2A12844  22.175  29.110   8.475
  660POPC   C3A12845  22.071  29.305   8.090
  660POPC   C4A12846  21.893  29.172   7.707
  660POPC   C1B12847  22.458  29.414   8.807
  660POPC   C2B12848  22.659  29.271   8.423
  660POPC   C3B12849  22.595  29.383   8.009
  660POPC   C4B12850  22.596  29.510   7.589
  661POPC   NC312851   0.154  38.359   9.525
  661POPC   PO412852   0.684  38.692   9.471
  661POPC   GL112853   0.676  38.311   9.188
  661POPC   GL212854   0.372  38.441   9.062
  661POPC   C1A12855   0.687  38.173   8.734
  661POPC   D2A12856   0.503  38.416   8.401
  661POPC   C3A12857   0.597  38.362   7.980
  661POPC   C4A12858   0.765  38.641   7.672
  661POPC   C1B12859   0.135  38.270   8.737
  661POPC   C2B12860   0.129  38.072   8.335
  661POPC   C3B12861   0.104  38.263   7.907
  661POPC   C4B12862   0.074  38.279   7.464
  662POPC   NC312863  10.394  26.676   9.612
  662POPC   PO412864  10.990  26.562   9.499
  662POPC   GL112865  10.725  26.833   9.214
  662POPC   GL212866  10.473  26.619   9.083
  662POPC   C1A12867  10.653  27.016   8.778
  662POPC   D2A12868  10.366  27.039   8.411
  662POPC   C3A12869  10.513  26.866   8.038
  662POPC   C4A12870  10.691  27.072   7.686
  662POPC   C1B12871  10.437  26.561   8.626
  662POPC   C2B12872  10.098  26.492   8.323
  662POPC   C3B12873   9.985  26.751   7.970
  662POPC   C4B12874  10.139  27.048   7.686
  663POPC   NC312875   5.924  10.934   9.432
  663POPC   PO412876   5.612  10.375   9.699
  663POPC   GL112877   5.718  10.468   9.234
  663POPC   GL212878   5.501  10.750   9.209
  663POPC   C1A12879   5.923  10.363   8.795
  663POPC   D2A12880   5.841  10.176   8.356
  663POPC   C3A12881   5.986  10.352   7.977
  663POPC   C4A12882   6.124  10.286   7.560
  663POPC   C1B12883   5.595  10.779   8.784
  663POPC   C2B12884   5.782  10.726   8.389
  663POPC   C3B12885   5.684  10.779   7.979
  663POPC   C4B12886   5.698  10.572   7.598
  664POPC   NC312887   1.913  27.641   9.527
  664POPC   PO412888   2.501  27.879   9.313
  664POPC   GL112889   2.068  27.837   9.067
  664POPC   GL212890   1.843  27.524   9.063
  664POPC   C1A12891   1.902  27.758   8.620
  664POPC   D2A12892   1.800  27.636   8.190
  664POPC   C3A12893   2.140  27.656   7.908
  664POPC   C4A12894   2.293  28.019   7.705
  664POPC   C1B12895   1.881  27.258   8.775
  664POPC   C2B12896   1.921  27.182   8.375
  664POPC   C3B12897   1.956  27.159   7.969
  664POPC   C4B12898   1.857  27.329   7.616
  665POPC   NC312899  35.094   6.297   9.614
  665POPC   PO412900  35.397   5.775   9.465
  665POPC   GL112901  35.494   6.100   9.196
  665POPC   GL212902  35.762   5.940   9.059
  665POPC   C1A12903  35.458   6.158   8.720
  665POPC   D2A12904  35.422   6.319   8.301
  665POPC   C3A12905  35.150   6.069   8.061
  665POPC   C4A12906  34.777   6.078   7.820
  665POPC   C1B12907  35.590   5.669   8.747
  665POPC   C2B12908  35.528   5.792   8.304
  665POPC   C3B12909  35.677   5.946   7.906
  665POPC   C4B12910  35.711   5.772   7.500
  666POPC   NC312911  34.973  39.433   9.798
  666POPC   PO412912  35.556  39.741   9.555
  666POPC   GL112913  35.460  39.397   9.225
  666POPC   GL212914  35.208  39.108   9.213
  666POPC   C1A12915  35.573  39.163   8.822
  666POPC   D2A12916  35.479  39.302   8.388
  666POPC   C3A12917  35.713  39.345   8.006
  666POPC   C4A12918  35.516  39.342   7.605
  666POPC   C1B12919  35.047  39.210   8.785
  666POPC   C2B12920  34.968  39.308   8.361
  666POPC   C3B12921  35.156  39.179   7.971
  666POPC   C4B12922  34.999  39.127   7.554
  667POPC   NC312923  23.526   4.890   9.625
  667POPC   PO412924  23.902   5.350   9.423
  667POPC   GL112925  23.690   5.099   9.156
  667POPC   GL212926  23.357   4.980   9.158
  667POPC   C1A12927  23.766   5.060   8.752
  667POPC   D2A12928  23.651   5.303   8.430
  667POPC   C3A12929  23.609   5.144   8.028
  667POPC   C4A12930  23.794   4.807   7.810
  667POPC   C1B12931  23.246   4.846   8.761
  667POPC   C2B12932  23.283   4.898   8.336
  667POPC   C3B12933  23.268   4.764   7.905
  667POPC   C4B12934  23.389   4.823   7.498
  668POPC   NC312935  26.267  29.188   9.791
  668POPC   PO412936  25.707  28.958   9.445
  668POPC   GL112937  25.910  29.197   9.145
  668POPC   GL212938  26.200  29.143   8.936
  668POPC   C1A12939  25.741  29.241   8.773
  668POPC   D2A12940  26.005  29.207   8.442
  668POPC   C3A12941  26.065  28.966   8.074
  668POPC   C4A12942  26.105  29.113   7.673
  668POPC   C1B12943  26.353  28.868   8.642
  668POPC   C2B12944  26.505  28.748   8.241
  668POPC   C3B12945  26.446  28.738   7.783
  668POPC   C4B12946  26.443  28.957   7.336
  669POPC   NC312947  18.048   6.439   9.506
  669POPC   PO412948  18.288   7.139   9.487
  669POPC   GL112949  18.400   6.727   9.241
  669POPC   GL212950  18.666   6.475   9.258
  669POPC   C1A12951  18.350   6.557   8.801
  669POPC   D2A12952  18.193   6.587   8.347
  669POPC   C3A12953  18.221   6.681   7.888
  669POPC   C4A12954  18.099   6.386   7.588
  669POPC   C1B12955  18.788   6.293   8.871
  669POPC   C2B12956  18.632   6.271   8.452
  669POPC   C3B12957  18.477   6.250   8.047
  669POPC   C4B12958  18.607   6.353   7.645
  670POPC   NC312959  18.158   5.687   9.680
  670POPC   PO412960  18.469   6.219   9.642
  670POPC   GL112961  18.257   6.037   9.254
  670POPC   GL212962  18.147   5.671   9.161
  670POPC   C1A12963  18.345   6.028   8.825
  670POPC   D2A12964  18.217   5.936   8.418
  670POPC   C3A12965  18.444   5.743   8.068
  670POPC   C4A12966  18.314   5.916   7.655
  670POPC   C1B12967  17.871   5.787   8.796
  670POPC   C2B12968  17.728   5.792   8.353
  670POPC   C3B12969  17.955   5.643   7.967
  670POPC   C4B12970  18.219   5.400   7.662
  671POPC   NC312971  37.045  27.669   9.724
  671POPC   PO412972  37.018  28.452   9.624
  671POPC   GL112973  36.943  28.433   9.175
  671POPC   GL212974  37.292  28.561   9.160
  671POPC   C1A12975  36.755  28.562   8.783
  671POPC   D2A12976  36.619  28.379   8.388
  671POPC   C3A12977  36.905  28.137   8.199
  671POPC   C4A12978  36.982  28.136   7.791
  671POPC   C1B12979  37.346  28.435   8.762
  671POPC   C2B12980  37.128  28.572   8.397
  671POPC   C3B12981  36.927  28.622   8.008
  671POPC   C4B12982  37.195  28.572   7.647
  672POPC   NC312983  37.680   3.271   9.560
  672POPC   PO412984  37.935   3.836   9.700
  672POPC   GL112985  37.840   3.674   9.247
  672POPC   GL212986  37.515   3.570   9.118
  672POPC   C1A12987  37.984   3.552   8.807
  672POPC   D2A12988  37.827   3.526   8.336
  672POPC   C3A12989  37.798   3.347   7.899
  672POPC   C4A12990  38.018   3.322   7.470
  672POPC   C1B12991  37.598   3.865   8.730
  672POPC   C2B12992  37.456   3.922   8.295
  672POPC   C3B12993  37.680   3.859   7.906
  672POPC   C4B12994  37.657   3.669   7.488
  673POPC   NC312995  20.295  33.399   9.358
  673POPC   PO412996  19.880  32.901   9.500
  673POPC   GL112997  19.837  33.069   9.137
  673POPC   GL212998  19.746  33.389   9.213
  673POPC   C1A12999  19.685  32.993   8.751
  673POPC   D2A13000  19.813  33.145   8.386
  673POPC   C3A13001  19.626  32.932   8.081
  673POPC   C4A13002  19.734  33.081   7.676
  673POPC   C1B13003  19.848  33.474   8.787
  673POPC   C2B13004  19.823  33.659   8.385
  673POPC   C3B13005  19.865  33.478   7.983
  673POPC   C4B13006  19.764  33.599   7.576
  674POPC   NC313007   6.204   5.622   9.635
  674POPC   PO413008   6.833   5.780   9.522
  674POPC   GL113009   6.847   5.783   9.122
  674POPC   GL213010   7.002   5.447   9.126
  674POPC   C1A13011   6.601   5.953   8.766
  674POPC   D2A13012   6.456   5.794   8.366
  674POPC   C3A13013   6.612   5.898   7.963
  674POPC   C4A13014   6.480   6.188   7.659
  674POPC   C1B13015   6.821   5.487   8.716
  674POPC   C2B13016   6.927   5.575   8.301
  674POPC   C3B13017   6.915   5.493   7.878
  674POPC   C4B13018   6.640   5.396   7.552
  675POPC   NC313019  36.852  23.215   9.451
  675POPC   PO413020  37.253  22.601   9.474
  675POPC   GL113021  36.988  22.612   9.111
  675POPC   GL213022  36.778  22.878   9.090
  675POPC   C1A13023  36.956  22.725   8.650
  675POPC   D2A13024  36.871  22.853   8.238
  675POPC   C3A13025  36.934  22.600   7.919
  675POPC   C4A13026  36.646  22.750   7.638
  675POPC   C1B13027  36.766  23.195   8.743
  675POPC   C2B13028  36.576  23.249   8.335
  675POPC   C3B13029  36.407  23.092   7.950
  675POPC   C4B13030  36.533  23.231   7.536
  676POPC   NC313031  29.506   5.535   9.443
  676POPC   PO413032  29.888   5.929   9.564
  676POPC   GL113033  29.995   5.951   9.151
  676POPC   GL213034  29.927   5.640   9.001
  676POPC   C1A13035  29.986   6.073   8.725
  676POPC   D2A13036  29.764   5.814   8.423
  676POPC   C3A13037  29.738   5.903   7.987
  676POPC   C4A13038  29.864   6.224   7.676
  676POPC   C1B13039  30.217   5.643   8.624
  676POPC   C2B13040  30.226   5.927   8.238
  676POPC   C3B13041  30.204   5.856   7.771
  676POPC   C4B13042  30.168   5.516   7.455
  677POPC   NC313043  15.145  27.110   9.581
  677POPC   PO413044  14.940  26.515   9.292
  677POPC   GL113045  15.109  26.750   8.991
  677POPC   GL213046  15.339  26.991   9.127
  677POPC   C1A13047  15.017  26.830   8.582
  677POPC   D2A13048  14.897  27.155   8.330
  677POPC   C3A13049  14.984  26.976   7.947
  677POPC   C4A13050  15.200  26.592   7.815
  677POPC   C1B13051  15.527  26.913   8.701
  677POPC   C2B13052  15.414  27.003   8.260
  677POPC   C3B13053  15.482  26.994   7.804
  677POPC   C4B13054  15.674  27.141   7.427
  678POPC   NC313055  35.055  11.429   9.717
  678POPC   PO413056  35.633  11.126   9.586
  678POPC   GL113057  35.302  11.225   9.252
  678POPC   GL213058  34.966  11.389   9.222
  678POPC   C1A13059  35.370  11.161   8.813
  678POPC   D2A13060  35.619  11.313   8.453
  678POPC   C3A13061  35.500  11.307   8.019
  678POPC   C4A13062  35.653  11.228   7.609
  678POPC   C1B13063  34.871  11.275   8.792
  678POPC   C2B13064  35.086  11.314   8.405
  678POPC   C3B13065  34.976  11.260   8.010
  678POPC   C4B13066  35.158  11.154   7.629
  679POPC   NC313067  29.941  18.505   9.590
  679POPC   PO413068  29.861  17.851   9.561
  679POPC   GL113069  29.758  18.100   9.184
  679POPC   GL213070  29.738  18.482   9.146
  679POPC   C1A13071  29.923  18.134   8.756
  679POPC   D2A13072  29.674  17.976   8.408
  679POPC   C3A13073  29.738  18.163   8.025
  679POPC   C4A13074  30.128  18.324   7.845
  679POPC   C1B13075  29.767  18.715   8.803
  679POPC   C2B13076  30.000  18.599   8.437
  679POPC   C3B13077  29.811  18.674   8.054
  679POPC   C4B13078  29.689  18.554   7.674
  680POPC   NC313079  17.900  24.169   9.392
  680POPC   PO413080  18.267  24.776   9.474
  680POPC   GL113081  18.449  24.752   9.085
  680POPC   GL213082  18.433  24.388   9.063
  680POPC   C1A13083  18.584  24.677   8.655
  680POPC   D2A13084  18.402  24.568   8.274
  680POPC   C3A13085  18.498  24.734   7.881
  680POPC   C4A13086  18.255  24.576   7.556
  680POPC   C1B13087  18.416  24.195   8.644
  680POPC   C2B13088  18.213  24.085   8.241
  680POPC   C3B13089  18.045  24.182   7.803
  680POPC   C4B13090  17.975  24.204   7.333
  681POPC   NC313091  30.316  11.870   9.438
  681POPC   PO413092  29.768  11.509   9.611
  681POPC   GL113093  29.796  12.025   9.442
  681POPC   GL213094  30.044  12.289   9.297
  681POPC   C1A13095  29.644  12.290   9.022
  681POPC   D2A13096  29.617  12.278   8.551
  681POPC   C3A13097  29.743  12.204   8.091
  681POPC   C4A13098  29.650  12.115   7.633
  681POPC   C1B13099  30.087  12.089   8.883
  681POPC   C2B13100  30.120  12.195   8.477
  681POPC   C3B13101  30.247  12.087   8.093
  681POPC   C4B13102  30.225  12.207   7.703
  682POPC   NC313103  24.813   1.654   9.500
  682POPC   PO413104  24.245   2.048   9.532
  682POPC   GL113105  24.285   1.824   9.148
  682POPC   GL213106  24.641   1.861   9.082
  682POPC   C1A13107  24.331   1.926   8.699
  682POPC   D2A13108  24.315   2.238   8.433
  682POPC   C3A13109  24.429   2.058   8.067
  682POPC   C4A13110  24.814   2.112   7.882
  682POPC   C1B13111  24.737   1.603   8.720
  682POPC   C2B13112  24.794   1.770   8.299
  682POPC   C3B13113  24.666   1.637   7.864
  682POPC   C4B13114  24.532   1.591   7.433
  683POPC   NC313115   4.202   9.445   9.622
  683POPC   PO413116   4.593   8.853   9.606
  683POPC   GL113117   4.430   8.977   9.239
  683POPC   GL213118   4.542   9.293   9.276
  683POPC   C1A13119   4.615   8.944   8.816
  683POPC   D2A13120   4.412   8.848   8.433
  683POPC   C3A13121   4.608   8.910   8.065
  683POPC   C4A13122   4.471   8.784   7.715
  683POPC   C1B13123   4.391   9.392   8.907
  683POPC   C2B13124   4.480   9.413   8.496
  683POPC   C3B13125   4.288   9.286   8.139
  683POPC   C4B13126   4.191   9.204   7.739
  684POPC   NC313127  37.231  28.099   9.413
  684POPC   PO413128  37.735  28.508   9.489
  684POPC   GL113129  37.784  28.431   9.106
  684POPC   GL213130  37.638  28.140   9.124
  684POPC   C1A13131  37.984  28.483   8.751
  684POPC   D2A13132  37.762  28.407   8.426
  684POPC   C3A13133  37.891  28.460   8.040
  684POPC   C4A13134  37.685  28.673   7.718
  684POPC   C1B13135  37.386  27.925   8.791
  684POPC   C2B13136  37.385  28.085   8.385
  684POPC   C3B13137  37.412  28.293   8.021
  684POPC   C4B13138  37.454  28.066   7.638
  685POPC   NC313139   0.755  23.577   9.645
  685POPC   PO413140   0.129  23.901   9.526
  685POPC   GL113141   0.375  23.801   9.149
  685POPC   GL213142   0.544  23.454   9.198
  685POPC   C1A13143   0.312  23.860   8.684
  685POPC   D2A13144   0.646  23.893   8.347
  685POPC   C3A13145   0.512  23.775   7.959
  685POPC   C4A13146   0.232  23.958   7.658
  685POPC   C1B13147   0.431  23.256   8.815
  685POPC   C2B13148   0.408  23.406   8.395
  685POPC   C3B13149   0.407  23.241   7.992
  685POPC   C4B13150   0.264  23.448   7.614
  686POPC   NC313151  19.045  39.025   9.713
  686POPC   PO413152  18.603  39.528   9.594
  686POPC   GL113153  19.037  39.408   9.317
  686POPC   GL213154  19.108  39.031   9.223
  686POPC   C1A13155  19.200  39.338   8.848
  686POPC   D2A13156  19.392  39.458   8.449
  686POPC   C3A13157  19.134  39.273   8.064
  686POPC   C4A13158  18.785  39.160   7.769
  686POPC   C1B13159  19.187  38.796   8.853
  686POPC   C2B13160  19.270  38.952   8.457
  686POPC   C3B13161  19.356  38.797   8.070
  686POPC   C4B13162  19.115  38.786   7.701
  687POPC   NC313163  32.825  28.218   9.542
  687POPC   PO413164  32.691  27.521   9.460
  687POPC   GL113165  33.069  27.427   9.233
  687POPC   GL213166  33.104  27.741   9.068
  687POPC   C1A13167  33.199  27.299   8.821
  687POPC   D2A13168  32.992  27.219   8.445
  687POPC   C3A13169  33.142  27.463   8.124
  687POPC   C4A13170  32.921  27.606   7.812
  687POPC   C1B13171  33.028  27.765   8.631
  687POPC   C2B13172  33.008  27.964   8.241
  687POPC   C3B13173  32.930  28.097   7.837
  687POPC   C4B13174  33.225  27.929   7.526
  688POPC   NC313175  41.951  13.247   9.308
  688POPC   PO413176  42.543  12.994   9.588
  688POPC   GL113177  42.472  12.780   9.174
  688POPC   GL213178  42.153  12.842   9.093
  688POPC   C1A13179  42.406  12.611   8.734
  688POPC   D2A13180  42.209  12.695   8.341
  688POPC   C3A13181  42.428  12.617   7.963
  688POPC   C4A13182  42.606  12.940   7.726
  688POPC   C1B13183  42.082  13.064   8.697
  688POPC   C2B13184  42.126  13.184   8.275
  688POPC   C3B13185  42.099  12.986   7.911
  688POPC   C4B13186  41.889  13.205   7.684
  689POPC   NC313187  18.802  18.848   9.513
  689POPC   PO413188  18.459  19.387   9.646
  689POPC   GL113189  18.528  19.180   9.188
  689POPC   GL213190  18.546  18.806   9.085
  689POPC   C1A13191  18.702  19.318   8.768
  689POPC   D2A13192  18.668  19.533   8.351
  689POPC   C3A13193  18.613  19.284   7.960
  689POPC   C4A13194  18.233  19.192   7.726
  689POPC   C1B13195  18.409  18.910   8.680
  689POPC   C2B13196  18.575  18.858   8.278
  689POPC   C3B13197  18.507  18.771   7.838
  689POPC   C4B13198  18.485  18.721   7.397
  690POPC   NC313199  38.553  38.275   9.569
  690POPC   PO413200  38.264  38.822   9.351
  690POPC   GL113201  38.298  38.415   9.123
  690POPC   GL213202  38.633  38.262   9.073
  690POPC   C1A13203  38.308  38.244   8.688
  690POPC   D2A13204  38.385  38.439   8.309
  690POPC   C3A13205  38.453  38.291   7.893
  690POPC   C4A13206  38.164  38.239   7.584
  690POPC   C1B13207  38.642  38.622   8.769
  690POPC   C2B13208  38.823  38.683   8.337
  690POPC   C3B13209  38.760  38.890   7.936
  690POPC   C4B13210  38.806  38.775   7.505
  691POPC   NC313211   0.171  12.791   9.481
  691POPC   PO413212   0.738  13.119   9.540
  691POPC   GL113213   0.469  13.194   9.181
  691POPC   GL213214   0.128  13.284   9.222
  691POPC   C1A13215   0.460  13.027   8.755
  691POPC   D2A13216   0.506  12.726   8.415
  691POPC   C3A13217   0.508  12.864   7.978
  691POPC   C4A13218   0.585  12.631   7.589
  691POPC   C1B13219  44.991  13.250   8.783
  691POPC   C2B13220   0.152  13.126   8.345
  691POPC   C3B13221   0.115  13.195   7.913
  691POPC   C4B13222  44.846  13.144   7.596
  692POPC   NC313223   2.388  20.445   9.460
  692POPC   PO413224   2.975  20.574   9.612
  692POPC   GL113225   3.001  20.775   9.235
  692POPC   GL213226   2.863  20.485   9.065
  692POPC   C1A13227   2.900  20.942   8.860
  692POPC   D2A13228   2.787  20.641   8.543
  692POPC   C3A13229   2.889  20.709   8.123
  692POPC   C4A13230   3.211  20.859   7.863
  692POPC   C1B13231   2.530  20.277   8.792
  692POPC   C2B13232   2.605  20.208   8.343
  692POPC   C3B13233   2.726  20.227   7.921
  692POPC   C4B13234   2.560  20.547   7.684
  693POPC   NC313235  25.577  38.020   9.488
  693POPC   PO413236  26.261  37.850   9.583
  693POPC   GL113237  26.024  37.907   9.238
  693POPC   GL213238  26.051  37.556   9.170
  693POPC   C1A13239  25.942  37.892   8.802
  693POPC   D2A13240  26.115  37.803   8.380
  693POPC   C3A13241  25.836  38.035   8.105
  693POPC   C4A13242  25.590  37.994   7.719
  693POPC   C1B13243  26.192  37.443   8.754
  693POPC   C2B13244  26.101  37.264   8.337
  693POPC   C3B13245  26.237  37.392   7.899
  693POPC   C4B13246  26.375  37.364   7.409
  694POPC   NC313247   6.945  38.009   9.884
  694POPC   PO413248   6.509  37.559   9.757
  694POPC   GL113249   6.533  37.648   9.300
  694POPC   GL213250   6.881  37.781   9.227
  694POPC   C1A13251   6.331  37.710   8.877
  694POPC   D2A13252   6.370  37.877   8.442
  694POPC   C3A13253   6.413  37.656   8.032
  694POPC   C4A13254   6.493  37.552   7.621
  694POPC   C1B13255   6.823  37.842   8.771
  694POPC   C2B13256   6.799  37.604   8.378
  694POPC   C3B13257   6.927  37.602   7.949
  694POPC   C4B13258   6.892  37.857   7.551
  695POPC   NC313259  20.192  36.886   9.703
  695POPC   PO413260  19.458  36.593   9.670
  695POPC   GL113261  19.702  36.838   9.345
  695POPC   GL213262  19.917  37.144   9.334
  695POPC   C1A13263  19.653  36.975   8.918
  695POPC   D2A13264  19.795  36.919   8.504
  695POPC   C3A13265  19.670  36.923   8.075
  695POPC   C4A13266  19.852  37.002   7.632
  695POPC   C1B13267  20.143  37.141   8.911
  695POPC   C2B13268  20.215  37.189   8.456
  695POPC   C3B13269  20.068  37.286   8.029
  695POPC   C4B13270  20.290  37.294   7.659
  696POPC   NC313271   3.720  11.843   9.629
  696POPC   PO413272   3.306  12.272   9.440
  696POPC   GL113273   3.513  11.975   9.145
  696POPC   GL213274   3.853  12.047   9.159
  696POPC   C1A13275   3.439  11.808   8.716
  696POPC   D2A13276   3.195  11.981   8.357
  696POPC   C3A13277   3.352  12.129   8.011
  696POPC   C4A13278   3.415  11.939   7.606
  696POPC   C1B13279   3.905  12.064   8.726
  696POPC   C2B13280   3.760  11.914   8.307
  696POPC   C3B13281   3.859  12.124   7.877
  696POPC   C4B13282   3.835  12.132   7.393
  697POPC   NC313283  27.809  39.760   9.414
  697POPC   PO413284  27.389  40.318   9.395
  697POPC   GL113285  27.440  40.193   9.020
  697POPC   GL213286  27.432  39.843   9.077
  697POPC   C1A13287  27.589  40.154   8.613
  697POPC   D2A13288  27.915  39.995   8.353
  697POPC   C3A13289  27.796  39.900   7.919
  697POPC   C4A13290  27.503  40.097   7.637
  697POPC   C1B13291  27.415  39.646   8.728
  697POPC   C2B13292  27.475  39.708   8.316
  697POPC   C3B13293  27.265  39.767   7.959
  697POPC   C4B13294  27.334  39.630   7.527
  698POPC   NC313295  23.064  11.656   9.742
  698POPC   PO413296  22.502  11.417   9.612
  698POPC   GL113297  22.654  11.451   9.189
  698POPC   GL213298  22.997  11.347   9.160
  698POPC   C1A13299  22.700  11.347   8.748
  698POPC   D2A13300  22.623  11.277   8.331
  698POPC   C3A13301  22.664  11.520   8.000
  698POPC   C4A13302  22.908  11.293   7.755
  698POPC   C1B13303  23.092  11.023   8.860
  698POPC   C2B13304  23.058  10.994   8.428
  698POPC   C3B13305  23.260  11.151   8.086
  698POPC   C4B13306  23.440  11.072   7.684
  699POPC   NC313307   2.378  31.910   9.531
  699POPC   PO413308   2.760  32.417   9.542
  699POPC   GL113309   2.838  32.348   9.133
  699POPC   GL213310   2.730  32.018   9.161
  699POPC   C1A13311   2.619  32.363   8.735
  699POPC   D2A13312   2.706  32.195   8.341
  699POPC   C3A13313   2.631  32.314   7.901
  699POPC   C4A13314   2.473  32.445   7.503
  699POPC   C1B13315   2.537  31.835   8.797
  699POPC   C2B13316   2.694  31.692   8.411
  699POPC   C3B13317   2.573  31.817   8.027
  699POPC   C4B13318   2.742  31.868   7.628
  700POPC   NC313319  18.803  24.572   9.401
  700POPC   PO413320  19.330  25.063   9.345
  700POPC   GL113321  19.183  24.784   9.044
  700POPC   GL213322  19.199  24.445   9.067
  700POPC   C1A13323  19.093  24.745   8.624
  700POPC   D2A13324  19.316  24.511   8.307
  700POPC   C3A13325  19.181  24.511   7.882
  700POPC   C4A13326  19.333  24.718   7.491
  700POPC   C1B13327  18.920  24.277   8.786
  700POPC   C2B13328  18.847  24.324   8.361
  700POPC   C3B13329  18.653  24.206   7.992
  700POPC   C4B13330  18.705  24.316   7.609
  701POPC   NC313331  10.581  16.254   9.937
  701POPC   PO413332  10.470  15.830   9.429
  701POPC   GL113333  10.432  16.123   9.136
  701POPC   GL213334  10.128  16.264   9.093
  701POPC   C1A13335  10.668  16.215   8.787
  701POPC   D2A13336  10.800  16.320   8.371
  701POPC   C3A13337  10.769  15.948   8.113
  701POPC   C4A13338  10.802  15.867   7.666
  701POPC   C1B13339  10.164  16.016   8.682
  701POPC   C2B13340  10.153  16.069   8.193
  701POPC   C3B13341  10.341  16.025   7.769
  701POPC   C4B13342  10.232  16.086   7.284
  702POPC   NC313343  33.295  43.065   9.647
  702POPC   PO413344  32.609  43.339   9.519
  702POPC   GL113345  32.851  43.291   9.160
  702POPC   GL213346  33.101  43.008   9.172
  702POPC   C1A13347  33.031  43.312   8.754
  702POPC   D2A13348  33.055  43.543   8.358
  702POPC   C3A13349  32.786  43.485   7.986
  702POPC   C4A13350  33.096  43.517   7.682
  702POPC   C1B13351  33.279  42.841   8.782
  702POPC   C2B13352  33.160  43.008   8.362
  702POPC   C3B13353  33.085  43.065   7.940
  702POPC   C4B13354  32.858  42.838   7.646
  703POPC   NC313355  14.248  33.448   9.865
  703POPC   PO413356  14.736  33.699   9.644
  703POPC   GL113357  14.690  33.612   9.181
  703POPC   GL213358  14.735  33.927   9.013
  703POPC   C1A13359  14.377  33.626   8.797
  703POPC   D2A13360  14.143  33.657   8.380
  703POPC   C3A13361  14.267  33.726   7.924
  703POPC   C4A13362  14.125  33.565   7.506
  703POPC   C1B13363  14.870  33.611   8.676
  703POPC   C2B13364  14.674  33.683   8.248
  703POPC   C3B13365  14.882  33.774   7.813
  703POPC   C4B13366  14.788  33.915   7.354
  704POPC   NC313367  21.127  22.842   9.556
  704POPC   PO413368  21.357  23.475   9.708
  704POPC   GL113369  21.341  23.210   9.245
  704POPC   GL213370  21.036  23.085   9.085
  704POPC   C1A13371  21.376  23.011   8.748
  704POPC   D2A13372  21.197  22.974   8.291
  704POPC   C3A13373  21.426  22.865   7.900
  704POPC   C4A13374  21.654  22.746   7.509
  704POPC   C1B13375  20.926  23.257   8.676
  704POPC   C2B13376  21.040  23.470   8.273
  704POPC   C3B13377  21.248  23.357   7.873
  704POPC   C4B13378  21.424  23.184   7.475
  705POPC   NC313379  24.036  44.899   9.250
  705POPC   PO413380  24.409  44.382   9.576
  705POPC   GL113381  24.457  44.554   9.158
  705POPC   GL213382  24.777  44.718   9.101
  705POPC   C1A13383  24.343  44.662   8.737
  705POPC   D2A13384  24.144  44.444   8.400
  705POPC   C3A13385  24.162  44.731   8.053
  705POPC   C4A13386  24.237  44.722   7.607
  705POPC   C1B13387  24.815  44.463   8.739
  705POPC   C2B13388  24.645  44.619   8.324
  705POPC   C3B13389  24.669  44.766   7.903
  705POPC   C4B13390  24.856   0.186   7.800
  706POPC   NC313391  25.052  43.438   9.488
  706POPC   PO413392  25.399  42.872   9.548
  706POPC   GL113393  25.241  42.880   9.163
  706POPC   GL213394  25.300  43.232   9.074
  706POPC   C1A13395  25.178  42.805   8.742
  706POPC   D2A13396  25.331  42.968   8.403
  706POPC   C3A13397  25.162  42.940   8.021
  706POPC   C4A13398  25.334  43.159   7.709
  706POPC   C1B13399  24.902  43.225   8.866
  706POPC   C2B13400  24.878  43.216   8.428
  706POPC   C3B13401  24.998  43.419   8.041
  706POPC   C4B13402  24.966  43.492   7.621
  707POPC   NC313403  15.307   9.575   9.468
  707POPC   PO413404  14.723   9.807   9.510
  707POPC   GL113405  15.021   9.894   9.181
  707POPC   GL213406  15.170   9.589   9.001
  707POPC   C1A13407  15.161  10.046   8.786
  707POPC   D2A13408  15.354   9.856   8.431
  707POPC   C3A13409  15.060   9.918   8.093
  707POPC   C4A13410  15.069  10.049   7.671
  707POPC   C1B13411  15.548   9.483   8.826
  707POPC   C2B13412  15.487   9.332   8.424
  707POPC   C3B13413  15.346   9.495   8.040
  707POPC   C4B13414  15.569   9.530   7.668
  708POPC   NC313415  35.479  13.875   9.240
  708POPC   PO413416  35.188  13.364   9.556
  708POPC   GL113417  35.061  13.453   9.140
  708POPC   GL213418  35.399  13.421   9.050
  708POPC   C1A13419  35.099  13.599   8.680
  708POPC   D2A13420  35.341  13.890   8.400
  708POPC   C3A13421  35.398  13.723   7.980
  708POPC   C4A13422  35.220  13.427   7.666
  708POPC   C1B13423  35.625  13.458   8.652
  708POPC   C2B13424  35.741  13.214   8.285
  708POPC   C3B13425  35.830  13.385   7.861
  708POPC   C4B13426  35.740  13.743   7.601
  709POPC   NC313427  29.526  23.990   9.463
  709POPC   PO413428  29.119  23.429   9.577
  709POPC   GL113429  29.367  23.586   9.187
  709POPC   GL213430  29.208  23.909   9.064
  709POPC   C1A13431  29.360  23.571   8.720
  709POPC   D2A13432  29.054  23.664   8.398
  709POPC   C3A13433  29.167  23.520   7.998
  709POPC   C4A13434  28.928  23.371   7.662
  709POPC   C1B13435  29.358  24.107   8.689
  709POPC   C2B13436  29.483  23.925   8.304
  709POPC   C3B13437  29.482  23.907   7.874
  709POPC   C4B13438  29.515  24.007   7.454
  710POPC   NC313439  35.849   5.810   9.540
  710POPC   PO413440  36.301   6.341   9.350
  710POPC   GL113441  36.241   6.072   9.083
  710POPC   GL213442  36.266   5.742   9.228
  710POPC   C1A13443  36.153   6.061   8.660
  710POPC   D2A13444  36.428   5.891   8.323
  710POPC   C3A13445  36.213   5.935   7.965
  710POPC   C4A13446  36.120   6.026   7.565
  710POPC   C1B13447  36.086   5.602   8.864
  710POPC   C2B13448  35.998   5.610   8.423
  710POPC   C3B13449  35.939   5.480   7.996
  710POPC   C4B13450  36.160   5.517   7.627
  711POPC   NC313451   5.869  31.221   9.436
  711POPC   PO413452   6.120  31.850   9.375
  711POPC   GL113453   5.927  31.585   9.074
  711POPC   GL213454   5.634  31.708   9.028
  711POPC   C1A13455   5.807  31.330   8.703
  711POPC   D2A13456   5.797  31.023   8.354
  711POPC   C3A13457   5.859  31.262   7.989
  711POPC   C4A13458   5.631  31.473   7.641
  711POPC   C1B13459   5.695  31.873   8.609
  711POPC   C2B13460   5.683  31.708   8.176
  711POPC   C3B13461   6.018  31.726   7.854
  711POPC   C4B13462   6.009  31.757   7.392
  712POPC   NC313463   8.606  37.154   9.466
  712POPC   PO413464   8.021  37.273   9.819
  712POPC   GL113465   8.113  37.133   9.304
  712POPC   GL213466   8.338  36.834   9.182
  712POPC   C1A13467   8.040  37.035   8.831
  712POPC   D2A13468   8.201  36.971   8.390
  712POPC   C3A13469   7.969  36.795   8.027
  712POPC   C4A13470   8.043  36.947   7.614
  712POPC   C1B13471   8.553  36.933   8.770
  712POPC   C2B13472   8.727  37.162   8.375
  712POPC   C3B13473   8.594  37.113   7.954
  712POPC   C4B13474   8.452  36.733   7.827
  713POPC   NC313475  35.119   7.782   9.536
  713POPC   PO413476  35.598   7.295   9.585
  713POPC   GL113477  35.359   7.406   9.227
  713POPC   GL213478  35.444   7.739   9.162
  713POPC   C1A13479  35.386   7.356   8.759
  713POPC   D2A13480  35.260   7.295   8.314
  713POPC   C3A13481  35.412   7.459   7.946
  713POPC   C4A13482  35.694   7.575   7.653
  713POPC   C1B13483  35.182   7.821   8.817
  713POPC   C2B13484  35.297   7.788   8.393
  713POPC   C3B13485  35.035   7.772   8.028
  713POPC   C4B13486  35.174   7.789   7.616
  714POPC   NC313487  37.546  37.919   9.565
  714POPC   PO413488  37.976  37.336   9.405
  714POPC   GL113489  37.600  37.547   9.170
  714POPC   GL213490  37.538  37.914   9.075
  714POPC   C1A13491  37.384  37.545   8.786
  714POPC   D2A13492  37.451  37.856   8.497
  714POPC   C3A13493  37.538  37.673   8.138
  714POPC   C4A13494  37.593  37.613   7.745
  714POPC   C1B13495  37.857  38.012   8.801
  714POPC   C2B13496  37.963  38.011   8.372
  714POPC   C3B13497  37.942  37.935   7.945
  714POPC   C4B13498  37.659  38.119   7.664
  715POPC   NC313499  44.515  37.648   9.571
  715POPC   PO413500   0.103  37.905   9.577
  715POPC   GL113501  44.927  37.670   9.213
  715POPC   GL213502  44.569  37.540   9.071
  715POPC   C1A13503  44.912  37.785   8.768
  715POPC   D2A13504  44.807  37.622   8.379
  715POPC   C3A13505  44.836  37.836   8.003
  715POPC   C4A13506  44.919  37.565   7.724
  715POPC   C1B13507  44.403  37.808   8.704
  715POPC   C2B13508  44.374  37.905   8.225
  715POPC   C3B13509  44.386  37.675   7.810
  715POPC   C4B13510  44.221  37.794   7.388
  716POPC   NC313511  35.771  34.517   9.397
  716POPC   PO413512  36.392  34.389   9.605
  716POPC   GL113513  36.276  34.567   9.223
  716POPC   GL213514  36.251  34.905   9.319
  716POPC   C1A13515  36.156  34.492   8.785
  716POPC   D2A13516  36.186  34.420   8.341
  716POPC   C3A13517  35.983  34.579   7.975
  716POPC   C4A13518  35.972  34.253   7.648
  716POPC   C1B13519  36.357  34.946   8.870
  716POPC   C2B13520  36.229  34.936   8.434
  716POPC   C3B13521  36.438  34.802   8.079
  716POPC   C4B13522  36.412  34.941   7.701
  717POPC   NC313523  23.383  43.456   9.568
  717POPC   PO413524  23.867  43.005   9.419
  717POPC   GL113525  23.680  43.227   9.125
  717POPC   GL213526  23.361  43.157   9.130
  717POPC   C1A13527  23.820  43.258   8.682
  717POPC   D2A13528  23.918  42.945   8.350
  717POPC   C3A13529  24.060  43.179   7.977
  717POPC   C4A13530  23.877  43.089   7.584
  717POPC   C1B13531  23.465  42.898   8.763
  717POPC   C2B13532  23.431  43.086   8.364
  717POPC   C3B13533  23.546  43.139   7.955
  717POPC   C4B13534  23.339  43.233   7.537
  718POPC   NC313535   5.623  36.050   9.425
  718POPC   PO413536   6.065  36.510   9.567
  718POPC   GL113537   6.085  36.588   9.113
  718POPC   GL213538   6.381  36.749   8.978
  718POPC   C1A13539   5.868  36.352   8.756
  718POPC   D2A13540   5.697  35.977   8.494
  718POPC   C3A13541   5.902  35.967   8.082
  718POPC   C4A13542   5.892  35.925   7.645
  718POPC   C1B13543   6.317  36.575   8.554
  718POPC   C2B13544   5.992  36.459   8.248
  718POPC   C3B13545   5.813  36.401   7.829
  718POPC   C4B13546   5.917  36.418   7.403
  719POPC   NC313547  42.446  32.544   9.422
  719POPC   PO413548  41.923  32.148   9.478
  719POPC   GL113549  42.213  32.056   9.164
  719POPC   GL213550  42.569  32.193   9.051
  719POPC   C1A13551  42.149  32.226   8.762
  719POPC   D2A13552  42.406  32.230   8.394
  719POPC   C3A13553  42.225  32.206   8.008
  719POPC   C4A13554  42.175  32.256   7.559
  719POPC   C1B13555  42.576  32.562   8.743
  719POPC   C2B13556  42.537  32.706   8.271
  719POPC   C3B13557  42.427  32.643   7.785
  719POPC   C4B13558  42.543  32.477   7.323
  720POPC   NC313559  44.572  41.105   9.418
  720POPC   PO413560  44.646  41.660   9.709
  720POPC   GL113561  44.686  41.577   9.235
  720POPC   GL213562  44.934  41.320   9.123
  720POPC   C1A13563  44.507  41.386   8.832
  720POPC   D2A13564  44.661  41.369   8.394
  720POPC   C3A13565  44.523  41.570   8.025
  720POPC   C4A13566  44.484  41.379   7.612
  720POPC   C1B13567  44.948  41.633   8.789
  720POPC   C2B13568  44.806  41.853   8.398
  720POPC   C3B13569  44.925  41.912   7.973
  720POPC   C4B13570  44.875  41.686   7.598
  721POPC   NC313571  39.503  38.547   9.420
  721POPC   PO413572  38.830  38.653   9.607
  721POPC   GL113573  38.980  38.628   9.193
  721POPC   GL213574  39.089  38.288   9.295
  721POPC   C1A13575  39.129  38.774   8.752
  721POPC   D2A13576  39.288  38.901   8.347
  721POPC   C3A13577  39.340  38.621   8.017
  721POPC   C4A13578  38.971  38.445   7.852
  721POPC   C1B13579  39.227  38.305   8.865
  721POPC   C2B13580  39.210  38.350   8.446
  721POPC   C3B13581  39.316  38.106   8.111
  721POPC   C4B13582  39.368  38.181   7.699
  722POPC   NC313583  27.086  28.817   9.353
  722POPC   PO413584  27.653  29.013   9.703
  722POPC   GL113585  27.544  29.071   9.246
  722POPC   GL213586  27.234  29.254   9.167
  722POPC   C1A13587  27.681  29.167   8.814
  722POPC   D2A13588  27.767  28.977   8.415
  722POPC   C3A13589  27.722  29.197   8.030
  722POPC   C4A13590  27.927  28.982   7.715
  722POPC   C1B13591  27.202  29.357   8.743
  722POPC   C2B13592  27.479  29.453   8.400
  722POPC   C3B13593  27.404  29.632   7.978
  722POPC   C4B13594  27.391  29.416   7.602
  723POPC   NC313595  38.462   9.659   9.690
  723POPC   PO413596  38.809  10.060   9.392
  723POPC   GL113597  38.540   9.886   9.159
  723POPC   GL213598  38.546   9.528   9.181
  723POPC   C1A13599  38.446  10.016   8.759
  723POPC   D2A13600  38.659   9.937   8.366
  723POPC   C3A13601  38.536  10.130   8.001
  723POPC   C4A13602  38.166   9.990   7.782
  723POPC   C1B13603  38.568   9.537   8.732
  723POPC   C2B13604  38.326   9.555   8.349
  723POPC   C3B13605  38.507   9.599   7.936
  723POPC   C4B13606  38.456   9.480   7.504
  724POPC   NC313607   7.700  39.212   9.661
  724POPC   PO413608   7.713  39.824   9.390
  724POPC   GL113609   7.506  39.428   9.223
  724POPC   GL213610   7.795  39.183   9.158
  724POPC   C1A13611   7.360  39.284   8.807
  724POPC   D2A13612   7.314  39.511   8.385
  724POPC   C3A13613   7.437  39.450   7.951
  724POPC   C4A13614   7.328  39.167   7.620
  724POPC   C1B13615   7.694  38.899   8.818
  724POPC   C2B13616   7.655  39.082   8.429
  724POPC   C3B13617   7.550  38.961   8.044
  724POPC   C4B13618   7.582  38.713   7.686
  725POPC   NC313619   3.605  33.843   9.501
  725POPC   PO413620   3.409  34.087   9.012
  725POPC   GL113621   3.561  33.706   8.968
  725POPC   GL213622   3.310  33.535   9.139
  725POPC   C1A13623   3.639  33.724   8.533
  725POPC   D2A13624   3.372  33.785   8.183
  725POPC   C3A13625   3.552  33.906   7.797
  725POPC   C4A13626   3.896  34.167   7.816
  725POPC   C1B13627   3.287  33.361   8.700
  725POPC   C2B13628   3.518  33.286   8.316
  725POPC   C3B13629   3.488  33.403   7.880
  725POPC   C4B13630   3.544  33.535   7.455
  726POPC   NC313631  33.701   6.042   9.708
  726POPC   PO413632  33.482   5.555   9.605
  726POPC   GL113633  33.728   5.803   9.253
  726POPC   GL213634  33.656   6.169   9.175
  726POPC   C1A13635  33.849   5.837   8.802
  726POPC   D2A13636  33.627   5.673   8.433
  726POPC   C3A13637  33.749   5.716   7.989
  726POPC   C4A13638  33.694   5.818   7.519
  726POPC   C1B13639  33.546   6.227   8.702
  726POPC   C2B13640  33.791   6.160   8.323
  726POPC   C3B13641  33.708   6.200   7.866
  726POPC   C4B13642  33.417   6.268   7.501
  727POPC   NC313643  44.564  18.746   9.281
  727POPC   PO413644  44.528  18.095   9.571
  727POPC   GL113645  44.797  18.147   9.211
  727POPC   GL213646  44.986  18.478   9.174
  727POPC   C1A13647  44.804  18.245   8.777
  727POPC   D2A13648  44.605  18.462   8.457
  727POPC   C3A13649  44.783  18.317   8.086
  727POPC   C4A13650  44.608  18.302   7.682
  727POPC   C1B13651  44.935  18.729   8.764
  727POPC   C2B13652   0.100  18.601   8.382
  727POPC   C3B13653   0.004  18.754   7.971
  727POPC   C4B13654  44.831  18.779   7.594
  728POPC   NC313655  35.408  21.083   9.218
  728POPC   PO413656  35.398  21.653   9.572
  728POPC   GL113657  35.236  21.584   9.191
  728POPC   GL213658  35.573  21.565   9.088
  728POPC   C1A13659  34.995  21.488   8.807
  728POPC   D2A13660  34.977  21.220   8.419
  728POPC   C3A13661  35.128  21.380   8.009
  728POPC   C4A13662  35.435  21.708   7.831
  728POPC   C1B13663  35.480  21.423   8.681
  728POPC   C2B13664  35.519  21.526   8.303
  728POPC   C3B13665  35.688  21.299   7.985
  728POPC   C4B13666  35.824  21.031   7.700
  729POPC   NC313667  31.748  30.857   9.574
  729POPC   PO413668  31.157  30.550   9.488
  729POPC   GL113669  31.475  30.695   9.188
  729POPC   GL213670  31.414  31.051   9.213
  729POPC   C1A13671  31.623  30.726   8.770
  729POPC   D2A13672  31.540  30.529   8.376
  729POPC   C3A13673  31.739  30.610   7.999
  729POPC   C4A13674  31.587  30.640   7.588
  729POPC   C1B13675  31.392  31.183   8.800
  729POPC   C2B13676  31.436  31.041   8.388
  729POPC   C3B13677  31.495  31.060   7.944
  729POPC   C4B13678  31.203  30.981   7.619
  730POPC   NC313679  21.084   5.331   9.414
  730POPC   PO413680  20.469   5.124   9.566
  730POPC   GL113681  20.593   4.849   9.202
  730POPC   GL213682  20.967   4.814   9.228
  730POPC   C1A13683  20.428   4.678   8.772
  730POPC   D2A13684  20.230   4.931   8.431
  730POPC   C3A13685  20.410   5.154   8.052
  730POPC   C4A13686  20.212   5.531   7.867
  730POPC   C1B13687  20.974   4.950   8.801
  730POPC   C2B13688  21.197   4.839   8.369
  730POPC   C3B13689  21.009   4.826   7.921
  730POPC   C4B13690  20.868   4.919   7.462
  731POPC   NC313691  34.359  34.015   9.548
  731POPC   PO413692  34.458  33.387   9.432
  731POPC   GL113693  34.614  33.612   9.089
  731POPC   GL213694  34.675  33.956   9.135
  731POPC   C1A13695  34.523  33.578   8.648
  731POPC   D2A13696  34.577  33.799   8.275
  731POPC   C3A13697  34.269  33.868   7.987
  731POPC   C4A13698  34.426  33.747   7.597
  731POPC   C1B13699  34.563  34.091   8.714
  731POPC   C2B13700  34.737  34.284   8.296
  731POPC   C3B13701  34.728  34.094   7.850
  731POPC   C4B13702  34.625  34.191   7.400
  732POPC   NC313703   0.844  41.042   9.823
  732POPC   PO413704   1.416  40.969   9.468
  732POPC   GL113705   1.381  40.903   9.081
  732POPC   GL213706   1.049  41.025   9.002
  732POPC   C1A13707   1.599  40.966   8.684
  732POPC   D2A13708   1.592  41.074   8.241
  732POPC   C3A13709   1.449  40.791   7.910
  732POPC   C4A13710   1.159  40.399   7.882
  732POPC   C1B13711   1.149  40.713   8.692
  732POPC   C2B13712   1.118  40.763   8.285
  732POPC   C3B13713   1.076  41.130   8.040
  732POPC   C4B13714   0.821  41.329   7.736
  733POPC   NC313715  26.390  30.028   9.350
  733POPC   PO413716  26.864  29.538   9.385
  733POPC   GL113717  26.966  29.720   9.050
  733POPC   GL213718  26.623  29.759   8.983
  733POPC   C1A13719  27.006  29.827   8.625
  733POPC   D2A13720  27.022  30.204   8.400
  733POPC   C3A13721  26.922  30.140   7.977
  733POPC   C4A13722  26.807  30.111   7.543
  733POPC   C1B13723  26.374  29.997   8.695
  733POPC   C2B13724  26.498  30.137   8.295
  733POPC   C3B13725  26.446  29.976   7.902
  733POPC   C4B13726  26.348  29.699   7.601
  734POPC   NC313727  29.702  31.027   9.302
  734POPC   PO413728  30.098  30.523   9.639
  734POPC   GL113729  29.947  30.567   9.211
  734POPC   GL213730  30.161  30.372   9.049
  734POPC   C1A13731  29.928  30.725   8.752
  734POPC   D2A13732  30.068  30.832   8.325
  734POPC   C3A13733  29.865  30.837   7.909
  734POPC   C4A13734  30.011  30.991   7.496
  734POPC   C1B13735  30.195  30.295   8.606
  734POPC   C2B13736  30.307  30.120   8.203
  734POPC   C3B13737  30.331  30.308   7.801
  734POPC   C4B13738  30.048  30.485   7.518
  735POPC   NC313739   8.526  13.725   9.522
  735POPC   PO413740   9.225  13.759   9.451
  735POPC   GL113741   9.067  13.615   9.091
  735POPC   GL213742   8.816  13.415   9.197
  735POPC   C1A13743   9.192  13.630   8.673
  735POPC   D2A13744   9.110  13.827   8.286
  735POPC   C3A13745   9.258  13.626   7.919
  735POPC   C4A13746   9.106  13.557   7.504
  735POPC   C1B13747   8.647  13.531   8.804
  735POPC   C2B13748   8.611  13.732   8.412
  735POPC   C3B13749   8.729  13.615   8.028
  735POPC   C4B13750   8.622  13.665   7.649
  736POPC   NC313751   8.603  20.376   9.483
  736POPC   PO413752   9.331  20.366   9.451
  736POPC   GL113753   9.024  20.569   9.215
  736POPC   GL213754   8.909  20.281   9.091
  736POPC   C1A13755   9.015  20.668   8.782
  736POPC   D2A13756   9.112  20.947   8.432
  736POPC   C3A13757   8.981  20.754   8.060
  736POPC   C4A13758   8.870  20.733   7.623
  736POPC   C1B13759   8.667  20.284   8.710
  736POPC   C2B13760   8.681  20.374   8.284
  736POPC   C3B13761   8.668  20.348   7.848
  736POPC   C4B13762   9.046  20.243   7.586
  737POPC   NC313763  31.931  23.225   9.394
  737POPC   PO413764  32.349  22.747   9.583
  737POPC   GL113765  32.397  23.014   9.236
  737POPC   GL213766  32.546  22.806   9.036
  737POPC   C1A13767  32.276  23.228   8.840
  737POPC   D2A13768  32.105  23.131   8.413
  737POPC   C3A13769  32.252  23.134   7.976
  737POPC   C4A13770  32.054  23.089   7.543
  737POPC   C1B13771  32.491  22.843   8.599
  737POPC   C2B13772  32.271  22.626   8.328
  737POPC   C3B13773  32.409  22.644   7.962
  737POPC   C4B13774  32.559  22.894   7.632
  738POPC   NC313775  42.959   0.354   9.323
  738POPC   PO413776  42.342   0.384   9.678
  738POPC   GL113777  42.450   0.519   9.291
  738POPC   GL213778  42.132   0.502   9.164
  738POPC   C1A13779  42.523   0.407   8.853
  738POPC   D2A13780  42.308   0.462   8.474
  738POPC   C3A13781  42.549   0.331   8.122
  738POPC   C4A13782  42.927   0.339   7.853
  738POPC   C1B13783  42.025   0.178   8.875
  738POPC   C2B13784  41.997   0.062   8.449
  738POPC   C3B13785  42.015   0.312   8.073
  738POPC   C4B13786  42.228   0.429   7.699
  739POPC   NC313787   9.549  14.111   9.467
  739POPC   PO413788   9.959  14.698   9.415
  739POPC   GL113789   9.738  14.625   9.044
  739POPC   GL213790   9.569  14.320   9.025
  739POPC   C1A13791   9.683  14.566   8.614
  739POPC   D2A13792   9.918  14.397   8.287
  739POPC   C3A13793   9.788  14.512   7.910
  739POPC   C4A13794   9.751  14.285   7.545
  739POPC   C1B13795   9.321  14.111   8.745
  739POPC   C2B13796   9.470  14.167   8.362
  739POPC   C3B13797   9.453  14.121   7.947
  739POPC   C4B13798   9.287  14.414   7.646
  740POPC   NC313799  26.713  39.244   9.559
  740POPC   PO413800  27.384  39.545   9.500
  740POPC   GL113801  27.155  39.271   9.145
  740POPC   GL213802  26.785  39.147   9.081
  740POPC   C1A13803  27.018  39.321   8.680
  740POPC   D2A13804  26.947  39.654   8.407
  740POPC   C3A13805  26.737  39.508   8.078
  740POPC   C4A13806  26.920  39.464   7.734
  740POPC   C1B13807  26.625  38.982   8.718
  740POPC   C2B13808  26.808  39.011   8.299
  740POPC   C3B13809  26.730  39.018   7.862
  740POPC   C4B13810  26.516  38.861   7.496
  741POPC   NC313811  13.229   3.713   9.735
  741POPC   PO413812  13.636   4.116   9.693
  741POPC   GL113813  13.612   3.936   9.256
  741POPC   GL213814  13.403   3.636   9.201
  741POPC   C1A13815  13.520   3.934   8.786
  741POPC   D2A13816  13.713   3.945   8.361
  741POPC   C3A13817  13.556   3.785   7.941
  741POPC   C4A13818  13.684   3.649   7.495
  741POPC   C1B13819  13.357   3.453   8.753
  741POPC   C2B13820  13.548   3.417   8.315
  741POPC   C3B13821  13.571   3.274   7.847
  741POPC   C4B13822  13.633   3.155   7.381
  742POPC   NC313823  11.874  27.182   9.511
  742POPC   PO413824  12.462  27.652   9.432
  742POPC   GL113825  12.278  27.667   9.023
  742POPC   GL213826  12.099  27.377   9.087
  742POPC   C1A13827  12.004  27.727   8.638
  742POPC   D2A13828  11.938  27.643   8.190
  742POPC   C3A13829  12.095  27.755   7.764
  742POPC   C4A13830  11.874  27.707   7.373
  742POPC   C1B13831  11.872  27.206   8.738
  742POPC   C2B13832  12.037  27.133   8.325
  742POPC   C3B13833  12.158  27.247   7.929
  742POPC   C4B13834  12.209  27.321   7.496
  743POPC   NC313835  36.550  29.258   9.378
  743POPC   PO413836  37.180  29.412   9.494
  743POPC   GL113837  36.967  29.278   9.113
  743POPC   GL213838  36.933  28.937   9.215
  743POPC   C1A13839  36.684  29.094   8.770
  743POPC   D2A13840  36.632  28.896   8.385
  743POPC   C3A13841  36.704  29.191   8.102
  743POPC   C4A13842  36.717  29.201   7.686
  743POPC   C1B13843  37.146  28.910   8.802
  743POPC   C2B13844  37.136  29.099   8.387
  743POPC   C3B13845  37.210  29.030   7.932
  743POPC   C4B13846  37.495  29.257   7.695
  744POPC   NC313847  28.434  38.981   9.464
  744POPC   PO413848  28.095  39.534   9.717
  744POPC   GL113849  28.575  39.434   9.348
  744POPC   GL213850  28.561  39.150   9.022
  744POPC   C1A13851  28.672  39.603   8.880
  744POPC   D2A13852  28.391  39.572   8.501
  744POPC   C3A13853  28.525  39.366   8.092
  744POPC   C4A13854  28.345  39.311   7.675
  744POPC   C1B13855  28.538  38.847   8.659
  744POPC   C2B13856  28.647  38.834   8.224
  744POPC   C3B13857  28.656  38.925   7.796
  744POPC   C4B13858  28.470  38.736   7.409
  745POPC   NC313859   8.425   0.950   9.552
  745POPC   PO413860   7.833   0.791   9.784
  745POPC   GL113861   7.939   0.978   9.337
  745POPC   GL213862   8.086   1.320   9.279
  745POPC   C1A13863   8.092   1.000   8.886
  745POPC   D2A13864   7.962   1.017   8.450
  745POPC   C3A13865   8.099   1.091   8.016
  745POPC   C4A13866   8.105   1.369   7.663
  745POPC   C1B13867   8.121   1.516   8.829
  745POPC   C2B13868   8.080   1.497   8.372
  745POPC   C3B13869   8.373   1.546   8.036
  745POPC   C4B13870   8.488   1.712   7.608
  746POPC   NC313871  13.668  17.252   9.333
  746POPC   PO413872  13.966  17.852   9.522
  746POPC   GL113873  13.862  17.646   9.102
  746POPC   GL213874  13.480  17.578   8.985
  746POPC   C1A13875  13.855  17.429   8.682
  746POPC   D2A13876  13.496  17.526   8.412
  746POPC   C3A13877  13.579  17.608   7.985
  746POPC   C4A13878  13.927  17.488   7.703
  746POPC   C1B13879  13.318  17.183   8.735
  746POPC   C2B13880  13.066  17.076   8.373
  746POPC   C3B13881  13.293  17.185   8.031
  746POPC   C4B13882  13.466  17.241   7.628
  747POPC   NC313883  19.707  17.346   9.304
  747POPC   PO413884  20.018  17.947   9.551
  747POPC   GL113885  19.931  17.794   9.120
  747POPC   GL213886  19.580  17.764   9.025
  747POPC   C1A13887  20.011  17.613   8.682
  747POPC   D2A13888  20.079  17.266   8.365
  747POPC   C3A13889  19.920  17.388   7.963
  747POPC   C4A13890  19.758  17.802   7.862
  747POPC   C1B13891  19.525  17.433   8.694
  747POPC   C2B13892  19.511  17.334   8.265
  747POPC   C3B13893  19.428  17.417   7.811
  747POPC   C4B13894  19.337  17.277   7.342
  748POPC   NC313895  13.161  25.552   9.495
  748POPC   PO413896  13.117  24.964   9.297
  748POPC   GL113897  12.942  25.322   9.095
  748POPC   GL213898  12.820  25.084   8.896
  748POPC   C1A13899  12.851  25.536   8.700
  748POPC   D2A13900  12.904  25.291   8.331
  748POPC   C3A13901  13.084  25.547   8.036
  748POPC   C4A13902  12.710  25.709   7.901
  748POPC   C1B13903  12.499  25.145   8.625
  748POPC   C2B13904  12.232  24.896   8.364
  748POPC   C3B13905  12.500  24.839   8.015
  748POPC   C4B13906  12.761  25.174   7.820
  749POPC   NC313907  25.605   1.803   9.443
  749POPC   PO413908  25.047   2.112   9.613
  749POPC   GL113909  25.125   2.049   9.172
  749POPC   GL213910  25.408   1.878   8.988
  749POPC   C1A13911  25.008   2.039   8.730
  749POPC   D2A13912  25.315   1.902   8.434
  749POPC   C3A13913  25.217   1.834   8.021
  749POPC   C4A13914  25.094   1.790   7.615
  749POPC   C1B13915  25.528   1.530   8.724
  749POPC   C2B13916  25.695   1.598   8.313
  749POPC   C3B13917  25.567   1.486   7.909
  749POPC   C4B13918  25.443   1.453   7.472
  750POPC   NC313919  16.880  41.870   9.667
  750POPC   PO413920  16.812  41.229   9.736
  750POPC   GL113921  16.918  41.460   9.332
  750POPC   GL213922  17.005  41.760   9.194
  750POPC   C1A13923  16.649  41.548   8.927
  750POPC   D2A13924  16.719  41.494   8.471
  750POPC   C3A13925  16.563  41.643   8.050
  750POPC   C4A13926  16.580  41.510   7.593
  750POPC   C1B13927  17.123  41.712   8.793
  750POPC   C2B13928  17.011  41.904   8.414
  750POPC   C3B13929  17.102  41.686   8.084
  750POPC   C4B13930  16.944  41.811   7.741
  751POPC   NC313931  23.281   9.015   9.631
  751POPC   PO413932  23.901   9.237   9.665
  751POPC   GL113933  23.643   9.105   9.248
  751POPC   GL213934  23.290   9.190   9.166
  751POPC   C1A13935  23.632   9.036   8.762
  751POPC   D2A13936  23.827   9.082   8.318
  751POPC   C3A13937  23.826   8.768   7.956
  751POPC   C4A13938  23.687   8.730   7.527
  751POPC   C1B13939  23.157   9.227   8.756
  751POPC   C2B13940  23.317   9.191   8.336
  751POPC   C3B13941  23.485   9.156   7.922
  751POPC   C4B13942  23.367   9.174   7.517
  752POPC   NC313943   1.222   2.266   9.820
  752POPC   PO413944   1.575   2.715   9.553
  752POPC   GL113945   1.253   2.930   9.357
  752POPC   GL213946   1.155   2.622   9.199
  752POPC   C1A13947   1.208   3.074   8.943
  752POPC   D2A13948   1.138   3.137   8.492
  752POPC   C3A13949   1.352   2.879   8.191
  752POPC   C4A13950   1.361   2.912   7.753
  752POPC   C1B13951   1.274   2.548   8.774
  752POPC   C2B13952   1.300   2.357   8.374
  752POPC   C3B13953   1.172   2.452   7.961
  752POPC   C4B13954   1.355   2.466   7.539
  753POPC   NC313955   4.598  17.413   9.506
  753POPC   PO413956   4.055  17.755   9.629
  753POPC   GL113957   4.192  17.594   9.187
  753POPC   GL213958   3.859  17.560   9.009
  753POPC   C1A13959   4.532  17.466   8.840
  753POPC   D2A13960   4.763  17.481   8.422
  753POPC   C3A13961   4.572  17.408   8.011
  753POPC   C4A13962   4.612  17.656   7.634
  753POPC   C1B13963   4.076  17.224   8.827
  753POPC   C2B13964   4.257  17.221   8.446
  753POPC   C3B13965   4.062  17.257   8.065
  753POPC   C4B13966   4.168  17.417   7.668
  754POPC   NC313967  17.399  33.299   9.343
  754POPC   PO413968  17.379  32.604   9.410
  754POPC   GL113969  17.372  32.821   9.079
  754POPC   GL213970  17.684  32.844   9.048
  754POPC   C1A13971  17.396  33.070   8.695
  754POPC   D2A13972  17.157  33.320   8.415
  754POPC   C3A13973  17.326  33.296   8.013
  754POPC   C4A13974  17.504  32.947   7.746
  754POPC   C1B13975  17.917  32.970   8.700
  754POPC   C2B13976  17.788  33.043   8.277
  754POPC   C3B13977  18.035  33.075   7.893
  754POPC   C4B13978  18.125  33.028   7.437
  755POPC   NC313979  24.927  34.990   9.562
  755POPC   PO413980  25.297  35.568   9.525
  755POPC   GL113981  25.149  35.296   9.191
  755POPC   GL213982  24.893  35.550   9.160
  755POPC   C1A13983  25.320  35.053   8.822
  755POPC   D2A13984  25.576  34.879   8.459
  755POPC   C3A13985  25.569  35.181   8.145
  755POPC   C4A13986  25.458  35.399   7.770
  755POPC   C1B13987  24.930  35.406   8.734
  755POPC   C2B13988  24.908  35.220   8.327
  755POPC   C3B13989  24.972  35.375   7.936
  755POPC   C4B13990  25.082  35.790   7.910
  756POPC   NC313991   4.923  15.220   9.566
  756POPC   PO413992   5.544  14.903   9.436
  756POPC   GL113993   5.276  15.168   9.152
  756POPC   GL213994   4.980  15.425   9.096
  756POPC   C1A13995   5.181  15.125   8.715
  756POPC   D2A13996   5.157  14.855   8.352
  756POPC   C3A13997   4.965  14.935   7.960
  756POPC   C4A13998   5.198  15.253   7.750
  756POPC   C1B13999   4.741  15.366   8.703
  756POPC   C2B14000   4.900  15.347   8.249
  756POPC   C3B14001   4.802  15.583   7.831
  756POPC   C4B14002   4.598  15.674   7.418
  757POPC   NC314003  13.945  40.055   9.555
  757POPC   PO414004  14.496  40.332   9.451
  757POPC   GL114005  14.389  40.393   9.034
  757POPC   GL214006  14.072  40.317   9.107
  757POPC   C1A14007  14.495  40.197   8.618
  757POPC   D2A14008  14.352  39.898   8.277
  757POPC   C3A14009  14.515  39.985   7.824
  757POPC   C4A14010  14.806  39.772   7.512
  757POPC   C1B14011  14.006  40.312   8.655
  757POPC   C2B14012  14.067  40.318   8.211
  757POPC   C3B14013  14.019  40.004   7.879
  757POPC   C4B14014  13.866  39.993   7.462
  758POPC   NC314015  43.682  30.386   9.388
  758POPC   PO414016  43.846  30.928   9.596
  758POPC   GL114017  43.762  30.913   9.171
  758POPC   GL214018  43.597  30.649   8.972
  758POPC   C1A14019  43.621  31.121   8.815
  758POPC   D2A14020  43.465  30.854   8.501
  758POPC   C3A14021  43.754  30.992   8.220
  758POPC   C4A14022  44.003  30.948   7.859
  758POPC   C1B14023  43.952  30.737   8.670
  758POPC   C2B14024  44.132  30.647   8.248
  758POPC   C3B14025  44.009  30.431   7.840
  758POPC   C4B14026  44.068  30.265   7.394
  759POPC   NC314027   2.084   3.854   9.401
  759POPC   PO414028   1.932   4.578   9.410
  759POPC   GL114029   2.063   4.324   9.075
  759POPC   GL214030   1.696   4.233   9.097
  759POPC   C1A14031   2.220   4.426   8.642
  759POPC   D2A14032   2.344   4.550   8.223
  759POPC   C3A14033   2.142   4.467   7.817
  759POPC   C4A14034   2.358   4.445   7.432
  759POPC   C1B14035   1.764   4.213   8.663
  759POPC   C2B14036   1.852   4.409   8.259
  759POPC   C3B14037   1.756   4.131   7.925
  759POPC   C4B14038   1.470   4.038   7.574
  760POPC   NC314039  37.378  39.497   9.121
  760POPC   PO414040  37.879  39.440   9.553
  760POPC   GL114041  37.855  39.296   9.118
  760POPC   GL214042  37.875  39.666   9.033
  760POPC   C1A14043  37.648  38.983   8.786
  760POPC   D2A14044  37.453  38.889   8.398
  760POPC   C3A14045  37.738  38.946   8.063
  760POPC   C4A14046  37.863  39.198   7.695
  760POPC   C1B14047  37.873  39.421   8.624
  760POPC   C2B14048  37.919  39.419   8.174
  760POPC   C3B14049  37.983  39.684   7.811
  760POPC   C4B14050  37.874  39.631   7.369
  761POPC   NC314051   4.752  32.400   9.599
  761POPC   PO414052   5.396  32.438   9.733
  761POPC   GL114053   5.275  32.190   9.321
  761POPC   GL214054   4.924  32.138   9.206
  761POPC   C1A14055   5.291  32.142   8.855
  761POPC   D2A14056   5.159  32.439   8.501
  761POPC   C3A14057   5.037  32.289   8.097
  761POPC   C4A14058   5.204  32.293   7.710
  761POPC   C1B14059   4.802  31.928   8.830
  761POPC   C2B14060   4.696  32.016   8.435
  761POPC   C3B14061   4.728  31.850   8.044
  761POPC   C4B14062   4.792  32.001   7.634
  762POPC   NC314063   7.512  15.409   9.524
  762POPC   PO414064   7.328  14.795   9.379
  762POPC   GL114065   7.367  15.092   9.093
  762POPC   GL214066   7.129  15.295   9.039
  762POPC   C1A14067   7.455  15.291   8.678
  762POPC   D2A14068   7.279  15.248   8.261
  762POPC   C3A14069   7.472  15.337   7.886
  762POPC   C4A14070   7.741  14.993   7.736
  762POPC   C1B14071   7.069  14.965   8.657
  762POPC   C2B14072   6.979  14.832   8.222
  762POPC   C3B14073   7.115  14.981   7.799
  762POPC   C4B14074   7.137  14.857   7.330
  763POPC   NC314075   5.778  28.717   9.661
  763POPC   PO414076   6.055  29.331   9.494
  763POPC   GL114077   5.877  29.079   9.160
  763POPC   GL214078   5.826  28.725   9.165
  763POPC   C1A14079   5.774  29.204   8.760
  763POPC   D2A14080   5.911  29.347   8.371
  763POPC   C3A14081   5.669  29.317   7.995
  763POPC   C4A14082   5.870  29.292   7.578
  763POPC   C1B14083   5.909  28.722   8.717
  763POPC   C2B14084   5.774  28.862   8.292
  763POPC   C3B14085   5.824  28.846   7.839
  763POPC   C4B14086   5.613  28.646   7.486
  764POPC   NC314087  10.755  12.741   9.292
  764POPC   PO414088  10.209  12.453   9.349
  764POPC   GL114089  10.315  12.831   9.065
  764POPC   GL214090  10.133  13.141   9.159
  764POPC   C1A14091  10.517  13.032   8.678
  764POPC   D2A14092  10.570  13.187   8.233
  764POPC   C3A14093  10.832  12.971   7.914
  764POPC   C4A14094  10.707  12.715   7.535
  764POPC   C1B14095   9.999  13.058   8.740
  764POPC   C2B14096  10.101  12.875   8.347
  764POPC   C3B14097  10.125  13.055   7.946
  764POPC   C4B14098  10.438  13.177   7.658
  765POPC   NC314099  22.520  32.185   9.715
  765POPC   PO414100  23.112  32.014   9.475
  765POPC   GL114101  22.944  32.333   9.215
  765POPC   GL214102  22.589  32.306   9.234
  765POPC   C1A14103  22.996  32.453   8.775
  765POPC   D2A14104  23.108  32.620   8.334
  765POPC   C3A14105  23.055  32.300   7.993
  765POPC   C4A14106  23.067  31.851   7.966
  765POPC   C1B14107  22.642  32.083   8.850
  765POPC   C2B14108  22.806  32.068   8.438
  765POPC   C3B14109  22.563  32.157   8.101
  765POPC   C4B14110  22.655  32.058   7.695
  766POPC   NC314111  42.049   3.507   9.596
  766POPC   PO414112  42.605   3.235   9.373
  766POPC   GL114113  42.343   3.544   9.127
  766POPC   GL214114  41.961   3.611   9.086
  766POPC   C1A14115  42.269   3.422   8.705
  766POPC   D2A14116  42.351   3.080   8.424
  766POPC   C3A14117  42.404   3.199   7.976
  766POPC   C4A14118  42.531   3.615   7.864
  766POPC   C1B14119  41.943   3.811   8.661
  766POPC   C2B14120  42.158   3.731   8.240
  766POPC   C3B14121  42.096   3.908   7.803
  766POPC   C4B14122  41.967   3.913   7.366
  767POPC   NC314123  20.309   4.349   9.355
  767POPC   PO414124  20.916   4.229   9.536
  767POPC   GL114125  20.796   4.102   9.158
  767POPC   GL214126  20.755   4.391   9.052
  767POPC   C1A14127  20.524   4.090   8.746
  767POPC   D2A14128  20.550   4.294   8.387
  767POPC   C3A14129  20.583   4.131   8.013
  767POPC   C4A14130  20.359   3.920   7.769
  767POPC   C1B14131  20.928   4.483   8.657
  767POPC   C2B14132  20.708   4.773   8.350
  767POPC   C3B14133  20.486   4.645   7.997
  767POPC   C4B14134  20.730   4.478   7.672
  768POPC   NC314135   3.338   2.920   9.580
  768POPC   PO414136   3.594   2.398   9.687
  768POPC   GL114137   3.518   2.567   9.244
  768POPC   GL214138   3.474   2.237   9.131
  768POPC   C1A14139   3.555   2.871   8.865
  768POPC   D2A14140   3.649   3.019   8.415
  768POPC   C3A14141   3.756   2.898   7.992
  768POPC   C4A14142   3.447   2.664   7.753
  768POPC   C1B14143   3.622   2.389   8.736
  768POPC   C2B14144   3.713   2.517   8.336
  768POPC   C3B14145   3.758   2.317   7.967
  768POPC   C4B14146   3.889   2.281   7.558
  769POPC   NC314147  35.411   9.234   9.585
  769POPC   PO414148  34.835   8.921   9.534
  769POPC   GL114149  35.126   8.976   9.184
  769POPC   GL214150  35.258   9.316   9.111
  769POPC   C1A14151  35.397   8.844   8.813
  769POPC   D2A14152  35.463   8.655   8.383
  769POPC   C3A14153  35.217   8.804   8.035
  769POPC   C4A14154  35.419   8.897   7.670
  769POPC   C1B14155  35.144   9.298   8.727
  769POPC   C2B14156  35.366   9.174   8.372
  769POPC   C3B14157  35.247   9.317   7.967
  769POPC   C4B14158  35.370   9.693   7.773
  770POPC   NC314159  42.103  31.016   9.489
  770POPC   PO414160  42.670  31.362   9.440
  770POPC   GL114161  42.364  31.512   9.165
  770POPC   GL214162  42.043  31.539   9.291
  770POPC   C1A14163  42.137  31.269   8.864
  770POPC   D2A14164  42.165  31.319   8.445
  770POPC   C3A14165  42.579  31.336   8.234
  770POPC   C4A14166  42.551  31.357   7.810
  770POPC   C1B14167  41.924  31.737   8.872
  770POPC   C2B14168  42.078  31.846   8.434
  770POPC   C3B14169  42.211  31.666   8.060
  770POPC   C4B14170  42.408  31.819   7.696
  771POPC   NC314171  29.669  14.333   9.686
  771POPC   PO414172  30.375  14.462   9.658
  771POPC   GL114173  30.051  14.512   9.333
  771POPC   GL214174  29.930  14.225   9.187
  771POPC   C1A14175  30.018  14.570   8.852
  771POPC   D2A14176  29.807  14.523   8.441
  771POPC   C3A14177  30.060  14.556   8.060
  771POPC   C4A14178  30.242  14.543   7.645
  771POPC   C1B14179  29.791  14.097   8.784
  771POPC   C2B14180  29.682  14.006   8.364
  771POPC   C3B14181  29.834  14.106   7.965
  771POPC   C4B14182  29.657  14.467   7.734
  772POPC   NC314183  22.966  32.756   9.535
  772POPC   PO414184  23.092  33.410   9.487
  772POPC   GL114185  22.978  33.113   9.137
  772POPC   GL214186  22.730  32.798   9.114
  772POPC   C1A14187  22.979  32.954   8.717
  772POPC   D2A14188  22.729  33.047   8.390
  772POPC   C3A14189  22.946  33.068   8.042
  772POPC   C4A14190  22.695  33.075   7.726
  772POPC   C1B14191  22.452  32.567   8.839
  772POPC   C2B14192  22.610  32.537   8.450
  772POPC   C3B14193  22.679  32.646   8.055
  772POPC   C4B14194  22.488  32.552   7.730
  773POPC   NC314195  22.067   0.567   9.605
  773POPC   PO414196  22.714   0.266   9.632
  773POPC   GL114197  22.416   0.362   9.293
  773POPC   GL214198  22.099   0.216   9.231
  773POPC   C1A14199  22.333   0.647   8.947
  773POPC   D2A14200  22.476   0.634   8.512
  773POPC   C3A14201  22.238   0.687   8.126
  773POPC   C4A14202  22.415   0.693   7.717
  773POPC   C1B14203  22.121   0.174   8.795
  773POPC   C2B14204  22.024  44.906   8.435
  773POPC   C3B14205  22.062   0.103   8.001
  773POPC   C4B14206  21.873   0.185   7.606
  774POPC   NC314207  10.171  41.906   9.559
  774POPC   PO414208  10.590  42.469   9.579
  774POPC   GL114209  10.374  42.276   9.255
  774POPC   GL214210  10.581  42.013   9.150
  774POPC   C1A14211  10.253  42.477   8.884
  774POPC   D2A14212  10.288  42.523   8.429
  774POPC   C3A14213  10.523  42.596   8.013
  774POPC   C4A14214  10.625  42.462   7.591
  774POPC   C1B14215  10.634  42.170   8.762
  774POPC   C2B14216  10.771  42.288   8.370
  774POPC   C3B14217  10.662  42.117   7.969
  774POPC   C4B14218  10.964  42.060   7.654
  775POPC   NC314219  17.822  33.559   9.778
  775POPC   PO414220  17.368  33.750   9.257
  775POPC   GL114221  17.733  33.861   9.140
  775POPC   GL214222  17.878  33.573   9.263
  775POPC   C1A14223  17.665  33.933   8.711
  775POPC   D2A14224  17.256  34.039   8.530
  775POPC   C3A14225  17.288  33.803   8.182
  775POPC   C4A14226  17.589  33.911   7.875
  775POPC   C1B14227  17.794  33.433   8.847
  775POPC   C2B14228  17.628  33.497   8.463
  775POPC   C3B14229  17.791  33.509   8.089
  775POPC   C4B14230  17.705  33.408   7.697
  776POPC   NC314231  20.488   5.515   9.815
  776POPC   PO414232  20.850   5.750   9.367
  776POPC   GL114233  20.497   5.719   9.119
  776POPC   GL214234  20.369   6.027   9.228
  776POPC   C1A14235  20.613   5.709   8.668
  776POPC   D2A14236  20.891   6.051   8.468
  776POPC   C3A14237  20.913   5.929   8.052
  776POPC   C4A14238  20.663   5.742   7.766
  776POPC   C1B14239  20.505   6.174   8.796
  776POPC   C2B14240  20.398   6.067   8.334
  776POPC   C3B14241  20.444   6.185   7.900
  776POPC   C4B14242  20.370   6.371   7.501
  777POPC   NC314243  30.313  26.244   9.568
  777POPC   PO414244  29.850  25.778   9.390
  777POPC   GL114245  29.945  25.949   9.056
  777POPC   GL214246  30.298  26.013   9.099
  777POPC   C1A14247  29.699  26.269   8.834
  777POPC   D2A14248  29.585  26.345   8.445
  777POPC   C3A14249  29.683  26.068   8.147
  777POPC   C4A14250  29.624  26.186   7.738
  777POPC   C1B14251  30.224  25.910   8.651
  777POPC   C2B14252  30.200  26.107   8.282
  777POPC   C3B14253  30.117  25.976   7.898
  777POPC   C4B14254  29.827  25.684   7.745
  778POPC   NC314255  28.352  22.083   9.642
  778POPC   PO414256  28.651  22.647   9.362
  778POPC   GL114257  28.538  22.256   9.172
  778POPC   GL214258  28.204  22.147   9.152
  778POPC   C1A14259  28.556  22.221   8.717
  778POPC   D2A14260  28.313  22.238   8.326
  778POPC   C3A14261  28.524  22.284   7.944
  778POPC   C4A14262  28.587  22.046   7.524
  778POPC   C1B14263  28.303  21.807   8.862
  778POPC   C2B14264  28.445  21.733   8.423
  778POPC   C3B14265  28.379  21.802   7.976
  778POPC   C4B14266  28.142  21.836   7.584
  779POPC   NC314267  16.239   2.603   9.427
  779POPC   PO414268  15.926   3.186   9.465
  779POPC   GL114269  16.169   3.144   9.055
  779POPC   GL214270  16.176   2.790   8.964
  779POPC   C1A14271  16.132   3.167   8.601
  779POPC   D2A14272  16.032   2.797   8.370
  779POPC   C3A14273  16.057   2.918   7.960
  779POPC   C4A14274  15.772   2.909   7.619
  779POPC   C1B14275  15.993   2.350   8.844
  779POPC   C2B14276  16.026   2.220   8.406
  779POPC   C3B14277  15.919   2.424   8.003
  779POPC   C4B14278  15.540   2.412   7.755
  780POPC   NC314279  40.565  34.345   9.385
  780POPC   PO414280  41.098  34.585   9.633
  780POPC   GL114281  41.000  34.634   9.157
  780POPC   GL214282  40.676  34.763   9.053
  780POPC   C1A14283  41.074  34.921   8.788
  780POPC   D2A14284  41.130  34.860   8.326
  780POPC   C3A14285  40.860  34.572   8.056
  780POPC   C4A14286  40.784  34.839   7.697
  780POPC   C1B14287  40.727  34.564   8.668
  780POPC   C2B14288  40.618  34.860   8.377
  780POPC   C3B14289  40.374  34.768   8.030
  780POPC   C4B14290  40.407  34.504   7.682
  781POPC   NC314291  36.307  44.134   9.581
  781POPC   PO414292  36.728  43.641   9.544
  781POPC   GL114293  36.432  43.785   9.165
  781POPC   GL214294  36.167  44.067   9.113
  781POPC   C1A14295  36.142  43.611   8.803
  781POPC   D2A14296  35.793  43.517   8.485
  781POPC   C3A14297  35.849  43.651   8.044
  781POPC   C4A14298  36.192  43.501   7.830
  781POPC   C1B14299  36.375  44.051   8.744
  781POPC   C2B14300  36.213  43.874   8.355
  781POPC   C3B14301  36.292  44.024   7.947
  781POPC   C4B14302  36.246  44.339   7.615
  782POPC   NC314303   5.117  30.784   9.580
  782POPC   PO414304   5.045  30.078   9.646
  782POPC   GL114305   5.135  30.360   9.237
  782POPC   GL214306   5.258  30.718   9.101
  782POPC   C1A14307   4.967  30.438   8.810
  782POPC   D2A14308   5.097  30.299   8.426
  782POPC   C3A14309   4.997  30.586   8.066
  782POPC   C4A14310   4.932  30.965   7.834
  782POPC   C1B14311   5.419  31.017   8.804
  782POPC   C2B14312   5.287  31.109   8.390
  782POPC   C3B14313   5.398  31.082   7.944
  782POPC   C4B14314   5.264  31.171   7.480
  783POPC   NC314315  43.626  20.370   9.513
  783POPC   PO414316  43.938  20.952   9.538
  783POPC   GL114317  43.969  20.697   9.162
  783POPC   GL214318  44.056  20.363   9.210
  783POPC   C1A14319  44.081  20.749   8.729
  783POPC   D2A14320  43.882  20.980   8.399
  783POPC   C3A14321  43.745  20.901   8.003
  783POPC   C4A14322  43.809  20.672   7.661
  783POPC   C1B14323  43.867  20.296   8.776
  783POPC   C2B14324  43.856  20.473   8.321
  783POPC   C3B14325  43.833  20.225   7.921
  783POPC   C4B14326  43.552  20.150   7.558
  784POPC   NC314327  18.775  32.250   9.620
  784POPC   PO414328  19.238  32.639   9.427
  784POPC   GL114329  18.846  32.495   9.168
  784POPC   GL214330  18.655  32.136   9.149
  784POPC   C1A14331  18.833  32.435   8.731
  784POPC   D2A14332  18.926  32.624   8.332
  784POPC   C3A14333  19.255  32.490   8.052
  784POPC   C4A14334  19.168  32.339   7.649
  784POPC   C1B14335  18.601  31.970   8.735
  784POPC   C2B14336  18.847  32.040   8.385
  784POPC   C3B14337  18.971  32.024   7.985
  784POPC   C4B14338  18.912  31.900   7.540
  785POPC   NC314339  17.691  43.505   9.591
  785POPC   PO414340  17.839  44.260   9.494
  785POPC   GL114341  17.553  44.050   9.138
  785POPC   GL214342  17.518  43.689   9.148
  785POPC   C1A14343  17.316  43.945   8.718
  785POPC   D2A14344  17.276  44.115   8.283
  785POPC   C3A14345  17.308  43.916   7.862
  785POPC   C4A14346  17.217  44.069   7.444
  785POPC   C1B14347  17.761  43.694   8.772
  785POPC   C2B14348  17.648  43.743   8.371
  785POPC   C3B14349  17.765  44.010   8.079
  785POPC   C4B14350  17.781  43.758   7.735
  786POPC   NC314351  42.990  30.841   9.957
  786POPC   PO414352  42.993  30.416   9.459
  786POPC   GL114353  43.194  30.313   9.098
  786POPC   GL214354  43.086  30.656   9.008
  786POPC   C1A14355  43.292  30.367   8.656
  786POPC   D2A14356  43.164  30.479   8.261
  786POPC   C3A14357  43.019  30.243   7.868
  786POPC   C4A14358  43.252  30.318   7.465
  786POPC   C1B14359  42.945  30.819   8.611
  786POPC   C2B14360  42.859  30.875   8.185
  786POPC   C3B14361  43.094  30.762   7.850
  786POPC   C4B14362  43.486  30.930   7.808
  787POPC   NC314363  14.529  25.553   9.604
  787POPC   PO414364  14.045  25.273   9.331
  787POPC   GL114365  14.266  25.400   9.018
  787POPC   GL214366  14.486  25.684   9.035
  787POPC   C1A14367  14.173  25.493   8.613
  787POPC   D2A14368  14.115  25.703   8.281
  787POPC   C3A14369  14.368  25.541   7.960
  787POPC   C4A14370  14.338  25.145   7.776
  787POPC   C1B14371  14.672  25.446   8.651
  787POPC   C2B14372  14.793  25.366   8.204
  787POPC   C3B14373  14.871  25.182   7.780
  787POPC   C4B14374  14.921  25.178   7.293
  788POPC   NC314375  23.268  30.650   9.191
  788POPC   PO414376  22.617  30.459   9.392
  788POPC   GL114377  22.846  30.399   9.022
  788POPC   GL214378  22.824  30.791   8.958
  788POPC   C1A14379  22.952  30.507   8.584
  788POPC   D2A14380  22.727  30.908   8.450
  788POPC   C3A14381  22.785  30.862   8.031
  788POPC   C4A14382  22.845  30.540   7.715
  788POPC   C1B14383  23.210  30.944   8.646
  788POPC   C2B14384  23.330  31.117   8.240
  788POPC   C3B14385  23.229  30.962   7.830
  788POPC   C4B14386  22.925  31.010   7.548
  789POPC   NC314387   1.633  20.486   9.513
  789POPC   PO414388   2.216  20.880   9.535
  789POPC   GL114389   2.087  20.734   9.145
  789POPC   GL214390   2.436  20.771   9.041
  789POPC   C1A14391   2.001  20.382   8.860
  789POPC   D2A14392   2.109  20.286   8.445
  789POPC   C3A14393   1.924  20.410   8.048
  789POPC   C4A14394   2.141  20.250   7.702
  789POPC   C1B14395   2.271  20.749   8.635
  789POPC   C2B14396   2.368  20.681   8.197
  789POPC   C3B14397   2.188  20.859   7.835
  789POPC   C4B14398   2.282  20.977   7.397
  790POPC   NC314399  23.358  16.365   9.458
  790POPC   PO414400  22.857  16.824   9.558
  790POPC   GL114401  23.147  16.767   9.205
  790POPC   GL214402  22.865  16.628   9.069
  790POPC   C1A14403  23.295  16.571   8.777
  790POPC   D2A14404  23.060  16.633   8.357
  790POPC   C3A14405  23.190  16.500   7.939
  790POPC   C4A14406  22.809  16.483   7.731
  790POPC   C1B14407  22.914  16.913   8.757
  790POPC   C2B14408  22.661  17.052   8.446
  790POPC   C3B14409  22.616  17.187   8.027
  790POPC   C4B14410  22.947  16.951   7.822
  791POPC   NC314411   2.560  30.330   9.434
  791POPC   PO414412   3.078  30.799   9.531
  791POPC   GL114413   2.885  30.713   9.157
  791POPC   GL214414   2.823  31.034   9.010
  791POPC   C1A14415   2.952  30.597   8.721
  791POPC   D2A14416   2.647  30.693   8.350
  791POPC   C3A14417   2.733  30.535   7.950
  791POPC   C4A14418   3.138  30.424   7.802
  791POPC   C1B14419   2.488  30.805   8.817
  791POPC   C2B14420   2.167  30.898   8.529
  791POPC   C3B14421   2.171  30.810   8.091
  791POPC   C4B14422   2.370  30.832   7.706
  792POPC   NC314423  22.102   4.367   9.774
  792POPC   PO414424  22.107   5.008   9.672
  792POPC   GL114425  22.183   4.724   9.296
  792POPC   GL214426  22.152   4.356   9.192
  792POPC   C1A14427  22.274   4.746   8.841
  792POPC   D2A14428  22.273   4.795   8.364
  792POPC   C3A14429  22.107   4.425   8.113
  792POPC   C4A14430  21.971   4.313   7.686
  792POPC   C1B14431  21.966   4.333   8.745
  792POPC   C2B14432  21.737   4.173   8.370
  792POPC   C3B14433  21.840   3.926   8.001
  792POPC   C4B14434  21.654   3.893   7.605
  793POPC   NC314435   6.893  16.530   9.353
  793POPC   PO414436   6.582  17.133   9.436
  793POPC   GL114437   6.632  16.899   9.080
  793POPC   GL214438   6.370  16.647   9.119
  793POPC   C1A14439   6.534  16.843   8.655
  793POPC   D2A14440   6.765  16.947   8.301
  793POPC   C3A14441   6.687  16.765   7.943
  793POPC   C4A14442   6.364  16.927   7.694
  793POPC   C1B14443   6.297  16.385   8.754
  793POPC   C2B14444   6.505  16.386   8.340
  793POPC   C3B14445   6.279  16.441   7.949
  793POPC   C4B14446   6.294  16.462   7.518
  794POPC   NC314447  37.443  44.588   9.465
  794POPC   PO414448  38.076  44.891   9.495
  794POPC   GL114449  37.776  44.867   9.170
  794POPC   GL214450  37.644   0.182   9.108
  794POPC   C1A14451  37.767  44.566   8.819
  794POPC   D2A14452  37.576  44.404   8.443
  794POPC   C3A14453  37.745  44.527   8.085
  794POPC   C4A14454  37.555  44.519   7.733
  794POPC   C1B14455  37.635   0.043   8.695
  794POPC   C2B14456  37.486   0.224   8.321
  794POPC   C3B14457  37.480  44.981   7.961
  794POPC   C4B14458  37.218  44.900   7.631
  795POPC   NC314459  10.795   8.402   9.508
  795POPC   PO414460  10.182   8.184   9.424
  795POPC   GL114461  10.568   8.011   9.242
  795POPC   GL214462  10.410   7.969   8.999
  795POPC   C1A14463  10.835   8.143   8.838
  795POPC   D2A14464  10.664   8.403   8.494
  795POPC   C3A14465  10.746   8.181   8.094
  795POPC   C4A14466  11.019   8.276   7.727
  795POPC   C1B14467  10.475   7.892   8.563
  795POPC   C2B14468  10.180   7.666   8.345
  795POPC   C3B14469  10.087   7.946   8.054
  795POPC   C4B14470  10.333   8.157   7.771
  796POPC   NC314471  21.045  10.006   9.511
  796POPC   PO414472  20.612   9.465   9.479
  796POPC   GL114473  20.638   9.539   9.093
  796POPC   GL214474  20.591   9.902   9.188
  796POPC   C1A14475  20.918   9.375   8.764
  796POPC   D2A14476  21.060   9.610   8.382
  796POPC   C3A14477  20.901   9.450   7.985
  796POPC   C4A14478  20.779   9.717   7.617
  796POPC   C1B14479  20.332   9.850   8.793
  796POPC   C2B14480  20.225   9.847   8.352
  796POPC   C3B14481  20.467   9.735   7.999
  796POPC   C4B14482  20.343   9.476   7.568
  797POPC   NC314483  36.047   7.418   9.465
  797POPC   PO414484  35.867   7.961   9.378
  797POPC   GL114485  35.924   7.641   9.038
  797POPC   GL214486  36.132   7.304   9.004
  797POPC   C1A14487  35.851   7.524   8.654
  797POPC   D2A14488  35.774   7.596   8.262
  797POPC   C3A14489  35.996   7.323   7.981
  797POPC   C4A14490  36.160   7.411   7.554
  797POPC   C1B14491  36.189   7.067   8.640
  797POPC   C2B14492  36.342   6.972   8.213
  797POPC   C3B14493  36.452   7.064   7.762
  797POPC   C4B14494  36.553   7.206   7.270
  798POPC   NC314495  16.121   4.321   9.575
  798POPC   PO414496  15.473   4.076   9.508
  798POPC   GL114497  15.773   4.237   9.196
  798POPC   GL214498  16.052   4.491   9.109
  798POPC   C1A14499  15.950   4.065   8.790
  798POPC   D2A14500  15.776   4.000   8.346
  798POPC   C3A14501  16.065   4.051   7.972
  798POPC   C4A14502  16.077   3.847   7.559
  798POPC   C1B14503  15.748   4.568   8.821
  798POPC   C2B14504  15.960   4.469   8.458
  798POPC   C3B14505  16.091   4.568   8.073
  798POPC   C4B14506  15.886   4.564   7.701
  799POPC   NC314507  41.499  35.728   9.731
  799POPC   PO414508  41.613  35.169   9.484
  799POPC   GL114509  41.437  35.216   9.093
  799POPC   GL214510  41.415  35.587   9.173
  799POPC   C1A14511  41.531  35.109   8.656
  799POPC   D2A14512  41.751  35.274   8.304
  799POPC   C3A14513  41.580  35.085   7.995
  799POPC   C4A14514  41.477  34.849   7.689
  799POPC   C1B14515  41.621  35.618   8.772
  799POPC   C2B14516  41.512  35.771   8.386
  799POPC   C3B14517  41.506  35.604   7.981
  799POPC   C4B14518  41.383  35.547   7.592
  800POPC   NC314519  30.102   6.334   9.494
  800POPC   PO414520  29.379   6.270   9.399
  800POPC   GL114521  29.738   6.388   9.094
  800POPC   GL214522  29.998   6.666   9.104
  800POPC   C1A14523  29.774   6.528   8.652
  800POPC   D2A14524  29.889   6.327   8.261
  800POPC   C3A14525  29.683   6.593   7.966
  800POPC   C4A14526  29.838   6.926   7.686
  800POPC   C1B14527  30.095   6.942   8.742
  800POPC   C2B14528  30.069   6.811   8.302
  800POPC   C3B14529  30.193   6.637   7.917
  800POPC   C4B14530  30.375   6.820   7.557
  801POPC   NC314531  23.991  30.002   9.431
  801POPC   PO414532  23.678  30.517   9.326
  801POPC   GL114533  23.556  30.203   9.076
  801POPC   GL214534  23.649  29.856   9.090
  801POPC   C1A14535  23.699  30.117   8.672
  801POPC   D2A14536  23.604  29.892   8.316
  801POPC   C3A14537  23.787  30.113   7.960
  801POPC   C4A14538  23.672  30.161   7.526
  801POPC   C1B14539  24.011  29.712   8.812
  801POPC   C2B14540  24.059  29.501   8.410
  801POPC   C3B14541  23.826  29.533   8.037
  801POPC   C4B14542  23.919  29.725   7.671
  802POPC   NC314543   3.079   1.176   9.374
  802POPC   PO414544   3.729   0.869   9.215
  802POPC   GL114545   3.522   1.255   9.080
  802POPC   GL214546   3.191   1.147   8.900
  802POPC   C1A14547   3.477   1.473   8.679
  802POPC   D2A14548   3.321   1.197   8.350
  802POPC   C3A14549   3.407   1.378   7.944
  802POPC   C4A14550   3.822   1.419   7.743
  802POPC   C1B14551   3.188   0.779   8.672
  802POPC   C2B14552   3.050   0.686   8.251
  802POPC   C3B14553   3.148   0.932   7.858
  802POPC   C4B14554   3.103   0.830   7.405
  803POPC   NC314555   1.443  35.662   9.442
  803POPC   PO414556   0.822  35.291   9.369
  803POPC   GL114557   1.179  35.352   9.145
  803POPC   GL214558   1.269  35.001   9.132
  803POPC   C1A14559   1.169  35.620   8.773
  803POPC   D2A14560   0.932  35.484   8.403
  803POPC   C3A14561   1.168  35.524   8.038
  803POPC   C4A14562   1.398  35.442   7.620
  803POPC   C1B14563   1.118  35.101   8.716
  803POPC   C2B14564   1.205  35.038   8.318
  803POPC   C3B14565   1.109  35.037   7.892
  803POPC   C4B14566   1.363  34.878   7.596
  804POPC   NC314567  21.095  12.997   9.688
  804POPC   PO414568  21.466  12.659   9.303
  804POPC   GL114569  21.258  12.854   9.011
  804POPC   GL214570  21.008  13.028   9.171
  804POPC   C1A14571  21.224  12.835   8.579
  804POPC   D2A14572  21.411  12.533   8.322
  804POPC   C3A14573  21.308  12.703   7.946
  804POPC   C4A14574  21.425  12.680   7.536
  804POPC   C1B14575  20.969  13.230   8.762
  804POPC   C2B14576  21.160  13.302   8.336
  804POPC   C3B14577  21.144  13.193   7.893
  804POPC   C4B14578  21.113  13.095   7.422
  805POPC   NC314579   8.695  14.544   9.438
  805POPC   PO414580   9.323  14.539   9.416
  805POPC   GL114581   9.056  14.398   9.082
  805POPC   GL214582   8.889  14.094   9.270
  805POPC   C1A14583   9.155  14.572   8.631
  805POPC   D2A14584   9.389  14.695   8.217
  805POPC   C3A14585   9.124  14.828   7.868
  805POPC   C4A14586   8.789  14.498   7.691
  805POPC   C1B14587   8.807  14.008   8.854
  805POPC   C2B14588   8.825  14.214   8.478
  805POPC   C3B14589   9.018  14.322   8.115
  805POPC   C4B14590   8.972  14.022   7.770
  806POPC   NC314591   1.565   7.032   9.443
  806POPC   PO414592   1.964   6.408   9.485
  806POPC   GL114593   1.955   6.667   9.150
  806POPC   GL214594   1.602   6.614   9.118
  806POPC   C1A14595   2.205   6.669   8.765
  806POPC   D2A14596   2.365   6.665   8.329
  806POPC   C3A14597   2.036   6.595   7.987
  806POPC   C4A14598   1.772   6.462   7.628
  806POPC   C1B14599   1.720   6.854   8.747
  806POPC   C2B14600   1.954   6.969   8.392
  806POPC   C3B14601   1.818   7.056   7.974
  806POPC   C4B14602   1.848   6.964   7.518
  807POPC   NC314603   5.939  20.075   9.467
  807POPC   PO414604   5.956  19.388   9.284
  807POPC   GL114605   5.778  19.755   9.066
  807POPC   GL214606   6.039  19.982   8.972
  807POPC   C1A14607   5.791  19.653   8.633
  807POPC   D2A14608   6.114  19.668   8.326
  807POPC   C3A14609   5.970  19.883   7.948
  807POPC   C4A14610   6.073  19.743   7.548
  807POPC   C1B14611   5.698  20.134   8.692
  807POPC   C2B14612   5.532  19.986   8.286
  807POPC   C3B14613   5.567  20.182   7.863
  807POPC   C4B14614   5.941  20.229   7.554
  808POPC   NC314615  15.409  31.629   9.403
  808POPC   PO414616  14.866  31.170   9.319
  808POPC   GL114617  15.088  31.460   9.043
  808POPC   GL214618  14.970  31.778   8.967
  808POPC   C1A14619  15.403  31.560   8.706
  808POPC   D2A14620  15.582  31.787   8.328
  808POPC   C3A14621  15.328  31.724   7.961
  808POPC   C4A14622  15.179  31.337   7.776
  808POPC   C1B14623  14.875  31.562   8.582
  808POPC   C2B14624  14.836  31.484   8.142
  808POPC   C3B14625  14.670  31.363   7.746
  808POPC   C4B14626  14.682  31.683   7.401
  809POPC   NC314627  25.358   3.835   9.427
  809POPC   PO414628  25.058   4.368   9.645
  809POPC   GL114629  25.327   4.397   9.264
  809POPC   GL214630  25.113   4.641   9.044
  809POPC   C1A14631  25.471   4.369   8.836
  809POPC   D2A14632  25.263   4.402   8.449
  809POPC   C3A14633  25.418   4.335   8.036
  809POPC   C4A14634  25.428   4.312   7.607
  809POPC   C1B14635  24.878   4.670   8.658
  809POPC   C2B14636  24.795   4.503   8.226
  809POPC   C3B14637  24.981   4.495   7.827
  809POPC   C4B14638  25.060   4.660   7.431
  810POPC   NC314639  26.932  30.674   9.513
  810POPC   PO414640  26.564  31.208   9.397
  810POPC   GL114641  26.728  30.966   9.050
  810POPC   GL214642  27.067  30.893   9.072
  810POPC   C1A14643  26.761  30.652   8.688
  810POPC   D2A14644  26.777  30.615   8.225
  810POPC   C3A14645  26.627  30.532   7.817
  810POPC   C4A14646  26.546  30.923   7.603
  810POPC   C1B14647  27.157  30.973   8.653
  810POPC   C2B14648  27.269  30.648   8.333
  810POPC   C3B14649  27.170  30.586   7.880
  810POPC   C4B14650  27.160  30.470   7.432
  811POPC   NC314651  20.769   1.573   9.531
  811POPC   PO414652  20.865   2.303   9.547
  811POPC   GL114653  20.870   1.993   9.230
  811POPC   GL214654  20.515   1.952   9.112
  811POPC   C1A14655  20.952   1.794   8.832
  811POPC   D2A14656  20.879   1.942   8.417
  811POPC   C3A14657  20.932   1.794   7.994
  811POPC   C4A14658  20.855   2.045   7.630
  811POPC   C1B14659  20.460   1.737   8.706
  811POPC   C2B14660  20.346   1.868   8.288
  811POPC   C3B14661  20.396   1.933   7.839
  811POPC   C4B14662  20.221   1.738   7.457
  812POPC   NC314663  19.794  10.593   9.499
  812POPC   PO414664  20.238  10.161   9.491
  812POPC   GL114665  20.168  10.385   9.125
  812POPC   GL214666  20.061  10.748   9.103
  812POPC   C1A14667  19.900  10.337   8.795
  812POPC   D2A14668  19.890  10.591   8.444
  812POPC   C3A14669  20.038  10.379   8.094
  812POPC   C4A14670  19.892  10.460   7.712
  812POPC   C1B14671  19.627  10.780   8.874
  812POPC   C2B14672  19.402  10.790   8.467
  812POPC   C3B14673  19.597  10.799   8.059
  812POPC   C4B14674  19.506  10.764   7.646
  813POPC   NC314675   5.730   9.217   9.492
  813POPC   PO414676   6.402   8.991   9.526
  813POPC   GL114677   6.137   9.090   9.186
  813POPC   GL214678   5.964   8.772   9.091
  813POPC   C1A14679   6.101   9.248   8.769
  813POPC   D2A14680   5.969   9.128   8.360
  813POPC   C3A14681   6.149   9.303   7.984
  813POPC   C4A14682   6.194   9.009   7.632
  813POPC   C1B14683   5.657   8.794   8.731
  813POPC   C2B14684   5.462   9.110   8.421
  813POPC   C3B14685   5.590   9.246   8.003
  813POPC   C4B14686   5.669   8.928   7.696
  814POPC   NC314687   5.518  40.872   9.437
  814POPC   PO414688   4.879  41.120   9.499
  814POPC   GL114689   4.928  40.983   9.094
  814POPC   GL214690   5.133  40.690   9.125
  814POPC   C1A14691   4.815  40.800   8.698
  814POPC   D2A14692   4.795  41.060   8.334
  814POPC   C3A14693   4.686  40.822   7.989
  814POPC   C4A14694   4.803  40.651   7.594
  814POPC   C1B14695   5.325  40.846   8.727
  814POPC   C2B14696   5.237  40.675   8.302
  814POPC   C3B14697   5.236  40.813   7.860
  814POPC   C4B14698   5.561  41.112   7.707
  815POPC   NC314699   3.376  28.843   9.258
  815POPC   PO414700   3.651  29.468   9.469
  815POPC   GL114701   3.715  29.235   9.114
  815POPC   GL214702   3.385  29.330   9.045
  815POPC   C1A14703   3.701  29.147   8.666
  815POPC   D2A14704   3.892  28.996   8.331
  815POPC   C3A14705   3.770  29.188   7.953
  815POPC   C4A14706   3.859  29.490   7.668
  815POPC   C1B14707   3.542  29.618   8.738
  815POPC   C2B14708   3.601  29.540   8.322
  815POPC   C3B14709   3.369  29.508   7.992
  815POPC   C4B14710   3.345  29.369   7.614
  816POPC   NC314711   2.772  33.534   9.439
  816POPC   PO414712   2.998  34.117   9.621
  816POPC   GL114713   2.870  33.948   9.167
  816POPC   GL214714   2.491  33.817   9.128
  816POPC   C1A14715   2.871  33.648   8.791
  816POPC   D2A14716   2.952  33.491   8.340
  816POPC   C3A14717   2.902  33.822   8.016
  816POPC   C4A14718   3.100  33.675   7.660
  816POPC   C1B14719   2.349  33.593   8.752
  816POPC   C2B14720   2.445  33.511   8.322
  816POPC   C3B14721   2.551  33.498   7.877
  816POPC   C4B14722   2.671  33.416   7.454
  817POPC   NC314723  22.513  41.355   9.483
  817POPC   PO414724  22.968  41.818   9.540
  817POPC   GL114725  22.802  41.693   9.118
  817POPC   GL214726  22.774  41.321   9.034
  817POPC   C1A14727  22.757  41.688   8.662
  817POPC   D2A14728  22.867  41.401   8.320
  817POPC   C3A14729  22.847  41.638   7.922
  817POPC   C4A14730  22.632  41.653   7.527
  817POPC   C1B14731  23.152  41.318   8.759
  817POPC   C2B14732  23.443  41.340   8.414
  817POPC   C3B14733  23.290  41.348   8.000
  817POPC   C4B14734  23.188  41.191   7.600
  818POPC   NC314735  29.285  40.369   9.780
  818POPC   PO414736  28.940  40.923   9.479
  818POPC   GL114737  28.928  40.766   9.103
  818POPC   GL214738  29.262  40.665   9.097
  818POPC   C1A14739  29.044  40.902   8.702
  818POPC   D2A14740  28.863  40.878   8.312
  818POPC   C3A14741  29.135  40.876   7.976
  818POPC   C4A14742  28.928  40.688   7.687
  818POPC   C1B14743  29.232  40.423   8.705
  818POPC   C2B14744  29.302  40.544   8.314
  818POPC   C3B14745  29.245  40.343   7.909
  818POPC   C4B14746  29.384  40.492   7.491
  819POPC   NC314747  39.359   5.173   9.455
  819POPC   PO414748  38.726   5.338   9.552
  819POPC   GL114749  38.980   5.388   9.206
  819POPC   GL214750  38.949   5.014   9.184
  819POPC   C1A14751  39.180   5.304   8.804
  819POPC   D2A14752  39.450   5.146   8.517
  819POPC   C3A14753  39.403   5.000   8.129
  819POPC   C4A14754  39.268   5.151   7.767
  819POPC   C1B14755  38.716   4.756   8.890
  819POPC   C2B14756  38.975   4.890   8.535
  819POPC   C3B14757  38.902   4.959   8.104
  819POPC   C4B14758  38.796   4.747   7.754
  820POPC   NC314759  19.373  12.805   9.517
  820POPC   PO414760  18.815  13.154   9.422
  820POPC   GL114761  19.060  12.992   9.125
  820POPC   GL214762  19.035  12.625   9.157
  820POPC   C1A14763  18.968  12.920   8.711
  820POPC   D2A14764  18.881  12.777   8.316
  820POPC   C3A14765  18.972  12.987   7.944
  820POPC   C4A14766  18.761  12.970   7.570
  820POPC   C1B14767  19.144  12.409   8.792
  820POPC   C2B14768  19.149  12.359   8.370
  820POPC   C3B14769  19.086  12.480   7.956
  820POPC   C4B14770  19.135  12.597   7.565
  821POPC   NC314771   2.380  12.103   9.494
  821POPC   PO414772   1.907  11.744   9.740
  821POPC   GL114773   1.881  11.830   9.266
  821POPC   GL214774   2.111  12.045   9.080
  821POPC   C1A14775   1.666  12.030   8.859
  821POPC   D2A14776   1.637  12.240   8.437
  821POPC   C3A14777   1.825  12.109   8.029
  821POPC   C4A14778   1.855  12.014   7.592
  821POPC   C1B14779   2.211  12.100   8.636
  821POPC   C2B14780   2.288  12.216   8.202
  821POPC   C3B14781   2.340  12.114   7.750
  821POPC   C4B14782   2.183  12.278   7.329
  822POPC   NC314783   3.908  29.868   9.473
  822POPC   PO414784   3.320  30.090   9.659
  822POPC   GL114785   3.526  30.146   9.264
  822POPC   GL214786   3.438  29.834   9.181
  822POPC   C1A14787   3.651  30.165   8.823
  822POPC   D2A14788   3.847  29.971   8.476
  822POPC   C3A14789   3.723  30.188   8.080
  822POPC   C4A14790   3.630  29.947   7.715
  822POPC   C1B14791   3.186  29.972   8.830
  822POPC   C2B14792   3.342  29.995   8.404
  822POPC   C3B14793   3.181  29.969   7.992
  822POPC   C4B14794   3.178  29.880   7.521
  823POPC   NC314795   2.533  29.330   9.485
  823POPC   PO414796   3.041  28.952   9.561
  823POPC   GL114797   2.959  29.063   9.101
  823POPC   GL214798   2.688  29.191   9.005
  823POPC   C1A14799   3.135  29.148   8.646
  823POPC   D2A14800   3.346  29.043   8.226
  823POPC   C3A14801   3.072  28.984   7.827
  823POPC   C4A14802   3.148  28.992   7.348
  823POPC   C1B14803   2.631  29.207   8.580
  823POPC   C2B14804   2.438  29.522   8.344
  823POPC   C3B14805   2.403  29.469   7.912
  823POPC   C4B14806   2.654  29.188   7.624
  824POPC   NC314807  11.208  39.778   9.650
  824POPC   PO414808  11.262  40.360   9.470
  824POPC   GL114809  11.159  40.042   9.163
  824POPC   GL214810  10.942  39.700   9.218
  824POPC   C1A14811  11.324  40.129   8.713
  824POPC   D2A14812  11.560  39.997   8.337
  824POPC   C3A14813  11.314  39.982   7.977
  824POPC   C4A14814  11.056  40.299   7.855
  824POPC   C1B14815  11.040  39.726   8.792
  824POPC   C2B14816  11.053  39.822   8.386
  824POPC   C3B14817  10.771  39.938   8.117
  824POPC   C4B14818  10.811  39.836   7.709
  825POPC   NC314819  34.897  13.003   9.469
  825POPC   PO414820  34.366  12.656   9.583
  825POPC   GL114821  34.430  12.614   9.170
  825POPC   GL214822  34.411  12.961   9.057
  825POPC   C1A14823  34.769  12.608   8.886
  825POPC   D2A14824  34.850  12.649   8.442
  825POPC   C3A14825  34.514  12.687   8.153
  825POPC   C4A14826  34.461  12.712   7.722
  825POPC   C1B14827  34.748  13.110   8.736
  825POPC   C2B14828  34.757  13.142   8.255
  825POPC   C3B14829  34.569  13.243   7.824
  825POPC   C4B14830  34.350  13.094   7.410
  826POPC   NC314831   0.995  25.989   9.543
  826POPC   PO414832   1.652  26.294   9.428
  826POPC   GL114833   1.332  26.241   9.118
  826POPC   GL214834   0.999  26.383   9.180
  826POPC   C1A14835   1.155  25.896   8.870
  826POPC   D2A14836   1.224  25.654   8.482
  826POPC   C3A14837   1.385  25.879   8.102
  826POPC   C4A14838   1.256  25.885   7.674
  826POPC   C1B14839   0.779  26.271   8.797
  826POPC   C2B14840   0.904  26.061   8.426
  826POPC   C3B14841   0.977  26.156   8.002
  826POPC   C4B14842   0.978  26.361   7.574
  827POPC   NC314843  26.206   2.587   9.516
  827POPC   PO414844  26.322   3.189   9.175
  827POPC   GL114845  26.080   2.822   9.059
  827POPC   GL214846  26.041   2.510   9.062
  827POPC   C1A14847  25.925   2.754   8.644
  827POPC   D2A14848  26.059   2.977   8.299
  827POPC   C3A14849  25.871   2.956   7.905
  827POPC   C4A14850  25.976   2.716   7.546
  827POPC   C1B14851  26.206   2.335   8.711
  827POPC   C2B14852  26.320   2.468   8.311
  827POPC   C3B14853  26.022   2.472   7.999
  827POPC   C4B14854  26.000   2.211   7.651
  828POPC   NC314855  29.368  44.678   9.448
  828POPC   PO414856  28.668  44.488   9.614
  828POPC   GL114857  28.904  44.600   9.254
  828POPC   GL214858  28.824  44.896   9.111
  828POPC   C1A14859  28.939  44.458   8.825
  828POPC   D2A14860  28.853  44.321   8.408
  828POPC   C3A14861  29.092  44.416   8.049
  828POPC   C4A14862  28.866  44.595   7.697
  828POPC   C1B14863  29.103  44.948   8.826
  828POPC   C2B14864  29.089   0.144   8.463
  828POPC   C3B14865  29.018  44.913   8.116
  828POPC   C4B14866  29.316  44.818   7.787
  829POPC   NC314867  13.942  32.694   9.547
  829POPC   PO414868  13.336  32.792   9.517
  829POPC   GL114869  13.622  32.947   9.173
  829POPC   GL214870  13.947  33.125   9.225
  829POPC   C1A14871  13.790  32.866   8.750
  829POPC   D2A14872  13.607  32.754   8.339
  829POPC   C3A14873  13.749  32.930   7.946
  829POPC   C4A14874  13.693  33.034   7.502
  829POPC   C1B14875  13.934  33.349   8.799
  829POPC   C2B14876  13.826  33.251   8.353
  829POPC   C3B14877  13.845  33.431   7.919
  829POPC   C4B14878  13.610  33.537   7.522
  830POPC   NC314879  32.797  22.733   9.476
  830POPC   PO414880  33.244  23.194   9.591
  830POPC   GL114881  32.937  23.171   9.239
  830POPC   GL214882  33.068  22.875   9.078
  830POPC   C1A14883  32.812  23.202   8.794
  830POPC   D2A14884  33.001  23.002   8.428
  830POPC   C3A14885  32.797  23.059   8.050
  830POPC   C4A14886  33.052  23.037   7.668
  830POPC   C1B14887  32.920  22.624   8.748
  830POPC   C2B14888  32.789  22.517   8.310
  830POPC   C3B14889  32.906  22.580   7.862
  830POPC   C4B14890  32.896  22.609   7.361
  831POPC   NC314891  32.813   8.335   9.459
  831POPC   PO414892  33.516   8.115   9.473
  831POPC   GL114893  33.197   8.226   9.165
  831POPC   GL214894  32.990   7.970   9.051
  831POPC   C1A14895  33.038   8.348   8.735
  831POPC   D2A14896  33.271   8.353   8.352
  831POPC   C3A14897  33.142   8.463   7.923
  831POPC   C4A14898  32.985   8.361   7.480
  831POPC   C1B14899  32.720   7.943   8.674
  831POPC   C2B14900  32.793   8.164   8.252
  831POPC   C3B14901  32.666   8.099   7.796
  831POPC   C4B14902  32.746   7.912   7.349
  832POPC   NC314903  30.483  35.994   9.297
  832POPC   PO414904  31.176  36.156   9.366
  832POPC   GL114905  30.943  36.062   9.031
  832POPC   GL214906  30.901  36.361   8.928
  832POPC   C1A14907  30.631  36.046   8.653
  832POPC   D2A14908  30.450  35.908   8.284
  832POPC   C3A14909  30.549  36.002   7.858
  832POPC   C4A14910  30.469  36.263   7.483
  832POPC   C1B14911  31.103  36.174   8.545
  832POPC   C2B14912  30.876  36.257   8.184
  832POPC   C3B14913  30.934  36.308   7.752
  832POPC   C4B14914  31.007  35.993   7.447
  833POPC   NC314915  40.884  34.970   9.511
  833POPC   PO414916  40.683  35.505   9.635
  833POPC   GL114917  40.645  35.339   9.208
  833POPC   GL214918  40.951  35.351   9.117
  833POPC   C1A14919  40.612  35.212   8.766
  833POPC   D2A14920  40.679  35.407   8.370
  833POPC   C3A14921  40.602  35.223   8.011
  833POPC   C4A14922  40.648  35.358   7.632
  833POPC   C1B14923  41.146  35.433   8.712
  833POPC   C2B14924  41.204  35.354   8.290
  833POPC   C3B14925  41.102  35.200   7.878
  833POPC   C4B14926  41.089  35.176   7.424
  834POPC   NC314927   7.635  41.702   9.699
  834POPC   PO414928   7.235  41.357   9.260
  834POPC   GL114929   7.488  41.526   8.972
  834POPC   GL214930   7.715  41.770   9.185
  834POPC   C1A14931   7.394  41.295   8.621
  834POPC   D2A14932   7.305  41.453   8.282
  834POPC   C3A14933   7.348  41.286   7.928
  834POPC   C4A14934   7.247  41.613   7.681
  834POPC   C1B14935   7.532  41.999   8.833
  834POPC   C2B14936   7.704  41.943   8.439
  834POPC   C3B14937   7.614  41.794   8.045
  834POPC   C4B14938   7.859  41.970   7.785
  835POPC   NC314939  19.237  34.617   9.680
  835POPC   PO414940  18.668  34.309   9.792
  835POPC   GL114941  18.853  34.418   9.356
  835POPC   GL214942  19.165  34.598   9.193
  835POPC   C1A14943  18.820  34.411   8.894
  835POPC   D2A14944  18.758  34.586   8.487
  835POPC   C3A14945  18.923  34.541   8.077
  835POPC   C4A14946  18.992  34.666   7.678
  835POPC   C1B14947  19.142  34.811   8.786
  835POPC   C2B14948  19.143  34.955   8.362
  835POPC   C3B14949  19.390  34.873   7.996
  835POPC   C4B14950  19.480  34.733   7.572
  836POPC   NC314951  12.119  38.479   9.750
  836POPC   PO414952  12.589  38.447   9.491
  836POPC   GL114953  12.136  38.400   9.243
  836POPC   GL214954  11.891  38.695   9.171
  836POPC   C1A14955  11.933  38.342   8.801
  836POPC   D2A14956  12.110  38.350   8.366
  836POPC   C3A14957  11.933  38.286   7.943
  836POPC   C4A14958  11.730  38.199   7.534
  836POPC   C1B14959  11.681  38.792   8.731
  836POPC   C2B14960  11.608  38.586   8.299
  836POPC   C3B14961  11.633  38.684   7.823
  836POPC   C4B14962  11.697  38.939   7.424
  837POPC   NC314963  16.828   3.920   9.681
  837POPC   PO414964  16.527   4.538   9.629
  837POPC   GL114965  16.597   4.472   9.212
  837POPC   GL214966  16.893   4.267   9.272
  837POPC   C1A14967  16.841   4.559   8.820
  837POPC   D2A14968  16.925   4.433   8.381
  837POPC   C3A14969  16.530   4.293   8.113
  837POPC   C4A14970  16.419   4.521   7.682
  837POPC   C1B14971  16.858   3.933   8.964
  837POPC   C2B14972  16.887   3.907   8.506
  837POPC   C3B14973  16.989   4.023   8.095
  837POPC   C4B14974  16.915   4.389   7.816
  838POPC   NC314975  33.891  17.363   9.639
  838POPC   PO414976  33.517  17.819   9.565
  838POPC   GL114977  33.640  17.532   9.183
  838POPC   GL214978  33.971  17.272   9.148
  838POPC   C1A14979  33.771  17.490   8.748
  838POPC   D2A14980  33.967  17.709   8.437
  838POPC   C3A14981  33.859  17.586   8.061
  838POPC   C4A14982  34.037  17.674   7.711
  838POPC   C1B14983  33.960  17.018   8.760
  838POPC   C2B14984  34.040  17.166   8.333
  838POPC   C3B14985  34.063  17.131   7.862
  838POPC   C4B14986  33.834  17.265   7.498
  839POPC   NC314987  29.380  16.076   9.760
  839POPC   PO414988  28.858  16.194   9.354
  839POPC   GL114989  29.226  16.004   9.241
  839POPC   GL214990  29.074  15.738   9.090
  839POPC   C1A14991  29.304  16.159   8.817
  839POPC   D2A14992  29.212  15.946   8.447
  839POPC   C3A14993  29.194  16.169   8.065
  839POPC   C4A14994  29.095  15.968   7.689
  839POPC   C1B14995  29.451  15.670   8.822
  839POPC   C2B14996  29.680  15.697   8.405
  839POPC   C3B14997  29.486  15.734   7.981
  839POPC   C4B14998  29.197  15.484   7.746
  840POPC   NC314999   0.278  19.598   9.422
  840POPC   PO415000   0.442  20.181   9.440
  840POPC   GL115001   0.291  20.025   9.090
  840POPC   GL215002   0.555  19.768   9.034
  840POPC   C1A15003   0.122  19.834   8.728
  840POPC   D2A15004   0.194  19.712   8.311
  840POPC   C3A15005   0.520  19.893   8.041
  840POPC   C4A15006   0.495  20.039   7.622
  840POPC   C1B15007   0.704  20.082   8.756
  840POPC   C2B15008   0.744  20.253   8.333
  840POPC   C3B15009   0.880  20.296   7.878
  840POPC   C4B15010   0.931  20.193   7.404
  841POPC   NC315011   8.323   5.389   9.483
  841POPC   PO415012   8.443   6.106   9.355
  841POPC   GL115013   8.167   5.960   9.030
  841POPC   GL215014   8.032   5.623   9.092
  841POPC   C1A15015   8.065   5.941   8.596
  841POPC   D2A15016   7.815   6.036   8.234
  841POPC   C3A15017   8.024   6.097   7.828
  841POPC   C4A15018   7.883   6.053   7.393
  841POPC   C1B15019   8.338   5.531   8.773
  841POPC   C2B15020   8.480   5.689   8.383
  841POPC   C3B15021   8.170   5.694   8.105
  841POPC   C4B15022   8.080   5.592   7.677
  842POPC   NC315023  42.585  33.566   9.378
  842POPC   PO415024  42.249  32.947   9.547
  842POPC   GL115025  42.374  33.088   9.176
  842POPC   GL215026  42.716  32.894   9.152
  842POPC   C1A15027  42.133  33.002   8.785
  842POPC   D2A15028  42.052  32.658   8.500
  842POPC   C3A15029  42.003  32.747   8.073
  842POPC   C4A15030  42.136  33.089   7.809
  842POPC   C1B15031  42.626  33.061   8.742
  842POPC   C2B15032  42.446  33.214   8.358
  842POPC   C3B15033  42.615  33.099   7.957
  842POPC   C4B15034  42.585  33.274   7.551
  843POPC   NC315035   0.205   5.362   9.535
  843POPC   PO415036   0.796   5.003   9.488
  843POPC   GL115037   0.509   5.141   9.161
  843POPC   GL215038   0.218   4.945   9.204
  843POPC   C1A15039   0.478   5.264   8.733
  843POPC   D2A15040   0.573   5.024   8.379
  843POPC   C3A15041   0.505   5.163   7.982
  843POPC   C4A15042   0.752   5.151   7.579
  843POPC   C1B15043   0.014   5.024   8.798
  843POPC   C2B15044   0.073   5.167   8.351
  843POPC   C3B15045  44.957   5.246   7.907
  843POPC   C4B15046   0.170   5.040   7.583
  844POPC   NC315047  34.213  25.822   9.534
  844POPC   PO415048  34.804  26.128   9.510
  844POPC   GL115049  34.491  26.128   9.225
  844POPC   GL215050  34.617  25.812   9.101
  844POPC   C1A15051  34.349  26.115   8.807
  844POPC   D2A15052  34.581  26.105   8.452
  844POPC   C3A15053  34.375  26.197   8.116
  844POPC   C4A15054  34.545  25.934   7.849
  844POPC   C1B15055  34.853  26.198   8.866
  844POPC   C2B15056  35.023  26.366   8.481
  844POPC   C3B15057  34.902  26.272   8.072
  844POPC   C4B15058  34.949  26.437   7.681
  845POPC   NC315059  10.237  38.655   9.506
  845POPC   PO415060  10.193  39.331   9.672
  845POPC   GL115061  10.245  39.271   9.202
  845POPC   GL215062  10.447  39.014   9.129
  845POPC   C1A15063  10.327  39.277   8.712
  845POPC   D2A15064  10.423  39.188   8.293
  845POPC   C3A15065  10.457  39.243   7.833
  845POPC   C4A15066  10.437  39.376   7.384
  845POPC   C1B15067  10.648  38.890   8.696
  845POPC   C2B15068  10.794  38.867   8.262
  845POPC   C3B15069  10.760  38.846   7.803
  845POPC   C4B15070  10.821  39.067   7.366
  846POPC   NC315071   7.730   4.995   9.544
  846POPC   PO415072   7.033   4.803   9.553
  846POPC   GL115073   7.197   4.959   9.157
  846POPC   GL215074   7.562   4.924   9.069
  846POPC   C1A15075   7.200   5.114   8.725
  846POPC   D2A15076   7.495   5.133   8.397
  846POPC   C3A15077   7.463   4.923   7.988
  846POPC   C4A15078   7.368   4.718   7.585
  846POPC   C1B15079   7.704   5.282   8.855
  846POPC   C2B15080   7.852   5.492   8.485
  846POPC   C3B15081   7.855   5.310   8.077
  846POPC   C4B15082   7.696   5.248   7.701
  847POPC   NC315083  41.332  14.823   9.459
  847POPC   PO415084  41.811  14.347   9.490
  847POPC   GL115085  41.572  14.450   9.173
  847POPC   GL215086  41.744  14.702   9.122
  847POPC   C1A15087  41.430  14.326   8.780
  847POPC   D2A15088  41.486  14.011   8.458
  847POPC   C3A15089  41.632  14.141   8.070
  847POPC   C4A15090  41.378  14.263   7.704
  847POPC   C1B15091  41.961  14.757   8.789
  847POPC   C2B15092  41.720  14.630   8.442
  847POPC   C3B15093  41.506  14.650   8.070
  847POPC   C4B15094  41.809  14.544   7.795
  848POPC   NC315095  10.676   6.591   9.639
  848POPC   PO415096  10.093   6.513   9.345
  848POPC   GL115097  10.472   6.717   9.152
  848POPC   GL215098  10.870   6.706   9.193
  848POPC   C1A15099  10.435   6.844   8.736
  848POPC   D2A15100  10.379   6.603   8.370
  848POPC   C3A15101  10.288   6.727   7.936
  848POPC   C4A15102  10.401   6.420   7.621
  848POPC   C1B15103  10.871   6.513   8.812
  848POPC   C2B15104  10.815   6.317   8.424
  848POPC   C3B15105  10.769   6.529   8.039
  848POPC   C4B15106  10.930   6.379   7.705
  849POPC   NC315107   6.897  10.539   9.856
  849POPC   PO415108   7.304  10.611   9.308
  849POPC   GL115109   7.397  10.405   8.997
  849POPC   GL215110   7.760  10.432   8.971
  849POPC   C1A15111   7.170  10.375   8.634
  849POPC   D2A15112   7.358  10.393   8.242
  849POPC   C3A15113   7.059  10.474   7.951
  849POPC   C4A15114   7.059  10.839   7.642
  849POPC   C1B15115   7.610  10.689   8.639
  849POPC   C2B15116   7.815  10.708   8.287
  849POPC   C3B15117   7.771  10.446   7.937
  849POPC   C4B15118   7.441  10.383   7.655
  850POPC   NC315119  32.635   7.353   9.530
  850POPC   PO415120  32.024   7.132   9.506
  850POPC   GL115121  32.231   7.405   9.203
  850POPC   GL215122  32.413   7.134   9.057
  850POPC   C1A15123  32.297   7.579   8.789
  850POPC   D2A15124  32.156   7.687   8.377
  850POPC   C3A15125  32.518   7.699   8.114
  850POPC   C4A15126  32.578   7.588   7.694
  850POPC   C1B15127  32.142   7.110   8.663
  850POPC   C2B15128  32.190   7.208   8.202
  850POPC   C3B15129  31.990   7.042   7.820
  850POPC   C4B15130  32.063   7.011   7.343
  851POPC   NC315131  33.540  30.142   9.510
  851POPC   PO415132  34.126  29.883   9.480
  851POPC   GL115133  33.849  29.967   9.139
  851POPC   GL215134  33.565  29.735   9.161
  851POPC   C1A15135  33.784  30.166   8.722
  851POPC   D2A15136  33.630  30.241   8.286
  851POPC   C3A15137  33.802  30.139   7.856
  851POPC   C4A15138  34.053  30.267   7.470
  851POPC   C1B15139  33.747  29.630   8.765
  851POPC   C2B15140  33.906  29.780   8.385
  851POPC   C3B15141  33.598  29.728   8.094
  851POPC   C4B15142  33.700  29.641   7.691
  852POPC   NC315143   5.094  18.267   9.664
  852POPC   PO415144   5.572  18.402   9.282
  852POPC   GL115145   5.195  18.186   9.172
  852POPC   GL215146   5.359  18.001   8.983
  852POPC   C1A15147   4.907  18.098   8.805
  852POPC   D2A15148   4.917  18.208   8.386
  852POPC   C3A15149   4.717  17.939   8.112
  852POPC   C4A15150   4.699  18.148   7.742
  852POPC   C1B15151   5.344  18.349   8.674
  852POPC   C2B15152   5.404  18.355   8.238
  852POPC   C3B15153   5.204  18.262   7.860
  852POPC   C4B15154   5.401  18.080   7.488
  853POPC   NC315155  36.241  12.336   9.398
  853POPC   PO415156  35.806  11.797   9.378
  853POPC   GL115157  35.923  12.072   9.065
  853POPC   GL215158  35.803  12.391   8.995
  853POPC   C1A15159  35.920  11.949   8.652
  853POPC   D2A15160  35.928  11.705   8.295
  853POPC   C3A15161  36.204  11.887   8.001
  853POPC   C4A15162  36.088  12.121   7.641
  853POPC   C1B15163  36.112  12.437   8.702
  853POPC   C2B15164  36.141  12.298   8.289
  853POPC   C3B15165  36.196  12.540   7.909
  853POPC   C4B15166  36.408  12.540   7.490
  854POPC   NC315167  35.152  35.290   9.509
  854POPC   PO415168  35.688  34.970   9.261
  854POPC   GL115169  35.342  35.146   9.041
  854POPC   GL215170  35.319  35.527   9.096
  854POPC   C1A15171  35.359  35.064   8.620
  854POPC   D2A15172  35.217  35.202   8.249
  854POPC   C3A15173  35.337  35.184   7.854
  854POPC   C4A15174  35.089  35.434   7.609
  854POPC   C1B15175  35.603  35.594   8.805
  854POPC   C2B15176  35.506  35.584   8.409
  854POPC   C3B15177  35.330  35.667   8.033
  854POPC   C4B15178  35.542  35.826   7.730
  855POPC   NC315179  34.305   2.411   9.818
  855POPC   PO415180  34.793   2.640   9.668
  855POPC   GL115181  34.946   2.626   9.197
  855POPC   GL215182  34.998   2.965   9.104
  855POPC   C1A15183  34.927   2.615   8.697
  855POPC   D2A15184  34.792   2.546   8.233
  855POPC   C3A15185  34.498   2.866   8.001
  855POPC   C4A15186  34.199   2.995   7.668
  855POPC   C1B15187  34.935   3.130   8.674
  855POPC   C2B15188  34.977   3.031   8.238
  855POPC   C3B15189  34.974   2.827   7.848
  855POPC   C4B15190  35.159   2.939   7.470
  856POPC   NC315191  40.951   9.581   9.416
  856POPC   PO415192  40.407   9.480   9.471
  856POPC   GL115193  40.350   9.700   9.081
  856POPC   GL215194  40.607   9.941   9.180
  856POPC   C1A15195  40.316   9.630   8.606
  856POPC   D2A15196  40.475   9.477   8.159
  856POPC   C3A15197  40.838   9.699   7.941
  856POPC   C4A15198  41.116   9.967   7.673
  856POPC   C1B15199  40.686   9.998   8.732
  856POPC   C2B15200  40.576   9.962   8.301
  856POPC   C3B15201  40.604  10.157   7.909
  856POPC   C4B15202  40.895  10.430   7.691
  857POPC   NC315203  14.515   9.463  10.069
  857POPC   PO415204  14.398   8.941   9.584
  857POPC   GL115205  14.342   9.068   9.155
  857POPC   GL215206  14.718   9.086   9.019
  857POPC   C1A15207  14.340   9.272   8.763
  857POPC   D2A15208  14.605   9.159   8.447
  857POPC   C3A15209  14.363   9.113   8.100
  857POPC   C4A15210  14.172   9.253   7.756
  857POPC   C1B15211  14.522   8.762   8.776
  857POPC   C2B15212  14.550   8.500   8.429
  857POPC   C3B15213  14.578   8.638   8.045
  857POPC   C4B15214  14.373   8.757   7.708
  858POPC   NC315215  20.077   3.125   9.528
  858POPC   PO415216  19.949   2.430   9.581
  858POPC   GL115217  20.013   2.734   9.189
  858POPC   GL215218  19.816   2.519   8.970
  858POPC   C1A15219  20.023   2.867   8.706
  858POPC   D2A15220  19.838   2.800   8.314
  858POPC   C3A15221  19.860   3.075   7.966
  858POPC   C4A15222  19.796   2.976   7.547
  858POPC   C1B15223  19.590   2.347   8.606
  858POPC   C2B15224  19.432   2.502   8.212
  858POPC   C3B15225  19.675   2.540   7.826
  858POPC   C4B15226  19.596   2.380   7.406
  859POPC   NC315227  19.477  39.679   9.526
  859POPC   PO415228  20.031  40.037   9.340
  859POPC   GL115229  19.699  39.849   9.059
  859POPC   GL215230  19.610  39.524   9.055
  859POPC   C1A15231  19.680  39.980   8.629
  859POPC   D2A15232  20.036  40.130   8.400
  859POPC   C3A15233  19.892  40.240   8.005
  859POPC   C4A15234  19.912  40.217   7.563
  859POPC   C1B15235  19.934  39.538   8.706
  859POPC   C2B15236  20.014  39.614   8.262
  859POPC   C3B15237  20.093  39.765   7.843
  859POPC   C4B15238  20.082  39.669   7.410
  860POPC   NC315239  17.767  14.052   9.361
  860POPC   PO415240  17.230  14.313   9.683
  860POPC   GL115241  17.252  14.240   9.244
  860POPC   GL215242  17.373  14.587   9.178
  860POPC   C1A15243  17.322  14.064   8.809
  860POPC   D2A15244  17.115  14.172   8.393
  860POPC   C3A15245  17.299  14.131   7.968
  860POPC   C4A15246  17.680  14.297   7.784
  860POPC   C1B15247  17.480  14.539   8.751
  860POPC   C2B15248  17.612  14.515   8.312
  860POPC   C3B15249  17.505  14.738   7.953
  860POPC   C4B15250  17.396  14.689   7.506
  861POPC   NC315251  43.536  41.141   9.396
  861POPC   PO415252  43.510  40.504   9.534
  861POPC   GL115253  43.778  40.514   9.159
  861POPC   GL215254  43.906  40.838   9.236
  861POPC   C1A15255  43.938  40.646   8.774
  861POPC   D2A15256  43.748  40.930   8.495
  861POPC   C3A15257  43.633  40.719   8.126
  861POPC   C4A15258  43.857  40.664   7.746
  861POPC   C1B15259  44.068  41.117   8.908
  861POPC   C2B15260  44.175  41.208   8.476
  861POPC   C3B15261  44.115  40.998   8.093
  861POPC   C4B15262  44.027  41.159   7.703
  862POPC   NC315263  39.269  26.501   9.459
  862POPC   PO415264  38.850  26.989   9.560
  862POPC   GL115265  38.889  26.752   9.195
  862POPC   GL215266  39.249  26.878   9.100
  862POPC   C1A15267  39.033  26.517   8.830
  862POPC   D2A15268  39.250  26.735   8.525
  862POPC   C3A15269  39.210  26.614   8.096
  862POPC   C4A15270  39.219  26.694   7.650
  862POPC   C1B15271  39.338  27.200   8.780
  862POPC   C2B15272  39.494  27.429   8.420
  862POPC   C3B15273  39.439  27.320   8.008
  862POPC   C4B15274  39.455  27.185   7.604
  863POPC   NC315275  14.943  14.111   9.423
  863POPC   PO415276  15.266  14.692   9.602
  863POPC   GL115277  15.253  14.490   9.197
  863POPC   GL215278  14.927  14.539   9.131
  863POPC   C1A15279  15.275  14.576   8.730
  863POPC   D2A15280  15.520  14.413   8.345
  863POPC   C3A15281  15.294  14.388   7.954
  863POPC   C4A15282  14.937  14.568   7.772
  863POPC   C1B15283  14.857  14.305   8.753
  863POPC   C2B15284  14.909  14.432   8.314
  863POPC   C3B15285  14.843  14.117   7.989
  863POPC   C4B15286  14.931  14.070   7.533
  864POPC   NC315287  23.868  44.277   9.616
  864POPC   PO415288  23.570  44.831   9.355
  864POPC   GL115289  23.622  44.460   9.082
  864POPC   GL215290  23.974  44.382   8.996
  864POPC   C1A15291  23.648  44.569   8.626
  864POPC   D2A15292  23.390  44.682   8.275
  864POPC   C3A15293  23.597  44.605   7.880
  864POPC   C4A15294  23.708  44.848   7.526
  864POPC   C1B15295  23.784  44.089   8.665
  864POPC   C2B15296  23.749  44.185   8.190
  864POPC   C3B15297  23.991  44.306   7.836
  864POPC   C4B15298  23.900  44.385   7.394
  865POPC   NC315299  36.530   5.077   9.547
  865POPC   PO415300  37.243   5.031   9.496
  865POPC   GL115301  37.100   5.074   9.126
  865POPC   GL215302  36.741   5.084   9.060
  865POPC   C1A15303  37.169   5.255   8.747
  865POPC   D2A15304  36.849   5.199   8.476
  865POPC   C3A15305  36.895   5.175   8.045
  865POPC   C4A15306  37.278   5.237   7.881
  865POPC   C1B15307  36.518   4.778   8.795
  865POPC   C2B15308  36.520   4.836   8.327
  865POPC   C3B15309  36.645   4.693   7.892
  865POPC   C4B15310  36.589   4.693   7.424
  866POPC   NC315311  33.593  42.123   9.494
  866POPC   PO415312  33.910  42.655   9.392
  866POPC   GL115313  33.680  42.478   9.091
  866POPC   GL215314  33.849  42.158   9.054
  866POPC   C1A15315  33.763  42.485   8.665
  866POPC   D2A15316  33.976  42.320   8.333
  866POPC   C3A15317  33.795  42.453   7.956
  866POPC   C4A15318  33.962  42.698   7.644
  866POPC   C1B15319  33.796  41.922   8.691
  866POPC   C2B15320  34.037  41.818   8.364
  866POPC   C3B15321  33.943  41.925   7.997
  866POPC   C4B15322  33.553  42.017   7.818
  867POPC   NC315323  31.477  37.206   9.482
  867POPC   PO415324  31.082  37.880   9.472
  867POPC   GL115325  31.361  37.612   9.208
  867POPC   GL215326  31.402  37.879   9.039
  867POPC   C1A15327  31.624  37.513   8.802
  867POPC   D2A15328  31.437  37.621   8.386
  867POPC   C3A15329  31.672  37.546   8.016
  867POPC   C4A15330  31.864  37.857   7.750
  867POPC   C1B15331  31.123  38.034   8.717
  867POPC   C2B15332  31.131  38.029   8.300
  867POPC   C3B15333  31.441  38.022   7.992
  867POPC   C4B15334  31.423  38.242   7.592
  868POPC   NC315335  39.682  34.615   9.490
  868POPC   PO415336  40.416  34.792   9.465
  868POPC   GL115337  40.130  34.552   9.179
  868POPC   GL215338  39.849  34.742   9.050
  868POPC   C1A15339  40.132  34.320   8.789
  868POPC   D2A15340  40.303  34.403   8.388
  868POPC   C3A15341  40.044  34.381   8.018
  868POPC   C4A15342  39.891  34.722   7.738
  868POPC   C1B15343  39.734  34.861   8.675
  868POPC   C2B15344  39.862  34.812   8.269
  868POPC   C3B15345  39.584  35.016   8.025
  868POPC   C4B15346  39.390  34.933   7.642
  869POPC   NC315347  23.410  13.886   9.591
  869POPC   PO415348  23.884  13.432   9.426
  869POPC   GL115349  23.857  13.807   9.206
  869POPC   GL215350  23.531  13.768   9.112
  869POPC   C1A15351  23.859  13.897   8.755
  869POPC   D2A15352  23.587  13.706   8.424
  869POPC   C3A15353  23.845  13.787   8.082
  869POPC   C4A15354  23.932  13.915   7.692
  869POPC   C1B15355  23.684  13.403   8.822
  869POPC   C2B15356  23.546  13.161   8.479
  869POPC   C3B15357  23.589  13.318   8.075
  869POPC   C4B15358  23.464  13.207   7.689
  870POPC   NC315359  43.043   2.253   9.349
  870POPC   PO415360  43.294   1.646   9.542
  870POPC   GL115361  43.281   1.840   9.134
  870POPC   GL215362  42.938   1.836   9.034
  870POPC   C1A15363  43.311   2.074   8.740
  870POPC   D2A15364  43.187   2.067   8.311
  870POPC   C3A15365  43.247   1.772   7.999
  870POPC   C4A15366  43.275   2.081   7.676
  870POPC   C1B15367  42.801   2.079   8.663
  870POPC   C2B15368  42.838   2.407   8.339
  870POPC   C3B15369  42.827   2.222   7.942
  870POPC   C4B15370  42.816   2.363   7.538
  871POPC   NC315371  36.586  32.077   9.505
  871POPC   PO415372  36.008  32.392   9.485
  871POPC   GL115373  36.220  32.232   9.168
  871POPC   GL215374  36.328  32.510   9.051
  871POPC   C1A15375  36.158  32.101   8.751
  871POPC   D2A15376  36.272  31.932   8.347
  871POPC   C3A15377  36.053  32.043   7.973
  871POPC   C4A15378  36.034  31.922   7.538
  871POPC   C1B15379  36.180  32.669   8.712
  871POPC   C2B15380  36.146  32.441   8.356
  871POPC   C3B15381  36.184  32.520   7.952
  871POPC   C4B15382  36.271  32.379   7.571
  872POPC   NC315383  16.665  10.923   9.771
  872POPC   PO415384  16.592  11.480   9.367
  872POPC   GL115385  16.487  11.331   9.022
  872POPC   GL215386  16.812  11.447   8.920
  872POPC   C1A15387  16.500  11.194   8.624
  872POPC   D2A15388  16.244  11.321   8.343
  872POPC   C3A15389  16.440  11.195   7.975
  872POPC   C4A15390  16.736  11.440   7.767
  872POPC   C1B15391  17.060  11.507   8.614
  872POPC   C2B15392  16.898  11.341   8.242
  872POPC   C3B15393  16.938  11.002   7.962
  872POPC   C4B15394  16.983  11.044   7.513
  873POPC   NC315395  21.573  33.530   9.451
  873POPC   PO415396  21.135  34.041   9.568
  873POPC   GL115397  21.185  33.785   9.218
  873POPC   GL215398  21.514  33.913   9.090
  873POPC   C1A15399  21.154  33.692   8.781
  873POPC   D2A15400  21.385  33.901   8.440
  873POPC   C3A15401  21.167  33.806   8.061
  873POPC   C4A15402  21.205  33.713   7.634
  873POPC   C1B15403  21.651  33.592   8.766
  873POPC   C2B15404  21.781  33.595   8.323
  873POPC   C3B15405  21.643  33.709   7.911
  873POPC   C4B15406  21.839  33.729   7.509
  874POPC   NC315407   9.423  11.499   9.544
  874POPC   PO415408  10.130  11.642   9.493
  874POPC   GL115409   9.805  11.546   9.134
  874POPC   GL215410   9.423  11.470   9.031
  874POPC   C1A15411   9.812  11.336   8.717
  874POPC   D2A15412   9.660  11.389   8.306
  874POPC   C3A15413   9.847  11.158   7.976
  874POPC   C4A15414   9.700  11.297   7.576
  874POPC   C1B15415   9.382  11.056   8.774
  874POPC   C2B15416   9.330  10.908   8.336
  874POPC   C3B15417   9.334  11.087   7.902
  874POPC   C4B15418   9.290  11.065   7.425
  875POPC   NC315419  40.239  33.560   9.519
  875POPC   PO415420  39.693  34.105   9.533
  875POPC   GL115421  39.831  33.865   9.181
  875POPC   GL215422  40.198  33.943   9.159
  875POPC   C1A15423  39.712  33.870   8.740
  875POPC   D2A15424  40.003  33.959   8.398
  875POPC   C3A15425  39.778  33.954   8.053
  875POPC   C4A15426  39.835  33.792   7.681
  875POPC   C1B15427  40.184  33.701   8.788
  875POPC   C2B15428  40.394  33.605   8.426
  875POPC   C3B15429  40.187  33.604   8.044
  875POPC   C4B15430  40.275  33.479   7.627
  876POPC   NC315431   6.386  20.922   9.742
  876POPC   PO415432   7.041  20.934   9.626
  876POPC   GL115433   6.988  20.730   9.179
  876POPC   GL215434   6.919  20.353   9.136
  876POPC   C1A15435   6.651  20.645   8.822
  876POPC   D2A15436   6.529  20.497   8.383
  876POPC   C3A15437   6.639  20.744   8.012
  876POPC   C4A15438   6.487  21.010   7.672
  876POPC   C1B15439   6.846  20.182   8.699
  876POPC   C2B15440   6.987  20.314   8.265
  876POPC   C3B15441   6.807  20.295   7.850
  876POPC   C4B15442   7.020  20.365   7.426
  877POPC   NC315443   8.720  29.233   9.453
  877POPC   PO415444   9.198  28.810   9.501
  877POPC   GL115445   9.009  28.966   9.119
  877POPC   GL215446   8.708  28.815   9.049
  877POPC   C1A15447   9.121  29.107   8.694
  877POPC   D2A15448   9.393  28.895   8.393
  877POPC   C3A15449   9.243  28.915   7.968
  877POPC   C4A15450   9.213  29.082   7.516
  877POPC   C1B15451   8.629  29.199   8.805
  877POPC   C2B15452   8.688  29.197   8.354
  877POPC   C3B15453   8.830  29.227   7.908
  877POPC   C4B15454   8.766  29.372   7.482
  878POPC   NC315455  10.789  40.413   9.512
  878POPC   PO415456  10.132  40.294   9.621
  878POPC   GL115457  10.307  40.449   9.205
  878POPC   GL215458  10.517  40.748   9.219
  878POPC   C1A15459  10.508  40.557   8.774
  878POPC   D2A15460  10.454  40.851   8.475
  878POPC   C3A15461  10.399  40.785   8.062
  878POPC   C4A15462  10.790  40.780   7.782
  878POPC   C1B15463  10.590  41.109   8.891
  878POPC   C2B15464  10.740  41.261   8.442
  878POPC   C3B15465  10.626  41.229   8.007
  878POPC   C4B15466  10.387  41.066   7.627
  879POPC   NC315467  29.997  38.624   9.511
  879POPC   PO415468  30.251  37.955   9.558
  879POPC   GL115469  30.202  38.250   9.195
  879POPC   GL215470  29.869  38.377   9.088
  879POPC   C1A15471  30.264  38.519   8.807
  879POPC   D2A15472  29.991  38.562   8.432
  879POPC   C3A15473  30.006  38.207   8.142
  879POPC   C4A15474  30.131  38.180   7.721
  879POPC   C1B15475  29.838  38.834   8.907
  879POPC   C2B15476  29.537  38.980   8.583
  879POPC   C3B15477  29.651  38.875   8.157
  879POPC   C4B15478  29.978  38.656   7.896
  880POPC   NC315479  44.951  36.752   9.488
  880POPC   PO415480   0.580  37.069   9.550
  880POPC   GL115481   0.460  36.804   9.218
  880POPC   GL215482   0.678  37.005   9.058
  880POPC   C1A15483   0.259  36.776   8.799
  880POPC   D2A15484   0.168  36.637   8.373
  880POPC   C3A15485   0.261  36.884   8.004
  880POPC   C4A15486   0.584  36.730   7.711
  880POPC   C1B15487   0.593  37.163   8.690
  880POPC   C2B15488   0.651  36.932   8.336
  880POPC   C3B15489   0.707  37.132   7.962
  880POPC   C4B15490   0.866  37.240   7.557
  881POPC   NC315491  18.557   7.446   9.725
  881POPC   PO415492  18.010   7.543   9.213
  881POPC   GL115493  18.187   7.468   8.873
  881POPC   GL215494  18.339   7.168   8.987
  881POPC   C1A15495  18.159   7.528   8.470
  881POPC   D2A15496  18.464   7.650   8.194
  881POPC   C3A15497  18.289   7.584   7.818
  881POPC   C4A15498  18.200   7.633   7.373
  881POPC   C1B15499  18.235   7.029   8.618
  881POPC   C2B15500  18.303   7.100   8.197
  881POPC   C3B15501  18.609   7.207   7.913
  881POPC   C4B15502  18.405   7.166   7.512
  882POPC   NC315503   4.257  34.068   9.448
  882POPC   PO415504   3.948  33.446   9.495
  882POPC   GL115505   4.253  33.646   9.196
  882POPC   GL215506   4.008  33.938   9.033
  882POPC   C1A15507   4.436  33.866   8.785
  882POPC   D2A15508   4.129  33.937   8.451
  882POPC   C3A15509   4.289  33.944   8.045
  882POPC   C4A15510   4.345  34.051   7.599
  882POPC   C1B15511   4.028  33.533   8.789
  882POPC   C2B15512   4.017  33.375   8.424
  882POPC   C3B15513   3.885  33.626   8.106
  882POPC   C4B15514   3.991  33.646   7.735
  883POPC   NC315515   8.232  37.711   9.728
  883POPC   PO415516   8.545  37.520   9.185
  883POPC   GL115517   8.183  37.621   9.023
  883POPC   GL215518   7.934  37.640   9.268
  883POPC   C1A15519   8.137  37.563   8.571
  883POPC   D2A15520   8.235  37.894   8.255
  883POPC   C3A15521   8.289  37.791   7.795
  883POPC   C4A15522   8.370  37.830   7.354
  883POPC   C1B15523   7.730  37.421   8.888
  883POPC   C2B15524   7.733  37.234   8.458
  883POPC   C3B15525   7.923  37.346   8.067
  883POPC   C4B15526   7.754  37.360   7.652
  884POPC   NC315527  12.121  10.113   9.323
  884POPC   PO415528  11.871   9.490   9.513
  884POPC   GL115529  12.035   9.630   9.124
  884POPC   GL215530  11.789   9.869   9.057
  884POPC   C1A15531  11.965   9.486   8.679
  884POPC   D2A15532  11.877   9.447   8.228
  884POPC   C3A15533  12.172   9.647   7.915
  884POPC   C4A15534  12.337   9.595   7.489
  884POPC   C1B15535  11.814   9.971   8.673
  884POPC   C2B15536  11.631   9.905   8.326
  884POPC   C3B15537  11.705   9.912   7.914
  884POPC   C4B15538  12.043  10.115   7.724
  885POPC   NC315539  16.474  13.342   9.422
  885POPC   PO415540  16.909  13.772   9.613
  885POPC   GL115541  16.797  13.881   9.193
  885POPC   GL215542  16.695  13.564   9.024
  885POPC   C1A15543  16.814  13.978   8.759
  885POPC   D2A15544  16.846  13.687   8.418
  885POPC   C3A15545  16.845  13.847   8.004
  885POPC   C4A15546  16.613  13.943   7.636
  885POPC   C1B15547  16.430  13.305   8.750
  885POPC   C2B15548  16.422  13.418   8.346
  885POPC   C3B15549  16.698  13.358   8.021
  885POPC   C4B15550  16.550  13.436   7.644
  886POPC   NC315551  25.987  18.886   9.504
  886POPC   PO415552  26.519  18.681   9.666
  886POPC   GL115553  26.482  18.861   9.176
  886POPC   GL215554  26.221  19.093   9.066
  886POPC   C1A15555  26.506  18.923   8.690
  886POPC   D2A15556  26.284  19.132   8.361
  886POPC   C3A15557  26.162  19.097   7.937
  886POPC   C4A15558  25.888  18.957   7.580
  886POPC   C1B15559  25.925  19.146   8.723
  886POPC   C2B15560  25.742  19.106   8.293
  886POPC   C3B15561  25.705  19.341   7.916
  886POPC   C4B15562  25.864  19.472   7.522
  887POPC   NC315563  34.414  28.806   9.507
  887POPC   PO415564  34.735  29.328   9.708
  887POPC   GL115565  34.726  29.120   9.250
  887POPC   GL215566  34.421  29.162   9.097
  887POPC   C1A15567  34.804  29.010   8.798
  887POPC   D2A15568  34.749  29.153   8.368
  887POPC   C3A15569  34.820  28.938   7.980
  887POPC   C4A15570  34.881  29.079   7.562
  887POPC   C1B15571  34.516  29.451   8.716
  887POPC   C2B15572  34.518  29.639   8.274
  887POPC   C3B15573  34.560  29.362   7.902
  887POPC   C4B15574  34.319  28.983   7.815
  888POPC   NC315575   2.335   6.708   9.494
  888POPC   PO415576   2.871   6.223   9.525
  888POPC   GL115577   2.683   6.447   9.218
  888POPC   GL215578   2.366   6.337   9.148
  888POPC   C1A15579   2.724   6.614   8.820
  888POPC   D2A15580   3.002   6.568   8.465
  888POPC   C3A15581   2.846   6.762   8.126
  888POPC   C4A15582   2.918   6.669   7.722
  888POPC   C1B15583   2.384   6.188   8.724
  888POPC   C2B15584   2.393   6.146   8.280
  888POPC   C3B15585   2.502   6.395   7.907
  888POPC   C4B15586   2.450   6.870   7.800
  889POPC   NC315587  28.107  42.515   9.289
  889POPC   PO415588  28.543  42.022   9.425
  889POPC   GL115589  28.553  42.327   9.094
  889POPC   GL215590  28.279  42.153   8.972
  889POPC   C1A15591  28.485  42.513   8.658
  889POPC   D2A15592  28.501  42.523   8.195
  889POPC   C3A15593  28.091  42.593   8.042
  889POPC   C4A15594  27.843  42.409   7.754
  889POPC   C1B15595  28.294  41.795   8.741
  889POPC   C2B15596  28.411  41.839   8.339
  889POPC   C3B15597  28.232  42.086   8.019
  889POPC   C4B15598  28.399  42.368   7.693
  890POPC   NC315599   4.541  20.746   9.524
  890POPC   PO415600   4.510  20.093   9.497
  890POPC   GL115601   4.223  20.296   9.193
  890POPC   GL215602   4.226  20.670   9.133
  890POPC   C1A15603   4.016  20.371   8.794
  890POPC   D2A15604   4.245  20.596   8.462
  890POPC   C3A15605   4.329  20.385   8.060
  890POPC   C4A15606   4.144  20.638   7.770
  890POPC   C1B15607   4.528  20.845   8.843
  890POPC   C2B15608   4.651  20.974   8.431
  890POPC   C3B15609   4.495  20.864   8.082
  890POPC   C4B15610   4.648  20.683   7.738
  891POPC   NC315611  24.237   5.099   9.622
  891POPC   PO415612  24.737   4.720   9.383
  891POPC   GL115613  24.520   4.962   9.095
  891POPC   GL215614  24.232   5.177   9.085
  891POPC   C1A15615  24.532   5.049   8.668
  891POPC   D2A15616  24.733   5.014   8.299
  891POPC   C3A15617  24.591   5.207   7.963
  891POPC   C4A15618  24.675   4.895   7.675
  891POPC   C1B15619  24.160   5.379   8.695
  891POPC   C2B15620  24.141   5.182   8.280
  891POPC   C3B15621  24.078   5.245   7.819
  891POPC   C4B15622  24.125   5.414   7.398
  892POPC   NC315623  29.837  21.837   9.510
  892POPC   PO415624  29.962  21.215   9.502
  892POPC   GL115625  30.037  21.316   9.101
  892POPC   GL215626  30.197  21.677   9.171
  892POPC   C1A15627  29.839  21.262   8.683
  892POPC   D2A15628  29.804  21.527   8.282
  892POPC   C3A15629  29.823  21.280   7.865
  892POPC   C4A15630  29.743  21.252   7.394
  892POPC   C1B15631  30.111  21.690   8.730
  892POPC   C2B15632  30.286  21.402   8.456
  892POPC   C3B15633  30.346  21.293   8.028
  892POPC   C4B15634  30.273  21.237   7.583
  893POPC   NC315635  26.034  36.462   9.681
  893POPC   PO415636  26.046  35.865   9.582
  893POPC   GL115637  26.189  36.006   9.170
  893POPC   GL215638  26.139  36.328   9.216
  893POPC   C1A15639  25.953  36.144   8.777
  893POPC   D2A15640  25.745  36.290   8.379
  893POPC   C3A15641  25.835  36.188   7.909
  893POPC   C4A15642  25.594  36.387   7.560
  893POPC   C1B15643  26.356  36.494   8.906
  893POPC   C2B15644  26.299  36.414   8.504
  893POPC   C3B15645  26.216  36.457   8.096
  893POPC   C4B15646  26.370  36.370   7.709
  894POPC   NC315647  18.295  44.081   9.527
  894POPC   PO415648  18.132  43.411   9.753
  894POPC   GL115649  18.318  43.591   9.331
  894POPC   GL215650  18.025  43.800   9.205
  894POPC   C1A15651  18.336  43.619   8.843
  894POPC   D2A15652  18.159  43.804   8.464
  894POPC   C3A15653  18.189  43.690   8.051
  894POPC   C4A15654  18.377  43.644   7.675
  894POPC   C1B15655  18.037  44.121   8.865
  894POPC   C2B15656  18.217  44.313   8.491
  894POPC   C3B15657  18.417  44.158   8.134
  894POPC   C4B15658  18.167  44.129   7.787
  895POPC   NC315659  17.075   8.466   9.199
  895POPC   PO415660  16.641   7.896   9.359
  895POPC   GL115661  16.621   8.209   9.070
  895POPC   GL215662  16.415   8.499   9.140
  895POPC   C1A15663  16.796   8.180   8.674
  895POPC   D2A15664  16.771   7.972   8.309
  895POPC   C3A15665  17.020   8.296   8.165
  895POPC   C4A15666  16.886   8.560   7.835
  895POPC   C1B15667  16.345   8.428   8.696
  895POPC   C2B15668  16.549   8.454   8.283
  895POPC   C3B15669  16.540   8.166   7.893
  895POPC   C4B15670  16.289   8.045   7.515
  896POPC   NC315671  35.873  37.340   9.450
  896POPC   PO415672  36.081  38.013   9.497
  896POPC   GL115673  36.202  37.774   9.150
  896POPC   GL215674  35.893  37.661   9.082
  896POPC   C1A15675  36.204  37.704   8.714
  896POPC   D2A15676  36.028  37.630   8.358
  896POPC   C3A15677  36.235  37.417   8.054
  896POPC   C4A15678  36.200  37.651   7.698
  896POPC   C1B15679  35.796  37.353   8.741
  896POPC   C2B15680  35.586  37.393   8.326
  896POPC   C3B15681  35.716  37.590   7.932
  896POPC   C4B15682  35.747  37.621   7.455
  897POPC   NC315683  43.041  21.945   9.511
  897POPC   PO415684  42.997  22.600   9.688
  897POPC   GL115685  43.032  22.352   9.218
  897POPC   GL215686  43.203  22.017   9.035
  897POPC   C1A15687  42.964  22.357   8.752
  897POPC   D2A15688  43.215  22.202   8.400
  897POPC   C3A15689  42.957  22.131   8.036
  897POPC   C4A15690  42.820  22.317   7.659
  897POPC   C1B15691  43.103  21.654   8.787
  897POPC   C2B15692  43.103  21.609   8.351
  897POPC   C3B15693  43.221  21.714   7.936
  897POPC   C4B15694  43.226  21.993   7.552
  898POPC   NC315695   5.500  35.091   9.436
  898POPC   PO415696   4.912  35.475   9.502
  898POPC   GL115697   5.234  35.417   9.150
  898POPC   GL215698   5.293  35.075   8.974
  898POPC   C1A15699   5.244  35.551   8.727
  898POPC   D2A15700   4.957  35.764   8.433
  898POPC   C3A15701   5.030  35.631   8.021
  898POPC   C4A15702   5.228  35.575   7.628
  898POPC   C1B15703   4.880  35.205   8.813
  898POPC   C2B15704   4.786  35.289   8.366
  898POPC   C3B15705   4.938  35.137   7.985
  898POPC   C4B15706   4.922  34.742   7.828
  899POPC   NC315707   7.918   4.127   9.548
  899POPC   PO415708   8.575   4.082   9.418
  899POPC   GL115709   8.304   4.206   9.085
  899POPC   GL215710   7.938   4.273   9.028
  899POPC   C1A15711   8.276   4.117   8.650
  899POPC   D2A15712   8.195   4.385   8.316
  899POPC   C3A15713   8.421   4.284   7.969
  899POPC   C4A15714   8.155   4.180   7.649
  899POPC   C1B15715   7.819   4.608   8.728
  899POPC   C2B15716   7.922   4.832   8.329
  899POPC   C3B15717   7.979   4.842   7.912
  899POPC   C4B15718   7.848   4.586   7.610
  900POPC   NC315719  27.078  39.961   9.417
  900POPC   PO415720  26.429  39.678   9.641
  900POPC   GL115721  26.578  39.598   9.164
  900POPC   GL215722  26.906  39.702   9.023
  900POPC   C1A15723  26.514  39.758   8.710
  900POPC   D2A15724  26.659  40.111   8.456
  900POPC   C3A15725  26.675  40.015   8.053
  900POPC   C4A15726  26.500  39.822   7.698
  900POPC   C1B15727  27.060  40.022   8.746
  900POPC   C2B15728  27.170  40.129   8.335
  900POPC   C3B15729  27.096  40.289   7.950
  900POPC   C4B15730  26.964  40.013   7.625
  901POPC   NC315731  40.494  12.714   9.502
  901POPC   PO415732  40.949  13.102   9.659
  901POPC   GL115733  40.802  12.989   9.233
  901POPC   GL215734  40.606  13.195   9.032
  901POPC   C1A15735  40.712  12.738   8.855
  901POPC   D2A15736  40.749  12.944   8.481
  901POPC   C3A15737  40.728  12.777   8.083
  901POPC   C4A15738  40.654  12.946   7.706
  901POPC   C1B15739  41.069  13.120   8.840
  901POPC   C2B15740  41.233  13.119   8.428
  901POPC   C3B15741  41.108  13.118   8.013
  901POPC   C4B15742  41.105  13.151   7.598
  902POPC   NC315743  27.911  27.618   9.450
  902POPC   PO415744  27.243  27.385   9.399
  902POPC   GL115745  27.467  27.669   9.087
  902POPC   GL215746  27.804  27.813   9.002
  902POPC   C1A15747  27.450  27.616   8.676
  902POPC   D2A15748  27.176  27.353   8.416
  902POPC   C3A15749  27.297  27.455   8.021
  902POPC   C4A15750  27.646  27.425   7.767
  902POPC   C1B15751  27.960  27.845   8.577
  902POPC   C2B15752  27.866  27.619   8.186
  902POPC   C3B15753  27.827  27.900   7.770
  902POPC   C4B15754  27.802  28.034   7.306
  903POPC   NC315755  43.916  23.478   9.512
  903POPC   PO415756  43.551  24.028   9.292
  903POPC   GL115757  43.826  23.773   9.094
  903POPC   GL215758  44.124  23.865   9.236
  903POPC   C1A15759  43.953  23.478   8.768
  903POPC   D2A15760  44.016  23.354   8.333
  903POPC   C3A15761  43.709  23.503   8.028
  903POPC   C4A15762  43.736  23.671   7.591
  903POPC   C1B15763  44.219  23.919   8.811
  903POPC   C2B15764  44.173  23.853   8.393
  903POPC   C3B15765  44.080  23.828   7.968
  903POPC   C4B15766  44.264  23.825   7.559
  904POPC   NC315767  41.390  14.060   9.464
  904POPC   PO415768  41.834  13.565   9.632
  904POPC   GL115769  41.722  13.686   9.194
  904POPC   GL215770  41.539  13.387   9.026
  904POPC   C1A15771  41.767  13.759   8.788
  904POPC   D2A15772  41.745  13.460   8.443
  904POPC   C3A15773  41.914  13.602   8.033
  904POPC   C4A15774  41.767  13.852   7.661
  904POPC   C1B15775  41.302  13.563   8.670
  904POPC   C2B15776  41.292  13.579   8.201
  904POPC   C3B15777  41.460  13.458   7.793
  904POPC   C4B15778  41.535  13.286   7.344
  905POPC   NC315779  18.134   0.627   9.481
  905POPC   PO415780  18.429   1.223   9.526
  905POPC   GL115781  18.232   1.058   9.201
  905POPC   GL215782  17.885   1.166   9.262
  905POPC   C1A15783  18.396   0.929   8.814
  905POPC   D2A15784  18.272   1.158   8.468
  905POPC   C3A15785  18.360   1.008   8.077
  905POPC   C4A15786  18.282   1.165   7.667
  905POPC   C1B15787  17.885   0.969   8.830
  905POPC   C2B15788  17.795   1.010   8.379
  905POPC   C3B15789  17.840   1.123   7.922
  905POPC   C4B15790  17.856   0.949   7.482
  906POPC   NC315791  20.066  26.660   9.539
  906POPC   PO415792  19.647  27.218   9.537
  906POPC   GL115793  19.725  26.892   9.192
  906POPC   GL215794  19.966  26.663   9.061
  906POPC   C1A15795  19.625  26.781   8.724
  906POPC   D2A15796  19.889  26.858   8.345
  906POPC   C3A15797  19.686  26.771   7.935
  906POPC   C4A15798  19.661  26.872   7.488
  906POPC   C1B15799  20.211  26.607   8.719
  906POPC   C2B15800  20.217  26.428   8.305
  906POPC   C3B15801  20.184  26.652   7.934
  906POPC   C4B15802  20.001  26.491   7.554
  907POPC   NC315803  30.926  33.061   9.364
  907POPC   PO415804  31.521  33.070   9.727
  907POPC   GL115805  31.403  32.965   9.278
  907POPC   GL215806  31.361  33.274   9.143
  907POPC   C1A15807  31.376  32.841   8.857
  907POPC   D2A15808  31.513  32.837   8.437
  907POPC   C3A15809  31.379  32.847   8.008
  907POPC   C4A15810  31.705  32.792   7.694
  907POPC   C1B15811  31.365  33.332   8.676
  907POPC   C2B15812  31.556  33.333   8.234
  907POPC   C3B15813  31.520  33.283   7.780
  907POPC   C4B15814  31.455  33.454   7.332
  908POPC   NC315815  44.697  16.016   9.877
  908POPC   PO415816  44.570  16.329   9.289
  908POPC   GL115817  44.748  16.074   8.981
  908POPC   GL215818  44.662  15.761   9.061
  908POPC   C1A15819  44.623  15.951   8.597
  908POPC   D2A15820  44.480  16.248   8.336
  908POPC   C3A15821  44.691  16.138   8.003
  908POPC   C4A15822  44.532  15.980   7.637
  908POPC   C1B15823  44.949  15.574   8.720
  908POPC   C2B15824  44.972  15.660   8.257
  908POPC   C3B15825  44.918  15.680   7.792
  908POPC   C4B15826   0.008  15.732   7.326
  909POPC   NC315827   0.833  36.652   9.568
  909POPC   PO415828   1.108  35.976   9.426
  909POPC   GL115829   1.177  36.300   9.120
  909POPC   GL215830   0.953  36.576   9.087
  909POPC   C1A15831   1.233  36.259   8.687
  909POPC   D2A15832   1.132  35.960   8.346
  909POPC   C3A15833   1.337  35.979   7.939
  909POPC   C4A15834   1.159  35.944   7.599
  909POPC   C1B15835   0.730  36.579   8.738
  909POPC   C2B15836   0.832  36.399   8.369
  909POPC   C3B15837   0.968  36.338   7.966
  909POPC   C4B15838   0.912  36.381   7.548
  910POPC   NC315839   0.084  44.288   9.479
  910POPC   PO415840   0.765  44.202   9.576
  910POPC   GL115841   0.451  44.028   9.233
  910POPC   GL215842   0.454  43.643   9.127
  910POPC   C1A15843   0.492  44.053   8.785
  910POPC   D2A15844   0.242  43.969   8.417
  910POPC   C3A15845   0.447  44.043   8.051
  910POPC   C4A15846   0.838  44.005   7.848
  910POPC   C1B15847   0.401  43.534   8.672
  910POPC   C2B15848   0.351  43.509   8.194
  910POPC   C3B15849   0.395  43.615   7.739
  910POPC   C4B15850   0.144  43.636   7.344
  911POPC   NC315851   0.748  13.603   9.570
  911POPC   PO415852   0.057  13.897   9.518
  911POPC   GL115853   0.382  13.733   9.210
  911POPC   GL215854   0.722  13.856   9.042
  911POPC   C1A15855   0.416  13.542   8.799
  911POPC   D2A15856   0.468  13.709   8.405
  911POPC   C3A15857   0.526  13.409   8.108
  911POPC   C4A15858   0.587  13.299   7.694
  911POPC   C1B15859   0.373  14.077   8.828
  911POPC   C2B15860   0.198  14.138   8.420
  911POPC   C3B15861   0.394  14.179   8.045
  911POPC   C4B15862   0.464  13.812   7.765
  912POPC   NC315863  32.896  41.226   9.485
  912POPC   PO415864  33.288  41.793   9.382
  912POPC   GL115865  33.035  41.557   9.131
  912POPC   GL215866  32.875  41.749   8.994
  912POPC   C1A15867  32.993  41.314   8.721
  912POPC   D2A15868  33.045  41.461   8.289
  912POPC   C3A15869  32.945  41.210   7.935
  912POPC   C4A15870  32.714  41.366   7.585
  912POPC   C1B15871  32.840  42.050   8.725
  912POPC   C2B15872  33.023  42.020   8.359
  912POPC   C3B15873  32.938  42.036   7.990
  912POPC   C4B15874  33.125  41.702   7.800
  913POPC   NC315875  40.135  25.062   9.814
  913POPC   PO415876  40.282  25.255   9.174
  913POPC   GL115877  40.006  25.186   8.877
  913POPC   GL215878  39.775  24.896   8.926
  913POPC   C1A15879  40.079  25.380   8.518
  913POPC   D2A15880  40.276  25.655   8.293
  913POPC   C3A15881  40.084  25.538   7.962
  913POPC   C4A15882  40.102  25.595   7.566
  913POPC   C1B15883  39.879  24.911   8.474
  913POPC   C2B15884  40.114  25.018   8.125
  913POPC   C3B15885  39.843  25.091   7.794
  913POPC   C4B15886  39.776  25.284   7.368
  914POPC   NC315887  25.851   3.232   9.208
  914POPC   PO415888  26.326   3.314   9.692
  914POPC   GL115889  26.144   3.643   9.266
  914POPC   GL215890  26.454   3.722   9.047
  914POPC   C1A15891  26.016   3.699   8.815
  914POPC   D2A15892  26.186   3.457   8.465
  914POPC   C3A15893  25.908   3.459   8.115
  914POPC   C4A15894  25.884   3.410   7.699
  914POPC   C1B15895  26.395   3.985   8.670
  914POPC   C2B15896  26.199   3.922   8.250
  914POPC   C3B15897  26.164   3.828   7.802
  914POPC   C4B15898  26.144   3.701   7.358
  915POPC   NC315899  18.675  31.324   9.792
  915POPC   PO415900  18.036  31.411   9.529
  915POPC   GL115901  18.076  31.365   9.109
  915POPC   GL215902  18.409  31.378   9.022
  915POPC   C1A15903  18.074  31.463   8.673
  915POPC   D2A15904  17.881  31.233   8.414
  915POPC   C3A15905  18.101  31.361   8.093
  915POPC   C4A15906  18.183  31.312   7.686
  915POPC   C1B15907  18.587  31.486   8.664
  915POPC   C2B15908  18.482  31.647   8.312
  915POPC   C3B15909  18.642  31.621   7.918
  915POPC   C4B15910  18.360  31.781   7.691
  916POPC   NC315911  27.172  32.197   9.274
  916POPC   PO415912  27.724  32.533   9.430
  916POPC   GL115913  27.618  32.376   9.085
  916POPC   GL215914  27.728  32.043   9.176
  916POPC   C1A15915  27.527  32.497   8.661
  916POPC   D2A15916  27.488  32.708   8.270
  916POPC   C3A15917  27.484  32.498   7.872
  916POPC   C4A15918  27.260  32.463   7.512
  916POPC   C1B15919  27.540  31.980   8.763
  916POPC   C2B15920  27.413  31.916   8.351
  916POPC   C3B15921  27.523  31.682   8.008
  916POPC   C4B15922  27.463  31.807   7.586
  917POPC   NC315923  35.585  32.544   9.559
  917POPC   PO415924  35.309  33.101   9.390
  917POPC   GL115925  35.450  32.777   9.089
  917POPC   GL215926  35.817  32.698   9.088
  917POPC   C1A15927  35.308  32.956   8.705
  917POPC   D2A15928  35.366  32.998   8.282
  917POPC   C3A15929  35.197  33.237   7.975
  917POPC   C4A15930  35.364  33.452   7.644
  917POPC   C1B15931  35.684  32.562   8.639
  917POPC   C2B15932  35.744  32.699   8.182
  917POPC   C3B15933  35.573  32.914   7.776
  917POPC   C4B15934  35.430  32.673   7.363
  918POPC   NC315935  37.355  36.385   9.854
  918POPC   PO415936  36.975  35.915   9.533
  918POPC   GL115937  36.919  36.062   9.106
  918POPC   GL215938  36.966  36.404   9.100
  918POPC   C1A15939  37.041  36.111   8.661
  918POPC   D2A15940  36.899  36.321   8.285
  918POPC   C3A15941  36.932  36.182   7.849
  918POPC   C4A15942  36.813  35.797   7.648
  918POPC   C1B15943  37.213  36.589   8.761
  918POPC   C2B15944  37.196  36.780   8.336
  918POPC   C3B15945  37.278  36.560   7.922
  918POPC   C4B15946  37.214  36.534   7.440
  919POPC   NC315947  34.215   7.748   9.434
  919POPC   PO415948  33.957   7.188   9.604
  919POPC   GL115949  33.924   7.404   9.192
  919POPC   GL215950  33.684   7.711   9.167
  919POPC   C1A15951  34.165   7.529   8.810
  919POPC   D2A15952  34.029   7.688   8.397
  919POPC   C3A15953  34.003   7.509   8.031
  919POPC   C4A15954  33.912   7.634   7.613
  919POPC   C1B15955  33.657   7.534   8.737
  919POPC   C2B15956  33.462   7.450   8.309
  919POPC   C3B15957  33.466   7.489   7.855
  919POPC   C4B15958  33.439   7.577   7.409
  920POPC   NC315959  12.317  19.121   9.573
  920POPC   PO415960  11.644  19.108   9.627
  920POPC   GL115961  11.936  18.918   9.266
  920POPC   GL215962  12.101  19.145   9.092
  920POPC   C1A15963  12.005  18.697   8.841
  920POPC   D2A15964  11.904  18.750   8.381
  920POPC   C3A15965  12.039  18.836   7.934
  920POPC   C4A15966  11.931  19.047   7.524
  920POPC   C1B15967  12.132  19.147   8.643
  920POPC   C2B15968  11.886  19.279   8.294
  920POPC   C3B15969  11.986  19.417   7.870
  920POPC   C4B15970  12.363  19.302   7.589
  921POPC   NC315971   4.224  37.208   9.794
  921POPC   PO415972   4.225  37.935   9.690
  921POPC   GL115973   4.288  38.014   9.251
  921POPC   GL215974   4.100  37.718   9.197
  921POPC   C1A15975   4.399  37.873   8.802
  921POPC   D2A15976   4.147  37.643   8.521
  921POPC   C3A15977   4.365  37.578   8.159
  921POPC   C4A15978   4.673  37.560   7.861
  921POPC   C1B15979   3.903  37.978   8.915
  921POPC   C2B15980   3.827  38.041   8.495
  921POPC   C3B15981   3.969  37.948   8.097
  921POPC   C4B15982   4.207  37.837   7.738
  922POPC   NC315983  24.617   4.288   9.526
  922POPC   PO415984  23.984   4.635   9.701
  922POPC   GL115985  24.205   4.524   9.331
  922POPC   GL215986  24.026   4.725   9.174
  922POPC   C1A15987  24.225   4.228   8.952
  922POPC   D2A15988  23.986   4.205   8.548
  922POPC   C3A15989  24.249   4.145   8.156
  922POPC   C4A15990  24.598   4.154   7.827
  922POPC   C1B15991  24.170   4.711   8.778
  922POPC   C2B15992  24.328   4.682   8.381
  922POPC   C3B15993  24.283   4.757   7.976
  922POPC   C4B15994  24.134   4.425   7.727
  923POPC   NC315995  28.853  42.383   9.504
  923POPC   PO415996  29.489  42.344   9.285
  923POPC   GL115997  29.202  42.193   9.045
  923POPC   GL215998  29.010  41.954   9.214
  923POPC   C1A15999  28.979  42.449   8.804
  923POPC   D2A16000  28.942  42.639   8.430
  923POPC   C3A16001  29.043  42.461   8.051
  923POPC   C4A16002  29.243  42.564   7.661
  923POPC   C1B16003  28.784  41.981   8.809
  923POPC   C2B16004  28.857  42.120   8.411
  923POPC   C3B16005  28.738  42.081   8.004
  923POPC   C4B16006  28.863  42.215   7.570
  924POPC   NC316007  21.077  29.376   9.701
  924POPC   PO416008  21.471  29.872   9.647
  924POPC   GL116009  21.386  29.992   9.240
  924POPC   GL216010  21.731  29.983   9.199
  924POPC   C1A16011  21.401  30.034   8.784
  924POPC   D2A16012  21.594  30.100   8.395
  924POPC   C3A16013  21.434  29.889   8.036
  924POPC   C4A16014  21.308  29.719   7.656
  924POPC   C1B16015  21.838  29.781   8.852
  924POPC   C2B16016  21.937  29.676   8.461
  924POPC   C3B16017  21.953  29.856   8.079
  924POPC   C4B16018  21.798  29.652   7.747
  925POPC   NC316019   2.959  27.960   9.262
  925POPC   PO416020   3.125  27.347   9.539
  925POPC   GL116021   2.998  27.431   9.112
  925POPC   GL216022   2.662  27.466   9.079
  925POPC   C1A16023   3.018  27.639   8.712
  925POPC   D2A16024   2.910  27.813   8.318
  925POPC   C3A16025   2.945  27.601   7.943
  925POPC   C4A16026   2.677  27.688   7.602
  925POPC   C1B16027   2.329  27.481   8.814
  925POPC   C2B16028   2.330  27.481   8.389
  925POPC   C3B16029   2.551  27.274   8.078
  925POPC   C4B16030   2.406  27.258   7.678
  926POPC   NC316031  16.892  26.097   9.564
  926POPC   PO416032  16.361  26.430   9.789
  926POPC   GL116033  16.469  26.330   9.307
  926POPC   GL216034  16.748  26.112   9.091
  926POPC   C1A16035  16.419  26.406   8.834
  926POPC   D2A16036  16.225  26.201   8.449
  926POPC   C3A16037  16.510  26.087   8.087
  926POPC   C4A16038  16.719  25.708   7.893
  926POPC   C1B16039  17.006  26.044   8.699
  926POPC   C2B16040  16.956  26.285   8.287
  926POPC   C3B16041  16.999  26.195   7.837
  926POPC   C4B16042  17.018  26.146   7.402
  927POPC   NC316043  10.224  21.843   9.980
  927POPC   PO416044  10.526  21.397   9.566
  927POPC   GL116045  10.433  21.322   9.206
  927POPC   GL216046  10.729  21.150   9.139
  927POPC   C1A16047  10.390  21.396   8.815
  927POPC   D2A16048  10.548  21.558   8.472
  927POPC   C3A16049  10.316  21.722   8.142
  927POPC   C4A16050  10.367  21.557   7.731
  927POPC   C1B16051  10.779  21.063   8.714
  927POPC   C2B16052  10.496  21.027   8.388
  927POPC   C3B16053  10.419  21.103   7.974
  927POPC   C4B16054  10.643  21.147   7.587
  928POPC   NC316055   0.298  28.753   9.489
  928POPC   PO416056   0.552  28.140   9.545
  928POPC   GL116057   0.601  28.411   9.203
  928POPC   GL216058   0.790  28.684   9.340
  928POPC   C1A16059   0.471  28.438   8.752
  928POPC   D2A16060   0.211  28.499   8.401
  928POPC   C3A16061   0.339  28.206   8.092
  928POPC   C4A16062   0.302  28.400   7.725
  928POPC   C1B16063   0.885  28.742   8.932
  928POPC   C2B16064   0.922  28.680   8.547
  928POPC   C3B16065   0.743  28.538   8.205
  928POPC   C4B16066   0.776  28.575   7.771
  929POPC   NC316067  44.759  19.251   9.712
  929POPC   PO416068  44.180  19.010   9.368
  929POPC   GL116069  44.458  19.268   9.112
  929POPC   GL216070  44.824  19.323   9.205
  929POPC   C1A16071  44.459  19.167   8.667
  929POPC   D2A16072  44.705  18.937   8.344
  929POPC   C3A16073  44.495  18.732   7.985
  929POPC   C4A16074  44.370  19.072   7.788
  929POPC   C1B16075  44.975  19.279   8.774
  929POPC   C2B16076  44.792  19.434   8.389
  929POPC   C3B16077  44.565  19.499   8.021
  929POPC   C4B16078  44.833  19.448   7.680
  930POPC   NC316079  13.016  18.668   9.401
  930POPC   PO416080  12.767  18.086   9.593
  930POPC   GL116081  12.649  18.074   9.160
  930POPC   GL216082  12.863  18.326   9.080
  930POPC   C1A16083  12.802  17.988   8.728
  930POPC   D2A16084  12.694  18.006   8.308
  930POPC   C3A16085  12.969  18.077   7.950
  930POPC   C4A16086  12.853  18.229   7.535
  930POPC   C1B16087  12.922  18.542   8.690
  930POPC   C2B16088  13.052  18.506   8.244
  930POPC   C3B16089  12.917  18.656   7.809
  930POPC   C4B16090  12.832  18.712   7.346
  931POPC   NC316091   3.721  40.855   9.333
  931POPC   PO416092   3.300  40.412   9.526
  931POPC   GL116093   3.352  40.633   9.058
  931POPC   GL216094   3.751  40.584   8.918
  931POPC   C1A16095   3.484  40.979   8.732
  931POPC   D2A16096   3.737  41.041   8.349
  931POPC   C3A16097   3.481  41.086   7.955
  931POPC   C4A16098   3.822  41.013   7.659
  931POPC   C1B16099   3.534  40.366   8.642
  931POPC   C2B16100   3.435  40.604   8.350
  931POPC   C3B16101   3.671  40.628   8.036
  931POPC   C4B16102   3.449  40.598   7.713
  932POPC   NC316103  38.297  29.499   9.442
  932POPC   PO416104  38.668  28.856   9.400
  932POPC   GL116105  38.420  29.129   9.093
  932POPC   GL216106  38.558  29.502   9.013
  932POPC   C1A16107  38.111  29.004   8.755
  932POPC   D2A16108  38.127  28.808   8.358
  932POPC   C3A16109  38.498  28.985   8.166
  932POPC   C4A16110  38.682  28.979   7.749
  932POPC   C1B16111  38.161  29.517   8.763
  932POPC   C2B16112  38.093  29.346   8.339
  932POPC   C3B16113  38.280  29.362   7.896
  932POPC   C4B16114  38.402  29.404   7.466
  933POPC   NC316115  34.177  43.056   9.389
  933POPC   PO416116  33.674  43.301   9.774
  933POPC   GL116117  33.676  43.123   9.295
  933POPC   GL216118  33.869  43.366   9.137
  933POPC   C1A16119  33.784  42.983   8.821
  933POPC   D2A16120  34.044  42.857   8.421
  933POPC   C3A16121  33.820  42.992   8.024
  933POPC   C4A16122  33.563  43.258   7.744
  933POPC   C1B16123  34.023  43.439   8.717
  933POPC   C2B16124  34.067  43.351   8.272
  933POPC   C3B16125  33.977  43.537   7.861
  933POPC   C4B16126  34.011  43.503   7.405
  934POPC   NC316127  28.185  30.081   9.473
  934POPC   PO416128  28.542  29.519   9.623
  934POPC   GL116129  28.516  29.740   9.230
  934POPC   GL216130  28.706  30.038   9.147
  934POPC   C1A16131  28.360  29.804   8.817
  934POPC   D2A16132  28.469  29.732   8.390
  934POPC   C3A16133  28.318  30.012   8.087
  934POPC   C4A16134  28.275  29.802   7.726
  934POPC   C1B16135  28.615  30.281   8.793
  934POPC   C2B16136  28.789  30.178   8.415
  934POPC   C3B16137  28.805  29.985   8.035
  934POPC   C4B16138  28.570  30.193   7.651
  935POPC   NC316139  20.349   9.070   9.533
  935POPC   PO416140  21.012   8.841   9.507
  935POPC   GL116141  20.755   9.014   9.144
  935POPC   GL216142  20.422   8.872   9.101
  935POPC   C1A16143  20.707   8.878   8.696
  935POPC   D2A16144  20.878   8.631   8.393
  935POPC   C3A16145  20.690   8.786   8.048
  935POPC   C4A16146  20.818   8.703   7.651
  935POPC   C1B16147  20.342   9.227   8.797
  935POPC   C2B16148  20.536   9.378   8.408
  935POPC   C3B16149  20.424   9.227   8.002
  935POPC   C4B16150  20.375   8.955   7.661
  936POPC   NC316151  13.392  42.122   9.504
  936POPC   PO416152  13.954  42.385   9.447
  936POPC   GL116153  13.653  42.431   9.082
  936POPC   GL216154  13.519  42.082   9.004
  936POPC   C1A16155  13.705  42.400   8.629
  936POPC   D2A16156  13.675  42.200   8.251
  936POPC   C3A16157  13.596  42.455   7.944
  936POPC   C4A16158  13.868  42.625   7.646
  936POPC   C1B16159  13.864  41.926   8.721
  936POPC   C2B16160  13.864  41.740   8.273
  936POPC   C3B16161  13.905  41.971   7.832
  936POPC   C4B16162  14.101  41.802   7.429
  937POPC   NC316163   2.043  34.879   9.536
  937POPC   PO416164   2.036  35.611   9.506
  937POPC   GL116165   2.027  35.311   9.212
  937POPC   GL216166   1.700  35.222   9.288
  937POPC   C1A16167   2.119  35.438   8.805
  937POPC   D2A16168   2.001  35.548   8.406
  937POPC   C3A16169   2.083  35.309   8.069
  937POPC   C4A16170   2.361  35.191   7.752
  937POPC   C1B16171   1.626  35.242   8.839
  937POPC   C2B16172   1.509  35.411   8.440
  937POPC   C3B16173   1.579  35.229   8.028
  937POPC   C4B16174   1.808  35.144   7.661
  938POPC   NC316175  28.761   4.190  10.099
  938POPC   PO416176  28.471   4.553   9.560
  938POPC   GL116177  28.401   4.271   9.187
  938POPC   GL216178  28.325   4.533   8.977
  938POPC   C1A16179  28.311   4.011   8.800
  938POPC   D2A16180  28.272   4.164   8.355
  938POPC   C3A16181  28.600   4.426   8.141
  938POPC   C4A16182  29.015   4.479   7.912
  938POPC   C1B16183  28.124   4.627   8.604
  938POPC   C2B16184  28.106   4.640   8.177
  938POPC   C3B16185  28.164   4.331   7.856
  938POPC   C4B16186  28.178   4.363   7.386
  939POPC   NC316187  32.802   9.943   9.616
  939POPC   PO416188  33.449   9.768   9.540
  939POPC   GL116189  33.104   9.751   9.236
  939POPC   GL216190  32.943  10.064   9.127
  939POPC   C1A16191  33.016   9.550   8.844
  939POPC   D2A16192  33.198   9.620   8.425
  939POPC   C3A16193  32.930   9.505   8.066
  939POPC   C4A16194  32.791   9.716   7.740
  939POPC   C1B16195  32.913  10.024   8.674
  939POPC   C2B16196  32.825   9.971   8.242
  939POPC   C3B16197  32.863  10.198   7.865
  939POPC   C4B16198  32.775  10.108   7.398
  940POPC   NC316199   2.616  38.462   9.495
  940POPC   PO416200   3.272  38.112   9.446
  940POPC   GL116201   2.987  38.336   9.107
  940POPC   GL216202   2.632  38.256   9.033
  940POPC   C1A16203   2.906  38.661   8.794
  940POPC   D2A16204   2.870  38.763   8.358
  940POPC   C3A16205   2.533  38.793   8.076
  940POPC   C4A16206   2.848  38.709   7.783
  940POPC   C1B16207   2.590  38.338   8.575
  940POPC   C2B16208   2.409  38.294   8.188
  940POPC   C3B16209   2.612  38.280   7.813
  940POPC   C4B16210   2.504  38.364   7.367
  941POPC   NC316211  25.865   3.356   9.729
  941POPC   PO416212  25.350   3.385   9.303
  941POPC   GL116213  25.547   3.563   8.980
  941POPC   GL216214  25.542   3.877   8.940
  941POPC   C1A16215  25.628   3.480   8.562
  941POPC   D2A16216  25.460   3.199   8.279
  941POPC   C3A16217  25.159   3.379   8.011
  941POPC   C4A16218  25.359   3.438   7.648
  941POPC   C1B16219  25.229   3.901   8.625
  941POPC   C2B16220  25.043   4.015   8.207
  941POPC   C3B16221  25.185   3.894   7.809
  941POPC   C4B16222  25.636   3.849   7.740
  942POPC   NC316223   7.828  14.831   9.422
  942POPC   PO416224   8.043  15.486   9.481
  942POPC   GL116225   8.166  15.222   9.140
  942POPC   GL216226   7.858  15.136   9.003
  942POPC   C1A16227   8.241  15.349   8.730
  942POPC   D2A16228   7.905  15.387   8.509
  942POPC   C3A16229   7.907  15.294   8.129
  942POPC   C4A16230   8.205  15.137   7.892
  942POPC   C1B16231   8.097  14.848   8.768
  942POPC   C2B16232   8.225  14.932   8.381
  942POPC   C3B16233   8.025  14.718   8.072
  942POPC   C4B16234   8.317  14.576   7.826
  943POPC   NC316235  14.112  13.319   9.629
  943POPC   PO416236  14.650  13.743   9.431
  943POPC   GL116237  14.360  13.654   9.061
  943POPC   GL216238  14.034  13.473   9.122
  943POPC   C1A16239  14.332  13.641   8.634
  943POPC   D2A16240  14.473  13.710   8.249
  943POPC   C3A16241  14.157  13.696   7.904
  943POPC   C4A16242  14.090  13.773   7.462
  943POPC   C1B16243  13.875  13.387   8.679
  943POPC   C2B16244  14.094  13.328   8.263
  943POPC   C3B16245  14.456  13.262   7.983
  943POPC   C4B16246  14.648  13.644   7.787
  944POPC   NC316247  40.734   6.195   9.562
  944POPC   PO416248  40.508   5.578   9.599
  944POPC   GL116249  40.687   5.712   9.182
  944POPC   GL216250  41.010   5.866   9.163
  944POPC   C1A16251  40.610   5.859   8.771
  944POPC   D2A16252  40.396   5.923   8.368
  944POPC   C3A16253  40.487   6.208   8.102
  944POPC   C4A16254  40.694   6.182   7.771
  944POPC   C1B16255  41.041   5.580   8.783
  944POPC   C2B16256  40.820   5.608   8.363
  944POPC   C3B16257  40.833   5.694   7.865
  944POPC   C4B16258  41.018   5.567   7.436
  945POPC   NC316259  17.040  29.564   9.905
  945POPC   PO416260  16.545  29.416   9.419
  945POPC   GL116261  16.803  29.193   9.133
  945POPC   GL216262  16.521  29.191   8.945
  945POPC   C1A16263  16.922  29.034   8.706
  945POPC   D2A16264  16.602  29.048   8.408
  945POPC   C3A16265  16.768  29.017   8.012
  945POPC   C4A16266  16.907  28.829   7.667
  945POPC   C1B16267  16.592  29.499   8.670
  945POPC   C2B16268  16.410  29.501   8.292
  945POPC   C3B16269  16.274  29.203   8.035
  945POPC   C4B16270  16.403  29.169   7.640
  946POPC   NC316271   8.618   3.335   9.866
  946POPC   PO416272   9.016   3.631   9.546
  946POPC   GL116273   8.958   3.859   9.148
  946POPC   GL216274   8.882   3.539   8.995
  946POPC   C1A16275   9.030   3.925   8.698
  946POPC   D2A16276   9.220   3.777   8.328
  946POPC   C3A16277   9.005   3.540   8.011
  946POPC   C4A16278   9.207   3.499   7.605
  946POPC   C1B16279   8.542   3.679   8.728
  946POPC   C2B16280   8.620   3.873   8.332
  946POPC   C3B16281   8.868   4.034   8.007
  946POPC   C4B16282   8.609   3.911   7.672
  947POPC   NC316283  27.208  38.471   9.301
  947POPC   PO416284  27.799  38.640   9.592
  947POPC   GL116285  27.712  38.448   9.185
  947POPC   GL216286  27.927  38.162   9.110
  947POPC   C1A16287  27.587  38.626   8.764
  947POPC   D2A16288  27.783  38.729   8.363
  947POPC   C3A16289  27.602  38.774   7.960
  947POPC   C4A16290  27.441  38.420   7.727
  947POPC   C1B16291  27.553  38.116   8.831
  947POPC   C2B16292  27.284  38.289   8.493
  947POPC   C3B16293  27.177  38.152   8.075
  947POPC   C4B16294  27.291  37.936   7.651
  948POPC   NC316295  40.466   2.213   9.416
  948POPC   PO416296  40.977   1.634   9.472
  948POPC   GL116297  41.036   1.814   9.010
  948POPC   GL216298  40.770   1.905   9.103
  948POPC   C1A16299  40.825   2.152   8.666
  948POPC   D2A16300  40.670   2.321   8.259
  948POPC   C3A16301  40.812   2.077   7.926
  948POPC   C4A16302  41.088   1.744   8.056
  948POPC   C1B16303  40.645   1.689   8.712
  948POPC   C2B16304  40.624   1.801   8.319
  948POPC   C3B16305  40.416   1.739   7.960
  948POPC   C4B16306  40.693   1.612   7.714
  949POPC   NC316307  40.010  29.574   9.408
  949POPC   PO416308  40.113  30.251   9.543
  949POPC   GL116309  39.832  30.067   9.221
  949POPC   GL216310  39.613  29.766   9.119
  949POPC   C1A16311  39.969  30.061   8.802
  949POPC   D2A16312  39.830  30.290   8.465
  949POPC   C3A16313  40.003  30.173   8.058
  949POPC   C4A16314  40.325  30.030   7.771
  949POPC   C1B16315  39.753  29.593   8.735
  949POPC   C2B16316  40.021  29.742   8.377
  949POPC   C3B16317  40.025  29.639   7.937
  949POPC   C4B16318  39.655  29.459   7.748
  950POPC   NC316319   7.930   3.127   9.518
  950POPC   PO416320   7.277   3.104   9.445
  950POPC   GL116321   7.411   2.827   9.111
  950POPC   GL216322   7.522   2.499   9.192
  950POPC   C1A16323   7.304   2.698   8.715
  950POPC   D2A16324   7.511   2.770   8.314
  950POPC   C3A16325   7.260   2.665   7.985
  950POPC   C4A16326   7.011   2.876   7.691
  950POPC   C1B16327   7.694   2.375   8.789
  950POPC   C2B16328   7.866   2.304   8.376
  950POPC   C3B16329   7.889   2.524   7.976
  950POPC   C4B16330   7.736   2.858   7.716
  951POPC   NC316331  18.194  10.333   9.352
  951POPC   PO416332  18.739  10.768   9.445
  951POPC   GL116333  18.519  10.650   9.053
  951POPC   GL216334  18.169  10.804   9.127
  951POPC   C1A16335  18.512  10.364   8.657
  951POPC   D2A16336  18.494  10.150   8.208
  951POPC   C3A16337  18.371  10.293   7.812
  951POPC   C4A16338  18.474  10.337   7.354
  951POPC   C1B16339  18.052  10.582   8.749
  951POPC   C2B16340  18.148  10.499   8.324
  951POPC   C3B16341  18.123  10.712   7.958
  951POPC   C4B16342  18.137  10.671   7.514
  952POPC   NC316343  20.843  26.483   9.578
  952POPC   PO416344  20.408  27.074   9.489
  952POPC   GL116345  20.673  26.869   9.208
  952POPC   GL216346  20.470  26.626   9.200
  952POPC   C1A16347  20.601  26.938   8.765
  952POPC   D2A16348  20.395  26.914   8.348
  952POPC   C3A16349  20.525  27.060   7.942
  952POPC   C4A16350  20.666  26.950   7.559
  952POPC   C1B16351  20.688  26.401   8.895
  952POPC   C2B16352  20.699  26.504   8.470
  952POPC   C3B16353  20.733  26.621   8.044
  952POPC   C4B16354  20.572  26.459   7.674
  953POPC   NC316355  23.191   6.443   9.653
  953POPC   PO416356  22.754   6.930   9.455
  953POPC   GL116357  22.792   6.526   9.165
  953POPC   GL216358  23.073   6.607   9.174
  953POPC   C1A16359  22.930   6.269   8.805
  953POPC   D2A16360  23.124   6.324   8.424
  953POPC   C3A16361  22.919   6.667   8.252
  953POPC   C4A16362  22.619   6.757   7.916
  953POPC   C1B16363  23.269   6.635   8.804
  953POPC   C2B16364  23.374   6.832   8.439
  953POPC   C3B16365  23.407   6.576   8.082
  953POPC   C4B16366  23.129   6.606   7.761
  954POPC   NC316367  30.868  36.506   9.417
  954POPC   PO416368  31.513  36.722   9.591
  954POPC   GL116369  31.365  36.752   9.216
  954POPC   GL216370  31.703  36.670   9.089
  954POPC   C1A16371  31.430  37.034   8.849
  954POPC   D2A16372  31.559  37.133   8.452
  954POPC   C3A16373  31.358  37.087   8.081
  954POPC   C4A16374  31.647  37.041   7.812
  954POPC   C1B16375  31.793  36.601   8.645
  954POPC   C2B16376  31.795  36.713   8.189
  954POPC   C3B16377  31.851  36.597   7.736
  954POPC   C4B16378  31.978  36.958   7.421
  955POPC   NC316379  43.672  17.415   9.261
  955POPC   PO416380  43.159  17.467   9.595
  955POPC   GL116381  43.179  17.488   9.146
  955POPC   GL216382  43.107  17.146   9.140
  955POPC   C1A16383  43.384  17.610   8.708
  955POPC   D2A16384  43.620  17.763   8.330
  955POPC   C3A16385  43.370  17.745   7.936
  955POPC   C4A16386  42.977  17.594   7.727
  955POPC   C1B16387  42.974  17.282   8.724
  955POPC   C2B16388  42.929  17.401   8.294
  955POPC   C3B16389  42.842  17.126   7.960
  955POPC   C4B16390  42.862  17.131   7.513
  956POPC   NC316391  40.759  38.139   9.480
  956POPC   PO416392  41.228  38.653   9.399
  956POPC   GL116393  40.864  38.531   9.147
  956POPC   GL216394  40.535  38.672   9.303
  956POPC   C1A16395  40.643  38.204   8.850
  956POPC   D2A16396  40.751  37.999   8.471
  956POPC   C3A16397  40.667  38.185   8.086
  956POPC   C4A16398  40.793  38.549   7.863
  956POPC   C1B16399  40.486  38.699   8.863
  956POPC   C2B16400  40.662  38.582   8.471
  956POPC   C3B16401  40.404  38.707   8.155
  956POPC   C4B16402  40.308  38.447   7.819
  957POPC   NC316403  16.416  40.990   9.772
  957POPC   PO416404  16.865  40.598   9.585
  957POPC   GL116405  16.809  40.961   9.266
  957POPC   GL216406  16.499  41.176   9.286
  957POPC   C1A16407  17.044  41.201   8.909
  957POPC   D2A16408  17.188  41.310   8.471
  957POPC   C3A16409  16.990  41.179   8.065
  957POPC   C4A16410  16.863  40.742   7.927
  957POPC   C1B16411  16.554  41.059   8.815
  957POPC   C2B16412  16.591  41.017   8.345
  957POPC   C3B16413  16.491  41.102   7.900
  957POPC   C4B16414  16.449  40.793   7.552
  958POPC   NC316415  22.069  33.205   9.662
  958POPC   PO416416  22.453  32.649   9.596
  958POPC   GL116417  22.265  32.929   9.250
  958POPC   GL216418  21.906  33.001   9.225
  958POPC   C1A16419  22.434  33.069   8.823
  958POPC   D2A16420  22.234  32.873   8.472
  958POPC   C3A16421  22.311  32.993   8.062
  958POPC   C4A16422  22.127  32.909   7.672
  958POPC   C1B16423  21.947  33.182   8.814
  958POPC   C2B16424  21.781  33.096   8.394
  958POPC   C3B16425  21.866  33.231   7.975
  958POPC   C4B16426  21.736  33.237   7.550
  959POPC   NC316427  41.754  23.998   9.312
  959POPC   PO416428  41.182  23.713   9.603
  959POPC   GL116429  41.363  23.753   9.133
  959POPC   GL216430  41.714  23.649   8.949
  959POPC   C1A16431  41.388  23.945   8.720
  959POPC   D2A16432  41.336  23.746   8.324
  959POPC   C3A16433  41.583  23.533   8.021
  959POPC   C4A16434  41.333  23.670   7.673
  959POPC   C1B16435  41.794  23.604   8.536
  959POPC   C2B16436  41.847  23.929   8.247
  959POPC   C3B16437  41.965  23.854   7.831
  959POPC   C4B16438  41.735  23.917   7.462
  960POPC   NC316439  32.476  30.839   9.339
  960POPC   PO416440  31.929  30.454   9.457
  960POPC   GL116441  32.028  30.669   9.086
  960POPC   GL216442  31.933  30.999   9.111
  960POPC   C1A16443  32.306  30.694   8.711
  960POPC   D2A16444  32.597  30.641   8.353
  960POPC   C3A16445  32.256  30.660   8.098
  960POPC   C4A16446  32.168  30.654   7.672
  960POPC   C1B16447  31.894  31.166   8.725
  960POPC   C2B16448  31.928  30.930   8.373
  960POPC   C3B16449  32.001  31.070   7.962
  960POPC   C4B16450  31.897  31.052   7.527
  961POPC   NC316451   5.471  27.773   9.534
  961POPC   PO416452   4.916  27.488   9.528
  961POPC   GL116453   4.949  27.720   9.143
  961POPC   GL216454   5.288  27.563   9.092
  961POPC   C1A16455   4.671  27.802   8.743
  961POPC   D2A16456   4.474  27.598   8.343
  961POPC   C3A16457   4.675  27.617   7.916
  961POPC   C4A16458   4.995  27.866   7.743
  961POPC   C1B16459   5.195  27.703   8.681
  961POPC   C2B16460   5.058  27.634   8.267
  961POPC   C3B16461   5.331  27.532   7.928
  961POPC   C4B16462   5.587  27.902   7.880
  962POPC   NC316463  35.653  36.148   9.624
  962POPC   PO416464  35.139  35.764   9.521
  962POPC   GL116465  35.246  36.042   9.186
  962POPC   GL216466  35.606  35.994   9.127
  962POPC   C1A16467  35.178  35.940   8.752
  962POPC   D2A16468  35.343  36.075   8.359
  962POPC   C3A16469  35.219  36.181   7.921
  962POPC   C4A16470  35.248  36.173   7.435
  962POPC   C1B16471  35.570  36.318   8.825
  962POPC   C2B16472  35.673  36.472   8.417
  962POPC   C3B16473  35.715  36.250   8.063
  962POPC   C4B16474  35.665  36.305   7.684
  963POPC   NC316475  33.500  18.280   9.550
  963POPC   PO416476  34.124  18.609   9.475
  963POPC   GL116477  34.063  18.347   9.135
  963POPC   GL216478  33.729  18.211   9.110
  963POPC   C1A16479  34.011  18.384   8.702
  963POPC   D2A16480  34.219  18.405   8.317
  963POPC   C3A16481  34.094  18.092   8.036
  963POPC   C4A16482  33.999  18.162   7.611
  963POPC   C1B16483  33.643  17.980   8.748
  963POPC   C2B16484  33.657  18.105   8.322
  963POPC   C3B16485  33.604  18.001   7.897
  963POPC   C4B16486  33.525  18.350   7.653
  964POPC   NC316487   3.954  16.540   9.461
  964POPC   PO416488   3.511  17.039   9.440
  964POPC   GL116489   3.431  16.662   9.189
  964POPC   GL216490   3.702  16.456   9.022
  964POPC   C1A16491   3.259  16.562   8.814
  964POPC   D2A16492   3.531  16.478   8.489
  964POPC   C3A16493   3.446  16.617   8.082
  964POPC   C4A16494   3.416  16.690   7.632
  964POPC   C1B16495   3.803  16.800   8.786
  964POPC   C2B16496   3.986  16.786   8.376
  964POPC   C3B16497   3.915  16.738   7.945
  964POPC   C4B16498   3.789  17.052   7.674
  965POPC   NC316499  37.574   7.927   9.416
  965POPC   PO416500  38.112   8.373   9.511
  965POPC   GL116501  37.786   8.408   9.176
  965POPC   GL216502  37.468   8.606   9.216
  965POPC   C1A16503  37.601   8.178   8.788
  965POPC   D2A16504  37.477   8.143   8.336
  965POPC   C3A16505  37.788   8.060   8.009
  965POPC   C4A16506  37.894   7.918   7.598
  965POPC   C1B16507  37.586   8.690   8.778
  965POPC   C2B16508  37.673   8.776   8.353
  965POPC   C3B16509  37.665   8.550   8.041
  965POPC   C4B16510  37.432   8.338   7.739
  966POPC   NC316511   9.198   1.408   9.670
  966POPC   PO416512   8.578   1.390   9.491
  966POPC   GL116513   8.939   1.272   9.237
  966POPC   GL216514   8.813   0.970   9.152
  966POPC   C1A16515   9.048   1.326   8.782
  966POPC   D2A16516   8.800   1.560   8.455
  966POPC   C3A16517   8.862   1.400   8.061
  966POPC   C4A16518   9.178   1.109   7.879
  966POPC   C1B16519   8.556   1.207   8.822
  966POPC   C2B16520   8.485   1.157   8.361
  966POPC   C3B16521   8.582   1.014   7.911
  966POPC   C4B16522   8.374   0.910   7.512
  967POPC   NC316523  20.545  15.863   9.443
  967POPC   PO416524  21.113  16.224   9.597
  967POPC   GL116525  20.913  16.069   9.121
  967POPC   GL216526  20.539  15.960   8.964
  967POPC   C1A16527  20.904  15.946   8.639
  967POPC   D2A16528  20.637  15.822   8.248
  967POPC   C3A16529  20.793  15.631   7.852
  967POPC   C4A16530  20.896  15.675   7.370
  967POPC   C1B16531  20.426  16.178   8.574
  967POPC   C2B16532  20.771  16.317   8.301
  967POPC   C3B16533  20.766  16.187   7.884
  967POPC   C4B16534  20.361  15.963   7.836
  968POPC   NC316535   1.681  24.047   9.634
  968POPC   PO416536   1.073  23.923   9.748
  968POPC   GL116537   1.253  23.940   9.278
  968POPC   GL216538   0.895  23.957   9.170
  968POPC   C1A16539   1.239  23.986   8.788
  968POPC   D2A16540   1.142  23.713   8.423
  968POPC   C3A16541   1.112  23.777   7.978
  968POPC   C4A16542   1.491  23.727   7.793
  968POPC   C1B16543   0.781  23.704   8.807
  968POPC   C2B16544   0.898  23.321   8.604
  968POPC   C3B16545   0.881  23.359   8.151
  968POPC   C4B16546   0.787  23.425   7.707
  969POPC   NC316547  44.410  33.011   9.566
  969POPC   PO416548  44.363  32.553   9.205
  969POPC   GL116549  44.520  32.918   9.068
  969POPC   GL216550  44.536  33.281   9.117
  969POPC   C1A16551  44.631  32.994   8.697
  969POPC   D2A16552  44.866  33.162   8.433
  969POPC   C3A16553  44.633  33.141   8.097
  969POPC   C4A16554  44.696  32.887   7.788
  969POPC   C1B16555  44.799  33.510   8.836
  969POPC   C2B16556   0.059  33.624   8.512
  969POPC   C3B16557  44.928  33.551   8.107
  969POPC   C4B16558  44.978  33.334   7.736
  970POPC   NC316559   4.635  42.132   9.944
  970POPC   PO416560   4.238  42.533   9.608
  970POPC   GL116561   4.361  42.256   9.256
  970POPC   GL216562   4.022  42.247   9.081
  970POPC   C1A16563   4.420  42.165   8.809
  970POPC   D2A16564   4.080  42.280   8.515
  970POPC   C3A16565   4.212  42.195   8.082
  970POPC   C4A16566   4.525  42.157   7.769
  970POPC   C1B16567   3.967  42.646   8.895
  970POPC   C2B16568   4.134  42.834   8.528
  970POPC   C3B16569   4.096  42.691   8.150
  970POPC   C4B16570   3.986  42.523   7.755
  971POPC   NC316571  23.151  33.870   9.430
  971POPC   PO416572  22.731  34.301   9.215
  971POPC   GL116573  22.928  33.990   8.976
  971POPC   GL216574  22.872  33.637   9.061
  971POPC   C1A16575  22.765  33.930   8.589
  971POPC   D2A16576  22.510  33.911   8.254
  971POPC   C3A16577  22.756  33.919   7.863
  971POPC   C4A16578  22.786  33.958   7.407
  971POPC   C1B16579  22.917  33.449   8.655
  971POPC   C2B16580  22.891  33.554   8.226
  971POPC   C3B16581  23.007  33.494   7.779
  971POPC   C4B16582  23.422  33.403   7.672
  972POPC   NC316583  17.305  13.843   9.812
  972POPC   PO416584  17.899  13.652   9.539
  972POPC   GL116585  17.623  13.591   9.167
  972POPC   GL216586  17.288  13.718   9.239
  972POPC   C1A16587  17.656  13.516   8.703
  972POPC   D2A16588  17.677  13.319   8.270
  972POPC   C3A16589  17.786  13.677   8.020
  972POPC   C4A16590  17.630  13.811   7.631
  972POPC   C1B16591  17.168  13.585   8.800
  972POPC   C2B16592  17.351  13.725   8.357
  972POPC   C3B16593  17.273  13.595   7.918
  972POPC   C4B16594  17.099  13.814   7.548
  973POPC   NC316595  33.558  41.419   9.450
  973POPC   PO416596  34.031  41.914   9.493
  973POPC   GL116597  33.890  41.646   9.138
  973POPC   GL216598  33.538  41.599   8.986
  973POPC   C1A16599  33.891  41.264   8.861
  973POPC   D2A16600  33.723  41.367   8.454
  973POPC   C3A16601  33.964  41.414   8.062
  973POPC   C4A16602  33.852  41.564   7.658
  973POPC   C1B16603  33.318  41.716   8.649
  973POPC   C2B16604  33.471  41.735   8.231
  973POPC   C3B16605  33.466  41.374   7.977
  973POPC   C4B16606  33.343  41.327   7.564
  974POPC   NC316607  41.526   3.817   9.369
  974POPC   PO416608  41.037   4.285   9.552
  974POPC   GL116609  41.375   4.279   9.191
  974POPC   GL216610  41.750   4.275   9.172
  974POPC   C1A16611  41.495   4.097   8.772
  974POPC   D2A16612  41.557   4.286   8.380
  974POPC   C3A16613  41.654   4.110   7.986
  974POPC   C4A16614  41.506   4.187   7.558
  974POPC   C1B16615  41.983   4.308   8.778
  974POPC   C2B16616  42.060   4.233   8.335
  974POPC   C3B16617  42.089   4.406   7.918
  974POPC   C4B16618  41.931   4.461   7.506
  975POPC   NC316619  28.058  26.630   9.412
  975POPC   PO416620  28.701  26.873   9.359
  975POPC   GL116621  28.539  26.875   8.943
  975POPC   GL216622  28.209  26.948   8.993
  975POPC   C1A16623  28.494  26.797   8.480
  975POPC   D2A16624  28.246  26.514   8.208
  975POPC   C3A16625  28.387  26.666   7.837
  975POPC   C4A16626  28.479  27.074   7.911
  975POPC   C1B16627  28.019  26.826   8.615
  975POPC   C2B16628  28.084  27.076   8.246
  975POPC   C3B16629  27.985  27.026   7.850
  975POPC   C4B16630  27.910  26.611   7.678
  976POPC   NC316631  23.048  44.932   9.406
  976POPC   PO416632  23.237   0.552   9.584
  976POPC   GL116633  23.234   0.367   9.191
  976POPC   GL216634  22.903   0.389   9.169
  976POPC   C1A16635  23.142   0.460   8.741
  976POPC   D2A16636  22.915   0.411   8.386
  976POPC   C3A16637  23.103   0.432   7.999
  976POPC   C4A16638  22.950   0.307   7.615
  976POPC   C1B16639  22.651   0.247   8.825
  976POPC   C2B16640  22.482   0.135   8.406
  976POPC   C3B16641  22.577   0.298   7.991
  976POPC   C4B16642  22.418   0.219   7.556
  977POPC   NC316643  32.813  42.048   9.385
  977POPC   PO416644  32.977  42.585   9.747
  977POPC   GL116645  33.009  42.514   9.281
  977POPC   GL216646  33.211  42.252   9.150
  977POPC   C1A16647  32.874  42.539   8.851
  977POPC   D2A16648  33.034  42.513   8.432
  977POPC   C3A16649  32.797  42.545   8.045
  977POPC   C4A16650  32.681  42.371   7.620
  977POPC   C1B16651  33.343  42.212   8.748
  977POPC   C2B16652  33.474  42.232   8.315
  977POPC   C3B16653  33.283  42.428   7.959
  977POPC   C4B16654  33.436  42.757   7.718
  978POPC   NC316655  39.820  40.291   9.402
  978POPC   PO416656  39.702  39.667   9.650
  978POPC   GL116657  39.849  39.735   9.079
  978POPC   GL216658  39.859  40.098   8.930
  978POPC   C1A16659  39.643  39.788   8.605
  978POPC   D2A16660  39.555  39.814   8.145
  978POPC   C3A16661  39.807  40.081   7.856
  978POPC   C4A16662  39.938  39.793   7.568
  978POPC   C1B16663  40.134  39.996   8.612
  978POPC   C2B16664  40.082  39.841   8.207
  978POPC   C3B16665  40.321  39.961   7.850
  978POPC   C4B16666  40.510  40.346   7.725
  979POPC   NC316667  16.354   3.355   9.470
  979POPC   PO416668  16.995   3.467   9.668
  979POPC   GL116669  17.062   3.385   9.213
  979POPC   GL216670  16.697   3.296   9.069
  979POPC   C1A16671  17.022   3.469   8.747
  979POPC   D2A16672  16.639   3.443   8.455
  979POPC   C3A16673  16.636   3.684   8.055
  979POPC   C4A16674  16.931   3.704   7.701
  979POPC   C1B16675  16.611   2.990   8.706
  979POPC   C2B16676  16.506   2.965   8.282
  979POPC   C3B16677  16.688   3.177   7.975
  979POPC   C4B16678  16.795   3.125   7.606
  980POPC   NC316679   4.044   1.069   9.485
  980POPC   PO416680   4.450   1.542   9.482
  980POPC   GL116681   4.152   1.470   9.163
  980POPC   GL216682   4.299   1.146   9.040
  980POPC   C1A16683   3.988   1.443   8.758
  980POPC   D2A16684   4.186   1.469   8.366
  980POPC   C3A16685   4.205   1.202   7.997
  980POPC   C4A16686   4.333   1.354   7.574
  980POPC   C1B16687   4.539   1.427   8.747
  980POPC   C2B16688   4.709   1.534   8.313
  980POPC   C3B16689   4.702   1.285   7.919
  980POPC   C4B16690   4.505   0.882   7.696
  981POPC   NC316691   7.666  42.594   9.633
  981POPC   PO416692   7.291  42.024   9.588
  981POPC   GL116693   7.498  42.297   9.256
  981POPC   GL216694   7.341  42.640   9.229
  981POPC   C1A16695   7.654  42.491   8.864
  981POPC   D2A16696   7.439  42.369   8.465
  981POPC   C3A16697   7.647  42.346   8.068
  981POPC   C4A16698   7.597  42.353   7.594
  981POPC   C1B16699   7.148  42.460   8.875
  981POPC   C2B16700   7.005  42.635   8.454
  981POPC   C3B16701   7.160  42.545   8.023
  981POPC   C4B16702   7.240  42.101   7.871
  982POPC   NC316703  37.554  37.158   9.484
  982POPC   PO416704  37.733  36.527   9.610
  982POPC   GL116705  37.601  36.747   9.176
  982POPC   GL216706  37.886  36.933   9.071
  982POPC   C1A16707  37.479  37.019   8.790
  982POPC   D2A16708  37.550  37.232   8.408
  982POPC   C3A16709  37.399  37.140   7.988
  982POPC   C4A16710  37.568  36.891   7.640
  982POPC   C1B16711  37.781  36.606   8.722
  982POPC   C2B16712  37.976  36.478   8.330
  982POPC   C3B16713  38.212  36.692   7.980
  982POPC   C4B16714  38.114  36.919   7.578
  983POPC   NC316715  15.824  14.065   9.338
  983POPC   PO416716  16.049  13.404   9.259
  983POPC   GL116717  15.996  13.720   9.011
  983POPC   GL216718  16.281  13.936   9.113
  983POPC   C1A16719  15.824  13.659   8.615
  983POPC   D2A16720  15.919  13.390   8.294
  983POPC   C3A16721  15.803  13.549   7.907
  983POPC   C4A16722  16.048  13.362   7.664
  983POPC   C1B16723  16.350  13.818   8.681
  983POPC   C2B16724  16.443  13.975   8.295
  983POPC   C3B16725  16.273  13.758   7.963
  983POPC   C4B16726  16.038  13.922   7.614
  984POPC   NC316727   0.169  24.365   9.457
  984POPC   PO416728   0.766  24.743   9.490
  984POPC   GL116729   0.645  24.406   9.184
  984POPC   GL216730   0.315  24.444   8.990
  984POPC   C1A16731   0.703  24.240   8.741
  984POPC   D2A16732   0.379  24.417   8.464
  984POPC   C3A16733   0.322  24.286   8.068
  984POPC   C4A16734   0.589  24.349   7.744
  984POPC   C1B16735   0.575  24.756   8.806
  984POPC   C2B16736   0.494  24.919   8.414
  984POPC   C3B16737   0.377  24.839   7.987
  984POPC   C4B16738   0.525  25.115   7.694
  985POPC   NC316739   3.466  35.431   9.494
  985POPC   PO416740   3.383  34.731   9.459
  985POPC   GL116741   3.423  35.080   9.110
  985POPC   GL216742   3.285  35.423   9.014
  985POPC   C1A16743   3.438  35.093   8.641
  985POPC   D2A16744   3.559  35.321   8.271
  985POPC   C3A16745   3.345  35.304   7.865
  985POPC   C4A16746   3.412  35.157   7.408
  985POPC   C1B16747   3.508  35.676   8.682
  985POPC   C2B16748   3.452  35.804   8.259
  985POPC   C3B16749   3.423  35.804   7.830
  985POPC   C4B16750   3.606  35.594   7.491
  986POPC   NC316751   0.009  16.910   9.659
  986POPC   PO416752  44.501  16.452   9.811
  986POPC   GL116753  44.612  16.803   9.355
  986POPC   GL216754  44.935  16.676   9.198
  986POPC   C1A16755  44.521  16.850   8.871
  986POPC   D2A16756  44.335  16.902   8.417
  986POPC   C3A16757  44.564  16.688   8.091
  986POPC   C4A16758  44.506  16.503   7.710
  986POPC   C1B16759   0.018  16.976   8.878
  986POPC   C2B16760  44.828  17.099   8.473
  986POPC   C3B16761  44.918  17.049   8.031
  986POPC   C4B16762   0.056  16.632   7.835
  987POPC   NC316763  26.562  43.779   9.704
  987POPC   PO416764  26.076  44.116   9.391
  987POPC   GL116765  25.878  43.829   9.085
  987POPC   GL216766  25.743  44.147   8.957
  987POPC   C1A16767  26.008  43.539   8.700
  987POPC   D2A16768  26.367  43.682   8.416
  987POPC   C3A16769  26.246  43.881   8.010
  987POPC   C4A16770  25.978  43.783   7.696
  987POPC   C1B16771  26.066  44.049   8.656
  987POPC   C2B16772  25.857  43.889   8.322
  987POPC   C3B16773  25.698  44.092   7.977
  987POPC   C4B16774  25.895  44.321   7.643
  988POPC   NC316775  21.789  27.813   9.349
  988POPC   PO416776  21.136  27.613   9.465
  988POPC   GL116777  21.377  27.610   9.118
  988POPC   GL216778  21.339  27.969   9.144
  988POPC   C1A16779  21.512  27.670   8.689
  988POPC   D2A16780  21.335  27.531   8.276
  988POPC   C3A16781  21.559  27.284   7.987
  988POPC   C4A16782  21.760  27.369   7.639
  988POPC   C1B16783  21.180  28.060   8.781
  988POPC   C2B16784  21.391  28.079   8.385
  988POPC   C3B16785  21.350  27.999   7.951
  988POPC   C4B16786  21.340  27.650   7.677
  989POPC   NC316787  35.887   8.405   9.448
  989POPC   PO416788  36.324   7.786   9.624
  989POPC   GL116789  36.363   7.858   9.177
  989POPC   GL216790  36.296   8.230   9.147
  989POPC   C1A16791  36.211   7.953   8.739
  989POPC   D2A16792  36.109   7.986   8.318
  989POPC   C3A16793  36.030   8.252   7.972
  989POPC   C4A16794  36.083   7.905   7.724
  989POPC   C1B16795  36.552   8.371   8.776
  989POPC   C2B16796  36.513   8.649   8.413
  989POPC   C3B16797  36.327   8.693   8.022
  989POPC   C4B16798  36.394   8.482   7.655
  990POPC   NC316799  28.850  41.383   9.519
  990POPC   PO416800  29.402  41.724   9.526
  990POPC   GL116801  29.422  41.426   9.204
  990POPC   GL216802  29.105  41.470   9.067
  990POPC   C1A16803  29.463  41.252   8.776
  990POPC   D2A16804  29.204  41.272   8.396
  990POPC   C3A16805  29.213  41.374   7.956
  990POPC   C4A16806  28.992  41.229   7.581
  990POPC   C1B16807  29.227  41.739   8.683
  990POPC   C2B16808  29.340  41.790   8.242
  990POPC   C3B16809  29.169  41.874   7.837
  990POPC   C4B16810  29.329  42.041   7.456
  991POPC   NC316811  20.494  30.477   9.903
  991POPC   PO416812  20.968  30.734   9.584
  991POPC   GL116813  20.657  30.689   9.223
  991POPC   GL216814  20.389  30.878   9.035
  991POPC   C1A16815  20.634  30.450   8.831
  991POPC   D2A16816  20.646  30.237   8.439
  991POPC   C3A16817  20.814  30.371   8.025
  991POPC   C4A16818  20.904  30.582   7.602
  991POPC   C1B16819  20.049  31.043   8.754
  991POPC   C2B16820  20.008  31.190   8.322
  991POPC   C3B16821  20.313  31.027   8.020
  991POPC   C4B16822  20.438  30.758   7.683
  992POPC   NC316823  42.937  23.058   9.541
  992POPC   PO416824  42.196  22.986   9.647
  992POPC   GL116825  42.055  23.102   9.237
  992POPC   GL216826  42.390  23.142   9.092
  992POPC   C1A16827  41.945  23.185   8.840
  992POPC   D2A16828  42.201  23.009   8.522
  992POPC   C3A16829  42.204  22.941   8.073
  992POPC   C4A16830  41.933  23.110   7.750
  992POPC   C1B16831  42.689  23.190   8.749
  992POPC   C2B16832  42.707  22.921   8.410
  992POPC   C3B16833  42.781  23.039   8.004
  992POPC   C4B16834  42.844  23.174   7.603
  993POPC   NC316835  44.905  29.405   9.507
  993POPC   PO416836   0.589  29.138   9.495
  993POPC   GL116837   0.377  29.349   9.141
  993POPC   GL216838   0.123  29.115   9.130
  993POPC   C1A16839   0.232  29.322   8.677
  993POPC   D2A16840   0.442  29.395   8.292
  993POPC   C3A16841   0.445  29.325   7.874
  993POPC   C4A16842   0.314  29.428   7.464
  993POPC   C1B16843   0.421  28.914   8.876
  993POPC   C2B16844   0.490  28.915   8.454
  993POPC   C3B16845   0.401  28.838   8.018
  993POPC   C4B16846   0.406  28.912   7.596
  994POPC   NC316847  20.144  42.152   9.467
  994POPC   PO416848  19.816  42.706   9.450
  994POPC   GL116849  19.664  42.329   9.256
  994POPC   GL216850  19.550  42.558   9.034
  994POPC   C1A16851  19.738  42.134   8.838
  994POPC   D2A16852  20.009  42.203   8.469
  994POPC   C3A16853  19.875  42.122   8.045
  994POPC   C4A16854  20.112  42.196   7.681
  994POPC   C1B16855  19.758  42.676   8.690
  994POPC   C2B16856  19.651  42.532   8.294
  994POPC   C3B16857  19.550  42.673   7.883
  994POPC   C4B16858  19.515  42.328   7.624
  995POPC   NC316859   2.493  35.574   9.678
  995POPC   PO416860   2.864  35.066   9.636
  995POPC   GL116861   2.704  35.308   9.235
  995POPC   GL216862   2.453  35.606   9.179
  995POPC   C1A16863   2.808  35.530   8.842
  995POPC   D2A16864   3.077  35.493   8.498
  995POPC   C3A16865   2.915  35.260   8.165
  995POPC   C4A16866   2.765  35.496   7.840
  995POPC   C1B16867   2.425  35.839   8.766
  995POPC   C2B16868   2.516  35.667   8.350
  995POPC   C3B16869   2.337  35.751   7.960
  995POPC   C4B16870   2.492  35.801   7.523
  996POPC   NC316871  17.162   7.078   9.878
  996POPC   PO416872  17.596   6.670   9.460
  996POPC   GL116873  17.570   6.722   9.059
  996POPC   GL216874  17.930   6.754   9.028
  996POPC   C1A16875  17.327   6.605   8.668
  996POPC   D2A16876  17.415   6.755   8.245
  996POPC   C3A16877  17.212   6.540   7.900
  996POPC   C4A16878  17.130   6.157   7.705
  996POPC   C1B16879  17.788   6.812   8.613
  996POPC   C2B16880  17.797   7.152   8.344
  996POPC   C3B16881  17.776   6.977   7.935
  996POPC   C4B16882  17.712   6.555   7.861
  997POPC   NC316883  27.400  33.678   9.568
  997POPC   PO416884  27.796  34.296   9.628
  997POPC   GL116885  27.740  33.969   9.283
  997POPC   GL216886  27.403  34.002   9.172
  997POPC   C1A16887  27.799  33.750   8.831
  997POPC   D2A16888  27.645  33.707   8.388
  997POPC   C3A16889  27.813  33.581   7.967
  997POPC   C4A16890  27.594  33.869   7.660
  997POPC   C1B16891  27.295  33.698   8.815
  997POPC   C2B16892  27.136  33.622   8.376
  997POPC   C3B16893  27.288  33.559   7.932
  997POPC   C4B16894  27.260  33.557   7.449
  998POPC   NC316895  31.450  41.124   9.362
  998POPC   PO416896  31.230  40.549   9.376
  998POPC   GL116897  31.579  40.663   9.070
  998POPC   GL216898  31.840  40.955   9.092
  998POPC   C1A16899  31.618  40.748   8.611
  998POPC   D2A16900  31.350  40.869   8.266
  998POPC   C3A16901  31.416  40.637   7.946
  998POPC   C4A16902  31.794  40.483   7.887
  998POPC   C1B16903  31.648  41.221   8.780
  998POPC   C2B16904  31.719  41.235   8.367
  998POPC   C3B16905  31.820  41.004   8.044
  998POPC   C4B16906  31.576  41.059   7.701
  999POPC   NC316907  43.533  21.215   9.534
  999POPC   PO416908  44.170  21.439   9.540
  999POPC   GL116909  43.881  21.427   9.212
  999POPC   GL216910  43.601  21.660   9.256
  999POPC   C1A16911  43.860  21.265   8.808
  999POPC   D2A16912  43.991  21.478   8.416
  999POPC   C3A16913  44.121  21.252   8.033
  999POPC   C4A16914  43.916  21.249   7.672
  999POPC   C1B16915  43.601  21.700   8.797
  999POPC   C2B16916  43.585  21.807   8.352
  999POPC   C3B16917  43.745  21.641   7.976
  999POPC   C4B16918  43.588  21.624   7.570
 1000POPC   NC316919   5.988  36.964   9.594
 1000POPC   PO416920   5.500  37.264   9.232
 1000POPC   GL116921   5.874  37.074   9.106
 1000POPC   GL216922   6.126  37.309   9.177
 1000POPC   C1A16923   5.917  36.890   8.710
 1000POPC   D2A16924   5.788  37.119   8.349
 1000POPC   C3A16925   5.831  36.889   7.974
 1000POPC   C4A16926   5.733  36.871   7.542
 1000POPC   C1B16927   6.301  37.206   8.805
 1000POPC   C2B16928   6.352  37.349   8.443
 1000POPC   C3B16929   6.238  37.176   8.071
 1000POPC   C4B16930   6.068  37.246   7.686
 1001POPC   NC316931  21.160  15.747   9.598
 1001POPC   PO416932  21.778  15.965   9.741
 1001POPC   GL116933  21.518  15.986   9.323
 1001POPC   GL216934  21.587  16.266   9.161
 1001POPC   C1A16935  21.369  15.808   8.899
 1001POPC   D2A16936  21.250  15.615   8.482
 1001POPC   C3A16937  21.138  15.927   8.162
 1001POPC   C4A16938  21.194  15.881   7.720
 1001POPC   C1B16939  21.705  16.166   8.771
 1001POPC   C2B16940  21.618  15.967   8.387
 1001POPC   C3B16941  21.572  16.125   7.960
 1001POPC   C4B16942  21.551  16.108   7.465
 1002POPC   NC316943  35.630  24.270   9.590
 1002POPC   PO416944  35.269  24.800   9.544
 1002POPC   GL116945  35.463  24.680   9.128
 1002POPC   GL216946  35.495  24.338   9.096
 1002POPC   C1A16947  35.323  24.641   8.695
 1002POPC   D2A16948  35.338  24.866   8.324
 1002POPC   C3A16949  35.256  24.628   7.940
 1002POPC   C4A16950  34.962  24.626   7.608
 1002POPC   C1B16951  35.720  24.308   8.690
 1002POPC   C2B16952  35.571  24.401   8.265
 1002POPC   C3B16953  35.523  24.137   7.881
 1002POPC   C4B16954  35.495  24.048   7.439
 1003POPC   NC316955  32.434  22.342   9.770
 1003POPC   PO416956  31.943  21.839   9.592
 1003POPC   GL116957  32.057  22.138   9.228
 1003POPC   GL216958  32.393  22.345   9.247
 1003POPC   C1A16959  31.996  22.098   8.762
 1003POPC   D2A16960  31.842  22.240   8.362
 1003POPC   C3A16961  32.047  22.279   7.970
 1003POPC   C4A16962  32.194  21.972   7.694
 1003POPC   C1B16963  32.445  22.362   8.789
 1003POPC   C2B16964  32.386  22.133   8.389
 1003POPC   C3B16965  32.597  22.133   7.996
 1003POPC   C4B16966  32.563  22.316   7.608
 1004POPC   NC316967  40.806  23.999   9.629
 1004POPC   PO416968  40.593  23.402   9.463
 1004POPC   GL116969  40.858  23.652   9.200
 1004POPC   GL216970  41.018  23.402   9.034
 1004POPC   C1A16971  40.864  24.007   8.905
 1004POPC   D2A16972  40.967  24.129   8.446
 1004POPC   C3A16973  40.930  23.882   8.036
 1004POPC   C4A16974  40.860  23.842   7.568
 1004POPC   C1B16975  41.026  23.580   8.697
 1004POPC   C2B16976  40.878  23.469   8.363
 1004POPC   C3B16977  41.092  23.363   8.031
 1004POPC   C4B16978  40.896  23.351   7.681
 1005POPC   NC316979  14.777   8.637   9.569
 1005POPC   PO416980  14.222   8.176   9.572
 1005POPC   GL116981  14.358   8.196   9.173
 1005POPC   GL216982  14.326   8.548   9.184
 1005POPC   C1A16983  14.444   7.978   8.774
 1005POPC   D2A16984  14.402   7.716   8.380
 1005POPC   C3A16985  14.359   7.934   7.968
 1005POPC   C4A16986  14.507   8.262   7.690
 1005POPC   C1B16987  14.124   8.407   8.782
 1005POPC   C2B16988  14.151   8.196   8.383
 1005POPC   C3B16989  14.131   8.392   8.003
 1005POPC   C4B16990  14.012   8.365   7.608
 1006POPC   NC316991   7.687  31.013   9.869
 1006POPC   PO416992   7.213  30.867   9.594
 1006POPC   GL116993   7.230  30.580   9.175
 1006POPC   GL216994   6.909  30.463   9.019
 1006POPC   C1A16995   7.438  30.455   8.765
 1006POPC   D2A16996   7.664  30.295   8.380
 1006POPC   C3A16997   7.563  30.420   7.936
 1006POPC   C4A16998   7.622  30.629   7.513
 1006POPC   C1B16999   6.991  30.226   8.671
 1006POPC   C2B17000   7.175  30.352   8.298
 1006POPC   C3B17001   7.037  30.491   7.927
 1006POPC   C4B17002   7.114  30.846   7.667
 1007POPC   NC317003  33.365  26.825   9.489
 1007POPC   PO417004  32.741  26.664   9.434
 1007POPC   GL117005  33.018  26.816   9.102
 1007POPC   GL217006  33.219  26.516   9.091
 1007POPC   C1A17007  33.186  26.800   8.660
 1007POPC   D2A17008  33.322  26.700   8.243
 1007POPC   C3A17009  33.134  26.969   7.953
 1007POPC   C4A17010  32.729  27.174   8.000
 1007POPC   C1B17011  32.915  26.404   8.809
 1007POPC   C2B17012  32.694  26.549   8.434
 1007POPC   C3B17013  32.713  26.382   8.024
 1007POPC   C4B17014  33.056  26.442   7.735
 1008POPC   NC317015  21.533   6.885   9.495
 1008POPC   PO417016  21.197   6.361   9.591
 1008POPC   GL117017  21.288   6.564   9.201
 1008POPC   GL217018  21.570   6.392   9.085
 1008POPC   C1A17019  21.493   6.788   8.801
 1008POPC   D2A17020  21.785   6.714   8.458
 1008POPC   C3A17021  21.578   6.651   8.051
 1008POPC   C4A17022  21.502   6.813   7.627
 1008POPC   C1B17023  21.193   6.357   8.770
 1008POPC   C2B17024  21.170   6.543   8.382
 1008POPC   C3B17025  21.152   6.365   7.989
 1008POPC   C4B17026  21.369   6.325   7.604
 1009POPC   NC317027  37.789  42.912   9.405
 1009POPC   PO417028  37.380  43.389   9.539
 1009POPC   GL117029  37.514  43.356   9.119
 1009POPC   GL217030  37.895  43.312   9.088
 1009POPC   C1A17031  37.539  43.189   8.700
 1009POPC   D2A17032  37.311  42.969   8.377
 1009POPC   C3A17033  37.397  43.159   7.998
 1009POPC   C4A17034  37.389  42.821   7.729
 1009POPC   C1B17035  37.985  42.951   8.768
 1009POPC   C2B17036  37.982  42.624   8.420
 1009POPC   C3B17037  37.779  42.692   8.033
 1009POPC   C4B17038  37.873  43.085   7.858
 1010POPC   NC317039  30.787  11.061   9.411
 1010POPC   PO417040  31.174  11.605   9.261
 1010POPC   GL117041  30.807  11.528   9.085
 1010POPC   GL217042  30.487  11.683   9.006
 1010POPC   C1A17043  30.814  11.471   8.681
 1010POPC   D2A17044  30.795  11.172   8.416
 1010POPC   C3A17045  30.714  11.374   8.080
 1010POPC   C4A17046  30.837  11.417   7.682
 1010POPC   C1B17047  30.422  11.231   8.850
 1010POPC   C2B17048  30.298  11.044   8.454
 1010POPC   C3B17049  30.421  10.963   8.009
 1010POPC   C4B17050  30.353  11.287   7.699
 1011POPC   NC317051   6.163  44.759   9.385
 1011POPC   PO417052   5.689  44.246   9.450
 1011POPC   GL117053   5.859  44.464   9.104
 1011POPC   GL217054   6.200  44.361   9.048
 1011POPC   C1A17055   5.950  44.775   8.756
 1011POPC   D2A17056   5.779   0.026   8.435
 1011POPC   C3A17057   5.623  44.876   8.073
 1011POPC   C4A17058   5.944  44.761   7.823
 1011POPC   C1B17059   5.967  44.275   8.658
 1011POPC   C2B17060   5.917  44.463   8.242
 1011POPC   C3B17061   5.773  44.289   7.815
 1011POPC   C4B17062   6.116  44.386   7.473
 1012POPC   NC317063  21.884  14.335   9.313
 1012POPC   PO417064  21.355  14.528   9.677
 1012POPC   GL117065  21.387  14.326   9.255
 1012POPC   GL217066  21.505  13.996   9.177
 1012POPC   C1A17067  21.344  14.530   8.836
 1012POPC   D2A17068  21.212  14.731   8.451
 1012POPC   C3A17069  21.552  14.707   8.172
 1012POPC   C4A17070  21.672  14.552   7.783
 1012POPC   C1B17071  21.500  14.065   8.743
 1012POPC   C2B17072  21.465  14.220   8.351
 1012POPC   C3B17073  21.703  13.977   8.090
 1012POPC   C4B17074  21.692  13.895   7.693
 1013POPC   NC317075  25.172  36.012   9.446
 1013POPC   PO417076  25.323  36.610   9.506
 1013POPC   GL117077  25.553  36.360   9.187
 1013POPC   GL217078  25.649  35.984   9.203
 1013POPC   C1A17079  25.427  36.229   8.778
 1013POPC   D2A17080  25.272  36.025   8.398
 1013POPC   C3A17081  25.331  36.234   8.011
 1013POPC   C4A17082  25.101  36.202   7.621
 1013POPC   C1B17083  25.398  35.700   8.886
 1013POPC   C2B17084  25.381  35.528   8.464
 1013POPC   C3B17085  25.581  35.761   8.099
 1013POPC   C4B17086  25.512  35.882   7.654
 1014POPC   NC317087   8.910  11.939   9.634
 1014POPC   PO417088   8.762  12.589   9.786
 1014POPC   GL117089   8.753  12.345   9.313
 1014POPC   GL217090   9.064  12.190   9.196
 1014POPC   C1A17091   8.735  12.191   8.820
 1014POPC   D2A17092   8.766  12.401   8.405
 1014POPC   C3A17093   8.798  12.145   8.039
 1014POPC   C4A17094   9.060  12.129   7.680
 1014POPC   C1B17095   9.098  11.845   8.874
 1014POPC   C2B17096   9.093  11.888   8.421
 1014POPC   C3B17097   9.148  11.744   8.009
 1014POPC   C4B17098   9.292  11.610   7.588
 1015POPC   NC317099   3.411  20.694   9.552
 1015POPC   PO417100   3.634  20.171   9.381
 1015POPC   GL117101   3.391  20.442   9.113
 1015POPC   GL217102   3.653  20.697   9.059
 1015POPC   C1A17103   3.274  20.607   8.714
 1015POPC   D2A17104   3.443  20.798   8.353
 1015POPC   C3A17105   3.602  20.540   8.054
 1015POPC   C4A17106   3.330  20.366   7.763
 1015POPC   C1B17107   3.879  20.890   8.680
 1015POPC   C2B17108   3.939  20.945   8.202
 1015POPC   C3B17109   3.722  20.945   7.780
 1015POPC   C4B17110   3.887  20.790   7.357
 1016POPC   NC317111   0.772   0.984   9.301
 1016POPC   PO417112   0.682   1.594   9.711
 1016POPC   GL117113   0.508   1.411   9.250
 1016POPC   GL217114   0.210   1.533   9.070
 1016POPC   C1A17115   0.496   1.267   8.750
 1016POPC   D2A17116   0.239   1.361   8.367
 1016POPC   C3A17117   0.459   1.308   7.988
 1016POPC   C4A17118   0.408   1.403   7.578
 1016POPC   C1B17119  44.967   1.220   8.785
 1016POPC   C2B17120   0.022   0.884   8.456
 1016POPC   C3B17121   0.164   0.852   8.023
 1016POPC   C4B17122   0.067   1.068   7.648
 1017POPC   NC317123   2.494   5.933   9.504
 1017POPC   PO417124   3.110   5.747   9.367
 1017POPC   GL117125   2.913   5.689   9.006
 1017POPC   GL217126   2.716   5.959   9.066
 1017POPC   C1A17127   2.581   5.705   8.651
 1017POPC   D2A17128   2.366   5.621   8.255
 1017POPC   C3A17129   2.595   5.851   7.896
 1017POPC   C4A17130   3.037   5.775   7.843
 1017POPC   C1B17131   2.901   6.125   8.725
 1017POPC   C2B17132   2.890   5.971   8.324
 1017POPC   C3B17133   2.985   6.253   8.020
 1017POPC   C4B17134   2.917   6.192   7.593
 1018POPC   NC317135  33.998  21.411   9.577
 1018POPC   PO417136  33.391  21.142   9.632
 1018POPC   GL117137  33.587  21.132   9.186
 1018POPC   GL217138  33.804  21.419   9.108
 1018POPC   C1A17139  33.725  21.068   8.735
 1018POPC   D2A17140  33.571  20.946   8.334
 1018POPC   C3A17141  33.786  21.152   7.973
 1018POPC   C4A17142  33.936  21.050   7.545
 1018POPC   C1B17143  33.668  21.617   8.726
 1018POPC   C2B17144  33.736  21.846   8.329
 1018POPC   C3B17145  33.736  21.672   7.910
 1018POPC   C4B17146  34.011  21.530   7.594
 1019POPC   NC317147  32.112   8.194   9.388
 1019POPC   PO417148  32.747   7.821   9.463
 1019POPC   GL117149  32.459   7.944   9.119
 1019POPC   GL217150  32.566   8.263   9.038
 1019POPC   C1A17151  32.216   8.070   8.710
 1019POPC   D2A17152  32.298   8.162   8.250
 1019POPC   C3A17153  32.121   7.949   7.887
 1019POPC   C4A17154  32.268   7.931   7.465
 1019POPC   C1B17155  32.551   8.438   8.649
 1019POPC   C2B17156  32.194   8.598   8.496
 1019POPC   C3B17157  32.157   8.618   8.083
 1019POPC   C4B17158  32.250   8.405   7.676
 1020POPC   NC317159  44.256  17.783   9.812
 1020POPC   PO417160  44.845  17.373   9.674
 1020POPC   GL117161  44.810  17.587   9.250
 1020POPC   GL217162  44.614  17.302   9.119
 1020POPC   C1A17163  44.731  17.724   8.784
 1020POPC   D2A17164  44.583  17.961   8.409
 1020POPC   C3A17165  44.602  17.858   7.988
 1020POPC   C4A17166  44.709  17.489   7.801
 1020POPC   C1B17167  44.420  17.323   8.696
 1020POPC   C2B17168  44.472  17.412   8.272
 1020POPC   C3B17169  44.380  17.135   7.931
 1020POPC   C4B17170  44.661  16.985   7.603
 1021POPC   NC317171  24.250  16.274   9.260
 1021POPC   PO417172  24.483  17.004   9.433
 1021POPC   GL117173  24.532  16.675   9.160
 1021POPC   GL217174  24.175  16.719   9.057
 1021POPC   C1A17175  24.582  16.529   8.735
 1021POPC   D2A17176  24.707  16.852   8.442
 1021POPC   C3A17177  24.668  16.705   8.044
 1021POPC   C4A17178  24.649  16.422   7.724
 1021POPC   C1B17179  24.357  17.006   8.791
 1021POPC   C2B17180  24.187  17.079   8.411
 1021POPC   C3B17181  24.153  16.847   8.035
 1021POPC   C4B17182  24.403  16.915   7.667
 1022POPC   NC317183  32.764  34.375   9.530
 1022POPC   PO417184  33.188  34.904   9.503
 1022POPC   GL117185  32.970  34.777   9.147
 1022POPC   GL217186  33.081  34.440   9.143
 1022POPC   C1A17187  32.918  34.629   8.696
 1022POPC   D2A17188  32.677  34.475   8.301
 1022POPC   C3A17189  32.945  34.508   7.924
 1022POPC   C4A17190  33.021  34.805   7.588
 1022POPC   C1B17191  33.195  34.181   8.822
 1022POPC   C2B17192  33.116  34.231   8.393
 1022POPC   C3B17193  33.278  34.075   8.022
 1022POPC   C4B17194  33.157  34.074   7.607
 1023POPC   NC317195   1.831  31.421   9.658
 1023POPC   PO417196   2.407  31.465   9.627
 1023POPC   GL117197   2.102  31.522   9.230
 1023POPC   GL217198   1.705  31.578   9.211
 1023POPC   C1A17199   2.038  31.651   8.789
 1023POPC   D2A17200   2.168  31.746   8.368
 1023POPC   C3A17201   2.188  31.384   8.110
 1023POPC   C4A17202   2.066  31.285   7.686
 1023POPC   C1B17203   1.550  31.737   8.890
 1023POPC   C2B17204   1.612  31.616   8.446
 1023POPC   C3B17205   1.720  31.573   8.000
 1023POPC   C4B17206   1.760  31.672   7.516
 1024POPC   NC317207  20.659   3.477   9.520
 1024POPC   PO417208  20.095   3.912   9.308
 1024POPC   GL117209  20.516   3.703   9.087
 1024POPC   GL217210  20.623   3.321   9.047
 1024POPC   C1A17211  20.741   3.650   8.702
 1024POPC   D2A17212  20.560   3.712   8.297
 1024POPC   C3A17213  20.801   3.657   7.897
 1024POPC   C4A17214  20.773   3.276   7.656
 1024POPC   C1B17215  20.346   3.272   8.705
 1024POPC   C2B17216  20.131   3.353   8.314
 1024POPC   C3B17217  20.309   3.438   7.904
 1024POPC   C4B17218  20.369   3.532   7.437
 1025POPC   NC317219  16.997  11.708   9.526
 1025POPC   PO417220  16.707  12.283   9.634
 1025POPC   GL117221  16.571  11.982   9.284
 1025POPC   GL217222  16.863  11.925   9.087
 1025POPC   C1A17223  16.433  11.798   8.849
 1025POPC   D2A17224  16.585  11.698   8.445
 1025POPC   C3A17225  16.652  11.953   8.068
 1025POPC   C4A17226  17.000  11.870   7.781
 1025POPC   C1B17227  16.849  12.121   8.681
 1025POPC   C2B17228  17.074  12.236   8.299
 1025POPC   C3B17229  16.944  12.370   7.917
 1025POPC   C4B17230  16.732  12.302   7.557
 1026POPC   NC317231  39.441  39.538   9.299
 1026POPC   PO417232  38.824  39.445   9.227
 1026POPC   GL117233  38.997  39.162   9.039
 1026POPC   GL217234  39.290  39.047   9.151
 1026POPC   C1A17235  39.076  39.268   8.641
 1026POPC   D2A17236  38.834  39.202   8.328
 1026POPC   C3A17237  39.102  39.309   8.044
 1026POPC   C4A17238  39.141  39.150   7.624
 1026POPC   C1B17239  39.549  39.110   8.758
 1026POPC   C2B17240  39.571  39.317   8.341
 1026POPC   C3B17241  39.542  39.088   7.929
 1026POPC   C4B17242  39.510  38.789   7.548
 1027POPC   NC317243  13.659   7.822   9.450
 1027POPC   PO417244  13.529   8.464   9.454
 1027POPC   GL117245  13.823   8.221   9.169
 1027POPC   GL217246  13.583   8.313   8.941
 1027POPC   C1A17247  13.848   7.964   8.730
 1027POPC   D2A17248  13.646   8.133   8.343
 1027POPC   C3A17249  13.832   7.999   7.982
 1027POPC   C4A17250  13.946   7.704   7.754
 1027POPC   C1B17251  13.651   8.571   8.616
 1027POPC   C2B17252  13.560   8.717   8.219
 1027POPC   C3B17253  13.583   8.436   7.877
 1027POPC   C4B17254  13.348   8.044   7.843
 1028POPC   NC317255  30.270  28.657   9.363
 1028POPC   PO417256  30.706  28.201   9.507
 1028POPC   GL117257  30.917  28.396   9.163
 1028POPC   GL217258  30.773  28.743   9.156
 1028POPC   C1A17259  31.020  28.155   8.789
 1028POPC   D2A17260  30.978  28.277   8.362
 1028POPC   C3A17261  30.639  28.171   8.073
 1028POPC   C4A17262  30.633  28.505   7.751
 1028POPC   C1B17263  30.765  28.626   8.706
 1028POPC   C2B17264  30.527  28.610   8.301
 1028POPC   C3B17265  30.255  28.854   8.000
 1028POPC   C4B17266  30.220  28.751   7.565
 1029POPC   NC317267  15.563   6.220   9.701
 1029POPC   PO417268  16.097   6.657   9.690
 1029POPC   GL117269  15.983   6.777   9.239
 1029POPC   GL217270  16.304   6.912   9.112
 1029POPC   C1A17271  15.790   6.593   8.832
 1029POPC   D2A17272  15.958   6.397   8.441
 1029POPC   C3A17273  15.755   6.420   8.033
 1029POPC   C4A17274  15.824   6.646   7.646
 1029POPC   C1B17275  15.975   7.066   8.814
 1029POPC   C2B17276  15.875   6.974   8.389
 1029POPC   C3B17277  16.129   6.761   8.092
 1029POPC   C4B17278  16.337   6.702   7.709
 1030POPC   NC317279   7.134  35.779   9.549
 1030POPC   PO417280   6.680  35.393   9.684
 1030POPC   GL117281   6.658  35.545   9.237
 1030POPC   GL217282   6.953  35.719   9.066
 1030POPC   C1A17283   6.572  35.298   8.852
 1030POPC   D2A17284   6.364  35.209   8.450
 1030POPC   C3A17285   6.596  35.259   8.023
 1030POPC   C4A17286   6.710  34.993   7.643
 1030POPC   C1B17287   6.624  35.783   8.739
 1030POPC   C2B17288   6.500  35.681   8.310
 1030POPC   C3B17289   6.276  35.658   7.922
 1030POPC   C4B17290   6.316  35.664   7.490
 1031POPC   NC317291  39.013  34.107   9.480
 1031POPC   PO417292  39.259  34.721   9.311
 1031POPC   GL117293  39.138  34.388   9.062
 1031POPC   GL217294  39.380  34.148   9.130
 1031POPC   C1A17295  39.183  34.442   8.645
 1031POPC   D2A17296  39.339  34.714   8.366
 1031POPC   C3A17297  39.096  34.748   8.009
 1031POPC   C4A17298  39.040  34.563   7.603
 1031POPC   C1B17299  39.630  34.351   8.845
 1031POPC   C2B17300  39.707  34.362   8.417
 1031POPC   C3B17301  39.529  34.424   7.981
 1031POPC   C4B17302  39.408  34.066   7.720
 1032POPC   NC317303  37.420  35.316   9.403
 1032POPC   PO417304  37.908  34.980   9.408
 1032POPC   GL117305  37.817  35.057   9.024
 1032POPC   GL217306  37.802  35.418   9.071
 1032POPC   C1A17307  37.860  35.171   8.596
 1032POPC   D2A17308  37.696  35.416   8.261
 1032POPC   C3A17309  37.689  35.239   7.860
 1032POPC   C4A17310  37.346  35.075   7.643
 1032POPC   C1B17311  37.767  35.677   8.719
 1032POPC   C2B17312  37.788  35.920   8.310
 1032POPC   C3B17313  37.747  35.755   7.852
 1032POPC   C4B17314  37.670  35.756   7.369
 1033POPC   NC317315  29.633  42.756   9.483
 1033POPC   PO417316  29.913  43.351   9.496
 1033POPC   GL117317  30.068  43.058   9.207
 1033POPC   GL217318  30.240  43.282   9.082
 1033POPC   C1A17319  29.947  43.025   8.738
 1033POPC   D2A17320  29.609  43.236   8.476
 1033POPC   C3A17321  29.606  43.223   8.014
 1033POPC   C4A17322  29.964  43.088   7.798
 1033POPC   C1B17323  30.391  43.348   8.750
 1033POPC   C2B17324  30.393  43.078   8.467
 1033POPC   C3B17325  30.218  43.294   8.177
 1033POPC   C4B17326  30.401  43.377   7.814
 1034POPC   NC317327  25.835  42.041   9.701
 1034POPC   PO417328  26.230  42.531   9.529
 1034POPC   GL117329  25.964  42.462   9.194
 1034POPC   GL217330  25.822  42.154   9.214
 1034POPC   C1A17331  25.969  42.486   8.774
 1034POPC   D2A17332  26.238  42.493   8.399
 1034POPC   C3A17333  25.997  42.472   8.015
 1034POPC   C4A17334  26.102  42.529   7.586
 1034POPC   C1B17335  25.744  42.031   8.799
 1034POPC   C2B17336  25.877  42.111   8.405
 1034POPC   C3B17337  25.903  41.951   8.008
 1034POPC   C4B17338  25.678  42.199   7.688
 1035POPC   NC317339  13.730  42.791   9.442
 1035POPC   PO417340  13.151  43.031   9.578
 1035POPC   GL117341  13.366  42.970   9.138
 1035POPC   GL217342  13.729  43.096   9.046
 1035POPC   C1A17343  13.451  42.817   8.713
 1035POPC   D2A17344  13.689  42.820   8.293
 1035POPC   C3A17345  13.522  42.965   7.862
 1035POPC   C4A17346  13.472  42.844   7.422
 1035POPC   C1B17347  13.971  42.849   8.742
 1035POPC   C2B17348  14.197  42.837   8.347
 1035POPC   C3B17349  14.081  43.018   7.911
 1035POPC   C4B17350  13.972  43.052   7.420
 1036POPC   NC317351  10.752  19.280   9.537
 1036POPC   PO417352  10.173  18.859   9.402
 1036POPC   GL117353  10.388  19.070   9.088
 1036POPC   GL217354  10.738  19.021   9.103
 1036POPC   C1A17355  10.537  18.944   8.647
 1036POPC   D2A17356  10.354  18.758   8.275
 1036POPC   C3A17357  10.551  18.925   7.915
 1036POPC   C4A17358  10.396  19.270   7.683
 1036POPC   C1B17359  10.627  19.416   8.838
 1036POPC   C2B17360  10.503  19.659   8.457
 1036POPC   C3B17361  10.683  19.679   8.061
 1036POPC   C4B17362  10.881  19.353   7.860
 1037POPC   NC317363  19.130  25.517   9.418
 1037POPC   PO417364  18.957  24.919   9.659
 1037POPC   GL117365  18.831  25.097   9.232
 1037POPC   GL217366  19.096  25.302   8.975
 1037POPC   C1A17367  18.668  25.136   8.828
 1037POPC   D2A17368  18.910  25.241   8.482
 1037POPC   C3A17369  18.868  24.922   8.191
 1037POPC   C4A17370  18.974  24.965   7.774
 1037POPC   C1B17371  19.305  25.563   8.692
 1037POPC   C2B17372  19.412  25.568   8.302
 1037POPC   C3B17373  19.144  25.407   8.039
 1037POPC   C4B17374  19.114  25.437   7.652
 1038POPC   NC317375   4.798  31.542   9.422
 1038POPC   PO417376   5.496  31.547   9.488
 1038POPC   GL117377   5.263  31.342   9.183
 1038POPC   GL217378   5.144  31.681   9.104
 1038POPC   C1A17379   4.962  31.261   8.835
 1038POPC   D2A17380   4.815  31.504   8.478
 1038POPC   C3A17381   4.993  31.408   8.101
 1038POPC   C4A17382   4.883  31.468   7.688
 1038POPC   C1B17383   5.257  31.639   8.692
 1038POPC   C2B17384   5.208  31.878   8.341
 1038POPC   C3B17385   5.227  31.815   7.901
 1038POPC   C4B17386   5.209  31.759   7.451
 1039POPC   NC317387   3.143  36.298   9.465
 1039POPC   PO417388   2.560  36.018   9.604
 1039POPC   GL117389   2.743  36.027   9.220
 1039POPC   GL217390   2.986  35.755   9.295
 1039POPC   C1A17391   2.722  36.271   8.818
 1039POPC   D2A17392   2.600  36.160   8.400
 1039POPC   C3A17393   2.386  36.341   8.065
 1039POPC   C4A17394   2.703  36.386   7.827
 1039POPC   C1B17395   3.108  35.919   8.893
 1039POPC   C2B17396   3.103  36.074   8.503
 1039POPC   C3B17397   2.956  35.903   8.118
 1039POPC   C4B17398   2.954  35.979   7.687
 1040POPC   NC317399  31.862  13.835   9.809
 1040POPC   PO417400  32.392  14.146   9.563
 1040POPC   GL117401  32.196  13.819   9.280
 1040POPC   GL217402  31.839  13.875   9.262
 1040POPC   C1A17403  32.385  13.598   8.888
 1040POPC   D2A17404  32.399  13.406   8.484
 1040POPC   C3A17405  32.305  13.717   8.169
 1040POPC   C4A17406  32.203  13.602   7.775
 1040POPC   C1B17407  31.884  13.598   8.894
 1040POPC   C2B17408  31.863  13.611   8.435
 1040POPC   C3B17409  31.767  13.774   7.999
 1040POPC   C4B17410  31.829  13.841   7.521
 1041POPC   NC317411  34.018  38.082   9.456
 1041POPC   PO417412  33.432  37.775   9.507
 1041POPC   GL117413  33.592  37.654   9.143
 1041POPC   GL217414  33.936  37.793   9.078
 1041POPC   C1A17415  33.608  37.681   8.721
 1041POPC   D2A17416  33.811  37.885   8.399
 1041POPC   C3A17417  33.652  37.685   8.029
 1041POPC   C4A17418  33.587  37.867   7.653
 1041POPC   C1B17419  34.105  37.601   8.718
 1041POPC   C2B17420  33.957  37.391   8.363
 1041POPC   C3B17421  34.026  37.308   7.935
 1041POPC   C4B17422  33.724  37.363   7.602
 1042POPC   NC317423   9.353  15.692   9.471
 1042POPC   PO417424   8.639  15.943   9.552
 1042POPC   GL117425   8.917  15.840   9.203
 1042POPC   GL217426   9.241  15.989   9.061
 1042POPC   C1A17427   8.829  15.995   8.787
 1042POPC   D2A17428   8.843  16.138   8.367
 1042POPC   C3A17429   8.635  15.844   8.138
 1042POPC   C4A17430   8.694  15.712   7.718
 1042POPC   C1B17431   9.211  15.640   8.761
 1042POPC   C2B17432   9.080  15.652   8.334
 1042POPC   C3B17433   9.127  15.904   7.965
 1042POPC   C4B17434   9.380  16.115   7.665
 1043POPC   NC317435  32.092  26.203   9.627
 1043POPC   PO417436  32.578  25.832   9.434
 1043POPC   GL117437  32.321  26.101   9.194
 1043POPC   GL217438  32.551  26.306   9.129
 1043POPC   C1A17439  32.013  26.147   8.853
 1043POPC   D2A17440  32.003  25.823   8.501
 1043POPC   C3A17441  31.894  25.952   8.090
 1043POPC   C4A17442  31.974  25.778   7.680
 1043POPC   C1B17443  32.483  26.174   8.718
 1043POPC   C2B17444  32.318  26.186   8.336
 1043POPC   C3B17445  32.408  25.885   8.033
 1043POPC   C4B17446  32.289  26.187   7.769
 1044POPC   NC317447  32.722  25.428   9.576
 1044POPC   PO417448  32.270  24.886   9.538
 1044POPC   GL117449  32.061  25.031   9.167
 1044POPC   GL217450  32.380  25.117   9.033
 1044POPC   C1A17451  31.991  25.152   8.704
 1044POPC   D2A17452  32.097  25.037   8.270
 1044POPC   C3A17453  32.389  25.335   8.072
 1044POPC   C4A17454  32.400  25.486   7.655
 1044POPC   C1B17455  32.643  24.940   8.691
 1044POPC   C2B17456  32.731  24.942   8.256
 1044POPC   C3B17457  32.762  24.938   7.822
 1044POPC   C4B17458  32.705  25.144   7.439
 1045POPC   NC317459  42.827  19.935   9.928
 1045POPC   PO417460  43.008  19.769   9.334
 1045POPC   GL117461  43.130  19.940   8.993
 1045POPC   GL217462  43.405  20.174   9.098
 1045POPC   C1A17463  43.037  19.705   8.639
 1045POPC   D2A17464  43.163  19.676   8.280
 1045POPC   C3A17465  42.889  19.647   7.922
 1045POPC   C4A17466  42.829  19.754   7.500
 1045POPC   C1B17467  43.360  20.318   8.686
 1045POPC   C2B17468  43.449  20.147   8.300
 1045POPC   C3B17469  43.110  20.124   8.045
 1045POPC   C4B17470  43.058  20.175   7.635
 1046POPC   NC317471   6.575   9.444   9.471
 1046POPC   PO417472   6.849  10.171   9.572
 1046POPC   GL117473   6.806   9.901   9.196
 1046POPC   GL217474   6.912  10.192   9.038
 1046POPC   C1A17475   6.733   9.566   8.843
 1046POPC   D2A17476   6.912   9.486   8.410
 1046POPC   C3A17477   6.637   9.586   8.070
 1046POPC   C4A17478   6.558   9.388   7.677
 1046POPC   C1B17479   6.651  10.133   8.685
 1046POPC   C2B17480   6.657  10.300   8.255
 1046POPC   C3B17481   6.755  10.053   7.877
 1046POPC   C4B17482   6.904   9.773   7.560
 1047POPC   NC317483  25.611  29.413   9.473
 1047POPC   PO417484  25.408  28.994   9.924
 1047POPC   GL117485  25.243  28.898   9.325
 1047POPC   GL217486  25.293  29.207   9.120
 1047POPC   C1A17487  25.328  28.812   8.846
 1047POPC   D2A17488  25.528  28.902   8.443
 1047POPC   C3A17489  25.203  29.075   8.142
 1047POPC   C4A17490  25.237  28.963   7.705
 1047POPC   C1B17491  25.262  29.287   8.644
 1047POPC   C2B17492  25.564  29.420   8.314
 1047POPC   C3B17493  25.648  29.191   7.920
 1047POPC   C4B17494  25.612  29.186   7.436
 1048POPC   NC317495   0.263  42.724   9.458
 1048POPC   PO417496   0.293  41.998   9.513
 1048POPC   GL117497   0.282  42.183   9.114
 1048POPC   GL217498   0.313  42.531   8.988
 1048POPC   C1A17499   0.152  42.101   8.700
 1048POPC   D2A17500   0.325  42.025   8.307
 1048POPC   C3A17501   0.313  42.375   8.026
 1048POPC   C4A17502   0.616  42.239   7.823
 1048POPC   C1B17503   0.386  42.518   8.544
 1048POPC   C2B17504   0.750  42.451   8.316
 1048POPC   C3B17505   0.868  42.652   7.988
 1048POPC   C4B17506   0.583  42.732   7.703
 1049POPC   NC317507  38.580   8.395   9.594
 1049POPC   PO417508  38.813   7.754   9.504
 1049POPC   GL117509  38.631   8.008   9.190
 1049POPC   GL217510  38.279   8.070   9.147
 1049POPC   C1A17511  38.613   7.997   8.773
 1049POPC   D2A17512  38.456   8.164   8.432
 1049POPC   C3A17513  38.671   8.008   8.107
 1049POPC   C4A17514  38.676   8.110   7.687
 1049POPC   C1B17515  38.107   8.296   8.812
 1049POPC   C2B17516  37.985   8.325   8.396
 1049POPC   C3B17517  38.231   8.273   7.993
 1049POPC   C4B17518  38.001   8.435   7.694
 1050POPC   NC317519  38.703  20.062   9.940
 1050POPC   PO417520  38.678  19.725   9.615
 1050POPC   GL117521  38.425  19.880   9.211
 1050POPC   GL217522  38.265  20.211   9.171
 1050POPC   C1A17523  38.212  19.819   8.780
 1050POPC   D2A17524  38.131  19.642   8.337
 1050POPC   C3A17525  38.245  19.803   7.929
 1050POPC   C4A17526  38.638  19.750   7.647
 1050POPC   C1B17527  38.513  20.222   8.767
 1050POPC   C2B17528  38.322  20.119   8.352
 1050POPC   C3B17529  38.390  20.283   7.912
 1050POPC   C4B17530  38.279  20.388   7.461
 1051POPC   NC317531  11.894  21.796   9.583
 1051POPC   PO417532  12.311  21.310   9.601
 1051POPC   GL117533  11.959  21.390   9.284
 1051POPC   GL217534  12.142  21.523   9.007
 1051POPC   C1A17535  11.687  21.322   8.905
 1051POPC   D2A17536  11.745  21.060   8.523
 1051POPC   C3A17537  11.790  21.285   8.151
 1051POPC   C4A17538  11.751  21.356   7.737
 1051POPC   C1B17539  11.989  21.581   8.568
 1051POPC   C2B17540  12.158  21.646   8.149
 1051POPC   C3B17541  12.123  21.693   7.698
 1051POPC   C4B17542  12.340  21.544   7.332
 1052POPC   NC317543  41.113  28.236   9.466
 1052POPC   PO417544  40.505  27.993   9.251
 1052POPC   GL117545  40.564  28.236   8.909
 1052POPC   GL217546  40.896  28.310   9.010
 1052POPC   C1A17547  40.682  28.442   8.551
 1052POPC   D2A17548  40.867  28.191   8.251
 1052POPC   C3A17549  40.739  28.417   7.887
 1052POPC   C4A17550  40.635  28.591   7.482
 1052POPC   C1B17551  41.163  28.333   8.676
 1052POPC   C2B17552  41.207  28.557   8.287
 1052POPC   C3B17553  41.250  28.322   7.911
 1052POPC   C4B17554  41.064  28.274   7.485
 1053POPC   NC317555  32.437  21.755   9.282
 1053POPC   PO417556  32.841  22.279   9.561
 1053POPC   GL117557  32.943  22.340   9.150
 1053POPC   GL217558  33.304  22.430   9.206
 1053POPC   C1A17559  32.932  22.117   8.730
 1053POPC   D2A17560  33.246  21.897   8.454
 1053POPC   C3A17561  33.171  21.832   7.996
 1053POPC   C4A17562  33.029  22.117   7.672
 1053POPC   C1B17563  33.438  22.238   8.827
 1053POPC   C2B17564  33.272  22.420   8.458
 1053POPC   C3B17565  33.304  22.316   8.068
 1053POPC   C4B17566  33.557  22.129   7.757
 1054POPC   NC317567  20.876   8.332   9.505
 1054POPC   PO417568  20.231   8.590   9.637
 1054POPC   GL117569  20.282   8.337   9.215
 1054POPC   GL217570  20.613   8.401   9.083
 1054POPC   C1A17571  20.280   8.205   8.755
 1054POPC   D2A17572  20.419   8.416   8.413
 1054POPC   C3A17573  20.601   8.286   8.048
 1054POPC   C4A17574  20.512   8.284   7.608
 1054POPC   C1B17575  20.801   8.242   8.718
 1054POPC   C2B17576  20.642   7.928   8.429
 1054POPC   C3B17577  20.673   7.793   7.975
 1054POPC   C4B17578  20.945   8.072   7.726
 1055POPC   NC317579  42.407  40.264   9.769
 1055POPC   PO417580  42.395  39.645   9.373
 1055POPC   GL117581  42.250  39.865   9.022
 1055POPC   GL217582  42.579  40.056   9.085
 1055POPC   C1A17583  42.125  39.913   8.558
 1055POPC   D2A17584  42.274  40.205   8.226
 1055POPC   C3A17585  42.221  39.962   7.836
 1055POPC   C4A17586  42.561  39.685   7.772
 1055POPC   C1B17587  42.628  39.915   8.661
 1055POPC   C2B17588  42.782  40.158   8.326
 1055POPC   C3B17589  42.688  40.160   7.904
 1055POPC   C4B17590  42.902  40.345   7.597
 1056POPC   NC317591  28.452  40.846   9.498
 1056POPC   PO417592  27.941  41.144   9.279
 1056POPC   GL117593  28.199  40.821   9.047
 1056POPC   GL217594  28.451  40.536   9.073
 1056POPC   C1A17595  28.314  40.795   8.610
 1056POPC   D2A17596  28.048  41.018   8.293
 1056POPC   C3A17597  28.179  40.917   7.886
 1056POPC   C4A17598  28.608  41.054   7.869
 1056POPC   C1B17599  28.720  40.488   8.716
 1056POPC   C2B17600  28.847  40.358   8.314
 1056POPC   C3B17601  28.580  40.487   7.994
 1056POPC   C4B17602  28.419  40.499   7.576
 1057POPC   NC317603   4.785  16.686   9.472
 1057POPC   PO417604   4.251  17.082   9.448
 1057POPC   GL117605   4.249  16.761   9.119
 1057POPC   GL217606   4.489  16.470   9.118
 1057POPC   C1A17607   4.378  16.773   8.721
 1057POPC   D2A17608   4.669  16.923   8.442
 1057POPC   C3A17609   4.418  16.864   8.100
 1057POPC   C4A17610   4.329  16.925   7.719
 1057POPC   C1B17611   4.544  16.246   8.745
 1057POPC   C2B17612   4.520  16.408   8.372
 1057POPC   C3B17613   4.828  16.572   8.114
 1057POPC   C4B17614   4.675  16.524   7.717
 1058POPC   NC317615  20.769  43.553   9.359
 1058POPC   PO417616  20.482  44.098   9.676
 1058POPC   GL117617  20.459  43.931   9.208
 1058POPC   GL217618  20.325  43.635   9.085
 1058POPC   C1A17619  20.600  44.040   8.760
 1058POPC   D2A17620  20.793  43.893   8.369
 1058POPC   C3A17621  20.869  44.137   8.011
 1058POPC   C4A17622  20.709  44.076   7.596
 1058POPC   C1B17623  20.139  43.550   8.736
 1058POPC   C2B17624  20.308  43.752   8.405
 1058POPC   C3B17625  20.423  43.876   8.007
 1058POPC   C4B17626  20.164  43.613   7.839
 1059POPC   NC317627  33.245  36.614   9.535
 1059POPC   PO417628  32.780  37.152   9.407
 1059POPC   GL117629  32.945  36.822   9.156
 1059POPC   GL217630  33.301  36.923   9.131
 1059POPC   C1A17631  32.937  36.899   8.739
 1059POPC   D2A17632  32.748  37.058   8.395
 1059POPC   C3A17633  33.018  37.142   8.076
 1059POPC   C4A17634  33.078  37.017   7.671
 1059POPC   C1B17635  33.415  36.713   8.740
 1059POPC   C2B17636  33.204  36.700   8.322
 1059POPC   C3B17637  33.239  36.560   7.899
 1059POPC   C4B17638  33.226  36.522   7.463
 1060POPC   NC317639  23.059  19.273   9.533
 1060POPC   PO417640  23.241  18.683   9.289
 1060POPC   GL117641  23.022  18.951   9.028
 1060POPC   GL217642  22.690  18.946   9.206
 1060POPC   C1A17643  22.976  19.058   8.567
 1060POPC   D2A17644  22.713  19.179   8.181
 1060POPC   C3A17645  22.927  19.213   7.782
 1060POPC   C4A17646  23.252  19.285   7.432
 1060POPC   C1B17647  22.606  18.754   8.784
 1060POPC   C2B17648  22.707  18.660   8.383
 1060POPC   C3B17649  22.803  18.718   7.968
 1060POPC   C4B17650  22.490  18.906   7.678
 1061POPC   NC317651   2.970  34.597   9.667
 1061POPC   PO417652   2.495  34.319   9.252
 1061POPC   GL117653   2.561  34.733   9.114
 1061POPC   GL217654   2.938  34.826   9.179
 1061POPC   C1A17655   2.564  34.717   8.666
 1061POPC   D2A17656   2.905  34.763   8.347
 1061POPC   C3A17657   2.868  34.376   8.090
 1061POPC   C4A17658   2.545  34.246   7.782
 1061POPC   C1B17659   2.931  35.053   8.798
 1061POPC   C2B17660   2.545  35.200   8.544
 1061POPC   C3B17661   2.380  34.926   8.216
 1061POPC   C4B17662   2.657  34.782   7.882
 1062POPC   NC317663  20.895  20.185   9.449
 1062POPC   PO417664  21.568  20.341   9.451
 1062POPC   GL117665  21.231  20.468   9.187
 1062POPC   GL217666  21.230  20.153   9.057
 1062POPC   C1A17667  21.110  20.602   8.772
 1062POPC   D2A17668  21.222  20.430   8.391
 1062POPC   C3A17669  21.384  20.653   8.062
 1062POPC   C4A17670  21.296  20.440   7.722
 1062POPC   C1B17671  21.545  20.249   8.752
 1062POPC   C2B17672  21.745  20.380   8.346
 1062POPC   C3B17673  21.773  20.280   7.898
 1062POPC   C4B17674  21.740  20.433   7.483
 1063POPC   NC317675  40.130  24.149   9.490
 1063POPC   PO417676  39.801  24.788   9.619
 1063POPC   GL117677  40.104  24.717   9.271
 1063POPC   GL217678  39.974  24.412   9.089
 1063POPC   C1A17679  40.225  24.705   8.796
 1063POPC   D2A17680  39.957  24.415   8.536
 1063POPC   C3A17681  39.931  24.509   8.103
 1063POPC   C4A17682  40.247  24.605   7.821
 1063POPC   C1B17683  40.242  24.116   8.834
 1063POPC   C2B17684  40.457  24.007   8.458
 1063POPC   C3B17685  40.295  24.107   8.067
 1063POPC   C4B17686  40.198  23.954   7.698
 1064POPC   NC317687  40.954   3.004   9.478
 1064POPC   PO417688  40.416   2.639   9.564
 1064POPC   GL117689  40.593   2.723   9.190
 1064POPC   GL217690  40.758   2.425   9.078
 1064POPC   C1A17691  40.431   2.978   8.839
 1064POPC   D2A17692  40.685   3.102   8.491
 1064POPC   C3A17693  40.671   3.193   8.063
 1064POPC   C4A17694  40.754   3.041   7.629
 1064POPC   C1B17695  40.895   2.693   8.769
 1064POPC   C2B17696  41.056   2.736   8.393
 1064POPC   C3B17697  41.049   2.825   7.988
 1064POPC   C4B17698  40.888   2.545   7.703
 1065POPC   NC317699  27.663  13.814   9.507
 1065POPC   PO417700  27.605  13.196   9.566
 1065POPC   GL117701  27.782  13.406   9.212
 1065POPC   GL217702  27.460  13.559   9.068
 1065POPC   C1A17703  27.877  13.570   8.783
 1065POPC   D2A17704  27.770  13.784   8.386
 1065POPC   C3A17705  27.856  13.580   8.000
 1065POPC   C4A17706  27.867  13.752   7.581
 1065POPC   C1B17707  27.398  13.477   8.610
 1065POPC   C2B17708  27.372  13.557   8.168
 1065POPC   C3B17709  27.395  13.527   7.732
 1065POPC   C4B17710  27.492  13.525   7.320
 1066POPC   NC317711  30.838  44.034   9.410
 1066POPC   PO417712  30.569  44.609   9.559
 1066POPC   GL117713  30.545  44.559   9.131
 1066POPC   GL217714  30.466  44.233   9.102
 1066POPC   C1A17715  30.545  44.762   8.728
 1066POPC   D2A17716  30.757  44.897   8.357
 1066POPC   C3A17717  30.618  44.803   7.968
 1066POPC   C4A17718  30.532  44.952   7.566
 1066POPC   C1B17719  30.775  44.280   8.779
 1066POPC   C2B17720  30.991  44.445   8.423
 1066POPC   C3B17721  31.037  44.523   7.983
 1066POPC   C4B17722  30.781  44.482   7.584
 1067POPC   NC317723  34.634  38.043   9.747
 1067POPC   PO417724  34.207  37.574   9.500
 1067POPC   GL117725  34.425  37.604   9.122
 1067POPC   GL217726  34.438  37.959   9.176
 1067POPC   C1A17727  34.605  37.491   8.688
 1067POPC   D2A17728  34.462  37.389   8.268
 1067POPC   C3A17729  34.625  37.642   7.920
 1067POPC   C4A17730  34.918  37.643   7.588
 1067POPC   C1B17731  34.283  38.081   8.770
 1067POPC   C2B17732  34.363  37.911   8.374
 1067POPC   C3B17733  34.153  37.790   8.026
 1067POPC   C4B17734  34.089  37.718   7.583
 1068POPC   NC317735  24.086  18.146   9.176
 1068POPC   PO417736  23.569  18.300   9.570
 1068POPC   GL117737  23.576  18.294   9.142
 1068POPC   GL217738  23.335  18.058   9.063
 1068POPC   C1A17739  23.663  18.509   8.746
 1068POPC   D2A17740  23.865  18.422   8.332
 1068POPC   C3A17741  23.794  18.653   7.932
 1068POPC   C4A17742  23.652  18.542   7.515
 1068POPC   C1B17743  23.417  18.089   8.630
 1068POPC   C2B17744  23.523  18.059   8.195
 1068POPC   C3B17745  23.719  18.147   7.838
 1068POPC   C4B17746  24.152  18.233   7.925
 1069POPC   NC317747  36.535   9.033   9.285
 1069POPC   PO417748  35.851   9.037   9.547
 1069POPC   GL117749  36.043   8.919   9.193
 1069POPC   GL217750  36.114   9.260   9.134
 1069POPC   C1A17751  36.155   8.714   8.804
 1069POPC   D2A17752  35.990   8.541   8.410
 1069POPC   C3A17753  35.840   8.829   8.073
 1069POPC   C4A17754  35.925   8.686   7.657
 1069POPC   C1B17755  35.919   9.208   8.741
 1069POPC   C2B17756  36.180   9.072   8.414
 1069POPC   C3B17757  36.329   9.272   8.077
 1069POPC   C4B17758  36.210   9.094   7.710
 1070POPC   NC317759  35.915   2.375   9.986
 1070POPC   PO417760  36.040   1.995   9.485
 1070POPC   GL117761  36.229   1.893   9.070
 1070POPC   GL217762  36.507   1.644   9.080
 1070POPC   C1A17763  36.384   1.945   8.624
 1070POPC   D2A17764  36.462   2.079   8.205
 1070POPC   C3A17765  36.127   2.166   7.938
 1070POPC   C4A17766  35.814   1.911   7.744
 1070POPC   C1B17767  36.669   1.501   8.681
 1070POPC   C2B17768  36.748   1.672   8.296
 1070POPC   C3B17769  36.727   1.598   7.868
 1070POPC   C4B17770  36.319   1.715   7.787
 1071POPC   NC317771   2.644  14.490   9.768
 1071POPC   PO417772   3.002  14.037   9.421
 1071POPC   GL117773   2.753  14.352   9.219
 1071POPC   GL217774   2.676  14.077   8.997
 1071POPC   C1A17775   2.596  14.619   8.851
 1071POPC   D2A17776   2.803  14.789   8.468
 1071POPC   C3A17777   2.674  14.734   8.003
 1071POPC   C4A17778   2.959  14.571   7.676
 1071POPC   C1B17779   2.909  14.249   8.654
 1071POPC   C2B17780   2.893  14.333   8.213
 1071POPC   C3B17781   3.099  14.145   7.894
 1071POPC   C4B17782   2.956  13.812   7.667
 1072POPC   NC317783  21.414  10.609   9.865
 1072POPC   PO417784  21.560  10.383   9.257
 1072POPC   GL117785  21.233  10.307   9.064
 1072POPC   GL217786  21.169  10.648   9.059
 1072POPC   C1A17787  21.257  10.189   8.662
 1072POPC   D2A17788  21.491  10.090   8.320
 1072POPC   C3A17789  21.582  10.435   8.046
 1072POPC   C4A17790  21.458  10.324   7.660
 1072POPC   C1B17791  20.942  10.594   8.679
 1072POPC   C2B17792  21.085  10.454   8.274
 1072POPC   C3B17793  21.004  10.502   7.882
 1072POPC   C4B17794  21.126  10.722   7.577
 1073POPC   NC317795  40.113  38.895   9.590
 1073POPC   PO417796  40.317  38.269   9.547
 1073POPC   GL117797  40.031  38.364   9.188
 1073POPC   GL217798  40.031  38.716   9.126
 1073POPC   C1A17799  39.958  38.413   8.710
 1073POPC   D2A17800  40.282  38.241   8.412
 1073POPC   C3A17801  40.176  38.006   8.017
 1073POPC   C4A17802  39.853  38.240   7.782
 1073POPC   C1B17803  40.031  38.913   8.725
 1073POPC   C2B17804  39.798  38.808   8.340
 1073POPC   C3B17805  39.905  38.737   7.906
 1073POPC   C4B17806  40.003  38.637   7.441
 1074POPC   NC317807  20.788  25.712   9.390
 1074POPC   PO417808  20.381  26.266   9.546
 1074POPC   GL117809  20.226  26.194   9.128
 1074POPC   GL217810  20.369  25.874   9.134
 1074POPC   C1A17811  20.292  26.107   8.698
 1074POPC   D2A17812  20.634  25.934   8.492
 1074POPC   C3A17813  20.654  26.126   8.099
 1074POPC   C4A17814  20.752  25.994   7.692
 1074POPC   C1B17815  20.329  25.612   8.783
 1074POPC   C2B17816  20.308  25.469   8.393
 1074POPC   C3B17817  20.449  25.668   8.072
 1074POPC   C4B17818  20.443  25.596   7.679
 1075POPC   NC317819   2.720  39.379   9.411
 1075POPC   PO417820   2.942  38.777   9.449
 1075POPC   GL117821   2.943  39.042   9.115
 1075POPC   GL217822   2.572  39.033   9.037
 1075POPC   C1A17823   2.952  39.183   8.705
 1075POPC   D2A17824   2.679  39.236   8.350
 1075POPC   C3A17825   2.834  39.210   7.929
 1075POPC   C4A17826   3.196  39.402   7.789
 1075POPC   C1B17827   2.434  39.407   8.786
 1075POPC   C2B17828   2.400  39.669   8.416
 1075POPC   C3B17829   2.494  39.628   8.000
 1075POPC   C4B17830   2.502  39.506   7.568
 1076POPC   NC317831  34.514  29.720   9.663
 1076POPC   PO417832  34.788  30.308   9.513
 1076POPC   GL117833  34.703  30.000   9.174
 1076POPC   GL217834  34.469  29.700   9.150
 1076POPC   C1A17835  34.721  29.923   8.728
 1076POPC   D2A17836  34.981  29.870   8.360
 1076POPC   C3A17837  34.856  30.054   7.991
 1076POPC   C4A17838  34.692  29.796   7.692
 1076POPC   C1B17839  34.219  29.876   8.798
 1076POPC   C2B17840  34.241  30.199   8.455
 1076POPC   C3B17841  34.316  30.108   8.015
 1076POPC   C4B17842  34.189  29.837   7.707
 1077POPC   NC317843  14.385  42.555   9.537
 1077POPC   PO417844  14.609  41.888   9.393
 1077POPC   GL117845  14.382  42.212   9.163
 1077POPC   GL217846  14.623  42.472   9.107
 1077POPC   C1A17847  14.213  42.403   8.792
 1077POPC   D2A17848  14.152  42.215   8.393
 1077POPC   C3A17849  14.156  42.444   8.014
 1077POPC   C4A17850  14.277  42.286   7.593
 1077POPC   C1B17851  14.741  42.378   8.748
 1077POPC   C2B17852  14.581  42.485   8.375
 1077POPC   C3B17853  14.659  42.332   7.982
 1077POPC   C4B17854  14.874  42.559   7.713
 1078POPC   NC317855  22.361  34.145   9.425
 1078POPC   PO417856  22.021  33.598   9.431
 1078POPC   GL117857  22.067  33.869   9.076
 1078POPC   GL217858  22.423  33.933   8.986
 1078POPC   C1A17859  22.053  33.899   8.630
 1078POPC   D2A17860  21.990  34.056   8.232
 1078POPC   C3A17861  22.125  33.826   7.940
 1078POPC   C4A17862  22.317  33.938   7.599
 1078POPC   C1B17863  22.423  33.570   8.776
 1078POPC   C2B17864  22.338  33.408   8.384
 1078POPC   C3B17865  22.480  33.466   7.968
 1078POPC   C4B17866  22.240  33.416   7.645
 1079POPC   NC317867  42.859   0.351   9.802
 1079POPC   PO417868  43.158   0.807   9.340
 1079POPC   GL117869  43.217   0.639   8.948
 1079POPC   GL217870  43.436   0.387   9.145
 1079POPC   C1A17871  42.925   0.542   8.554
 1079POPC   D2A17872  42.850   0.769   8.155
 1079POPC   C3A17873  43.277   0.724   7.956
 1079POPC   C4A17874  43.435   0.386   7.649
 1079POPC   C1B17875  43.249   0.187   8.746
 1079POPC   C2B17876  43.180   0.190   8.268
 1079POPC   C3B17877  43.292  44.959   7.887
 1079POPC   C4B17878  43.354  44.917   7.415
 1080POPC   NC317879  30.932  11.756   9.614
 1080POPC   PO417880  30.486  12.283   9.523
 1080POPC   GL117881  30.758  12.091   9.212
 1080POPC   GL217882  30.808  12.449   9.149
 1080POPC   C1A17883  30.789  11.975   8.757
 1080POPC   D2A17884  30.554  11.794   8.373
 1080POPC   C3A17885  30.686  11.862   7.897
 1080POPC   C4A17886  30.948  11.859   7.467
 1080POPC   C1B17887  30.495  12.398   8.843
 1080POPC   C2B17888  30.609  12.338   8.429
 1080POPC   C3B17889  30.642  12.372   8.000
 1080POPC   C4B17890  30.926  12.281   7.728
 1081POPC   NC317891  13.994  30.942   9.521
 1081POPC   PO417892  14.488  30.480   9.519
 1081POPC   GL117893  14.448  30.814   9.240
 1081POPC   GL217894  14.643  30.599   8.989
 1081POPC   C1A17895  14.319  30.968   8.849
 1081POPC   D2A17896  14.411  30.700   8.474
 1081POPC   C3A17897  14.540  30.853   8.083
 1081POPC   C4A17898  14.464  30.879   7.661
 1081POPC   C1B17899  14.206  30.461   8.879
 1081POPC   C2B17900  14.056  30.331   8.467
 1081POPC   C3B17901  14.143  30.478   8.037
 1081POPC   C4B17902  14.149  30.492   7.577
 1082POPC   NC317903  38.654  43.136   9.398
 1082POPC   PO417904  38.168  42.645   9.490
 1082POPC   GL117905  38.375  42.787   9.111
 1082POPC   GL217906  38.412  43.156   8.968
 1082POPC   C1A17907  38.425  42.726   8.666
 1082POPC   D2A17908  38.491  43.059   8.456
 1082POPC   C3A17909  38.286  43.004   8.128
 1082POPC   C4A17910  38.444  43.110   7.736
 1082POPC   C1B17911  38.183  43.425   8.689
 1082POPC   C2B17912  37.918  43.354   8.332
 1082POPC   C3B17913  38.156  43.481   7.965
 1082POPC   C4B17914  38.316  43.607   7.591
 1083POPC   NC317915  10.394  14.641   9.531
 1083POPC   PO417916  10.773  14.117   9.431
 1083POPC   GL117917  10.746  14.514   9.202
 1083POPC   GL217918  10.389  14.366   9.121
 1083POPC   C1A17919  10.662  14.636   8.776
 1083POPC   D2A17920  10.548  14.239   8.529
 1083POPC   C3A17921  10.368  14.218   8.093
 1083POPC   C4A17922  10.236  14.322   7.686
 1083POPC   C1B17923  10.157  14.453   8.763
 1083POPC   C2B17924  10.324  14.681   8.393
 1083POPC   C3B17925  10.243  14.748   7.975
 1083POPC   C4B17926  10.100  14.789   7.542
 1084POPC   NC317927  33.438  25.191   9.555
 1084POPC   PO417928  33.084  25.752   9.661
 1084POPC   GL117929  33.145  25.511   9.277
 1084POPC   GL217930  32.870  25.258   9.120
 1084POPC   C1A17931  33.212  25.482   8.848
 1084POPC   D2A17932  33.123  25.139   8.560
 1084POPC   C3A17933  33.195  25.125   8.111
 1084POPC   C4A17934  33.264  25.084   7.670
 1084POPC   C1B17935  32.705  25.438   8.725
 1084POPC   C2B17936  32.851  25.488   8.284
 1084POPC   C3B17937  32.896  25.454   7.815
 1084POPC   C4B17938  32.847  25.621   7.373
 1085POPC   NC317939  43.713  13.814   9.345
 1085POPC   PO417940  43.299  13.391   9.132
 1085POPC   GL117941  43.787  13.423   9.003
 1085POPC   GL217942  44.020  13.724   8.960
 1085POPC   C1A17943  44.024  13.372   8.594
 1085POPC   D2A17944  43.830  13.487   8.185
 1085POPC   C3A17945  44.001  13.337   7.793
 1085POPC   C4A17946  44.057  13.358   7.326
 1085POPC   C1B17947  43.752  13.813   8.642
 1085POPC   C2B17948  43.983  13.954   8.304
 1085POPC   C3B17949  44.113  13.839   7.880
 1085POPC   C4B17950  43.791  13.744   7.564
 1086POPC   NC317951  13.326  31.096   9.341
 1086POPC   PO417952  13.742  30.545   9.413
 1086POPC   GL117953  13.569  30.697   9.026
 1086POPC   GL217954  13.763  30.972   9.059
 1086POPC   C1A17955  13.446  30.513   8.615
 1086POPC   D2A17956  13.607  30.385   8.188
 1086POPC   C3A17957  13.379  30.461   7.766
 1086POPC   C4A17958  13.231  30.562   7.340
 1086POPC   C1B17959  13.888  30.809   8.640
 1086POPC   C2B17960  14.005  30.932   8.227
 1086POPC   C3B17961  13.757  30.787   7.867
 1086POPC   C4B17962  13.672  30.825   7.420
 1087POPC   NC317963  39.288   6.922   9.442
 1087POPC   PO417964  39.514   6.228   9.622
 1087POPC   GL117965  39.523   6.402   9.200
 1087POPC   GL217966  39.167   6.451   9.220
 1087POPC   C1A17967  39.446   6.566   8.770
 1087POPC   D2A17968  39.287   6.445   8.337
 1087POPC   C3A17969  39.507   6.583   7.936
 1087POPC   C4A17970  39.459   6.854   7.591
 1087POPC   C1B17971  38.938   6.411   8.830
 1087POPC   C2B17972  38.781   6.349   8.406
 1087POPC   C3B17973  38.877   6.499   8.012
 1087POPC   C4B17974  39.096   6.481   7.645
 1088POPC   NC317975   9.136   8.763   9.480
 1088POPC   PO417976   8.763   9.373   9.505
 1088POPC   GL117977   9.000   9.205   9.153
 1088POPC   GL217978   8.844   8.894   9.096
 1088POPC   C1A17979   9.009   9.191   8.681
 1088POPC   D2A17980   8.854   9.314   8.258
 1088POPC   C3A17981   9.090   9.075   7.941
 1088POPC   C4A17982   9.227   9.086   7.507
 1088POPC   C1B17983   9.107   8.696   8.762
 1088POPC   C2B17984   9.250   8.751   8.349
 1088POPC   C3B17985   9.071   8.568   8.005
 1088POPC   C4B17986   8.978   8.653   7.608
 1089POPC   NC317987  17.399  16.444   9.589
 1089POPC   PO417988  17.713  17.026   9.326
 1089POPC   GL117989  17.495  16.714   9.136
 1089POPC   GL217990  17.680  16.436   9.123
 1089POPC   C1A17991  17.409  16.574   8.723
 1089POPC   D2A17992  17.345  16.386   8.340
 1089POPC   C3A17993  17.433  16.663   8.023
 1089POPC   C4A17994  17.120  16.915   7.828
 1089POPC   C1B17995  17.923  16.527   8.769
 1089POPC   C2B17996  17.834  16.543   8.333
 1089POPC   C3B17997  17.966  16.535   7.895
 1089POPC   C4B17998  18.108  16.347   7.497
 1090POPC   NC317999   0.081  34.280   9.299
 1090POPC   PO418000   0.518  34.684   9.598
 1090POPC   GL118001   0.505  34.527   9.134
 1090POPC   GL218002   0.284  34.730   8.894
 1090POPC   C1A18003   0.368  34.250   8.742
 1090POPC   D2A18004   0.127  34.327   8.374
 1090POPC   C3A18005   0.340  34.389   7.974
 1090POPC   C4A18006   0.218  34.700   7.643
 1090POPC   C1B18007   0.585  35.029   8.669
 1090POPC   C2B18008   0.715  34.971   8.296
 1090POPC   C3B18009   0.655  34.794   7.919
 1090POPC   C4B18010   0.707  35.022   7.558
 1091POPC   NC318011  40.374  31.129   9.497
 1091POPC   PO418012  40.028  31.742   9.589
 1091POPC   GL118013  40.143  31.475   9.204
 1091POPC   GL218014  39.842  31.318   9.026
 1091POPC   C1A18015  40.288  31.245   8.816
 1091POPC   D2A18016  39.968  31.372   8.507
 1091POPC   C3A18017  40.055  31.405   8.080
 1091POPC   C4A18018  40.322  31.257   7.737
 1091POPC   C1B18019  39.599  31.642   8.758
 1091POPC   C2B18020  39.669  31.766   8.304
 1091POPC   C3B18021  39.583  31.520   7.934
 1091POPC   C4B18022  39.729  31.591   7.512
 1092POPC   NC318023  10.663  27.906   9.663
 1092POPC   PO418024  10.506  27.185   9.556
 1092POPC   GL118025  10.564  27.360   9.149
 1092POPC   GL218026  10.576  27.730   9.166
 1092POPC   C1A18027  10.338  27.433   8.765
 1092POPC   D2A18028  10.461  27.593   8.358
 1092POPC   C3A18029  10.378  27.417   7.945
 1092POPC   C4A18030  10.400  27.410   7.458
 1092POPC   C1B18031  10.423  27.929   8.778
 1092POPC   C2B18032  10.537  28.108   8.390
 1092POPC   C3B18033  10.685  27.964   8.022
 1092POPC   C4B18034  10.458  27.872   7.658
 1093POPC   NC318035  44.561  39.449   9.461
 1093POPC   PO418036  44.966  38.890   9.680
 1093POPC   GL118037  44.735  38.976   9.268
 1093POPC   GL218038  44.443  38.807   9.125
 1093POPC   C1A18039  44.855  39.197   8.869
 1093POPC   D2A18040   0.141  39.325   8.547
 1093POPC   C3A18041   0.049  39.265   8.121
 1093POPC   C4A18042  44.752  39.456   7.811
 1093POPC   C1B18043  44.349  39.165   8.881
 1093POPC   C2B18044  44.511  39.198   8.483
 1093POPC   C3B18045  44.376  39.353   8.122
 1093POPC   C4B18046  44.297  39.177   7.751
 1094POPC   NC318047  23.579  17.844   9.538
 1094POPC   PO418048  23.514  17.159   9.431
 1094POPC   GL118049  23.764  17.369   9.112
 1094POPC   GL218050  23.765  17.743   9.080
 1094POPC   C1A18051  23.606  17.374   8.714
 1094POPC   D2A18052  23.421  17.618   8.443
 1094POPC   C3A18053  23.517  17.578   8.026
 1094POPC   C4A18054  23.311  17.815   7.691
 1094POPC   C1B18055  23.883  17.804   8.658
 1094POPC   C2B18056  23.945  17.535   8.330
 1094POPC   C3B18057  24.004  17.731   7.964
 1094POPC   C4B18058  23.812  17.679   7.613
 1095POPC   NC318059   1.930  33.299   9.816
 1095POPC   PO418060   1.501  32.824   9.447
 1095POPC   GL118061   1.865  32.787   9.176
 1095POPC   GL218062   2.124  32.995   9.287
 1095POPC   C1A18063   2.026  32.654   8.778
 1095POPC   D2A18064   1.786  32.583   8.418
 1095POPC   C3A18065   1.967  32.753   8.080
 1095POPC   C4A18066   2.359  32.752   7.880
 1095POPC   C1B18067   2.131  33.142   8.851
 1095POPC   C2B18068   2.200  33.051   8.434
 1095POPC   C3B18069   2.168  33.207   8.017
 1095POPC   C4B18070   2.236  33.166   7.576
 1096POPC   NC318071  14.287  10.013   9.498
 1096POPC   PO418072  14.632  10.584   9.459
 1096POPC   GL118073  14.324  10.419   9.177
 1096POPC   GL218074  14.003  10.475   9.350
 1096POPC   C1A18075  14.253  10.257   8.757
 1096POPC   D2A18076  14.409  10.297   8.326
 1096POPC   C3A18077  14.500  10.699   8.159
 1096POPC   C4A18078  14.437  10.656   7.717
 1096POPC   C1B18079  13.900  10.596   8.913
 1096POPC   C2B18080  14.099  10.674   8.497
 1096POPC   C3B18081  13.996  10.643   8.030
 1096POPC   C4B18082  13.974  10.820   7.600
 1097POPC   NC318083   5.902   4.841   9.285
 1097POPC   PO418084   5.607   4.346   9.641
 1097POPC   GL118085   5.819   4.335   9.199
 1097POPC   GL218086   5.771   3.977   9.140
 1097POPC   C1A18087   5.952   4.504   8.742
 1097POPC   D2A18088   5.850   4.250   8.384
 1097POPC   C3A18089   5.833   4.446   7.987
 1097POPC   C4A18090   6.139   4.619   7.797
 1097POPC   C1B18091   5.555   4.125   8.787
 1097POPC   C2B18092   5.433   3.926   8.418
 1097POPC   C3B18093   5.509   4.066   8.019
 1097POPC   C4B18094   5.753   4.052   7.645
 1098POPC   NC318095  19.339  26.877   9.559
 1098POPC   PO418096  18.873  26.597   9.416
 1098POPC   GL118097  19.035  26.880   9.142
 1098POPC   GL218098  19.313  26.627   9.105
 1098POPC   C1A18099  18.835  27.022   8.762
 1098POPC   D2A18100  18.867  26.838   8.357
 1098POPC   C3A18101  18.792  26.893   7.911
 1098POPC   C4A18102  19.209  26.903   7.753
 1098POPC   C1B18103  19.067  26.547   8.758
 1098POPC   C2B18104  18.964  26.301   8.435
 1098POPC   C3B18105  19.114  26.475   8.070
 1098POPC   C4B18106  18.965  26.430   7.681
 1099POPC   NC318107   9.315   3.973   9.527
 1099POPC   PO418108   9.365   4.685   9.524
 1099POPC   GL118109   9.030   4.440   9.301
 1099POPC   GL218110   9.223   4.311   9.151
 1099POPC   C1A18111   8.820   4.354   8.840
 1099POPC   D2A18112   8.709   4.370   8.410
 1099POPC   C3A18113   8.944   4.630   8.107
 1099POPC   C4A18114   8.874   4.464   7.707
 1099POPC   C1B18115   9.342   4.357   8.777
 1099POPC   C2B18116   9.207   4.279   8.359
 1099POPC   C3B18117   9.317   4.304   7.918
 1099POPC   C4B18118   9.363   3.995   7.567
 1100POPC   NC318119  26.962  17.540   9.674
 1100POPC   PO418120  26.346  17.569   9.381
 1100POPC   GL118121  26.580  17.750   9.020
 1100POPC   GL218122  26.461  18.087   8.977
 1100POPC   C1A18123  26.867  17.680   8.630
 1100POPC   D2A18124  27.084  17.772   8.207
 1100POPC   C3A18125  26.952  17.474   7.866
 1100POPC   C4A18126  26.890  17.494   7.390
 1100POPC   C1B18127  26.426  17.937   8.540
 1100POPC   C2B18128  26.552  17.726   8.146
 1100POPC   C3B18129  26.646  17.825   7.699
 1100POPC   C4B18130  26.447  17.710   7.290
 1101POPC   NC318131  15.783  13.071   9.442
 1101POPC   PO418132  15.864  12.421   9.264
 1101POPC   GL118133  15.897  12.771   9.058
 1101POPC   GL218134  16.231  12.775   9.067
 1101POPC   C1A18135  15.838  13.045   8.693
 1101POPC   D2A18136  15.542  13.014   8.346
 1101POPC   C3A18137  15.728  13.053   7.950
 1101POPC   C4A18138  15.661  12.925   7.517
 1101POPC   C1B18139  16.115  12.613   8.647
 1101POPC   C2B18140  16.250  12.890   8.376
 1101POPC   C3B18141  16.254  13.066   8.022
 1101POPC   C4B18142  16.394  12.957   7.667
 1102POPC   NC318143  22.362   3.928   9.433
 1102POPC   PO418144  22.038   3.366   9.504
 1102POPC   GL118145  21.903   3.520   9.122
 1102POPC   GL218146  21.984   3.861   9.115
 1102POPC   C1A18147  22.034   3.540   8.697
 1102POPC   D2A18148  22.402   3.509   8.439
 1102POPC   C3A18149  22.182   3.510   8.038
 1102POPC   C4A18150  22.184   3.630   7.587
 1102POPC   C1B18151  22.295   3.964   8.785
 1102POPC   C2B18152  22.208   3.971   8.364
 1102POPC   C3B18153  22.350   3.987   7.947
 1102POPC   C4B18154  22.398   4.075   7.543
 1103POPC   NC318155  29.146   3.324   9.597
 1103POPC   PO418156  29.305   3.895   9.769
 1103POPC   GL118157  29.094   3.790   9.311
 1103POPC   GL218158  28.995   3.461   9.144
 1103POPC   C1A18159  29.107   3.842   8.820
 1103POPC   D2A18160  29.221   3.658   8.414
 1103POPC   C3A18161  28.989   3.613   8.038
 1103POPC   C4A18162  28.726   3.331   7.769
 1103POPC   C1B18163  29.318   3.342   8.806
 1103POPC   C2B18164  29.417   3.199   8.341
 1103POPC   C3B18165  29.321   3.244   7.886
 1103POPC   C4B18166  29.561   3.379   7.507
 1104POPC   NC318167  15.087  42.002   9.414
 1104POPC   PO418168  14.861  42.689   9.483
 1104POPC   GL118169  15.182  42.466   9.187
 1104POPC   GL218170  15.546  42.327   9.228
 1104POPC   C1A18171  15.247  42.300   8.761
 1104POPC   D2A18172  15.022  42.155   8.378
 1104POPC   C3A18173  15.191  42.265   7.974
 1104POPC   C4A18174  15.058  42.140   7.527
 1104POPC   C1B18175  15.744  42.232   8.798
 1104POPC   C2B18176  15.580  42.151   8.349
 1104POPC   C3B18177  15.698  42.191   7.891
 1104POPC   C4B18178  15.539  42.288   7.461
 1105POPC   NC318179  35.868  40.879   9.620
 1105POPC   PO418180  35.273  41.111   9.343
 1105POPC   GL118181  35.307  40.793   9.099
 1105POPC   GL218182  35.300  41.085   8.837
 1105POPC   C1A18183  35.236  40.608   8.739
 1105POPC   D2A18184  35.162  40.801   8.370
 1105POPC   C3A18185  35.379  40.610   8.073
 1105POPC   C4A18186  35.261  40.581   7.675
 1105POPC   C1B18187  35.619  40.981   8.556
 1105POPC   C2B18188  35.694  41.008   8.105
 1105POPC   C3B18189  35.780  41.096   7.696
 1105POPC   C4B18190  35.543  41.123   7.291
 1106POPC   NC318191  23.554   0.222   9.592
 1106POPC   PO418192  23.969   0.718   9.601
 1106POPC   GL118193  23.695   0.596   9.199
 1106POPC   GL218194  23.865   0.696   8.899
 1106POPC   C1A18195  23.596   0.271   8.830
 1106POPC   D2A18196  23.393   0.183   8.388
 1106POPC   C3A18197  23.643   0.210   7.988
 1106POPC   C4A18198  23.475   0.353   7.598
 1106POPC   C1B18199  24.102   0.962   8.602
 1106POPC   C2B18200  24.222   0.942   8.179
 1106POPC   C3B18201  23.942   0.668   7.938
 1106POPC   C4B18202  23.749   0.780   7.599
 1107POPC   NC318203   7.409  36.511   9.436
 1107POPC   PO418204   7.597  35.856   9.567
 1107POPC   GL118205   7.415  35.990   9.162
 1107POPC   GL218206   7.295  36.322   8.994
 1107POPC   C1A18207   7.320  35.892   8.743
 1107POPC   D2A18208   7.386  36.184   8.438
 1107POPC   C3A18209   7.389  35.987   8.067
 1107POPC   C4A18210   7.104  36.205   7.859
 1107POPC   C1B18211   7.718  36.239   8.825
 1107POPC   C2B18212   7.860  36.321   8.401
 1107POPC   C3B18213   7.786  36.298   7.972
 1107POPC   C4B18214   7.795  36.499   7.562
 1108POPC   NC318215  17.843   7.138   9.361
 1108POPC   PO418216  17.365   7.466   9.694
 1108POPC   GL118217  17.480   7.449   9.156
 1108POPC   GL218218  17.737   7.245   8.892
 1108POPC   C1A18219  17.420   7.590   8.663
 1108POPC   D2A18220  17.243   7.790   8.247
 1108POPC   C3A18221  17.421   7.683   7.809
 1108POPC   C4A18222  17.805   7.451   7.782
 1108POPC   C1B18223  17.369   7.089   8.797
 1108POPC   C2B18224  17.200   7.173   8.464
 1108POPC   C3B18225  17.369   7.286   8.116
 1108POPC   C4B18226  17.175   7.200   7.764
 1109POPC   NC318227  25.298  40.044   9.616
 1109POPC   PO418228  24.897  40.505   9.259
 1109POPC   GL118229  25.289  40.216   9.161
 1109POPC   GL218230  25.345  39.816   9.168
 1109POPC   C1A18231  25.396  40.175   8.784
 1109POPC   D2A18232  25.082  40.222   8.480
 1109POPC   C3A18233  25.157  40.319   8.072
 1109POPC   C4A18234  25.224  40.144   7.679
 1109POPC   C1B18235  25.479  39.663   8.773
 1109POPC   C2B18236  25.407  39.841   8.380
 1109POPC   C3B18237  25.081  39.816   8.085
 1109POPC   C4B18238  25.441  39.721   7.831
 1110POPC   NC318239  18.428  27.271   9.437
 1110POPC   PO418240  18.011  27.846   9.414
 1110POPC   GL118241  18.312  27.716   9.118
 1110POPC   GL218242  18.532  27.991   8.975
 1110POPC   C1A18243  18.187  27.551   8.751
 1110POPC   D2A18244  18.191  27.657   8.362
 1110POPC   C3A18245  18.113  27.346   8.110
 1110POPC   C4A18246  18.322  27.459   7.770
 1110POPC   C1B18247  18.591  27.919   8.550
 1110POPC   C2B18248  18.632  27.777   8.114
 1110POPC   C3B18249  18.704  27.980   7.712
 1110POPC   C4B18250  18.571  28.148   7.300
 1111POPC   NC318251  27.546   3.233   9.487
 1111POPC   PO418252  27.036   2.705   9.471
 1111POPC   GL118253  27.314   2.714   9.091
 1111POPC   GL218254  27.640   2.919   9.040
 1111POPC   C1A18255  27.423   2.646   8.656
 1111POPC   D2A18256  27.628   2.832   8.316
 1111POPC   C3A18257  27.460   2.664   7.989
 1111POPC   C4A18258  27.233   2.990   7.893
 1111POPC   C1B18259  27.928   2.672   8.706
 1111POPC   C2B18260  28.020   2.517   8.244
 1111POPC   C3B18261  27.946   2.791   7.864
 1111POPC   C4B18262  27.697   3.192   7.913
 1112POPC   NC318263   6.269  19.160   9.702
 1112POPC   PO418264   6.865  18.976   9.346
 1112POPC   GL118265   6.868  18.822   8.971
 1112POPC   GL218266   6.531  18.840   8.919
 1112POPC   C1A18267   6.802  18.977   8.523
 1112POPC   D2A18268   6.608  19.380   8.386
 1112POPC   C3A18269   6.425  19.285   7.998
 1112POPC   C4A18270   6.657  19.402   7.632
 1112POPC   C1B18271   6.301  18.770   8.549
 1112POPC   C2B18272   6.036  18.988   8.261
 1112POPC   C3B18273   6.112  18.866   7.868
 1112POPC   C4B18274   6.538  18.841   7.702
 1113POPC   NC318275  34.940  37.781   9.212
 1113POPC   PO418276  35.426  37.275   9.332
 1113POPC   GL118277  35.387  37.584   9.035
 1113POPC   GL218278  35.470  37.941   9.140
 1113POPC   C1A18279  35.194  37.575   8.639
 1113POPC   D2A18280  34.956  37.699   8.297
 1113POPC   C3A18281  35.173  37.443   7.982
 1113POPC   C4A18282  35.458  37.160   7.794
 1113POPC   C1B18283  35.639  37.859   8.694
 1113POPC   C2B18284  35.442  37.890   8.297
 1113POPC   C3B18285  35.239  37.936   7.917
 1113POPC   C4B18286  35.590  38.032   7.716
 1114POPC   NC318287  17.556   2.359   9.475
 1114POPC   PO418288  17.735   1.714   9.467
 1114POPC   GL118289  17.718   1.911   9.071
 1114POPC   GL218290  17.501   2.175   9.020
 1114POPC   C1A18291  17.708   1.954   8.611
 1114POPC   D2A18292  18.055   2.045   8.321
 1114POPC   C3A18293  17.948   2.073   7.898
 1114POPC   C4A18294  17.534   2.061   7.780
 1114POPC   C1B18295  17.272   2.233   8.635
 1114POPC   C2B18296  17.091   2.251   8.195
 1114POPC   C3B18297  17.080   2.267   7.734
 1114POPC   C4B18298  17.383   2.317   7.351
 1115POPC   NC318299  21.958  37.924   9.501
 1115POPC   PO418300  22.538  37.644   9.625
 1115POPC   GL118301  22.317  37.645   9.194
 1115POPC   GL218302  22.097  37.370   9.131
 1115POPC   C1A18303  22.259  37.823   8.763
 1115POPC   D2A18304  22.137  38.003   8.338
 1115POPC   C3A18305  21.957  37.689   8.056
 1115POPC   C4A18306  22.082  37.653   7.601
 1115POPC   C1B18307  22.271  37.312   8.711
 1115POPC   C2B18308  22.480  37.563   8.384
 1115POPC   C3B18309  22.449  37.724   7.979
 1115POPC   C4B18310  22.289  37.311   7.897
 1116POPC   NC318311   9.149  37.386   9.721
 1116POPC   PO418312   8.942  36.827   9.525
 1116POPC   GL118313   8.988  37.107   9.149
 1116POPC   GL218314   9.300  37.248   9.138
 1116POPC   C1A18315   9.069  36.985   8.724
 1116POPC   D2A18316   9.238  36.984   8.309
 1116POPC   C3A18317   9.010  36.788   7.995
 1116POPC   C4A18318   8.906  36.728   7.590
 1116POPC   C1B18319   9.420  37.386   8.687
 1116POPC   C2B18320   9.192  37.489   8.277
 1116POPC   C3B18321   9.092  37.272   7.879
 1116POPC   C4B18322   9.373  36.939   7.680
 1117POPC   NC318323  43.927   3.520   9.680
 1117POPC   PO418324  44.016   2.998   9.393
 1117POPC   GL118325  43.818   3.331   9.139
 1117POPC   GL218326  43.840   3.690   9.186
 1117POPC   C1A18327  43.575   3.472   8.784
 1117POPC   D2A18328  43.799   3.444   8.422
 1117POPC   C3A18329  43.624   3.527   8.041
 1117POPC   C4A18330  43.862   3.579   7.671
 1117POPC   C1B18331  44.093   3.605   8.820
 1117POPC   C2B18332  44.184   3.814   8.478
 1117POPC   C3B18333  44.187   3.698   8.080
 1117POPC   C4B18334  44.262   3.913   7.707
 1118POPC   NC318335  34.984  13.794   9.649
 1118POPC   PO418336  34.545  13.342   9.450
 1118POPC   GL118337  34.543  13.467   9.054
 1118POPC   GL218338  34.202  13.443   9.035
 1118POPC   C1A18339  34.594  13.706   8.686
 1118POPC   D2A18340  34.805  13.905   8.349
 1118POPC   C3A18341  34.894  13.613   8.011
 1118POPC   C4A18342  34.801  13.709   7.549
 1118POPC   C1B18343  34.286  13.305   8.616
 1118POPC   C2B18344  34.419  13.534   8.228
 1118POPC   C3B18345  34.473  13.870   7.892
 1118POPC   C4B18346  34.293  13.586   7.560
 1119POPC   NC318347  20.615  38.696   9.593
 1119POPC   PO418348  20.849  37.979   9.551
 1119POPC   GL118349  20.653  38.309   9.245
 1119POPC   GL218350  20.841  38.622   9.131
 1119POPC   C1A18351  20.510  38.440   8.805
 1119POPC   D2A18352  20.570  38.233   8.394
 1119POPC   C3A18353  20.417  38.378   7.979
 1119POPC   C4A18354  20.288  38.257   7.551
 1119POPC   C1B18355  21.055  38.825   8.762
 1119POPC   C2B18356  20.897  38.723   8.328
 1119POPC   C3B18357  20.700  38.815   7.924
 1119POPC   C4B18358  20.712  38.965   7.470
 1120POPC   NC318359  38.672   0.890   9.458
 1120POPC   PO418360  38.243   1.327   9.422
 1120POPC   GL118361  38.403   1.186   9.066
 1120POPC   GL218362  38.294   0.864   9.092
 1120POPC   C1A18363  38.611   1.032   8.712
 1120POPC   D2A18364  38.460   0.969   8.309
 1120POPC   C3A18365  38.726   1.222   8.092
 1120POPC   C4A18366  38.886   1.216   7.693
 1120POPC   C1B18367  38.096   0.902   8.695
 1120POPC   C2B18368  37.921   0.800   8.301
 1120POPC   C3B18369  38.069   0.919   7.934
 1120POPC   C4B18370  38.312   1.239   7.788
 1121POPC   NC318371   8.570  42.634   9.679
 1121POPC   PO418372   8.800  41.989   9.614
 1121POPC   GL118373   8.759  42.093   9.171
 1121POPC   GL218374   8.864  42.449   9.232
 1121POPC   C1A18375   8.911  42.080   8.756
 1121POPC   D2A18376   9.215  42.362   8.522
 1121POPC   C3A18377   9.221  42.383   8.088
 1121POPC   C4A18378   9.130  42.061   7.758
 1121POPC   C1B18379   8.838  42.582   8.799
 1121POPC   C2B18380   8.707  42.377   8.372
 1121POPC   C3B18381   8.752  42.384   7.910
 1121POPC   C4B18382   8.862  42.602   7.517
 1122POPC   NC318383   4.029  36.228   9.760
 1122POPC   PO418384   3.424  35.906   9.558
 1122POPC   GL118385   3.531  35.888   9.158
 1122POPC   GL218386   3.772  35.635   9.130
 1122POPC   C1A18387   3.517  36.204   8.824
 1122POPC   D2A18388   3.682  36.254   8.433
 1122POPC   C3A18389   3.371  36.271   8.099
 1122POPC   C4A18390   3.470  36.302   7.698
 1122POPC   C1B18391   3.950  35.919   8.813
 1122POPC   C2B18392   3.940  35.826   8.377
 1122POPC   C3B18393   3.844  36.071   7.981
 1122POPC   C4B18394   3.907  35.981   7.531
 1123POPC   NC318395   9.060   5.045   9.574
 1123POPC   PO418396   8.546   5.042   9.196
 1123POPC   GL118397   8.878   4.830   8.990
 1123POPC   GL218398   9.210   4.890   9.093
 1123POPC   C1A18399   9.099   4.761   8.596
 1123POPC   D2A18400   9.128   5.097   8.312
 1123POPC   C3A18401   8.783   5.206   8.124
 1123POPC   C4A18402   8.800   5.003   7.741
 1123POPC   C1B18403   9.210   5.240   8.804
 1123POPC   C2B18404   9.411   5.530   8.486
 1123POPC   C3B18405   9.374   5.486   8.048
 1123POPC   C4B18406   9.378   5.215   7.718
 1124POPC   NC318407  43.530  17.106   9.689
 1124POPC   PO418408  42.998  16.708   9.548
 1124POPC   GL118409  43.307  16.672   9.160
 1124POPC   GL218410  43.575  16.925   9.120
 1124POPC   C1A18411  43.275  16.583   8.704
 1124POPC   D2A18412  43.229  16.821   8.316
 1124POPC   C3A18413  43.291  16.623   7.932
 1124POPC   C4A18414  43.514  16.255   7.833
 1124POPC   C1B18415  43.445  17.093   8.715
 1124POPC   C2B18416  43.441  17.273   8.258
 1124POPC   C3B18417  43.317  17.129   7.787
 1124POPC   C4B18418  43.317  17.064   7.280
 1125POPC   NC318419  29.874  22.507   9.584
 1125POPC   PO418420  29.417  22.009   9.435
 1125POPC   GL118421  29.748  22.193   9.162
 1125POPC   GL218422  29.772  22.538   9.099
 1125POPC   C1A18423  30.034  22.192   8.822
 1125POPC   D2A18424  30.026  22.356   8.395
 1125POPC   C3A18425  29.803  22.095   8.117
 1125POPC   C4A18426  29.886  21.783   7.816
 1125POPC   C1B18427  29.593  22.438   8.707
 1125POPC   C2B18428  29.442  22.438   8.291
 1125POPC   C3B18429  29.655  22.568   7.896
 1125POPC   C4B18430  30.103  22.495   7.866
 1126POPC   NC318431   8.168  15.901   9.668
 1126POPC   PO418432   8.334  16.415   9.253
 1126POPC   GL118433   8.371  15.979   9.099
 1126POPC   GL218434   8.045  15.849   9.143
 1126POPC   C1A18435   8.351  15.893   8.637
 1126POPC   D2A18436   8.313  16.240   8.294
 1126POPC   C3A18437   8.212  16.077   7.892
 1126POPC   C4A18438   8.241  15.626   7.909
 1126POPC   C1B18439   7.840  15.844   8.750
 1126POPC   C2B18440   7.965  15.838   8.292
 1126POPC   C3B18441   7.764  15.783   7.897
 1126POPC   C4B18442   7.812  16.045   7.536
 1127POPC   NC318443  20.345  35.228   9.204
 1127POPC   PO418444  20.709  35.515   9.648
 1127POPC   GL118445  20.840  35.219   9.159
 1127POPC   GL218446  20.762  34.909   9.164
 1127POPC   C1A18447  20.740  35.266   8.632
 1127POPC   D2A18448  20.703  35.389   8.153
 1127POPC   C3A18449  20.332  35.494   7.823
 1127POPC   C4A18450  20.236  35.599   7.341
 1127POPC   C1B18451  20.562  34.813   8.764
 1127POPC   C2B18452  20.330  34.974   8.432
 1127POPC   C3B18453  20.329  35.000   7.994
 1127POPC   C4B18454  20.687  35.140   7.713
 1128POPC   NC318455  28.843  13.356   9.504
 1128POPC   PO418456  28.203  13.584   9.633
 1128POPC   GL118457  28.259  13.661   9.200
 1128POPC   GL218458  28.620  13.645   9.129
 1128POPC   C1A18459  28.261  13.883   8.809
 1128POPC   D2A18460  28.272  13.750   8.368
 1128POPC   C3A18461  28.104  14.023   8.039
 1128POPC   C4A18462  28.341  13.914   7.689
 1128POPC   C1B18463  28.572  13.472   8.712
 1128POPC   C2B18464  28.524  13.225   8.299
 1128POPC   C3B18465  28.648  13.326   7.839
 1128POPC   C4B18466  28.439  13.333   7.399
 1129POPC   NC318467   7.733  17.057   9.357
 1129POPC   PO418468   7.357  16.531   9.432
 1129POPC   GL118469   7.229  16.736   9.044
 1129POPC   GL218470   7.528  16.872   8.929
 1129POPC   C1A18471   7.171  16.735   8.603
 1129POPC   D2A18472   7.515  16.684   8.323
 1129POPC   C3A18473   7.437  16.792   7.896
 1129POPC   C4A18474   7.228  16.884   7.496
 1129POPC   C1B18475   7.809  17.013   8.599
 1129POPC   C2B18476   7.708  17.146   8.182
 1129POPC   C3B18477   7.905  17.046   7.772
 1129POPC   C4B18478   8.086  17.297   7.467
 1130POPC   NC318479  28.476  36.545   9.479
 1130POPC   PO418480  28.604  37.253   9.522
 1130POPC   GL118481  28.390  37.015   9.181
 1130POPC   GL218482  28.129  36.746   9.176
 1130POPC   C1A18483  28.510  36.784   8.813
 1130POPC   D2A18484  28.405  36.588   8.428
 1130POPC   C3A18485  28.668  36.719   8.091
 1130POPC   C4A18486  28.577  36.909   7.706
 1130POPC   C1B18487  27.985  36.839   8.775
 1130POPC   C2B18488  27.893  36.781   8.350
 1130POPC   C3B18489  28.172  36.831   8.014
 1130POPC   C4B18490  28.078  36.874   7.584
 1131POPC   NC318491   5.751  11.753   9.850
 1131POPC   PO418492   5.461  11.201   9.514
 1131POPC   GL118493   5.527  11.250   9.069
 1131POPC   GL218494   5.868  11.203   9.008
 1131POPC   C1A18495   5.569  11.273   8.599
 1131POPC   D2A18496   5.969  11.201   8.422
 1131POPC   C3A18497   5.934  11.220   8.017
 1131POPC   C4A18498   6.122  11.258   7.661
 1131POPC   C1B18499   5.904  11.597   8.769
 1131POPC   C2B18500   6.012  11.728   8.393
 1131POPC   C3B18501   6.129  11.690   7.985
 1131POPC   C4B18502   5.766  11.620   7.712
 1132POPC   NC318503  29.378  39.408   9.565
 1132POPC   PO418504  28.842  38.990   9.675
 1132POPC   GL118505  29.022  39.059   9.264
 1132POPC   GL218506  29.036  39.377   9.190
 1132POPC   C1A18507  29.030  39.010   8.810
 1132POPC   D2A18508  28.839  39.246   8.485
 1132POPC   C3A18509  29.060  39.119   8.109
 1132POPC   C4A18510  29.091  39.221   7.691
 1132POPC   C1B18511  29.159  39.506   8.806
 1132POPC   C2B18512  29.275  39.511   8.396
 1132POPC   C3B18513  29.123  39.621   8.014
 1132POPC   C4B18514  29.346  39.674   7.653
 1133POPC   NC318515  13.722   9.610   9.588
 1133POPC   PO418516  13.164  10.075   9.607
 1133POPC   GL118517  13.360   9.784   9.230
 1133POPC   GL218518  13.669   9.579   9.097
 1133POPC   C1A18519  13.296   9.660   8.783
 1133POPC   D2A18520  13.474   9.564   8.388
 1133POPC   C3A18521  13.574   9.900   8.107
 1133POPC   C4A18522  13.555  10.096   7.724
 1133POPC   C1B18523  13.855   9.456   8.707
 1133POPC   C2B18524  13.995   9.630   8.246
 1133POPC   C3B18525  13.905   9.674   7.769
 1133POPC   C4B18526  13.998   9.453   7.323
 1134POPC   NC318527  21.749  28.645   9.574
 1134POPC   PO418528  22.251  28.199   9.468
 1134POPC   GL118529  21.943  28.278   9.149
 1134POPC   GL218530  22.072  28.627   9.188
 1134POPC   C1A18531  21.860  28.065   8.725
 1134POPC   D2A18532  22.110  28.173   8.370
 1134POPC   C3A18533  22.137  28.219   7.938
 1134POPC   C4A18534  22.461  28.482   7.775
 1134POPC   C1B18535  21.850  28.810   8.877
 1134POPC   C2B18536  21.909  28.650   8.478
 1134POPC   C3B18537  22.158  28.711   8.123
 1134POPC   C4B18538  22.004  28.681   7.709
 1135POPC   NC318539  44.288  30.861   9.446
 1135POPC   PO418540  44.899  30.578   9.410
 1135POPC   GL118541  44.751  30.771   9.083
 1135POPC   GL218542  44.406  30.710   8.962
 1135POPC   C1A18543  44.863  30.656   8.675
 1135POPC   D2A18544  44.642  30.683   8.322
 1135POPC   C3A18545  44.900  30.690   7.977
 1135POPC   C4A18546  44.737  30.800   7.597
 1135POPC   C1B18547  44.343  30.364   8.653
 1135POPC   C2B18548  44.353  30.198   8.221
 1135POPC   C3B18549  44.499  30.405   7.816
 1135POPC   C4B18550  44.526  30.439   7.306
 1136POPC   NC318551  38.606  23.048   9.425
 1136POPC   PO418552  38.015  23.195   9.732
 1136POPC   GL118553  38.147  23.266   9.223
 1136POPC   GL218554  38.412  23.014   8.970
 1136POPC   C1A18555  38.111  23.316   8.759
 1136POPC   D2A18556  38.251  23.058   8.377
 1136POPC   C3A18557  38.186  23.154   7.931
 1136POPC   C4A18558  38.330  23.201   7.478
 1136POPC   C1B18559  38.606  22.795   8.627
 1136POPC   C2B18560  38.743  23.005   8.246
 1136POPC   C3B18561  38.638  22.910   7.831
 1136POPC   C4B18562  38.709  22.880   7.375
 1137POPC   NC318563  20.109  30.887   9.462
 1137POPC   PO418564  19.476  30.706   9.325
 1137POPC   GL118565  19.763  30.728   9.043
 1137POPC   GL218566  20.006  30.522   9.117
 1137POPC   C1A18567  19.665  30.596   8.639
 1137POPC   D2A18568  19.420  30.564   8.294
 1137POPC   C3A18569  19.629  30.825   8.035
 1137POPC   C4A18570  19.947  30.705   7.794
 1137POPC   C1B18571  20.161  30.537   8.718
 1137POPC   C2B18572  20.073  30.661   8.328
 1137POPC   C3B18573  20.317  30.476   8.075
 1137POPC   C4B18574  20.235  30.281   7.709
 1138POPC   NC318575  11.392  26.306   9.513
 1138POPC   PO418576  11.107  25.584   9.542
 1138POPC   GL118577  11.240  25.884   9.224
 1138POPC   GL218578  11.112  26.202   9.121
 1138POPC   C1A18579  11.346  25.836   8.790
 1138POPC   D2A18580  11.278  26.017   8.391
 1138POPC   C3A18581  11.390  25.937   8.013
 1138POPC   C4A18582  11.282  26.087   7.662
 1138POPC   C1B18583  11.364  26.344   8.780
 1138POPC   C2B18584  11.686  26.279   8.477
 1138POPC   C3B18585  11.695  26.355   8.045
 1138POPC   C4B18586  11.441  26.575   7.749
 1139POPC   NC318587  14.844  17.058   9.723
 1139POPC   PO418588  15.428  16.760   9.640
 1139POPC   GL118589  15.257  16.584   9.257
 1139POPC   GL218590  15.193  16.835   9.029
 1139POPC   C1A18591  15.311  16.347   8.887
 1139POPC   D2A18592  15.179  16.566   8.554
 1139POPC   C3A18593  15.063  16.480   8.180
 1139POPC   C4A18594  15.285  16.366   7.827
 1139POPC   C1B18595  14.921  16.979   8.677
 1139POPC   C2B18596  15.038  17.011   8.248
 1139POPC   C3B18597  15.134  16.851   7.836
 1139POPC   C4B18598  14.934  16.872   7.416
 1140POPC   NC318599  29.212   0.566   9.880
 1140POPC   PO418600  28.978  44.986   9.649
 1140POPC   GL118601  29.231   0.157   9.288
 1140POPC   GL218602  29.045   0.451   9.332
 1140POPC   C1A18603  29.343   0.392   8.871
 1140POPC   D2A18604  29.425   0.527   8.409
 1140POPC   C3A18605  29.381   0.284   8.011
 1140POPC   C4A18606  29.380   0.328   7.524
 1140POPC   C1B18607  28.830   0.379   8.926
 1140POPC   C2B18608  28.684   0.490   8.514
 1140POPC   C3B18609  28.936   0.519   8.131
 1140POPC   C4B18610  28.942   0.250   7.768
 1141POPC   NC318611  20.656   1.066   9.615
 1141POPC   PO418612  20.302   1.629   9.460
 1141POPC   GL118613  20.575   1.398   9.120
 1141POPC   GL218614  20.536   1.021   9.134
 1141POPC   C1A18615  20.756   1.295   8.753
 1141POPC   D2A18616  20.960   1.433   8.392
 1141POPC   C3A18617  20.702   1.340   8.046
 1141POPC   C4A18618  20.618   1.499   7.652
 1141POPC   C1B18619  20.536   0.786   8.780
 1141POPC   C2B18620  20.364   0.839   8.392
 1141POPC   C3B18621  20.544   0.836   8.030
 1141POPC   C4B18622  20.611   0.984   7.664
 1142POPC   NC318623  16.769  14.214   9.604
 1142POPC   PO418624  16.789  14.865   9.639
 1142POPC   GL118625  16.869  14.593   9.269
 1142POPC   GL218626  16.598  14.357   9.146
 1142POPC   C1A18627  16.973  14.448   8.837
 1142POPC   D2A18628  16.666  14.415   8.479
 1142POPC   C3A18629  16.783  14.345   8.042
 1142POPC   C4A18630  16.957  14.356   7.612
 1142POPC   C1B18631  16.547  14.740   8.883
 1142POPC   C2B18632  16.443  14.882   8.442
 1142POPC   C3B18633  16.378  14.683   8.047
 1142POPC   C4B18634  16.433  14.414   7.670
 1143POPC   NC318635  39.029   2.112   9.546
 1143POPC   PO418636  39.469   1.680   9.583
 1143POPC   GL118637  39.429   1.932   9.187
 1143POPC   GL218638  39.124   2.145   9.056
 1143POPC   C1A18639  39.358   1.813   8.759
 1143POPC   D2A18640  39.304   1.938   8.342
 1143POPC   C3A18641  39.508   1.851   7.927
 1143POPC   C4A18642  39.459   2.004   7.466
 1143POPC   C1B18643  38.880   1.974   8.702
 1143POPC   C2B18644  38.799   1.869   8.274
 1143POPC   C3B18645  39.019   2.009   7.942
 1143POPC   C4B18646  38.995   2.145   7.571
 1144POPC   NC318647   4.674  10.832   9.499
 1144POPC   PO418648   4.021  10.625   9.458
 1144POPC   GL118649   4.253  10.564   9.141
 1144POPC   GL218650   4.126  10.846   8.975
 1144POPC   C1A18651   4.228  10.394   8.736
 1144POPC   D2A18652   4.373  10.538   8.351
 1144POPC   C3A18653   4.456  10.276   8.002
 1144POPC   C4A18654   4.319  10.410   7.616
 1144POPC   C1B18655   4.558  10.820   8.782
 1144POPC   C2B18656   4.797  10.817   8.396
 1144POPC   C3B18657   4.604  10.772   7.949
 1144POPC   C4B18658   4.615  10.811   7.468
 1145POPC   NC318659  12.759  17.657   9.435
 1145POPC   PO418660  13.209  17.217   9.369
 1145POPC   GL118661  12.977  17.437   9.031
 1145POPC   GL218662  12.598  17.430   9.003
 1145POPC   C1A18663  12.927  17.505   8.603
 1145POPC   D2A18664  13.032  17.622   8.214
 1145POPC   C3A18665  12.885  17.415   7.868
 1145POPC   C4A18666  13.173  17.660   7.690
 1145POPC   C1B18667  12.433  17.645   8.638
 1145POPC   C2B18668  12.514  17.542   8.215
 1145POPC   C3B18669  12.534  17.789   7.859
 1145POPC   C4B18670  12.728  17.715   7.477
 1146POPC   NC318671  44.801   4.005   9.714
 1146POPC   PO418672  44.270   4.364   9.495
 1146POPC   GL118673  44.546   4.296   9.151
 1146POPC   GL218674  44.799   4.015   9.197
 1146POPC   C1A18675  44.436   4.215   8.696
 1146POPC   D2A18676  44.517   4.115   8.217
 1146POPC   C3A18677  44.370   4.417   7.873
 1146POPC   C4A18678  44.332   4.289   7.395
 1146POPC   C1B18679  44.932   4.245   8.830
 1146POPC   C2B18680   0.022   4.136   8.415
 1146POPC   C3B18681  44.972   4.310   8.039
 1146POPC   C4B18682  44.775   4.200   7.699
 1147POPC   NC318683   4.012  19.900   9.464
 1147POPC   PO418684   3.420  19.484   9.453
 1147POPC   GL118685   3.642  19.724   9.113
 1147POPC   GL218686   3.415  19.962   8.962
 1147POPC   C1A18687   3.823  19.851   8.694
 1147POPC   D2A18688   3.706  20.181   8.414
 1147POPC   C3A18689   3.636  20.033   8.004
 1147POPC   C4A18690   3.823  19.769   7.724
 1147POPC   C1B18691   3.259  19.660   8.724
 1147POPC   C2B18692   3.374  19.756   8.339
 1147POPC   C3B18693   3.504  19.534   8.009
 1147POPC   C4B18694   3.357  19.506   7.643
 1148POPC   NC318695  42.826  30.903   9.377
 1148POPC   PO418696  43.251  31.367   9.625
 1148POPC   GL118697  43.413  31.440   9.188
 1148POPC   GL218698  43.249  31.128   9.142
 1148POPC   C1A18699  43.439  31.673   8.758
 1148POPC   D2A18700  43.074  31.725   8.434
 1148POPC   C3A18701  42.858  31.765   8.013
 1148POPC   C4A18702  42.913  31.631   7.572
 1148POPC   C1B18703  43.126  31.274   8.742
 1148POPC   C2B18704  43.234  31.251   8.296
 1148POPC   C3B18705  43.047  31.264   7.901
 1148POPC   C4B18706  42.865  31.102   7.502
 1149POPC   NC318707  35.007  30.572   9.838
 1149POPC   PO418708  35.607  30.546   9.609
 1149POPC   GL118709  35.463  30.756   9.187
 1149POPC   GL218710  35.734  30.795   8.923
 1149POPC   C1A18711  35.288  30.614   8.752
 1149POPC   D2A18712  35.361  30.711   8.321
 1149POPC   C3A18713  35.088  30.542   7.979
 1149POPC   C4A18714  35.285  30.845   7.737
 1149POPC   C1B18715  35.782  30.499   8.543
 1149POPC   C2B18716  35.860  30.241   8.215
 1149POPC   C3B18717  35.575  30.422   7.954
 1149POPC   C4B18718  35.422  30.387   7.543
 1150POPC   NC318719  11.581   5.229   9.315
 1150POPC   PO418720  12.081   5.215   9.749
 1150POPC   GL118721  12.146   5.210   9.273
 1150POPC   GL218722  12.155   5.543   9.149
 1150POPC   C1A18723  12.176   5.042   8.805
 1150POPC   D2A18724  12.380   4.911   8.356
 1150POPC   C3A18725  12.237   5.028   7.913
 1150POPC   C4A18726  11.956   5.032   7.532
 1150POPC   C1B18727  11.847   5.423   8.758
 1150POPC   C2B18728  11.893   5.235   8.323
 1150POPC   C3B18729  11.884   5.397   7.889
 1150POPC   C4B18730  12.019   5.584   7.480
 1151POPC   NC318731  33.171  10.826   9.886
 1151POPC   PO418732  32.673  10.377   9.703
 1151POPC   GL118733  32.810  10.530   9.308
 1151POPC   GL218734  33.173  10.522   9.285
 1151POPC   C1A18735  32.766  10.525   8.837
 1151POPC   D2A18736  32.915  10.464   8.383
 1151POPC   C3A18737  32.954  10.711   7.986
 1151POPC   C4A18738  32.899  10.585   7.538
 1151POPC   C1B18739  33.275  10.468   8.806
 1151POPC   C2B18740  33.409  10.620   8.379
 1151POPC   C3B18741  33.356  10.420   7.973
 1151POPC   C4B18742  33.381  10.664   7.615
 1152POPC   NC318743  21.630  29.497   9.429
 1152POPC   PO418744  21.210  28.965   9.537
 1152POPC   GL118745  21.164  29.164   9.154
 1152POPC   GL218746  21.109  29.532   9.205
 1152POPC   C1A18747  21.358  28.989   8.773
 1152POPC   D2A18748  21.659  29.118   8.459
 1152POPC   C3A18749  21.693  28.913   8.087
 1152POPC   C4A18750  21.503  28.793   7.712
 1152POPC   C1B18751  21.385  29.514   8.837
 1152POPC   C2B18752  21.440  29.577   8.423
 1152POPC   C3B18753  21.457  29.365   8.011
 1152POPC   C4B18754  21.121  29.237   7.722
 1153POPC   NC318755  15.817  28.396   9.465
 1153POPC   PO418756  16.567  28.543   9.455
 1153POPC   GL118757  16.221  28.433   9.122
 1153POPC   GL218758  15.897  28.620   9.012
 1153POPC   C1A18759  16.016  28.212   8.742
 1153POPC   D2A18760  16.170  28.082   8.337
 1153POPC   C3A18761  15.971  28.095   7.913
 1153POPC   C4A18762  16.221  28.219   7.560
 1153POPC   C1B18763  15.571  28.449   8.699
 1153POPC   C2B18764  15.649  28.311   8.284
 1153POPC   C3B18765  15.783  28.563   7.949
 1153POPC   C4B18766  15.471  28.822   7.729
 1154POPC   NC318767  26.258   5.937  10.139
 1154POPC   PO418768  25.954   5.687   9.622
 1154POPC   GL118769  25.925   5.633   9.175
 1154POPC   GL218770  26.130   5.402   9.052
 1154POPC   C1A18771  26.072   5.816   8.753
 1154POPC   D2A18772  25.904   5.934   8.345
 1154POPC   C3A18773  26.059   6.034   7.922
 1154POPC   C4A18774  26.049   5.885   7.483
 1154POPC   C1B18775  25.980   5.323   8.627
 1154POPC   C2B18776  25.854   5.424   8.211
 1154POPC   C3B18777  26.097   5.539   7.849
 1154POPC   C4B18778  26.480   5.746   7.766
 1155POPC   NC318779  11.742   6.815   9.540
 1155POPC   PO418780  11.119   6.458   9.618
 1155POPC   GL118781  11.374   6.485   9.268
 1155POPC   GL218782  11.387   6.816   9.153
 1155POPC   C1A18783  11.383   6.419   8.830
 1155POPC   D2A18784  11.258   6.615   8.443
 1155POPC   C3A18785  11.260   6.341   8.103
 1155POPC   C4A18786  11.430   6.290   7.707
 1155POPC   C1B18787  11.423   7.006   8.748
 1155POPC   C2B18788  11.244   7.169   8.385
 1155POPC   C3B18789  11.189   6.915   7.994
 1155POPC   C4B18790  11.538   6.903   7.667
 1156POPC   NC318791  22.553  14.850   9.481
 1156POPC   PO418792  22.939  15.352   9.687
 1156POPC   GL118793  23.012  15.226   9.229
 1156POPC   GL218794  23.343  15.094   9.137
 1156POPC   C1A18795  22.982  15.162   8.780
 1156POPC   D2A18796  22.634  15.019   8.518
 1156POPC   C3A18797  22.691  14.907   8.076
 1156POPC   C4A18798  22.844  14.927   7.665
 1156POPC   C1B18799  23.399  14.833   8.763
 1156POPC   C2B18800  23.130  14.859   8.379
 1156POPC   C3B18801  23.220  15.069   7.996
 1156POPC   C4B18802  23.354  14.934   7.613
 1157POPC   NC318803  28.865  12.519   9.487
 1157POPC   PO418804  29.228  13.078   9.582
 1157POPC   GL118805  29.084  12.940   9.180
 1157POPC   GL218806  28.895  13.195   9.036
 1157POPC   C1A18807  29.124  12.680   8.795
 1157POPC   D2A18808  29.358  12.673   8.389
 1157POPC   C3A18809  29.162  12.742   7.981
 1157POPC   C4A18810  28.989  12.991   7.628
 1157POPC   C1B18811  29.187  13.202   8.745
 1157POPC   C2B18812  29.092  13.108   8.355
 1157POPC   C3B18813  29.206  13.267   7.997
 1157POPC   C4B18814  29.236  13.455   7.613
 1158POPC   NC318815  33.951  31.684   9.677
 1158POPC   PO418816  33.341  31.491   9.505
 1158POPC   GL118817  33.671  31.568   9.212
 1158POPC   GL218818  33.987  31.395   9.243
 1158POPC   C1A18819  33.794  31.472   8.778
 1158POPC   D2A18820  33.710  31.582   8.375
 1158POPC   C3A18821  33.950  31.519   8.022
 1158POPC   C4A18822  33.665  31.596   7.719
 1158POPC   C1B18823  34.134  31.125   8.895
 1158POPC   C2B18824  34.128  31.204   8.437
 1158POPC   C3B18825  34.083  31.034   8.005
 1158POPC   C4B18826  33.851  31.144   7.582
 1159POPC   NC318827   7.669  37.256   9.507
 1159POPC   PO418828   7.242  37.782   9.612
 1159POPC   GL118829   7.449  37.828   9.185
 1159POPC   GL218830   7.720  38.121   9.162
 1159POPC   C1A18831   7.314  37.676   8.773
 1159POPC   D2A18832   7.280  37.479   8.377
 1159POPC   C3A18833   7.445  37.586   8.010
 1159POPC   C4A18834   7.345  37.652   7.605
 1159POPC   C1B18835   7.813  37.914   8.799
 1159POPC   C2B18836   7.707  37.769   8.401
 1159POPC   C3B18837   7.807  37.932   7.982
 1159POPC   C4B18838   7.612  38.088   7.636
 1160POPC   NC318839   3.161  34.369   9.259
 1160POPC   PO418840   3.822  34.246   9.598
 1160POPC   GL118841   3.791  34.423   9.105
 1160POPC   GL218842   3.501  34.599   8.981
 1160POPC   C1A18843   3.876  34.866   8.815
 1160POPC   D2A18844   3.885  34.890   8.364
 1160POPC   C3A18845   3.481  34.827   8.162
 1160POPC   C4A18846   3.378  34.784   7.755
 1160POPC   C1B18847   3.583  34.528   8.567
 1160POPC   C2B18848   3.653  34.222   8.271
 1160POPC   C3B18849   3.363  34.325   7.966
 1160POPC   C4B18850   3.059  34.185   7.651
 1161POPC   NC318851  34.476  41.785   9.603
 1161POPC   PO418852  34.805  41.305   9.690
 1161POPC   GL118853  34.702  41.487   9.250
 1161POPC   GL218854  34.360  41.417   9.204
 1161POPC   C1A18855  34.762  41.533   8.798
 1161POPC   D2A18856  34.886  41.200   8.540
 1161POPC   C3A18857  34.897  41.153   8.068
 1161POPC   C4A18858  34.624  41.180   7.729
 1161POPC   C1B18859  34.259  41.583   8.798
 1161POPC   C2B18860  34.281  41.401   8.464
 1161POPC   C3B18861  34.488  41.477   8.123
 1161POPC   C4B18862  34.347  41.622   7.733
 1162POPC   NC318863  30.305  16.573   9.417
 1162POPC   PO418864  29.683  16.474   9.564
 1162POPC   GL118865  29.822  16.719   9.187
 1162POPC   GL218866  30.075  17.012   9.235
 1162POPC   C1A18867  29.932  16.588   8.742
 1162POPC   D2A18868  30.053  16.684   8.304
 1162POPC   C3A18869  29.811  16.625   7.970
 1162POPC   C4A18870  30.036  16.368   7.694
 1162POPC   C1B18871  29.895  17.094   8.821
 1162POPC   C2B18872  30.128  17.159   8.428
 1162POPC   C3B18873  29.975  17.147   8.013
 1162POPC   C4B18874  29.810  16.981   7.614
 1163POPC   NC318875  31.086  13.385   9.495
 1163POPC   PO418876  31.465  12.775   9.353
 1163POPC   GL118877  31.214  12.801   9.062
 1163POPC   GL218878  31.173  13.131   9.059
 1163POPC   C1A18879  31.330  12.817   8.650
 1163POPC   D2A18880  31.602  12.680   8.327
 1163POPC   C3A18881  31.551  12.851   7.928
 1163POPC   C4A18882  31.851  12.882   7.618
 1163POPC   C1B18883  30.958  13.255   8.708
 1163POPC   C2B18884  31.051  13.403   8.300
 1163POPC   C3B18885  30.991  13.262   7.870
 1163POPC   C4B18886  31.314  13.164   7.559
 1164POPC   NC318887  21.920  13.492  10.048
 1164POPC   PO418888  21.734  14.037   9.631
 1164POPC   GL118889  21.948  13.719   9.334
 1164POPC   GL218890  22.336  13.737   9.236
 1164POPC   C1A18891  22.007  13.447   8.942
 1164POPC   D2A18892  22.226  13.390   8.532
 1164POPC   C3A18893  22.130  13.669   8.206
 1164POPC   C4A18894  22.179  13.681   7.775
 1164POPC   C1B18895  22.413  13.844   8.763
 1164POPC   C2B18896  22.405  14.079   8.349
 1164POPC   C3B18897  22.578  13.948   7.945
 1164POPC   C4B18898  22.546  14.016   7.485
 1165POPC   NC318899  43.569  33.398   9.440
 1165POPC   PO418900  44.300  33.471   9.597
 1165POPC   GL118901  44.054  33.333   9.222
 1165POPC   GL218902  44.010  32.968   9.197
 1165POPC   C1A18903  44.157  33.190   8.782
 1165POPC   D2A18904  44.034  32.920   8.462
 1165POPC   C3A18905  44.111  33.132   8.080
 1165POPC   C4A18906  44.068  33.098   7.668
 1165POPC   C1B18907  43.668  33.049   8.835
 1165POPC   C2B18908  43.506  32.921   8.429
 1165POPC   C3B18909  43.660  32.831   8.012
 1165POPC   C4B18910  43.572  33.175   7.771
 1166POPC   NC318911  23.680  18.741   9.417
 1166POPC   PO418912  23.529  19.377   9.550
 1166POPC   GL118913  23.501  19.153   9.160
 1166POPC   GL218914  23.857  19.070   9.066
 1166POPC   C1A18915  23.472  18.992   8.730
 1166POPC   D2A18916  23.476  18.785   8.330
 1166POPC   C3A18917  23.413  19.023   7.946
 1166POPC   C4A18918  23.691  19.087   7.602
 1166POPC   C1B18919  23.995  18.879   8.651
 1166POPC   C2B18920  24.185  18.820   8.232
 1166POPC   C3B18921  24.172  18.975   7.797
 1166POPC   C4B18922  24.389  19.022   7.391
 1167POPC   NC318923   4.133  18.161   9.410
 1167POPC   PO418924   4.834  17.894   9.483
 1167POPC   GL118925   4.664  18.250   9.227
 1167POPC   GL218926   4.484  17.986   9.068
 1167POPC   C1A18927   4.468  18.406   8.792
 1167POPC   D2A18928   4.374  18.228   8.358
 1167POPC   C3A18929   4.391  18.483   7.969
 1167POPC   C4A18930   4.520  18.579   7.483
 1167POPC   C1B18931   4.212  17.852   8.725
 1167POPC   C2B18932   4.277  17.716   8.303
 1167POPC   C3B18933   4.234  17.896   7.900
 1167POPC   C4B18934   3.887  17.861   7.618
 1168POPC   NC318935  39.921  12.440   9.538
 1168POPC   PO418936  40.250  13.104   9.478
 1168POPC   GL118937  40.091  13.029   9.118
 1168POPC   GL218938  40.047  12.677   9.113
 1168POPC   C1A18939  40.272  12.952   8.744
 1168POPC   D2A18940  40.299  12.718   8.384
 1168POPC   C3A18941  40.213  12.904   7.995
 1168POPC   C4A18942  40.065  12.582   7.722
 1168POPC   C1B18943  39.842  12.703   8.709
 1168POPC   C2B18944  39.821  12.936   8.339
 1168POPC   C3B18945  39.686  12.795   7.952
 1168POPC   C4B18946  39.504  12.376   7.859
 1169POPC   NC318947  10.730   4.880   9.467
 1169POPC   PO418948  10.413   5.570   9.431
 1169POPC   GL118949  10.540   5.347   9.128
 1169POPC   GL218950  10.224   5.242   9.056
 1169POPC   C1A18951  10.549   5.238   8.686
 1169POPC   D2A18952  10.517   5.000   8.333
 1169POPC   C3A18953  10.756   5.185   8.022
 1169POPC   C4A18954  10.684   5.566   7.765
 1169POPC   C1B18955  10.113   4.934   8.754
 1169POPC   C2B18956  10.061   4.768   8.378
 1169POPC   C3B18957  10.129   4.889   7.996
 1169POPC   C4B18958  10.338   5.161   7.723
 1170POPC   NC318959  36.112  23.478   9.387
 1170POPC   PO418960  36.489  22.901   9.527
 1170POPC   GL118961  36.269  22.796   9.136
 1170POPC   GL218962  35.993  23.011   9.147
 1170POPC   C1A18963  36.099  22.661   8.753
 1170POPC   D2A18964  36.338  22.773   8.417
 1170POPC   C3A18965  36.041  22.705   8.087
 1170POPC   C4A18966  36.146  22.663   7.679
 1170POPC   C1B18967  36.209  23.171   8.754
 1170POPC   C2B18968  36.038  23.160   8.322
 1170POPC   C3B18969  35.776  23.143   7.962
 1170POPC   C4B18970  35.994  23.130   7.605
 1171POPC   NC318971  41.386  27.832   9.841
 1171POPC   PO418972  41.714  27.275   9.606
 1171POPC   GL118973  41.615  27.259   9.166
 1171POPC   GL218974  41.962  27.199   9.129
 1171POPC   C1A18975  41.353  27.419   8.832
 1171POPC   D2A18976  41.408  27.673   8.466
 1171POPC   C3A18977  41.440  27.507   8.046
 1171POPC   C4A18978  41.266  27.573   7.640
 1171POPC   C1B18979  41.865  27.563   8.810
 1171POPC   C2B18980  41.965  27.870   8.477
 1171POPC   C3B18981  42.020  27.741   8.052
 1171POPC   C4B18982  41.754  27.743   7.699
 1172POPC   NC318983   3.181  16.111   9.452
 1172POPC   PO418984   3.065  15.427   9.409
 1172POPC   GL118985   2.731  15.708   9.198
 1172POPC   GL218986   2.760  16.076   9.116
 1172POPC   C1A18987   2.714  15.726   8.758
 1172POPC   D2A18988   2.931  15.806   8.396
 1172POPC   C3A18989   2.676  15.605   8.132
 1172POPC   C4A18990   2.925  15.527   7.830
 1172POPC   C1B18991   2.807  16.326   8.724
 1172POPC   C2B18992   2.986  16.315   8.279
 1172POPC   C3B18993   2.818  16.045   7.916
 1172POPC   C4B18994   2.560  16.147   7.508
 1173POPC   NC318995  39.766  44.947   9.377
 1173POPC   PO418996  39.784  44.320   9.482
 1173POPC   GL118997  39.832  44.550   9.079
 1173POPC   GL218998  40.172  44.658   9.113
 1173POPC   C1A18999  39.886  44.847   8.723
 1173POPC   D2A19000  40.069  44.808   8.325
 1173POPC   C3A19001  39.890  44.759   7.925
 1173POPC   C4A19002  40.112   0.026   7.636
 1173POPC   C1B19003  40.195  44.425   8.681
 1173POPC   C2B19004  40.455  44.466   8.285
 1173POPC   C3B19005  40.354  44.503   7.809
 1173POPC   C4B19006  40.184  44.294   7.394
 1174POPC   NC319007  31.789  43.784   9.590
 1174POPC   PO419008  31.285  43.995   9.226
 1174POPC   GL119009  31.682  43.807   9.075
 1174POPC   GL219010  31.712  43.445   9.156
 1174POPC   C1A19011  31.704  43.730   8.616
 1174POPC   D2A19012  31.351  43.933   8.396
 1174POPC   C3A19013  31.551  44.136   8.087
 1174POPC   C4A19014  31.442  44.323   7.737
 1174POPC   C1B19015  31.348  43.457   8.855
 1174POPC   C2B19016  31.292  43.413   8.411
 1174POPC   C3B19017  31.544  43.572   8.082
 1174POPC   C4B19018  31.420  43.804   7.732
 1175POPC   NC319019  35.058  21.324   9.654
 1175POPC   PO419020  34.436  21.567   9.594
 1175POPC   GL119021  34.343  21.417   9.191
 1175POPC   GL219022  34.647  21.264   9.107
 1175POPC   C1A19023  34.195  21.307   8.779
 1175POPC   D2A19024  34.027  21.423   8.386
 1175POPC   C3A19025  34.354  21.336   8.108
 1175POPC   C4A19026  34.475  21.386   7.709
 1175POPC   C1B19027  34.639  20.971   8.752
 1175POPC   C2B19028  34.591  20.895   8.318
 1175POPC   C3B19029  34.764  20.991   7.888
 1175POPC   C4B19030  34.871  21.204   7.479
 1176POPC   NC319031  44.539  38.793   9.851
 1176POPC   PO419032  44.320  38.129   9.642
 1176POPC   GL119033  44.422  38.124   9.210
 1176POPC   GL219034  44.733  38.357   9.176
 1176POPC   C1A19035  44.363  38.341   8.808
 1176POPC   D2A19036  44.673  38.221   8.531
 1176POPC   C3A19037  44.657  38.353   8.134
 1176POPC   C4A19038  44.493  38.180   7.751
 1176POPC   C1B19039  44.824  38.666   8.831
 1176POPC   C2B19040  44.904  38.858   8.428
 1176POPC   C3B19041  44.675  38.907   8.034
 1176POPC   C4B19042  44.753  38.624   7.704
 1177POPC   NC319043  41.887   0.352   9.568
 1177POPC   PO419044  41.190   0.136   9.476
 1177POPC   GL119045  41.292   0.303   9.067
 1177POPC   GL219046  41.626   0.437   9.102
 1177POPC   C1A19047  41.314   0.503   8.676
 1177POPC   D2A19048  41.326   0.672   8.252
 1177POPC   C3A19049  41.452   0.400   7.929
 1177POPC   C4A19050  41.734   0.218   7.662
 1177POPC   C1B19051  41.824   0.636   8.719
 1177POPC   C2B19052  41.835   0.754   8.262
 1177POPC   C3B19053  41.809   0.717   7.777
 1177POPC   C4B19054  41.894   0.803   7.305
 1178POPC   NC319055  26.762  40.721   9.424
 1178POPC   PO419056  26.637  40.081   9.330
 1178POPC   GL119057  26.916  40.346   9.119
 1178POPC   GL219058  26.617  40.532   8.980
 1178POPC   C1A19059  27.074  40.543   8.773
 1178POPC   D2A19060  26.901  40.565   8.368
 1178POPC   C3A19061  26.559  40.521   8.123
 1178POPC   C4A19062  26.646  40.409   7.717
 1178POPC   C1B19063  26.710  40.917   8.741
 1178POPC   C2B19064  27.022  41.048   8.419
 1178POPC   C3B19065  26.874  40.947   8.001
 1178POPC   C4B19066  26.451  40.993   7.854
 1179POPC   NC319067  38.948  36.124   9.538
 1179POPC   PO419068  38.296  36.050   9.418
 1179POPC   GL119069  38.588  36.209   9.096
 1179POPC   GL219070  38.958  36.081   9.041
 1179POPC   C1A19071  38.644  36.213   8.649
 1179POPC   D2A19072  38.803  36.229   8.218
 1179POPC   C3A19073  38.543  36.276   7.870
 1179POPC   C4A19074  38.251  36.426   7.534
 1179POPC   C1B19075  38.722  35.743   8.911
 1179POPC   C2B19076  38.649  35.705   8.505
 1179POPC   C3B19077  38.632  35.768   8.097
 1179POPC   C4B19078  38.470  35.802   7.688
 1180POPC   NC319079  15.640  33.139   9.495
 1180POPC   PO419080  15.052  32.760   9.586
 1180POPC   GL119081  15.224  32.938   9.225
 1180POPC   GL219082  15.453  32.711   9.185
 1180POPC   C1A19083  15.143  33.126   8.805
 1180POPC   D2A19084  14.991  32.986   8.401
 1180POPC   C3A19085  14.933  33.287   8.108
 1180POPC   C4A19086  15.071  33.157   7.748
 1180POPC   C1B19087  15.266  32.627   8.811
 1180POPC   C2B19088  15.413  32.651   8.410
 1180POPC   C3B19089  15.253  32.743   8.023
 1180POPC   C4B19090  15.508  32.877   7.705
 1181POPC   NC319091  44.490  27.591   9.602
 1181POPC   PO419092   0.073  27.300   9.691
 1181POPC   GL119093  44.849  27.424   9.269
 1181POPC   GL219094  44.689  27.740   9.159
 1181POPC   C1A19095  44.610  27.381   8.836
 1181POPC   D2A19096  44.724  27.554   8.411
 1181POPC   C3A19097  44.624  27.350   8.046
 1181POPC   C4A19098  44.571  27.431   7.617
 1181POPC   C1B19099  44.633  27.900   8.754
 1181POPC   C2B19100  44.400  27.940   8.319
 1181POPC   C3B19101  44.625  27.879   7.882
 1181POPC   C4B19102  44.522  27.871   7.392
 1182POPC   NC319103  10.094   7.733   9.352
 1182POPC   PO419104  10.619   7.311   9.639
 1182POPC   GL119105  10.679   7.189   9.233
 1182POPC   GL219106  10.303   7.265   9.187
 1182POPC   C1A19107  10.891   7.076   8.819
 1182POPC   D2A19108  10.818   6.887   8.398
 1182POPC   C3A19109  10.635   7.113   8.029
 1182POPC   C4A19110  10.696   7.376   7.633
 1182POPC   C1B19111  10.545   7.488   8.865
 1182POPC   C2B19112  10.643   7.416   8.435
 1182POPC   C3B19113  10.572   7.667   8.032
 1182POPC   C4B19114  10.254   7.629   7.685
 1183POPC   NC319115   1.621  22.424   9.381
 1183POPC   PO419116   2.312  22.570   9.545
 1183POPC   GL119117   2.088  22.265   9.215
 1183POPC   GL219118   2.232  21.951   9.141
 1183POPC   C1A19119   1.849  22.205   8.800
 1183POPC   D2A19120   1.765  21.993   8.402
 1183POPC   C3A19121   1.987  22.283   8.131
 1183POPC   C4A19122   1.934  22.538   7.750
 1183POPC   C1B19123   2.088  21.754   8.763
 1183POPC   C2B19124   2.243  21.813   8.339
 1183POPC   C3B19125   2.102  21.816   7.925
 1183POPC   C4B19126   1.759  22.054   7.747
 1184POPC   NC319127  30.837  25.441   9.857
 1184POPC   PO419128  30.749  26.122   9.660
 1184POPC   GL119129  30.798  25.987   9.236
 1184POPC   GL219130  30.908  26.305   9.197
 1184POPC   C1A19131  30.691  25.825   8.828
 1184POPC   D2A19132  30.684  26.086   8.459
 1184POPC   C3A19133  30.633  25.892   8.072
 1184POPC   C4A19134  30.576  26.141   7.729
 1184POPC   C1B19135  31.065  26.157   8.810
 1184POPC   C2B19136  31.155  26.303   8.425
 1184POPC   C3B19137  31.008  26.277   8.021
 1184POPC   C4B19138  31.090  25.971   7.702
 1185POPC   NC319139  38.760  30.645   9.416
 1185POPC   PO419140  38.242  30.318   9.617
 1185POPC   GL119141  38.345  30.460   9.147
 1185POPC   GL219142  38.607  30.720   8.949
 1185POPC   C1A19143  38.210  30.520   8.722
 1185POPC   D2A19144  38.298  30.824   8.455
 1185POPC   C3A19145  38.303  30.710   8.064
 1185POPC   C4A19146  38.421  30.476   7.759
 1185POPC   C1B19147  39.020  30.922   8.789
 1185POPC   C2B19148  39.056  31.002   8.334
 1185POPC   C3B19149  38.680  31.073   8.059
 1185POPC   C4B19150  38.544  30.964   7.630
 1186POPC   NC319151  39.204   0.526   9.968
 1186POPC   PO419152  38.632   0.417   9.568
 1186POPC   GL119153  38.620   0.432   9.157
 1186POPC   GL219154  38.443   0.122   9.087
 1186POPC   C1A19155  38.610   0.480   8.728
 1186POPC   D2A19156  38.460   0.204   8.424
 1186POPC   C3A19157  38.346   0.502   8.108
 1186POPC   C4A19158  38.572   0.788   7.814
 1186POPC   C1B19159  38.150  44.928   8.796
 1186POPC   C2B19160  38.054  44.843   8.372
 1186POPC   C3B19161  38.261  44.984   7.981
 1186POPC   C4B19162  38.258   0.051   7.509
 1187POPC   NC319163  27.195  27.868   9.456
 1187POPC   PO419164  26.568  27.573   9.665
 1187POPC   GL119165  26.783  27.589   9.258
 1187POPC   GL219166  26.774  27.916   9.136
 1187POPC   C1A19167  26.895  27.483   8.830
 1187POPC   D2A19168  26.710  27.648   8.456
 1187POPC   C3A19169  26.762  27.460   8.060
 1187POPC   C4A19170  26.681  27.235   7.694
 1187POPC   C1B19171  27.059  27.959   8.781
 1187POPC   C2B19172  27.172  27.868   8.342
 1187POPC   C3B19173  27.030  27.893   7.930
 1187POPC   C4B19174  26.878  27.702   7.574
 1188POPC   NC319175  21.236   0.690   9.482
 1188POPC   PO419176  21.717   0.263   9.555
 1188POPC   GL119177  21.540   0.169   9.149
 1188POPC   GL219178  21.168   0.140   9.204
 1188POPC   C1A19179  21.404   0.464   8.792
 1188POPC   D2A19180  21.309   0.651   8.362
 1188POPC   C3A19181  21.469   0.425   7.967
 1188POPC   C4A19182  21.347   0.376   7.531
 1188POPC   C1B19183  21.211  44.995   8.778
 1188POPC   C2B19184  21.192   0.156   8.347
 1188POPC   C3B19185  20.947   0.007   8.006
 1188POPC   C4B19186  20.956   0.068   7.566
 1189POPC   NC319187  24.229   0.870   9.240
 1189POPC   PO419188  24.772   1.113   9.580
 1189POPC   GL119189  24.713   1.036   9.151
 1189POPC   GL219190  24.531   1.347   9.137
 1189POPC   C1A19191  24.581   1.105   8.682
 1189POPC   D2A19192  24.679   1.281   8.281
 1189POPC   C3A19193  24.600   1.133   7.866
 1189POPC   C4A19194  24.528   1.072   7.398
 1189POPC   C1B19195  24.225   1.442   8.803
 1189POPC   C2B19196  24.177   1.446   8.390
 1189POPC   C3B19197  24.203   1.440   7.966
 1189POPC   C4B19198  24.119   1.108   7.681
 1190POPC   NC319199  24.932  30.125   9.428
 1190POPC   PO419200  25.158  29.526   9.485
 1190POPC   GL119201  25.326  29.819   9.224
 1190POPC   GL219202  25.493  29.644   8.966
 1190POPC   C1A19203  25.348  30.116   8.879
 1190POPC   D2A19204  25.459  29.902   8.499
 1190POPC   C3A19205  25.254  30.076   8.114
 1190POPC   C4A19206  25.452  30.279   7.769
 1190POPC   C1B19207  25.048  29.718   8.751
 1190POPC   C2B19208  25.076  29.621   8.282
 1190POPC   C3B19209  25.364  29.608   7.886
 1190POPC   C4B19210  25.260  29.550   7.448
 1191POPC   NC319211  37.125   0.528   9.588
 1191POPC   PO419212  36.545   0.332   9.495
 1191POPC   GL119213  36.855   0.340   9.156
 1191POPC   GL219214  37.223   0.479   9.100
 1191POPC   C1A19215  36.673   0.360   8.753
 1191POPC   D2A19216  36.453   0.156   8.393
 1191POPC   C3A19217  36.526   0.364   7.984
 1191POPC   C4A19218  36.609   0.564   7.592
 1191POPC   C1B19219  37.164   0.213   8.746
 1191POPC   C2B19220  36.962   0.215   8.343
 1191POPC   C3B19221  37.068   0.295   7.933
 1191POPC   C4B19222  37.090   0.673   7.768
 1192POPC   NC319223  26.616  27.204   9.928
 1192POPC   PO419224  26.032  27.280   9.530
 1192POPC   GL119225  26.060  26.983   9.172
 1192POPC   GL219226  26.327  26.721   9.289
 1192POPC   C1A19227  25.921  26.975   8.726
 1192POPC   D2A19228  25.645  26.715   8.430
 1192POPC   C3A19229  25.786  26.694   8.005
 1192POPC   C4A19230  26.064  26.972   7.795
 1192POPC   C1B19231  26.384  26.713   8.823
 1192POPC   C2B19232  26.255  26.773   8.381
 1192POPC   C3B19233  26.495  26.906   8.038
 1192POPC   C4B19234  26.539  26.746   7.615
 1193POPC   NC319235  40.724  35.959   9.617
 1193POPC   PO419236  40.334  36.525   9.468
 1193POPC   GL119237  40.630  36.261   9.172
 1193POPC   GL219238  40.716  35.881   9.131
 1193POPC   C1A19239  40.768  36.245   8.729
 1193POPC   D2A19240  40.663  36.392   8.320
 1193POPC   C3A19241  40.918  36.236   8.011
 1193POPC   C4A19242  40.987  36.133   7.593
 1193POPC   C1B19243  40.755  35.727   8.753
 1193POPC   C2B19244  40.990  35.821   8.335
 1193POPC   C3B19245  40.974  35.702   7.880
 1193POPC   C4B19246  40.947  35.660   7.374
 1194POPC   NC319247   7.195  12.895   9.552
 1194POPC   PO419248   7.326  12.550   9.058
 1194POPC   GL119249   7.296  13.008   9.036
 1194POPC   GL219250   7.605  13.014   8.868
 1194POPC   C1A19251   7.333  13.414   8.755
 1194POPC   D2A19252   7.466  13.412   8.317
 1194POPC   C3A19253   7.207  13.193   8.022
 1194POPC   C4A19254   7.497  12.979   7.808
 1194POPC   C1B19255   7.349  12.933   8.491
 1194POPC   C2B19256   7.270  12.646   8.139
 1194POPC   C3B19257   7.425  12.475   7.756
 1194POPC   C4B19258   7.405  12.284   7.367
 1195POPC   NC319259   6.325  32.708   9.364
 1195POPC   PO419260   6.691  33.261   9.498
 1195POPC   GL119261   6.608  33.126   9.068
 1195POPC   GL219262   6.282  33.060   8.979
 1195POPC   C1A19263   6.613  33.112   8.603
 1195POPC   D2A19264   6.615  32.897   8.213
 1195POPC   C3A19265   6.740  33.016   7.812
 1195POPC   C4A19266   6.814  33.230   7.416
 1195POPC   C1B19267   6.407  32.662   8.706
 1195POPC   C2B19268   6.297  32.526   8.277
 1195POPC   C3B19269   6.418  32.596   7.831
 1195POPC   C4B19270   6.590  32.274   7.535
 1196POPC   NC319271  18.829   9.122   9.817
 1196POPC   PO419272  18.220   9.104   9.414
 1196POPC   GL119273  18.373   9.031   9.010
 1196POPC   GL219274  18.547   8.768   9.107
 1196POPC   C1A19275  18.388   8.977   8.560
 1196POPC   D2A19276  18.104   9.024   8.210
 1196POPC   C3A19277  18.294   9.195   7.862
 1196POPC   C4A19278  18.162   9.087   7.469
 1196POPC   C1B19279  18.814   8.740   8.773
 1196POPC   C2B19280  18.804   8.624   8.342
 1196POPC   C3B19281  18.491   8.717   8.037
 1196POPC   C4B19282  18.597   8.846   7.618
 1197POPC   NC319283  44.183  44.098   9.307
 1197POPC   PO419284  43.802  43.612   9.457
 1197POPC   GL119285  43.658  43.878   9.111
 1197POPC   GL219286  43.818  44.177   8.959
 1197POPC   C1A19287  43.740  43.807   8.655
 1197POPC   D2A19288  43.884  43.786   8.272
 1197POPC   C3A19289  43.635  43.653   7.966
 1197POPC   C4A19290  43.895  43.448   7.735
 1197POPC   C1B19291  44.174  44.075   8.651
 1197POPC   C2B19292  44.300  44.099   8.230
 1197POPC   C3B19293  44.127  43.912   7.827
 1197POPC   C4B19294  44.175  43.740   7.395
 1198POPC   NC319295  26.851   0.250   9.736
 1198POPC   PO419296  26.549   0.782   9.513
 1198POPC   GL119297  26.789   0.447   9.242
 1198POPC   GL219298  26.974   0.143   9.194
 1198POPC   C1A19299  26.702   0.304   8.799
 1198POPC   D2A19300  26.546   0.156   8.379
 1198POPC   C3A19301  26.681   0.475   8.118
 1198POPC   C4A19302  26.687   0.484   7.696
 1198POPC   C1B19303  27.208   0.139   8.799
 1198POPC   C2B19304  27.071   0.164   8.377
 1198POPC   C3B19305  27.009  44.975   7.982
 1198POPC   C4B19306  26.924   0.089   7.501
 1199POPC   NC319307   6.881  43.188   9.412
 1199POPC   PO419308   7.495  43.002   9.544
 1199POPC   GL119309   7.346  43.184   9.179
 1199POPC   GL219310   7.593  43.068   9.015
 1199POPC   C1A19311   7.313  43.440   8.805
 1199POPC   D2A19312   7.274  43.291   8.384
 1199POPC   C3A19313   7.268  43.501   8.020
 1199POPC   C4A19314   7.144  43.281   7.694
 1199POPC   C1B19315   7.365  42.904   8.719
 1199POPC   C2B19316   7.536  42.838   8.338
 1199POPC   C3B19317   7.543  43.040   7.981
 1199POPC   C4B19318   7.431  42.830   7.631
 1200POPC   NC319319  18.693  12.021   9.606
 1200POPC   PO419320  19.256  12.333   9.529
 1200POPC   GL119321  19.040  12.085   9.222
 1200POPC   GL219322  19.355  12.054   9.080
 1200POPC   C1A19323  18.901  11.938   8.823
 1200POPC   D2A19324  18.710  12.062   8.433
 1200POPC   C3A19325  18.822  12.039   7.986
 1200POPC   C4A19326  18.865  12.179   7.532
 1200POPC   C1B19327  19.411  11.900   8.728
 1200POPC   C2B19328  19.200  11.857   8.351
 1200POPC   C3B19329  19.341  12.046   7.981
 1200POPC   C4B19330  19.368  12.131   7.552
 1201POPC   NC319331  25.755  13.820   9.412
 1201POPC   PO419332  26.285  13.524   9.538
 1201POPC   GL119333  26.124  13.548   9.176
 1201POPC   GL219334  26.189  13.900   9.150
 1201POPC   C1A19335  25.945  13.532   8.808
 1201POPC   D2A19336  26.034  13.683   8.409
 1201POPC   C3A19337  25.881  13.440   8.064
 1201POPC   C4A19338  25.598  13.507   7.757
 1201POPC   C1B19339  26.012  14.057   8.764
 1201POPC   C2B19340  25.791  14.164   8.365
 1201POPC   C3B19341  25.927  13.955   7.974
 1201POPC   C4B19342  25.927  13.840   7.519
 1202POPC   NC319343  15.879  16.854   9.675
 1202POPC   PO419344  16.373  16.435   9.601
 1202POPC   GL119345  16.159  16.588   9.208
 1202POPC   GL219346  15.775  16.645   9.204
 1202POPC   C1A19347  16.142  16.582   8.731
 1202POPC   D2A19348  16.085  16.823   8.311
 1202POPC   C3A19349  16.170  16.605   7.899
 1202POPC   C4A19350  16.281  16.770   7.468
 1202POPC   C1B19351  15.643  16.741   8.749
 1202POPC   C2B19352  15.606  16.601   8.276
 1202POPC   C3B19353  15.654  16.734   7.840
 1202POPC   C4B19354  15.846  16.538   7.483
 1203POPC   NC319355  31.801  24.885   9.621
 1203POPC   PO419356  31.297  25.354   9.711
 1203POPC   GL119357  31.482  25.129   9.299
 1203POPC   GL219358  31.622  25.295   9.037
 1203POPC   C1A19359  31.215  25.053   8.872
 1203POPC   D2A19360  31.094  25.174   8.406
 1203POPC   C3A19361  31.370  25.119   8.021
 1203POPC   C4A19362  31.344  25.157   7.566
 1203POPC   C1B19363  31.522  25.389   8.597
 1203POPC   C2B19364  31.724  25.464   8.217
 1203POPC   C3B19365  31.870  25.293   7.832
 1203POPC   C4B19366  31.770  25.365   7.382
 1204POPC   NC319367  15.792   9.694   9.672
 1204POPC   PO419368  16.426   9.548   9.508
 1204POPC   GL119369  16.147   9.582   9.207
 1204POPC   GL219370  15.980   9.903   9.203
 1204POPC   C1A19371  16.225   9.659   8.784
 1204POPC   D2A19372  15.937   9.543   8.487
 1204POPC   C3A19373  15.895   9.565   8.062
 1204POPC   C4A19374  16.022   9.864   7.745
 1204POPC   C1B19375  15.820  10.033   8.774
 1204POPC   C2B19376  15.835  10.040   8.307
 1204POPC   C3B19377  15.561   9.969   7.959
 1204POPC   C4B19378  15.562  10.017   7.523
 1205POPC   NC319379  22.602  38.944   9.213
 1205POPC   PO419380  21.987  39.108   9.497
 1205POPC   GL119381  22.176  39.250   9.149
 1205POPC   GL219382  22.496  39.447   9.139
 1205POPC   C1A19383  22.056  39.242   8.731
 1205POPC   D2A19384  22.235  38.983   8.413
 1205POPC   C3A19385  22.178  39.108   8.007
 1205POPC   C4A19386  22.018  39.185   7.591
 1205POPC   C1B19387  22.555  39.330   8.681
 1205POPC   C2B19388  22.296  39.523   8.330
 1205POPC   C3B19389  22.198  39.605   7.876
 1205POPC   C4B19390  22.483  39.502   7.547
 1206POPC   NC319391   3.150  21.787   9.532
 1206POPC   PO419392   3.392  21.144   9.634
 1206POPC   GL119393   3.254  21.230   9.244
 1206POPC   GL219394   3.476  21.496   9.164
 1206POPC   C1A19395   3.408  21.098   8.841
 1206POPC   D2A19396   3.588  21.263   8.475
 1206POPC   C3A19397   3.364  21.524   8.209
 1206POPC   C4A19398   3.365  21.343   7.812
 1206POPC   C1B19399   3.857  21.442   8.867
 1206POPC   C2B19400   3.894  21.641   8.423
 1206POPC   C3B19401   3.837  21.427   8.025
 1206POPC   C4B19402   3.775  21.557   7.600
 1207POPC   NC319403   2.413  41.983   9.596
 1207POPC   PO419404   3.052  42.175   9.363
 1207POPC   GL119405   2.615  42.281   9.193
 1207POPC   GL219406   2.556  42.643   9.259
 1207POPC   C1A19407   2.407  42.481   8.804
 1207POPC   D2A19408   2.665  42.688   8.477
 1207POPC   C3A19409   2.688  42.418   8.161
 1207POPC   C4A19410   2.640  42.328   7.767
 1207POPC   C1B19411   2.911  42.631   8.910
 1207POPC   C2B19412   3.090  42.385   8.548
 1207POPC   C3B19413   3.201  42.448   8.119
 1207POPC   C4B19414   3.083  42.597   7.718
 1208POPC   NC319415  38.128  35.604   9.466
 1208POPC   PO419416  38.526  35.095   9.605
 1208POPC   GL119417  38.605  35.326   9.251
 1208POPC   GL219418  38.285  35.253   9.148
 1208POPC   C1A19419  38.706  35.205   8.841
 1208POPC   D2A19420  38.515  35.222   8.443
 1208POPC   C3A19421  38.676  35.041   8.099
 1208POPC   C4A19422  38.686  35.362   7.819
 1208POPC   C1B19423  38.261  35.511   8.817
 1208POPC   C2B19424  38.162  35.598   8.420
 1208POPC   C3B19425  38.190  35.501   8.034
 1208POPC   C4B19426  38.222  35.109   7.844
 1209POPC   NC319427  13.384  35.325   9.844
 1209POPC   PO419428  13.767  35.699   9.417
 1209POPC   GL119429  13.575  35.408   9.131
 1209POPC   GL219430  13.776  35.131   9.141
 1209POPC   C1A19431  13.438  35.299   8.705
 1209POPC   D2A19432  13.510  35.467   8.270
 1209POPC   C3A19433  13.496  35.195   7.866
 1209POPC   C4A19434  13.312  35.227   7.415
 1209POPC   C1B19435  13.937  35.203   8.711
 1209POPC   C2B19436  13.862  35.089   8.268
 1209POPC   C3B19437  14.006  35.046   7.822
 1209POPC   C4B19438  14.119  34.967   7.360
 1210POPC   NC319439  32.681  24.467   9.848
 1210POPC   PO419440  33.027  24.939   9.480
 1210POPC   GL119441  33.159  24.636   9.159
 1210POPC   GL219442  32.972  24.327   9.119
 1210POPC   C1A19443  33.106  24.640   8.704
 1210POPC   D2A19444  33.331  24.575   8.323
 1210POPC   C3A19445  33.162  24.645   7.932
 1210POPC   C4A19446  33.198  24.603   7.498
 1210POPC   C1B19447  32.907  24.175   8.665
 1210POPC   C2B19448  32.858  24.337   8.221
 1210POPC   C3B19449  32.842  24.274   7.749
 1210POPC   C4B19450  32.954  24.205   7.298
 1211POPC   NC319451  10.305  15.418   9.566
 1211POPC   PO419452  10.743  14.949   9.530
 1211POPC   GL119453  10.515  15.032   9.146
 1211POPC   GL219454  10.529  15.405   9.114
 1211POPC   C1A19455  10.504  15.143   8.689
 1211POPC   D2A19456  10.333  15.180   8.290
 1211POPC   C3A19457  10.682  15.013   8.078
 1211POPC   C4A19458  10.816  14.965   7.654
 1211POPC   C1B19459  10.563  15.696   8.773
 1211POPC   C2B19460  10.388  15.679   8.364
 1211POPC   C3B19461  10.487  15.544   7.945
 1211POPC   C4B19462  10.340  15.192   7.736
 1212POPC   NC319463  39.457  21.926   9.540
 1212POPC   PO419464  38.928  22.376   9.523
 1212POPC   GL119465  39.178  22.412   9.116
 1212POPC   GL219466  39.418  22.134   9.071
 1212POPC   C1A19467  39.098  22.581   8.658
 1212POPC   D2A19468  38.989  22.569   8.192
 1212POPC   C3A19469  39.085  22.199   7.923
 1212POPC   C4A19470  39.040  22.090   7.480
 1212POPC   C1B19471  39.568  22.418   8.759
 1212POPC   C2B19472  39.461  22.406   8.308
 1212POPC   C3B19473  39.442  22.563   7.894
 1212POPC   C4B19474  39.433  22.421   7.447
 1213POPC   NC319475  40.246  36.921   9.676
 1213POPC   PO419476  40.908  37.018   9.645
 1213POPC   GL119477  40.679  36.902   9.332
 1213POPC   GL219478  40.602  37.227   9.271
 1213POPC   C1A19479  40.699  36.732   8.928
 1213POPC   D2A19480  40.958  36.723   8.575
 1213POPC   C3A19481  40.765  36.901   8.241
 1213POPC   C4A19482  40.740  36.688   7.866
 1213POPC   C1B19483  40.925  37.227   8.927
 1213POPC   C2B19484  40.831  37.369   8.486
 1213POPC   C3B19485  40.989  37.348   8.061
 1213POPC   C4B19486  40.904  37.153   7.687
 1214POPC   NC319487  35.805  40.151   9.554
 1214POPC   PO419488  36.254  39.617   9.442
 1214POPC   GL119489  36.118  39.923   9.110
 1214POPC   GL219490  35.964  40.252   9.095
 1214POPC   C1A19491  35.954  39.961   8.667
 1214POPC   D2A19492  36.114  40.188   8.307
 1214POPC   C3A19493  36.173  40.081   7.897
 1214POPC   C4A19494  36.521  40.203   7.683
 1214POPC   C1B19495  35.693  40.398   8.743
 1214POPC   C2B19496  35.598  40.213   8.340
 1214POPC   C3B19497  35.770  39.842   8.153
 1214POPC   C4B19498  35.834  39.735   7.723
 1215POPC   NC319499   3.436  31.529   9.510
 1215POPC   PO419500   3.965  31.185   9.418
 1215POPC   GL119501   3.817  31.488   9.075
 1215POPC   GL219502   3.438  31.484   9.017
 1215POPC   C1A19503   3.704  31.334   8.634
 1215POPC   D2A19504   3.526  31.056   8.355
 1215POPC   C3A19505   3.759  31.168   8.023
 1215POPC   C4A19506   3.702  31.062   7.604
 1215POPC   C1B19507   3.504  31.802   8.709
 1215POPC   C2B19508   3.649  31.865   8.326
 1215POPC   C3B19509   3.479  31.660   7.949
 1215POPC   C4B19510   3.610  31.544   7.535
 1216POPC   NC319511  13.801  25.628   9.456
 1216POPC   PO419512  13.374  25.267   9.809
 1216POPC   GL119513  13.547  25.214   9.282
 1216POPC   GL219514  13.442  25.484   9.095
 1216POPC   C1A19515  13.754  25.280   8.789
 1216POPC   D2A19516  13.890  25.070   8.465
 1216POPC   C3A19517  13.906  25.266   8.086
 1216POPC   C4A19518  13.835  25.087   7.711
 1216POPC   C1B19519  13.274  25.274   8.710
 1216POPC   C2B19520  13.407  25.179   8.293
 1216POPC   C3B19521  13.315  25.120   7.842
 1216POPC   C4B19522  13.143  25.376   7.546
 1217POPC   NC319523  17.967  29.275   9.507
 1217POPC   PO419524  17.414  28.928   9.594
 1217POPC   GL119525  17.535  29.155   9.252
 1217POPC   GL219526  17.276  29.016   9.087
 1217POPC   C1A19527  17.709  29.122   8.837
 1217POPC   D2A19528  17.972  29.114   8.491
 1217POPC   C3A19529  17.855  28.944   8.093
 1217POPC   C4A19530  17.734  29.127   7.690
 1217POPC   C1B19531  17.355  28.737   8.761
 1217POPC   C2B19532  17.251  28.781   8.336
 1217POPC   C3B19533  17.336  28.900   7.928
 1217POPC   C4B19534  17.272  29.332   7.775
 1218POPC   NC319535  37.679   5.148   9.662
 1218POPC   PO419536  37.697   4.519   9.557
 1218POPC   GL119537  37.637   4.818   9.197
 1218POPC   GL219538  37.610   5.182   9.142
 1218POPC   C1A19539  37.547   4.825   8.740
 1218POPC   D2A19540  37.416   5.045   8.353
 1218POPC   C3A19541  37.619   4.879   8.000
 1218POPC   C4A19542  37.907   4.693   7.734
 1218POPC   C1B19543  37.685   5.346   8.704
 1218POPC   C2B19544  37.924   5.177   8.326
 1218POPC   C3B19545  37.968   5.216   7.878
 1218POPC   C4B19546  37.696   5.523   7.913
 1219POPC   NC319547  43.620   5.119   9.995
 1219POPC   PO419548  43.829   5.661   9.587
 1219POPC   GL119549  44.034   5.618   9.194
 1219POPC   GL219550  44.001   5.954   9.104
 1219POPC   C1A19551  44.238   5.641   8.773
 1219POPC   D2A19552  44.031   5.745   8.370
 1219POPC   C3A19553  44.142   5.740   7.950
 1219POPC   C4A19554  43.811   5.601   7.716
 1219POPC   C1B19555  44.114   6.131   8.691
 1219POPC   C2B19556  44.321   6.152   8.264
 1219POPC   C3B19557  44.234   6.221   7.798
 1219POPC   C4B19558  43.958   6.368   7.430
 1220POPC   NC319559  21.583  25.392   9.445
 1220POPC   PO419560  21.069  25.690   9.775
 1220POPC   GL119561  21.083  25.303   9.342
 1220POPC   GL219562  21.338  25.357   9.009
 1220POPC   C1A19563  20.967  25.039   8.935
 1220POPC   D2A19564  21.218  24.982   8.582
 1220POPC   C3A19565  21.202  25.113   8.161
 1220POPC   C4A19566  20.949  25.152   7.814
 1220POPC   C1B19567  21.586  25.678   8.735
 1220POPC   C2B19568  21.540  25.910   8.343
 1220POPC   C3B19569  21.655  25.749   7.943
 1220POPC   C4B19570  21.381  25.442   7.749
 1221POPC   NC319571  42.307  23.436   9.504
 1221POPC   PO419572  42.113  24.060   9.605
 1221POPC   GL119573  42.182  23.807   9.141
 1221POPC   GL219574  42.490  23.655   9.070
 1221POPC   C1A19575  42.120  23.978   8.700
 1221POPC   D2A19576  42.352  23.844   8.295
 1221POPC   C3A19577  42.476  23.919   7.856
 1221POPC   C4A19578  42.299  23.946   7.414
 1221POPC   C1B19579  42.308  23.506   8.683
 1221POPC   C2B19580  42.456  23.357   8.259
 1221POPC   C3B19581  42.414  23.390   7.805
 1221POPC   C4B19582  42.617  23.560   7.409
 1222POPC   NC319583  41.766  22.144   9.518
 1222POPC   PO419584  41.335  22.726   9.546
 1222POPC   GL119585  41.293  22.414   9.196
 1222POPC   GL219586  41.351  22.010   9.215
 1222POPC   C1A19587  41.481  22.294   8.811
 1222POPC   D2A19588  41.422  22.008   8.508
 1222POPC   C3A19589  41.579  22.187   8.169
 1222POPC   C4A19590  41.522  22.175   7.748
 1222POPC   C1B19591  41.703  21.833   8.905
 1222POPC   C2B19592  41.944  21.927   8.486
 1222POPC   C3B19593  41.910  21.837   8.016
 1222POPC   C4B19594  41.947  21.966   7.565
 1223POPC   NC319595   9.954   1.740  10.234
 1223POPC   PO419596   9.590   1.374   9.871
 1223POPC   GL119597   9.559   1.235   9.362
 1223POPC   GL219598   9.408   1.494   9.129
 1223POPC   C1A19599   9.482   1.049   8.906
 1223POPC   D2A19600   9.367   1.013   8.436
 1223POPC   C3A19601   9.662   1.088   8.054
 1223POPC   C4A19602   9.638   1.375   7.697
 1223POPC   C1B19603   9.506   1.506   8.638
 1223POPC   C2B19604   9.336   1.465   8.212
 1223POPC   C3B19605   9.215   1.641   7.792
 1223POPC   C4B19606   9.319   1.612   7.333
 1224POPC   NC319607  18.811  35.501   9.485
 1224POPC   PO419608  18.245  35.167   9.499
 1224POPC   GL119609  18.427  35.207   9.136
 1224POPC   GL219610  18.661  34.903   9.130
 1224POPC   C1A19611  18.189  35.322   8.742
 1224POPC   D2A19612  18.155  35.097   8.367
 1224POPC   C3A19613  18.251  35.268   7.969
 1224POPC   C4A19614  18.076  35.195   7.579
 1224POPC   C1B19615  18.521  34.948   8.721
 1224POPC   C2B19616  18.642  35.039   8.302
 1224POPC   C3B19617  18.507  34.825   7.928
 1224POPC   C4B19618  18.620  35.015   7.537
 1225POPC   NC319619  43.650  26.461   9.395
 1225POPC   PO419620  43.897  26.862   9.860
 1225POPC   GL119621  43.864  26.909   9.351
 1225POPC   GL219622  44.161  26.763   9.156
 1225POPC   C1A19623  43.727  26.870   8.886
 1225POPC   D2A19624  43.689  27.066   8.472
 1225POPC   C3A19625  43.780  26.893   8.034
 1225POPC   C4A19626  43.917  26.801   7.592
 1225POPC   C1B19627  44.221  27.024   8.744
 1225POPC   C2B19628  44.247  26.956   8.274
 1225POPC   C3B19629  44.261  27.075   7.831
 1225POPC   C4B19630  44.332  27.058   7.367
 1226POPC   NC319631  30.554  37.085   9.445
 1226POPC   PO419632  30.455  36.433   9.187
 1226POPC   GL119633  30.701  36.820   9.039
 1226POPC   GL219634  30.492  37.011   8.812
 1226POPC   C1A19635  30.963  36.917   8.666
 1226POPC   D2A19636  30.883  36.772   8.228
 1226POPC   C3A19637  30.613  37.019   8.038
 1226POPC   C4A19638  30.863  37.188   7.770
 1226POPC   C1B19639  30.559  36.599   8.589
 1226POPC   C2B19640  30.333  36.413   8.290
 1226POPC   C3B19641  30.492  36.525   7.917
 1226POPC   C4B19642  30.647  36.745   7.561
 1227POPC   NC319643  39.541  35.581   9.461
 1227POPC   PO419644  39.354  36.340   9.536
 1227POPC   GL119645  39.424  36.037   9.265
 1227POPC   GL219646  39.488  36.283   9.059
 1227POPC   C1A19647  39.383  35.846   8.852
 1227POPC   D2A19648  39.095  35.959   8.540
 1227POPC   C3A19649  39.150  35.816   8.121
 1227POPC   C4A19650  38.956  35.977   7.751
 1227POPC   C1B19651  39.230  36.415   8.739
 1227POPC   C2B19652  39.146  36.586   8.324
 1227POPC   C3B19653  39.170  36.429   7.890
 1227POPC   C4B19654  39.461  36.066   7.752
 1228POPC   NC319655  10.437  20.959   9.564
 1228POPC   PO419656  10.323  20.324   9.569
 1228POPC   GL119657  10.311  20.589   9.226
 1228POPC   GL219658  10.635  20.655   9.175
 1228POPC   C1A19659  10.329  20.796   8.817
 1228POPC   D2A19660  10.420  20.462   8.496
 1228POPC   C3A19661  10.368  20.589   8.104
 1228POPC   C4A19662  10.505  20.649   7.723
 1228POPC   C1B19663  10.805  20.556   8.786
 1228POPC   C2B19664  10.862  20.664   8.368
 1228POPC   C3B19665  10.909  20.948   8.054
 1228POPC   C4B19666  11.017  20.667   7.780
 1229POPC   NC319667  36.967  38.794   9.442
 1229POPC   PO419668  36.786  38.176   9.500
 1229POPC   GL119669  36.924  38.374   9.137
 1229POPC   GL219670  36.629  38.580   9.124
 1229POPC   C1A19671  36.778  38.363   8.718
 1229POPC   D2A19672  36.565  38.360   8.359
 1229POPC   C3A19673  36.897  38.338   8.062
 1229POPC   C4A19674  37.003  38.630   7.740
 1229POPC   C1B19675  36.618  38.857   8.816
 1229POPC   C2B19676  36.471  38.936   8.412
 1229POPC   C3B19677  36.605  38.808   8.017
 1229POPC   C4B19678  36.645  38.995   7.621
 1230POPC   NC319679  19.206  36.980   9.844
 1230POPC   PO419680  18.710  36.842   9.480
 1230POPC   GL119681  19.120  36.952   9.256
 1230POPC   GL219682  19.368  37.221   9.318
 1230POPC   C1A19683  19.211  36.748   8.832
 1230POPC   D2A19684  19.177  36.532   8.414
 1230POPC   C3A19685  19.114  36.685   8.002
 1230POPC   C4A19686  19.354  36.863   7.681
 1230POPC   C1B19687  19.236  37.262   8.848
 1230POPC   C2B19688  19.270  37.056   8.398
 1230POPC   C3B19689  19.044  37.190   7.970
 1230POPC   C4B19690  18.972  37.164   7.488
 1231POPC   NC319691   6.874  20.067   9.569
 1231POPC   PO419692   6.511  19.560   9.571
 1231POPC   GL119693   6.568  19.818   9.184
 1231POPC   GL219694   6.946  19.832   9.113
 1231POPC   C1A19695   6.480  19.806   8.723
 1231POPC   D2A19696   6.548  19.991   8.314
 1231POPC   C3A19697   6.464  19.792   7.949
 1231POPC   C4A19698   6.489  20.008   7.581
 1231POPC   C1B19699   7.161  19.766   8.718
 1231POPC   C2B19700   7.024  19.799   8.296
 1231POPC   C3B19701   6.959  19.818   7.871
 1231POPC   C4B19702   6.948  19.872   7.440
 1232POPC   NC319703  16.226   8.072   9.398
 1232POPC   PO419704  15.979   8.665   9.360
 1232POPC   GL119705  15.878   8.287   9.085
 1232POPC   GL219706  15.745   7.934   9.153
 1232POPC   C1A19707  15.979   8.063   8.698
 1232POPC   D2A19708  16.229   8.070   8.318
 1232POPC   C3A19709  15.999   8.123   7.944
 1232POPC   C4A19710  15.936   7.736   7.723
 1232POPC   C1B19711  15.470   8.058   8.803
 1232POPC   C2B19712  15.572   8.200   8.372
 1232POPC   C3B19713  15.366   8.401   8.013
 1232POPC   C4B19714  15.504   8.482   7.577
 1233POPC   NC319715   5.833  38.699   9.490
 1233POPC   PO419716   6.037  38.067   9.488
 1233POPC   GL119717   5.992  38.346   9.151
 1233POPC   GL219718   6.210  38.610   9.101
 1233POPC   C1A19719   5.843  38.503   8.766
 1233POPC   D2A19720   5.617  38.544   8.413
 1233POPC   C3A19721   5.803  38.468   8.054
 1233POPC   C4A19722   5.774  38.266   7.643
 1233POPC   C1B19723   6.210  38.909   8.789
 1233POPC   C2B19724   6.094  38.796   8.398
 1233POPC   C3B19725   6.022  38.934   8.018
 1233POPC   C4B19726   5.848  38.774   7.637
 1234POPC   NC319727  17.749  30.058   9.403
 1234POPC   PO419728  17.305  30.609   9.324
 1234POPC   GL119729  17.363  30.227   9.115
 1234POPC   GL219730  17.316  29.855   9.226
 1234POPC   C1A19731  17.463  30.023   8.740
 1234POPC   D2A19732  17.303  29.806   8.409
 1234POPC   C3A19733  17.541  29.904   8.101
 1234POPC   C4A19734  17.496  30.069   7.717
 1234POPC   C1B19735  17.537  29.581   8.969
 1234POPC   C2B19736  17.725  29.564   8.564
 1234POPC   C3B19737  17.662  29.419   8.135
 1234POPC   C4B19738  17.773  29.629   7.729
 1235POPC   NC319739  37.782  23.563   9.572
 1235POPC   PO419740  37.368  24.205   9.659
 1235POPC   GL119741  37.622  24.067   9.263
 1235POPC   GL219742  37.575  23.718   9.141
 1235POPC   C1A19743  37.635  24.069   8.790
 1235POPC   D2A19744  37.815  24.013   8.405
 1235POPC   C3A19745  37.595  23.909   8.010
 1235POPC   C4A19746  37.752  23.847   7.639
 1235POPC   C1B19747  37.650  23.507   8.784
 1235POPC   C2B19748  37.560  23.560   8.370
 1235POPC   C3B19749  37.708  23.383   8.001
 1235POPC   C4B19750  37.402  23.408   7.723
 1236POPC   NC319751  10.241  12.880   9.585
 1236POPC   PO419752   9.510  12.934   9.532
 1236POPC   GL119753   9.653  12.960   9.134
 1236POPC   GL219754   9.828  12.679   9.070
 1236POPC   C1A19755   9.499  12.967   8.734
 1236POPC   D2A19756   9.618  13.126   8.347
 1236POPC   C3A19757   9.490  12.944   8.005
 1236POPC   C4A19758   9.711  12.997   7.646
 1236POPC   C1B19759   9.392  12.531   8.995
 1236POPC   C2B19760   9.238  12.321   8.632
 1236POPC   C3B19761   9.265  12.308   8.161
 1236POPC   C4B19762   9.420  12.494   7.758
 1237POPC   NC319763   0.081  41.574   9.559
 1237POPC   PO419764   0.674  41.319   9.484
 1237POPC   GL119765   0.441  41.311   9.149
 1237POPC   GL219766   0.344  41.659   9.124
 1237POPC   C1A19767   0.315  41.251   8.724
 1237POPC   D2A19768   0.184  41.518   8.357
 1237POPC   C3A19769   0.345  41.454   7.965
 1237POPC   C4A19770   0.366  41.802   7.680
 1237POPC   C1B19771   0.504  41.713   8.724
 1237POPC   C2B19772   0.702  41.496   8.381
 1237POPC   C3B19773   0.746  41.739   8.005
 1237POPC   C4B19774   0.868  41.873   7.589
 1238POPC   NC319775  37.424  40.385   9.367
 1238POPC   PO419776  37.752  40.941   9.578
 1238POPC   GL119777  37.526  40.907   9.198
 1238POPC   GL219778  37.782  40.667   9.144
 1238POPC   C1A19779  37.434  40.775   8.759
 1238POPC   D2A19780  37.393  40.666   8.333
 1238POPC   C3A19781  37.420  40.777   7.897
 1238POPC   C4A19782  37.481  40.373   7.748
 1238POPC   C1B19783  37.954  40.617   8.803
 1238POPC   C2B19784  37.899  40.804   8.410
 1238POPC   C3B19785  37.866  40.597   8.051
 1238POPC   C4B19786  37.937  40.799   7.680
 1239POPC   NC319787  38.014   8.819   9.453
 1239POPC   PO419788  37.467   9.136   9.479
 1239POPC   GL119789  37.691   9.077   9.088
 1239POPC   GL219790  38.054   9.078   9.022
 1239POPC   C1A19791  37.744   9.183   8.648
 1239POPC   D2A19792  37.946   9.211   8.235
 1239POPC   C3A19793  37.662   9.084   7.899
 1239POPC   C4A19794  37.644   8.770   7.577
 1239POPC   C1B19795  38.093   8.787   8.626
 1239POPC   C2B19796  38.147   8.759   8.129
 1239POPC   C3B19797  38.123   8.946   7.690
 1239POPC   C4B19798  38.028   8.759   7.247
 1240POPC   NC319799  21.651  41.045   9.883
 1240POPC   PO419800  21.307  41.549   9.622
 1240POPC   GL119801  21.473  41.664   9.258
 1240POPC   GL219802  21.407  41.364   9.065
 1240POPC   C1A19803  21.400  41.893   8.888
 1240POPC   D2A19804  21.379  41.696   8.500
 1240POPC   C3A19805  21.437  41.852   8.110
 1240POPC   C4A19806  21.247  41.630   7.752
 1240POPC   C1B19807  21.758  41.441   8.752
 1240POPC   C2B19808  21.853  41.355   8.316
 1240POPC   C3B19809  21.645  41.341   7.929
 1240POPC   C4B19810  21.705  41.513   7.522
 1241POPC   NC319811   3.672  33.071   9.443
 1241POPC   PO419812   3.032  33.162   9.353
 1241POPC   GL119813   3.366  33.008   9.052
 1241POPC   GL219814   3.691  33.193   8.956
 1241POPC   C1A19815   3.436  32.862   8.653
 1241POPC   D2A19816   3.134  32.962   8.359
 1241POPC   C3A19817   3.402  32.869   8.043
 1241POPC   C4A19818   3.417  32.965   7.658
 1241POPC   C1B19819   3.953  32.877   8.710
 1241POPC   C2B19820   3.924  32.822   8.274
 1241POPC   C3B19821   3.893  33.120   7.995
 1241POPC   C4B19822   3.859  33.182   7.588
 1242POPC   NC319823   3.111  41.642   9.433
 1242POPC   PO419824   3.834  41.627   9.482
 1242POPC   GL119825   3.849  41.366   9.143
 1242POPC   GL219826   3.491  41.437   9.123
 1242POPC   C1A19827   3.797  41.419   8.700
 1242POPC   D2A19828   3.596  41.538   8.315
 1242POPC   C3A19829   3.861  41.414   7.984
 1242POPC   C4A19830   3.856  41.530   7.541
 1242POPC   C1B19831   3.296  41.549   8.751
 1242POPC   C2B19832   3.024  41.719   8.453
 1242POPC   C3B19833   3.127  41.503   8.096
 1242POPC   C4B19834   3.395  41.566   7.780
 1243POPC   NC319835   5.885  13.767   9.475
 1243POPC   PO419836   5.650  13.132   9.495
 1243POPC   GL119837   5.643  13.443   9.110
 1243POPC   GL219838   5.964  13.501   9.028
 1243POPC   C1A19839   5.634  13.869   8.868
 1243POPC   D2A19840   5.707  13.960   8.434
 1243POPC   C3A19841   5.746  13.783   8.007
 1243POPC   C4A19842   5.549  13.642   7.617
 1243POPC   C1B19843   6.120  13.786   8.733
 1243POPC   C2B19844   6.133  13.668   8.324
 1243POPC   C3B19845   6.268  13.764   7.931
 1243POPC   C4B19846   6.067  13.710   7.576
 1244POPC   NC319847   9.779  40.415   9.357
 1244POPC   PO419848   9.628  39.703   9.600
 1244POPC   GL119849   9.881  39.638   9.212
 1244POPC   GL219850  10.002  39.984   9.175
 1244POPC   C1A19851   9.853  39.756   8.739
 1244POPC   D2A19852   9.580  39.909   8.358
 1244POPC   C3A19853   9.634  40.098   7.940
 1244POPC   C4A19854   9.797  39.751   7.740
 1244POPC   C1B19855  10.218  40.138   8.798
 1244POPC   C2B19856  10.353  40.163   8.370
 1244POPC   C3B19857  10.131  40.123   7.964
 1244POPC   C4B19858  10.120  40.115   7.507
 1245POPC   NC319859  21.718  17.107   9.393
 1245POPC   PO419860  22.146  17.590   9.437
 1245POPC   GL119861  22.216  17.427   9.068
 1245POPC   GL219862  22.224  17.055   9.169
 1245POPC   C1A19863  22.057  17.605   8.669
 1245POPC   D2A19864  21.928  17.691   8.228
 1245POPC   C3A19865  21.975  17.532   7.811
 1245POPC   C4A19866  22.318  17.592   7.509
 1245POPC   C1B19867  22.070  17.081   8.741
 1245POPC   C2B19868  22.207  17.246   8.344
 1245POPC   C3B19869  22.024  17.074   8.005
 1245POPC   C4B19870  22.171  17.120   7.590
 1246POPC   NC319871  21.588   6.112   9.537
 1246POPC   PO419872  21.348   5.505   9.762
 1246POPC   GL119873  21.358   5.723   9.273
 1246POPC   GL219874  21.225   6.036   9.179
 1246POPC   C1A19875  21.117   5.719   8.805
 1246POPC   D2A19876  21.324   5.798   8.373
 1246POPC   C3A19877  21.350   5.656   7.947
 1246POPC   C4A19878  21.601   5.439   7.623
 1246POPC   C1B19879  21.525   5.981   8.813
 1246POPC   C2B19880  21.576   6.236   8.430
 1246POPC   C3B19881  21.641   6.129   8.012
 1246POPC   C4B19882  21.698   5.941   7.598
 1247POPC   NC319883  26.358  37.402   9.579
 1247POPC   PO419884  25.928  36.912   9.713
 1247POPC   GL119885  25.865  36.760   9.299
 1247POPC   GL219886  25.934  37.056   9.156
 1247POPC   C1A19887  25.845  36.641   8.848
 1247POPC   D2A19888  25.958  36.771   8.424
 1247POPC   C3A19889  25.703  36.666   8.050
 1247POPC   C4A19890  25.954  36.682   7.697
 1247POPC   C1B19891  25.759  37.150   8.753
 1247POPC   C2B19892  25.565  37.062   8.362
 1247POPC   C3B19893  25.772  37.157   7.963
 1247POPC   C4B19894  25.936  37.166   7.544
 1248POPC   NC319895  13.214  15.194   9.509
 1248POPC   PO419896  12.521  15.004   9.578
 1248POPC   GL119897  12.761  15.092   9.208
 1248POPC   GL219898  12.696  15.436   9.092
 1248POPC   C1A19899  12.952  15.066   8.794
 1248POPC   D2A19900  13.081  14.828   8.424
 1248POPC   C3A19901  13.057  15.076   8.041
 1248POPC   C4A19902  12.685  15.264   7.825
 1248POPC   C1B19903  12.895  15.565   8.684
 1248POPC   C2B19904  12.923  15.544   8.237
 1248POPC   C3B19905  13.080  15.567   7.827
 1248POPC   C4B19906  12.941  15.562   7.408
 1249POPC   NC319907  36.412  25.883   9.581
 1249POPC   PO419908  37.062  25.986   9.373
 1249POPC   GL119909  36.821  26.015   9.053
 1249POPC   GL219910  36.790  25.664   9.042
 1249POPC   C1A19911  36.989  26.016   8.650
 1249POPC   D2A19912  37.002  25.746   8.292
 1249POPC   C3A19913  37.154  26.000   7.929
 1249POPC   C4A19914  37.142  26.032   7.470
 1249POPC   C1B19915  36.556  25.766   8.650
 1249POPC   C2B19916  36.563  26.116   8.321
 1249POPC   C3B19917  36.669  26.258   7.920
 1249POPC   C4B19918  36.680  25.904   7.660
 1250POPC   NC319919  35.106  36.942   9.429
 1250POPC   PO419920  35.637  36.613   9.607
 1250POPC   GL119921  35.520  36.704   9.175
 1250POPC   GL219922  35.169  36.599   9.041
 1250POPC   C1A19923  35.620  36.853   8.756
 1250POPC   D2A19924  35.407  36.924   8.339
 1250POPC   C3A19925  35.496  36.693   7.974
 1250POPC   C4A19926  35.763  36.777   7.607
 1250POPC   C1B19927  35.126  37.019   8.775
 1250POPC   C2B19928  34.946  37.174   8.372
 1250POPC   C3B19929  34.991  36.958   7.966
 1250POPC   C4B19930  35.083  36.616   7.684
 1251POPC   NC319931  20.161   6.964   9.348
 1251POPC   PO419932  19.925   7.511   9.517
 1251POPC   GL119933  19.933   7.604   9.092
 1251POPC   GL219934  20.182   7.830   9.047
 1251POPC   C1A19935  19.801   7.357   8.741
 1251POPC   D2A19936  19.547   7.168   8.407
 1251POPC   C3A19937  19.740   7.167   7.997
 1251POPC   C4A19938  19.575   7.465   7.685
 1251POPC   C1B19939  20.300   7.637   8.681
 1251POPC   C2B19940  20.096   7.439   8.319
 1251POPC   C3B19941  20.058   7.574   7.893
 1251POPC   C4B19942  20.335   7.714   7.571
 1252POPC   NC319943  37.183  32.261   9.496
 1252POPC   PO419944  36.791  31.791   9.208
 1252POPC   GL119945  36.744  32.218   9.044
 1252POPC   GL219946  37.055  32.377   9.017
 1252POPC   C1A19947  36.605  32.376   8.631
 1252POPC   D2A19948  36.660  32.594   8.211
 1252POPC   C3A19949  36.705  32.342   7.832
 1252POPC   C4A19950  36.503  31.939   7.773
 1252POPC   C1B19951  37.043  32.067   8.661
 1252POPC   C2B19952  36.790  32.011   8.297
 1252POPC   C3B19953  37.003  31.953   7.938
 1252POPC   C4B19954  37.327  32.272   7.831
 1253POPC   NC319955  21.971  35.666   9.526
 1253POPC   PO419956  22.559  35.245   9.497
 1253POPC   GL119957  22.320  35.239   9.156
 1253POPC   GL219958  22.276  35.615   9.138
 1253POPC   C1A19959  22.270  35.017   8.761
 1253POPC   D2A19960  21.996  34.974   8.414
 1253POPC   C3A19961  21.976  35.239   8.066
 1253POPC   C4A19962  22.262  35.182   7.761
 1253POPC   C1B19963  22.006  35.444   8.820
 1253POPC   C2B19964  22.066  35.631   8.434
 1253POPC   C3B19965  21.931  35.756   8.058
 1253POPC   C4B19966  22.047  35.643   7.633
 1254POPC   NC319967  30.748   6.953   9.415
 1254POPC   PO419968  30.628   6.332   9.524
 1254POPC   GL119969  30.535   6.559   9.157
 1254POPC   GL219970  30.351   6.299   9.043
 1254POPC   C1A19971  30.738   6.664   8.750
 1254POPC   D2A19972  30.583   6.907   8.370
 1254POPC   C3A19973  30.708   6.722   7.952
 1254POPC   C4A19974  30.858   6.445   7.619
 1254POPC   C1B19975  30.276   6.483   8.677
 1254POPC   C2B19976  30.437   6.417   8.311
 1254POPC   C3B19977  30.527   6.231   7.945
 1254POPC   C4B19978  30.369   6.317   7.562
 1255POPC   NC319979   0.778  41.840   9.449
 1255POPC   PO419980   1.137  41.389   9.825
 1255POPC   GL119981   1.123  41.449   9.298
 1255POPC   GL219982   0.882  41.538   9.032
 1255POPC   C1A19983   1.388  41.390   8.913
 1255POPC   D2A19984   1.190  41.265   8.531
 1255POPC   C3A19985   1.197  41.603   8.226
 1255POPC   C4A19986   1.278  41.678   7.800
 1255POPC   C1B19987   1.163  41.815   8.783
 1255POPC   C2B19988   1.562  41.787   8.539
 1255POPC   C3B19989   1.656  42.003   8.151
 1255POPC   C4B19990   1.541  42.146   7.781
 1256POPC   NC319991  31.590  38.192   9.454
 1256POPC   PO419992  31.179  38.727   9.586
 1256POPC   GL119993  31.225  38.664   9.170
 1256POPC   GL219994  31.212  38.339   9.125
 1256POPC   C1A19995  31.291  38.685   8.715
 1256POPC   D2A19996  31.436  38.436   8.354
 1256POPC   C3A19997  31.175  38.472   8.000
 1256POPC   C4A19998  31.353  38.818   7.842
 1256POPC   C1B19999  31.575  38.285   8.815
 1256POPC   C2B20000  31.737  38.007   8.546
 1256POPC   C3B20001  31.894  38.147   8.173
 1256POPC   C4B20002  31.724  38.468   7.916
 1257POPC   NC320003  11.920  42.031   9.450
 1257POPC   PO420004  12.270  42.690   9.499
 1257POPC   GL120005  12.043  42.447   9.154
 1257POPC   GL220006  12.278  42.198   9.124
 1257POPC   C1A20007  12.046  42.264   8.697
 1257POPC   D2A20008  11.757  42.152   8.358
 1257POPC   C3A20009  11.865  42.402   8.003
 1257POPC   C4A20010  12.027  42.792   7.888
 1257POPC   C1B20011  12.415  41.919   8.758
 1257POPC   C2B20012  12.269  41.996   8.318
 1257POPC   C3B20013  12.335  42.150   7.925
 1257POPC   C4B20014  12.187  42.421   7.591
 1258POPC   NC320015   1.356   0.546   9.475
 1258POPC   PO420016   0.754   0.202   9.558
 1258POPC   GL120017   1.061   0.220   9.211
 1258POPC   GL220018   0.959   0.531   9.143
 1258POPC   C1A20019   1.391   0.362   8.855
 1258POPC   D2A20020   1.465   0.662   8.487
 1258POPC   C3A20021   1.279   0.543   8.077
 1258POPC   C4A20022   1.344   0.205   7.741
 1258POPC   C1B20023   0.983   0.669   8.745
 1258POPC   C2B20024   0.855   0.742   8.355
 1258POPC   C3B20025   0.630   0.598   8.013
 1258POPC   C4B20026   0.936   0.560   7.693
 1259POPC   NC320027   4.375  37.307   9.310
 1259POPC   PO420028   4.074  36.731   9.721
 1259POPC   GL120029   4.073  36.819   9.263
 1259POPC   GL220030   4.388  36.836   9.123
 1259POPC   C1A20031   4.015  37.010   8.833
 1259POPC   D2A20032   4.333  37.161   8.551
 1259POPC   C3A20033   4.296  37.062   8.120
 1259POPC   C4A20034   4.435  37.115   7.706
 1259POPC   C1B20035   4.432  36.597   8.794
 1259POPC   C2B20036   4.495  36.685   8.400
 1259POPC   C3B20037   4.665  36.584   8.018
 1259POPC   C4B20038   4.515  36.568   7.607
 1260POPC   NC320039  22.587  13.238   9.347
 1260POPC   PO420040  22.945  13.741   9.570
 1260POPC   GL120041  22.864  13.611   9.155
 1260POPC   GL220042  23.158  13.412   9.188
 1260POPC   C1A20043  22.721  13.454   8.741
 1260POPC   D2A20044  22.655  13.637   8.358
 1260POPC   C3A20045  22.597  13.383   8.065
 1260POPC   C4A20046  22.710  13.485   7.666
 1260POPC   C1B20047  23.212  13.593   8.773
 1260POPC   C2B20048  23.126  13.451   8.380
 1260POPC   C3B20049  23.121  13.513   7.956
 1260POPC   C4B20050  23.453  13.703   7.750
 1261POPC   NC320051  24.545  43.907   9.594
 1261POPC   PO420052  24.020  43.987   9.302
 1261POPC   GL120053  24.443  43.806   9.107
 1261POPC   GL220054  24.662  44.079   9.106
 1261POPC   C1A20055  24.663  43.711   8.706
 1261POPC   D2A20056  24.549  43.599   8.261
 1261POPC   C3A20057  24.708  43.864   7.882
 1261POPC   C4A20058  24.640  43.817   7.405
 1261POPC   C1B20059  24.398  44.156   8.757
 1261POPC   C2B20060  24.587  44.123   8.374
 1261POPC   C3B20061  24.456  44.279   8.007
 1261POPC   C4B20062  24.548  44.301   7.601
 1262POPC   NC320063  44.357   0.733   9.370
 1262POPC   PO420064  44.775   0.304   9.729
 1262POPC   GL120065  44.798   0.418   9.288
 1262POPC   GL220066  44.493   0.307   9.166
 1262POPC   C1A20067  44.799   0.666   8.881
 1262POPC   D2A20068  44.558   0.646   8.494
 1262POPC   C3A20069  44.721   0.570   8.128
 1262POPC   C4A20070  44.746   0.692   7.716
 1262POPC   C1B20071  44.767   0.156   8.830
 1262POPC   C2B20072  44.586   0.153   8.434
 1262POPC   C3B20073  44.397   0.070   8.063
 1262POPC   C4B20074  44.674   0.176   7.781
 1263POPC   NC320075  14.667  14.822   9.505
 1263POPC   PO420076  14.266  15.397   9.444
 1263POPC   GL120077  14.409  15.095   9.112
 1263POPC   GL220078  14.742  14.991   8.970
 1263POPC   C1A20079  14.222  15.096   8.742
 1263POPC   D2A20080  14.232  15.312   8.341
 1263POPC   C3A20081  14.514  15.163   8.051
 1263POPC   C4A20082  14.475  14.979   7.633
 1263POPC   C1B20083  14.667  15.376   8.741
 1263POPC   C2B20084  14.798  15.527   8.335
 1263POPC   C3B20085  14.647  15.628   7.909
 1263POPC   C4B20086  14.606  15.467   7.515
 1264POPC   NC320087  17.655  25.768   9.431
 1264POPC   PO420088  17.268  26.385   9.532
 1264POPC   GL120089  17.303  26.128   9.165
 1264POPC   GL220090  17.195  25.808   9.173
 1264POPC   C1A20091  17.552  26.034   8.798
 1264POPC   D2A20092  17.437  26.149   8.402
 1264POPC   C3A20093  17.537  26.189   7.983
 1264POPC   C4A20094  17.448  26.454   7.639
 1264POPC   C1B20095  17.369  25.536   8.852
 1264POPC   C2B20096  17.394  25.644   8.461
 1264POPC   C3B20097  17.177  25.810   8.131
 1264POPC   C4B20098  17.193  25.677   7.720
 1265POPC   NC320099  17.377   0.331   9.629
 1265POPC   PO420100  17.987   0.258   9.252
 1265POPC   GL120101  17.661   0.572   9.175
 1265POPC   GL220102  17.275   0.521   9.172
 1265POPC   C1A20103  17.556   0.593   8.742
 1265POPC   D2A20104  17.692   0.425   8.388
 1265POPC   C3A20105  17.729   0.649   8.023
 1265POPC   C4A20106  17.654   0.500   7.623
 1265POPC   C1B20107  17.060   0.645   8.815
 1265POPC   C2B20108  17.142   0.391   8.463
 1265POPC   C3B20109  17.294   0.413   8.049
 1265POPC   C4B20110  17.296   0.813   7.792
 1266POPC   NC320111  37.809  38.877   9.424
 1266POPC   PO420112  37.843  38.270   9.615
 1266POPC   GL120113  37.766  38.403   9.206
 1266POPC   GL220114  37.429  38.582   9.209
 1266POPC   C1A20115  37.904  38.541   8.799
 1266POPC   D2A20116  37.732  38.466   8.405
 1266POPC   C3A20117  37.957  38.447   8.032
 1266POPC   C4A20118  37.968  38.692   7.667
 1266POPC   C1B20119  37.419  38.349   8.838
 1266POPC   C2B20120  37.241  38.321   8.469
 1266POPC   C3B20121  37.409  38.207   8.097
 1266POPC   C4B20122  37.494  38.552   7.841
 1267POPC   NC320123   4.152  41.315   9.606
 1267POPC   PO420124   4.543  41.746   9.731
 1267POPC   GL120125   4.453  41.722   9.261
 1267POPC   GL220126   4.523  41.368   9.211
 1267POPC   C1A20127   4.242  41.677   8.809
 1267POPC   D2A20128   4.056  41.777   8.343
 1267POPC   C3A20129   4.270  41.717   7.878
 1267POPC   C4A20130   4.410  41.785   7.407
 1267POPC   C1B20131   4.493  41.205   8.791
 1267POPC   C2B20132   4.221  41.303   8.434
 1267POPC   C3B20133   4.326  41.236   8.054
 1267POPC   C4B20134   4.660  41.337   7.902
 1268POPC   NC320135  26.047  19.877   9.625
 1268POPC   PO420136  26.256  19.293   9.523
 1268POPC   GL120137  26.388  19.556   9.163
 1268POPC   GL220138  26.220  19.879   9.131
 1268POPC   C1A20139  26.285  19.534   8.699
 1268POPC   D2A20140  25.991  19.552   8.332
 1268POPC   C3A20141  26.149  19.660   7.911
 1268POPC   C4A20142  26.411  19.944   7.641
 1268POPC   C1B20143  26.026  19.980   8.735
 1268POPC   C2B20144  26.225  20.007   8.334
 1268POPC   C3B20145  26.083  20.201   7.950
 1268POPC   C4B20146  26.165  20.422   7.546
 1269POPC   NC320147  39.716  28.918   9.536
 1269POPC   PO420148  40.348  29.281   9.479
 1269POPC   GL120149  40.223  29.168   9.089
 1269POPC   GL220150  39.868  29.173   9.101
 1269POPC   C1A20151  40.179  29.312   8.671
 1269POPC   D2A20152  39.873  29.226   8.356
 1269POPC   C3A20153  40.031  29.108   7.979
 1269POPC   C4A20154  40.117  29.245   7.601
 1269POPC   C1B20155  39.597  29.087   8.776
 1269POPC   C2B20156  39.453  28.882   8.420
 1269POPC   C3B20157  39.540  28.978   8.014
 1269POPC   C4B20158  39.691  28.979   7.597
 1270POPC   NC320159  13.236  12.603   9.560
 1270POPC   PO420160  13.696  12.136   9.495
 1270POPC   GL120161  13.655  12.045   9.092
 1270POPC   GL220162  13.835  12.332   9.006
 1270POPC   C1A20163  13.362  11.965   8.769
 1270POPC   D2A20164  13.609  11.943   8.400
 1270POPC   C3A20165  13.522  12.104   8.021
 1270POPC   C4A20166  13.586  12.022   7.619
 1270POPC   C1B20167  13.618  12.408   8.652
 1270POPC   C2B20168  13.731  12.500   8.252
 1270POPC   C3B20169  13.915  12.404   7.847
 1270POPC   C4B20170  14.028  12.209   7.463
 1271POPC   NC320171  20.271  18.540   9.544
 1271POPC   PO420172  19.604  18.510   9.454
 1271POPC   GL120173  19.749  18.288   9.110
 1271POPC   GL220174  20.058  18.323   9.146
 1271POPC   C1A20175  19.592  18.150   8.729
 1271POPC   D2A20176  19.755  17.950   8.388
 1271POPC   C3A20177  19.610  18.240   8.101
 1271POPC   C4A20178  19.644  18.289   7.672
 1271POPC   C1B20179  20.104  18.120   8.767
 1271POPC   C2B20180  20.232  18.168   8.355
 1271POPC   C3B20181  20.109  18.158   7.952
 1271POPC   C4B20182  20.164  18.376   7.628
 1272POPC   NC320183  30.243  30.968   9.753
 1272POPC   PO420184  29.763  31.454   9.497
 1272POPC   GL120185  29.897  31.438   9.052
 1272POPC   GL220186  30.144  31.647   8.906
 1272POPC   C1A20187  29.987  31.232   8.649
 1272POPC   D2A20188  29.967  31.352   8.216
 1272POPC   C3A20189  30.254  31.179   7.949
 1272POPC   C4A20190  30.369  31.527   7.759
 1272POPC   C1B20191  29.821  31.719   8.562
 1272POPC   C2B20192  29.678  31.952   8.190
 1272POPC   C3B20193  29.666  31.911   7.713
 1272POPC   C4B20194  29.546  31.697   7.299
 1273POPC   NC320195  33.701  14.708   9.362
 1273POPC   PO420196  34.170  14.209   9.398
 1273POPC   GL120197  33.890  14.336   9.078
 1273POPC   GL220198  33.567  14.257   9.153
 1273POPC   C1A20199  33.700  14.545   8.722
 1273POPC   D2A20200  33.563  14.785   8.403
 1273POPC   C3A20201  33.658  14.584   8.063
 1273POPC   C4A20202  33.835  14.481   7.682
 1273POPC   C1B20203  33.620  14.051   8.750
 1273POPC   C2B20204  33.787  14.150   8.351
 1273POPC   C3B20205  33.588  14.093   7.914
 1273POPC   C4B20206  33.577  14.144   7.419
 1274POPC   NC320207  29.428  17.664   9.478
 1274POPC   PO420208  29.019  17.180   9.317
 1274POPC   GL120209  28.831  17.532   9.119
 1274POPC   GL220210  29.103  17.775   9.077
 1274POPC   C1A20211  28.906  17.473   8.678
 1274POPC   D2A20212  29.065  17.149   8.372
 1274POPC   C3A20213  28.936  17.264   7.945
 1274POPC   C4A20214  28.935  17.448   7.523
 1274POPC   C1B20215  29.314  17.774   8.706
 1274POPC   C2B20216  29.262  17.618   8.284
 1274POPC   C3B20217  29.272  17.672   7.860
 1274POPC   C4B20218  29.347  17.776   7.433
 1275POPC   NC320219  38.647  39.063   9.445
 1275POPC   PO420220  38.657  39.667   9.714
 1275POPC   GL120221  38.339  39.424   9.257
 1275POPC   GL220222  38.473  39.154   8.991
 1275POPC   C1A20223  38.331  39.588   8.807
 1275POPC   D2A20224  38.354  39.345   8.437
 1275POPC   C3A20225  38.421  39.506   8.040
 1275POPC   C4A20226  38.702  39.366   7.751
 1275POPC   C1B20227  38.154  39.006   8.764
 1275POPC   C2B20228  38.093  38.855   8.398
 1275POPC   C3B20229  38.250  39.009   8.014
 1275POPC   C4B20230  38.366  38.992   7.593
 1276POPC   NC320231   4.623  44.371   9.419
 1276POPC   PO420232   4.132  44.852   9.483
 1276POPC   GL120233   4.222  44.733   9.064
 1276POPC   GL220234   4.562  44.748   9.075
 1276POPC   C1A20235   4.389  44.653   8.619
 1276POPC   D2A20236   4.344  44.333   8.321
 1276POPC   C3A20237   4.521  44.326   7.932
 1276POPC   C4A20238   4.321  44.502   7.562
 1276POPC   C1B20239   4.794  44.407   8.803
 1276POPC   C2B20240   4.877  44.457   8.386
 1276POPC   C3B20241   4.705  44.751   8.111
 1276POPC   C4B20242   4.851  44.618   7.697
 1277POPC   NC320243  25.124  14.792   9.505
 1277POPC   PO420244  25.446  14.170   9.391
 1277POPC   GL120245  25.060  14.308   9.183
 1277POPC   GL220246  25.079  14.038   8.950
 1277POPC   C1A20247  24.977  14.599   8.839
 1277POPC   D2A20248  25.184  14.684   8.391
 1277POPC   C3A20249  25.138  14.496   7.992
 1277POPC   C4A20250  25.324  14.599   7.602
 1277POPC   C1B20251  25.369  14.306   8.724
 1277POPC   C2B20252  25.269  14.159   8.339
 1277POPC   C3B20253  25.402  14.041   7.943
 1277POPC   C4B20254  25.295  14.099   7.551
 1278POPC   NC320255  11.446  11.712   9.413
 1278POPC   PO420256  11.594  11.094   9.501
 1278POPC   GL120257  11.291  11.269   9.171
 1278POPC   GL220258  11.563  11.381   9.013
 1278POPC   C1A20259  11.107  11.199   8.698
 1278POPC   D2A20260  11.158  11.325   8.226
 1278POPC   C3A20261  10.884  11.173   7.838
 1278POPC   C4A20262  11.004  11.234   7.405
 1278POPC   C1B20263  11.541  11.467   8.596
 1278POPC   C2B20264  11.722  11.355   8.236
 1278POPC   C3B20265  11.721  11.422   7.832
 1278POPC   C4B20266  11.386  11.158   7.765
 1279POPC   NC320267  39.297   9.321  10.124
 1279POPC   PO420268  39.478   9.320   9.464
 1279POPC   GL120269  39.304   9.145   9.070
 1279POPC   GL220270  38.947   9.249   8.967
 1279POPC   C1A20271  39.451   8.859   8.734
 1279POPC   D2A20272  39.675   8.879   8.338
 1279POPC   C3A20273  39.494   9.064   8.006
 1279POPC   C4A20274  39.443   8.889   7.578
 1279POPC   C1B20275  38.955   8.855   8.717
 1279POPC   C2B20276  39.108   8.784   8.298
 1279POPC   C3B20277  39.059   8.826   7.888
 1279POPC   C4B20278  38.911   8.736   7.471
 1280POPC   NC320279   3.109   6.552   9.734
 1280POPC   PO420280   3.731   6.732   9.561
 1280POPC   GL120281   3.457   6.646   9.220
 1280POPC   GL220282   3.114   6.741   9.170
 1280POPC   C1A20283   3.425   6.607   8.773
 1280POPC   D2A20284   3.546   6.797   8.395
 1280POPC   C3A20285   3.632   6.513   8.066
 1280POPC   C4A20286   3.378   6.440   7.707
 1280POPC   C1B20287   3.086   6.996   8.745
 1280POPC   C2B20288   3.167   7.151   8.310
 1280POPC   C3B20289   3.316   6.915   7.948
 1280POPC   C4B20290   3.289   6.911   7.479
 1281POPC   NC320291  23.791  37.939   9.532
 1281POPC   PO420292  23.561  37.365   9.720
 1281POPC   GL120293  23.735  37.366   9.229
 1281POPC   GL220294  23.448  37.314   9.065
 1281POPC   C1A20295  23.966  37.585   8.873
 1281POPC   D2A20296  24.062  37.903   8.522
 1281POPC   C3A20297  24.088  37.760   8.071
 1281POPC   C4A20298  23.902  37.664   7.635
 1281POPC   C1B20299  23.477  37.550   8.711
 1281POPC   C2B20300  23.765  37.485   8.397
 1281POPC   C3B20301  23.625  37.522   8.021
 1281POPC   C4B20302  23.454  37.320   7.702
 1282POPC   NC320303  20.090   7.948   9.513
 1282POPC   PO420304  19.556   8.414   9.590
 1282POPC   GL120305  19.502   8.432   9.163
 1282POPC   GL220306  19.761   8.149   9.073
 1282POPC   C1A20307  19.664   8.533   8.755
 1282POPC   D2A20308  19.906   8.361   8.438
 1282POPC   C3A20309  19.706   8.325   8.063
 1282POPC   C4A20310  19.613   8.623   7.775
 1282POPC   C1B20311  19.854   7.905   8.660
 1282POPC   C2B20312  20.158   7.953   8.277
 1282POPC   C3B20313  20.105   8.094   7.852
 1282POPC   C4B20314  19.705   8.096   7.590
 1283POPC   NC320315  33.269  15.827   9.467
 1283POPC   PO420316  32.677  16.216   9.661
 1283POPC   GL120317  32.814  15.958   9.226
 1283POPC   GL220318  33.148  16.038   9.012
 1283POPC   C1A20319  32.925  15.618   8.877
 1283POPC   D2A20320  33.129  15.736   8.484
 1283POPC   C3A20321  32.908  15.705   8.067
 1283POPC   C4A20322  33.085  15.705   7.647
 1283POPC   C1B20323  32.757  16.068   8.724
 1283POPC   C2B20324  32.673  16.090   8.292
 1283POPC   C3B20325  32.863  16.205   7.894
 1283POPC   C4B20326  32.794  16.269   7.458
 1284POPC   NC320327  16.450  29.945   9.393
 1284POPC   PO420328  17.098  30.077   9.637
 1284POPC   GL120329  16.872  30.078   9.163
 1284POPC   GL220330  16.814  29.721   9.089
 1284POPC   C1A20331  16.673  30.062   8.726
 1284POPC   D2A20332  16.788  29.844   8.336
 1284POPC   C3A20333  17.043  30.016   7.998
 1284POPC   C4A20334  17.130  30.421   7.767
 1284POPC   C1B20335  17.078  29.522   8.769
 1284POPC   C2B20336  17.013  29.379   8.317
 1284POPC   C3B20337  16.804  29.521   7.921
 1284POPC   C4B20338  16.840  29.346   7.501
 1285POPC   NC320339  14.042   4.284   9.616
 1285POPC   PO420340  14.594   4.209   9.357
 1285POPC   GL120341  14.414   4.214   9.032
 1285POPC   GL220342  14.615   4.523   8.924
 1285POPC   C1A20343  14.454   4.170   8.596
 1285POPC   D2A20344  14.763   4.431   8.397
 1285POPC   C3A20345  14.687   4.382   7.956
 1285POPC   C4A20346  14.669   4.139   7.574
 1285POPC   C1B20347  14.224   4.593   8.787
 1285POPC   C2B20348  14.165   4.530   8.371
 1285POPC   C3B20349  14.223   4.653   7.983
 1285POPC   C4B20350  14.226   4.372   7.643
 1286POPC   NC320351  21.234  18.493   9.614
 1286POPC   PO420352  21.532  17.867   9.548
 1286POPC   GL120353  21.593  18.211   9.216
 1286POPC   GL220354  21.272  18.353   9.139
 1286POPC   C1A20355  21.598  18.365   8.753
 1286POPC   D2A20356  21.304  18.326   8.401
 1286POPC   C3A20357  21.521  18.334   8.028
 1286POPC   C4A20358  21.715  18.001   7.870
 1286POPC   C1B20359  21.051  18.539   8.821
 1286POPC   C2B20360  21.179  18.817   8.474
 1286POPC   C3B20361  21.113  18.655   8.042
 1286POPC   C4B20362  21.057  18.280   7.820
 1287POPC   NC320363  24.915   6.625   9.454
 1287POPC   PO420364  24.356   6.237   9.503
 1287POPC   GL120365  24.604   6.317   9.165
 1287POPC   GL220366  24.570   6.714   9.083
 1287POPC   C1A20367  24.536   6.343   8.745
 1287POPC   D2A20368  24.481   6.735   8.551
 1287POPC   C3A20369  24.553   6.638   8.146
 1287POPC   C4A20370  24.489   6.606   7.714
 1287POPC   C1B20371  24.755   7.074   8.811
 1287POPC   C2B20372  24.888   7.033   8.358
 1287POPC   C3B20373  24.803   7.003   7.882
 1287POPC   C4B20374  24.584   7.080   7.472
 1288POPC   NC320375  43.943  29.677   9.473
 1288POPC   PO420376  44.167  30.354   9.316
 1288POPC   GL120377  44.158  29.973   9.078
 1288POPC   GL220378  43.790  29.945   9.050
 1288POPC   C1A20379  44.060  29.770   8.667
 1288POPC   D2A20380  43.708  29.858   8.399
 1288POPC   C3A20381  43.921  29.957   8.032
 1288POPC   C4A20382  44.165  29.601   7.884
 1288POPC   C1B20383  43.813  30.242   8.720
 1288POPC   C2B20384  43.684  30.407   8.314
 1288POPC   C3B20385  43.517  30.388   7.903
 1288POPC   C4B20386  43.662  30.061   7.602
 1289POPC   NC320387  14.636  32.557   9.631
 1289POPC   PO420388  14.084  32.241   9.598
 1289POPC   GL120389  14.367  32.327   9.242
 1289POPC   GL220390  14.611  32.082   9.185
 1289POPC   C1A20391  14.380  32.426   8.796
 1289POPC   D2A20392  14.195  32.201   8.427
 1289POPC   C3A20393  14.326  32.285   7.997
 1289POPC   C4A20394  14.474  32.539   7.655
 1289POPC   C1B20395  14.550  31.945   8.732
 1289POPC   C2B20396  14.631  31.950   8.291
 1289POPC   C3B20397  14.505  31.818   7.888
 1289POPC   C4B20398  14.389  32.070   7.502
 1290POPC   NC320399  19.670   3.655   9.274
 1290POPC   PO420400  20.204   3.542   9.683
 1290POPC   GL120401  20.112   3.441   9.152
 1290POPC   GL220402  19.902   3.237   9.007
 1290POPC   C1A20403  20.046   3.688   8.706
 1290POPC   D2A20404  20.095   3.928   8.297
 1290POPC   C3A20405  19.905   3.756   7.925
 1290POPC   C4A20406  19.869   3.479   7.551
 1290POPC   C1B20407  19.621   3.364   8.681
 1290POPC   C2B20408  19.606   3.593   8.305
 1290POPC   C3B20409  19.483   3.420   7.899
 1290POPC   C4B20410  19.398   3.276   7.480
 1291POPC   NC320411  18.466  12.829   9.503
 1291POPC   PO420412  17.900  12.714   9.192
 1291POPC   GL120413  18.238  12.990   9.069
 1291POPC   GL220414  18.572  12.814   9.022
 1291POPC   C1A20415  18.440  13.218   8.764
 1291POPC   D2A20416  18.432  12.925   8.492
 1291POPC   C3A20417  18.464  12.954   8.046
 1291POPC   C4A20418  18.274  12.935   7.659
 1291POPC   C1B20419  18.646  12.507   8.709
 1291POPC   C2B20420  18.445  12.471   8.295
 1291POPC   C3B20421  18.188  12.503   7.930
 1291POPC   C4B20422  18.601  12.537   7.758
 1292POPC   NC320423  19.023   3.423   9.602
 1292POPC   PO420424  19.615   3.199   9.409
 1292POPC   GL120425  19.274   3.329   9.115
 1292POPC   GL220426  18.950   3.551   9.123
 1292POPC   C1A20427  19.091   3.240   8.702
 1292POPC   D2A20428  19.083   3.519   8.355
 1292POPC   C3A20429  19.182   3.801   8.049
 1292POPC   C4A20430  19.052   3.593   7.655
 1292POPC   C1B20431  18.774   3.670   8.739
 1292POPC   C2B20432  18.705   3.901   8.356
 1292POPC   C3B20433  18.691   3.798   7.946
 1292POPC   C4B20434  18.576   3.396   7.776
 1293POPC   NC320435  13.335  19.125   9.719
 1293POPC   PO420436  12.756  19.051   9.462
 1293POPC   GL120437  13.121  19.036   9.084
 1293POPC   GL220438  13.461  19.100   9.195
 1293POPC   C1A20439  13.413  18.807   8.763
 1293POPC   D2A20440  13.594  18.844   8.316
 1293POPC   C3A20441  13.385  19.083   7.967
 1293POPC   C4A20442  13.293  18.954   7.511
 1293POPC   C1B20443  13.751  19.223   8.847
 1293POPC   C2B20444  13.938  19.231   8.412
 1293POPC   C3B20445  13.877  19.224   7.961
 1293POPC   C4B20446  13.687  19.296   7.554
 1294POPC   NC320447   4.027  32.260   9.622
 1294POPC   PO420448   4.561  31.932   9.520
 1294POPC   GL120449   4.387  32.240   9.229
 1294POPC   GL220450   4.013  32.276   9.123
 1294POPC   C1A20451   4.408  32.289   8.790
 1294POPC   D2A20452   4.316  32.524   8.434
 1294POPC   C3A20453   4.531  32.349   8.085
 1294POPC   C4A20454   4.463  32.422   7.679
 1294POPC   C1B20455   3.984  31.982   8.781
 1294POPC   C2B20456   4.152  32.047   8.350
 1294POPC   C3B20457   4.025  32.337   8.021
 1294POPC   C4B20458   3.899  32.288   7.584
 1295POPC   NC320459  19.436   7.084   9.553
 1295POPC   PO420460  19.397   6.397   9.724
 1295POPC   GL120461  19.198   6.562   9.331
 1295POPC   GL220462  18.991   6.863   9.308
 1295POPC   C1A20463  19.245   6.527   8.876
 1295POPC   D2A20464  19.155   6.302   8.491
 1295POPC   C3A20465  19.161   6.478   8.108
 1295POPC   C4A20466  19.106   6.459   7.678
 1295POPC   C1B20467  18.772   6.828   8.888
 1295POPC   C2B20468  18.656   6.791   8.441
 1295POPC   C3B20469  18.714   6.707   8.009
 1295POPC   C4B20470  18.834   6.878   7.602
 1296POPC   NC320471  23.093   4.028   9.549
 1296POPC   PO420472  22.505   4.350   9.565
 1296POPC   GL120473  22.761   4.283   9.215
 1296POPC   GL220474  22.720   4.611   9.093
 1296POPC   C1A20475  23.133   4.350   8.905
 1296POPC   D2A20476  23.357   4.379   8.480
 1296POPC   C3A20477  23.076   4.365   8.131
 1296POPC   C4A20478  23.056   4.174   7.740
 1296POPC   C1B20479  22.617   4.370   8.723
 1296POPC   C2B20480  22.577   4.320   8.283
 1296POPC   C3B20481  22.615   4.427   7.840
 1296POPC   C4B20482  22.902   4.652   7.531
 1297POPC   NC320483   6.418  19.227   9.240
 1297POPC   PO420484   5.871  18.928   9.588
 1297POPC   GL120485   5.762  18.964   9.104
 1297POPC   GL220486   5.673  18.698   8.916
 1297POPC   C1A20487   5.686  19.131   8.658
 1297POPC   D2A20488   5.589  19.359   8.265
 1297POPC   C3A20489   5.904  19.388   7.943
 1297POPC   C4A20490   5.709  19.412   7.537
 1297POPC   C1B20491   5.775  18.610   8.522
 1297POPC   C2B20492   5.553  18.832   8.198
 1297POPC   C3B20493   5.621  19.003   7.819
 1297POPC   C4B20494   5.812  18.901   7.414
 1298POPC   NC320495  14.933  29.729   9.415
 1298POPC   PO420496  14.239  29.687   9.544
 1298POPC   GL120497  14.476  29.734   9.176
 1298POPC   GL220498  14.545  30.091   9.119
 1298POPC   C1A20499  14.661  29.647   8.783
 1298POPC   D2A20500  14.622  29.459   8.367
 1298POPC   C3A20501  14.396  29.723   8.101
 1298POPC   C4A20502  14.275  30.035   7.808
 1298POPC   C1B20503  14.559  30.152   8.657
 1298POPC   C2B20504  14.573  30.254   8.205
 1298POPC   C3B20505  14.646  30.408   7.779
 1298POPC   C4B20506  14.612  30.252   7.361
 1299POPC   NC320507  28.947  34.803   9.486
 1299POPC   PO420508  29.392  34.207   9.456
 1299POPC   GL120509  29.162  34.438   9.134
 1299POPC   GL220510  29.223  34.803   9.065
 1299POPC   C1A20511  29.170  34.502   8.691
 1299POPC   D2A20512  29.364  34.491   8.329
 1299POPC   C3A20513  29.161  34.606   7.975
 1299POPC   C4A20514  29.054  34.322   7.684
 1299POPC   C1B20515  29.378  35.002   8.689
 1299POPC   C2B20516  29.431  34.973   8.240
 1299POPC   C3B20517  29.375  35.042   7.808
 1299POPC   C4B20518  29.396  34.724   7.475
 1300POPC   NC320519  21.266  39.905   9.472
 1300POPC   PO420520  21.883  40.100   9.425
 1300POPC   GL120521  21.610  39.973   9.104
 1300POPC   GL220522  21.447  40.293   9.172
 1300POPC   C1A20523  21.434  39.975   8.685
 1300POPC   D2A20524  21.286  40.039   8.246
 1300POPC   C3A20525  21.405  39.787   7.896
 1300POPC   C4A20526  21.178  39.622   7.549
 1300POPC   C1B20527  21.663  40.406   8.806
 1300POPC   C2B20528  21.673  40.348   8.348
 1300POPC   C3B20529  21.544  40.296   7.878
 1300POPC   C4B20530  21.649  40.426   7.432
 1301POPC   NC320531  25.046  29.139   9.697
 1301POPC   PO420532  24.403  28.953   9.543
 1301POPC   GL120533  24.449  29.070   9.130
 1301POPC   GL220534  24.789  29.158   9.232
 1301POPC   C1A20535  24.328  29.047   8.706
 1301POPC   D2A20536  24.480  28.791   8.395
 1301POPC   C3A20537  24.574  28.916   7.974
 1301POPC   C4A20538  24.337  28.901   7.600
 1301POPC   C1B20539  24.852  29.039   8.813
 1301POPC   C2B20540  24.767  29.222   8.426
 1301POPC   C3B20541  24.671  29.424   8.049
 1301POPC   C4B20542  24.859  29.303   7.675
 1302POPC   NC320543  23.064  18.277   9.439
 1302POPC   PO420544  22.362  18.397   9.377
 1302POPC   GL120545  22.676  18.167   9.087
 1302POPC   GL220546  22.900  18.427   8.999
 1302POPC   C1A20547  22.907  18.057   8.651
 1302POPC   D2A20548  23.046  17.896   8.217
 1302POPC   C3A20549  22.922  18.153   7.842
 1302POPC   C4A20550  22.744  18.453   7.527
 1302POPC   C1B20551  23.136  18.551   8.664
 1302POPC   C2B20552  23.140  18.394   8.271
 1302POPC   C3B20553  23.295  18.510   7.889
 1302POPC   C4B20554  23.130  18.785   7.571
 1303POPC   NC320555  26.626  14.632   9.263
 1303POPC   PO420556  26.645  15.176   9.732
 1303POPC   GL120557  26.851  15.093   9.309
 1303POPC   GL220558  26.575  15.103   9.121
 1303POPC   C1A20559  27.114  15.112   8.892
 1303POPC   D2A20560  27.020  15.316   8.462
 1303POPC   C3A20561  27.130  15.126   8.047
 1303POPC   C4A20562  27.044  14.783   7.774
 1303POPC   C1B20563  26.663  14.989   8.702
 1303POPC   C2B20564  26.617  15.063   8.313
 1303POPC   C3B20565  26.700  15.416   8.062
 1303POPC   C4B20566  26.789  15.358   7.693
 1304POPC   NC320567  19.977  41.170   9.558
 1304POPC   PO420568  19.817  41.808   9.449
 1304POPC   GL120569  19.640  41.466   9.210
 1304POPC   GL220570  19.938  41.416   9.125
 1304POPC   C1A20571  19.573  41.312   8.773
 1304POPC   D2A20572  19.681  41.184   8.322
 1304POPC   C3A20573  19.721  41.552   8.019
 1304POPC   C4A20574  19.808  41.780   7.649
 1304POPC   C1B20575  20.107  41.378   8.788
 1304POPC   C2B20576  20.083  41.543   8.412
 1304POPC   C3B20577  20.180  41.342   8.056
 1304POPC   C4B20578  20.169  41.432   7.655
 1305POPC   NC320579  22.666  44.855   9.868
 1305POPC   PO420580  23.158  44.558   9.648
 1305POPC   GL120581  23.098  44.473   9.190
 1305POPC   GL220582  22.757  44.502   9.236
 1305POPC   C1A20583  23.137  44.580   8.762
 1305POPC   D2A20584  22.893  44.867   8.545
 1305POPC   C3A20585  22.952  44.949   8.130
 1305POPC   C4A20586  23.243  44.951   7.808
 1305POPC   C1B20587  22.684  44.295   8.859
 1305POPC   C2B20588  22.803  44.200   8.448
 1305POPC   C3B20589  22.692  44.344   8.033
 1305POPC   C4B20590  22.859  44.615   7.740
 1306POPC   NC320591  35.726  41.077   9.185
 1306POPC   PO420592  36.155  40.540   9.505
 1306POPC   GL120593  36.201  40.695   9.120
 1306POPC   GL220594  36.529  40.747   8.965
 1306POPC   C1A20595  36.195  40.478   8.711
 1306POPC   D2A20596  35.942  40.652   8.373
 1306POPC   C3A20597  35.884  40.525   7.966
 1306POPC   C4A20598  36.179  40.571   7.671
 1306POPC   C1B20599  36.205  40.996   8.730
 1306POPC   C2B20600  36.096  41.138   8.398
 1306POPC   C3B20601  36.200  41.031   8.011
 1306POPC   C4B20602  36.294  41.305   7.714
 1307POPC   NC320603  18.558   9.402   9.322
 1307POPC   PO420604  18.517  10.040   9.223
 1307POPC   GL120605  18.176   9.894   9.009
 1307POPC   GL220606  18.060   9.595   9.193
 1307POPC   C1A20607  18.374   9.850   8.604
 1307POPC   D2A20608  18.629   9.662   8.249
 1307POPC   C3A20609  18.318   9.759   7.893
 1307POPC   C4A20610  18.114   9.977   7.531
 1307POPC   C1B20611  18.129   9.420   8.759
 1307POPC   C2B20612  18.150   9.503   8.321
 1307POPC   C3B20613  17.900   9.487   7.981
 1307POPC   C4B20614  17.908   9.498   7.536
 1308POPC   NC320615  18.673  28.699   9.809
 1308POPC   PO420616  18.942  29.250   9.567
 1308POPC   GL120617  18.844  29.148   9.133
 1308POPC   GL220618  18.699  28.816   9.145
 1308POPC   C1A20619  18.934  29.274   8.715
 1308POPC   D2A20620  19.254  29.135   8.428
 1308POPC   C3A20621  19.197  29.250   8.005
 1308POPC   C4A20622  18.793  29.388   7.808
 1308POPC   C1B20623  18.876  28.759   8.762
 1308POPC   C2B20624  18.790  28.655   8.368
 1308POPC   C3B20625  18.811  28.904   8.011
 1308POPC   C4B20626  19.059  28.927   7.644
 1309POPC   NC320627   3.803   5.341   9.465
 1309POPC   PO420628   3.177   5.022   9.597
 1309POPC   GL120629   3.353   4.939   9.204
 1309POPC   GL220630   3.671   4.799   9.339
 1309POPC   C1A20631   3.287   5.106   8.784
 1309POPC   D2A20632   3.523   5.265   8.442
 1309POPC   C3A20633   3.358   5.244   8.071
 1309POPC   C4A20634   3.116   5.237   7.748
 1309POPC   C1B20635   3.754   4.909   8.899
 1309POPC   C2B20636   3.796   4.819   8.461
 1309POPC   C3B20637   3.895   5.067   8.107
 1309POPC   C4B20638   3.709   5.136   7.707
 1310POPC   NC320639   0.678  35.763   9.402
 1310POPC   PO420640   0.201  36.349   9.456
 1310POPC   GL120641   0.326  36.328   9.051
 1310POPC   GL220642   0.628  36.189   9.119
 1310POPC   C1A20643   0.304  36.175   8.636
 1310POPC   D2A20644   0.110  35.820   8.407
 1310POPC   C3A20645   0.143  36.012   8.014
 1310POPC   C4A20646   0.453  36.340   8.019
 1310POPC   C1B20647   0.786  36.014   8.747
 1310POPC   C2B20648   0.629  35.918   8.336
 1310POPC   C3B20649   0.724  35.862   7.942
 1310POPC   C4B20650   0.376  35.652   7.732
 1311POPC   NC320651  18.176  30.962   9.445
 1311POPC   PO420652  18.743  30.857   9.836
 1311POPC   GL120653  18.537  30.634   9.349
 1311POPC   GL220654  18.452  30.873   9.035
 1311POPC   C1A20655  18.256  30.450   8.923
 1311POPC   D2A20656  18.298  30.317   8.489
 1311POPC   C3A20657  18.268  30.479   8.061
 1311POPC   C4A20658  18.402  30.237   7.683
 1311POPC   C1B20659  18.058  30.924   8.806
 1311POPC   C2B20660  17.990  30.730   8.429
 1311POPC   C3B20661  17.937  30.876   8.027
 1311POPC   C4B20662  18.135  30.793   7.639
 1312POPC   NC320663  44.056  35.437   9.484
 1312POPC   PO420664  43.433  35.089   9.371
 1312POPC   GL120665  43.783  35.170   9.135
 1312POPC   GL220666  43.804  35.544   9.033
 1312POPC   C1A20667  43.915  35.144   8.732
 1312POPC   D2A20668  43.851  35.471   8.433
 1312POPC   C3A20669  43.937  35.223   8.082
 1312POPC   C4A20670  43.840  35.317   7.681
 1312POPC   C1B20671  44.219  35.568   8.778
 1312POPC   C2B20672  44.331  35.537   8.304
 1312POPC   C3B20673  44.255  35.615   7.854
 1312POPC   C4B20674  44.215  35.526   7.398
 1313POPC   NC320675   0.271   0.268   9.461
 1313POPC   PO420676   0.312   0.916   9.261
 1313POPC   GL120677   0.478   0.662   8.956
 1313POPC   GL220678   0.233   0.367   8.968
 1313POPC   C1A20679   0.423   0.529   8.527
 1313POPC   D2A20680   0.109   0.274   8.361
 1313POPC   C3A20681   0.127   0.334   7.924
 1313POPC   C4A20682   0.200   0.577   7.550
 1313POPC   C1B20683   0.640   0.180   8.846
 1313POPC   C2B20684   0.622   0.011   8.437
 1313POPC   C3B20685   0.455  44.943   8.048
 1313POPC   C4B20686   0.545   0.206   7.680
 1314POPC   NC320687   9.446  13.371   9.358
 1314POPC   PO420688   9.942  13.810   9.431
 1314POPC   GL120689   9.837  13.570   9.092
 1314POPC   GL220690   9.552  13.790   9.052
 1314POPC   C1A20691   9.696  13.481   8.689
 1314POPC   D2A20692   9.612  13.672   8.296
 1314POPC   C3A20693   9.750  13.432   7.939
 1314POPC   C4A20694   9.997  13.430   7.562
 1314POPC   C1B20695   9.842  13.987   8.739
 1314POPC   C2B20696  10.070  13.906   8.357
 1314POPC   C3B20697   9.936  13.936   7.911
 1314POPC   C4B20698   9.613  13.792   7.591
 1315POPC   NC320699   7.827  36.874   9.965
 1315POPC   PO420700   7.292  36.975   9.543
 1315POPC   GL120701   7.458  36.966   9.132
 1315POPC   GL220702   7.683  36.728   9.048
 1315POPC   C1A20703   7.319  37.135   8.754
 1315POPC   D2A20704   7.150  37.008   8.346
 1315POPC   C3A20705   7.241  37.127   7.931
 1315POPC   C4A20706   7.028  36.850   7.633
 1315POPC   C1B20707   7.496  36.663   8.666
 1315POPC   C2B20708   7.525  36.676   8.265
 1315POPC   C3B20709   7.407  36.633   7.887
 1315POPC   C4B20710   7.523  36.917   7.558
 1316POPC   NC320711  32.822  40.119   9.344
 1316POPC   PO420712  33.486  40.203   9.556
 1316POPC   GL120713  33.294  40.039   9.188
 1316POPC   GL220714  33.125  39.739   9.161
 1316POPC   C1A20715  33.177  40.160   8.781
 1316POPC   D2A20716  33.022  40.294   8.403
 1316POPC   C3A20717  33.136  40.014   8.086
 1316POPC   C4A20718  33.391  40.188   7.771
 1316POPC   C1B20719  32.976  39.669   8.741
 1316POPC   C2B20720  32.711  39.884   8.435
 1316POPC   C3B20721  32.634  40.107   8.036
 1316POPC   C4B20722  32.867  39.887   7.670
 1317POPC   NC320723   3.487  14.118   9.457
 1317POPC   PO420724   3.753  14.737   9.635
 1317POPC   GL120725   3.659  14.597   9.194
 1317POPC   GL220726   3.721  14.261   9.041
 1317POPC   C1A20727   3.388  14.606   8.812
 1317POPC   D2A20728   3.316  14.844   8.422
 1317POPC   C3A20729   3.294  14.653   8.045
 1317POPC   C4A20730   3.670  14.729   7.864
 1317POPC   C1B20731   3.420  14.078   8.765
 1317POPC   C2B20732   3.368  14.183   8.341
 1317POPC   C3B20733   3.640  14.228   7.994
 1317POPC   C4B20734   3.912  13.934   7.768
 1318POPC   NC320735  36.559  28.449   9.545
 1318POPC   PO420736  35.966  28.165   9.708
 1318POPC   GL120737  36.048  28.257   9.246
 1318POPC   GL220738  36.377  28.393   9.095
 1318POPC   C1A20739  35.938  28.457   8.857
 1318POPC   D2A20740  36.237  28.662   8.612
 1318POPC   C3A20741  36.217  28.605   8.150
 1318POPC   C4A20742  35.993  28.448   7.763
 1318POPC   C1B20743  36.369  28.147   8.777
 1318POPC   C2B20744  36.174  28.103   8.401
 1318POPC   C3B20745  36.275  28.034   7.978
 1318POPC   C4B20746  36.531  28.351   7.827
 1319POPC   NC320747   1.277  19.557   9.417
 1319POPC   PO420748   1.244  20.214   9.482
 1319POPC   GL120749   1.086  20.195   9.069
 1319POPC   GL220750   1.060  19.862   9.082
 1319POPC   C1A20751   1.229  20.108   8.629
 1319POPC   D2A20752   1.653  20.047   8.412
 1319POPC   C3A20753   1.612  20.010   7.957
 1319POPC   C4A20754   1.261  19.954   7.702
 1319POPC   C1B20755   1.004  19.569   8.783
 1319POPC   C2B20756   0.899  19.749   8.422
 1319POPC   C3B20757   1.004  19.677   8.031
 1319POPC   C4B20758   0.806  19.629   7.659
 1320POPC   NC320759  13.928  28.581   9.404
 1320POPC   PO420760  13.385  28.147   9.528
 1320POPC   GL120761  13.454  28.342   9.142
 1320POPC   GL220762  13.700  28.163   9.009
 1320POPC   C1A20763  13.574  28.512   8.693
 1320POPC   D2A20764  13.737  28.285   8.335
 1320POPC   C3A20765  13.640  28.511   7.979
 1320POPC   C4A20766  13.792  28.636   7.584
 1320POPC   C1B20767  13.340  28.049   8.748
 1320POPC   C2B20768  13.241  28.258   8.382
 1320POPC   C3B20769  13.308  28.093   8.011
 1320POPC   C4B20770  13.742  28.013   7.905
 1321POPC   NC320771   1.634   1.495   9.607
 1321POPC   PO420772   1.228   1.005   9.365
 1321POPC   GL120773   1.296   1.417   9.214
 1321POPC   GL220774   0.987   1.452   9.089
 1321POPC   C1A20775   1.429   1.519   8.799
 1321POPC   D2A20776   1.600   1.333   8.410
 1321POPC   C3A20777   1.345   1.302   8.011
 1321POPC   C4A20778   1.374   0.914   7.717
 1321POPC   C1B20779   1.017   1.214   8.719
 1321POPC   C2B20780   0.877   1.261   8.318
 1321POPC   C3B20781   0.913   1.049   7.937
 1321POPC   C4B20782   0.923   1.335   7.613
 1322POPC   NC320783   1.069  29.052   9.558
 1322POPC   PO420784   1.189  29.642   9.485
 1322POPC   GL120785   1.212  29.330   9.148
 1322POPC   GL220786   0.888  29.219   9.104
 1322POPC   C1A20787   1.258  29.044   8.777
 1322POPC   D2A20788   1.384  28.844   8.398
 1322POPC   C3A20789   1.360  29.069   8.032
 1322POPC   C4A20790   1.567  28.972   7.677
 1322POPC   C1B20791   0.774  29.276   8.699
 1322POPC   C2B20792   0.926  29.144   8.301
 1322POPC   C3B20793   0.878  29.071   7.854
 1322POPC   C4B20794   1.086  28.867   7.510
 1323POPC   NC320795   9.683   6.605   9.530
 1323POPC   PO420796   9.637   7.211   9.775
 1323POPC   GL120797   9.619   7.007   9.237
 1323POPC   GL220798   9.671   6.650   9.036
 1323POPC   C1A20799   9.631   7.041   8.730
 1323POPC   D2A20800   9.506   6.840   8.324
 1323POPC   C3A20801   9.764   6.881   7.938
 1323POPC   C4A20802   9.914   6.801   7.542
 1323POPC   C1B20803   9.921   6.518   8.666
 1323POPC   C2B20804   9.907   6.488   8.214
 1323POPC   C3B20805   9.697   6.374   7.810
 1323POPC   C4B20806   9.931   6.300   7.426
 1324POPC   NC320807  33.421  33.744   9.506
 1324POPC   PO420808  34.006  33.686   9.762
 1324POPC   GL120809  33.900  33.880   9.332
 1324POPC   GL220810  34.145  33.816   9.079
 1324POPC   C1A20811  33.719  34.113   8.950
 1324POPC   D2A20812  33.598  34.123   8.494
 1324POPC   C3A20813  33.812  34.127   8.087
 1324POPC   C4A20814  33.658  34.056   7.683
 1324POPC   C1B20815  33.785  33.632   8.807
 1324POPC   C2B20816  33.728  33.627   8.354
 1324POPC   C3B20817  33.575  33.620   7.952
 1324POPC   C4B20818  33.616  33.255   7.700
 1325POPC   NC320819  24.723  39.346   9.586
 1325POPC   PO420820  24.153  39.845   9.362
 1325POPC   GL120821  24.239  39.494   9.064
 1325POPC   GL220822  24.329  39.178   9.185
 1325POPC   C1A20823  24.545  39.305   8.743
 1325POPC   D2A20824  24.834  39.230   8.386
 1325POPC   C3A20825  24.626  39.099   8.024
 1325POPC   C4A20826  24.783  38.992   7.640
 1325POPC   C1B20827  24.227  38.883   8.839
 1325POPC   C2B20828  24.352  38.837   8.395
 1325POPC   C3B20829  24.212  38.782   7.942
 1325POPC   C4B20830  24.324  38.786   7.485
 1326POPC   NC320831  16.280  12.402   9.464
 1326POPC   PO420832  15.805  11.883   9.542
 1326POPC   GL120833  16.033  11.974   9.125
 1326POPC   GL220834  16.269  12.256   8.983
 1326POPC   C1A20835  15.861  12.141   8.695
 1326POPC   D2A20836  15.606  12.083   8.315
 1326POPC   C3A20837  15.771  12.195   7.872
 1326POPC   C4A20838  15.978  11.999   7.455
 1326POPC   C1B20839  16.358  12.174   8.546
 1326POPC   C2B20840  16.109  12.272   8.253
 1326POPC   C3B20841  15.858  12.602   8.184
 1326POPC   C4B20842  15.995  12.664   7.785
 1327POPC   NC320843  31.266   9.088   9.623
 1327POPC   PO420844  30.740   9.350   9.840
 1327POPC   GL120845  30.802   9.186   9.362
 1327POPC   GL220846  30.974   8.882   9.230
 1327POPC   C1A20847  30.722   9.184   8.866
 1327POPC   D2A20848  30.839   9.369   8.423
 1327POPC   C3A20849  30.724   9.144   8.026
 1327POPC   C4A20850  30.991   8.873   7.792
 1327POPC   C1B20851  31.222   9.099   8.880
 1327POPC   C2B20852  31.312   9.118   8.430
 1327POPC   C3B20853  31.219   9.312   8.028
 1327POPC   C4B20854  31.354   9.214   7.627
 1328POPC   NC320855  21.356   2.165   9.567
 1328POPC   PO420856  21.228   1.559   9.444
 1328POPC   GL120857  21.563   1.689   9.158
 1328POPC   GL220858  21.522   2.012   9.136
 1328POPC   C1A20859  21.644   1.733   8.741
 1328POPC   D2A20860  21.379   1.820   8.420
 1328POPC   C3A20861  21.626   1.834   8.101
 1328POPC   C4A20862  21.403   1.803   7.758
 1328POPC   C1B20863  21.308   2.160   8.790
 1328POPC   C2B20864  21.179   2.367   8.440
 1328POPC   C3B20865  21.245   2.202   8.047
 1328POPC   C4B20866  21.282   2.324   7.627
 1329POPC   NC320867   4.954  20.218   9.566
 1329POPC   PO420868   5.529  20.197   9.312
 1329POPC   GL120869   5.152  20.350   9.098
 1329POPC   GL220870   4.769  20.454   9.159
 1329POPC   C1A20871   5.137  20.333   8.664
 1329POPC   D2A20872   5.159  20.735   8.448
 1329POPC   C3A20873   5.041  20.865   8.050
 1329POPC   C4A20874   5.184  20.946   7.599
 1329POPC   C1B20875   4.575  20.341   8.798
 1329POPC   C2B20876   4.726  20.439   8.384
 1329POPC   C3B20877   5.098  20.331   8.137
 1329POPC   C4B20878   5.108  20.473   7.733
 1330POPC   NC320879  30.245  25.512   9.264
 1330POPC   PO420880  29.776  25.071   9.432
 1330POPC   GL120881  29.850  25.152   9.033
 1330POPC   GL220882  29.737  25.464   9.000
 1330POPC   C1A20883  29.615  25.153   8.628
 1330POPC   D2A20884  29.739  25.032   8.262
 1330POPC   C3A20885  29.879  25.179   7.894
 1330POPC   C4A20886  30.135  24.820   7.716
 1330POPC   C1B20887  30.027  25.440   8.635
 1330POPC   C2B20888  30.105  25.595   8.234
 1330POPC   C3B20889  30.299  25.509   7.859
 1330POPC   C4B20890  30.138  25.348   7.491
 1331POPC   NC320891  22.522  36.501   9.535
 1331POPC   PO420892  22.953  36.032   9.653
 1331POPC   GL120893  22.986  35.968   9.204
 1331POPC   GL220894  22.630  36.063   9.139
 1331POPC   C1A20895  22.916  35.836   8.754
 1331POPC   D2A20896  23.048  35.733   8.339
 1331POPC   C3A20897  22.866  36.019   8.039
 1331POPC   C4A20898  22.951  36.194   7.661
 1331POPC   C1B20899  22.364  35.966   8.787
 1331POPC   C2B20900  22.512  35.881   8.378
 1331POPC   C3B20901  22.404  35.865   7.926
 1331POPC   C4B20902  22.619  35.841   7.529
 1332POPC   NC320903  36.755  34.669   9.495
 1332POPC   PO420904  37.246  34.257   9.293
 1332POPC   GL120905  37.089  34.631   9.116
 1332POPC   GL220906  36.752  34.462   9.037
 1332POPC   C1A20907  36.871  34.861   8.789
 1332POPC   D2A20908  36.626  34.626   8.527
 1332POPC   C3A20909  36.879  34.538   8.180
 1332POPC   C4A20910  36.824  34.597   7.746
 1332POPC   C1B20911  37.047  34.384   8.691
 1332POPC   C2B20912  37.351  34.433   8.413
 1332POPC   C3B20913  37.267  34.239   8.023
 1332POPC   C4B20914  36.934  34.090   7.820
 1333POPC   NC320915  20.449  12.280   9.428
 1333POPC   PO420916  20.927  11.845   9.520
 1333POPC   GL120917  20.887  12.127   9.192
 1333POPC   GL220918  20.921  12.504   9.236
 1333POPC   C1A20919  20.794  12.002   8.808
 1333POPC   D2A20920  20.614  11.732   8.536
 1333POPC   C3A20921  20.758  11.838   8.130
 1333POPC   C4A20922  20.543  11.854   7.750
 1333POPC   C1B20923  20.642  12.504   8.852
 1333POPC   C2B20924  20.510  12.268   8.480
 1333POPC   C3B20925  20.527  12.312   8.033
 1333POPC   C4B20926  20.217  12.255   7.717
 1334POPC   NC320927   3.268   6.168   9.291
 1334POPC   PO420928   3.851   5.794   9.345
 1334POPC   GL120929   3.518   5.758   9.069
 1334POPC   GL220930   3.434   5.437   9.117
 1334POPC   C1A20931   3.315   5.805   8.677
 1334POPC   D2A20932   3.349   6.180   8.408
 1334POPC   C3A20933   3.458   6.023   8.011
 1334POPC   C4A20934   3.793   6.049   7.736
 1334POPC   C1B20935   3.813   5.436   8.808
 1334POPC   C2B20936   3.800   5.701   8.438
 1334POPC   C3B20937   3.780   5.578   8.027
 1334POPC   C4B20938   3.483   5.600   7.709
 1335POPC   NC320939  19.451  37.772   9.360
 1335POPC   PO420940  19.016  37.372   9.696
 1335POPC   GL120941  18.972  37.525   9.241
 1335POPC   GL220942  19.015  37.881   9.138
 1335POPC   C1A20943  18.775  37.513   8.818
 1335POPC   D2A20944  18.949  37.454   8.413
 1335POPC   C3A20945  18.806  37.651   8.039
 1335POPC   C4A20946  18.878  37.684   7.612
 1335POPC   C1B20947  19.218  37.765   8.736
 1335POPC   C2B20948  19.151  37.920   8.331
 1335POPC   C3B20949  19.282  37.833   7.928
 1335POPC   C4B20950  19.388  37.776   7.518
 1336POPC   NC320951  19.939  21.580   9.531
 1336POPC   PO420952  20.126  20.998   9.562
 1336POPC   GL120953  19.990  21.180   9.191
 1336POPC   GL220954  20.021  21.527   9.051
 1336POPC   C1A20955  19.830  21.134   8.788
 1336POPC   D2A20956  19.855  21.404   8.450
 1336POPC   C3A20957  19.975  21.250   8.059
 1336POPC   C4A20958  19.852  21.390   7.647
 1336POPC   C1B20959  20.153  21.746   8.687
 1336POPC   C2B20960  20.323  21.573   8.293
 1336POPC   C3B20961  20.273  21.578   7.820
 1336POPC   C4B20962  20.251  21.665   7.356
 1337POPC   NC320963  26.388  43.668   9.198
 1337POPC   PO420964  26.724  44.175   9.504
 1337POPC   GL120965  26.797  43.972   9.105
 1337POPC   GL220966  27.044  43.715   9.079
 1337POPC   C1A20967  26.614  44.073   8.689
 1337POPC   D2A20968  26.623  44.114   8.245
 1337POPC   C3A20969  26.903  43.818   8.100
 1337POPC   C4A20970  27.196  43.818   7.789
 1337POPC   C1B20971  26.839  43.597   8.688
 1337POPC   C2B20972  26.772  43.361   8.313
 1337POPC   C3B20973  26.527  43.467   7.973
 1337POPC   C4B20974  26.608  43.792   7.646
 1338POPC   NC320975  28.370  14.018   9.577
 1338POPC   PO420976  28.906  14.449   9.547
 1338POPC   GL120977  28.594  14.547   9.217
 1338POPC   GL220978  28.334  14.268   9.150
 1338POPC   C1A20979  28.416  14.596   8.797
 1338POPC   D2A20980  28.265  14.290   8.499
 1338POPC   C3A20981  28.275  14.507   8.136
 1338POPC   C4A20982  28.349  14.423   7.729
 1338POPC   C1B20983  28.697  14.119   8.927
 1338POPC   C2B20984  28.692  13.983   8.530
 1338POPC   C3B20985  28.613  14.092   8.109
 1338POPC   C4B20986  28.818  14.193   7.730
 1339POPC   NC320987  20.024  44.042   9.813
 1339POPC   PO420988  20.342  43.529   9.574
 1339POPC   GL120989  19.915  43.564   9.382
 1339POPC   GL220990  19.914  43.899   9.263
 1339POPC   C1A20991  19.682  43.587   8.962
 1339POPC   D2A20992  19.741  43.818   8.566
 1339POPC   C3A20993  19.817  43.556   8.233
 1339POPC   C4A20994  19.672  43.745   7.855
 1339POPC   C1B20995  20.096  44.046   8.840
 1339POPC   C2B20996  20.171  44.238   8.467
 1339POPC   C3B20997  19.963  44.057   8.142
 1339POPC   C4B20998  20.009  44.126   7.730
 1340POPC   NC320999  23.906  31.218   9.483
 1340POPC   PO421000  23.377  31.569   9.762
 1340POPC   GL121001  23.465  31.561   9.298
 1340POPC   GL221002  23.796  31.573   9.137
 1340POPC   C1A21003  23.348  31.659   8.886
 1340POPC   D2A21004  23.253  31.814   8.480
 1340POPC   C3A21005  23.512  31.642   8.187
 1340POPC   C4A21006  23.412  31.431   7.831
 1340POPC   C1B21007  23.837  31.552   8.708
 1340POPC   C2B21008  24.044  31.560   8.324
 1340POPC   C3B21009  23.898  31.405   7.955
 1340POPC   C4B21010  23.796  31.510   7.511
 1341POPC   NC321011   2.135  26.441   9.409
 1341POPC   PO421012   1.852  27.135   9.470
 1341POPC   GL121013   2.172  27.072   9.155
 1341POPC   GL221014   1.958  26.784   9.050
 1341POPC   C1A21015   2.273  26.979   8.709
 1341POPC   D2A21016   2.062  26.711   8.474
 1341POPC   C3A21017   2.279  26.792   8.126
 1341POPC   C4A21018   2.214  26.789   7.694
 1341POPC   C1B21019   1.735  26.466   8.809
 1341POPC   C2B21020   1.727  26.317   8.384
 1341POPC   C3B21021   1.920  26.445   7.971
 1341POPC   C4B21022   1.765  26.582   7.594
 1342POPC   NC321023  24.520  40.228   9.306
 1342POPC   PO421024  24.880  39.800   9.640
 1342POPC   GL121025  24.697  39.750   9.149
 1342POPC   GL221026  24.396  39.946   8.912
 1342POPC   C1A21027  24.808  39.779   8.670
 1342POPC   D2A21028  24.594  40.100   8.411
 1342POPC   C3A21029  24.665  40.152   7.980
 1342POPC   C4A21030  24.323  40.219   7.690
 1342POPC   C1B21031  24.285  39.701   8.545
 1342POPC   C2B21032  24.549  39.618   8.178
 1342POPC   C3B21033  24.632  39.692   7.736
 1342POPC   C4B21034  24.760  40.059   7.464
 1343POPC   NC321035  34.850  33.151   9.438
 1343POPC   PO421036  34.389  32.784   9.745
 1343POPC   GL121037  34.343  32.957   9.222
 1343POPC   GL221038  34.624  33.112   9.003
 1343POPC   C1A21039  34.320  32.847   8.739
 1343POPC   D2A21040  34.572  33.005   8.417
 1343POPC   C3A21041  34.416  32.904   8.026
 1343POPC   C4A21042  34.647  32.827   7.660
 1343POPC   C1B21043  34.963  33.351   8.795
 1343POPC   C2B21044  34.919  33.390   8.368
 1343POPC   C3B21045  34.666  33.360   7.999
 1343POPC   C4B21046  34.833  33.433   7.593
 1344POPC   NC321047  19.655  38.509   9.302
 1344POPC   PO421048  20.162  38.570   9.658
 1344POPC   GL121049  20.151  38.405   9.174
 1344POPC   GL221050  19.933  38.132   9.115
 1344POPC   C1A21051  20.029  38.334   8.669
 1344POPC   D2A21052  19.776  38.619   8.373
 1344POPC   C3A21053  19.832  38.689   7.904
 1344POPC   C4A21054  19.553  38.576   7.569
 1344POPC   C1B21055  19.585  38.111   8.809
 1344POPC   C2B21056  19.635  38.038   8.395
 1344POPC   C3B21057  19.592  38.242   8.002
 1344POPC   C4B21058  19.792  38.116   7.619
 1345POPC   NC321059  36.570  40.013   9.405
 1345POPC   PO421060  37.057  39.587   9.436
 1345POPC   GL121061  36.923  39.741   9.042
 1345POPC   GL221062  36.592  39.676   9.047
 1345POPC   C1A21063  37.010  39.920   8.612
 1345POPC   D2A21064  37.185  39.853   8.151
 1345POPC   C3A21065  37.059  40.050   7.726
 1345POPC   C4A21066  37.280  40.211   7.310
 1345POPC   C1B21067  36.487  40.026   8.755
 1345POPC   C2B21068  36.619  40.174   8.355
 1345POPC   C3B21069  36.671  39.880   8.034
 1345POPC   C4B21070  36.663  39.720   7.633
 1346POPC   NC321071  44.976  18.418   9.684
 1346POPC   PO421072   0.528  18.096   9.584
 1346POPC   GL121073   0.477  18.327   9.230
 1346POPC   GL221074   0.703  18.109   9.089
 1346POPC   C1A21075   0.351  18.420   8.805
 1346POPC   D2A21076   0.550  18.306   8.417
 1346POPC   C3A21077   0.413  18.430   8.020
 1346POPC   C4A21078   0.132  18.324   7.705
 1346POPC   C1B21079   0.718  17.905   8.731
 1346POPC   C2B21080   0.988  18.035   8.411
 1346POPC   C3B21081   0.874  18.173   7.997
 1346POPC   C4B21082   0.543  18.006   7.761
 1347POPC   NC321083   0.734  25.216   9.551
 1347POPC   PO421084   0.104  25.567   9.606
 1347POPC   GL121085   0.327  25.345   9.252
 1347POPC   GL221086   0.362  24.960   9.229
 1347POPC   C1A21087   0.428  25.294   8.823
 1347POPC   D2A21088   0.174  25.305   8.477
 1347POPC   C3A21089   0.397  25.378   8.110
 1347POPC   C4A21090   0.348  25.591   7.713
 1347POPC   C1B21091   0.094  24.895   8.843
 1347POPC   C2B21092  44.977  24.846   8.400
 1347POPC   C3B21093  44.952  25.121   8.024
 1347POPC   C4B21094   0.027  24.994   7.586
 1348POPC   NC321095  21.557  19.148   9.624
 1348POPC   PO421096  21.053  18.899   9.762
 1348POPC   GL121097  21.069  18.864   9.306
 1348POPC   GL221098  21.389  18.897   9.183
 1348POPC   C1A21099  20.955  19.039   8.901
 1348POPC   D2A21100  20.978  19.328   8.513
 1348POPC   C3A21101  21.142  19.178   8.103
 1348POPC   C4A21102  20.956  19.011   7.735
 1348POPC   C1B21103  21.642  18.878   8.824
 1348POPC   C2B21104  21.775  19.003   8.424
 1348POPC   C3B21105  21.567  18.886   8.095
 1348POPC   C4B21106  21.466  18.977   7.697
 1349POPC   NC321107  26.095   0.931   9.422
 1349POPC   PO421108  25.910   1.536   9.662
 1349POPC   GL121109  25.823   1.428   9.186
 1349POPC   GL221110  26.041   1.588   8.971
 1349POPC   C1A21111  25.880   1.172   8.778
 1349POPC   D2A21112  26.033   0.839   8.515
 1349POPC   C3A21113  26.046   0.850   8.087
 1349POPC   C4A21114  25.912   1.147   7.800
 1349POPC   C1B21115  26.315   1.380   8.636
 1349POPC   C2B21116  26.113   1.321   8.281
 1349POPC   C3B21117  26.098   1.623   7.983
 1349POPC   C4B21118  26.436   1.431   7.780
 1350POPC   NC321119  43.528  34.621   9.442
 1350POPC   PO421120  44.098  34.737   9.622
 1350POPC   GL121121  43.993  34.695   9.187
 1350POPC   GL221122  44.286  34.909   9.113
 1350POPC   C1A21123  43.680  34.660   8.804
 1350POPC   D2A21124  43.656  34.353   8.423
 1350POPC   C3A21125  43.592  34.583   8.017
 1350POPC   C4A21126  43.788  34.818   7.689
 1350POPC   C1B21127  44.205  34.673   8.731
 1350POPC   C2B21128  43.939  34.760   8.375
 1350POPC   C3B21129  44.148  34.704   8.032
 1350POPC   C4B21130  44.370  34.665   7.676
 1351POPC   NC321131  32.505  44.180   9.349
 1351POPC   PO421132  32.230  43.704   9.703
 1351POPC   GL121133  32.180  43.680   9.270
 1351POPC   GL221134  32.492  43.696   9.176
 1351POPC   C1A21135  32.138  43.886   8.853
 1351POPC   D2A21136  32.179  44.018   8.427
 1351POPC   C3A21137  31.991  43.832   8.085
 1351POPC   C4A21138  31.916  44.017   7.684
 1351POPC   C1B21139  32.430  43.452   8.850
 1351POPC   C2B21140  32.163  43.476   8.524
 1351POPC   C3B21141  32.198  43.354   8.135
 1351POPC   C4B21142  32.284  43.510   7.755
 1352POPC   NC321143  10.520  37.739   9.791
 1352POPC   PO421144  10.302  37.262   9.444
 1352POPC   GL121145  10.522  37.595   9.225
 1352POPC   GL221146  10.287  37.819   9.047
 1352POPC   C1A21147  10.658  37.629   8.762
 1352POPC   D2A21148  10.371  37.549   8.383
 1352POPC   C3A21149  10.562  37.556   7.956
 1352POPC   C4A21150  10.878  37.636   7.653
 1352POPC   C1B21151  10.325  38.001   8.693
 1352POPC   C2B21152  10.595  37.992   8.355
 1352POPC   C3B21153  10.376  38.021   7.984
 1352POPC   C4B21154  10.478  37.933   7.558
 1353POPC   NC321155  15.621   3.547   9.570
 1353POPC   PO421156  16.298   3.817   9.581
 1353POPC   GL121157  16.043   3.673   9.205
 1353POPC   GL221158  15.685   3.747   9.105
 1353POPC   C1A21159  16.268   3.614   8.816
 1353POPC   D2A21160  16.219   3.729   8.379
 1353POPC   C3A21161  16.233   3.390   8.069
 1353POPC   C4A21162  15.972   3.365   7.703
 1353POPC   C1B21163  15.770   3.581   8.675
 1353POPC   C2B21164  15.771   3.498   8.214
 1353POPC   C3B21165  15.654   3.754   7.841
 1353POPC   C4B21166  15.610   3.824   7.371
 1354POPC   NC321167  12.517  12.789   9.598
 1354POPC   PO421168  12.996  13.145   9.397
 1354POPC   GL121169  13.000  12.889   9.076
 1354POPC   GL221170  12.844  12.609   9.214
 1354POPC   C1A21171  12.834  12.870   8.655
 1354POPC   D2A21172  12.623  12.953   8.246
 1354POPC   C3A21173  12.874  13.075   7.871
 1354POPC   C4A21174  12.916  13.123   7.397
 1354POPC   C1B21175  12.564  12.485   8.867
 1354POPC   C2B21176  12.681  12.432   8.421
 1354POPC   C3B21177  12.809  12.556   8.005
 1354POPC   C4B21178  12.690  12.491   7.594
 1355POPC   NC321179  16.381  16.095   9.272
 1355POPC   PO421180  16.956  16.059   9.593
 1355POPC   GL121181  16.922  15.989   9.176
 1355POPC   GL221182  17.200  16.257   9.152
 1355POPC   C1A21183  16.713  15.810   8.790
 1355POPC   D2A21184  16.620  15.590   8.407
 1355POPC   C3A21185  16.778  15.702   8.030
 1355POPC   C4A21186  16.821  15.931   7.668
 1355POPC   C1B21187  17.120  16.155   8.744
 1355POPC   C2B21188  16.956  16.026   8.391
 1355POPC   C3B21189  17.162  16.021   8.026
 1355POPC   C4B21190  17.113  16.350   7.783
 1356POPC   NC321191  42.816   5.142   9.552
 1356POPC   PO421192  43.462   4.866   9.630
 1356POPC   GL121193  43.240   4.812   9.199
 1356POPC   GL221194  43.119   5.145   9.140
 1356POPC   C1A21195  43.020   4.832   8.756
 1356POPC   D2A21196  42.777   4.940   8.362
 1356POPC   C3A21197  43.024   4.848   7.997
 1356POPC   C4A21198  43.092   5.110   7.646
 1356POPC   C1B21199  43.378   5.234   8.787
 1356POPC   C2B21200  43.286   5.157   8.363
 1356POPC   C3B21201  43.447   5.312   7.939
 1356POPC   C4B21202  43.561   5.247   7.482
 1357POPC   NC321203   9.373  41.329   9.386
 1357POPC   PO421204  10.034  41.452   9.597
 1357POPC   GL121205   9.796  41.616   9.233
 1357POPC   GL221206   9.871  41.275   9.122
 1357POPC   C1A21207   9.618  41.542   8.792
 1357POPC   D2A21208   9.780  41.433   8.411
 1357POPC   C3A21209   9.809  41.631   8.003
 1357POPC   C4A21210   9.487  41.701   7.696
 1357POPC   C1B21211  10.089  41.130   8.744
 1357POPC   C2B21212  10.001  40.991   8.328
 1357POPC   C3B21213  10.041  41.183   7.967
 1357POPC   C4B21214   9.868  41.318   7.582
 1358POPC   NC321215  44.594  26.670   9.652
 1358POPC   PO421216  44.273  27.191   9.438
 1358POPC   GL121217  44.646  26.958   9.230
 1358POPC   GL221218  44.664  26.595   9.154
 1358POPC   C1A21219  44.875  26.933   8.842
 1358POPC   D2A21220  44.720  27.052   8.462
 1358POPC   C3A21221  44.916  26.925   8.093
 1358POPC   C4A21222  44.772  26.974   7.673
 1358POPC   C1B21223  44.493  26.575   8.746
 1358POPC   C2B21224  44.615  26.578   8.338
 1358POPC   C3B21225  44.518  26.603   7.923
 1358POPC   C4B21226  44.811  26.453   7.610
 1359POPC   NC321227  28.922  14.897   9.440
 1359POPC   PO421228  28.378  15.117   9.767
 1359POPC   GL121229  28.551  15.365   9.385
 1359POPC   GL221230  28.527  15.081   9.165
 1359POPC   C1A21231  28.622  15.512   8.923
 1359POPC   D2A21232  28.602  15.481   8.453
 1359POPC   C3A21233  28.230  15.362   8.209
 1359POPC   C4A21234  28.222  15.329   7.765
 1359POPC   C1B21235  28.712  15.015   8.758
 1359POPC   C2B21236  28.535  14.956   8.355
 1359POPC   C3B21237  28.660  15.127   7.961
 1359POPC   C4B21238  28.516  14.899   7.598
 1360POPC   NC321239  15.380  17.245   9.461
 1360POPC   PO421240  14.874  17.519   9.777
 1360POPC   GL121241  15.128  17.643   9.273
 1360POPC   GL221242  15.268  17.357   8.979
 1360POPC   C1A21243  15.403  17.814   8.867
 1360POPC   D2A21244  15.576  17.746   8.418
 1360POPC   C3A21245  15.376  17.478   8.074
 1360POPC   C4A21246  15.081  17.644   7.738
 1360POPC   C1B21247  15.130  17.459   8.557
 1360POPC   C2B21248  14.870  17.502   8.185
 1360POPC   C3B21249  14.799  17.230   7.823
 1360POPC   C4B21250  14.835  17.362   7.370
 1361POPC   NC321251  21.593  38.854   9.458
 1361POPC   PO421252  21.486  39.524   9.662
 1361POPC   GL121253  21.572  39.346   9.245
 1361POPC   GL221254  21.298  39.101   9.112
 1361POPC   C1A21255  21.610  39.504   8.824
 1361POPC   D2A21256  21.307  39.533   8.466
 1361POPC   C3A21257  21.212  39.169   8.218
 1361POPC   C4A21258  21.407  39.240   7.817
 1361POPC   C1B21259  21.587  38.990   8.777
 1361POPC   C2B21260  21.729  39.080   8.341
 1361POPC   C3B21261  21.721  38.877   7.928
 1361POPC   C4B21262  21.618  38.881   7.471
 1362POPC   NC321263   5.475  20.624   9.457
 1362POPC   PO421264   6.146  20.490   9.603
 1362POPC   GL121265   6.219  20.428   9.173
 1362POPC   GL221266   5.870  20.498   9.109
 1362POPC   C1A21267   6.161  20.402   8.715
 1362POPC   D2A21268   6.067  20.186   8.339
 1362POPC   C3A21269   6.256  20.345   7.951
 1362POPC   C4A21270   6.038  20.708   7.724
 1362POPC   C1B21271   5.580  20.615   8.762
 1362POPC   C2B21272   5.586  20.487   8.314
 1362POPC   C3B21273   5.529  20.708   7.932
 1362POPC   C4B21274   5.554  21.162   7.878
 1363POPC   NC321275  39.585  32.836   9.491
 1363POPC   PO421276  39.159  33.339   9.428
 1363POPC   GL121277  39.140  33.162   9.067
 1363POPC   GL221278  39.506  33.154   9.082
 1363POPC   C1A21279  38.964  33.038   8.659
 1363POPC   D2A21280  39.101  32.754   8.316
 1363POPC   C3A21281  38.911  32.933   7.961
 1363POPC   C4A21282  38.633  33.268   7.836
 1363POPC   C1B21283  39.461  32.920   8.724
 1363POPC   C2B21284  39.435  33.114   8.345
 1363POPC   C3B21285  39.417  33.035   7.933
 1363POPC   C4B21286  39.522  33.077   7.511
 1364POPC   NC321287  10.666  11.687   9.434
 1364POPC   PO421288  10.863  11.011   9.308
 1364POPC   GL121289  10.724  11.303   9.024
 1364POPC   GL221290  10.921  11.585   8.986
 1364POPC   C1A21291  10.613  11.332   8.579
 1364POPC   D2A21292  10.278  11.123   8.319
 1364POPC   C3A21293  10.367  11.072   7.885
 1364POPC   C4A21294  10.106  11.012   7.520
 1364POPC   C1B21295  11.016  11.695   8.580
 1364POPC   C2B21296  10.791  11.670   8.204
 1364POPC   C3B21297  10.566  11.604   7.831
 1364POPC   C4B21298  10.134  11.511   7.715
 1365POPC   NC321299  34.652  14.653   9.615
 1365POPC   PO421300  34.203  15.180   9.636
 1365POPC   GL121301  34.457  15.232   9.244
 1365POPC   GL221302  34.665  14.960   9.197
 1365POPC   C1A21303  34.460  15.180   8.794
 1365POPC   D2A21304  34.495  14.910   8.439
 1365POPC   C3A21305  34.652  15.133   8.111
 1365POPC   C4A21306  34.419  15.206   7.766
 1365POPC   C1B21307  34.983  15.075   8.881
 1365POPC   C2B21308  35.221  15.267   8.510
 1365POPC   C3B21309  35.162  15.333   8.044
 1365POPC   C4B21310  34.914  15.229   7.644
 1366POPC   NC321311  21.409  30.469   9.507
 1366POPC   PO421312  21.550  31.157   9.493
 1366POPC   GL121313  21.496  30.914   9.136
 1366POPC   GL221314  21.175  30.817   9.141
 1366POPC   C1A21315  21.416  30.794   8.696
 1366POPC   D2A21316  21.639  30.652   8.357
 1366POPC   C3A21317  21.458  30.869   8.006
 1366POPC   C4A21318  21.508  30.655   7.625
 1366POPC   C1B21319  21.126  30.445   8.909
 1366POPC   C2B21320  21.129  30.440   8.456
 1366POPC   C3B21321  21.324  30.381   8.050
 1366POPC   C4B21322  21.198  30.199   7.682
 1367POPC   NC321323   8.337  20.421   9.986
 1367POPC   PO421324   7.888  20.557   9.568
 1367POPC   GL121325   8.156  20.417   9.216
 1367POPC   GL221326   8.476  20.595   9.048
 1367POPC   C1A21327   8.156  20.247   8.817
 1367POPC   D2A21328   8.170  20.505   8.464
 1367POPC   C3A21329   8.178  20.398   8.064
 1367POPC   C4A21330   7.974  20.532   7.694
 1367POPC   C1B21331   8.548  20.790   8.621
 1367POPC   C2B21332   8.465  20.821   8.174
 1367POPC   C3B21333   8.372  20.848   7.761
 1367POPC   C4B21334   8.417  20.724   7.355
 1368POPC   NC321335  41.036  23.285   9.509
 1368POPC   PO421336  40.465  22.791   9.549
 1368POPC   GL121337  40.733  22.988   9.190
 1368POPC   GL221338  41.073  22.903   9.125
 1368POPC   C1A21339  40.722  23.102   8.758
 1368POPC   D2A21340  40.787  22.896   8.379
 1368POPC   C3A21341  40.648  23.111   8.067
 1368POPC   C4A21342  40.554  22.978   7.703
 1368POPC   C1B21343  41.197  22.858   8.694
 1368POPC   C2B21344  41.372  22.602   8.388
 1368POPC   C3B21345  41.207  22.526   7.994
 1368POPC   C4B21346  41.041  22.874   7.787
 1369POPC   NC321347  35.326  30.226   9.373
 1369POPC   PO421348  35.441  29.551   9.499
 1369POPC   GL121349  35.210  29.759   9.184
 1369POPC   GL221350  34.959  29.553   9.186
 1369POPC   C1A21351  35.227  29.979   8.792
 1369POPC   D2A21352  35.386  30.184   8.439
 1369POPC   C3A21353  35.506  29.838   8.211
 1369POPC   C4A21354  35.439  29.904   7.806
 1369POPC   C1B21355  35.033  29.480   8.745
 1369POPC   C2B21356  35.170  29.409   8.317
 1369POPC   C3B21357  35.062  29.507   7.913
 1369POPC   C4B21358  35.213  29.571   7.500
 1370POPC   NC321359  13.241  16.777   9.538
 1370POPC   PO421360  13.969  16.944   9.446
 1370POPC   GL121361  13.791  16.755   9.118
 1370POPC   GL221362  13.433  16.821   9.082
 1370POPC   C1A21363  13.749  16.905   8.700
 1370POPC   D2A21364  13.498  16.806   8.334
 1370POPC   C3A21365  13.696  16.870   7.941
 1370POPC   C4A21366  13.783  16.564   7.621
 1370POPC   C1B21367  13.441  16.482   8.770
 1370POPC   C2B21368  13.373  16.295   8.351
 1370POPC   C3B21369  13.382  16.396   7.907
 1370POPC   C4B21370  13.247  16.774   7.732
 1371POPC   NC321371  44.137  14.254   9.593
 1371POPC   PO421372  44.684  14.668   9.513
 1371POPC   GL121373  44.636  14.425   9.150
 1371POPC   GL221374  44.570  14.102   9.280
 1371POPC   C1A21375  44.868  14.318   8.768
 1371POPC   D2A21376  44.910  14.550   8.348
 1371POPC   C3A21377  44.643  14.436   8.005
 1371POPC   C4A21378  44.500  14.290   7.596
 1371POPC   C1B21379  44.467  13.997   8.831
 1371POPC   C2B21380  44.490  13.845   8.380
 1371POPC   C3B21381  44.621  13.931   7.945
 1371POPC   C4B21382  44.985  14.110   7.753
 1372POPC   NC321383   7.687  13.208   9.352
 1372POPC   PO421384   8.062  13.820   9.489
 1372POPC   GL121385   8.194  13.726   9.119
 1372POPC   GL221386   8.278  13.412   9.160
 1372POPC   C1A21387   8.299  13.912   8.760
 1372POPC   D2A21388   8.109  13.945   8.384
 1372POPC   C3A21389   8.227  13.733   8.009
 1372POPC   C4A21390   7.992  13.709   7.616
 1372POPC   C1B21391   8.160  13.402   8.715
 1372POPC   C2B21392   8.303  13.297   8.304
 1372POPC   C3B21393   8.053  13.264   7.908
 1372POPC   C4B21394   8.283  13.315   7.513
 1373POPC   NC321395  12.730  27.189   9.520
 1373POPC   PO421396  13.192  26.672   9.422
 1373POPC   GL121397  12.908  26.851   9.123
 1373POPC   GL221398  13.126  27.122   9.070
 1373POPC   C1A21399  12.692  26.713   8.718
 1373POPC   D2A21400  12.511  26.899   8.305
 1373POPC   C3A21401  12.617  26.687   7.952
 1373POPC   C4A21402  12.747  26.573   7.538
 1373POPC   C1B21403  13.137  26.928   8.655
 1373POPC   C2B21404  13.023  26.898   8.216
 1373POPC   C3B21405  13.111  26.569   7.939
 1373POPC   C4B21406  13.320  26.536   7.575
 1374POPC   NC321407   8.807  28.529   9.547
 1374POPC   PO421408   9.297  28.151   9.678
 1374POPC   GL121409   9.028  28.152   9.285
 1374POPC   GL221410   9.133  28.457   9.172
 1374POPC   C1A21411   8.833  28.280   8.850
 1374POPC   D2A21412   9.039  28.198   8.460
 1374POPC   C3A21413   9.114  28.415   8.053
 1374POPC   C4A21414   8.978  28.268   7.632
 1374POPC   C1B21415   9.197  28.617   8.788
 1374POPC   C2B21416   8.870  28.695   8.486
 1374POPC   C3B21417   8.724  28.751   8.072
 1374POPC   C4B21418   8.861  28.754   7.647
 1375POPC   NC321419  12.554   7.253   9.469
 1375POPC   PO421420  13.242   7.571   9.428
 1375POPC   GL121421  12.891   7.473   9.141
 1375POPC   GL221422  12.808   7.115   9.038
 1375POPC   C1A21423  12.682   7.576   8.776
 1375POPC   D2A21424  12.780   7.330   8.414
 1375POPC   C3A21425  12.754   7.587   8.078
 1375POPC   C4A21426  13.064   7.625   7.785
 1375POPC   C1B21427  12.443   7.132   8.746
 1375POPC   C2B21428  12.368   7.031   8.281
 1375POPC   C3B21429  12.505   7.221   7.849
 1375POPC   C4B21430  12.459   7.201   7.356
 1376POPC   NC321431  36.858  37.197   9.547
 1376POPC   PO421432  37.234  36.688   9.522
 1376POPC   GL121433  37.057  36.904   9.148
 1376POPC   GL221434  37.186  37.216   9.137
 1376POPC   C1A21435  36.724  36.796   8.795
 1376POPC   D2A21436  36.517  36.706   8.364
 1376POPC   C3A21437  36.777  36.696   7.967
 1376POPC   C4A21438  37.030  36.950   7.689
 1376POPC   C1B21439  36.994  37.229   8.735
 1376POPC   C2B21440  37.037  37.346   8.310
 1376POPC   C3B21441  36.737  37.269   7.965
 1376POPC   C4B21442  36.590  37.271   7.514
 1377POPC   NC321443  19.379  27.630   9.485
 1377POPC   PO421444  18.759  27.602   9.460
 1377POPC   GL121445  19.055  27.420   9.157
 1377POPC   GL221446  19.037  27.786   9.023
 1377POPC   C1A21447  19.185  27.406   8.716
 1377POPC   D2A21448  19.058  27.745   8.449
 1377POPC   C3A21449  19.225  27.739   8.028
 1377POPC   C4A21450  19.497  27.348   7.943
 1377POPC   C1B21451  18.693  27.519   8.828
 1377POPC   C2B21452  18.613  27.371   8.451
 1377POPC   C3B21453  18.917  27.326   8.157
 1377POPC   C4B21454  18.857  27.461   7.755
 1378POPC   NC321455  35.773  44.901   9.644
 1378POPC   PO421456  36.360  44.580   9.693
 1378POPC   GL121457  36.315  44.619   9.253
 1378POPC   GL221458  35.967  44.538   9.259
 1378POPC   C1A21459  36.359  44.578   8.801
 1378POPC   D2A21460  36.162  44.388   8.427
 1378POPC   C3A21461  36.285  44.586   8.065
 1378POPC   C4A21462  36.320  44.824   7.713
 1378POPC   C1B21463  35.851  44.551   8.820
 1378POPC   C2B21464  35.666  44.508   8.404
 1378POPC   C3B21465  35.816  44.357   8.006
 1378POPC   C4B21466  35.732  44.563   7.632
 1379POPC   NC321467  37.351  22.114   9.463
 1379POPC   PO421468  38.018  21.964   9.572
 1379POPC   GL121469  37.784  22.137   9.213
 1379POPC   GL221470  37.683  22.501   9.160
 1379POPC   C1A21471  37.732  22.138   8.781
 1379POPC   D2A21472  37.716  22.407   8.436
 1379POPC   C3A21473  37.828  22.221   8.074
 1379POPC   C4A21474  37.901  22.360   7.680
 1379POPC   C1B21475  37.369  22.488   8.813
 1379POPC   C2B21476  37.199  22.304   8.408
 1379POPC   C3B21477  37.388  22.429   8.015
 1379POPC   C4B21478  37.429  22.544   7.604
 1380POPC   NC321479   3.339  38.594   9.362
 1380POPC   PO421480   3.875  38.855   9.529
 1380POPC   GL121481   3.807  38.435   9.246
 1380POPC   GL221482   3.796  38.688   9.028
 1380POPC   C1A21483   3.533  38.309   8.822
 1380POPC   D2A21484   3.256  38.451   8.473
 1380POPC   C3A21485   3.158  38.375   8.022
 1380POPC   C4A21486   3.393  38.451   7.635
 1380POPC   C1B21487   4.059  38.450   8.772
 1380POPC   C2B21488   3.830  38.542   8.433
 1380POPC   C3B21489   3.655  38.518   8.069
 1380POPC   C4B21490   3.721  38.817   7.750
 1381POPC   NC321491  30.367  43.441   9.536
 1381POPC   PO421492  31.054  43.695   9.632
 1381POPC   GL121493  30.948  43.595   9.157
 1381POPC   GL221494  30.617  43.641   9.121
 1381POPC   C1A21495  30.950  43.781   8.714
 1381POPC   D2A21496  30.765  43.996   8.354
 1381POPC   C3A21497  30.985  44.023   7.980
 1381POPC   C4A21498  30.711  43.824   7.697
 1381POPC   C1B21499  30.437  43.862   8.773
 1381POPC   C2B21500  30.230  43.757   8.430
 1381POPC   C3B21501  30.339  43.825   8.039
 1381POPC   C4B21502  30.198  43.775   7.596
 1382POPC   NC321503  40.546  28.438   9.370
 1382POPC   PO421504  39.843  28.448   9.454
 1382POPC   GL121505  40.070  28.322   9.100
 1382POPC   GL221506  40.198  28.642   9.064
 1382POPC   C1A21507  40.131  28.310   8.638
 1382POPC   D2A21508  40.359  28.141   8.265
 1382POPC   C3A21509  40.210  28.230   7.852
 1382POPC   C4A21510  39.766  28.143   7.758
 1382POPC   C1B21511  40.021  28.822   8.716
 1382POPC   C2B21512  39.906  28.687   8.329
 1382POPC   C3B21513  39.893  28.619   7.918
 1382POPC   C4B21514  40.163  28.728   7.620
 1383POPC   NC321515  16.438  17.645   9.424
 1383POPC   PO421516  15.864  17.294   9.553
 1383POPC   GL121517  16.083  17.288   9.175
 1383POPC   GL221518  15.782  17.443   9.014
 1383POPC   C1A21519  16.103  17.148   8.735
 1383POPC   D2A21520  15.789  17.277   8.414
 1383POPC   C3A21521  15.898  17.418   7.992
 1383POPC   C4A21522  15.981  17.121   7.686
 1383POPC   C1B21523  16.026  17.664   8.684
 1383POPC   C2B21524  16.069  17.832   8.252
 1383POPC   C3B21525  15.919  17.979   7.839
 1383POPC   C4B21526  15.799  18.086   7.389
 1384POPC   NC321527  33.170  38.211   9.504
 1384POPC   PO421528  32.781  38.812   9.475
 1384POPC   GL121529  32.888  38.488   9.193
 1384POPC   GL221530  32.610  38.326   9.113
 1384POPC   C1A21531  33.128  38.519   8.811
 1384POPC   D2A21532  33.291  38.749   8.448
 1384POPC   C3A21533  33.163  38.544   8.070
 1384POPC   C4A21534  33.041  38.750   7.686
 1384POPC   C1B21535  32.737  38.186   8.759
 1384POPC   C2B21536  32.936  38.197   8.397
 1384POPC   C3B21537  32.728  38.161   8.029
 1384POPC   C4B21538  32.786  38.288   7.631
 1385POPC   NC321539  30.668  33.811   9.556
 1385POPC   PO421540  30.836  34.402   9.704
 1385POPC   GL121541  30.835  34.152   9.218
 1385POPC   GL221542  30.486  33.998   9.135
 1385POPC   C1A21543  30.830  33.794   8.834
 1385POPC   D2A21544  31.084  33.731   8.428
 1385POPC   C3A21545  30.989  34.025   8.059
 1385POPC   C4A21546  30.825  34.022   7.599
 1385POPC   C1B21547  30.300  33.766   8.783
 1385POPC   C2B21548  30.109  33.799   8.380
 1385POPC   C3B21549  30.286  33.620   8.022
 1385POPC   C4B21550  30.376  33.731   7.599
 1386POPC   NC321551  42.219  44.630   9.536
 1386POPC   PO421552  42.861  44.899   9.476
 1386POPC   GL121553  42.622  44.692   9.186
 1386POPC   GL221554  42.377   0.005   9.210
 1386POPC   C1A21555  42.678  44.403   8.777
 1386POPC   D2A21556  42.823  44.337   8.315
 1386POPC   C3A21557  42.481  44.378   8.001
 1386POPC   C4A21558  42.046  44.389   7.818
 1386POPC   C1B21559  42.476  44.910   8.760
 1386POPC   C2B21560  42.375  44.680   8.402
 1386POPC   C3B21561  42.273  44.854   8.003
 1386POPC   C4B21562  42.536   0.034   7.703
 1387POPC   NC321563  41.280   0.619   9.455
 1387POPC   PO421564  40.566   0.627   9.579
 1387POPC   GL121565  40.790   0.420   9.179
 1387POPC   GL221566  40.868   0.008   9.105
 1387POPC   C1A21567  40.588   0.317   8.778
 1387POPC   D2A21568  40.326   0.427   8.411
 1387POPC   C3A21569  40.424   0.312   7.978
 1387POPC   C4A21570  40.573   0.697   7.789
 1387POPC   C1B21571  41.017   0.041   8.680
 1387POPC   C2B21572  40.916   0.349   8.352
 1387POPC   C3B21573  40.942   0.364   7.914
 1387POPC   C4B21574  41.154   0.139   7.593
 1388POPC   NC321575  12.746  42.594   9.419
 1388POPC   PO421576  13.006  42.054   9.733
 1388POPC   GL121577  13.024  42.037   9.192
 1388POPC   GL221578  12.773  42.179   9.095
 1388POPC   C1A21579  13.124  42.263   8.728
 1388POPC   D2A21580  13.190  42.253   8.284
 1388POPC   C3A21581  12.983  42.335   7.888
 1388POPC   C4A21582  12.679  42.207   7.543
 1388POPC   C1B21583  12.613  42.385   8.723
 1388POPC   C2B21584  12.704  42.472   8.295
 1388POPC   C3B21585  12.534  42.607   7.925
 1388POPC   C4B21586  12.561  42.761   7.539
 1389POPC   NC321587  16.498  10.010   9.399
 1389POPC   PO421588  17.185   9.810   9.480
 1389POPC   GL121589  16.894   9.768   9.136
 1389POPC   GL221590  16.660   9.498   9.079
 1389POPC   C1A21591  16.715   9.862   8.742
 1389POPC   D2A21592  16.800  10.181   8.451
 1389POPC   C3A21593  16.866  10.048   8.047
 1389POPC   C4A21594  16.641   9.844   7.751
 1389POPC   C1B21595  16.623   9.294   8.703
 1389POPC   C2B21596  16.381   9.261   8.341
 1389POPC   C3B21597  16.400   9.456   7.948
 1389POPC   C4B21598  16.566   9.381   7.533
 1390POPC   NC321599  22.348   2.284   9.523
 1390POPC   PO421600  21.882   1.789   9.621
 1390POPC   GL121601  22.042   1.949   9.220
 1390POPC   GL221602  21.947   2.301   9.204
 1390POPC   C1A21603  22.238   1.763   8.830
 1390POPC   D2A21604  22.563   1.643   8.503
 1390POPC   C3A21605  22.430   1.862   8.125
 1390POPC   C4A21606  22.103   1.759   7.854
 1390POPC   C1B21607  21.829   2.206   8.791
 1390POPC   C2B21608  21.995   2.036   8.429
 1390POPC   C3B21609  21.992   2.206   8.036
 1390POPC   C4B21610  21.750   2.157   7.712
 1391POPC   NC321611  43.882  27.328   9.654
 1391POPC   PO421612  44.110  27.874   9.707
 1391POPC   GL121613  43.923  27.670   9.298
 1391POPC   GL221614  43.723  27.857   9.073
 1391POPC   C1A21615  43.782  27.382   8.926
 1391POPC   D2A21616  43.649  27.571   8.517
 1391POPC   C3A21617  43.765  27.424   8.104
 1391POPC   C4A21618  43.802  27.288   7.684
 1391POPC   C1B21619  44.124  27.723   8.793
 1391POPC   C2B21620  44.209  27.465   8.404
 1391POPC   C3B21621  44.198  27.607   7.951
 1391POPC   C4B21622  43.877  27.838   7.757
 1392POPC   NC321623   4.491  27.603   9.434
 1392POPC   PO421624   3.922  27.472   9.637
 1392POPC   GL121625   4.005  27.693   9.202
 1392POPC   GL221626   4.073  28.065   9.204
 1392POPC   C1A21627   4.130  27.576   8.751
 1392POPC   D2A21628   3.997  27.359   8.338
 1392POPC   C3A21629   4.157  27.432   7.898
 1392POPC   C4A21630   4.439  27.380   7.516
 1392POPC   C1B21631   4.097  28.081   8.741
 1392POPC   C2B21632   4.001  27.866   8.336
 1392POPC   C3B21633   4.264  27.908   7.963
 1392POPC   C4B21634   4.222  27.828   7.513
 1393POPC   NC321635  32.022   9.740   9.565
 1393POPC   PO421636  32.689   9.482   9.579
 1393POPC   GL121637  32.567   9.692   9.208
 1393POPC   GL221638  32.393  10.006   9.312
 1393POPC   C1A21639  32.478   9.584   8.765
 1393POPC   D2A21640  32.188   9.559   8.416
 1393POPC   C3A21641  32.401   9.596   8.063
 1393POPC   C4A21642  32.329   9.417   7.686
 1393POPC   C1B21643  32.469  10.083   8.893
 1393POPC   C2B21644  32.362  10.061   8.476
 1393POPC   C3B21645  32.346  10.109   8.057
 1393POPC   C4B21646  32.321   9.913   7.648
 1394POPC   NC321647  39.090   6.029   9.619
 1394POPC   PO421648  39.578   5.587   9.413
 1394POPC   GL121649  39.285   5.915   9.134
 1394POPC   GL221650  38.938   5.976   9.144
 1394POPC   C1A21651  39.249   6.022   8.654
 1394POPC   D2A21652  39.224   5.613   8.375
 1394POPC   C3A21653  39.348   5.645   7.936
 1394POPC   C4A21654  39.308   6.021   7.606
 1394POPC   C1B21655  38.888   5.717   8.805
 1394POPC   C2B21656  38.767   5.845   8.406
 1394POPC   C3B21657  39.010   6.006   8.086
 1394POPC   C4B21658  38.818   5.948   7.716
 1395POPC   NC321659   1.244  42.686   9.708
 1395POPC   PO421660   1.225  42.079   9.404
 1395POPC   GL121661   1.085  42.249   9.069
 1395POPC   GL221662   0.762  42.368   9.208
 1395POPC   C1A21663   1.312  42.473   8.740
 1395POPC   D2A21664   1.328  42.243   8.450
 1395POPC   C3A21665   1.330  42.513   8.158
 1395POPC   C4A21666   1.456  42.634   7.825
 1395POPC   C1B21667   0.682  42.181   8.786
 1395POPC   C2B21668   0.860  41.983   8.425
 1395POPC   C3B21669   1.082  42.094   8.039
 1395POPC   C4B21670   1.089  42.319   7.679
 1396POPC   NC321671  29.627  43.717   9.407
 1396POPC   PO421672  30.324  43.928   9.468
 1396POPC   GL121673  30.103  43.768   9.157
 1396POPC   GL221674  29.922  44.046   9.143
 1396POPC   C1A21675  29.903  43.583   8.787
 1396POPC   D2A21676  29.662  43.742   8.406
 1396POPC   C3A21677  29.858  43.671   8.020
 1396POPC   C4A21678  29.702  43.616   7.611
 1396POPC   C1B21679  29.842  44.098   8.717
 1396POPC   C2B21680  29.995  44.189   8.286
 1396POPC   C3B21681  29.957  44.156   7.859
 1396POPC   C4B21682  30.052  44.217   7.420
 1397POPC   NC321683  33.525   7.023   9.624
 1397POPC   PO421684  33.852   6.471   9.756
 1397POPC   GL121685  34.004   6.534   9.340
 1397POPC   GL221686  33.879   6.850   9.241
 1397POPC   C1A21687  33.961   6.495   8.874
 1397POPC   D2A21688  33.735   6.688   8.525
 1397POPC   C3A21689  33.890   6.622   8.119
 1397POPC   C4A21690  33.732   6.671   7.693
 1397POPC   C1B21691  33.973   7.039   8.838
 1397POPC   C2B21692  33.896   7.182   8.427
 1397POPC   C3B21693  33.724   7.086   8.033
 1397POPC   C4B21694  34.000   7.116   7.698
 1398POPC   NC321695  13.310   4.438   9.646
 1398POPC   PO421696  13.992   4.734   9.496
 1398POPC   GL121697  13.896   4.466   9.148
 1398POPC   GL221698  13.558   4.436   9.195
 1398POPC   C1A21699  13.780   4.362   8.694
 1398POPC   D2A21700  13.679   4.521   8.277
 1398POPC   C3A21701  13.871   4.268   7.996
 1398POPC   C4A21702  13.766   4.122   7.619
 1398POPC   C1B21703  13.281   4.384   8.832
 1398POPC   C2B21704  13.267   4.207   8.384
 1398POPC   C3B21705  13.360   4.260   7.928
 1398POPC   C4B21706  13.394   4.460   7.494
 1399POPC   NC321707  18.347  31.744   9.366
 1399POPC   PO421708  18.361  32.440   9.502
 1399POPC   GL121709  18.145  32.231   9.201
 1399POPC   GL221710  17.892  31.945   9.326
 1399POPC   C1A21711  18.329  32.365   8.817
 1399POPC   D2A21712  18.448  32.431   8.392
 1399POPC   C3A21713  18.456  32.121   8.082
 1399POPC   C4A21714  18.596  32.243   7.710
 1399POPC   C1B21715  17.921  31.920   8.863
 1399POPC   C2B21716  18.099  32.055   8.467
 1399POPC   C3B21717  17.963  32.190   8.039
 1399POPC   C4B21718  18.030  32.134   7.588
 1400POPC   NC321719   7.761  12.074   9.626
 1400POPC   PO421720   8.378  11.813   9.601
 1400POPC   GL121721   8.206  12.010   9.221
 1400POPC   GL221722   8.238  12.368   9.272
 1400POPC   C1A21723   8.218  12.037   8.755
 1400POPC   D2A21724   8.084  11.739   8.405
 1400POPC   C3A21725   8.147  11.929   7.976
 1400POPC   C4A21726   8.472  12.056   7.651
 1400POPC   C1B21727   8.392  12.541   8.870
 1400POPC   C2B21728   8.250  12.512   8.413
 1400POPC   C3B21729   8.275  12.423   7.953
 1400POPC   C4B21730   8.286  12.476   7.467
 1401POPC   NC321731   9.773  26.038   9.648
 1401POPC   PO421732   9.430  25.639   9.522
 1401POPC   GL121733   9.784  25.701   9.228
 1401POPC   GL221734   9.774  26.047   9.114
 1401POPC   C1A21735   9.912  25.670   8.793
 1401POPC   D2A21736   9.924  26.012   8.490
 1401POPC   C3A21737   9.932  25.941   8.074
 1401POPC   C4A21738   9.658  26.198   7.799
 1401POPC   C1B21739   9.484  25.921   8.738
 1401POPC   C2B21740   9.550  25.695   8.299
 1401POPC   C3B21741   9.571  25.664   7.802
 1401POPC   C4B21742   9.682  25.569   7.343
 1402POPC   NC321743  42.452  35.878   9.466
 1402POPC   PO421744  41.981  36.386   9.386
 1402POPC   GL121745  42.340  36.263   9.106
 1402POPC   GL221746  42.165  36.330   8.802
 1402POPC   C1A21747  42.596  36.090   8.718
 1402POPC   D2A21748  42.366  36.041   8.314
 1402POPC   C3A21749  42.594  35.840   7.949
 1402POPC   C4A21750  42.591  35.947   7.507
 1402POPC   C1B21751  42.133  35.876   8.795
 1402POPC   C2B21752  42.016  35.680   8.454
 1402POPC   C3B21753  41.933  35.870   8.061
 1402POPC   C4B21754  42.126  35.851   7.679
 1403POPC   NC321755   8.786  19.088   9.513
 1403POPC   PO421756   8.638  18.565   9.183
 1403POPC   GL121757   8.944  18.783   8.993
 1403POPC   GL221758   9.098  19.125   9.102
 1403POPC   C1A21759   8.859  18.684   8.549
 1403POPC   D2A21760   8.717  18.995   8.243
 1403POPC   C3A21761   8.891  18.990   7.876
 1403POPC   C4A21762   8.781  18.926   7.475
 1403POPC   C1B21763   8.987  19.151   8.660
 1403POPC   C2B21764   9.014  19.408   8.331
 1403POPC   C3B21765   9.001  19.469   7.925
 1403POPC   C4B21766   9.319  19.241   7.713
 1404POPC   NC321767   7.919  29.274   9.546
 1404POPC   PO421768   8.460  28.845   9.508
 1404POPC   GL121769   8.193  28.860   9.130
 1404POPC   GL221770   8.106  29.184   9.083
 1404POPC   C1A21771   8.224  28.956   8.651
 1404POPC   D2A21772   8.112  29.279   8.389
 1404POPC   C3A21773   8.281  29.087   8.065
 1404POPC   C4A21774   8.421  29.006   7.683
 1404POPC   C1B21775   7.776  29.119   8.765
 1404POPC   C2B21776   7.700  28.932   8.356
 1404POPC   C3B21777   7.833  28.905   7.927
 1404POPC   C4B21778   7.946  29.246   7.677
 1405POPC   NC321779  21.903  42.562   9.614
 1405POPC   PO421780  22.414  42.716   9.414
 1405POPC   GL121781  22.110  42.524   9.154
 1405POPC   GL221782  22.135  42.184   9.120
 1405POPC   C1A21783  22.051  42.604   8.747
 1405POPC   D2A21784  22.039  42.373   8.397
 1405POPC   C3A21785  22.379  42.457   8.108
 1405POPC   C4A21786  22.395  42.648   7.698
 1405POPC   C1B21787  21.937  41.922   8.794
 1405POPC   C2B21788  21.924  41.865   8.359
 1405POPC   C3B21789  21.986  42.096   7.985
 1405POPC   C4B21790  21.707  42.002   7.705
 1406POPC   NC321791  26.529   3.731   9.552
 1406POPC   PO421792  27.190   3.558   9.506
 1406POPC   GL121793  26.873   3.456   9.216
 1406POPC   GL221794  26.954   3.793   9.141
 1406POPC   C1A21795  26.828   3.332   8.763
 1406POPC   D2A21796  27.044   3.167   8.380
 1406POPC   C3A21797  26.787   3.249   8.009
 1406POPC   C4A21798  26.381   3.355   7.825
 1406POPC   C1B21799  26.884   3.852   8.740
 1406POPC   C2B21800  26.685   3.666   8.382
 1406POPC   C3B21801  26.728   3.758   7.973
 1406POPC   C4B21802  26.613   3.775   7.577
 1407POPC   NC321803  23.276   5.694   9.489
 1407POPC   PO421804  22.745   6.141   9.576
 1407POPC   GL121805  22.898   5.977   9.232
 1407POPC   GL221806  23.191   6.119   9.200
 1407POPC   C1A21807  22.817   5.777   8.871
 1407POPC   D2A21808  22.921   5.854   8.467
 1407POPC   C3A21809  22.770   5.713   8.090
 1407POPC   C4A21810  22.659   5.844   7.697
 1407POPC   C1B21811  23.304   5.896   8.847
 1407POPC   C2B21812  23.433   5.906   8.442
 1407POPC   C3B21813  23.230   5.976   8.061
 1407POPC   C4B21814  23.182   5.670   7.770
 1408POPC   NC321815  31.234  41.776   9.452
 1408POPC   PO421816  31.841  41.335   9.467
 1408POPC   GL121817  31.662  41.595   9.140
 1408POPC   GL221818  31.885  41.854   9.017
 1408POPC   C1A21819  31.361  41.648   8.793
 1408POPC   D2A21820  31.232  41.312   8.481
 1408POPC   C3A21821  31.334  41.359   8.048
 1408POPC   C4A21822  31.238  41.454   7.621
 1408POPC   C1B21823  31.848  41.667   8.637
 1408POPC   C2B21824  31.571  41.737   8.306
 1408POPC   C3B21825  31.376  41.871   7.915
 1408POPC   C4B21826  31.477  41.891   7.460
 1409POPC   NC321827   9.111   9.793   9.560
 1409POPC   PO421828   8.536  10.049   9.495
 1409POPC   GL121829   8.744   9.789   9.129
 1409POPC   GL221830   9.064   9.925   9.064
 1409POPC   C1A21831   8.897   9.686   8.659
 1409POPC   D2A21832   9.134   9.970   8.375
 1409POPC   C3A21833   9.272   9.764   8.030
 1409POPC   C4A21834   9.060   9.540   7.750
 1409POPC   C1B21835   8.816  10.175   8.709
 1409POPC   C2B21836   8.615  10.156   8.311
 1409POPC   C3B21837   8.802   9.956   7.957
 1409POPC   C4B21838   8.670   9.806   7.565
 1410POPC   NC321839  14.769  43.149   9.486
 1410POPC   PO421840  14.148  42.959   9.553
 1410POPC   GL121841  14.260  42.859   9.150
 1410POPC   GL221842  14.408  43.181   9.115
 1410POPC   C1A21843  14.520  42.842   8.762
 1410POPC   D2A21844  14.732  43.014   8.396
 1410POPC   C3A21845  14.582  42.850   8.010
 1410POPC   C4A21846  14.403  42.773   7.610
 1410POPC   C1B21847  14.527  43.362   8.712
 1410POPC   C2B21848  14.358  43.332   8.281
 1410POPC   C3B21849  14.557  43.338   7.886
 1410POPC   C4B21850  14.417  43.267   7.490
 1411POPC   NC321851  22.591   8.935   9.555
 1411POPC   PO421852  23.182   8.561   9.627
 1411POPC   GL121853  23.017   8.713   9.219
 1411POPC   GL221854  22.817   8.995   9.112
 1411POPC   C1A21855  22.880   8.642   8.776
 1411POPC   D2A21856  22.888   8.917   8.438
 1411POPC   C3A21857  22.769   8.855   8.025
 1411POPC   C4A21858  23.007   8.623   7.739
 1411POPC   C1B21859  22.661   9.256   8.751
 1411POPC   C2B21860  22.864   9.431   8.353
 1411POPC   C3B21861  22.992   9.344   7.903
 1411POPC   C4B21862  22.892   9.084   7.547
 1412POPC   NC321863  11.910  13.855   9.645
 1412POPC   PO421864  11.646  13.272   9.295
 1412POPC   GL121865  11.896  13.646   9.191
 1412POPC   GL221866  11.753  13.894   9.120
 1412POPC   C1A21867  12.218  13.744   8.875
 1412POPC   D2A21868  12.474  13.442   8.612
 1412POPC   C3A21869  12.354  13.395   8.175
 1412POPC   C4A21870  12.190  13.286   7.765
 1412POPC   C1B21871  11.726  13.598   8.723
 1412POPC   C2B21872  11.846  13.694   8.298
 1412POPC   C3B21873  11.821  13.640   7.866
 1412POPC   C4B21874  12.082  13.702   7.464
 1413POPC   NC321875  42.520  22.637   9.574
 1413POPC   PO421876  42.214  22.024   9.559
 1413POPC   GL121877  42.204  22.308   9.245
 1413POPC   GL221878  41.980  22.603   9.331
 1413POPC   C1A21879  42.346  22.160   8.835
 1413POPC   D2A21880  42.626  22.089   8.468
 1413POPC   C3A21881  42.336  22.089   8.133
 1413POPC   C4A21882  42.320  22.248   7.729
 1413POPC   C1B21883  42.174  22.678   8.904
 1413POPC   C2B21884  42.381  22.535   8.493
 1413POPC   C3B21885  42.557  22.543   8.084
 1413POPC   C4B21886  42.538  22.738   7.692
 1414POPC   NC321887  25.055  13.834   9.417
 1414POPC   PO421888  25.585  13.370   9.420
 1414POPC   GL121889  25.405  13.606   9.092
 1414POPC   GL221890  25.085  13.485   9.011
 1414POPC   C1A21891  25.538  13.833   8.731
 1414POPC   D2A21892  25.538  13.725   8.306
 1414POPC   C3A21893  25.114  13.663   8.135
 1414POPC   C4A21894  25.105  13.651   7.696
 1414POPC   C1B21895  25.263  13.422   8.597
 1414POPC   C2B21896  25.407  13.246   8.177
 1414POPC   C3B21897  25.492  13.009   7.782
 1414POPC   C4B21898  25.403  13.193   7.345
 1415POPC   NC321899   8.345   1.776   9.379
 1415POPC   PO421900   7.944   2.320   9.604
 1415POPC   GL121901   7.909   2.117   9.183
 1415POPC   GL221902   7.810   1.760   9.215
 1415POPC   C1A21903   8.149   2.083   8.760
 1415POPC   D2A21904   8.265   1.973   8.308
 1415POPC   C3A21905   8.333   2.241   7.913
 1415POPC   C4A21906   8.365   2.183   7.431
 1415POPC   C1B21907   7.709   1.841   8.776
 1415POPC   C2B21908   7.682   1.809   8.351
 1415POPC   C3B21909   7.906   1.820   7.957
 1415POPC   C4B21910   7.920   2.115   7.653
 1416POPC   NC321911  27.284  35.394   9.523
 1416POPC   PO421912  27.957  35.484   9.474
 1416POPC   GL121913  27.670  35.311   9.141
 1416POPC   GL221914  27.389  35.075   9.153
 1416POPC   C1A21915  27.524  35.316   8.709
 1416POPC   D2A21916  27.446  35.592   8.378
 1416POPC   C3A21917  27.521  35.431   8.009
 1416POPC   C4A21918  27.589  35.590   7.637
 1416POPC   C1B21919  27.180  34.952   8.778
 1416POPC   C2B21920  27.152  35.138   8.379
 1416POPC   C3B21921  27.287  34.971   7.979
 1416POPC   C4B21922  27.708  34.961   7.834
 1417POPC   NC321923  36.087  27.797   9.472
 1417POPC   PO421924  36.483  27.319   9.540
 1417POPC   GL121925  36.319  27.490   9.141
 1417POPC   GL221926  35.932  27.456   9.090
 1417POPC   C1A21927  36.244  27.652   8.731
 1417POPC   D2A21928  36.067  27.580   8.342
 1417POPC   C3A21929  36.307  27.505   8.005
 1417POPC   C4A21930  36.206  27.657   7.594
 1417POPC   C1B21931  35.711  27.632   8.705
 1417POPC   C2B21932  35.562  27.558   8.273
 1417POPC   C3B21933  35.812  27.520   7.892
 1417POPC   C4B21934  35.704  27.706   7.475
 1418POPC   NC321935  24.879   3.271   9.339
 1418POPC   PO421936  24.452   3.771   9.516
 1418POPC   GL121937  24.369   3.567   9.125
 1418POPC   GL221938  24.393   3.204   9.159
 1418POPC   C1A21939  24.499   3.660   8.710
 1418POPC   D2A21940  24.842   3.586   8.420
 1418POPC   C3A21941  24.722   3.687   8.006
 1418POPC   C4A21942  24.738   3.436   7.684
 1418POPC   C1B21943  24.221   3.233   8.755
 1418POPC   C2B21944  24.433   3.264   8.362
 1418POPC   C3B21945  24.293   3.424   8.005
 1418POPC   C4B21946  24.226   3.798   7.745
 1419POPC   NC321947  41.370  30.449   9.450
 1419POPC   PO421948  42.026  30.612   9.296
 1419POPC   GL121949  41.662  30.765   9.174
 1419POPC   GL221950  41.644  30.433   9.032
 1419POPC   C1A21951  41.533  30.871   8.756
 1419POPC   D2A21952  41.740  31.023   8.370
 1419POPC   C3A21953  41.545  30.904   7.982
 1419POPC   C4A21954  41.311  30.831   7.591
 1419POPC   C1B21955  41.366  30.394   8.745
 1419POPC   C2B21956  41.475  30.376   8.371
 1419POPC   C3B21957  41.321  30.421   8.024
 1419POPC   C4B21958  41.606  30.437   7.748
 1420POPC   NC321959  41.096  44.021   9.616
 1420POPC   PO421960  40.558  43.691   9.554
 1420POPC   GL121961  40.728  43.946   9.236
 1420POPC   GL221962  41.046  43.837   9.137
 1420POPC   C1A21963  40.599  44.081   8.838
 1420POPC   D2A21964  40.685  43.970   8.413
 1420POPC   C3A21965  40.402  44.013   8.053
 1420POPC   C4A21966  40.561  44.042   7.618
 1420POPC   C1B21967  41.125  43.980   8.715
 1420POPC   C2B21968  41.197  43.865   8.287
 1420POPC   C3B21969  40.908  43.845   7.930
 1420POPC   C4B21970  40.991  43.631   7.512
 1421POPC   NC321971  41.434  28.887   9.460
 1421POPC   PO421972  41.552  28.242   9.637
 1421POPC   GL121973  41.617  28.411   9.213
 1421POPC   GL221974  41.370  28.586   9.050
 1421POPC   C1A21975  41.672  28.173   8.819
 1421POPC   D2A21976  41.543  28.171   8.383
 1421POPC   C3A21977  41.818  28.222   8.072
 1421POPC   C4A21978  41.692  28.257   7.682
 1421POPC   C1B21979  41.592  28.647   8.648
 1421POPC   C2B21980  41.701  28.703   8.206
 1421POPC   C3B21981  41.530  28.733   7.806
 1421POPC   C4B21982  41.097  28.748   7.652
 1422POPC   NC321983  36.223  11.435   9.679
 1422POPC   PO421984  36.965  11.397   9.792
 1422POPC   GL121985  36.884  11.341   9.311
 1422POPC   GL221986  37.145  11.194   9.170
 1422POPC   C1A21987  36.832  11.490   8.857
 1422POPC   D2A21988  37.088  11.446   8.471
 1422POPC   C3A21989  36.925  11.246   8.112
 1422POPC   C4A21990  37.004  11.336   7.712
 1422POPC   C1B21991  37.070  10.991   8.759
 1422POPC   C2B21992  37.301  10.978   8.357
 1422POPC   C3B21993  37.254  10.888   7.919
 1422POPC   C4B21994  37.257  10.964   7.482
 1423POPC   NC321995  29.638  26.205   9.490
 1423POPC   PO421996  28.986  26.020   9.558
 1423POPC   GL121997  29.228  26.186   9.199
 1423POPC   GL221998  29.438  25.896   9.077
 1423POPC   C1A21999  29.187  26.234   8.752
 1423POPC   D2A22000  29.229  25.969   8.396
 1423POPC   C3A22001  29.184  26.189   8.023
 1423POPC   C4A22002  29.013  26.063   7.679
 1423POPC   C1B22003  29.660  25.809   8.643
 1423POPC   C2B22004  29.597  25.565   8.272
 1423POPC   C3B22005  29.337  25.695   7.924
 1423POPC   C4B22006  29.401  25.794   7.502
 1424POPC   NC322007  28.564  25.777   9.542
 1424POPC   PO422008  28.004  26.201   9.611
 1424POPC   GL122009  28.172  26.142   9.195
 1424POPC   GL222010  28.046  25.797   9.255
 1424POPC   C1A22011  28.293  26.361   8.767
 1424POPC   D2A22012  28.680  26.313   8.465
 1424POPC   C3A22013  28.617  26.205   8.015
 1424POPC   C4A22014  28.244  26.178   7.756
 1424POPC   C1B22015  28.269  25.754   8.854
 1424POPC   C2B22016  28.243  25.947   8.452
 1424POPC   C3B22017  28.267  25.789   8.077
 1424POPC   C4B22018  28.603  25.739   7.799
 1425POPC   NC322019  34.494  11.561   9.475
 1425POPC   PO422020  34.848  11.030   9.584
 1425POPC   GL122021  34.603  11.036   9.144
 1425POPC   GL222022  34.432  11.395   9.017
 1425POPC   C1A22023  34.380  11.008   8.728
 1425POPC   D2A22024  34.527  11.290   8.396
 1425POPC   C3A22025  34.496  11.026   8.082
 1425POPC   C4A22026  34.715  10.918   7.729
 1425POPC   C1B22027  34.524  11.716   8.687
 1425POPC   C2B22028  34.841  11.760   8.404
 1425POPC   C3B22029  34.715  11.698   8.013
 1425POPC   C4B22030  34.825  11.558   7.608
 1426POPC   NC322031  43.173  33.954   9.596
 1426POPC   PO422032  42.555  34.065   9.366
 1426POPC   GL122033  42.849  33.872   9.040
 1426POPC   GL222034  43.218  33.787   9.108
 1426POPC   C1A22035  43.019  33.956   8.611
 1426POPC   D2A22036  43.133  34.189   8.253
 1426POPC   C3A22037  43.071  33.907   7.932
 1426POPC   C4A22038  43.379  33.645   7.711
 1426POPC   C1B22039  43.491  33.957   8.764
 1426POPC   C2B22040  43.557  33.880   8.302
 1426POPC   C3B22041  43.543  34.091   7.892
 1426POPC   C4B22042  43.710  33.965   7.487
 1427POPC   NC322043   3.902  42.851   9.721
 1427POPC   PO422044   3.328  43.134   9.428
 1427POPC   GL122045   3.640  43.006   9.153
 1427POPC   GL222046   3.737  43.353   9.105
 1427POPC   C1A22047   3.704  43.041   8.701
 1427POPC   D2A22048   3.727  43.132   8.266
 1427POPC   C3A22049   3.573  42.798   7.978
 1427POPC   C4A22050   3.510  42.822   7.536
 1427POPC   C1B22051   3.742  43.545   8.663
 1427POPC   C2B22052   3.747  43.683   8.207
 1427POPC   C3B22053   3.658  43.435   7.805
 1427POPC   C4B22054   3.909  43.336   7.394
 1428POPC   NC322055  26.879   1.192   9.502
 1428POPC   PO422056  26.318   1.307   9.270
 1428POPC   GL122057  26.705   1.236   9.027
 1428POPC   GL222058  26.857   0.912   9.070
 1428POPC   C1A22059  26.921   1.123   8.621
 1428POPC   D2A22060  26.986   0.946   8.212
 1428POPC   C3A22061  27.016   1.292   7.897
 1428POPC   C4A22062  27.088   1.462   7.507
 1428POPC   C1B22063  26.510   0.834   8.774
 1428POPC   C2B22064  26.491   0.955   8.334
 1428POPC   C3B22065  26.538   0.939   7.880
 1428POPC   C4B22066  26.721   1.107   7.492
 1429POPC   NC322067  15.294   7.783   9.451
 1429POPC   PO422068  15.191   8.414   9.501
 1429POPC   GL122069  14.874   8.260   9.229
 1429POPC   GL222070  14.788   7.902   9.211
 1429POPC   C1A22071  14.832   8.341   8.820
 1429POPC   D2A22072  15.068   8.287   8.440
 1429POPC   C3A22073  14.879   8.219   8.040
 1429POPC   C4A22074  14.983   8.446   7.639
 1429POPC   C1B22075  14.967   7.828   8.804
 1429POPC   C2B22076  15.211   7.792   8.427
 1429POPC   C3B22077  15.273   7.873   8.026
 1429POPC   C4B22078  15.521   8.004   7.740
 1430POPC   NC322079  16.679   0.840   9.618
 1430POPC   PO422080  16.586   1.552   9.499
 1430POPC   GL122081  16.796   1.377   9.171
 1430POPC   GL222082  16.878   1.014   9.179
 1430POPC   C1A22083  16.889   1.470   8.772
 1430POPC   D2A22084  17.001   1.275   8.422
 1430POPC   C3A22085  16.839   1.441   8.061
 1430POPC   C4A22086  16.705   1.383   7.635
 1430POPC   C1B22087  16.702   0.995   8.762
 1430POPC   C2B22088  16.826   0.804   8.344
 1430POPC   C3B22089  16.817   0.950   7.912
 1430POPC   C4B22090  16.931   0.958   7.444
 1431POPC   NC322091   7.239  39.905   9.499
 1431POPC   PO422092   7.578  40.474   9.579
 1431POPC   GL122093   7.443  40.259   9.167
 1431POPC   GL222094   7.328  39.874   9.025
 1431POPC   C1A22095   7.395  40.251   8.725
 1431POPC   D2A22096   7.154  39.976   8.515
 1431POPC   C3A22097   7.313  39.980   8.113
 1431POPC   C4A22098   7.301  40.245   7.765
 1431POPC   C1B22099   7.605  39.750   8.744
 1431POPC   C2B22100   7.770  40.009   8.460
 1431POPC   C3B22101   7.781  39.783   8.137
 1431POPC   C4B22102   7.682  39.875   7.755
 1432POPC   NC322103  16.737   5.657   9.572
 1432POPC   PO422104  16.899   6.274   9.701
 1432POPC   GL122105  16.887   6.019   9.253
 1432POPC   GL222106  17.090   5.696   9.167
 1432POPC   C1A22107  16.645   5.808   8.911
 1432POPC   D2A22108  16.641   5.616   8.500
 1432POPC   C3A22109  16.806   5.904   8.176
 1432POPC   C4A22110  16.688   5.892   7.739
 1432POPC   C1B22111  17.109   5.725   8.693
 1432POPC   C2B22112  17.099   5.450   8.324
 1432POPC   C3B22113  16.867   5.438   7.905
 1432POPC   C4B22114  16.963   5.560   7.444
 1433POPC   NC322115   2.291   0.578   9.519
 1433POPC   PO422116   1.713   0.241   9.451
 1433POPC   GL122117   2.003   0.325   9.162
 1433POPC   GL222118   2.147   0.025   9.071
 1433POPC   C1A22119   1.878   0.522   8.782
 1433POPC   D2A22120   2.013   0.688   8.393
 1433POPC   C3A22121   1.782   0.626   8.027
 1433POPC   C4A22122   1.755   0.499   7.603
 1433POPC   C1B22123   1.818   0.015   8.781
 1433POPC   C2B22124   1.929   0.169   8.365
 1433POPC   C3B22125   1.840   0.110   7.924
 1433POPC   C4B22126   1.996   0.052   7.482
 1434POPC   NC322127  28.580  20.304   9.638
 1434POPC   PO422128  28.312  20.881   9.462
 1434POPC   GL122129  28.420  20.486   9.192
 1434POPC   GL222130  28.788  20.461   9.178
 1434POPC   C1A22131  28.281  20.160   8.883
 1434POPC   D2A22132  28.324  20.163   8.413
 1434POPC   C3A22133  28.513  20.568   8.218
 1434POPC   C4A22134  28.506  20.813   7.810
 1434POPC   C1B22135  28.734  20.384   8.726
 1434POPC   C2B22136  28.815  20.171   8.316
 1434POPC   C3B22137  28.875  20.344   7.905
 1434POPC   C4B22138  28.687  20.448   7.496
 1435POPC   NC322139  32.950  14.885   9.570
 1435POPC   PO422140  32.905  15.536   9.535
 1435POPC   GL122141  33.121  15.265   9.210
 1435POPC   GL222142  33.259  14.931   9.186
 1435POPC   C1A22143  33.067  15.150   8.757
 1435POPC   D2A22144  32.952  15.276   8.350
 1435POPC   C3A22145  33.187  15.307   7.956
 1435POPC   C4A22146  33.258  15.148   7.535
 1435POPC   C1B22147  33.225  14.671   8.853
 1435POPC   C2B22148  33.033  14.690   8.473
 1435POPC   C3B22149  33.154  14.819   8.092
 1435POPC   C4B22150  32.895  14.923   7.768
 1436POPC   NC322151  30.283  31.583   9.392
 1436POPC   PO422152  30.678  31.129   9.737
 1436POPC   GL122153  30.650  31.272   9.258
 1436POPC   GL222154  30.937  31.293   9.077
 1436POPC   C1A22155  30.493  31.322   8.803
 1436POPC   D2A22156  30.449  31.386   8.376
 1436POPC   C3A22157  30.735  31.596   8.115
 1436POPC   C4A22158  30.754  31.885   7.794
 1436POPC   C1B22159  30.910  31.082   8.745
 1436POPC   C2B22160  30.966  31.208   8.357
 1436POPC   C3B22161  30.807  31.094   7.979
 1436POPC   C4B22162  30.797  31.293   7.639
 1437POPC   NC322163   6.263  35.288   9.535
 1437POPC   PO422164   5.678  35.595   9.455
 1437POPC   GL122165   5.761  35.336   9.078
 1437POPC   GL222166   6.097  35.231   9.036
 1437POPC   C1A22167   5.669  35.259   8.645
 1437POPC   D2A22168   5.463  35.479   8.277
 1437POPC   C3A22169   5.477  35.229   7.920
 1437POPC   C4A22170   5.782  35.445   7.702
 1437POPC   C1B22171   6.120  35.588   8.757
 1437POPC   C2B22172   5.985  35.547   8.345
 1437POPC   C3B22173   6.020  35.198   8.065
 1437POPC   C4B22174   6.231  35.188   7.665
 1438POPC   NC322175  41.931  26.481   9.751
 1438POPC   PO422176  42.544  26.094   9.697
 1438POPC   GL122177  42.221  26.115   9.362
 1438POPC   GL222178  42.449  26.163   9.127
 1438POPC   C1A22179  42.052  25.934   8.939
 1438POPC   D2A22180  42.309  26.016   8.564
 1438POPC   C3A22181  42.250  26.056   8.121
 1438POPC   C4A22182  42.494  25.967   7.774
 1438POPC   C1B22183  42.533  26.426   8.791
 1438POPC   C2B22184  42.408  26.482   8.362
 1438POPC   C3B22185  42.605  26.446   7.963
 1438POPC   C4B22186  42.725  26.553   7.531
 1439POPC   NC322187   2.057   7.834   9.538
 1439POPC   PO422188   2.079   8.463   9.609
 1439POPC   GL122189   2.094   8.316   9.190
 1439POPC   GL222190   2.348   8.092   9.163
 1439POPC   C1A22191   2.107   8.391   8.738
 1439POPC   D2A22192   1.885   8.556   8.381
 1439POPC   C3A22193   1.758   8.280   8.058
 1439POPC   C4A22194   1.718   8.423   7.648
 1439POPC   C1B22195   2.480   8.027   8.738
 1439POPC   C2B22196   2.283   8.056   8.344
 1439POPC   C3B22197   2.224   8.176   7.918
 1439POPC   C4B22198   2.344   7.795   7.668
 1440POPC   NC322199  10.216   9.978   9.394
 1440POPC   PO422200   9.628   9.803   9.636
 1440POPC   GL122201   9.493   9.600   9.241
 1440POPC   GL222202   9.831   9.682   9.128
 1440POPC   C1A22203   9.430   9.639   8.764
 1440POPC   D2A22204   9.637   9.885   8.411
 1440POPC   C3A22205   9.786   9.758   8.016
 1440POPC   C4A22206   9.929   9.628   7.638
 1440POPC   C1B22207   9.912  10.006   8.828
 1440POPC   C2B22208   9.974  10.303   8.520
 1440POPC   C3B22209  10.021  10.210   8.108
 1440POPC   C4B22210  10.067  10.103   7.693
 1441POPC   NC322211  42.333  25.671   9.586
 1441POPC   PO422212  42.285  25.037   9.477
 1441POPC   GL122213  42.523  25.256   9.160
 1441POPC   GL222214  42.499  25.637   9.117
 1441POPC   C1A22215  42.481  25.055   8.740
 1441POPC   D2A22216  42.318  25.202   8.331
 1441POPC   C3A22217  42.074  24.991   8.024
 1441POPC   C4A22218  42.368  24.795   7.763
 1441POPC   C1B22219  42.298  25.531   8.733
 1441POPC   C2B22220  42.050  25.623   8.356
 1441POPC   C3B22221  42.166  25.581   7.935
 1441POPC   C4B22222  42.287  25.295   7.659
 1442POPC   NC322223  21.459   8.768   9.600
 1442POPC   PO422224  21.525   9.387   9.341
 1442POPC   GL122225  21.424   9.019   9.141
 1442POPC   GL222226  21.778   8.932   9.191
 1442POPC   C1A22227  21.226   8.915   8.739
 1442POPC   D2A22228  21.061   9.095   8.353
 1442POPC   C3A22229  21.182   8.899   7.985
 1442POPC   C4A22230  21.263   9.192   7.695
 1442POPC   C1B22231  21.748   8.933   8.732
 1442POPC   C2B22232  21.586   8.940   8.304
 1442POPC   C3B22233  21.687   8.973   7.870
 1442POPC   C4B22234  21.661   8.792   7.474
 1443POPC   NC322235  43.659  37.271   9.399
 1443POPC   PO422236  43.596  36.610   9.592
 1443POPC   GL122237  43.768  36.631   9.163
 1443POPC   GL222238  43.788  36.972   9.006
 1443POPC   C1A22239  43.816  36.518   8.710
 1443POPC   D2A22240  43.913  36.731   8.325
 1443POPC   C3A22241  43.897  36.487   7.924
 1443POPC   C4A22242  43.698  36.670   7.547
 1443POPC   C1B22243  43.517  37.260   8.754
 1443POPC   C2B22244  43.568  37.391   8.339
 1443POPC   C3B22245  43.458  37.252   7.927
 1443POPC   C4B22246  43.600  37.176   7.523
 1444POPC   NC322247  25.099  41.669   9.530
 1444POPC   PO422248  25.477  41.048   9.420
 1444POPC   GL122249  25.350  41.408   9.168
 1444POPC   GL222250  25.469  41.767   9.194
 1444POPC   C1A22251  25.136  41.440   8.780
 1444POPC   D2A22252  25.322  41.200   8.475
 1444POPC   C3A22253  25.254  41.331   8.073
 1444POPC   C4A22254  25.011  41.425   7.751
 1444POPC   C1B22255  25.241  41.934   8.892
 1444POPC   C2B22256  25.338  41.848   8.509
 1444POPC   C3B22257  25.418  41.990   8.144
 1444POPC   C4B22258  25.259  41.866   7.789
 1445POPC   NC322259  22.633  42.104   9.380
 1445POPC   PO422260  23.270  42.291   9.281
 1445POPC   GL122261  22.926  42.222   8.978
 1445POPC   GL222262  22.595  42.433   8.981
 1445POPC   C1A22263  22.905  42.201   8.533
 1445POPC   D2A22264  22.876  42.151   8.093
 1445POPC   C3A22265  23.159  42.398   7.884
 1445POPC   C4A22266  23.245  42.787   7.745
 1445POPC   C1B22267  22.415  42.100   8.684
 1445POPC   C2B22268  22.426  41.950   8.238
 1445POPC   C3B22269  22.459  42.072   7.767
 1445POPC   C4B22270  22.485  42.088   7.272
 1446POPC   NC322271  11.082  35.549   9.528
 1446POPC   PO422272  11.145  35.055   9.293
 1446POPC   GL122273  11.244  35.406   9.038
 1446POPC   GL222274  10.944  35.530   8.935
 1446POPC   C1A22275  11.355  35.445   8.602
 1446POPC   D2A22276  11.591  35.182   8.345
 1446POPC   C3A22277  11.490  35.265   7.925
 1446POPC   C4A22278  11.389  35.635   7.694
 1446POPC   C1B22279  10.951  35.154   8.654
 1446POPC   C2B22280  11.090  35.096   8.224
 1446POPC   C3B22281  10.992  35.293   7.806
 1446POPC   C4B22282  10.819  35.157   7.389
 1447POPC   NC322283  33.216   7.770   9.460
 1447POPC   PO422284  33.075   7.178   9.580
 1447POPC   GL122285  33.038   7.404   9.157
 1447POPC   GL222286  32.737   7.526   9.045
 1447POPC   C1A22287  33.155   7.606   8.747
 1447POPC   D2A22288  32.985   7.677   8.356
 1447POPC   C3A22289  33.178   7.877   8.078
 1447POPC   C4A22290  33.058   7.758   7.699
 1447POPC   C1B22291  32.728   7.314   8.646
 1447POPC   C2B22292  32.993   7.183   8.275
 1447POPC   C3B22293  33.006   7.234   7.818
 1447POPC   C4B22294  32.972   6.922   7.458
 1448POPC   NC322295  20.601  18.901   9.784
 1448POPC   PO422296  20.237  19.294   9.340
 1448POPC   GL122297  20.473  19.135   9.060
 1448POPC   GL222298  20.562  18.871   9.261
 1448POPC   C1A22299  20.529  19.080   8.618
 1448POPC   D2A22300  20.728  18.944   8.246
 1448POPC   C3A22301  20.650  19.325   7.992
 1448POPC   C4A22302  20.316  19.425   7.706
 1448POPC   C1B22303  20.341  18.680   8.890
 1448POPC   C2B22304  20.289  18.672   8.446
 1448POPC   C3B22305  20.252  18.978   8.124
 1448POPC   C4B22306  20.417  18.933   7.720
 1449POPC   NC322307  43.746  44.963   9.554
 1449POPC   PO422308  43.776  44.289   9.455
 1449POPC   GL122309  43.955  44.628   9.168
 1449POPC   GL222310  44.228  44.474   8.965
 1449POPC   C1A22311  43.644  44.848   8.855
 1449POPC   D2A22312  43.624   0.015   8.465
 1449POPC   C3A22313  43.670  44.750   8.163
 1449POPC   C4A22314  43.705  44.683   7.737
 1449POPC   C1B22315  43.949  44.540   8.607
 1449POPC   C2B22316  43.776  44.271   8.313
 1449POPC   C3B22317  43.675  44.167   7.896
 1449POPC   C4B22318  43.930  44.281   7.548
 1450POPC   NC322319   9.355  43.077   9.522
 1450POPC   PO422320   9.948  43.139   9.579
 1450POPC   GL122321   9.746  43.060   9.168
 1450POPC   GL222322   9.706  42.720   9.220
 1450POPC   C1A22323   9.759  43.118   8.700
 1450POPC   D2A22324   9.930  42.906   8.305
 1450POPC   C3A22325   9.811  43.133   7.914
 1450POPC   C4A22326   9.533  43.412   7.650
 1450POPC   C1B22327   9.777  42.617   8.772
 1450POPC   C2B22328   9.700  42.451   8.365
 1450POPC   C3B22329   9.659  42.635   7.943
 1450POPC   C4B22330   9.723  42.832   7.511
 1451POPC   NC322331  28.043  13.073   9.615
 1451POPC   PO422332  28.678  12.928   9.479
 1451POPC   GL122333  28.417  13.128   9.189
 1451POPC   GL222334  28.227  12.837   9.187
 1451POPC   C1A22335  28.533  12.964   8.756
 1451POPC   D2A22336  28.773  12.723   8.427
 1451POPC   C3A22337  28.658  12.822   8.009
 1451POPC   C4A22338  28.348  12.933   7.711
 1451POPC   C1B22339  28.122  12.658   8.783
 1451POPC   C2B22340  28.258  12.721   8.346
 1451POPC   C3B22341  28.219  12.504   7.945
 1451POPC   C4B22342  28.259  12.475   7.470
 1452POPC   NC322343  41.100  33.335   9.699
 1452POPC   PO422344  40.648  33.858   9.439
 1452POPC   GL122345  40.900  33.672   9.132
 1452POPC   GL222346  40.616  33.595   8.984
 1452POPC   C1A22347  41.024  33.803   8.724
 1452POPC   D2A22348  41.054  33.700   8.305
 1452POPC   C3A22349  41.073  34.071   8.001
 1452POPC   C4A22350  40.783  34.161   7.654
 1452POPC   C1B22351  40.571  34.025   8.768
 1452POPC   C2B22352  40.693  34.066   8.343
 1452POPC   C3B22353  40.651  33.782   7.969
 1452POPC   C4B22354  40.313  33.986   7.736
 1453POPC   NC322355  17.048  43.429   9.376
 1453POPC   PO422356  16.532  43.161   9.641
 1453POPC   GL122357  16.586  42.957   9.220
 1453POPC   GL222358  16.934  42.979   9.148
 1453POPC   C1A22359  16.609  42.949   8.729
 1453POPC   D2A22360  16.542  43.152   8.319
 1453POPC   C3A22361  16.750  43.174   7.898
 1453POPC   C4A22362  17.066  43.456   7.759
 1453POPC   C1B22363  17.159  42.938   8.762
 1453POPC   C2B22364  17.044  43.061   8.348
 1453POPC   C3B22365  17.192  42.930   7.960
 1453POPC   C4B22366  17.137  43.011   7.510
 1454POPC   NC322367  36.161  10.421   9.516
 1454POPC   PO422368  36.484  11.077   9.521
 1454POPC   GL122369  36.264  10.771   9.152
 1454POPC   GL222370  36.367  10.408   9.076
 1454POPC   C1A22371  36.095  10.620   8.700
 1454POPC   D2A22372  35.761  10.624   8.351
 1454POPC   C3A22373  35.925  10.832   7.982
 1454POPC   C4A22374  36.270  10.804   7.685
 1454POPC   C1B22375  36.389  10.154   8.738
 1454POPC   C2B22376  36.550  10.273   8.374
 1454POPC   C3B22377  36.353  10.453   8.045
 1454POPC   C4B22378  35.988  10.346   7.855
 1455POPC   NC322379   2.700  32.851   9.428
 1455POPC   PO422380   2.324  33.381   9.553
 1455POPC   GL122381   2.546  33.230   9.109
 1455POPC   GL222382   2.508  32.826   8.972
 1455POPC   C1A22383   2.692  33.168   8.674
 1455POPC   D2A22384   2.650  32.791   8.413
 1455POPC   C3A22385   2.692  33.052   8.088
 1455POPC   C4A22386   3.012  33.229   7.873
 1455POPC   C1B22387   2.960  32.744   8.830
 1455POPC   C2B22388   3.137  32.464   8.531
 1455POPC   C3B22389   3.043  32.509   8.121
 1455POPC   C4B22390   2.956  32.725   7.770
 1456POPC   NC322391  26.401  16.240   9.516
 1456POPC   PO422392  25.923  15.788   9.518
 1456POPC   GL122393  26.168  15.875   9.174
 1456POPC   GL222394  26.051  16.181   9.121
 1456POPC   C1A22395  26.130  15.862   8.724
 1456POPC   D2A22396  25.826  15.950   8.413
 1456POPC   C3A22397  25.821  15.737   8.043
 1456POPC   C4A22398  26.006  15.960   7.708
 1456POPC   C1B22399  26.397  16.287   8.861
 1456POPC   C2B22400  26.460  16.150   8.451
 1456POPC   C3B22401  26.192  16.261   8.131
 1456POPC   C4B22402  26.417  16.289   7.765
 1457POPC   NC322403  44.851   3.114   9.266
 1457POPC   PO422404  44.485   2.661   9.712
 1457POPC   GL122405  44.480   2.764   9.236
 1457POPC   GL222406  44.404   2.473   9.083
 1457POPC   C1A22407  44.650   2.756   8.759
 1457POPC   D2A22408  44.855   2.719   8.348
 1457POPC   C3A22409  44.748   2.980   7.979
 1457POPC   C4A22410  44.943   2.805   7.596
 1457POPC   C1B22411  44.241   2.442   8.681
 1457POPC   C2B22412  44.482   2.363   8.297
 1457POPC   C3B22413  44.610   2.507   7.913
 1457POPC   C4B22414  44.539   2.464   7.499
 1458POPC   NC322415  18.470   7.589   9.262
 1458POPC   PO422416  18.974   7.236   9.662
 1458POPC   GL122417  19.013   7.518   9.310
 1458POPC   GL222418  18.855   7.310   9.065
 1458POPC   C1A22419  19.276   7.557   8.920
 1458POPC   D2A22420  19.084   7.397   8.539
 1458POPC   C3A22421  19.256   7.527   8.157
 1458POPC   C4A22422  19.072   7.428   7.793
 1458POPC   C1B22423  19.227   7.053   8.898
 1458POPC   C2B22424  19.144   6.863   8.509
 1458POPC   C3B22425  19.111   7.014   8.112
 1458POPC   C4B22426  19.326   6.989   7.743
 1459POPC   NC322427  17.158  40.935   9.647
 1459POPC   PO422428  17.793  40.957   9.718
 1459POPC   GL122429  17.580  41.097   9.306
 1459POPC   GL222430  17.871  41.133   9.124
 1459POPC   C1A22431  17.497  40.918   8.841
 1459POPC   D2A22432  17.629  40.766   8.408
 1459POPC   C3A22433  17.370  40.820   8.028
 1459POPC   C4A22434  17.348  40.708   7.574
 1459POPC   C1B22435  18.043  40.989   8.719
 1459POPC   C2B22436  18.098  40.934   8.259
 1459POPC   C3B22437  17.841  40.944   7.868
 1459POPC   C4B22438  17.748  40.968   7.398
 1460POPC   NC322439   8.881  21.813   9.573
 1460POPC   PO422440   9.129  22.350   9.534
 1460POPC   GL122441   8.945  22.165   9.187
 1460POPC   GL222442   8.931  22.497   9.037
 1460POPC   C1A22443   8.805  22.091   8.763
 1460POPC   D2A22444   9.097  21.963   8.435
 1460POPC   C3A22445   9.073  22.098   8.004
 1460POPC   C4A22446   8.748  22.032   7.704
 1460POPC   C1B22447   9.283  22.281   8.794
 1460POPC   C2B22448   9.507  22.294   8.399
 1460POPC   C3B22449   9.458  22.456   7.984
 1460POPC   C4B22450   9.571  22.234   7.636
 1461POPC   NC322451  27.346   0.422   9.413
 1461POPC   PO422452  28.015   0.606   9.429
 1461POPC   GL122453  27.740   0.530   9.106
 1461POPC   GL222454  27.497   0.768   9.032
 1461POPC   C1A22455  27.659   0.408   8.692
 1461POPC   D2A22456  27.615   0.104   8.392
 1461POPC   C3A22457  27.645   0.247   7.973
 1461POPC   C4A22458  27.391   0.078   7.666
 1461POPC   C1B22459  27.210   0.676   8.704
 1461POPC   C2B22460  27.366   0.577   8.295
 1461POPC   C3B22461  27.173   0.477   7.935
 1461POPC   C4B22462  27.046   0.815   7.719
 1462POPC   NC322463  37.062   9.036   9.673
 1462POPC   PO422464  36.617   8.610   9.431
 1462POPC   GL122465  36.968   8.781   9.180
 1462POPC   GL222466  37.021   9.172   9.170
 1462POPC   C1A22467  36.818   8.843   8.760
 1462POPC   D2A22468  36.725   9.164   8.446
 1462POPC   C3A22469  36.746   8.971   8.065
 1462POPC   C4A22470  36.689   8.903   7.636
 1462POPC   C1B22471  37.250   9.088   8.772
 1462POPC   C2B22472  37.178   8.762   8.418
 1462POPC   C3B22473  37.220   8.792   7.972
 1462POPC   C4B22474  37.111   9.214   7.815
 1463POPC   NC322475  40.980  20.723   9.557
 1463POPC   PO422476  40.588  20.237   9.464
 1463POPC   GL122477  40.718  20.584   9.130
 1463POPC   GL222478  40.826  20.949   9.130
 1463POPC   C1A22479  40.806  20.680   8.679
 1463POPC   D2A22480  40.621  20.586   8.262
 1463POPC   C3A22481  40.797  20.486   7.841
 1463POPC   C4A22482  40.695  20.718   7.458
 1463POPC   C1B22483  40.833  21.189   8.757
 1463POPC   C2B22484  40.794  21.069   8.305
 1463POPC   C3B22485  40.897  20.984   7.869
 1463POPC   C4B22486  41.141  21.001   7.470
 1464POPC   NC322487  26.516  42.094   9.561
 1464POPC   PO422488  26.988  42.603   9.495
 1464POPC   GL122489  26.839  42.346   9.160
 1464POPC   GL222490  26.472  42.348   9.128
 1464POPC   C1A22491  26.737  42.433   8.718
 1464POPC   D2A22492  26.934  42.362   8.337
 1464POPC   C3A22493  26.627  42.385   8.009
 1464POPC   C4A22494  26.819  42.290   7.639
 1464POPC   C1B22495  26.310  42.123   8.791
 1464POPC   C2B22496  26.499  42.041   8.408
 1464POPC   C3B22497  26.417  41.855   8.044
 1464POPC   C4B22498  26.276  42.056   7.684
 1465POPC   NC322499  19.001  21.869   9.340
 1465POPC   PO422500  19.147  21.198   9.603
 1465POPC   GL122501  19.201  21.416   9.247
 1465POPC   GL222502  19.539  21.478   9.217
 1465POPC   C1A22503  18.989  21.381   8.840
 1465POPC   D2A22504  18.846  21.422   8.429
 1465POPC   C3A22505  18.954  21.563   8.035
 1465POPC   C4A22506  18.914  21.536   7.627
 1465POPC   C1B22507  19.466  21.472   8.778
 1465POPC   C2B22508  19.344  21.525   8.362
 1465POPC   C3B22509  19.460  21.505   7.940
 1465POPC   C4B22510  19.359  21.344   7.496
 1466POPC   NC322511  28.850  44.058   9.600
 1466POPC   PO422512  29.183  43.518   9.405
 1466POPC   GL122513  28.864  43.771   9.177
 1466POPC   GL222514  29.071  44.095   9.152
 1466POPC   C1A22515  28.838  43.930   8.742
 1466POPC   D2A22516  29.122  43.875   8.391
 1466POPC   C3A22517  28.899  43.935   8.028
 1466POPC   C4A22518  29.015  44.107   7.641
 1466POPC   C1B22519  29.338  44.098   8.786
 1466POPC   C2B22520  29.482  44.225   8.344
 1466POPC   C3B22521  29.438  43.993   7.969
 1466POPC   C4B22522  29.538  44.102   7.564
 1467POPC   NC322523  40.634   0.106   9.541
 1467POPC   PO422524  40.779  44.372   9.565
 1467POPC   GL122525  40.688  44.486   9.145
 1467POPC   GL222526  40.999  44.366   9.022
 1467POPC   C1A22527  40.553  44.770   8.787
 1467POPC   D2A22528  40.558  44.973   8.384
 1467POPC   C3A22529  40.731  44.850   7.987
 1467POPC   C4A22530  40.671  44.958   7.542
 1467POPC   C1B22531  40.890  44.439   8.593
 1467POPC   C2B22532  40.951  44.327   8.161
 1467POPC   C3B22533  41.049  44.503   7.768
 1467POPC   C4B22534  41.128  44.669   7.351
 1468POPC   NC322535  10.239  23.431   9.786
 1468POPC   PO422536  10.449  22.919   9.583
 1468POPC   GL122537  10.624  22.796   9.186
 1468POPC   GL222538  10.631  23.126   9.111
 1468POPC   C1A22539  10.428  22.808   8.746
 1468POPC   D2A22540  10.273  22.736   8.328
 1468POPC   C3A22541  10.516  22.791   7.967
 1468POPC   C4A22542  10.505  22.524   7.610
 1468POPC   C1B22543  10.553  23.293   8.706
 1468POPC   C2B22544  10.382  23.275   8.284
 1468POPC   C3B22545  10.597  23.350   7.891
 1468POPC   C4B22546  10.424  23.435   7.479
 1469POPC   NC322547  28.335  35.767   9.502
 1469POPC   PO422548  28.048  36.384   9.533
 1469POPC   GL122549  28.234  36.189   9.186
 1469POPC   GL222550  27.992  35.934   9.160
 1469POPC   C1A22551  28.470  36.245   8.801
 1469POPC   D2A22552  28.438  36.047   8.368
 1469POPC   C3A22553  28.400  36.300   7.992
 1469POPC   C4A22554  28.676  36.412   7.675
 1469POPC   C1B22555  28.157  35.837   8.748
 1469POPC   C2B22556  27.979  35.737   8.356
 1469POPC   C3B22557  28.156  35.831   7.949
 1469POPC   C4B22558  28.584  35.843   7.846
 1470POPC   NC322559  43.682  28.068   9.643
 1470POPC   PO422560  44.086  28.626   9.452
 1470POPC   GL122561  43.987  28.282   9.167
 1470POPC   GL222562  44.258  28.038   9.194
 1470POPC   C1A22563  43.757  28.225   8.721
 1470POPC   D2A22564  43.814  27.994   8.295
 1470POPC   C3A22565  43.639  28.240   7.947
 1470POPC   C4A22566  43.813  28.637   7.986
 1470POPC   C1B22567  44.258  28.219   8.745
 1470POPC   C2B22568  44.119  28.404   8.361
 1470POPC   C3B22569  44.153  28.239   7.963
 1470POPC   C4B22570  44.411  28.283   7.658
 1471POPC   NC322571  25.933  32.720   9.698
 1471POPC   PO422572  26.248  33.267   9.495
 1471POPC   GL122573  25.990  33.003   9.220
 1471POPC   GL222574  25.973  32.629   9.179
 1471POPC   C1A22575  25.930  33.096   8.785
 1471POPC   D2A22576  25.854  33.375   8.424
 1471POPC   C3A22577  25.980  33.248   8.031
 1471POPC   C4A22578  26.355  33.412   7.844
 1471POPC   C1B22579  26.212  32.659   8.775
 1471POPC   C2B22580  26.137  32.880   8.366
 1471POPC   C3B22581  26.350  32.887   7.960
 1471POPC   C4B22582  26.252  32.509   7.752
 1472POPC   NC322583  38.360   3.379   9.750
 1472POPC   PO422584  38.860   3.685   9.349
 1472POPC   GL122585  38.441   3.702   9.100
 1472POPC   GL222586  38.268   3.404   9.246
 1472POPC   C1A22587  38.432   3.735   8.615
 1472POPC   D2A22588  38.724   3.548   8.267
 1472POPC   C3A22589  38.613   3.673   7.850
 1472POPC   C4A22590  38.165   3.757   7.758
 1472POPC   C1B22591  38.327   3.165   8.885
 1472POPC   C2B22592  38.292   3.256   8.460
 1472POPC   C3B22593  38.287   3.320   8.035
 1472POPC   C4B22594  38.475   3.142   7.672
 1473POPC   NC322595   3.485   8.775   9.431
 1473POPC   PO422596   3.761   9.410   9.494
 1473POPC   GL122597   3.762   9.135   9.160
 1473POPC   GL222598   3.941   8.806   9.181
 1473POPC   C1A22599   3.551   8.979   8.805
 1473POPC   D2A22600   3.491   8.856   8.396
 1473POPC   C3A22601   3.222   8.992   8.083
 1473POPC   C4A22602   3.049   8.723   7.774
 1473POPC   C1B22603   4.101   8.959   8.829
 1473POPC   C2B22604   3.953   9.110   8.485
 1473POPC   C3B22605   3.834   9.048   8.085
 1473POPC   C4B22606   3.589   9.193   7.776
 1474POPC   NC322607  12.819  11.758   9.893
 1474POPC   PO422608  12.749  12.399   9.682
 1474POPC   GL122609  12.810  12.105   9.305
 1474POPC   GL222610  13.161  12.180   9.213
 1474POPC   C1A22611  12.736  12.013   8.838
 1474POPC   D2A22612  12.474  11.848   8.461
 1474POPC   C3A22613  12.500  12.078   8.053
 1474POPC   C4A22614  12.692  11.991   7.636
 1474POPC   C1B22615  13.089  12.412   8.808
 1474POPC   C2B22616  13.183  12.300   8.391
 1474POPC   C3B22617  13.020  12.104   8.033
 1474POPC   C4B22618  13.139  12.246   7.625
 1475POPC   NC322619  11.480  24.376   9.234
 1475POPC   PO422620  10.982  24.593   9.570
 1475POPC   GL122621  10.943  24.495   9.099
 1475POPC   GL222622  10.932  24.194   8.933
 1475POPC   C1A22623  10.954  24.619   8.650
 1475POPC   D2A22624  11.160  24.534   8.231
 1475POPC   C3A22625  10.997  24.687   7.830
 1475POPC   C4A22626  11.164  24.597   7.444
 1475POPC   C1B22627  11.292  24.251   8.637
 1475POPC   C2B22628  11.604  24.138   8.346
 1475POPC   C3B22629  11.517  24.184   7.938
 1475POPC   C4B22630  11.108  24.202   7.787
 1476POPC   NC322631  22.652  29.974   9.444
 1476POPC   PO422632  23.287  30.228   9.553
 1476POPC   GL122633  23.111  29.969   9.166
 1476POPC   GL222634  22.768  29.860   8.980
 1476POPC   C1A22635  23.175  30.029   8.731
 1476POPC   D2A22636  22.791  30.036   8.479
 1476POPC   C3A22637  22.869  30.145   8.044
 1476POPC   C4A22638  23.182  30.138   7.698
 1476POPC   C1B22639  22.954  29.564   8.715
 1476POPC   C2B22640  23.088  29.644   8.327
 1476POPC   C3B22641  23.008  29.671   7.905
 1476POPC   C4B22642  23.394  29.593   7.752
 1477POPC   NC322643  34.243  37.108   9.463
 1477POPC   PO422644  34.714  36.668   9.462
 1477POPC   GL122645  34.536  36.766   9.099
 1477POPC   GL222646  34.208  36.674   9.140
 1477POPC   C1A22647  34.633  36.893   8.695
 1477POPC   D2A22648  34.638  36.738   8.304
 1477POPC   C3A22649  34.460  36.960   7.977
 1477POPC   C4A22650  34.580  36.776   7.639
 1477POPC   C1B22651  34.261  36.521   8.714
 1477POPC   C2B22652  34.133  36.390   8.294
 1477POPC   C3B22653  34.253  36.436   7.846
 1477POPC   C4B22654  34.261  36.477   7.387
 1478POPC   NC322655  30.522  42.509   9.498
 1478POPC   PO422656  30.800  41.933   9.470
 1478POPC   GL122657  30.812  42.245   9.139
 1478POPC   GL222658  30.460  42.235   9.059
 1478POPC   C1A22659  30.795  42.299   8.679
 1478POPC   D2A22660  30.623  42.232   8.271
 1478POPC   C3A22661  30.874  42.119   7.903
 1478POPC   C4A22662  30.970  41.876   7.516
 1478POPC   C1B22663  30.302  42.575   8.801
 1478POPC   C2B22664  30.145  42.612   8.383
 1478POPC   C3B22665  30.307  42.783   8.001
 1478POPC   C4B22666  30.678  42.701   7.747
 1479POPC   NC322667   6.860  17.515   9.519
 1479POPC   PO422668   6.484  18.064   9.515
 1479POPC   GL122669   6.662  17.817   9.139
 1479POPC   GL222670   6.715  17.432   9.049
 1479POPC   C1A22671   6.647  17.775   8.698
 1479POPC   D2A22672   6.878  17.543   8.370
 1479POPC   C3A22673   6.676  17.489   7.995
 1479POPC   C4A22674   6.500  17.704   7.629
 1479POPC   C1B22675   6.940  17.185   8.723
 1479POPC   C2B22676   7.217  17.151   8.325
 1479POPC   C3B22677   7.053  17.157   7.898
 1479POPC   C4B22678   6.762  17.245   7.544
 1480POPC   NC322679  11.507  18.706   9.402
 1480POPC   PO422680  10.993  18.303   9.537
 1480POPC   GL122681  10.944  18.489   9.100
 1480POPC   GL222682  11.168  18.738   9.038
 1480POPC   C1A22683  11.027  18.547   8.617
 1480POPC   D2A22684  11.040  18.145   8.401
 1480POPC   C3A22685  11.315  18.122   8.053
 1480POPC   C4A22686  11.492  18.099   7.654
 1480POPC   C1B22687  11.512  18.532   8.791
 1480POPC   C2B22688  11.604  18.338   8.420
 1480POPC   C3B22689  11.606  18.534   8.016
 1480POPC   C4B22690  11.628  18.670   7.615
 1481POPC   NC322691  33.242  28.547   9.587
 1481POPC   PO422692  32.602  28.563   9.335
 1481POPC   GL122693  32.973  28.537   9.115
 1481POPC   GL222694  32.913  28.226   8.930
 1481POPC   C1A22695  33.131  28.682   8.722
 1481POPC   D2A22696  33.056  28.461   8.338
 1481POPC   C3A22697  32.936  28.616   7.940
 1481POPC   C4A22698  32.668  28.474   7.627
 1481POPC   C1B22699  33.323  28.197   8.698
 1481POPC   C2B22700  33.582  28.248   8.321
 1481POPC   C3B22701  33.370  28.338   7.917
 1481POPC   C4B22702  33.174  28.424   7.504
 1482POPC   NC322703   1.782  10.653   9.446
 1482POPC   PO422704   2.274  10.113   9.523
 1482POPC   GL122705   2.123  10.344   9.154
 1482POPC   GL222706   1.772  10.322   9.031
 1482POPC   C1A22707   2.116  10.603   8.764
 1482POPC   D2A22708   2.358  10.664   8.379
 1482POPC   C3A22709   2.236  10.691   7.937
 1482POPC   C4A22710   2.165  10.370   7.614
 1482POPC   C1B22711   1.734  10.352   8.550
 1482POPC   C2B22712   1.925  10.353   8.151
 1482POPC   C3B22713   1.708  10.412   7.794
 1482POPC   C4B22714   1.314  10.343   7.586
 1483POPC   NC322715  40.215  42.647   9.511
 1483POPC   PO422716  39.791  42.204   9.448
 1483POPC   GL122717  40.116  42.273   9.160
 1483POPC   GL222718  40.004  42.594   9.040
 1483POPC   C1A22719  40.363  42.309   8.783
 1483POPC   D2A22720  40.434  42.543   8.411
 1483POPC   C3A22721  40.221  42.351   8.054
 1483POPC   C4A22722  40.352  42.299   7.620
 1483POPC   C1B22723  39.768  42.333   8.753
 1483POPC   C2B22724  39.760  42.300   8.313
 1483POPC   C3B22725  39.636  42.508   7.982
 1483POPC   C4B22726  39.895  42.479   7.672
 1484POPC   NC322727  10.109  39.819   9.662
 1484POPC   PO422728  10.780  39.950   9.632
 1484POPC   GL122729  10.491  39.963   9.330
 1484POPC   GL222730  10.661  40.116   9.077
 1484POPC   C1A22731  10.410  39.699   8.973
 1484POPC   D2A22732  10.571  39.700   8.544
 1484POPC   C3A22733  10.311  39.670   8.176
 1484POPC   C4A22734  10.314  39.711   7.742
 1484POPC   C1B22735  10.805  40.171   8.662
 1484POPC   C2B22736  10.779  40.454   8.302
 1484POPC   C3B22737  10.566  40.345   7.921
 1484POPC   C4B22738  10.626  40.292   7.523
 1485POPC   NC322739  23.991  27.997   9.363
 1485POPC   PO422740  23.571  27.508   9.538
 1485POPC   GL122741  23.823  27.519   9.119
 1485POPC   GL222742  23.731  27.831   8.942
 1485POPC   C1A22743  23.962  27.473   8.641
 1485POPC   D2A22744  23.844  27.731   8.262
 1485POPC   C3A22745  23.846  27.578   7.825
 1485POPC   C4A22746  23.638  27.221   7.729
 1485POPC   C1B22747  24.074  28.021   8.671
 1485POPC   C2B22748  24.163  28.125   8.229
 1485POPC   C3B22749  23.915  28.085   7.818
 1485POPC   C4B22750  23.946  27.853   7.384
 1486POPC   NC322751  34.452  10.738   9.530
 1486POPC   PO422752  35.014  10.343   9.535
 1486POPC   GL122753  34.763  10.289   9.166
 1486POPC   GL222754  34.396  10.375   9.117
 1486POPC   C1A22755  34.851  10.347   8.752
 1486POPC   D2A22756  34.742  10.237   8.358
 1486POPC   C3A22757  34.874  10.491   8.011
 1486POPC   C4A22758  34.683  10.420   7.625
 1486POPC   C1B22759  34.307  10.487   8.666
 1486POPC   C2B22760  34.334  10.535   8.211
 1486POPC   C3B22761  34.269  10.669   7.795
 1486POPC   C4B22762  34.316  10.946   7.414
 1487POPC   NC322763  20.562  17.073   9.260
 1487POPC   PO422764  20.799  17.536   9.777
 1487POPC   GL122765  20.745  17.571   9.303
 1487POPC   GL222766  20.377  17.578   9.291
 1487POPC   C1A22767  20.928  17.533   8.831
 1487POPC   D2A22768  21.103  17.456   8.410
 1487POPC   C3A22769  20.760  17.286   8.163
 1487POPC   C4A22770  20.650  17.510   7.801
 1487POPC   C1B22771  20.462  17.754   8.889
 1487POPC   C2B22772  20.521  17.660   8.471
 1487POPC   C3B22773  20.290  17.711   8.099
 1487POPC   C4B22774  20.226  17.720   7.638
 1488POPC   NC322775  30.836  19.310   9.460
 1488POPC   PO422776  30.316  18.776   9.592
 1488POPC   GL122777  30.532  18.963   9.241
 1488POPC   GL222778  30.414  19.312   9.183
 1488POPC   C1A22779  30.734  19.090   8.838
 1488POPC   D2A22780  30.771  19.259   8.436
 1488POPC   C3A22781  30.779  18.994   8.096
 1488POPC   C4A22782  30.716  18.733   7.733
 1488POPC   C1B22783  30.374  19.439   8.756
 1488POPC   C2B22784  30.352  19.557   8.323
 1488POPC   C3B22785  30.398  19.307   7.962
 1488POPC   C4B22786  30.681  19.216   7.611
 1489POPC   NC322787  11.382  19.464   9.479
 1489POPC   PO422788  10.843  19.820   9.547
 1489POPC   GL122789  10.915  19.740   9.104
 1489POPC   GL222790  11.212  19.916   9.048
 1489POPC   C1A22791  11.002  19.667   8.618
 1489POPC   D2A22792  11.316  19.392   8.357
 1489POPC   C3A22793  11.349  19.515   7.917
 1489POPC   C4A22794  11.074  19.865   7.762
 1489POPC   C1B22795  11.469  19.832   8.666
 1489POPC   C2B22796  11.349  19.925   8.226
 1489POPC   C3B22797  11.643  19.920   7.856
 1489POPC   C4B22798  11.859  20.160   7.545
 1490POPC   NC322799   1.835  44.073   9.400
 1490POPC   PO422800   2.109  43.404   9.453
 1490POPC   GL122801   1.928  43.642   9.124
 1490POPC   GL222802   2.170  43.921   9.053
 1490POPC   C1A22803   1.722  43.775   8.740
 1490POPC   D2A22804   1.901  43.745   8.337
 1490POPC   C3A22805   1.935  44.007   8.014
 1490POPC   C4A22806   1.754  43.746   7.716
 1490POPC   C1B22807   2.237  43.689   8.715
 1490POPC   C2B22808   2.413  43.606   8.320
 1490POPC   C3B22809   2.268  43.651   7.880
 1490POPC   C4B22810   2.185  43.485   7.462
 1491POPC   NC322811  32.247  40.890   9.617
 1491POPC   PO422812  31.862  40.380   9.701
 1491POPC   GL122813  32.067  40.519   9.254
 1491POPC   GL222814  32.341  40.831   9.127
 1491POPC   C1A22815  32.059  40.580   8.804
 1491POPC   D2A22816  31.977  40.432   8.392
 1491POPC   C3A22817  32.232  40.674   8.098
 1491POPC   C4A22818  32.115  40.815   7.671
 1491POPC   C1B22819  32.579  40.999   8.763
 1491POPC   C2B22820  32.582  41.208   8.346
 1491POPC   C3B22821  32.425  41.130   7.927
 1491POPC   C4B22822  32.634  40.797   7.640
 1492POPC   NC322823  27.303  38.284   9.818
 1492POPC   PO422824  27.660  37.651   9.564
 1492POPC   GL122825  27.605  37.651   9.149
 1492POPC   GL222826  27.922  37.609   9.045
 1492POPC   C1A22827  27.354  37.640   8.788
 1492POPC   D2A22828  27.490  37.814   8.404
 1492POPC   C3A22829  27.746  37.570   8.162
 1492POPC   C4A22830  27.652  37.576   7.752
 1492POPC   C1B22831  27.991  37.894   8.689
 1492POPC   C2B22832  27.824  38.194   8.376
 1492POPC   C3B22833  27.702  38.046   7.968
 1492POPC   C4B22834  28.002  37.966   7.630
 1493POPC   NC322835   3.032  24.445   9.387
 1493POPC   PO422836   2.394  24.234   9.573
 1493POPC   GL122837   2.562  24.378   9.165
 1493POPC   GL222838   2.506  24.678   9.176
 1493POPC   C1A22839   2.752  24.346   8.712
 1493POPC   D2A22840   2.585  24.257   8.294
 1493POPC   C3A22841   2.891  24.329   7.947
 1493POPC   C4A22842   3.128  24.710   7.780
 1493POPC   C1B22843   2.607  24.869   8.772
 1493POPC   C2B22844   2.755  24.746   8.336
 1493POPC   C3B22845   2.604  24.786   7.895
 1493POPC   C4B22846   2.777  24.982   7.508
 1494POPC   NC322847  29.618  32.292   9.334
 1494POPC   PO422848  30.251  32.073   9.406
 1494POPC   GL122849  30.011  32.108   9.040
 1494POPC   GL222850  29.689  31.912   9.004
 1494POPC   C1A22851  30.192  32.063   8.630
 1494POPC   D2A22852  30.211  31.833   8.231
 1494POPC   C3A22853  30.092  32.188   7.993
 1494POPC   C4A22854  29.897  32.395   7.685
 1494POPC   C1B22855  29.712  32.245   8.631
 1494POPC   C2B22856  29.679  32.481   8.202
 1494POPC   C3B22857  29.395  32.566   7.826
 1494POPC   C4B22858  29.440  32.849   7.439
 1495POPC   NC322859  42.087  34.171   9.328
 1495POPC   PO422860  42.125  33.586   9.342
 1495POPC   GL122861  42.292  33.801   9.011
 1495POPC   GL222862  42.436  33.514   8.891
 1495POPC   C1A22863  42.487  33.980   8.655
 1495POPC   D2A22864  42.242  33.825   8.339
 1495POPC   C3A22865  42.114  34.061   8.003
 1495POPC   C4A22866  41.965  33.721   7.765
 1495POPC   C1B22867  42.756  33.534   8.613
 1495POPC   C2B22868  42.734  33.691   8.256
 1495POPC   C3B22869  42.504  33.656   7.901
 1495POPC   C4B22870  42.458  33.978   7.633
 1496POPC   NC322871  30.026  36.466   9.420
 1496POPC   PO422872  29.708  35.872   9.542
 1496POPC   GL122873  29.852  36.068   9.173
 1496POPC   GL222874  29.645  36.368   9.097
 1496POPC   C1A22875  29.930  36.085   8.730
 1496POPC   D2A22876  29.954  35.793   8.369
 1496POPC   C3A22877  30.044  36.065   8.012
 1496POPC   C4A22878  29.983  36.484   7.882
 1496POPC   C1B22879  29.410  35.999   8.913
 1496POPC   C2B22880  29.299  35.855   8.496
 1496POPC   C3B22881  29.509  35.762   8.114
 1496POPC   C4B22882  29.536  36.140   7.861
 1497POPC   NC322883  11.961  29.623   9.439
 1497POPC   PO422884  12.531  29.919   9.389
 1497POPC   GL122885  12.362  29.586   9.059
 1497POPC   GL222886  12.003  29.524   8.941
 1497POPC   C1A22887  12.323  29.543   8.571
 1497POPC   D2A22888  11.964  29.599   8.314
 1497POPC   C3A22889  12.008  29.935   8.098
 1497POPC   C4A22890  12.304  29.979   7.815
 1497POPC   C1B22891  11.997  29.941   8.697
 1497POPC   C2B22892  11.795  30.278   8.411
 1497POPC   C3B22893  11.631  30.246   7.951
 1497POPC   C4B22894  11.849  30.038   7.600
 1498POPC   NC322895  38.133  40.584   9.517
 1498POPC   PO422896  38.506  41.090   9.323
 1498POPC   GL122897  38.369  40.799   9.110
 1498POPC   GL222898  38.687  40.590   9.132
 1498POPC   C1A22899  38.282  40.985   8.717
 1498POPC   D2A22900  38.452  40.938   8.360
 1498POPC   C3A22901  38.216  41.029   8.038
 1498POPC   C4A22902  38.404  41.155   7.684
 1498POPC   C1B22903  38.458  40.485   8.744
 1498POPC   C2B22904  38.209  40.396   8.409
 1498POPC   C3B22905  38.367  40.530   8.061
 1498POPC   C4B22906  38.402  40.577   7.666
 1499POPC   NC322907  17.848  35.291   9.318
 1499POPC   PO422908  17.584  34.725   9.308
 1499POPC   GL122909  17.491  35.018   9.000
 1499POPC   GL222910  17.130  35.052   9.047
 1499POPC   C1A22911  17.609  35.210   8.596
 1499POPC   D2A22912  17.727  35.221   8.158
 1499POPC   C3A22913  17.693  35.485   7.839
 1499POPC   C4A22914  17.597  35.377   7.439
 1499POPC   C1B22915  17.093  35.258   8.644
 1499POPC   C2B22916  17.232  35.343   8.212
 1499POPC   C3B22917  17.140  35.480   7.780
 1499POPC   C4B22918  16.771  35.375   7.508
 1500POPC   NC322919  11.886   7.572   9.477
 1500POPC   PO422920  12.517   7.722   9.435
 1500POPC   GL122921  12.295   7.584   9.124
 1500POPC   GL222922  12.144   7.285   9.136
 1500POPC   C1A22923  12.105   7.608   8.752
 1500POPC   D2A22924  12.310   7.514   8.415
 1500POPC   C3A22925  12.126   7.480   8.080
 1500POPC   C4A22926  11.873   7.724   7.874
 1500POPC   C1B22927  11.925   7.117   8.793
 1500POPC   C2B22928  11.807   7.172   8.374
 1500POPC   C3B22929  11.932   7.015   7.981
 1500POPC   C4B22930  12.012   7.268   7.633
 1501POPC   NC322931  38.410  26.944   9.665
 1501POPC   PO422932  37.902  26.546   9.531
 1501POPC   GL122933  38.315  26.626   9.238
 1501POPC   GL222934  38.316  26.968   9.174
 1501POPC   C1A22935  38.558  26.740   8.807
 1501POPC   D2A22936  38.766  26.671   8.417
 1501POPC   C3A22937  38.658  26.737   8.011
 1501POPC   C4A22938  38.429  26.445   7.741
 1501POPC   C1B22939  38.156  27.043   8.762
 1501POPC   C2B22940  38.401  27.105   8.395
 1501POPC   C3B22941  38.568  27.341   8.076
 1501POPC   C4B22942  38.465  27.128   7.718
 1502POPC   NC322943  16.416  33.071   9.546
 1502POPC   PO422944  15.787  32.699   9.609
 1502POPC   GL122945  15.931  32.862   9.188
 1502POPC   GL222946  16.128  33.169   9.140
 1502POPC   C1A22947  15.931  32.877   8.749
 1502POPC   D2A22948  16.107  32.615   8.493
 1502POPC   C3A22949  16.189  32.795   8.132
 1502POPC   C4A22950  16.063  32.886   7.735
 1502POPC   C1B22951  15.798  33.329   8.890
 1502POPC   C2B22952  15.863  33.389   8.469
 1502POPC   C3B22953  15.806  33.179   8.082
 1502POPC   C4B22954  16.010  33.388   7.763
 1503POPC   NC322955   4.153  31.607   9.490
 1503POPC   PO422956   4.609  31.123   9.387
 1503POPC   GL122957   4.358  31.353   9.094
 1503POPC   GL222958   4.392  31.734   9.063
 1503POPC   C1A22959   4.197  31.195   8.720
 1503POPC   D2A22960   4.475  31.129   8.372
 1503POPC   C3A22961   4.464  31.394   8.010
 1503POPC   C4A22962   4.111  31.370   7.734
 1503POPC   C1B22963   4.355  31.658   8.622
 1503POPC   C2B22964   4.048  31.528   8.292
 1503POPC   C3B22965   3.962  31.802   7.932
 1503POPC   C4B22966   4.301  31.967   7.783
 1504POPC   NC322967  11.129  13.320   9.454
 1504POPC   PO422968  11.437  13.921   9.565
 1504POPC   GL122969  11.228  13.941   9.183
 1504POPC   GL222970  11.329  13.629   9.113
 1504POPC   C1A22971  11.376  13.953   8.740
 1504POPC   D2A22972  11.327  13.698   8.371
 1504POPC   C3A22973  11.343  13.851   7.962
 1504POPC   C4A22974  11.284  13.651   7.586
 1504POPC   C1B22975  11.194  13.411   8.778
 1504POPC   C2B22976  11.101  13.229   8.367
 1504POPC   C3B22977  11.325  13.313   8.000
 1504POPC   C4B22978  11.209  13.161   7.626
 1505POPC   NC322979  37.416  36.295   9.341
 1505POPC   PO422980  37.659  35.705   9.500
 1505POPC   GL122981  37.780  35.964   9.137
 1505POPC   GL222982  37.912  36.311   9.124
 1505POPC   C1A22983  37.575  36.139   8.744
 1505POPC   D2A22984  37.447  36.323   8.373
 1505POPC   C3A22985  37.359  36.032   8.061
 1505POPC   C4A22986  37.412  36.105   7.637
 1505POPC   C1B22987  38.119  36.101   8.741
 1505POPC   C2B22988  38.290  36.076   8.304
 1505POPC   C3B22989  38.070  36.130   7.918
 1505POPC   C4B22990  37.773  36.450   7.824
 1506POPC   NC322991  24.112  43.537   9.368
 1506POPC   PO422992  23.614  43.871   9.658
 1506POPC   GL122993  23.550  43.839   9.167
 1506POPC   GL222994  23.828  43.679   8.978
 1506POPC   C1A22995  23.412  43.617   8.745
 1506POPC   D2A22996  23.609  43.590   8.326
 1506POPC   C3A22997  23.412  43.829   8.003
 1506POPC   C4A22998  23.570  44.089   7.676
 1506POPC   C1B22999  24.141  43.700   8.697
 1506POPC   C2B23000  24.140  43.900   8.345
 1506POPC   C3B23001  24.069  43.738   7.979
 1506POPC   C4B23002  24.215  43.912   7.645
 1507POPC   NC323003  38.741   7.295   9.534
 1507POPC   PO423004  39.350   7.337   9.664
 1507POPC   GL123005  39.163   7.419   9.239
 1507POPC   GL223006  38.835   7.478   9.067
 1507POPC   C1A23007  39.271   7.573   8.808
 1507POPC   D2A23008  39.240   7.366   8.368
 1507POPC   C3A23009  39.081   7.667   8.035
 1507POPC   C4A23010  39.138   7.858   7.610
 1507POPC   C1B23011  39.027   7.123   8.777
 1507POPC   C2B23012  38.951   6.862   8.408
 1507POPC   C3B23013  39.156   6.962   8.014
 1507POPC   C4B23014  39.137   7.295   7.677
 1508POPC   NC323015  18.030  16.570   9.461
 1508POPC   PO423016  18.611  16.884   9.563
 1508POPC   GL123017  18.535  16.597   9.192
 1508POPC   GL223018  18.258  16.805   9.074
 1508POPC   C1A23019  18.452  16.502   8.733
 1508POPC   D2A23020  18.315  16.700   8.354
 1508POPC   C3A23021  18.531  16.589   7.958
 1508POPC   C4A23022  18.593  16.613   7.487
 1508POPC   C1B23023  18.060  17.000   8.714
 1508POPC   C2B23024  17.974  17.079   8.301
 1508POPC   C3B23025  18.156  16.979   7.948
 1508POPC   C4B23026  18.123  16.857   7.486
 1509POPC   NC323027  21.565  26.266   9.603
 1509POPC   PO423028  21.227  25.783   9.269
 1509POPC   GL123029  21.047  26.012   8.989
 1509POPC   GL223030  21.206  26.316   9.122
 1509POPC   C1A23031  21.097  26.213   8.598
 1509POPC   D2A23032  21.193  26.513   8.281
 1509POPC   C3A23033  21.113  26.296   7.915
 1509POPC   C4A23034  21.252  25.940   7.702
 1509POPC   C1B23035  21.567  26.235   8.810
 1509POPC   C2B23036  21.719  26.410   8.391
 1509POPC   C3B23037  21.620  26.262   7.969
 1509POPC   C4B23038  21.486  26.384   7.550
 1510POPC   NC323039   4.684  30.161   9.377
 1510POPC   PO423040   4.305  29.649   9.627
 1510POPC   GL123041   4.307  29.759   9.160
 1510POPC   GL223042   4.072  29.988   9.017
 1510POPC   C1A23043   4.063  29.541   8.806
 1510POPC   D2A23044   4.099  29.457   8.365
 1510POPC   C3A23045   4.061  29.776   8.052
 1510POPC   C4A23046   4.428  29.819   7.846
 1510POPC   C1B23047   4.246  30.182   8.695
 1510POPC   C2B23048   4.158  30.365   8.318
 1510POPC   C3B23049   4.330  30.301   7.951
 1510POPC   C4B23050   4.070  30.198   7.660
 1511POPC   NC323051  33.585  29.364   9.556
 1511POPC   PO423052  33.952  28.835   9.387
 1511POPC   GL123053  33.766  29.153   9.125
 1511POPC   GL223054  33.998  29.447   9.160
 1511POPC   C1A23055  33.562  29.137   8.707
 1511POPC   D2A23056  33.743  29.292   8.335
 1511POPC   C3A23057  33.718  29.106   7.899
 1511POPC   C4A23058  33.422  28.843   7.636
 1511POPC   C1B23059  34.071  29.212   8.734
 1511POPC   C2B23060  34.242  29.193   8.322
 1511POPC   C3B23061  34.080  29.442   7.989
 1511POPC   C4B23062  34.114  29.365   7.531
 1512POPC   NC323063   2.598  10.710   9.704
 1512POPC   PO423064   2.659  11.399   9.688
 1512POPC   GL123065   2.550  11.162   9.232
 1512POPC   GL223066   2.753  11.377   9.029
 1512POPC   C1A23067   2.806  10.950   8.808
 1512POPC   D2A23068   2.789  10.967   8.346
 1512POPC   C3A23069   3.063  11.074   8.002
 1512POPC   C4A23070   2.859  11.118   7.605
 1512POPC   C1B23071   2.674  11.396   8.603
 1512POPC   C2B23072   2.960  11.486   8.294
 1512POPC   C3B23073   2.885  11.705   7.940
 1512POPC   C4B23074   2.714  11.629   7.527
 1513POPC   NC323075  43.451   4.000   9.591
 1513POPC   PO423076  42.794   4.066   9.588
 1513POPC   GL123077  42.782   4.129   9.159
 1513POPC   GL223078  43.105   4.258   9.174
 1513POPC   C1A23079  42.796   4.340   8.757
 1513POPC   D2A23080  43.017   4.477   8.368
 1513POPC   C3A23081  42.939   4.306   7.984
 1513POPC   C4A23082  42.904   3.937   7.741
 1513POPC   C1B23083  43.303   4.399   8.787
 1513POPC   C2B23084  43.539   4.434   8.403
 1513POPC   C3B23085  43.445   4.356   7.958
 1513POPC   C4B23086  43.210   4.326   7.558
 1514POPC   NC323087  34.806  43.343   9.384
 1514POPC   PO423088  34.503  42.762   9.252
 1514POPC   GL123089  34.525  43.146   9.019
 1514POPC   GL223090  34.895  43.082   8.955
 1514POPC   C1A23091  34.458  43.176   8.613
 1514POPC   D2A23092  34.678  42.890   8.338
 1514POPC   C3A23093  34.384  42.854   7.985
 1514POPC   C4A23094  34.318  43.199   7.714
 1514POPC   C1B23095  34.910  43.445   8.711
 1514POPC   C2B23096  34.785  43.410   8.317
 1514POPC   C3B23097  34.822  43.189   7.957
 1514POPC   C4B23098  34.826  43.381   7.589
 1515POPC   NC323099  36.575  40.841   9.452
 1515POPC   PO423100  36.990  40.216   9.338
 1515POPC   GL123101  37.041  40.579   9.023
 1515POPC   GL223102  37.017  40.948   9.058
 1515POPC   C1A23103  36.875  40.755   8.598
 1515POPC   D2A23104  36.467  40.701   8.346
 1515POPC   C3A23105  36.596  40.721   7.928
 1515POPC   C4A23106  36.966  40.541   7.800
 1515POPC   C1B23107  37.145  41.203   8.680
 1515POPC   C2B23108  37.127  41.102   8.219
 1515POPC   C3B23109  37.141  41.182   7.750
 1515POPC   C4B23110  37.212  41.443   7.326
 1516POPC   NC323111  25.501  37.028   9.587
 1516POPC   PO423112  24.906  37.185   9.696
 1516POPC   GL123113  25.097  36.994   9.233
 1516POPC   GL223114  25.433  36.946   9.095
 1516POPC   C1A23115  25.122  36.665   8.838
 1516POPC   D2A23116  25.061  36.865   8.408
 1516POPC   C3A23117  25.073  36.671   7.997
 1516POPC   C4A23118  24.928  36.908   7.661
 1516POPC   C1B23119  25.204  37.204   8.785
 1516POPC   C2B23120  25.183  37.382   8.391
 1516POPC   C3B23121  25.246  37.162   7.974
 1516POPC   C4B23122  25.468  36.898   7.633
 1517POPC   NC323123   9.189   5.886   9.536
 1517POPC   PO423124   8.775   5.392   9.671
 1517POPC   GL123125   8.950   5.464   9.245
 1517POPC   GL223126   8.664   5.670   9.153
 1517POPC   C1A23127   9.146   5.738   8.890
 1517POPC   D2A23128   9.083   5.964   8.488
 1517POPC   C3A23129   8.923   5.744   8.125
 1517POPC   C4A23130   8.958   5.488   7.733
 1517POPC   C1B23131   8.658   5.940   8.788
 1517POPC   C2B23132   8.509   6.207   8.470
 1517POPC   C3B23133   8.502   6.104   8.047
 1517POPC   C4B23134   8.536   5.754   7.775
 1518POPC   NC323135  29.888  30.078   9.559
 1518POPC   PO423136  30.208  29.469   9.582
 1518POPC   GL123137  29.962  29.713   9.187
 1518POPC   GL223138  29.735  30.033   9.090
 1518POPC   C1A23139  30.020  29.820   8.726
 1518POPC   D2A23140  29.815  29.994   8.351
 1518POPC   C3A23141  29.806  29.791   7.941
 1518POPC   C4A23142  30.021  29.972   7.615
 1518POPC   C1B23143  29.648  30.298   8.738
 1518POPC   C2B23144  29.657  30.510   8.328
 1518POPC   C3B23145  29.781  30.323   7.941
 1518POPC   C4B23146  29.586  30.191   7.562
 1519POPC   NC323147  38.316   6.619   9.596
 1519POPC   PO423148  38.835   6.900   9.327
 1519POPC   GL123149  38.497   6.766   9.096
 1519POPC   GL223150  38.393   6.446   9.129
 1519POPC   C1A23151  38.505   6.671   8.678
 1519POPC   D2A23152  38.311   6.557   8.303
 1519POPC   C3A23153  38.450   6.744   7.916
 1519POPC   C4A23154  38.794   6.898   7.668
 1519POPC   C1B23155  38.088   6.396   8.776
 1519POPC   C2B23156  37.839   6.360   8.391
 1519POPC   C3B23157  37.950   6.471   7.950
 1519POPC   C4B23158  38.080   6.429   7.510
 1520POPC   NC323159  25.454  28.614   9.695
 1520POPC   PO423160  25.458  27.990   9.487
 1520POPC   GL123161  25.355  28.189   9.114
 1520POPC   GL223162  25.696  28.081   9.019
 1520POPC   C1A23163  25.094  28.372   8.763
 1520POPC   D2A23164  25.000  28.701   8.443
 1520POPC   C3A23165  24.976  28.573   8.001
 1520POPC   C4A23166  25.230  28.450   7.624
 1520POPC   C1B23167  25.397  27.942   8.669
 1520POPC   C2B23168  25.037  27.994   8.394
 1520POPC   C3B23169  25.136  28.064   7.973
 1520POPC   C4B23170  25.565  28.146   7.872
 1521POPC   NC323171  28.070  18.687   9.693
 1521POPC   PO423172  28.696  18.931   9.583
 1521POPC   GL123173  28.452  18.994   9.196
 1521POPC   GL223174  28.131  18.862   9.227
 1521POPC   C1A23175  28.516  19.148   8.788
 1521POPC   D2A23176  28.714  19.149   8.388
 1521POPC   C3A23177  28.438  19.029   8.058
 1521POPC   C4A23178  28.554  19.097   7.638
 1521POPC   C1B23179  28.133  18.720   8.821
 1521POPC   C2B23180  28.051  18.862   8.387
 1521POPC   C3B23181  27.937  18.772   7.968
 1521POPC   C4B23182  28.034  19.060   7.665
 1522POPC   NC323183  17.797  37.900   9.575
 1522POPC   PO423184  17.494  37.308   9.573
 1522POPC   GL123185  17.392  37.582   9.169
 1522POPC   GL223186  17.437  37.925   9.045
 1522POPC   C1A23187  17.215  37.600   8.714
 1522POPC   D2A23188  17.361  37.665   8.251
 1522POPC   C3A23189  17.733  37.449   8.064
 1522POPC   C4A23190  17.819  37.329   7.595
 1522POPC   C1B23191  17.525  38.013   8.587
 1522POPC   C2B23192  17.807  37.939   8.205
 1522POPC   C3B23193  17.771  37.836   7.740
 1522POPC   C4B23194  17.407  37.930   7.459
 1523POPC   NC323195  25.727  16.253   9.507
 1523POPC   PO423196  25.313  15.684   9.409
 1523POPC   GL123197  25.447  16.003   9.159
 1523POPC   GL223198  25.222  16.277   9.239
 1523POPC   C1A23199  25.439  15.946   8.750
 1523POPC   D2A23200  25.126  15.887   8.495
 1523POPC   C3A23201  25.259  15.943   8.112
 1523POPC   C4A23202  25.422  15.925   7.699
 1523POPC   C1B23203  25.084  16.318   8.793
 1523POPC   C2B23204  24.951  16.368   8.351
 1523POPC   C3B23205  25.154  16.412   7.944
 1523POPC   C4B23206  25.129  16.380   7.485
 1524POPC   NC323207  30.503  22.583   9.490
 1524POPC   PO423208  30.697  23.261   9.469
 1524POPC   GL123209  30.703  22.934   9.176
 1524POPC   GL223210  31.026  22.764   9.316
 1524POPC   C1A23211  30.559  22.980   8.723
 1524POPC   D2A23212  30.562  23.107   8.258
 1524POPC   C3A23213  30.535  22.781   7.897
 1524POPC   C4A23214  30.501  22.681   7.429
 1524POPC   C1B23215  31.058  22.753   8.868
 1524POPC   C2B23216  30.966  22.813   8.433
 1524POPC   C3B23217  30.968  22.516   8.104
 1524POPC   C4B23218  30.969  22.613   7.701
 1525POPC   NC323219  39.347  29.847   9.552
 1525POPC   PO423220  38.747  29.590   9.588
 1525POPC   GL123221  39.011  29.714   9.187
 1525POPC   GL223222  39.153  30.039   9.132
 1525POPC   C1A23223  38.975  29.867   8.716
 1525POPC   D2A23224  38.991  30.141   8.353
 1525POPC   C3A23225  39.068  29.826   8.086
 1525POPC   C4A23226  39.222  29.736   7.704
 1525POPC   C1B23227  39.446  30.137   8.831
 1525POPC   C2B23228  39.457  29.920   8.474
 1525POPC   C3B23229  39.583  29.850   8.088
 1525POPC   C4B23230  39.587  30.115   7.748
 1526POPC   NC323231   5.423  42.491   9.488
 1526POPC   PO423232   5.069  42.034   9.856
 1526POPC   GL123233   4.841  42.089   9.445
 1526POPC   GL223234   4.836  42.449   9.326
 1526POPC   C1A23235   4.922  42.086   8.979
 1526POPC   D2A23236   4.831  42.062   8.511
 1526POPC   C3A23237   5.130  42.182   8.177
 1526POPC   C4A23238   5.124  42.117   7.734
 1526POPC   C1B23239   4.736  42.572   8.876
 1526POPC   C2B23240   4.547  42.527   8.445
 1526POPC   C3B23241   4.750  42.524   8.050
 1526POPC   C4B23242   4.852  42.544   7.618
 1527POPC   NC323243  25.007  42.584   9.561
 1527POPC   PO423244  25.382  42.017   9.651
 1527POPC   GL123245  25.303  42.252   9.305
 1527POPC   GL223246  24.950  42.146   9.278
 1527POPC   C1A23247  25.481  42.451   8.960
 1527POPC   D2A23248  25.425  42.366   8.527
 1527POPC   C3A23249  25.456  42.512   8.099
 1527POPC   C4A23250  25.278  42.555   7.684
 1527POPC   C1B23251  24.973  42.364   8.886
 1527POPC   C2B23252  24.946  42.175   8.495
 1527POPC   C3B23253  24.944  42.185   8.075
 1527POPC   C4B23254  24.893  42.191   7.644
 1528POPC   NC323255  36.915  27.250   9.365
 1528POPC   PO423256  36.798  27.933   9.439
 1528POPC   GL123257  36.826  27.704   9.116
 1528POPC   GL223258  37.159  27.637   9.159
 1528POPC   C1A23259  36.802  27.870   8.715
 1528POPC   D2A23260  36.567  27.784   8.351
 1528POPC   C3A23261  36.749  27.712   7.944
 1528POPC   C4A23262  36.664  27.450   7.595
 1528POPC   C1B23263  37.148  27.470   8.741
 1528POPC   C2B23264  37.097  27.680   8.361
 1528POPC   C3B23265  37.255  27.750   7.998
 1528POPC   C4B23266  37.103  27.347   7.844
 1529POPC   NC323267  20.069  38.996   9.810
 1529POPC   PO423268  19.479  39.207   9.585
 1529POPC   GL123269  19.745  39.042   9.223
 1529POPC   GL223270  20.135  38.943   9.283
 1529POPC   C1A23271  19.658  39.093   8.762
 1529POPC   D2A23272  19.805  39.141   8.329
 1529POPC   C3A23273  19.619  39.399   7.999
 1529POPC   C4A23274  19.517  39.107   7.706
 1529POPC   C1B23275  20.081  38.808   8.842
 1529POPC   C2B23276  20.289  38.726   8.431
 1529POPC   C3B23277  20.223  38.962   8.080
 1529POPC   C4B23278  20.032  39.239   7.774
 1530POPC   NC323279  24.663  38.348   9.638
 1530POPC   PO423280  24.382  38.934   9.613
 1530POPC   GL123281  24.419  38.640   9.236
 1530POPC   GL223282  24.280  38.305   9.260
 1530POPC   C1A23283  24.621  38.577   8.793
 1530POPC   D2A23284  24.849  38.697   8.429
 1530POPC   C3A23285  24.654  38.555   8.031
 1530POPC   C4A23286  24.626  38.380   7.615
 1530POPC   C1B23287  24.159  38.357   8.818
 1530POPC   C2B23288  24.353  38.323   8.412
 1530POPC   C3B23289  24.160  38.277   8.036
 1530POPC   C4B23290  24.195  38.060   7.664
 1531POPC   NC323291   6.498  36.544   9.442
 1531POPC   PO423292   7.030  36.209   9.421
 1531POPC   GL123293   6.685  36.130   9.187
 1531POPC   GL223294   6.764  36.423   9.037
 1531POPC   C1A23295   6.344  36.183   8.891
 1531POPC   D2A23296   6.208  36.045   8.494
 1531POPC   C3A23297   6.418  36.166   8.102
 1531POPC   C4A23298   6.306  36.191   7.657
 1531POPC   C1B23299   6.899  36.206   8.702
 1531POPC   C2B23300   6.944  35.952   8.353
 1531POPC   C3B23301   6.931  35.708   8.003
 1531POPC   C4B23302   6.700  35.904   7.737
 1532POPC   NC323303   9.537  18.429   9.480
 1532POPC   PO423304  10.040  18.027   9.589
 1532POPC   GL123305   9.940  18.124   9.175
 1532POPC   GL223306   9.956  18.462   9.159
 1532POPC   C1A23307   9.575  18.014   8.957
 1532POPC   D2A23308   9.470  18.055   8.540
 1532POPC   C3A23309   9.659  18.209   8.180
 1532POPC   C4A23310   9.544  18.392   7.803
 1532POPC   C1B23311   9.695  18.481   8.781
 1532POPC   C2B23312   9.781  18.752   8.403
 1532POPC   C3B23313   9.522  18.834   8.029
 1532POPC   C4B23314   9.654  18.848   7.587
 1533POPC   NC323315   0.970   1.827   9.421
 1533POPC   PO423316   1.535   1.951   9.710
 1533POPC   GL123317   1.358   2.047   9.209
 1533POPC   GL223318   1.045   2.147   9.041
 1533POPC   C1A23319   1.440   2.030   8.754
 1533POPC   D2A23320   1.163   1.822   8.448
 1533POPC   C3A23321   1.294   1.933   8.046
 1533POPC   C4A23322   1.405   1.730   7.663
 1533POPC   C1B23323   0.846   2.228   8.684
 1533POPC   C2B23324   0.823   2.182   8.278
 1533POPC   C3B23325   0.733   2.188   7.893
 1533POPC   C4B23326   1.056   2.096   7.612
 1534POPC   NC323327  21.077   9.309   9.439
 1534POPC   PO423328  21.392   9.830   9.756
 1534POPC   GL123329  21.441   9.868   9.237
 1534POPC   GL223330  21.134   9.703   9.115
 1534POPC   C1A23331  21.497   9.761   8.782
 1534POPC   D2A23332  21.470   9.368   8.569
 1534POPC   C3A23333  21.508   9.471   8.126
 1534POPC   C4A23334  21.710   9.877   7.909
 1534POPC   C1B23335  20.885   9.883   8.792
 1534POPC   C2B23336  20.771  10.054   8.400
 1534POPC   C3B23337  21.003   9.999   8.023
 1534POPC   C4B23338  21.257   9.747   7.768
 1535POPC   NC323339  22.082  11.261   9.507
 1535POPC   PO423340  22.481  10.768   9.308
 1535POPC   GL123341  22.292  11.077   9.062
 1535POPC   GL223342  21.904  11.135   9.035
 1535POPC   C1A23343  22.239  11.135   8.644
 1535POPC   D2A23344  22.080  11.352   8.327
 1535POPC   C3A23345  22.225  11.241   7.976
 1535POPC   C4A23346  22.057  11.052   7.647
 1535POPC   C1B23347  21.999  11.551   8.796
 1535POPC   C2B23348  21.921  11.826   8.416
 1535POPC   C3B23349  21.996  11.760   7.980
 1535POPC   C4B23350  22.008  11.548   7.598
 1536POPC   NC323351  29.957  19.067   9.677
 1536POPC   PO423352  29.661  19.609   9.672
 1536POPC   GL123353  29.914  19.364   9.267
 1536POPC   GL223354  29.969  18.976   9.193
 1536POPC   C1A23355  29.891  19.271   8.781
 1536POPC   D2A23356  29.751  19.050   8.407
 1536POPC   C3A23357  29.919  19.171   8.039
 1536POPC   C4A23358  29.742  19.314   7.690
 1536POPC   C1B23359  30.246  18.913   8.830
 1536POPC   C2B23360  30.301  19.035   8.412
 1536POPC   C3B23361  30.306  18.802   8.047
 1536POPC   C4B23362  30.147  18.802   7.676
 1537POPC   NC323363  10.059  16.007   9.541
 1537POPC   PO423364   9.442  16.149   9.485
 1537POPC   GL123365   9.739  15.913   9.162
 1537POPC   GL223366  10.087  15.728   9.111
 1537POPC   C1A23367   9.698  15.798   8.744
 1537POPC   D2A23368   9.468  15.988   8.402
 1537POPC   C3A23369   9.688  15.957   8.023
 1537POPC   C4A23370   9.893  16.209   7.675
 1537POPC   C1B23371  10.097  15.470   8.747
 1537POPC   C2B23372   9.892  15.474   8.336
 1537POPC   C3B23373   9.975  15.541   7.897
 1537POPC   C4B23374   9.767  15.733   7.555
 1538POPC   NC323375  21.576  10.833   9.327
 1538POPC   PO423376  21.305  11.333   9.679
 1538POPC   GL123377  21.320  11.300   9.223
 1538POPC   GL223378  21.020  11.119   9.205
 1538POPC   C1A23379  21.495  11.441   8.791
 1538POPC   D2A23380  21.577  11.209   8.397
 1538POPC   C3A23381  21.682  11.356   7.969
 1538POPC   C4A23382  21.525  11.675   7.657
 1538POPC   C1B23383  21.147  11.067   8.776
 1538POPC   C2B23384  21.123  10.956   8.357
 1538POPC   C3B23385  21.358  10.924   7.994
 1538POPC   C4B23386  21.302  11.201   7.649
 1539POPC   NC323387  44.312  21.069   9.807
 1539POPC   PO423388  44.809  21.442   9.514
 1539POPC   GL123389  44.676  21.389   9.132
 1539POPC   GL223390  44.823  21.076   9.114
 1539POPC   C1A23391  44.432  21.406   8.744
 1539POPC   D2A23392  44.501  21.369   8.332
 1539POPC   C3A23393  44.728  21.475   7.957
 1539POPC   C4A23394  44.429  21.398   7.622
 1539POPC   C1B23395  44.956  21.329   8.721
 1539POPC   C2B23396  44.930  21.125   8.321
 1539POPC   C3B23397  44.698  20.968   7.978
 1539POPC   C4B23398  44.779  21.031   7.566
 1540POPC   NC323399  33.274  40.582   9.716
 1540POPC   PO423400  32.685  40.799   9.505
 1540POPC   GL123401  32.932  40.889   9.113
 1540POPC   GL223402  33.237  41.101   9.120
 1540POPC   C1A23403  33.024  40.746   8.683
 1540POPC   D2A23404  32.818  40.766   8.255
 1540POPC   C3A23405  32.959  40.490   7.920
 1540POPC   C4A23406  33.069  40.534   7.501
 1540POPC   C1B23407  33.447  41.032   8.737
 1540POPC   C2B23408  33.284  40.999   8.303
 1540POPC   C3B23409  33.318  40.863   7.838
 1540POPC   C4B23410  33.409  40.887   7.368
 1541POPC   NC323411   8.415   7.327   9.429
 1541POPC   PO423412   8.104   7.957   9.403
 1541POPC   GL123413   8.199   7.630   9.078
 1541POPC   GL223414   8.023   7.287   9.098
 1541POPC   C1A23415   8.303   7.412   8.686
 1541POPC   D2A23416   8.518   7.248   8.318
 1541POPC   C3A23417   8.344   7.427   7.921
 1541POPC   C4A23418   8.514   7.744   7.628
 1541POPC   C1B23419   7.851   7.059   8.738
 1541POPC   C2B23420   8.005   7.109   8.314
 1541POPC   C3B23421   7.846   7.244   7.935
 1541POPC   C4B23422   7.850   7.329   7.470
 1542POPC   NC323423  15.587   2.080   9.822
 1542POPC   PO423424  16.173   2.148   9.517
 1542POPC   GL123425  16.256   1.838   9.170
 1542POPC   GL223426  15.993   1.623   9.049
 1542POPC   C1A23427  16.313   1.918   8.751
 1542POPC   D2A23428  16.304   1.738   8.357
 1542POPC   C3A23429  16.213   1.998   7.993
 1542POPC   C4A23430  15.875   2.012   7.706
 1542POPC   C1B23431  15.825   1.824   8.663
 1542POPC   C2B23432  15.806   1.763   8.198
 1542POPC   C3B23433  15.628   1.581   7.820
 1542POPC   C4B23434  15.337   1.749   7.502
 1543POPC   NC323435   5.959  14.707   9.395
 1543POPC   PO423436   5.541  14.098   9.485
 1543POPC   GL123437   5.588  14.425   9.176
 1543POPC   GL223438   5.934  14.248   9.142
 1543POPC   C1A23439   5.471  14.678   8.779
 1543POPC   D2A23440   5.422  14.417   8.396
 1543POPC   C3A23441   5.762  14.325   8.092
 1543POPC   C4A23442   5.939  14.184   7.722
 1543POPC   C1B23443   5.841  14.348   8.728
 1543POPC   C2B23444   5.967  14.652   8.405
 1543POPC   C3B23445   6.126  14.696   7.965
 1543POPC   C4B23446   6.298  14.735   7.540
 1544POPC   NC323447   5.042   1.063   9.553
 1544POPC   PO423448   5.554   1.414   9.669
 1544POPC   GL123449   5.320   1.370   9.228
 1544POPC   GL223450   5.282   1.003   9.104
 1544POPC   C1A23451   5.065   1.402   8.802
 1544POPC   D2A23452   5.184   1.306   8.327
 1544POPC   C3A23453   5.196   1.401   7.880
 1544POPC   C4A23454   5.417   1.217   7.480
 1544POPC   C1B23455   4.850   0.950   8.891
 1544POPC   C2B23456   4.777   1.016   8.454
 1544POPC   C3B23457   4.943   0.853   8.056
 1544POPC   C4B23458   5.011   0.986   7.639
 1545POPC   NC323459   6.407   3.407   9.587
 1545POPC   PO423460   6.738   3.933   9.596
 1545POPC   GL123461   6.589   3.632   9.187
 1545POPC   GL223462   6.721   3.272   9.185
 1545POPC   C1A23463   6.351   3.585   8.798
 1545POPC   D2A23464   6.289   3.441   8.370
 1545POPC   C3A23465   6.308   3.680   7.956
 1545POPC   C4A23466   6.559   3.608   7.576
 1545POPC   C1B23467   6.839   3.438   8.770
 1545POPC   C2B23468   6.764   3.737   8.472
 1545POPC   C3B23469   6.758   3.526   8.116
 1545POPC   C4B23470   6.983   3.385   7.805
 1546POPC   NC323471  16.115  42.972   9.629
 1546POPC   PO423472  15.557  43.368   9.716
 1546POPC   GL123473  15.713  43.136   9.300
 1546POPC   GL223474  16.074  43.124   9.150
 1546POPC   C1A23475  15.673  42.856   8.908
 1546POPC   D2A23476  15.569  42.688   8.498
 1546POPC   C3A23477  15.592  42.984   8.153
 1546POPC   C4A23478  15.813  43.131   7.789
 1546POPC   C1B23479  16.085  43.201   8.703
 1546POPC   C2B23480  16.072  42.966   8.318
 1546POPC   C3B23481  16.286  42.962   7.916
 1546POPC   C4B23482  16.287  43.260   7.600
 1547POPC   NC323483  24.002  41.075   9.423
 1547POPC   PO423484  23.522  40.613   9.467
 1547POPC   GL123485  23.696  40.810   9.128
 1547POPC   GL223486  23.564  41.158   9.144
 1547POPC   C1A23487  23.935  40.677   8.780
 1547POPC   D2A23488  24.207  40.706   8.421
 1547POPC   C3A23489  24.006  40.731   8.045
 1547POPC   C4A23490  23.995  40.617   7.645
 1547POPC   C1B23491  23.807  41.222   8.777
 1547POPC   C2B23492  23.975  41.253   8.377
 1547POPC   C3B23493  23.796  41.192   7.991
 1547POPC   C4B23494  23.705  41.038   7.602
 1548POPC   NC323495   7.843   8.358   9.375
 1548POPC   PO423496   8.543   8.615   9.421
 1548POPC   GL123497   8.299   8.316   9.095
 1548POPC   GL223498   7.971   8.170   8.923
 1548POPC   C1A23499   8.415   7.980   8.790
 1548POPC   D2A23500   8.134   7.867   8.446
 1548POPC   C3A23501   8.305   7.952   8.048
 1548POPC   C4A23502   8.218   8.252   7.716
 1548POPC   C1B23503   7.970   8.608   8.742
 1548POPC   C2B23504   8.128   8.749   8.354
 1548POPC   C3B23505   8.023   8.374   8.162
 1548POPC   C4B23506   7.768   8.030   8.054
 1549POPC   NC323507   0.966  17.917   9.491
 1549POPC   PO423508   1.456  18.458   9.490
 1549POPC   GL123509   1.229  18.277   9.172
 1549POPC   GL223510   0.978  18.518   9.235
 1549POPC   C1A23511   1.319  18.257   8.735
 1549POPC   D2A23512   1.535  18.181   8.329
 1549POPC   C3A23513   1.337  18.415   8.034
 1549POPC   C4A23514   1.219  18.522   7.639
 1549POPC   C1B23515   0.864  18.481   8.804
 1549POPC   C2B23516   0.998  18.543   8.393
 1549POPC   C3B23517   0.885  18.677   7.980
 1549POPC   C4B23518   0.687  18.574   7.596
 1550POPC   NC323519  38.787  27.442   9.504
 1550POPC   PO423520  39.163  27.944   9.419
 1550POPC   GL123521  39.008  27.649   9.079
 1550POPC   GL223522  38.896  27.269   9.056
 1550POPC   C1A23523  39.130  27.677   8.659
 1550POPC   D2A23524  39.037  27.603   8.222
 1550POPC   C3A23525  39.361  27.829   7.981
 1550POPC   C4A23526  39.298  28.009   7.583
 1550POPC   C1B23527  38.828  27.254   8.624
 1550POPC   C2B23528  39.002  27.088   8.247
 1550POPC   C3B23529  38.979  27.141   7.822
 1550POPC   C4B23530  39.058  27.547   7.638
 1551POPC   NC323531  44.314  42.472   9.270
 1551POPC   PO423532  43.802  42.789   9.657
 1551POPC   GL123533  43.727  42.434   9.267
 1551POPC   GL223534  43.894  42.096   9.203
 1551POPC   C1A23535  43.560  42.496   8.824
 1551POPC   D2A23536  43.529  42.779   8.409
 1551POPC   C3A23537  43.711  42.603   8.016
 1551POPC   C4A23538  44.150  42.537   7.865
 1551POPC   C1B23539  43.917  42.107   8.736
 1551POPC   C2B23540  43.750  42.146   8.300
 1551POPC   C3B23541  43.863  42.103   7.852
 1551POPC   C4B23542  43.978  41.976   7.375
 1552POPC   NC323543  22.055  18.046   9.431
 1552POPC   PO423544  21.716  18.704   9.524
 1552POPC   GL123545  21.941  18.589   9.107
 1552POPC   GL223546  22.077  18.258   8.966
 1552POPC   C1A23547  22.087  18.671   8.672
 1552POPC   D2A23548  21.900  18.533   8.309
 1552POPC   C3A23549  22.068  18.179   8.211
 1552POPC   C4A23550  22.221  17.967   7.859
 1552POPC   C1B23551  22.431  18.273   8.649
 1552POPC   C2B23552  22.585  18.196   8.223
 1552POPC   C3B23553  22.383  18.439   7.877
 1552POPC   C4B23554  22.210  18.535   7.435
 1553POPC   NC323555  39.229  37.586   9.403
 1553POPC   PO423556  39.672  38.125   9.497
 1553POPC   GL123557  39.447  37.943   9.113
 1553POPC   GL223558  39.060  37.857   9.013
 1553POPC   C1A23559  39.429  37.751   8.678
 1553POPC   D2A23560  39.090  37.701   8.331
 1553POPC   C3A23561  39.245  37.564   7.914
 1553POPC   C4A23562  39.626  37.332   7.746
 1553POPC   C1B23563  38.818  38.044   8.660
 1553POPC   C2B23564  38.800  38.125   8.225
 1553POPC   C3B23565  38.911  37.958   7.811
 1553POPC   C4B23566  39.026  37.944   7.370
 1554POPC   NC323567  37.127  33.153   9.493
 1554POPC   PO423568  36.745  32.538   9.485
 1554POPC   GL123569  36.745  32.792   9.124
 1554POPC   GL223570  37.077  32.892   9.047
 1554POPC   C1A23571  36.712  32.889   8.677
 1554POPC   D2A23572  36.736  33.261   8.402
 1554POPC   C3A23573  36.736  33.135   7.967
 1554POPC   C4A23574  36.525  32.814   7.729
 1554POPC   C1B23575  37.033  33.325   8.859
 1554POPC   C2B23576  37.208  33.503   8.482
 1554POPC   C3B23577  37.220  33.308   8.076
 1554POPC   C4B23578  37.099  33.360   7.652
 1555POPC   NC323579  41.814  37.631   9.540
 1555POPC   PO423580  41.196  37.941   9.391
 1555POPC   GL123581  41.411  37.596   9.196
 1555POPC   GL223582  41.676  37.814   9.092
 1555POPC   C1A23583  41.625  37.328   8.879
 1555POPC   D2A23584  41.788  37.334   8.452
 1555POPC   C3A23585  41.508  37.410   8.138
 1555POPC   C4A23586  41.481  37.653   7.778
 1555POPC   C1B23587  41.834  37.965   8.725
 1555POPC   C2B23588  41.701  37.845   8.325
 1555POPC   C3B23589  41.933  37.700   7.994
 1555POPC   C4B23590  41.993  38.061   7.759
 1556POPC   NC323591   7.313   5.918   9.514
 1556POPC   PO423592   7.782   5.464   9.518
 1556POPC   GL123593   7.505   5.595   9.181
 1556POPC   GL223594   7.582   5.942   9.057
 1556POPC   C1A23595   7.328   5.606   8.767
 1556POPC   D2A23596   7.379   5.817   8.419
 1556POPC   C3A23597   7.405   5.563   8.073
 1556POPC   C4A23598   7.630   5.764   7.786
 1556POPC   C1B23599   7.154   6.074   8.837
 1556POPC   C2B23600   6.941   6.083   8.394
 1556POPC   C3B23601   7.106   6.003   7.962
 1556POPC   C4B23602   7.053   6.302   7.617
 1557POPC   NC323603  36.072  30.170   9.386
 1557POPC   PO423604  36.186  29.512   9.434
 1557POPC   GL123605  36.181  29.813   9.041
 1557POPC   GL223606  36.453  30.050   8.989
 1557POPC   C1A23607  35.954  29.875   8.631
 1557POPC   D2A23608  35.956  29.580   8.276
 1557POPC   C3A23609  35.936  29.764   7.882
 1557POPC   C4A23610  35.894  30.157   7.695
 1557POPC   C1B23611  36.465  29.827   8.594
 1557POPC   C2B23612  36.288  29.954   8.200
 1557POPC   C3B23613  36.383  30.109   7.809
 1557POPC   C4B23614  36.703  30.351   7.787
 1558POPC   NC323615   2.038  29.709   9.529
 1558POPC   PO423616   1.747  30.221   9.385
 1558POPC   GL123617   1.826  29.867   9.092
 1558POPC   GL223618   2.206  29.770   9.052
 1558POPC   C1A23619   1.801  29.738   8.667
 1558POPC   D2A23620   1.816  29.994   8.298
 1558POPC   C3A23621   1.998  29.802   7.948
 1558POPC   C4A23622   2.026  29.997   7.565
 1558POPC   C1B23623   2.170  30.132   8.778
 1558POPC   C2B23624   2.365  30.260   8.384
 1558POPC   C3B23625   2.279  30.276   7.947
 1558POPC   C4B23626   2.386  30.362   7.501
 1559POPC   NC323627  14.064  14.984   9.459
 1559POPC   PO423628  13.606  15.438   9.620
 1559POPC   GL123629  13.683  15.272   9.215
 1559POPC   GL223630  13.928  15.486   9.055
 1559POPC   C1A23631  13.461  15.081   8.857
 1559POPC   D2A23632  13.314  15.281   8.461
 1559POPC   C3A23633  13.560  15.205   8.085
 1559POPC   C4A23634  13.529  14.764   7.916
 1559POPC   C1B23635  13.805  15.373   8.631
 1559POPC   C2B23636  13.829  14.941   8.431
 1559POPC   C3B23637  14.042  14.937   8.034
 1559POPC   C4B23638  14.134  15.347   7.791
 1560POPC   NC323639  32.637  24.736   9.298
 1560POPC   PO423640  32.337  24.232   9.639
 1560POPC   GL123641  32.202  24.460   9.238
 1560POPC   GL223642  31.883  24.556   9.244
 1560POPC   C1A23643  32.186  24.679   8.811
 1560POPC   D2A23644  32.408  24.570   8.433
 1560POPC   C3A23645  32.192  24.556   8.081
 1560POPC   C4A23646  32.372  24.500   7.725
 1560POPC   C1B23647  31.848  24.309   8.860
 1560POPC   C2B23648  31.993  24.230   8.460
 1560POPC   C3B23649  31.858  24.084   8.073
 1560POPC   C4B23650  32.014  24.149   7.657
 1561POPC   NC323651   6.360  29.669   9.601
 1561POPC   PO423652   6.809  30.144   9.418
 1561POPC   GL123653   6.635  29.999   9.050
 1561POPC   GL223654   6.322  29.898   9.124
 1561POPC   C1A23655   6.578  29.933   8.577
 1561POPC   D2A23656   6.841  29.999   8.208
 1561POPC   C3A23657   6.753  29.972   7.771
 1561POPC   C4A23658   6.749  30.121   7.361
 1561POPC   C1B23659   6.175  29.669   8.734
 1561POPC   C2B23660   6.067  29.817   8.333
 1561POPC   C3B23661   6.119  29.619   7.919
 1561POPC   C4B23662   6.521  29.526   7.732
 1562POPC   NC323663  34.480   7.738   9.948
 1562POPC   PO423664  35.028   7.430   9.817
 1562POPC   GL123665  34.839   7.333   9.341
 1562POPC   GL223666  34.458   7.284   9.344
 1562POPC   C1A23667  34.740   7.547   8.906
 1562POPC   D2A23668  34.832   7.537   8.455
 1562POPC   C3A23669  34.520   7.661   8.166
 1562POPC   C4A23670  34.412   7.593   7.747
 1562POPC   C1B23671  34.475   7.108   8.930
 1562POPC   C2B23672  34.416   7.229   8.495
 1562POPC   C3B23673  34.349   7.125   8.077
 1562POPC   C4B23674  34.518   7.084   7.682
 1563POPC   NC323675  25.856  41.042   9.699
 1563POPC   PO423676  26.191  41.718   9.622
 1563POPC   GL123677  26.253  41.815   9.210
 1563POPC   GL223678  25.963  41.679   9.081
 1563POPC   C1A23679  26.393  41.626   8.815
 1563POPC   D2A23680  26.132  41.668   8.466
 1563POPC   C3A23681  26.149  41.384   8.114
 1563POPC   C4A23682  26.275  41.489   7.698
 1563POPC   C1B23683  25.656  41.525   8.753
 1563POPC   C2B23684  25.674  41.531   8.288
 1563POPC   C3B23685  25.681  41.517   7.836
 1563POPC   C4B23686  25.871  41.747   7.515
 1564POPC   NC323687  36.570  25.089   9.364
 1564POPC   PO423688  37.276  25.098   9.513
 1564POPC   GL123689  37.036  25.200   9.122
 1564POPC   GL223690  37.106  24.920   8.895
 1564POPC   C1A23691  36.830  25.303   8.696
 1564POPC   D2A23692  36.993  25.197   8.265
 1564POPC   C3A23693  36.720  25.199   7.899
 1564POPC   C4A23694  36.727  25.441   7.454
 1564POPC   C1B23695  37.331  25.307   8.645
 1564POPC   C2B23696  37.447  25.467   8.234
 1564POPC   C3B23697  37.196  25.493   7.866
 1564POPC   C4B23698  37.113  25.169   7.593
 1565POPC   NC323699  41.120   2.081   9.429
 1565POPC   PO423700  41.697   1.755   9.375
 1565POPC   GL123701  41.511   1.983   9.075
 1565POPC   GL223702  41.502   2.338   9.157
 1565POPC   C1A23703  41.478   1.850   8.654
 1565POPC   D2A23704  41.816   1.799   8.356
 1565POPC   C3A23705  41.746   1.954   7.966
 1565POPC   C4A23706  41.779   2.318   7.779
 1565POPC   C1B23707  41.286   2.343   8.749
 1565POPC   C2B23708  41.195   2.229   8.292
 1565POPC   C3B23709  41.286   2.227   7.837
 1565POPC   C4B23710  41.214   2.313   7.376
 1566POPC   NC323711  42.622  19.527   9.473
 1566POPC   PO423712  42.246  20.029   9.324
 1566POPC   GL123713  42.475  19.846   8.989
 1566POPC   GL223714  42.699  19.586   8.986
 1566POPC   C1A23715  42.633  20.016   8.609
 1566POPC   D2A23716  42.469  20.230   8.251
 1566POPC   C3A23717  42.625  20.108   7.903
 1566POPC   C4A23718  42.386  19.832   7.725
 1566POPC   C1B23719  42.488  19.504   8.616
 1566POPC   C2B23720  42.450  19.612   8.193
 1566POPC   C3B23721  42.318  19.358   7.836
 1566POPC   C4B23722  42.532  19.334   7.472
 1567POPC   NC323723   4.584  12.812   9.750
 1567POPC   PO423724   4.106  12.843   9.257
 1567POPC   GL123725   4.180  12.983   8.909
 1567POPC   GL223726   4.442  12.704   8.907
 1567POPC   C1A23727   4.374  13.015   8.513
 1567POPC   D2A23728   4.588  12.941   8.139
 1567POPC   C3A23729   4.355  13.034   7.769
 1567POPC   C4A23730   4.313  12.882   7.376
 1567POPC   C1B23731   4.081  12.599   8.624
 1567POPC   C2B23732   4.090  12.709   8.199
 1567POPC   C3B23733   4.339  12.539   7.906
 1567POPC   C4B23734   4.608  12.495   7.575
 1568POPC   NC323735  21.723  23.354   9.981
 1568POPC   PO423736  21.595  22.760   9.691
 1568POPC   GL123737  21.687  22.817   9.186
 1568POPC   GL223738  22.004  23.026   9.116
 1568POPC   C1A23739  21.824  22.796   8.693
 1568POPC   D2A23740  21.776  22.739   8.238
 1568POPC   C3A23741  21.969  22.969   7.867
 1568POPC   C4A23742  21.966  23.141   7.419
 1568POPC   C1B23743  22.306  22.945   8.749
 1568POPC   C2B23744  22.275  22.681   8.365
 1568POPC   C3B23745  22.385  22.656   7.924
 1568POPC   C4B23746  22.470  23.002   7.641
 1569POPC   NC323747  34.734   9.308   9.308
 1569POPC   PO423748  34.366   8.633   9.375
 1569POPC   GL123749  34.633   8.753   9.096
 1569POPC   GL223750  34.423   9.029   9.037
 1569POPC   C1A23751  34.881   8.857   8.744
 1569POPC   D2A23752  34.862   9.061   8.336
 1569POPC   C3A23753  34.626   8.879   7.986
 1569POPC   C4A23754  34.318   9.113   7.759
 1569POPC   C1B23755  34.387   8.796   8.656
 1569POPC   C2B23756  34.408   8.545   8.323
 1569POPC   C3B23757  34.113   8.661   8.056
 1569POPC   C4B23758  33.951   8.774   7.669
 1570POPC   NC323759  29.426  24.749   9.483
 1570POPC   PO423760  29.065  24.191   9.455
 1570POPC   GL123761  29.033  24.544   9.155
 1570POPC   GL223762  29.342  24.445   9.071
 1570POPC   C1A23763  28.999  24.526   8.668
 1570POPC   D2A23764  29.087  24.255   8.273
 1570POPC   C3A23765  29.250  24.364   7.844
 1570POPC   C4A23766  29.116  24.317   7.415
 1570POPC   C1B23767  29.500  24.620   8.677
 1570POPC   C2B23768  29.352  24.711   8.256
 1570POPC   C3B23769  29.537  24.792   7.822
 1570POPC   C4B23770  29.569  24.549   7.427
 1571POPC   NC323771  39.470  42.565   9.492
 1571POPC   PO423772  39.004  42.126   9.667
 1571POPC   GL123773  39.093  42.338   9.256
 1571POPC   GL223774  39.404  42.186   9.134
 1571POPC   C1A23775  39.208  42.519   8.826
 1571POPC   D2A23776  39.291  42.264   8.460
 1571POPC   C3A23777  39.128  42.447   8.079
 1571POPC   C4A23778  39.228  42.672   7.710
 1571POPC   C1B23779  39.498  41.897   8.811
 1571POPC   C2B23780  39.568  41.812   8.392
 1571POPC   C3B23781  39.489  42.005   7.984
 1571POPC   C4B23782  39.506  42.183   7.550
 1572POPC   NC323783  44.101  41.621   9.749
 1572POPC   PO423784  44.398  42.026   9.361
 1572POPC   GL123785  44.192  41.664   9.167
 1572POPC   GL223786  43.877  41.478   9.208
 1572POPC   C1A23787  44.029  41.609   8.762
 1572POPC   D2A23788  43.770  41.654   8.434
 1572POPC   C3A23789  43.972  41.520   8.096
 1572POPC   C4A23790  44.111  41.677   7.747
 1572POPC   C1B23791  43.589  41.348   8.804
 1572POPC   C2B23792  43.406  41.302   8.368
 1572POPC   C3B23793  43.604  41.193   7.978
 1572POPC   C4B23794  43.523  41.029   7.554
 1573POPC   NC323795  37.409  31.355   9.518
 1573POPC   PO423796  36.875  31.770   9.718
 1573POPC   GL123797  36.995  31.350   9.262
 1573POPC   GL223798  36.687  31.273   9.069
 1573POPC   C1A23799  37.105  31.309   8.770
 1573POPC   D2A23800  37.085  31.568   8.350
 1573POPC   C3A23801  36.997  31.410   7.903
 1573POPC   C4A23802  37.192  31.348   7.457
 1573POPC   C1B23803  36.656  31.051   8.728
 1573POPC   C2B23804  36.784  31.140   8.342
 1573POPC   C3B23805  36.511  31.098   8.011
 1573POPC   C4B23806  36.551  31.331   7.641
 1574POPC   NC323807  22.383  10.327   9.377
 1574POPC   PO423808  21.838  10.623   9.672
 1574POPC   GL123809  22.003  10.612   9.162
 1574POPC   GL223810  21.703  10.656   8.867
 1574POPC   C1A23811  22.175  10.633   8.723
 1574POPC   D2A23812  21.926  10.810   8.356
 1574POPC   C3A23813  22.106  10.683   7.968
 1574POPC   C4A23814  22.489  10.375   7.914
 1574POPC   C1B23815  21.853  10.243   8.668
 1574POPC   C2B23816  22.027  10.266   8.241
 1574POPC   C3B23817  22.012  10.244   7.762
 1574POPC   C4B23818  21.880  10.363   7.380
 1575POPC   NC323819   5.803  34.329   9.466
 1575POPC   PO423820   5.950  34.965   9.446
 1575POPC   GL123821   5.736  34.804   9.051
 1575POPC   GL223822   5.663  34.392   8.993
 1575POPC   C1A23823   5.558  34.730   8.648
 1575POPC   D2A23824   5.700  34.383   8.411
 1575POPC   C3A23825   5.769  34.483   7.996
 1575POPC   C4A23826   5.672  34.144   7.780
 1575POPC   C1B23827   6.046  34.493   8.782
 1575POPC   C2B23828   6.252  34.335   8.410
 1575POPC   C3B23829   6.218  34.253   7.982
 1575POPC   C4B23830   6.410  34.404   7.602
 1576POPC   NC323831  27.354  22.028   9.651
 1576POPC   PO423832  27.903  22.075   9.701
 1576POPC   GL123833  27.736  21.973   9.262
 1576POPC   GL223834  27.405  22.083   9.140
 1576POPC   C1A23835  27.814  22.024   8.779
 1576POPC   D2A23836  27.940  21.869   8.336
 1576POPC   C3A23837  27.953  22.124   7.954
 1576POPC   C4A23838  27.731  22.185   7.532
 1576POPC   C1B23839  27.290  22.180   8.700
 1576POPC   C2B23840  27.450  22.110   8.276
 1576POPC   C3B23841  27.504  21.903   7.889
 1576POPC   C4B23842  27.324  21.841   7.472
 1577POPC   NC323843   4.697  40.677   9.457
 1577POPC   PO423844   4.015  40.881   9.687
 1577POPC   GL123845   4.199  40.969   9.220
 1577POPC   GL223846   4.421  40.732   9.026
 1577POPC   C1A23847   4.054  40.957   8.768
 1577POPC   D2A23848   4.337  40.811   8.427
 1577POPC   C3A23849   4.146  40.778   8.030
 1577POPC   C4A23850   4.322  40.836   7.635
 1577POPC   C1B23851   4.235  40.403   8.717
 1577POPC   C2B23852   4.143  40.312   8.256
 1577POPC   C3B23853   4.364  40.355   7.840
 1577POPC   C4B23854   4.426  40.378   7.382
 1578POPC   NC323855  21.684  36.504   9.451
 1578POPC   PO423856  22.271  36.031   9.513
 1578POPC   GL123857  22.121  36.284   9.218
 1578POPC   GL223858  21.842  36.063   9.198
 1578POPC   C1A23859  22.004  36.365   8.800
 1578POPC   D2A23860  22.074  36.165   8.391
 1578POPC   C3A23861  22.457  36.332   8.158
 1578POPC   C4A23862  22.437  36.357   7.722
 1578POPC   C1B23863  21.807  35.897   8.787
 1578POPC   C2B23864  21.572  35.897   8.411
 1578POPC   C3B23865  21.655  36.201   8.094
 1578POPC   C4B23866  21.943  36.201   7.779
 1579POPC   NC323867  21.042  35.201   9.613
 1579POPC   PO423868  21.523  35.635   9.443
 1579POPC   GL123869  21.324  35.397   9.150
 1579POPC   GL223870  21.322  35.079   9.215
 1579POPC   C1A23871  21.361  35.456   8.746
 1579POPC   D2A23872  21.641  35.365   8.455
 1579POPC   C3A23873  21.498  35.471   8.087
 1579POPC   C4A23874  21.572  35.270   7.723
 1579POPC   C1B23875  21.130  34.984   8.810
 1579POPC   C2B23876  21.162  35.179   8.368
 1579POPC   C3B23877  21.130  35.105   7.952
 1579POPC   C4B23878  21.080  35.496   7.775
 1580POPC   NC323879   9.170  27.713   9.648
 1580POPC   PO423880   8.658  27.383   9.630
 1580POPC   GL123881   8.779  27.692   9.270
 1580POPC   GL223882   9.160  27.667   9.145
 1580POPC   C1A23883   8.824  27.785   8.802
 1580POPC   D2A23884   8.893  27.697   8.382
 1580POPC   C3A23885   9.106  27.897   8.057
 1580POPC   C4A23886   8.846  27.799   7.756
 1580POPC   C1B23887   9.255  27.508   8.705
 1580POPC   C2B23888   9.358  27.469   8.218
 1580POPC   C3B23889   9.400  27.552   7.732
 1580POPC   C4B23890   9.397  27.386   7.280
 1581POPC   NC323891  14.253  27.133   9.316
 1581POPC   PO423892  14.715  26.888   9.733
 1581POPC   GL123893  14.748  27.004   9.275
 1581POPC   GL223894  14.531  26.751   9.090
 1581POPC   C1A23895  14.693  27.150   8.829
 1581POPC   D2A23896  14.466  26.882   8.513
 1581POPC   C3A23897  14.470  26.997   8.061
 1581POPC   C4A23898  14.609  26.885   7.628
 1581POPC   C1B23899  14.229  26.526   8.836
 1581POPC   C2B23900  14.204  26.407   8.405
 1581POPC   C3B23901  14.239  26.533   7.966
 1581POPC   C4B23902  14.305  26.479   7.519
 1582POPC   NC323903  16.909  12.676   9.762
 1582POPC   PO423904  16.299  12.926   9.557
 1582POPC   GL123905  16.685  12.825   9.302
 1582POPC   GL223906  16.719  12.480   9.167
 1582POPC   C1A23907  16.875  13.015   8.917
 1582POPC   D2A23908  16.743  13.025   8.464
 1582POPC   C3A23909  16.852  12.870   8.043
 1582POPC   C4A23910  16.881  12.792   7.593
 1582POPC   C1B23911  16.612  12.599   8.767
 1582POPC   C2B23912  16.651  12.529   8.351
 1582POPC   C3B23913  16.458  12.545   7.970
 1582POPC   C4B23914  16.286  12.208   7.772
 1583POPC   NC323915  17.330  17.416   9.812
 1583POPC   PO423916  16.748  17.270   9.429
 1583POPC   GL123917  16.832  17.503   9.095
 1583POPC   GL223918  17.131  17.688   9.254
 1583POPC   C1A23919  16.642  17.386   8.659
 1583POPC   D2A23920  16.316  17.360   8.307
 1583POPC   C3A23921  16.397  17.572   7.896
 1583POPC   C4A23922  16.590  17.717   7.496
 1583POPC   C1B23923  17.203  17.628   8.791
 1583POPC   C2B23924  17.121  17.341   8.461
 1583POPC   C3B23925  17.040  17.497   8.057
 1583POPC   C4B23926  16.832  17.339   7.742
 1584POPC   NC323927  26.841  18.498   9.936
 1584POPC   PO423928  27.130  17.922   9.892
 1584POPC   GL123929  27.072  18.092   9.433
 1584POPC   GL223930  26.812  18.384   9.348
 1584POPC   C1A23931  26.998  18.067   8.960
 1584POPC   D2A23932  26.907  18.169   8.498
 1584POPC   C3A23933  26.663  18.217   8.135
 1584POPC   C4A23934  26.663  18.340   7.722
 1584POPC   C1B23935  26.747  18.512   8.905
 1584POPC   C2B23936  26.452  18.443   8.548
 1584POPC   C3B23937  26.409  18.667   8.143
 1584POPC   C4B23938  26.566  18.844   7.738
 1585POPC   NC323939  15.261  28.945   9.537
 1585POPC   PO423940  15.375  29.638   9.594
 1585POPC   GL123941  15.327  29.433   9.208
 1585POPC   GL223942  15.197  29.155   9.077
 1585POPC   C1A23943  15.495  29.472   8.795
 1585POPC   D2A23944  15.378  29.351   8.383
 1585POPC   C3A23945  15.189  29.576   8.056
 1585POPC   C4A23946  15.463  29.360   7.757
 1585POPC   C1B23947  14.981  29.239   8.719
 1585POPC   C2B23948  14.962  29.070   8.311
 1585POPC   C3B23949  15.019  29.109   7.872
 1585POPC   C4B23950  14.774  29.040   7.481
 1586POPC   NC323951  20.162  23.105   9.539
 1586POPC   PO423952  20.768  23.189   9.477
 1586POPC   GL123953  20.515  23.059   9.129
 1586POPC   GL223954  20.404  22.763   9.237
 1586POPC   C1A23955  20.409  23.145   8.706
 1586POPC   D2A23956  20.416  23.128   8.239
 1586POPC   C3A23957  20.775  23.143   7.963
 1586POPC   C4A23958  21.011  22.921   7.617
 1586POPC   C1B23959  20.364  22.650   8.803
 1586POPC   C2B23960  20.296  22.617   8.356
 1586POPC   C3B23961  20.406  22.715   7.911
 1586POPC   C4B23962  20.302  22.523   7.505
 1587POPC   NC323963   6.237  16.341   9.511
 1587POPC   PO423964   5.954  15.781   9.540
 1587POPC   GL123965   5.953  16.028   9.187
 1587POPC   GL223966   6.272  15.953   9.123
 1587POPC   C1A23967   5.922  16.004   8.746
 1587POPC   D2A23968   5.698  15.804   8.403
 1587POPC   C3A23969   5.664  15.930   7.981
 1587POPC   C4A23970   5.940  16.109   7.700
 1587POPC   C1B23971   6.316  15.644   8.785
 1587POPC   C2B23972   6.360  15.572   8.357
 1587POPC   C3B23973   6.115  15.632   7.977
 1587POPC   C4B23974   6.106  15.638   7.529
 1588POPC   NC323975   9.149  21.163   9.536
 1588POPC   PO423976   8.479  21.574   9.604
 1588POPC   GL123977   8.764  21.410   9.271
 1588POPC   GL223978   8.735  21.021   9.251
 1588POPC   C1A23979   8.972  21.630   8.904
 1588POPC   D2A23980   9.108  21.462   8.526
 1588POPC   C3A23981   9.066  21.572   8.112
 1588POPC   C4A23982   9.002  21.549   7.665
 1588POPC   C1B23983   8.846  21.145   8.824
 1588POPC   C2B23984   8.694  21.222   8.363
 1588POPC   C3B23985   8.742  21.186   7.903
 1588POPC   C4B23986   8.696  21.176   7.437
 1589POPC   NC323987  35.039  24.487   9.289
 1589POPC   PO423988  34.500  24.425   9.684
 1589POPC   GL123989  34.471  24.499   9.268
 1589POPC   GL223990  34.575  24.192   9.186
 1589POPC   C1A23991  34.520  24.534   8.794
 1589POPC   D2A23992  34.839  24.550   8.403
 1589POPC   C3A23993  34.600  24.613   7.997
 1589POPC   C4A23994  34.263  24.318   7.815
 1589POPC   C1B23995  34.803  24.107   8.782
 1589POPC   C2B23996  34.968  23.951   8.372
 1589POPC   C3B23997  35.040  24.179   8.049
 1589POPC   C4B23998  34.746  24.196   7.749
 1590POPC   NC323999   1.570  25.032   9.499
 1590POPC   PO424000   1.102  25.528   9.556
 1590POPC   GL124001   1.194  25.424   9.183
 1590POPC   GL224002   0.863  25.388   9.100
 1590POPC   C1A24003   1.400  25.316   8.830
 1590POPC   D2A24004   1.299  25.140   8.424
 1590POPC   C3A24005   1.363  25.357   8.065
 1590POPC   C4A24006   1.225  25.146   7.699
 1590POPC   C1B24007   0.930  25.119   8.809
 1590POPC   C2B24008   0.813  25.304   8.456
 1590POPC   C3B24009   0.867  25.170   8.070
 1590POPC   C4B24010   0.878  25.511   7.767
 1591POPC   NC324011   6.474   1.931   9.603
 1591POPC   PO424012   7.010   2.232   9.439
 1591POPC   GL124013   6.753   1.984   9.154
 1591POPC   GL224014   6.717   1.640   9.263
 1591POPC   C1A24015   6.569   2.123   8.767
 1591POPC   D2A24016   6.828   2.218   8.400
 1591POPC   C3A24017   6.831   2.007   7.994
 1591POPC   C4A24018   6.467   2.103   7.728
 1591POPC   C1B24019   6.529   1.609   8.835
 1591POPC   C2B24020   6.614   1.734   8.427
 1591POPC   C3B24021   6.420   1.682   8.047
 1591POPC   C4B24022   6.580   1.552   7.691
 1592POPC   NC324023  14.421  17.444   9.664
 1592POPC   PO424024  14.927  17.184   9.293
 1592POPC   GL124025  14.504  17.386   9.171
 1592POPC   GL224026  14.169  17.211   9.066
 1592POPC   C1A24027  14.297  17.664   8.850
 1592POPC   D2A24028  14.463  17.724   8.438
 1592POPC   C3A24029  14.312  17.593   8.046
 1592POPC   C4A24030  14.441  17.539   7.637
 1592POPC   C1B24031  14.463  17.207   8.705
 1592POPC   C2B24032  14.514  17.169   8.282
 1592POPC   C3B24033  14.293  17.095   7.900
 1592POPC   C4B24034  14.460  17.023   7.495
 1593POPC   NC324035  42.459   4.387   9.612
 1593POPC   PO424036  41.974   3.944   9.475
 1593POPC   GL124037  42.263   4.082   9.152
 1593POPC   GL224038  42.318   4.469   9.133
 1593POPC   C1A24039  42.477   3.919   8.767
 1593POPC   D2A24040  42.747   3.984   8.393
 1593POPC   C3A24041  42.493   4.091   8.069
 1593POPC   C4A24042  42.503   4.235   7.667
 1593POPC   C1B24043  42.439   4.695   8.757
 1593POPC   C2B24044  42.484   4.514   8.370
 1593POPC   C3B24045  42.556   4.622   7.972
 1593POPC   C4B24046  42.818   4.646   7.567
 1594POPC   NC324047  40.694  32.685   9.357
 1594POPC   PO424048  40.629  33.244   9.737
 1594POPC   GL124049  40.795  33.199   9.302
 1594POPC   GL224050  40.477  33.145   9.203
 1594POPC   C1A24051  40.928  33.219   8.826
 1594POPC   D2A24052  40.766  33.247   8.359
 1594POPC   C3A24053  41.048  33.279   7.976
 1594POPC   C4A24054  41.123  32.925   7.680
 1594POPC   C1B24055  40.400  33.182   8.764
 1594POPC   C2B24056  40.316  32.945   8.389
 1594POPC   C3B24057  40.335  33.088   7.984
 1594POPC   C4B24058  40.645  33.158   7.695
 1595POPC   NC324059  42.150  30.181   9.230
 1595POPC   PO424060  42.471  30.714   9.621
 1595POPC   GL124061  42.414  30.865   9.129
 1595POPC   GL224062  42.548  30.546   9.101
 1595POPC   C1A24063  42.282  30.797   8.704
 1595POPC   D2A24064  42.368  30.867   8.280
 1595POPC   C3A24065  42.120  31.100   7.988
 1595POPC   C4A24066  42.003  30.762   7.766
 1595POPC   C1B24067  42.750  30.370   8.735
 1595POPC   C2B24068  42.706  30.261   8.303
 1595POPC   C3B24069  42.556  30.474   7.942
 1595POPC   C4B24070  42.532  30.865   7.788
 1596POPC   NC324071  26.855  37.745   9.915
 1596POPC   PO424072  26.861  38.300   9.537
 1596POPC   GL124073  26.756  38.041   9.140
 1596POPC   GL224074  26.580  37.682   9.185
 1596POPC   C1A24075  26.896  37.947   8.697
 1596POPC   D2A24076  27.028  37.619   8.383
 1596POPC   C3A24077  26.938  37.711   7.947
 1596POPC   C4A24078  26.577  37.720   7.708
 1596POPC   C1B24079  26.725  37.436   8.799
 1596POPC   C2B24080  26.592  37.368   8.357
 1596POPC   C3B24081  26.745  37.242   7.938
 1596POPC   C4B24082  26.862  37.348   7.512
 1597POPC   NC324083  33.986  12.382   9.548
 1597POPC   PO424084  33.487  11.965   9.387
 1597POPC   GL124085  33.707  12.256   9.084
 1597POPC   GL224086  34.053  12.250   9.082
 1597POPC   C1A24087  33.782  12.248   8.641
 1597POPC   D2A24088  34.067  12.416   8.315
 1597POPC   C3A24089  33.906  12.220   7.965
 1597POPC   C4A24090  34.001  12.184   7.552
 1597POPC   C1B24091  34.065  11.875   8.854
 1597POPC   C2B24092  34.122  11.928   8.411
 1597POPC   C3B24093  34.211  11.782   8.029
 1597POPC   C4B24094  34.353  11.420   7.804
 1598POPC   NC324095  42.991  31.705   9.453
 1598POPC   PO424096  42.875  32.371   9.422
 1598POPC   GL124097  43.051  32.472   9.017
 1598POPC   GL224098  43.183  32.126   8.969
 1598POPC   C1A24099  43.265  32.486   8.588
 1598POPC   D2A24100  43.369  32.143   8.271
 1598POPC   C3A24101  43.228  32.173   7.818
 1598POPC   C4A24102  43.265  31.942   7.377
 1598POPC   C1B24103  42.878  32.160   8.619
 1598POPC   C2B24104  42.866  32.297   8.176
 1598POPC   C3B24105  42.712  32.205   7.744
 1598POPC   C4B24106  42.692  31.994   7.311
 1599POPC   NC324107  26.463  11.412   9.663
 1599POPC   PO424108  26.748  10.955   9.545
 1599POPC   GL124109  26.697  11.280   9.206
 1599POPC   GL224110  26.636  11.660   9.219
 1599POPC   C1A24111  26.758  11.245   8.755
 1599POPC   D2A24112  26.940  11.069   8.364
 1599POPC   C3A24113  26.844  11.238   7.959
 1599POPC   C4A24114  26.558  11.453   7.679
 1599POPC   C1B24115  26.839  11.746   8.784
 1599POPC   C2B24116  26.795  11.584   8.349
 1599POPC   C3B24117  26.905  11.752   7.917
 1599POPC   C4B24118  26.908  11.762   7.442
 1600POPC   NC324119  20.086  43.083   9.535
 1600POPC   PO424120  19.411  43.193   9.429
 1600POPC   GL124121  19.651  43.071   9.067
 1600POPC   GL224122  19.997  43.170   9.060
 1600POPC   C1A24123  19.727  43.196   8.616
 1600POPC   D2A24124  19.810  43.011   8.217
 1600POPC   C3A24125  19.821  43.223   7.825
 1600POPC   C4A24126  19.846  43.112   7.371
 1600POPC   C1B24127  20.222  43.043   8.742
 1600POPC   C2B24128  20.251  43.242   8.354
 1600POPC   C3B24129  20.296  43.046   8.017
 1600POPC   C4B24130  20.292  43.164   7.635
 1601POPC   NC324131  14.763  24.664   9.996
 1601POPC   PO424132  14.321  24.957   9.723
 1601POPC   GL124133  14.309  24.865   9.203
 1601POPC   GL224134  13.994  24.913   9.005
 1601POPC   C1A24135  14.396  25.005   8.734
 1601POPC   D2A24136  14.369  25.117   8.298
 1601POPC   C3A24137  14.586  24.800   8.037
 1601POPC   C4A24138  14.477  24.411   7.820
 1601POPC   C1B24139  14.039  24.628   8.654
 1601POPC   C2B24140  14.106  24.683   8.181
 1601POPC   C3B24141  14.009  24.614   7.724
 1601POPC   C4B24142  13.811  24.303   7.422
 1602POPC   NC324143   9.200  42.095   9.415
 1602POPC   PO424144   9.779  42.157   9.499
 1602POPC   GL124145   9.737  42.218   9.088
 1602POPC   GL224146   9.382  42.365   9.017
 1602POPC   C1A24147   9.923  42.107   8.695
 1602POPC   D2A24148  10.084  41.951   8.311
 1602POPC   C3A24149  10.105  42.287   8.031
 1602POPC   C4A24150  10.122  42.574   7.698
 1602POPC   C1B24151   9.415  41.990   8.781
 1602POPC   C2B24152   9.540  41.899   8.383
 1602POPC   C3B24153   9.614  42.092   8.014
 1602POPC   C4B24154   9.776  42.212   7.664
 1603POPC   NC324155  19.871   0.966   9.775
 1603POPC   PO424156  19.868   0.300   9.611
 1603POPC   GL124157  19.906   0.568   9.203
 1603POPC   GL224158  19.611   0.441   8.965
 1603POPC   C1A24159  20.031   0.648   8.773
 1603POPC   D2A24160  19.751   0.463   8.469
 1603POPC   C3A24161  19.821   0.606   8.078
 1603POPC   C4A24162  19.571   0.692   7.729
 1603POPC   C1B24163  19.932   0.135   8.881
 1603POPC   C2B24164  20.076  44.908   8.512
 1603POPC   C3B24165  19.948   0.061   8.119
 1603POPC   C4B24166  19.795   0.211   7.754
 1604POPC   NC324167   7.401  14.137   9.564
 1604POPC   PO424168   7.266  13.488   9.399
 1604POPC   GL124169   7.331  13.846   9.125
 1604POPC   GL224170   7.676  13.903   9.185
 1604POPC   C1A24171   7.118  13.957   8.744
 1604POPC   D2A24172   7.082  13.978   8.316
 1604POPC   C3A24173   7.198  13.729   8.001
 1604POPC   C4A24174   7.195  13.775   7.550
 1604POPC   C1B24175   7.764  13.744   8.791
 1604POPC   C2B24176   7.589  13.890   8.413
 1604POPC   C3B24177   7.718  13.772   8.044
 1604POPC   C4B24178   7.570  13.479   7.777
 1605POPC   NC324179  27.027  44.563   9.450
 1605POPC   PO424180  26.574  44.978   9.487
 1605POPC   GL124181  26.620  44.791   9.108
 1605POPC   GL224182  26.608  44.452   9.054
 1605POPC   C1A24183  26.804  44.810   8.704
 1605POPC   D2A24184  26.825  44.554   8.363
 1605POPC   C3A24185  26.580  44.652   8.042
 1605POPC   C4A24186  26.533   0.026   7.846
 1605POPC   C1B24187  27.024  44.359   8.827
 1605POPC   C2B24188  27.151  44.144   8.455
 1605POPC   C3B24189  27.169  44.308   8.066
 1605POPC   C4B24190  26.871  44.249   7.800
 1606POPC   NC324191  38.128  28.746   9.363
 1606POPC   PO424192  38.424  28.168   9.553
 1606POPC   GL124193  38.440  28.383   9.162
 1606POPC   GL224194  38.197  28.145   9.094
 1606POPC   C1A24195  38.498  28.633   8.761
 1606POPC   D2A24196  38.772  28.563   8.400
 1606POPC   C3A24197  38.593  28.532   7.974
 1606POPC   C4A24198  38.227  28.724   7.769
 1606POPC   C1B24199  38.356  28.148   8.694
 1606POPC   C2B24200  38.312  28.322   8.322
 1606POPC   C3B24201  38.264  28.149   7.891
 1606POPC   C4B24202  37.943  28.222   7.572
 1607POPC   NC324203  11.092  27.035   9.501
 1607POPC   PO424204  11.659  26.726   9.491
 1607POPC   GL124205  11.489  26.974   9.167
 1607POPC   GL224206  11.241  26.738   9.093
 1607POPC   C1A24207  11.378  27.044   8.717
 1607POPC   D2A24208  11.172  26.768   8.409
 1607POPC   C3A24209  11.066  26.994   8.033
 1607POPC   C4A24210  11.222  27.018   7.608
 1607POPC   C1B24211  10.917  26.575   8.823
 1607POPC   C2B24212  10.887  26.327   8.470
 1607POPC   C3B24213  11.071  26.366   8.070
 1607POPC   C4B24214  10.923  26.600   7.734
 1608POPC   NC324215   6.992  18.523   9.434
 1608POPC   PO424216   6.379  18.790   9.434
 1608POPC   GL124217   6.451  18.427   9.172
 1608POPC   GL224218   6.731  18.311   9.050
 1608POPC   C1A24219   6.297  18.303   8.766
 1608POPC   D2A24220   6.462  18.181   8.404
 1608POPC   C3A24221   6.455  18.464   8.078
 1608POPC   C4A24222   6.540  18.279   7.698
 1608POPC   C1B24223   6.800  18.463   8.641
 1608POPC   C2B24224   6.958  18.470   8.243
 1608POPC   C3B24225   6.977  18.531   7.807
 1608POPC   C4B24226   6.999  18.225   7.498
 1609POPC   NC324227   4.853  15.880   9.481
 1609POPC   PO424228   4.286  16.201   9.491
 1609POPC   GL124229   4.445  15.954   9.143
 1609POPC   GL224230   4.097  16.080   9.025
 1609POPC   C1A24231   4.342  15.719   8.771
 1609POPC   D2A24232   4.248  15.948   8.408
 1609POPC   C3A24233   4.346  15.771   8.015
 1609POPC   C4A24234   4.206  15.891   7.653
 1609POPC   C1B24235   4.052  16.360   8.668
 1609POPC   C2B24236   3.931  16.291   8.234
 1609POPC   C3B24237   4.242  16.330   7.922
 1609POPC   C4B24238   4.137  16.501   7.510
 1610POPC   NC324239   8.443  44.731  10.179
 1610POPC   PO424240   8.206  44.523   9.594
 1610POPC   GL124241   8.122  44.551   9.158
 1610POPC   GL224242   8.451  44.505   9.079
 1610POPC   C1A24243   7.931  44.614   8.737
 1610POPC   D2A24244   7.975  44.506   8.280
 1610POPC   C3A24245   8.223  44.804   7.981
 1610POPC   C4A24246   8.199   0.073   7.597
 1610POPC   C1B24247   8.332  44.294   8.715
 1610POPC   C2B24248   8.296  44.119   8.328
 1610POPC   C3B24249   8.311  44.301   7.918
 1610POPC   C4B24250   8.644  44.573   7.758
 1611POPC   NC324251  37.245  43.823   9.435
 1611POPC   PO424252  36.990  44.477   9.461
 1611POPC   GL124253  36.721  44.260   9.165
 1611POPC   GL224254  36.917  43.946   9.050
 1611POPC   C1A24255  36.811  44.337   8.723
 1611POPC   D2A24256  36.631  44.191   8.330
 1611POPC   C3A24257  36.839  44.075   7.977
 1611POPC   C4A24258  36.663  44.042   7.553
 1611POPC   C1B24259  37.209  43.652   8.794
 1611POPC   C2B24260  37.240  43.489   8.394
 1611POPC   C3B24261  37.175  43.636   7.994
 1611POPC   C4B24262  37.385  43.705   7.622
 1612POPC   NC324263  43.088  38.080   9.539
 1612POPC   PO424264  43.221  37.386   9.527
 1612POPC   GL124265  43.268  37.516   9.126
 1612POPC   GL224266  43.595  37.653   9.086
 1612POPC   C1A24267  43.029  37.587   8.762
 1612POPC   D2A24268  42.765  37.780   8.429
 1612POPC   C3A24269  42.803  37.626   8.000
 1612POPC   C4A24270  42.945  37.587   7.574
 1612POPC   C1B24271  43.554  37.807   8.687
 1612POPC   C2B24272  43.269  37.800   8.364
 1612POPC   C3B24273  43.301  37.728   7.929
 1612POPC   C4B24274  43.427  38.048   7.640
 1613POPC   NC324275   8.235   2.629   9.793
 1613POPC   PO424276   8.414   3.158   9.479
 1613POPC   GL124277   8.236   2.804   9.225
 1613POPC   GL224278   7.913   2.845   9.114
 1613POPC   C1A24279   8.173   2.614   8.772
 1613POPC   D2A24280   8.008   2.802   8.399
 1613POPC   C3A24281   8.248   2.874   8.087
 1613POPC   C4A24282   8.613   2.945   7.885
 1613POPC   C1B24283   7.722   2.983   8.752
 1613POPC   C2B24284   7.689   3.279   8.415
 1613POPC   C3B24285   7.906   3.273   8.010
 1613POPC   C4B24286   8.189   3.162   7.685
 1614POPC   NC324287  27.022  31.377   9.454
 1614POPC   PO424288  26.651  31.984   9.477
 1614POPC   GL124289  26.746  31.616   9.099
 1614POPC   GL224290  27.036  31.399   8.961
 1614POPC   C1A24291  26.583  31.367   8.736
 1614POPC   D2A24292  26.729  31.110   8.401
 1614POPC   C3A24293  26.626  31.246   8.001
 1614POPC   C4A24294  26.617  31.489   7.616
 1614POPC   C1B24295  27.070  31.722   8.690
 1614POPC   C2B24296  26.921  31.795   8.260
 1614POPC   C3B24297  27.049  31.543   7.889
 1614POPC   C4B24298  27.137  31.453   7.448
 1615POPC   NC324299  21.685  43.941   9.460
 1615POPC   PO424300  21.136  43.553   9.668
 1615POPC   GL124301  21.192  43.909   9.319
 1615POPC   GL224302  20.933  44.101   9.163
 1615POPC   C1A24303  21.372  44.131   8.907
 1615POPC   D2A24304  21.192  44.179   8.488
 1615POPC   C3A24305  21.385  44.090   8.098
 1615POPC   C4A24306  21.501  43.830   7.764
 1615POPC   C1B24307  21.045  43.761   8.800
 1615POPC   C2B24308  21.262  43.668   8.376
 1615POPC   C3B24309  21.062  43.673   7.953
 1615POPC   C4B24310  21.075  43.724   7.493
 1616POPC   NC324311   9.742  39.290   9.796
 1616POPC   PO424312   9.730  38.685   9.534
 1616POPC   GL124313   9.749  39.066   9.277
 1616POPC   GL224314   9.453  39.278   9.352
 1616POPC   C1A24315   9.859  39.218   8.843
 1616POPC   D2A24316   9.940  39.381   8.404
 1616POPC   C3A24317   9.948  39.166   8.033
 1616POPC   C4A24318   9.999  39.275   7.619
 1616POPC   C1B24319   9.373  39.206   8.921
 1616POPC   C2B24320   9.461  39.436   8.541
 1616POPC   C3B24321   9.490  39.412   8.090
 1616POPC   C4B24322   9.521  39.104   7.738
 1617POPC   NC324323  22.289   1.579   9.661
 1617POPC   PO424324  22.065   1.023   9.556
 1617POPC   GL124325  22.352   1.209   9.286
 1617POPC   GL224326  22.079   1.442   9.213
 1617POPC   C1A24327  22.498   1.263   8.873
 1617POPC   D2A24328  22.358   1.126   8.483
 1617POPC   C3A24329  22.358   1.341   8.118
 1617POPC   C4A24330  22.198   1.135   7.776
 1617POPC   C1B24331  21.958   1.326   8.811
 1617POPC   C2B24332  21.985   1.524   8.413
 1617POPC   C3B24333  21.841   1.373   8.042
 1617POPC   C4B24334  21.796   1.465   7.596
 1618POPC   NC324335  38.652  10.487   9.438
 1618POPC   PO424336  38.128  10.047   9.649
 1618POPC   GL124337  38.156  10.325   9.252
 1618POPC   GL224338  37.840  10.337   9.079
 1618POPC   C1A24339  38.265  10.499   8.818
 1618POPC   D2A24340  38.564  10.433   8.471
 1618POPC   C3A24341  38.590  10.646   8.078
 1618POPC   C4A24342  38.449  10.805   7.723
 1618POPC   C1B24343  37.943  10.066   8.756
 1618POPC   C2B24344  38.128  10.056   8.355
 1618POPC   C3B24345  38.141  10.414   8.153
 1618POPC   C4B24346  38.058  10.502   7.779
 1619POPC   NC324347  10.369  22.475   9.517
 1619POPC   PO424348  10.620  21.859   9.760
 1619POPC   GL124349  10.533  21.985   9.319
 1619POPC   GL224350  10.753  22.271   9.229
 1619POPC   C1A24351  10.489  21.955   8.856
 1619POPC   D2A24352  10.684  22.062   8.423
 1619POPC   C3A24353  10.446  22.273   8.101
 1619POPC   C4A24354  10.309  22.062   7.734
 1619POPC   C1B24355  10.723  22.418   8.821
 1619POPC   C2B24356  10.781  22.569   8.387
 1619POPC   C3B24357  10.947  22.403   8.003
 1619POPC   C4B24358  10.802  22.051   7.812
 1620POPC   NC324359  27.960  15.314   9.624
 1620POPC   PO424360  27.322  14.961   9.507
 1620POPC   GL124361  27.620  15.128   9.246
 1620POPC   GL224362  27.611  15.455   9.107
 1620POPC   C1A24363  27.652  15.026   8.813
 1620POPC   D2A24364  27.482  15.102   8.419
 1620POPC   C3A24365  27.660  14.927   8.042
 1620POPC   C4A24366  28.054  14.854   7.811
 1620POPC   C1B24367  27.315  15.573   8.778
 1620POPC   C2B24368  27.434  15.601   8.306
 1620POPC   C3B24369  27.741  15.485   7.953
 1620POPC   C4B24370  27.818  15.536   7.489
 1621POPC   NC324371  28.585  17.059   9.411
 1621POPC   PO424372  28.117  17.605   9.397
 1621POPC   GL124373  28.303  17.576   9.027
 1621POPC   GL224374  28.179  17.257   9.007
 1621POPC   C1A24375  28.437  17.692   8.613
 1621POPC   D2A24376  28.758  17.759   8.283
 1621POPC   C3A24377  28.588  17.643   7.895
 1621POPC   C4A24378  28.491  17.726   7.446
 1621POPC   C1B24379  28.499  17.150   8.737
 1621POPC   C2B24380  28.573  17.268   8.328
 1621POPC   C3B24381  28.437  17.090   7.994
 1621POPC   C4B24382  28.449  17.249   7.611
 1622POPC   NC324383  23.404  37.019   9.462
 1622POPC   PO424384  22.768  37.011   9.563
 1622POPC   GL124385  22.943  36.754   9.239
 1622POPC   GL224386  23.023  37.034   9.087
 1622POPC   C1A24387  23.026  36.602   8.790
 1622POPC   D2A24388  22.822  36.640   8.391
 1622POPC   C3A24389  22.928  36.544   8.006
 1622POPC   C4A24390  22.797  36.650   7.549
 1622POPC   C1B24391  23.212  37.073   8.702
 1622POPC   C2B24392  23.330  37.215   8.336
 1622POPC   C3B24393  23.193  36.993   8.019
 1622POPC   C4B24394  23.018  37.071   7.658
 1623POPC   NC324395   6.012  10.173   9.570
 1623POPC   PO424396   6.087   9.548   9.421
 1623POPC   GL124397   5.910   9.891   9.162
 1623POPC   GL224398   6.231  10.084   9.115
 1623POPC   C1A24399   5.770   9.864   8.744
 1623POPC   D2A24400   5.688   9.581   8.408
 1623POPC   C3A24401   5.814   9.722   7.983
 1623POPC   C4A24402   5.802   9.906   7.564
 1623POPC   C1B24403   6.268   9.752   8.815
 1623POPC   C2B24404   6.199   9.650   8.405
 1623POPC   C3B24405   6.272   9.948   8.106
 1623POPC   C4B24406   6.308   9.832   7.707
 1624POPC   NC324407   6.125  17.166   9.423
 1624POPC   PO424408   5.814  16.562   9.532
 1624POPC   GL124409   5.803  16.635   9.126
 1624POPC   GL224410   5.731  16.981   9.149
 1624POPC   C1A24411   5.788  16.509   8.696
 1624POPC   D2A24412   5.949  16.297   8.333
 1624POPC   C3A24413   5.716  16.441   8.027
 1624POPC   C4A24414   5.817  16.614   7.693
 1624POPC   C1B24415   5.943  17.005   8.790
 1624POPC   C2B24416   5.804  17.025   8.405
 1624POPC   C3B24417   5.995  16.904   8.056
 1624POPC   C4B24418   5.885  17.099   7.664
 1625POPC   NC324419  19.348  41.804   9.450
 1625POPC   PO424420  18.719  41.705   9.292
 1625POPC   GL124421  19.087  41.536   9.079
 1625POPC   GL224422  19.323  41.794   8.933
 1625POPC   C1A24423  19.054  41.254   8.733
 1625POPC   D2A24424  18.914  41.293   8.314
 1625POPC   C3A24425  19.217  41.503   8.029
 1625POPC   C4A24426  19.345  41.335   7.639
 1625POPC   C1B24427  18.963  41.832   8.626
 1625POPC   C2B24428  18.847  41.804   8.170
 1625POPC   C3B24429  18.815  41.709   7.718
 1625POPC   C4B24430  18.861  41.852   7.262
 1626POPC   NC324431  24.874  37.453   9.315
 1626POPC   PO424432  24.396  37.934   9.635
 1626POPC   GL124433  24.589  37.874   9.227
 1626POPC   GL224434  24.470  37.569   9.023
 1626POPC   C1A24435  24.561  38.004   8.778
 1626POPC   D2A24436  24.546  37.778   8.359
 1626POPC   C3A24437  24.600  37.992   7.957
 1626POPC   C4A24438  24.634  37.879   7.487
 1626POPC   C1B24439  24.700  37.381   8.656
 1626POPC   C2B24440  24.730  37.254   8.207
 1626POPC   C3B24441  24.580  37.427   7.809
 1626POPC   C4B24442  24.707  37.390   7.354
 1627POPC   NC324443  16.556   6.607   9.829
 1627POPC   PO424444  16.478   6.412   9.195
 1627POPC   GL124445  16.895   6.467   9.008
 1627POPC   GL224446  17.050   6.784   9.098
 1627POPC   C1A24447  16.869   6.346   8.588
 1627POPC   D2A24448  16.550   6.525   8.316
 1627POPC   C3A24449  16.691   6.384   7.938
 1627POPC   C4A24450  16.630   6.345   7.511
 1627POPC   C1B24451  16.850   6.867   8.662
 1627POPC   C2B24452  16.906   6.869   8.171
 1627POPC   C3B24453  16.851   6.814   7.688
 1627POPC   C4B24454  17.006   7.018   7.282
 1628POPC   NC324455   1.821  14.714   9.293
 1628POPC   PO424456   2.161  15.298   9.468
 1628POPC   GL124457   2.304  15.380   9.083
 1628POPC   GL224458   2.327  14.991   9.085
 1628POPC   C1A24459   2.201  15.593   8.701
 1628POPC   D2A24460   1.842  15.514   8.445
 1628POPC   C3A24461   1.975  15.598   8.036
 1628POPC   C4A24462   2.017  15.482   7.640
 1628POPC   C1B24463   2.002  15.123   8.778
 1628POPC   C2B24464   1.888  15.018   8.370
 1628POPC   C3B24465   1.773  15.120   7.983
 1628POPC   C4B24466   1.535  14.796   7.797
 1629POPC   NC324467  34.035  15.629   9.410
 1629POPC   PO424468  33.655  16.193   9.452
 1629POPC   GL124469  33.657  15.864   9.123
 1629POPC   GL224470  33.433  15.599   8.991
 1629POPC   C1A24471  33.643  15.960   8.695
 1629POPC   D2A24472  33.961  16.142   8.459
 1629POPC   C3A24473  33.833  16.142   8.058
 1629POPC   C4A24474  33.821  15.949   7.657
 1629POPC   C1B24475  33.842  15.491   8.777
 1629POPC   C2B24476  33.900  15.620   8.347
 1629POPC   C3B24477  33.567  15.683   8.043
 1629POPC   C4B24478  33.593  15.501   7.636
 1630POPC   NC324479   6.262  43.084   9.695
 1630POPC   PO424480   6.511  43.368   9.183
 1630POPC   GL124481   6.858  43.219   8.924
 1630POPC   GL224482   6.929  42.885   9.013
 1630POPC   C1A24483   6.835  43.108   8.534
 1630POPC   D2A24484   6.479  43.082   8.306
 1630POPC   C3A24485   6.583  43.157   7.866
 1630POPC   C4A24486   6.538  43.105   7.430
 1630POPC   C1B24487   6.563  42.754   8.782
 1630POPC   C2B24488   6.502  42.548   8.400
 1630POPC   C3B24489   6.621  42.674   8.004
 1630POPC   C4B24490   6.410  42.662   7.617
 1631POPC   NC324491  43.958  26.368   9.923
 1631POPC   PO424492  43.685  26.008   9.378
 1631POPC   GL124493  44.095  26.057   9.194
 1631POPC   GL224494  44.311  25.799   9.314
 1631POPC   C1A24495  44.145  26.172   8.743
 1631POPC   D2A24496  44.186  26.333   8.275
 1631POPC   C3A24497  43.908  26.350   7.903
 1631POPC   C4A24498  43.774  26.334   7.472
 1631POPC   C1B24499  44.436  25.721   8.890
 1631POPC   C2B24500  44.232  25.683   8.485
 1631POPC   C3B24501  44.153  25.838   8.070
 1631POPC   C4B24502  43.926  25.866   7.656
 1632POPC   NC324503   0.937  34.801   9.488
 1632POPC   PO424504   1.609  34.738   9.459
 1632POPC   GL124505   1.505  34.527   9.117
 1632POPC   GL224506   1.164  34.500   9.133
 1632POPC   C1A24507   1.478  34.712   8.738
 1632POPC   D2A24508   1.226  34.540   8.449
 1632POPC   C3A24509   1.398  34.638   8.082
 1632POPC   C4A24510   1.611  34.414   7.819
 1632POPC   C1B24511   0.893  34.662   8.830
 1632POPC   C2B24512   0.695  34.497   8.461
 1632POPC   C3B24513   0.887  34.358   8.107
 1632POPC   C4B24514   1.043  34.515   7.746
 1633POPC   NC324515  30.537   7.502   9.602
 1633POPC   PO424516  30.287   6.954   9.421
 1633POPC   GL124517  30.519   7.104   9.006
 1633POPC   GL224518  30.773   7.388   9.138
 1633POPC   C1A24519  30.904   7.132   8.726
 1633POPC   D2A24520  31.213   7.249   8.425
 1633POPC   C3A24521  30.971   7.194   8.031
 1633POPC   C4A24522  30.498   7.183   7.921
 1633POPC   C1B24523  30.943   7.635   8.761
 1633POPC   C2B24524  31.087   7.721   8.308
 1633POPC   C3B24525  30.957   7.676   7.857
 1633POPC   C4B24526  30.583   7.725   7.530
 1634POPC   NC324527  13.815   5.250   9.493
 1634POPC   PO424528  13.059   5.082   9.589
 1634POPC   GL124529  13.431   4.939   9.283
 1634POPC   GL224530  13.503   5.243   9.075
 1634POPC   C1A24531  13.609   4.810   8.849
 1634POPC   D2A24532  13.518   5.128   8.563
 1634POPC   C3A24533  13.515   5.090   8.145
 1634POPC   C4A24534  13.538   5.245   7.727
 1634POPC   C1B24535  13.844   5.423   8.795
 1634POPC   C2B24536  13.902   5.394   8.309
 1634POPC   C3B24537  13.976   5.107   7.937
 1634POPC   C4B24538  13.723   4.723   7.795
 1635POPC   NC324539  27.757  44.603   9.812
 1635POPC   PO424540  27.229   0.013   9.601
 1635POPC   GL124541  27.495  44.732   9.304
 1635POPC   GL224542  27.829  44.535   9.264
 1635POPC   C1A24543  27.493  44.683   8.849
 1635POPC   D2A24544  27.293  44.694   8.451
 1635POPC   C3A24545  27.501  44.722   8.048
 1635POPC   C4A24546  27.600  44.371   7.793
 1635POPC   C1B24547  27.960  44.443   8.818
 1635POPC   C2B24548  27.801  44.386   8.372
 1635POPC   C3B24549  28.029  44.570   7.984
 1635POPC   C4B24550  28.089  45.000   7.827
 1636POPC   NC324551  21.105  24.560   9.503
 1636POPC   PO424552  21.659  24.920   9.532
 1636POPC   GL124553  21.369  24.846   9.174
 1636POPC   GL224554  21.511  24.515   9.178
 1636POPC   C1A24555  21.143  24.550   8.836
 1636POPC   D2A24556  21.195  24.217   8.511
 1636POPC   C3A24557  21.120  24.325   8.038
 1636POPC   C4A24558  21.233  24.722   7.822
 1636POPC   C1B24559  21.620  24.666   8.750
 1636POPC   C2B24560  21.459  24.615   8.311
 1636POPC   C3B24561  21.657  24.462   7.921
 1636POPC   C4B24562  21.899  24.779   7.730
 1637POPC   NC324563  43.977  40.348   9.571
 1637POPC   PO424564  43.710  39.764   9.499
 1637POPC   GL124565  43.939  39.858   9.154
 1637POPC   GL224566  44.271  39.855   9.278
 1637POPC   C1A24567  43.954  40.103   8.778
 1637POPC   D2A24568  43.825  40.332   8.391
 1637POPC   C3A24569  43.626  40.205   8.008
 1637POPC   C4A24570  43.889  40.149   7.667
 1637POPC   C1B24571  44.355  39.695   8.855
 1637POPC   C2B24572  44.148  39.683   8.462
 1637POPC   C3B24573  44.018  39.873   8.098
 1637POPC   C4B24574  44.152  39.691   7.748
 1638POPC   NC324575   9.779  12.443   9.527
 1638POPC   PO424576   9.366  11.944   9.524
 1638POPC   GL124577   9.535  11.986   9.108
 1638POPC   GL224578   9.855  12.128   9.121
 1638POPC   C1A24579   9.571  11.828   8.667
 1638POPC   D2A24580   9.684  12.055   8.274
 1638POPC   C3A24581   9.567  11.981   7.829
 1638POPC   C4A24582   9.769  11.784   7.445
 1638POPC   C1B24583   9.756  12.319   8.716
 1638POPC   C2B24584   9.658  12.595   8.363
 1638POPC   C3B24585   9.885  12.591   7.947
 1638POPC   C4B24586   9.872  12.310   7.573
 1639POPC   NC324587  17.836   7.817   9.535
 1639POPC   PO424588  17.488   8.422   9.430
 1639POPC   GL124589  17.575   8.576   9.009
 1639POPC   GL224590  17.873   8.375   8.849
 1639POPC   C1A24591  17.431   8.491   8.598
 1639POPC   D2A24592  17.682   8.265   8.338
 1639POPC   C3A24593  17.519   8.151   7.995
 1639POPC   C4A24594  17.204   8.148   7.740
 1639POPC   C1B24595  17.825   7.915   8.686
 1639POPC   C2B24596  17.765   7.748   8.228
 1639POPC   C3B24597  17.930   7.947   7.806
 1639POPC   C4B24598  17.737   7.803   7.400
 1640POPC   NC324599  39.250  23.712   9.650
 1640POPC   PO424600  39.734  23.969   9.244
 1640POPC   GL124601  39.358  23.964   9.011
 1640POPC   GL224602  39.065  23.794   9.171
 1640POPC   C1A24603  39.327  24.135   8.651
 1640POPC   D2A24604  39.183  23.963   8.331
 1640POPC   C3A24605  39.501  23.826   8.118
 1640POPC   C4A24606  39.710  23.992   7.780
 1640POPC   C1B24607  39.064  23.611   8.743
 1640POPC   C2B24608  39.024  23.462   8.309
 1640POPC   C3B24609  39.033  23.690   7.934
 1640POPC   C4B24610  39.341  23.650   7.668
 1641POPC   NC324611  44.789  33.546   9.485
 1641POPC   PO424612  44.671  34.153   9.556
 1641POPC   GL124613  44.707  33.951   9.160
 1641POPC   GL224614  44.418  33.792   9.208
 1641POPC   C1A24615  44.884  34.031   8.746
 1641POPC   D2A24616  44.693  33.966   8.358
 1641POPC   C3A24617  44.929  34.035   7.998
 1641POPC   C4A24618  44.746  33.830   7.681
 1641POPC   C1B24619  44.306  33.677   8.839
 1641POPC   C2B24620  44.430  33.497   8.454
 1641POPC   C3B24621  44.417  33.607   8.036
 1641POPC   C4B24622  44.491  33.366   7.643
 1642POPC   NC324623   4.614  42.836   9.582
 1642POPC   PO424624   4.180  43.280   9.743
 1642POPC   GL124625   4.158  43.064   9.297
 1642POPC   GL224626   4.357  42.775   9.163
 1642POPC   C1A24627   4.168  43.233   8.847
 1642POPC   D2A24628   4.225  43.551   8.498
 1642POPC   C3A24629   4.161  43.382   8.074
 1642POPC   C4A24630   3.978  43.044   7.811
 1642POPC   C1B24631   4.641  43.073   8.963
 1642POPC   C2B24632   4.620  43.045   8.531
 1642POPC   C3B24633   4.521  43.002   8.093
 1642POPC   C4B24634   4.413  42.769   7.744
 1643POPC   NC324635  23.291  26.333   9.563
 1643POPC   PO424636  23.922  26.054   9.430
 1643POPC   GL124637  23.640  26.249   9.147
 1643POPC   GL224638  23.366  25.994   9.177
 1643POPC   C1A24639  23.799  26.456   8.746
 1643POPC   D2A24640  23.879  26.440   8.285
 1643POPC   C3A24641  23.811  26.110   7.945
 1643POPC   C4A24642  24.024  26.059   7.542
 1643POPC   C1B24643  23.604  25.871   8.789
 1643POPC   C2B24644  23.603  25.776   8.348
 1643POPC   C3B24645  23.325  25.762   8.009
 1643POPC   C4B24646  23.374  25.996   7.647
 1644POPC   NC324647  32.460  19.993   9.568
 1644POPC   PO424648  31.952  19.596   9.394
 1644POPC   GL124649  32.183  19.864   9.086
 1644POPC   GL224650  32.570  19.891   9.099
 1644POPC   C1A24651  32.121  19.911   8.620
 1644POPC   D2A24652  31.979  19.948   8.187
 1644POPC   C3A24653  32.175  19.814   7.810
 1644POPC   C4A24654  32.122  20.035   7.414
 1644POPC   C1B24655  32.790  19.968   8.753
 1644POPC   C2B24656  32.586  19.979   8.357
 1644POPC   C3B24657  32.707  19.904   7.952
 1644POPC   C4B24658  32.603  20.023   7.550
 1645POPC   NC324659  36.126  24.983   9.679
 1645POPC   PO424660  35.862  25.444   9.266
 1645POPC   GL124661  36.111  25.225   9.028
 1645POPC   GL224662  36.133  24.962   9.169
 1645POPC   C1A24663  36.074  25.212   8.607
 1645POPC   D2A24664  35.753  25.282   8.303
 1645POPC   C3A24665  35.912  25.396   7.908
 1645POPC   C4A24666  36.306  25.428   7.721
 1645POPC   C1B24667  36.438  24.888   8.791
 1645POPC   C2B24668  36.516  25.048   8.391
 1645POPC   C3B24669  36.237  25.046   8.086
 1645POPC   C4B24670  36.092  24.970   7.678
 1646POPC   NC324671  11.400  16.962   9.646
 1646POPC   PO424672  10.949  16.521   9.851
 1646POPC   GL124673  11.211  16.553   9.373
 1646POPC   GL224674  11.115  16.862   9.186
 1646POPC   C1A24675  11.548  16.723   8.979
 1646POPC   D2A24676  11.736  16.870   8.546
 1646POPC   C3A24677  11.571  16.849   8.095
 1646POPC   C4A24678  11.558  16.505   7.742
 1646POPC   C1B24679  11.115  16.502   8.860
 1646POPC   C2B24680  11.286  16.565   8.444
 1646POPC   C3B24681  11.089  16.626   8.037
 1646POPC   C4B24682  10.806  16.364   7.803
 1647POPC   NC324683   4.121   6.818   9.793
 1647POPC   PO424684   4.569   6.370   9.595
 1647POPC   GL124685   4.284   6.558   9.281
 1647POPC   GL224686   4.205   6.894   9.237
 1647POPC   C1A24687   4.298   6.538   8.823
 1647POPC   D2A24688   4.614   6.500   8.492
 1647POPC   C3A24689   4.463   6.551   8.072
 1647POPC   C4A24690   4.076   6.503   7.798
 1647POPC   C1B24691   4.054   7.009   8.810
 1647POPC   C2B24692   4.077   6.788   8.400
 1647POPC   C3B24693   4.150   6.985   8.014
 1647POPC   C4B24694   4.436   6.907   7.712
 1648POPC   NC324695  43.401  36.187   9.527
 1648POPC   PO424696  42.915  35.858   9.400
 1648POPC   GL124697  43.211  36.007   9.069
 1648POPC   GL224698  43.155  36.382   9.128
 1648POPC   C1A24699  43.309  35.921   8.607
 1648POPC   D2A24700  42.965  36.002   8.282
 1648POPC   C3A24701  43.103  35.900   7.843
 1648POPC   C4A24702  43.280  35.953   7.408
 1648POPC   C1B24703  43.055  36.356   8.694
 1648POPC   C2B24704  43.312  36.382   8.336
 1648POPC   C3B24705  43.052  36.450   7.991
 1648POPC   C4B24706  42.925  36.323   7.613
 1649POPC   NC324707  37.354  25.591   9.417
 1649POPC   PO424708  37.535  26.174   9.597
 1649POPC   GL124709  37.550  25.996   9.179
 1649POPC   GL224710  37.694  26.279   9.063
 1649POPC   C1A24711  37.456  25.800   8.785
 1649POPC   D2A24712  37.449  26.004   8.406
 1649POPC   C3A24713  37.687  25.898   8.085
 1649POPC   C4A24714  37.631  26.014   7.660
 1649POPC   C1B24715  37.933  26.020   8.775
 1649POPC   C2B24716  38.065  26.138   8.360
 1649POPC   C3B24717  37.965  26.314   7.949
 1649POPC   C4B24718  38.061  26.230   7.486
 1650POPC   NC324719  42.259   0.863   9.644
 1650POPC   PO424720  42.466   1.500   9.542
 1650POPC   GL124721  42.238   1.322   9.183
 1650POPC   GL224722  42.106   1.009   9.194
 1650POPC   C1A24723  42.423   1.317   8.765
 1650POPC   D2A24724  42.704   1.285   8.432
 1650POPC   C3A24725  42.523   1.302   8.023
 1650POPC   C4A24726  42.611   1.152   7.623
 1650POPC   C1B24727  42.289   0.846   8.843
 1650POPC   C2B24728  42.321   0.957   8.412
 1650POPC   C3B24729  42.286   0.841   7.997
 1650POPC   C4B24730  42.100   1.116   7.695
 1651POPC   NC324731  37.700  24.881   9.448
 1651POPC   PO424732  37.841  25.566   9.308
 1651POPC   GL124733  37.760  25.397   8.941
 1651POPC   GL224734  37.554  25.141   9.053
 1651POPC   C1A24735  37.867  25.543   8.532
 1651POPC   D2A24736  37.953  25.305   8.160
 1651POPC   C3A24737  37.873  25.542   7.792
 1651POPC   C4A24738  37.604  25.212   7.722
 1651POPC   C1B24739  37.566  24.859   8.683
 1651POPC   C2B24740  37.240  24.733   8.408
 1651POPC   C3B24741  37.305  24.879   8.001
 1651POPC   C4B24742  37.411  24.758   7.600
 1652POPC   NC324743   6.215  13.035   9.349
 1652POPC   PO424744   6.756  12.640   9.544
 1652POPC   GL124745   6.647  12.781   9.132
 1652POPC   GL224746   6.860  12.609   8.891
 1652POPC   C1A24747   6.702  13.061   8.739
 1652POPC   D2A24748   6.860  12.934   8.315
 1652POPC   C3A24749   6.667  12.976   7.899
 1652POPC   C4A24750   6.387  13.316   7.708
 1652POPC   C1B24751   6.471  12.610   8.667
 1652POPC   C2B24752   6.359  12.676   8.248
 1652POPC   C3B24753   6.401  12.437   7.880
 1652POPC   C4B24754   6.572  12.610   7.491
 1653POPC   NC324755   5.749   6.411   9.560
 1653POPC   PO424756   5.967   7.042   9.531
 1653POPC   GL124757   6.002   6.791   9.141
 1653POPC   GL224758   5.855   6.446   9.066
 1653POPC   C1A24759   5.916   6.874   8.714
 1653POPC   D2A24760   5.835   6.698   8.301
 1653POPC   C3A24761   5.860   6.909   7.947
 1653POPC   C4A24762   6.277   7.092   7.876
 1653POPC   C1B24763   5.581   6.457   8.681
 1653POPC   C2B24764   5.693   6.220   8.302
 1653POPC   C3B24765   5.795   6.388   7.865
 1653POPC   C4B24766   5.704   6.581   7.427
 1654POPC   NC324767   9.747  28.080   9.629
 1654POPC   PO424768  10.142  28.671   9.557
 1654POPC   GL124769   9.908  28.451   9.192
 1654POPC   GL224770   9.596  28.301   9.212
 1654POPC   C1A24771   9.707  28.551   8.786
 1654POPC   D2A24772   9.504  28.394   8.448
 1654POPC   C3A24773   9.628  28.410   8.066
 1654POPC   C4A24774   9.871  28.555   7.793
 1654POPC   C1B24775   9.349  28.092   8.872
 1654POPC   C2B24776   9.472  27.895   8.471
 1654POPC   C3B24777   9.637  27.884   8.061
 1654POPC   C4B24778   9.452  28.089   7.708
 1655POPC   NC324779   4.235   6.056   9.415
 1655POPC   PO424780   4.672   5.601   9.547
 1655POPC   GL124781   4.685   5.879   9.205
 1655POPC   GL224782   4.783   5.592   9.010
 1655POPC   C1A24783   4.546   6.076   8.818
 1655POPC   D2A24784   4.228   5.965   8.529
 1655POPC   C3A24785   4.146   6.117   8.123
 1655POPC   C4A24786   4.438   6.123   7.775
 1655POPC   C1B24787   4.352   5.583   8.867
 1655POPC   C2B24788   4.251   5.445   8.448
 1655POPC   C3B24789   4.397   5.672   8.090
 1655POPC   C4B24790   4.160   5.684   7.705
 1656POPC   NC324791  19.792  31.756   9.843
 1656POPC   PO424792  19.560  31.190   9.622
 1656POPC   GL124793  19.801  31.241   9.186
 1656POPC   GL224794  20.176  31.343   9.178
 1656POPC   C1A24795  19.778  31.495   8.755
 1656POPC   D2A24796  19.582  31.719   8.358
 1656POPC   C3A24797  19.736  31.576   7.949
 1656POPC   C4A24798  19.895  31.206   7.804
 1656POPC   C1B24799  20.293  31.521   8.756
 1656POPC   C2B24800  20.120  31.714   8.370
 1656POPC   C3B24801  20.125  31.925   7.971
 1656POPC   C4B24802  19.904  31.904   7.558
 1657POPC   NC324803  43.046  44.472   9.502
 1657POPC   PO424804  43.310   0.151   9.592
 1657POPC   GL124805  43.296  44.904   9.226
 1657POPC   GL224806  43.450  44.611   9.243
 1657POPC   C1A24807  43.060  44.740   8.878
 1657POPC   D2A24808  43.163  44.726   8.465
 1657POPC   C3A24809  42.825  44.835   8.164
 1657POPC   C4A24810  42.888  44.674   7.784
 1657POPC   C1B24811  43.343  44.319   8.908
 1657POPC   C2B24812  43.301  44.227   8.481
 1657POPC   C3B24813  43.267  44.442   8.052
 1657POPC   C4B24814  43.300  44.414   7.597
 1658POPC   NC324815   2.450   4.604   9.367
 1658POPC   PO424816   2.795   4.099   9.547
 1658POPC   GL124817   2.533   4.069   9.175
 1658POPC   GL224818   2.593   4.362   8.958
 1658POPC   C1A24819   2.710   3.920   8.782
 1658POPC   D2A24820   3.069   3.915   8.495
 1658POPC   C3A24821   2.983   4.168   8.128
 1658POPC   C4A24822   2.652   4.337   7.862
 1658POPC   C1B24823   2.847   4.411   8.584
 1658POPC   C2B24824   2.834   4.674   8.228
 1658POPC   C3B24825   2.999   4.738   7.886
 1658POPC   C4B24826   3.203   4.373   7.700
 1659POPC   NC324827   0.735  40.846   9.352
 1659POPC   PO424828  44.992  40.912   9.460
 1659POPC   GL124829   0.256  40.836   9.070
 1659POPC   GL224830   0.617  40.730   8.897
 1659POPC   C1A24831   0.197  40.652   8.661
 1659POPC   D2A24832   0.278  40.491   8.268
 1659POPC   C3A24833   0.200  40.745   7.925
 1659POPC   C4A24834   0.298  40.836   7.516
 1659POPC   C1B24835   0.730  41.001   8.577
 1659POPC   C2B24836   0.582  41.022   8.168
 1659POPC   C3B24837   0.740  40.778   7.830
 1659POPC   C4B24838   0.697  40.547   7.454
 1660POPC   NC324839  18.208   1.621   9.406
 1660POPC   PO424840  18.633   2.131   9.326
 1660POPC   GL124841  18.217   2.066   9.154
 1660POPC   GL224842  18.010   2.348   9.075
 1660POPC   C1A24843  18.170   1.817   8.774
 1660POPC   D2A24844  18.390   1.650   8.393
 1660POPC   C3A24845  18.144   1.520   8.018
 1660POPC   C4A24846  18.144   1.643   7.547
 1660POPC   C1B24847  18.381   2.368   8.781
 1660POPC   C2B24848  18.575   2.434   8.398
 1660POPC   C3B24849  18.391   2.326   8.046
 1660POPC   C4B24850  18.440   1.907   7.916
 1661POPC   NC324851   2.223  11.466   9.539
 1661POPC   PO424852   1.579  11.246   9.482
 1661POPC   GL124853   1.929  11.128   9.184
 1661POPC   GL224854   2.130  11.406   9.044
 1661POPC   C1A24855   1.826  11.024   8.729
 1661POPC   D2A24856   1.878  10.846   8.292
 1661POPC   C3A24857   1.989  11.143   7.925
 1661POPC   C4A24858   2.093  11.608   7.837
 1661POPC   C1B24859   2.318  11.082   8.784
 1661POPC   C2B24860   2.304  11.161   8.341
 1661POPC   C3B24861   2.524  11.276   7.968
 1661POPC   C4B24862   2.356  11.253   7.543
 1662POPC   NC324863  44.868  21.888   9.441
 1662POPC   PO424864  44.425  22.377   9.553
 1662POPC   GL124865  44.578  22.200   9.169
 1662POPC   GL224866  44.444  21.839   9.185
 1662POPC   C1A24867  44.888  22.302   8.835
 1662POPC   D2A24868  44.953  22.252   8.418
 1662POPC   C3A24869  44.816  22.537   8.081
 1662POPC   C4A24870  44.425  22.487   7.893
 1662POPC   C1B24871  44.729  21.810   8.808
 1662POPC   C2B24872  44.858  21.743   8.382
 1662POPC   C3B24873  44.782  21.994   8.011
 1662POPC   C4B24874  44.635  21.892   7.627
 1663POPC   NC324875   4.904  29.193   9.501
 1663POPC   PO424876   5.516  29.092   9.558
 1663POPC   GL124877   5.386  29.283   9.105
 1663POPC   GL224878   5.026  29.319   9.021
 1663POPC   C1A24879   5.294  29.238   8.615
 1663POPC   D2A24880   5.036  29.141   8.263
 1663POPC   C3A24881   5.201  29.110   7.823
 1663POPC   C4A24882   5.413  29.081   7.395
 1663POPC   C1B24883   4.832  28.963   8.792
 1663POPC   C2B24884   4.787  28.692   8.401
 1663POPC   C3B24885   4.801  28.798   7.963
 1663POPC   C4B24886   4.688  28.999   7.595
 1664POPC   NC324887   7.480   0.505   9.897
 1664POPC   PO424888   7.372  44.975   9.434
 1664POPC   GL124889   7.402   0.355   9.175
 1664POPC   GL224890   7.514   0.647   9.386
 1664POPC   C1A24891   7.218   0.476   8.792
 1664POPC   D2A24892   7.224   0.297   8.387
 1664POPC   C3A24893   7.357   0.461   8.017
 1664POPC   C4A24894   7.473   0.345   7.594
 1664POPC   C1B24895   7.636   0.775   8.964
 1664POPC   C2B24896   7.579   0.695   8.499
 1664POPC   C3B24897   7.635   0.870   8.085
 1664POPC   C4B24898   7.825   0.752   7.700
 1665POPC   NC324899  18.564  42.109   9.461
 1665POPC   PO424900  18.017  42.478   9.412
 1665POPC   GL124901  18.250  42.344   9.098
 1665POPC   GL224902  18.570  42.493   9.155
 1665POPC   C1A24903  18.133  42.164   8.723
 1665POPC   D2A24904  17.917  42.185   8.336
 1665POPC   C3A24905  18.110  42.306   7.940
 1665POPC   C4A24906  17.868  42.371   7.542
 1665POPC   C1B24907  18.660  42.249   8.791
 1665POPC   C2B24908  18.494  42.420   8.414
 1665POPC   C3B24909  18.630  42.243   8.002
 1665POPC   C4B24910  18.471  42.124   7.589
 1666POPC   NC324911  17.256  17.169   9.256
 1666POPC   PO424912  17.610  17.702   9.535
 1666POPC   GL124913  17.599  17.539   9.106
 1666POPC   GL224914  17.906  17.677   9.015
 1666POPC   C1A24915  17.624  17.289   8.712
 1666POPC   D2A24916  17.501  16.983   8.429
 1666POPC   C3A24917  17.488  17.213   8.059
 1666POPC   C4A24918  17.353  17.354   7.660
 1666POPC   C1B24919  17.682  17.785   8.662
 1666POPC   C2B24920  17.435  17.711   8.340
 1666POPC   C3B24921  17.350  17.910   8.007
 1666POPC   C4B24922  17.619  17.777   7.774
 1667POPC   NC324923  34.071  32.606   9.448
 1667POPC   PO424924  33.676  32.055   9.662
 1667POPC   GL124925  33.751  32.078   9.210
 1667POPC   GL224926  34.069  32.168   9.150
 1667POPC   C1A24927  33.796  31.975   8.763
 1667POPC   D2A24928  33.754  32.224   8.396
 1667POPC   C3A24929  33.769  32.000   8.045
 1667POPC   C4A24930  34.003  32.013   7.697
 1667POPC   C1B24931  34.000  32.455   8.782
 1667POPC   C2B24932  34.093  32.612   8.344
 1667POPC   C3B24933  33.868  32.501   7.960
 1667POPC   C4B24934  33.965  32.481   7.492
 1668POPC   NC324935  11.247  12.113   9.894
 1668POPC   PO424936  11.066  11.938   9.302
 1668POPC   GL124937  11.211  12.050   8.938
 1668POPC   GL224938  11.519  12.135   9.059
 1668POPC   C1A24939  11.448  11.960   8.584
 1668POPC   D2A24940  11.464  11.821   8.172
 1668POPC   C3A24941  11.133  11.970   7.959
 1668POPC   C4A24942  11.074  11.627   7.767
 1668POPC   C1B24943  11.506  12.441   8.699
 1668POPC   C2B24944  11.383  12.357   8.256
 1668POPC   C3B24945  11.526  12.261   7.852
 1668POPC   C4B24946  11.755  11.911   7.663
 1669POPC   NC324947  10.939   9.898   9.425
 1669POPC   PO424948  10.351   9.535   9.462
 1669POPC   GL124949  10.579   9.676   9.119
 1669POPC   GL224950  10.871   9.461   9.110
 1669POPC   C1A24951  10.434   9.613   8.702
 1669POPC   D2A24952  10.134   9.736   8.397
 1669POPC   C3A24953  10.319   9.795   8.006
 1669POPC   C4A24954  10.530  10.193   7.888
 1669POPC   C1B24955  10.946   9.636   8.721
 1669POPC   C2B24956  10.752   9.672   8.286
 1669POPC   C3B24957  10.778   9.664   7.818
 1669POPC   C4B24958  10.858   9.551   7.370
 1670POPC   NC324959  18.497  29.108   9.495
 1670POPC   PO424960  18.031  29.723   9.565
 1670POPC   GL124961  18.012  29.539   9.086
 1670POPC   GL224962  18.180  29.166   9.062
 1670POPC   C1A24963  18.236  29.511   8.696
 1670POPC   D2A24964  18.459  29.402   8.347
 1670POPC   C3A24965  18.166  29.332   8.048
 1670POPC   C4A24966  18.203  29.334   7.626
 1670POPC   C1B24967  18.420  28.996   8.713
 1670POPC   C2B24968  18.344  28.857   8.274
 1670POPC   C3B24969  18.336  28.887   7.830
 1670POPC   C4B24970  18.589  29.040   7.478
 1671POPC   NC324971  21.647  15.272   9.452
 1671POPC   PO424972  21.043  15.285   9.729
 1671POPC   GL124973  21.151  15.153   9.297
 1671POPC   GL224974  21.288  14.839   9.247
 1671POPC   C1A24975  21.317  15.268   8.870
 1671POPC   D2A24976  21.481  15.158   8.458
 1671POPC   C3A24977  21.434  15.344   8.055
 1671POPC   C4A24978  21.649  15.063   7.792
 1671POPC   C1B24979  20.970  14.879   8.892
 1671POPC   C2B24980  20.940  15.170   8.513
 1671POPC   C3B24981  20.988  15.098   8.056
 1671POPC   C4B24982  21.206  14.779   7.805
 1672POPC   NC324983   1.702  17.300   9.384
 1672POPC   PO424984   2.067  17.755   9.600
 1672POPC   GL124985   1.950  17.775   9.171
 1672POPC   GL224986   1.653  17.630   9.012
 1672POPC   C1A24987   2.160  17.678   8.813
 1672POPC   D2A24988   2.385  17.534   8.448
 1672POPC   C3A24989   2.206  17.459   8.013
 1672POPC   C4A24990   1.975  17.472   7.592
 1672POPC   C1B24991   1.820  17.336   8.700
 1672POPC   C2B24992   1.777  17.287   8.280
 1672POPC   C3B24993   1.794  17.113   7.893
 1672POPC   C4B24994   1.745  17.010   7.439
 1673POPC   NC324995   6.822  42.076   9.491
 1673POPC   PO424996   6.557  42.761   9.511
 1673POPC   GL124997   6.646  42.449   9.169
 1673POPC   GL224998   6.408  42.181   9.114
 1673POPC   C1A24999   6.725  42.249   8.742
 1673POPC   D2A25000   6.981  42.122   8.401
 1673POPC   C3A25001   6.765  42.206   8.028
 1673POPC   C4A25002   6.872  42.317   7.585
 1673POPC   C1B25003   6.313  41.963   8.743
 1673POPC   C2B25004   6.459  41.977   8.360
 1673POPC   C3B25005   6.301  41.899   7.996
 1673POPC   C4B25006   6.397  42.157   7.654
 1674POPC   NC325007   0.989  10.171   9.819
 1674POPC   PO425008   1.529  10.248   9.507
 1674POPC   GL125009   1.419   9.939   9.167
 1674POPC   GL225010   1.241   9.626   9.267
 1674POPC   C1A25011   1.615   9.904   8.755
 1674POPC   D2A25012   1.408   9.946   8.369
 1674POPC   C3A25013   1.540   9.951   7.966
 1674POPC   C4A25014   1.319   9.796   7.636
 1674POPC   C1B25015   1.518   9.447   8.929
 1674POPC   C2B25016   1.657   9.478   8.460
 1674POPC   C3B25017   1.477   9.434   8.030
 1674POPC   C4B25018   1.293   9.277   7.608
 1675POPC   NC325019  13.473  41.126   9.521
 1675POPC   PO425020  13.810  40.484   9.574
 1675POPC   GL125021  13.776  40.715   9.193
 1675POPC   GL225022  13.664  41.014   9.077
 1675POPC   C1A25023  13.636  40.635   8.761
 1675POPC   D2A25024  13.829  40.789   8.405
 1675POPC   C3A25025  13.705  40.674   8.007
 1675POPC   C4A25026  13.926  40.466   7.706
 1675POPC   C1B25027  13.528  41.134   8.676
 1675POPC   C2B25028  13.411  41.268   8.251
 1675POPC   C3B25029  13.421  41.064   7.832
 1675POPC   C4B25030  13.200  40.822   7.475
 1676POPC   NC325031  17.287  15.730   9.486
 1676POPC   PO425032  17.788  16.181   9.544
 1676POPC   GL125033  17.714  15.927   9.158
 1676POPC   GL225034  17.385  15.810   9.010
 1676POPC   C1A25035  17.653  16.099   8.723
 1676POPC   D2A25036  17.543  15.912   8.363
 1676POPC   C3A25037  17.652  16.158   7.994
 1676POPC   C4A25038  17.595  16.379   7.588
 1676POPC   C1B25039  17.642  15.532   8.817
 1676POPC   C2B25040  17.841  15.445   8.442
 1676POPC   C3B25041  17.871  15.677   8.057
 1676POPC   C4B25042  17.494  15.677   7.855
 1677POPC   NC325043  41.076  21.718   9.588
 1677POPC   PO425044  40.719  21.202   9.562
 1677POPC   GL125045  40.806  21.471   9.219
 1677POPC   GL225046  41.118  21.550   9.124
 1677POPC   C1A25047  40.680  21.689   8.870
 1677POPC   D2A25048  40.587  21.518   8.476
 1677POPC   C3A25049  40.492  21.714   8.123
 1677POPC   C4A25050  40.482  21.324   7.922
 1677POPC   C1B25051  41.239  21.595   8.761
 1677POPC   C2B25052  41.110  21.445   8.399
 1677POPC   C3B25053  40.965  21.481   7.999
 1677POPC   C4B25054  41.278  21.459   7.678
 1678POPC   NC325055  42.382  20.790  10.045
 1678POPC   PO425056  42.484  20.211   9.770
 1678POPC   GL125057  42.450  20.562   9.412
 1678POPC   GL225058  42.135  20.728   9.235
 1678POPC   C1A25059  42.600  20.708   8.979
 1678POPC   D2A25060  42.484  20.637   8.546
 1678POPC   C3A25061  42.518  20.722   8.089
 1678POPC   C4A25062  42.311  20.491   7.750
 1678POPC   C1B25063  42.183  20.964   8.798
 1678POPC   C2B25064  42.112  20.947   8.316
 1678POPC   C3B25065  42.113  20.974   7.827
 1678POPC   C4B25066  42.002  21.087   7.381
 1679POPC   NC325067  39.790  43.889   9.359
 1679POPC   PO425068  39.223  43.799   9.652
 1679POPC   GL125069  39.346  43.644   9.240
 1679POPC   GL225070  39.352  43.976   9.136
 1679POPC   C1A25071  39.599  43.530   8.837
 1679POPC   D2A25072  39.604  43.322   8.411
 1679POPC   C3A25073  39.430  43.532   8.033
 1679POPC   C4A25074  39.556  43.876   7.788
 1679POPC   C1B25075  39.163  43.815   8.778
 1679POPC   C2B25076  39.307  43.972   8.383
 1679POPC   C3B25077  39.145  44.057   8.000
 1679POPC   C4B25078  39.088  43.983   7.569
 1680POPC   NC325079   5.343  22.222   9.605
 1680POPC   PO425080   5.109  21.716   9.564
 1680POPC   GL125081   5.054  21.935   9.128
 1680POPC   GL225082   5.153  22.291   9.107
 1680POPC   C1A25083   5.035  22.074   8.649
 1680POPC   D2A25084   5.086  21.883   8.225
 1680POPC   C3A25085   4.981  22.114   7.841
 1680POPC   C4A25086   4.835  22.240   7.422
 1680POPC   C1B25087   5.337  22.484   8.715
 1680POPC   C2B25088   5.271  22.382   8.263
 1680POPC   C3B25089   5.481  22.210   7.891
 1680POPC   C4B25090   5.670  22.402   7.512
 1681POPC   NC325091  26.150  30.995   9.446
 1681POPC   PO425092  25.741  30.528   9.576
 1681POPC   GL125093  26.007  30.545   9.227
 1681POPC   GL225094  25.785  30.803   9.086
 1681POPC   C1A25095  26.278  30.707   8.880
 1681POPC   D2A25096  26.305  30.579   8.450
 1681POPC   C3A25097  26.306  30.827   8.089
 1681POPC   C4A25098  26.116  30.659   7.734
 1681POPC   C1B25099  25.835  30.681   8.636
 1681POPC   C2B25100  25.813  30.628   8.162
 1681POPC   C3B25101  25.624  30.761   7.746
 1681POPC   C4B25102  25.674  30.905   7.323
 1682POPC   NC325103  32.388  36.789   9.443
 1682POPC   PO425104  31.949  37.382   9.453
 1682POPC   GL125105  31.953  37.128   9.021
 1682POPC   GL225106  32.182  36.813   8.987
 1682POPC   C1A25107  32.050  37.033   8.550
 1682POPC   D2A25108  32.300  36.799   8.241
 1682POPC   C3A25109  32.289  36.885   7.829
 1682POPC   C4A25110  32.600  37.159   7.763
 1682POPC   C1B25111  32.281  36.525   8.662
 1682POPC   C2B25112  32.116  36.334   8.294
 1682POPC   C3B25113  32.299  36.369   7.865
 1682POPC   C4B25114  32.256  36.530   7.419
 1683POPC   NC325115  32.667  30.180   9.483
 1683POPC   PO425116  33.258  29.719   9.559
 1683POPC   GL125117  32.998  29.818   9.265
 1683POPC   GL225118  33.124  30.137   9.210
 1683POPC   C1A25119  32.798  29.875   8.884
 1683POPC   D2A25120  32.717  29.730   8.482
 1683POPC   C3A25121  32.685  30.082   8.179
 1683POPC   C4A25122  32.647  29.964   7.753
 1683POPC   C1B25123  33.302  30.006   8.820
 1683POPC   C2B25124  33.161  30.022   8.396
 1683POPC   C3B25125  33.040  29.735   8.075
 1683POPC   C4B25126  33.237  29.825   7.743
 1684POPC   NC325127  17.242  14.813   9.657
 1684POPC   PO425128  17.641  15.368   9.496
 1684POPC   GL125129  17.501  15.108   9.187
 1684POPC   GL225130  17.249  15.330   9.132
 1684POPC   C1A25131  17.619  15.026   8.763
 1684POPC   D2A25132  17.428  15.106   8.374
 1684POPC   C3A25133  17.674  15.212   8.020
 1684POPC   C4A25134  17.514  15.164   7.668
 1684POPC   C1B25135  17.109  15.473   8.743
 1684POPC   C2B25136  17.180  15.563   8.333
 1684POPC   C3B25137  17.140  15.338   7.981
 1684POPC   C4B25138  17.123  15.490   7.562
 1685POPC   NC325139  24.498  35.807   9.546
 1685POPC   PO425140  24.465  35.145   9.515
 1685POPC   GL125141  24.497  35.226   9.123
 1685POPC   GL225142  24.367  35.541   9.108
 1685POPC   C1A25143  24.400  35.168   8.714
 1685POPC   D2A25144  24.392  35.391   8.343
 1685POPC   C3A25145  24.498  35.144   8.008
 1685POPC   C4A25146  24.572  35.333   7.619
 1685POPC   C1B25147  24.533  35.726   8.734
 1685POPC   C2B25148  24.764  35.771   8.345
 1685POPC   C3B25149  24.572  35.727   7.946
 1685POPC   C4B25150  24.694  35.845   7.533
 1686POPC   NC325151  40.974  43.465   9.500
 1686POPC   PO425152  40.632  42.862   9.540
 1686POPC   GL125153  40.754  43.072   9.184
 1686POPC   GL225154  40.629  43.416   9.134
 1686POPC   C1A25155  40.663  43.076   8.740
 1686POPC   D2A25156  40.363  43.066   8.412
 1686POPC   C3A25157  40.537  42.972   8.026
 1686POPC   C4A25158  40.349  42.790   7.669
 1686POPC   C1B25159  40.768  43.592   8.769
 1686POPC   C2B25160  40.881  43.442   8.371
 1686POPC   C3B25161  40.918  43.341   7.949
 1686POPC   C4B25162  40.783  43.127   7.592
 1687POPC   NC325163   2.032   7.202  10.311
 1687POPC   PO425164   1.961   7.392   9.661
 1687POPC   GL125165   2.013   7.192   9.268
 1687POPC   GL225166   1.923   7.523   9.141
 1687POPC   C1A25167   2.147   7.175   8.847
 1687POPC   D2A25168   2.150   7.501   8.531
 1687POPC   C3A25169   2.248   7.323   8.150
 1687POPC   C4A25170   2.180   7.309   7.729
 1687POPC   C1B25171   1.984   7.881   8.852
 1687POPC   C2B25172   1.817   7.909   8.433
 1687POPC   C3B25173   1.949   7.751   8.021
 1687POPC   C4B25174   1.861   7.933   7.611
 1688POPC   NC325175  39.468  31.981  10.005
 1688POPC   PO425176  39.315  32.445   9.580
 1688POPC   GL125177  39.162  32.325   9.182
 1688POPC   GL225178  38.947  32.022   9.264
 1688POPC   C1A25179  39.361  32.386   8.781
 1688POPC   D2A25180  39.656  32.257   8.489
 1688POPC   C3A25181  39.405  32.339   8.166
 1688POPC   C4A25182  39.261  32.552   7.822
 1688POPC   C1B25183  38.956  32.027   8.826
 1688POPC   C2B25184  39.232  31.943   8.503
 1688POPC   C3B25185  39.117  31.905   8.082
 1688POPC   C4B25186  38.962  32.106   7.716
 1689POPC   NC325187  36.821  22.594   9.626
 1689POPC   PO425188  37.040  21.997   9.779
 1689POPC   GL125189  36.850  22.148   9.343
 1689POPC   GL225190  36.555  22.377   9.251
 1689POPC   C1A25191  36.926  22.133   8.879
 1689POPC   D2A25192  36.692  21.934   8.531
 1689POPC   C3A25193  36.860  21.947   8.097
 1689POPC   C4A25194  37.062  22.122   7.740
 1689POPC   C1B25195  36.562  22.484   8.822
 1689POPC   C2B25196  36.675  22.402   8.388
 1689POPC   C3B25197  36.474  22.464   8.037
 1689POPC   C4B25198  36.592  22.249   7.745
 1690POPC   NC325199   5.697  31.972   9.502
 1690POPC   PO425200   5.887  32.667   9.490
 1690POPC   GL125201   5.670  32.458   9.102
 1690POPC   GL225202   5.846  32.167   9.045
 1690POPC   C1A25203   5.652  32.396   8.614
 1690POPC   D2A25204   5.802  32.659   8.292
 1690POPC   C3A25205   5.914  32.581   7.921
 1690POPC   C4A25206   5.690  32.457   7.618
 1690POPC   C1B25207   6.114  32.209   8.678
 1690POPC   C2B25208   5.956  32.156   8.251
 1690POPC   C3B25209   5.580  32.191   8.047
 1690POPC   C4B25210   5.622  31.976   7.635
 1691POPC   NC325211  41.626   5.743   9.585
 1691POPC   PO425212  41.224   6.262   9.456
 1691POPC   GL125213  41.509   5.997   9.140
 1691POPC   GL225214  41.494   5.606   9.101
 1691POPC   C1A25215  41.694   5.917   8.745
 1691POPC   D2A25216  41.487   5.590   8.495
 1691POPC   C3A25217  41.296   5.673   8.097
 1691POPC   C4A25218  41.419   5.781   7.685
 1691POPC   C1B25219  41.905   5.484   8.859
 1691POPC   C2B25220  42.019   5.654   8.450
 1691POPC   C3B25221  41.814   5.644   8.061
 1691POPC   C4B25222  41.801   5.453   7.649
 1692POPC   NC325223  37.833  27.200   9.327
 1692POPC   PO425224  37.478  27.734   9.561
 1692POPC   GL125225  37.658  27.643   9.169
 1692POPC   GL225226  37.982  27.682   9.140
 1692POPC   C1A25227  37.676  27.464   8.766
 1692POPC   D2A25228  37.603  27.613   8.397
 1692POPC   C3A25229  37.573  27.351   8.068
 1692POPC   C4A25230  37.573  27.531   7.667
 1692POPC   C1B25231  37.891  27.938   8.755
 1692POPC   C2B25232  37.965  27.960   8.347
 1692POPC   C3B25233  37.783  27.903   7.990
 1692POPC   C4B25234  38.045  27.722   7.704
 1693POPC   NC325235  37.164   3.798   9.503
 1693POPC   PO425236  36.517   3.440   9.434
 1693POPC   GL125237  36.679   3.336   9.022
 1693POPC   GL225238  36.962   3.498   9.131
 1693POPC   C1A25239  36.851   3.405   8.589
 1693POPC   D2A25240  36.938   3.771   8.323
 1693POPC   C3A25241  36.712   3.690   7.942
 1693POPC   C4A25242  36.868   3.343   7.685
 1693POPC   C1B25243  37.123   3.755   8.823
 1693POPC   C2B25244  37.363   3.455   8.555
 1693POPC   C3B25245  37.331   3.438   8.121
 1693POPC   C4B25246  37.204   3.728   7.856
 1694POPC   NC325247  40.498  27.518   9.452
 1694POPC   PO425248  40.951  27.908   9.740
 1694POPC   GL125249  40.960  27.761   9.255
 1694POPC   GL225250  40.852  27.387   9.107
 1694POPC   C1A25251  40.960  27.780   8.780
 1694POPC   D2A25252  40.927  27.399   8.491
 1694POPC   C3A25253  40.930  27.511   8.059
 1694POPC   C4A25254  40.951  27.908   7.838
 1694POPC   C1B25255  40.524  27.486   8.787
 1694POPC   C2B25256  40.448  27.630   8.367
 1694POPC   C3B25257  40.429  27.430   7.966
 1694POPC   C4B25258  40.624  27.573   7.607
 1695POPC   NC325259  41.229  44.622   9.397
 1695POPC   PO425260  41.861  44.908   9.473
 1695POPC   GL125261  41.597  44.905   9.165
 1695POPC   GL225262  41.595  44.564   9.033
 1695POPC   C1A25263  41.540  44.997   8.751
 1695POPC   D2A25264  41.475   0.130   8.356
 1695POPC   C3A25265  41.709  44.885   8.060
 1695POPC   C4A25266  41.481  44.787   7.730
 1695POPC   C1B25267  41.418  44.409   8.629
 1695POPC   C2B25268  41.476  44.384   8.155
 1695POPC   C3B25269  41.540  44.295   7.702
 1695POPC   C4B25270  41.502  44.119   7.292
 1696POPC   NC325271  33.201  32.785   9.681
 1696POPC   PO425272  33.062  33.449   9.533
 1696POPC   GL125273  33.095  33.303   9.110
 1696POPC   GL225274  33.257  32.974   9.213
 1696POPC   C1A25275  32.920  33.178   8.679
 1696POPC   D2A25276  33.053  32.846   8.362
 1696POPC   C3A25277  32.852  32.848   7.958
 1696POPC   C4A25278  32.565  33.169   7.852
 1696POPC   C1B25279  33.325  32.890   8.809
 1696POPC   C2B25280  33.412  33.234   8.510
 1696POPC   C3B25281  33.301  33.196   8.091
 1696POPC   C4B25282  33.379  32.780   7.921
 1697POPC   NC325283  29.260  33.769   9.579
 1697POPC   PO425284  28.611  33.729   9.513
 1697POPC   GL125285  28.862  33.972   9.239
 1697POPC   GL225286  29.072  33.704   9.120
 1697POPC   C1A25287  28.923  34.065   8.795
 1697POPC   D2A25288  29.262  34.028   8.511
 1697POPC   C3A25289  29.139  33.976   8.102
 1697POPC   C4A25290  28.799  33.898   7.816
 1697POPC   C1B25291  29.111  33.571   8.713
 1697POPC   C2B25292  29.055  33.339   8.340
 1697POPC   C3B25293  29.076  33.477   7.909
 1697POPC   C4B25294  29.382  33.769   7.704
 1698POPC   NC325295   0.931  31.034   9.577
 1698POPC   PO425296   1.387  30.570   9.758
 1698POPC   GL125297   1.242  30.694   9.324
 1698POPC   GL225298   1.394  30.448   9.119
 1698POPC   C1A25299   1.297  30.887   8.901
 1698POPC   D2A25300   1.106  30.929   8.499
 1698POPC   C3A25301   1.338  30.772   8.163
 1698POPC   C4A25302   1.195  30.875   7.768
 1698POPC   C1B25303   1.033  30.428   8.878
 1698POPC   C2B25304   0.875  30.342   8.464
 1698POPC   C3B25305   0.903  30.519   8.044
 1698POPC   C4B25306   1.205  30.390   7.667
 1699POPC   NC325307  24.750  31.471   9.381
 1699POPC   PO425308  24.092  31.821   9.453
 1699POPC   GL125309  24.409  31.736   9.147
 1699POPC   GL225310  24.311  31.509   8.904
 1699POPC   C1A25311  24.712  31.794   8.808
 1699POPC   D2A25312  24.550  31.635   8.406
 1699POPC   C3A25313  24.649  31.759   7.972
 1699POPC   C4A25314  24.486  31.600   7.581
 1699POPC   C1B25315  24.631  31.230   8.713
 1699POPC   C2B25316  24.586  31.009   8.323
 1699POPC   C3B25317  24.403  31.263   8.007
 1699POPC   C4B25318  24.190  31.180   7.633
 1700POPC   NC325319   0.726   2.797   9.429
 1700POPC   PO425320  44.967   2.693   9.429
 1700POPC   GL125321   0.259   2.565   9.034
 1700POPC   GL225322   0.643   2.569   9.000
 1700POPC   C1A25323   0.359   2.669   8.564
 1700POPC   D2A25324   0.491   3.034   8.257
 1700POPC   C3A25325   0.388   2.870   7.847
 1700POPC   C4A25326   0.289   2.440   7.810
 1700POPC   C1B25327   0.826   2.806   8.727
 1700POPC   C2B25328   0.891   2.701   8.327
 1700POPC   C3B25329   0.889   2.885   7.922
 1700POPC   C4B25330   0.850   2.596   7.583
 1701POPC   NC325331   5.440  16.943   9.549
 1701POPC   PO425332   5.120  16.332   9.510
 1701POPC   GL125333   5.277  16.543   9.153
 1701POPC   GL225334   5.166  16.859   9.129
 1701POPC   C1A25335   5.016  16.549   8.740
 1701POPC   D2A25336   5.035  16.202   8.444
 1701POPC   C3A25337   5.231  16.283   8.025
 1701POPC   C4A25338   5.180  16.619   7.726
 1701POPC   C1B25339   5.427  16.870   8.769
 1701POPC   C2B25340   5.385  16.685   8.368
 1701POPC   C3B25341   5.484  16.900   8.011
 1701POPC   C4B25342   5.380  17.093   7.654
 1702POPC   NC325343  39.315  44.277   9.592
 1702POPC   PO425344  39.262  44.959   9.514
 1702POPC   GL125345  39.339  44.667   9.175
 1702POPC   GL225346  39.085  44.404   9.171
 1702POPC   C1A25347  39.379  44.798   8.736
 1702POPC   D2A25348  39.538  44.885   8.313
 1702POPC   C3A25349  39.251  44.943   7.964
 1702POPC   C4A25350  39.069   0.096   7.552
 1702POPC   C1B25351  39.231  44.321   8.762
 1702POPC   C2B25352  39.187  44.497   8.355
 1702POPC   C3B25353  39.446  44.468   8.000
 1702POPC   C4B25354  39.084  44.516   7.736
 1703POPC   NC325355  19.169  26.232   9.428
 1703POPC   PO425356  19.579  25.675   9.457
 1703POPC   GL125357  19.284  25.853   9.097
 1703POPC   GL225358  19.308  26.139   8.924
 1703POPC   C1A25359  18.901  25.868   8.787
 1703POPC   D2A25360  18.934  25.754   8.366
 1703POPC   C3A25361  18.904  26.006   8.018
 1703POPC   C4A25362  19.147  25.944   7.646
 1703POPC   C1B25363  19.391  26.029   8.511
 1703POPC   C2B25364  19.418  26.050   8.056
 1703POPC   C3B25365  19.454  26.387   7.678
 1703POPC   C4B25366  19.301  26.214   7.257
 1704POPC   NC325367   2.896  21.030   9.681
 1704POPC   PO425368   2.684  21.662   9.597
 1704POPC   GL125369   2.821  21.539   9.203
 1704POPC   GL225370   2.793  21.877   9.134
 1704POPC   C1A25371   3.023  21.451   8.800
 1704POPC   D2A25372   3.088  21.158   8.441
 1704POPC   C3A25373   2.919  21.248   8.058
 1704POPC   C4A25374   2.690  21.034   7.743
 1704POPC   C1B25375   2.593  21.768   8.775
 1704POPC   C2B25376   2.685  21.579   8.398
 1704POPC   C3B25377   2.623  21.679   7.988
 1704POPC   C4B25378   2.928  21.590   7.674
 1705POPC   NC325379  26.457  27.217   9.392
 1705POPC   PO425380  26.706  26.760   9.784
 1705POPC   GL125381  26.855  26.762   9.318
 1705POPC   GL225382  27.117  26.499   9.192
 1705POPC   C1A25383  26.829  26.982   8.900
 1705POPC   D2A25384  26.741  27.067   8.456
 1705POPC   C3A25385  27.002  27.011   8.056
 1705POPC   C4A25386  27.026  26.826   7.657
 1705POPC   C1B25387  26.884  26.492   8.813
 1705POPC   C2B25388  26.689  26.508   8.430
 1705POPC   C3B25389  26.804  26.494   8.016
 1705POPC   C4B25390  26.967  26.301   7.674
 1706POPC   NC325391  19.902   3.881   9.730
 1706POPC   PO425392  19.869   4.455   9.453
 1706POPC   GL125393  19.794   4.293   9.085
 1706POPC   GL225394  19.493   4.136   9.150
 1706POPC   C1A25395  20.032   4.232   8.707
 1706POPC   D2A25396  20.102   4.460   8.329
 1706POPC   C3A25397  20.052   4.301   7.931
 1706POPC   C4A25398  19.788   4.421   7.582
 1706POPC   C1B25399  19.555   4.019   8.719
 1706POPC   C2B25400  19.631   4.280   8.375
 1706POPC   C3B25401  19.560   4.158   7.987
 1706POPC   C4B25402  19.499   3.876   7.652
 1707POPC   NC325403  28.500  16.391   9.549
 1707POPC   PO425404  28.147  16.897   9.362
 1707POPC   GL125405  28.336  16.608   9.114
 1707POPC   GL225406  28.124  16.324   9.130
 1707POPC   C1A25407  28.425  16.472   8.709
 1707POPC   D2A25408  28.606  16.744   8.403
 1707POPC   C3A25409  28.441  16.565   8.057
 1707POPC   C4A25410  28.465  16.698   7.677
 1707POPC   C1B25411  27.901  16.351   8.722
 1707POPC   C2B25412  27.997  16.341   8.261
 1707POPC   C3B25413  27.951  16.504   7.812
 1707POPC   C4B25414  28.106  16.529   7.356
 1708POPC   NC325415   5.337  12.415   9.225
 1708POPC   PO425416   5.100  11.899   9.661
 1708POPC   GL125417   4.887  12.072   9.240
 1708POPC   GL225418   4.843  12.392   9.044
 1708POPC   C1A25419   4.822  11.963   8.790
 1708POPC   D2A25420   4.730  12.030   8.396
 1708POPC   C3A25421   5.029  11.975   8.111
 1708POPC   C4A25422   4.864  12.016   7.725
 1708POPC   C1B25423   5.089  12.361   8.613
 1708POPC   C2B25424   5.398  12.301   8.270
 1708POPC   C3B25425   5.391  12.520   7.870
 1708POPC   C4B25426   5.110  12.467   7.553
 1709POPC   NC325427  33.385  27.730   9.529
 1709POPC   PO425428  34.069  27.879   9.314
 1709POPC   GL125429  33.661  27.863   9.122
 1709POPC   GL225430  33.578  27.516   9.088
 1709POPC   C1A25431  33.714  27.886   8.704
 1709POPC   D2A25432  33.494  27.694   8.401
 1709POPC   C3A25433  33.476  27.847   7.978
 1709POPC   C4A25434  33.717  27.750   7.603
 1709POPC   C1B25435  33.941  27.432   8.816
 1709POPC   C2B25436  33.995  27.307   8.387
 1709POPC   C3B25437  33.773  27.439   8.017
 1709POPC   C4B25438  34.002  27.340   7.644
 1710POPC   NC325439  28.370   0.773   9.669
 1710POPC   PO425440  28.055   1.379   9.502
 1710POPC   GL125441  28.259   1.259   9.126
 1710POPC   GL225442  28.481   1.528   9.134
 1710POPC   C1A25443  28.408   1.078   8.714
 1710POPC   D2A25444  28.300   0.818   8.335
 1710POPC   C3A25445  28.383   1.027   7.973
 1710POPC   C4A25446  28.288   0.938   7.556
 1710POPC   C1B25447  28.325   1.579   8.714
 1710POPC   C2B25448  28.536   1.447   8.352
 1710POPC   C3B25449  28.601   1.516   7.944
 1710POPC   C4B25450  28.327   1.470   7.639
 1711POPC   NC325451  22.657  27.361   9.242
 1711POPC   PO425452  23.081  26.891   9.405
 1711POPC   GL125453  22.914  26.909   9.053
 1711POPC   GL225454  23.051  27.186   8.983
 1711POPC   C1A25455  22.957  26.701   8.673
 1711POPC   D2A25456  22.976  26.486   8.300
 1711POPC   C3A25457  22.725  26.543   7.934
 1711POPC   C4A25458  22.454  26.305   7.693
 1711POPC   C1B25459  22.832  27.218   8.629
 1711POPC   C2B25460  23.114  27.080   8.372
 1711POPC   C3B25461  23.205  27.075   7.997
 1711POPC   C4B25462  22.855  27.005   7.771
 1712POPC   NC325463  20.783  34.372   9.564
 1712POPC   PO425464  20.254  34.795   9.383
 1712POPC   GL125465  20.507  34.471   9.122
 1712POPC   GL225466  20.841  34.412   9.072
 1712POPC   C1A25467  20.400  34.331   8.706
 1712POPC   D2A25468  20.551  34.387   8.298
 1712POPC   C3A25469  20.321  34.420   7.941
 1712POPC   C4A25470  20.488  34.677   7.636
 1712POPC   C1B25471  20.942  34.501   8.690
 1712POPC   C2B25472  20.876  34.772   8.347
 1712POPC   C3B25473  20.900  34.611   7.939
 1712POPC   C4B25474  20.980  34.752   7.528
 1713POPC   NC325475  40.066  37.904   9.666
 1713POPC   PO425476  39.673  37.396   9.479
 1713POPC   GL125477  39.746  37.542   9.088
 1713POPC   GL225478  39.958  37.816   9.182
 1713POPC   C1A25479  39.963  37.502   8.709
 1713POPC   D2A25480  39.820  37.371   8.310
 1713POPC   C3A25481  40.084  37.457   7.973
 1713POPC   C4A25482  40.105  37.287   7.532
 1713POPC   C1B25483  40.119  37.963   8.828
 1713POPC   C2B25484  39.849  37.941   8.422
 1713POPC   C3B25485  39.705  37.795   7.992
 1713POPC   C4B25486  39.955  37.773   7.592
 1714POPC   NC325487   5.201  33.531   9.482
 1714POPC   PO425488   4.682  33.849   9.394
 1714POPC   GL125489   5.036  33.796   9.088
 1714POPC   GL225490   5.261  34.060   8.964
 1714POPC   C1A25491   5.265  33.444   8.839
 1714POPC   D2A25492   5.334  33.420   8.370
 1714POPC   C3A25493   5.108  33.633   8.044
 1714POPC   C4A25494   5.238  33.877   7.669
 1714POPC   C1B25495   5.077  33.835   8.588
 1714POPC   C2B25496   4.733  33.925   8.343
 1714POPC   C3B25497   4.766  33.994   7.923
 1714POPC   C4B25498   4.771  33.792   7.522
 1715POPC   NC325499  36.948  35.508   9.743
 1715POPC   PO425500  37.165  34.934   9.511
 1715POPC   GL125501  36.939  35.170   9.196
 1715POPC   GL225502  36.962  35.520   9.218
 1715POPC   C1A25503  36.947  35.350   8.738
 1715POPC   D2A25504  36.709  35.144   8.384
 1715POPC   C3A25505  36.901  35.051   7.989
 1715POPC   C4A25506  36.852  35.275   7.615
 1715POPC   C1B25507  37.273  35.727   8.923
 1715POPC   C2B25508  37.316  35.714   8.475
 1715POPC   C3B25509  37.202  35.490   8.095
 1715POPC   C4B25510  37.293  35.582   7.679
 1716POPC   NC325511  22.811   0.731   9.568
 1716POPC   PO425512  23.179   1.285   9.556
 1716POPC   GL125513  22.939   1.175   9.219
 1716POPC   GL225514  23.123   0.868   9.195
 1716POPC   C1A25515  23.012   1.321   8.784
 1716POPC   D2A25516  23.132   1.528   8.385
 1716POPC   C3A25517  23.068   1.294   8.007
 1716POPC   C4A25518  22.698   1.351   7.754
 1716POPC   C1B25519  22.821   0.824   8.871
 1716POPC   C2B25520  22.895   0.936   8.460
 1716POPC   C3B25521  22.696   0.925   8.090
 1716POPC   C4B25522  22.880   0.871   7.707
 1717POPC   NC325523  16.108  27.359   9.479
 1717POPC   PO425524  15.899  27.943   9.450
 1717POPC   GL125525  15.855  27.650   9.149
 1717POPC   GL225526  15.542  27.498   9.098
 1717POPC   C1A25527  16.094  27.712   8.784
 1717POPC   D2A25528  16.333  27.603   8.448
 1717POPC   C3A25529  16.128  27.645   8.071
 1717POPC   C4A25530  16.239  27.720   7.657
 1717POPC   C1B25531  15.690  27.397   8.739
 1717POPC   C2B25532  15.853  27.314   8.375
 1717POPC   C3B25533  15.718  27.369   8.004
 1717POPC   C4B25534  15.765  27.583   7.656
 1718POPC   NC325535  19.561  44.958   9.772
 1718POPC   PO425536  19.720  44.312   9.560
 1718POPC   GL125537  19.805  44.689   9.286
 1718POPC   GL225538  19.539  44.987   9.260
 1718POPC   C1A25539  19.932  44.576   8.857
 1718POPC   D2A25540  19.718  44.513   8.455
 1718POPC   C3A25541  19.974  44.560   8.111
 1718POPC   C4A25542  20.027  44.728   7.723
 1718POPC   C1B25543  19.508  44.860   8.829
 1718POPC   C2B25544  19.517  44.999   8.402
 1718POPC   C3B25545  19.545  44.801   7.993
 1718POPC   C4B25546  19.585  44.445   7.729
 1719POPC   NC325547  34.837  36.214   9.486
 1719POPC   PO425548  34.165  35.954   9.396
 1719POPC   GL125549  34.476  36.152   9.132
 1719POPC   GL225550  34.745  35.868   9.118
 1719POPC   C1A25551  34.734  36.329   8.802
 1719POPC   D2A25552  34.617  36.223   8.373
 1719POPC   C3A25553  34.741  36.361   7.966
 1719POPC   C4A25554  34.736  36.288   7.512
 1719POPC   C1B25555  34.675  35.814   8.682
 1719POPC   C2B25556  34.906  35.769   8.298
 1719POPC   C3B25557  34.849  35.836   7.867
 1719POPC   C4B25558  34.446  35.960   7.782
 1720POPC   NC325559  25.205  18.510   9.590
 1720POPC   PO425560  24.827  17.933   9.572
 1720POPC   GL125561  25.093  18.083   9.199
 1720POPC   GL225562  25.024  18.440   9.124
 1720POPC   C1A25563  25.323  18.230   8.785
 1720POPC   D2A25564  25.158  18.263   8.338
 1720POPC   C3A25565  25.382  18.259   7.966
 1720POPC   C4A25566  25.523  18.591   7.686
 1720POPC   C1B25567  24.839  18.438   8.703
 1720POPC   C2B25568  24.870  18.682   8.293
 1720POPC   C3B25569  25.022  18.592   7.859
 1720POPC   C4B25570  25.127  18.847   7.488
 1721POPC   NC325571  30.911  44.940   9.829
 1721POPC   PO425572  30.538   0.482   9.508
 1721POPC   GL125573  30.565   0.113   9.206
 1721POPC   GL225574  30.236  44.957   9.136
 1721POPC   C1A25575  30.809   0.183   8.807
 1721POPC   D2A25576  30.783   0.405   8.406
 1721POPC   C3A25577  30.800   0.283   7.955
 1721POPC   C4A25578  30.825   0.655   7.689
 1721POPC   C1B25579  30.301   0.199   8.751
 1721POPC   C2B25580  30.273   0.394   8.346
 1721POPC   C3B25581  30.362   0.551   7.939
 1721POPC   C4B25582  30.373   0.431   7.513
 1722POPC   NC325583  37.396  41.256   9.590
 1722POPC   PO425584  37.777  41.728   9.573
 1722POPC   GL125585  37.745  41.455   9.196
 1722POPC   GL225586  37.995  41.158   9.167
 1722POPC   C1A25587  37.656  41.634   8.768
 1722POPC   D2A25588  37.456  41.817   8.399
 1722POPC   C3A25589  37.674  41.708   8.073
 1722POPC   C4A25590  37.474  41.554   7.734
 1722POPC   C1B25591  37.781  41.130   8.796
 1722POPC   C2B25592  37.590  41.240   8.412
 1722POPC   C3B25593  37.718  41.177   8.002
 1722POPC   C4B25594  37.961  41.402   7.709
 1723POPC   NC325595  41.395  39.821   9.672
 1723POPC   PO425596  41.866  40.272   9.599
 1723POPC   GL125597  41.769  40.002   9.254
 1723POPC   GL225598  41.422  39.992   9.201
 1723POPC   C1A25599  41.722  40.073   8.812
 1723POPC   D2A25600  41.539  40.212   8.449
 1723POPC   C3A25601  41.803  40.067   8.113
 1723POPC   C4A25602  41.716  40.078   7.679
 1723POPC   C1B25603  41.296  39.775   8.838
 1723POPC   C2B25604  41.125  39.848   8.423
 1723POPC   C3B25605  41.317  39.971   8.055
 1723POPC   C4B25606  41.249  39.844   7.673
 1724POPC   NC325607  27.745  40.729   9.399
 1724POPC   PO425608  27.062  41.054   9.521
 1724POPC   GL125609  27.283  40.840   9.182
 1724POPC   GL225610  27.449  41.170   9.197
 1724POPC   C1A25611  27.559  40.686   8.796
 1724POPC   D2A25612  27.407  40.589   8.385
 1724POPC   C3A25613  27.587  40.367   8.064
 1724POPC   C4A25614  27.718  40.582   7.681
 1724POPC   C1B25615  27.336  41.197   8.802
 1724POPC   C2B25616  27.571  41.078   8.456
 1724POPC   C3B25617  27.598  40.933   8.053
 1724POPC   C4B25618  27.305  40.929   7.730
 1725POPC   NC325619  33.100  37.485   9.351
 1725POPC   PO425620  32.689  38.025   9.511
 1725POPC   GL125621  32.908  37.915   9.163
 1725POPC   GL225622  32.660  37.652   9.109
 1725POPC   C1A25623  33.213  37.999   8.824
 1725POPC   D2A25624  33.274  37.824   8.380
 1725POPC   C3A25625  33.164  37.907   7.962
 1725POPC   C4A25626  33.209  37.520   7.733
 1725POPC   C1B25627  32.834  37.666   8.715
 1725POPC   C2B25628  32.663  37.745   8.349
 1725POPC   C3B25629  32.758  37.585   7.985
 1725POPC   C4B25630  32.770  37.785   7.617
 1726POPC   NC325631  42.758  17.118   9.537
 1726POPC   PO425632  42.180  17.265   9.578
 1726POPC   GL125633  42.242  17.400   9.131
 1726POPC   GL225634  42.629  17.402   9.109
 1726POPC   C1A25635  42.017  17.540   8.714
 1726POPC   D2A25636  41.958  17.810   8.312
 1726POPC   C3A25637  41.975  17.585   7.908
 1726POPC   C4A25638  42.097  17.501   7.452
 1726POPC   C1B25639  42.525  17.524   8.669
 1726POPC   C2B25640  42.358  17.453   8.241
 1726POPC   C3B25641  42.479  17.452   7.790
 1726POPC   C4B25642  42.594  17.552   7.354
 1727POPC   NC325643  44.304  21.078   9.279
 1727POPC   PO425644  44.590  20.548   9.602
 1727POPC   GL125645  44.753  20.550   9.172
 1727POPC   GL225646  44.474  20.648   9.042
 1727POPC   C1A25647  44.807  20.364   8.761
 1727POPC   D2A25648  44.797  20.583   8.384
 1727POPC   C3A25649  44.832  20.435   8.010
 1727POPC   C4A25650  44.624  20.545   7.687
 1727POPC   C1B25651  44.585  20.911   8.699
 1727POPC   C2B25652  44.371  20.875   8.337
 1727POPC   C3B25653  44.224  20.727   7.970
 1727POPC   C4B25654  44.276  20.909   7.571
 1728POPC   NC325655  35.617  25.078   9.387
 1728POPC   PO425656  34.905  25.144   9.359
 1728POPC   GL125657  35.215  25.157   9.064
 1728POPC   GL225658  35.355  25.473   9.153
 1728POPC   C1A25659  35.325  25.305   8.640
 1728POPC   D2A25660  35.266  25.409   8.195
 1728POPC   C3A25661  35.468  25.120   7.911
 1728POPC   C4A25662  35.299  24.990   7.580
 1728POPC   C1B25663  35.500  25.789   8.837
 1728POPC   C2B25664  35.643  25.752   8.455
 1728POPC   C3B25665  35.644  25.789   8.067
 1728POPC   C4B25666  35.480  25.578   7.705
 1729POPC   NC325667  10.429  19.916   9.739
 1729POPC   PO425668  10.291  19.315   9.651
 1729POPC   GL125669  10.413  19.594   9.276
 1729POPC   GL225670  10.457  19.970   9.225
 1729POPC   C1A25671  10.222  19.742   8.864
 1729POPC   D2A25672  10.105  20.078   8.556
 1729POPC   C3A25673  10.334  20.058   8.163
 1729POPC   C4A25674  10.266  19.787   7.782
 1729POPC   C1B25675  10.637  20.055   8.795
 1729POPC   C2B25676  10.821  20.118   8.377
 1729POPC   C3B25677  10.761  20.243   7.941
 1729POPC   C4B25678  10.548  20.158   7.538
 1730POPC   NC325679  44.989  16.196   9.400
 1730POPC   PO425680   0.493  15.797   9.574
 1730POPC   GL125681   0.469  15.686   9.169
 1730POPC   GL225682   0.147  15.736   9.172
 1730POPC   C1A25683   0.468  15.540   8.744
 1730POPC   D2A25684   0.455  15.805   8.370
 1730POPC   C3A25685   0.427  15.620   7.982
 1730POPC   C4A25686   0.426  15.808   7.607
 1730POPC   C1B25687   0.221  15.972   8.789
 1730POPC   C2B25688   0.057  16.151   8.403
 1730POPC   C3B25689   0.198  16.092   7.993
 1730POPC   C4B25690   0.002  16.166   7.584
 1731POPC   NC325691  30.828  18.504   9.530
 1731POPC   PO425692  30.827  17.902   9.311
 1731POPC   GL125693  30.933  18.235   9.037
 1731POPC   GL225694  30.874  18.620   9.003
 1731POPC   C1A25695  30.892  18.298   8.597
 1731POPC   D2A25696  30.616  18.524   8.333
 1731POPC   C3A25697  30.633  18.293   7.946
 1731POPC   C4A25698  30.444  17.920   7.736
 1731POPC   C1B25699  31.031  18.794   8.551
 1731POPC   C2B25700  31.082  18.582   8.127
 1731POPC   C3B25701  31.177  18.522   7.672
 1731POPC   C4B25702  30.903  18.559   7.275
 1732POPC   NC325703  24.034   5.751   9.597
 1732POPC   PO425704  23.540   6.137   9.549
 1732POPC   GL125705  23.680   5.863   9.229
 1732POPC   GL225706  23.960   6.056   9.180
 1732POPC   C1A25707  23.727   5.605   8.841
 1732POPC   D2A25708  23.918   5.742   8.429
 1732POPC   C3A25709  23.690   5.669   8.052
 1732POPC   C4A25710  23.917   5.805   7.719
 1732POPC   C1B25711  23.768   6.101   8.785
 1732POPC   C2B25712  23.634   6.382   8.514
 1732POPC   C3B25713  23.757   6.186   8.134
 1732POPC   C4B25714  23.573   6.190   7.765
 1733POPC   NC325715   8.420   9.078   9.447
 1733POPC   PO425716   7.787   8.807   9.539
 1733POPC   GL125717   7.968   8.966   9.144
 1733POPC   GL225718   8.291   8.826   9.039
 1733POPC   C1A25719   8.051   9.143   8.716
 1733POPC   D2A25720   8.340   9.213   8.334
 1733POPC   C3A25721   8.162   9.110   7.948
 1733POPC   C4A25722   8.014   8.718   7.792
 1733POPC   C1B25723   8.538   8.975   8.725
 1733POPC   C2B25724   8.740   8.808   8.394
 1733POPC   C3B25725   8.624   8.886   8.015
 1733POPC   C4B25726   8.492   8.708   7.664
 1734POPC   NC325727  21.746  44.800   9.500
 1734POPC   PO425728  22.410  44.545   9.623
 1734POPC   GL125729  22.288  44.743   9.225
 1734POPC   GL225730  21.951  44.748   9.042
 1734POPC   C1A25731  22.443  44.774   8.810
 1734POPC   D2A25732  22.461  44.591   8.416
 1734POPC   C3A25733  22.472  44.802   8.013
 1734POPC   C4A25734  22.374  44.723   7.583
 1734POPC   C1B25735  22.095  44.382   8.810
 1734POPC   C2B25736  22.059  44.295   8.375
 1734POPC   C3B25737  22.020  44.590   8.036
 1734POPC   C4B25738  21.862  44.682   7.636
 1735POPC   NC325739  17.180  34.562   9.465
 1735POPC   PO425740  16.510  34.226   9.423
 1735POPC   GL125741  16.810  34.337   9.157
 1735POPC   GL225742  16.760  34.690   9.142
 1735POPC   C1A25743  16.878  34.333   8.726
 1735POPC   D2A25744  16.943  34.498   8.324
 1735POPC   C3A25745  16.591  34.555   8.061
 1735POPC   C4A25746  16.380  34.220   7.876
 1735POPC   C1B25747  16.754  34.842   8.712
 1735POPC   C2B25748  16.821  34.998   8.284
 1735POPC   C3B25749  16.887  34.960   7.828
 1735POPC   C4B25750  16.750  34.856   7.381
 1736POPC   NC325751  31.581  11.560   9.491
 1736POPC   PO425752  31.235  10.913   9.505
 1736POPC   GL125753  31.405  11.060   9.109
 1736POPC   GL225754  31.614  11.363   9.039
 1736POPC   C1A25755  31.239  11.182   8.698
 1736POPC   D2A25756  31.190  11.502   8.352
 1736POPC   C3A25757  31.230  11.285   7.981
 1736POPC   C4A25758  31.330  11.528   7.632
 1736POPC   C1B25759  31.755  11.180   8.681
 1736POPC   C2B25760  31.661  11.308   8.256
 1736POPC   C3B25761  31.759  11.294   7.801
 1736POPC   C4B25762  31.723  11.054   7.405
 1737POPC   NC325763  22.501  16.578   9.720
 1737POPC   PO425764  21.882  16.628   9.451
 1737POPC   GL125765  22.032  16.566   9.084
 1737POPC   GL225766  22.369  16.545   9.209
 1737POPC   C1A25767  21.951  16.583   8.671
 1737POPC   D2A25768  22.041  16.276   8.375
 1737POPC   C3A25769  21.953  16.463   8.009
 1737POPC   C4A25770  21.936  16.678   7.666
 1737POPC   C1B25771  22.432  16.729   8.782
 1737POPC   C2B25772  22.289  16.735   8.315
 1737POPC   C3B25773  22.412  16.771   7.864
 1737POPC   C4B25774  22.445  16.765   7.378
 1738POPC   NC325775  13.093   5.538   9.419
 1738POPC   PO425776  12.711   6.120   9.636
 1738POPC   GL125777  12.961   6.066   9.200
 1738POPC   GL225778  12.893   5.814   8.962
 1738POPC   C1A25779  12.994   6.266   8.771
 1738POPC   D2A25780  12.794   6.029   8.455
 1738POPC   C3A25781  12.949   5.831   8.068
 1738POPC   C4A25782  12.765   5.854   7.673
 1738POPC   C1B25783  13.043   5.479   8.728
 1738POPC   C2B25784  13.214   5.478   8.355
 1738POPC   C3B25785  13.100   5.347   7.956
 1738POPC   C4B25786  13.096   5.429   7.527
 1739POPC   NC325787  31.718  20.084   9.418
 1739POPC   PO425788  31.201  19.615   9.472
 1739POPC   GL125789  31.327  19.771   9.064
 1739POPC   GL225790  31.412  20.132   9.042
 1739POPC   C1A25791  31.389  19.826   8.616
 1739POPC   D2A25792  31.728  19.575   8.417
 1739POPC   C3A25793  31.704  19.543   7.968
 1739POPC   C4A25794  31.322  19.643   7.779
 1739POPC   C1B25795  31.387  20.361   8.692
 1739POPC   C2B25796  31.378  20.380   8.280
 1739POPC   C3B25797  31.370  20.158   7.934
 1739POPC   C4B25798  31.705  20.010   7.713
 1740POPC   NC325799  30.516  30.462   9.434
 1740POPC   PO425800  30.170  31.081   9.316
 1740POPC   GL125801  30.455  30.822   9.090
 1740POPC   GL225802  30.823  30.797   9.188
 1740POPC   C1A25803  30.579  30.653   8.722
 1740POPC   D2A25804  30.575  30.891   8.400
 1740POPC   C3A25805  30.490  30.701   8.061
 1740POPC   C4A25806  30.444  30.806   7.658
 1740POPC   C1B25807  31.100  30.639   8.866
 1740POPC   C2B25808  31.064  30.694   8.463
 1740POPC   C3B25809  31.142  30.717   8.072
 1740POPC   C4B25810  30.898  30.585   7.747
 1741POPC   NC325811  31.228  14.661   9.396
 1741POPC   PO425812  31.575  14.170   9.682
 1741POPC   GL125813  31.511  14.281   9.221
 1741POPC   GL225814  31.186  14.276   9.064
 1741POPC   C1A25815  31.591  14.433   8.784
 1741POPC   D2A25816  31.761  14.594   8.403
 1741POPC   C3A25817  31.546  14.713   8.042
 1741POPC   C4A25818  31.455  14.442   7.705
 1741POPC   C1B25819  31.077  14.163   8.677
 1741POPC   C2B25820  31.245  14.429   8.376
 1741POPC   C3B25821  31.070  14.534   8.014
 1741POPC   C4B25822  30.881  14.225   7.771
 1742POPC   NC325823  15.753  29.393   9.489
 1742POPC   PO425824  16.011  30.007   9.560
 1742POPC   GL125825  16.024  29.989   9.135
 1742POPC   GL225826  16.100  29.621   9.151
 1742POPC   C1A25827  16.141  30.233   8.771
 1742POPC   D2A25828  15.922  30.366   8.398
 1742POPC   C3A25829  15.970  30.172   8.004
 1742POPC   C4A25830  16.040  29.986   7.617
 1742POPC   C1B25831  16.150  29.725   8.715
 1742POPC   C2B25832  16.287  29.985   8.360
 1742POPC   C3B25833  16.438  29.906   7.955
 1742POPC   C4B25834  16.442  29.673   7.569
 1743POPC   NC325835  35.731   7.717   9.735
 1743POPC   PO425836  35.268   8.225   9.536
 1743POPC   GL125837  35.216   8.220   9.134
 1743POPC   GL225838  35.560   8.242   9.075
 1743POPC   C1A25839  35.221   8.349   8.702
 1743POPC   D2A25840  34.956   8.516   8.370
 1743POPC   C3A25841  35.188   8.282   8.070
 1743POPC   C4A25842  35.546   8.444   7.875
 1743POPC   C1B25843  35.667   8.009   8.721
 1743POPC   C2B25844  35.631   8.161   8.322
 1743POPC   C3B25845  35.569   7.951   7.959
 1743POPC   C4B25846  35.608   8.066   7.543
 1744POPC   NC325847  16.279   9.034   9.407
 1744POPC   PO425848  15.655   9.288   9.505
 1744POPC   GL125849  15.845   9.149   9.142
 1744POPC   GL225850  15.641   8.940   8.955
 1744POPC   C1A25851  16.095   9.125   8.763
 1744POPC   D2A25852  15.911   9.023   8.364
 1744POPC   C3A25853  16.062   9.086   7.948
 1744POPC   C4A25854  16.043   9.375   7.573
 1744POPC   C1B25855  15.866   8.626   8.713
 1744POPC   C2B25856  15.993   8.516   8.312
 1744POPC   C3B25857  15.814   8.623   7.942
 1744POPC   C4B25858  15.755   8.926   7.581
 1745POPC   NC325859  25.622  44.259   9.446
 1745POPC   PO425860  25.001  43.913   9.484
 1745POPC   GL125861  25.028  43.719   9.075
 1745POPC   GL225862  25.338  43.867   9.065
 1745POPC   C1A25863  25.166  43.607   8.651
 1745POPC   D2A25864  25.005  43.842   8.312
 1745POPC   C3A25865  25.228  43.871   7.921
 1745POPC   C4A25866  25.487  43.633   7.670
 1745POPC   C1B25867  25.269  44.122   8.679
 1745POPC   C2B25868  25.088  44.340   8.317
 1745POPC   C3B25869  24.984  44.314   7.899
 1745POPC   C4B25870  25.377  44.310   7.636
 1746POPC   NC325871  40.600   1.370   9.601
 1746POPC   PO425872  41.048   1.001   9.278
 1746POPC   GL125873  40.875   1.333   9.055
 1746POPC   GL225874  40.526   1.414   9.099
 1746POPC   C1A25875  40.953   1.291   8.619
 1746POPC   D2A25876  40.933   0.995   8.272
 1746POPC   C3A25877  40.976   1.252   7.935
 1746POPC   C4A25878  41.100   1.347   7.527
 1746POPC   C1B25879  40.454   1.217   8.687
 1746POPC   C2B25880  40.519   1.304   8.265
 1746POPC   C3B25881  40.453   1.194   7.846
 1746POPC   C4B25882  40.316   1.374   7.432
 1747POPC   NC325883  18.627  13.546   9.296
 1747POPC   PO425884  18.996  13.992   9.544
 1747POPC   GL125885  19.205  13.912   9.143
 1747POPC   GL225886  19.113  13.547   9.152
 1747POPC   C1A25887  19.295  13.762   8.727
 1747POPC   D2A25888  19.079  13.690   8.346
 1747POPC   C3A25889  19.282  13.872   8.063
 1747POPC   C4A25890  19.307  13.771   7.670
 1747POPC   C1B25891  18.906  13.429   8.742
 1747POPC   C2B25892  18.748  13.288   8.346
 1747POPC   C3B25893  18.677  13.426   7.951
 1747POPC   C4B25894  18.826  13.814   7.830
 1748POPC   NC325895  34.769  15.388   9.603
 1748POPC   PO425896  34.405  16.013   9.425
 1748POPC   GL125897  34.445  15.726   9.102
 1748POPC   GL225898  34.771  15.647   9.168
 1748POPC   C1A25899  34.312  15.666   8.676
 1748POPC   D2A25900  34.390  15.889   8.303
 1748POPC   C3A25901  34.282  15.869   7.884
 1748POPC   C4A25902  34.616  16.118   7.711
 1748POPC   C1B25903  34.816  15.535   8.752
 1748POPC   C2B25904  34.870  15.644   8.340
 1748POPC   C3B25905  34.737  15.629   7.921
 1748POPC   C4B25906  34.962  15.730   7.545
 1749POPC   NC325907  28.669  29.188   9.326
 1749POPC   PO425908  29.296  29.085   9.587
 1749POPC   GL125909  29.041  28.857   9.256
 1749POPC   GL225910  29.123  29.141   9.059
 1749POPC   C1A25911  28.823  28.839   8.803
 1749POPC   D2A25912  28.951  29.123   8.533
 1749POPC   C3A25913  28.932  29.052   8.098
 1749POPC   C4A25914  28.935  28.776   7.750
 1749POPC   C1B25915  29.323  29.449   8.771
 1749POPC   C2B25916  29.467  29.609   8.353
 1749POPC   C3B25917  29.353  29.442   7.934
 1749POPC   C4B25918  29.064  29.279   7.618
 1750POPC   NC325919  22.110   8.383   9.391
 1750POPC   PO425920  21.387   8.313   9.565
 1750POPC   GL125921  21.516   8.172   9.175
 1750POPC   GL225922  21.715   8.438   9.068
 1750POPC   C1A25923  21.438   8.136   8.735
 1750POPC   D2A25924  21.397   8.478   8.436
 1750POPC   C3A25925  21.174   8.381   8.059
 1750POPC   C4A25926  21.276   8.477   7.633
 1750POPC   C1B25927  21.959   8.470   8.689
 1750POPC   C2B25928  21.902   8.523   8.270
 1750POPC   C3B25929  21.678   8.418   7.913
 1750POPC   C4B25930  21.853   8.252   7.493
 1751POPC   NC325931   4.170  14.865   9.827
 1751POPC   PO425932   4.675  14.494   9.405
 1751POPC   GL125933   4.514  14.487   9.019
 1751POPC   GL225934   4.188  14.450   9.119
 1751POPC   C1A25935   4.380  14.499   8.580
 1751POPC   D2A25936   4.542  14.782   8.238
 1751POPC   C3A25937   4.562  14.591   7.818
 1751POPC   C4A25938   4.511  14.126   7.740
 1751POPC   C1B25939   4.151  14.107   8.852
 1751POPC   C2B25940   3.904  14.150   8.492
 1751POPC   C3B25941   4.151  14.207   8.139
 1751POPC   C4B25942   4.068  14.418   7.774
 1752POPC   NC325943  22.487   6.549   9.549
 1752POPC   PO425944  21.836   6.534   9.488
 1752POPC   GL125945  22.175   6.470   9.147
 1752POPC   GL225946  22.396   6.171   9.203
 1752POPC   C1A25947  22.270   6.638   8.696
 1752POPC   D2A25948  22.208   7.056   8.455
 1752POPC   C3A25949  21.970   7.022   8.078
 1752POPC   C4A25950  22.157   6.868   7.747
 1752POPC   C1B25951  22.445   6.144   8.785
 1752POPC   C2B25952  22.608   6.270   8.398
 1752POPC   C3B25953  22.754   6.248   7.993
 1752POPC   C4B25954  22.403   6.298   7.711
 1753POPC   NC325955  40.130  39.639   9.493
 1753POPC   PO425956  39.725  39.045   9.393
 1753POPC   GL125957  39.984  39.248   9.131
 1753POPC   GL225958  40.320  39.184   9.232
 1753POPC   C1A25959  39.968  39.414   8.700
 1753POPC   D2A25960  40.083  39.234   8.306
 1753POPC   C3A25961  39.917  39.419   7.940
 1753POPC   C4A25962  39.917  39.123   7.578
 1753POPC   C1B25963  40.428  39.447   8.906
 1753POPC   C2B25964  40.414  39.581   8.490
 1753POPC   C3B25965  40.437  39.498   8.048
 1753POPC   C4B25966  40.313  39.427   7.627
 1754POPC   NC325967  43.614   0.914   9.390
 1754POPC   PO425968  44.105   0.395   9.587
 1754POPC   GL125969  43.961   0.490   9.190
 1754POPC   GL225970  43.933   0.165   9.093
 1754POPC   C1A25971  44.202   0.456   8.788
 1754POPC   D2A25972  44.078   0.234   8.446
 1754POPC   C3A25973  44.147   0.520   8.181
 1754POPC   C4A25974  44.293   0.531   7.834
 1754POPC   C1B25975  43.705   0.450   8.753
 1754POPC   C2B25976  43.443   0.575   8.442
 1754POPC   C3B25977  43.645   0.374   8.100
 1754POPC   C4B25978  43.935   0.138   7.844
 1755POPC   NC325979  28.174  38.341   9.523
 1755POPC   PO425980  28.669  38.659   9.248
 1755POPC   GL125981  28.417  38.420   9.074
 1755POPC   GL225982  28.156  38.677   9.130
 1755POPC   C1A25983  28.556  38.329   8.664
 1755POPC   D2A25984  28.746  38.332   8.253
 1755POPC   C3A25985  28.497  38.445   7.870
 1755POPC   C4A25986  28.422  38.218   7.475
 1755POPC   C1B25987  28.076  38.490   8.721
 1755POPC   C2B25988  28.237  38.529   8.305
 1755POPC   C3B25989  27.999  38.447   7.931
 1755POPC   C4B25990  27.991  38.496   7.489
 1756POPC   NC325991  30.173  24.794   9.482
 1756POPC   PO425992  29.728  24.396   9.526
 1756POPC   GL125993  29.814  24.623   9.142
 1756POPC   GL225994  29.827  24.297   8.982
 1756POPC   C1A25995  29.989  24.737   8.733
 1756POPC   D2A25996  30.058  24.622   8.291
 1756POPC   C3A25997  29.737  24.396   8.060
 1756POPC   C4A25998  29.886  24.248   7.690
 1756POPC   C1B25999  30.257  24.264   8.809
 1756POPC   C2B26000  30.401  24.049   8.418
 1756POPC   C3B26001  30.360  24.224   7.981
 1756POPC   C4B26002  30.364  24.165   7.528
 1757POPC   NC326003   1.477  11.677   9.607
 1757POPC   PO426004   1.156  12.237   9.562
 1757POPC   GL126005   1.371  12.315   9.180
 1757POPC   GL226006   1.729  12.414   9.227
 1757POPC   C1A26007   1.195  12.329   8.745
 1757POPC   D2A26008   0.984  12.394   8.343
 1757POPC   C3A26009   1.163  12.110   8.027
 1757POPC   C4A26010   1.460  11.793   7.857
 1757POPC   C1B26011   1.623  12.581   8.821
 1757POPC   C2B26012   1.390  12.699   8.428
 1757POPC   C3B26013   1.515  12.522   8.029
 1757POPC   C4B26014   1.447  12.303   7.654
 1758POPC   NC326015  44.789  22.476   9.807
 1758POPC   PO426016  44.730  23.042   9.439
 1758POPC   GL126017  44.621  23.028   9.008
 1758POPC   GL226018  44.532  22.678   8.964
 1758POPC   C1A26019  44.481  23.221   8.602
 1758POPC   D2A26020  44.514  23.334   8.154
 1758POPC   C3A26021  44.448  23.005   7.830
 1758POPC   C4A26022  44.455  23.178   7.411
 1758POPC   C1B26023  44.762  22.752   8.569
 1758POPC   C2B26024  44.999  23.032   8.299
 1758POPC   C3B26025  44.928  23.131   7.887
 1758POPC   C4B26026  44.859  22.887   7.534
 1759POPC   NC326027  22.060  24.921   9.736
 1759POPC   PO426028  22.060  25.539   9.534
 1759POPC   GL126029  21.935  25.430   9.071
 1759POPC   GL226030  21.812  25.087   9.073
 1759POPC   C1A26031  22.070  25.489   8.610
 1759POPC   D2A26032  22.117  25.587   8.143
 1759POPC   C3A26033  22.371  25.314   7.809
 1759POPC   C4A26034  22.438  25.353   7.330
 1759POPC   C1B26035  21.673  25.171   8.667
 1759POPC   C2B26036  21.660  25.342   8.257
 1759POPC   C3B26037  21.845  25.276   7.836
 1759POPC   C4B26038  22.024  25.576   7.570
 1760POPC   NC326039  26.321   0.366   9.427
 1760POPC   PO426040  25.640   0.635   9.449
 1760POPC   GL126041  25.921   0.447   9.141
 1760POPC   GL226042  25.905   0.726   8.993
 1760POPC   C1A26043  26.200   0.415   8.736
 1760POPC   D2A26044  26.030   0.338   8.291
 1760POPC   C3A26045  26.209   0.397   7.874
 1760POPC   C4A26046  26.348   0.225   7.414
 1760POPC   C1B26047  25.709   0.482   8.669
 1760POPC   C2B26048  25.553   0.568   8.282
 1760POPC   C3B26049  25.684   0.596   7.852
 1760POPC   C4B26050  26.001   0.716   7.556
 1761POPC   NC326051   4.211  39.847   9.436
 1761POPC   PO426052   4.038  40.494   9.329
 1761POPC   GL126053   4.476  40.257   9.218
 1761POPC   GL226054   4.578  39.866   9.086
 1761POPC   C1A26055   4.737  40.290   8.846
 1761POPC   D2A26056   4.577  39.979   8.580
 1761POPC   C3A26057   4.574  40.021   8.167
 1761POPC   C4A26058   4.443  39.799   7.826
 1761POPC   C1B26059   4.180  39.718   8.801
 1761POPC   C2B26060   3.979  39.574   8.374
 1761POPC   C3B26061   3.966  39.696   7.915
 1761POPC   C4B26062   4.174  39.547   7.479
 1762POPC   NC326063   8.557   4.601   9.354
 1762POPC   PO426064   8.172   4.963   9.668
 1762POPC   GL126065   8.051   5.078   9.184
 1762POPC   GL226066   8.097   4.744   9.131
 1762POPC   C1A26067   8.125   5.066   8.714
 1762POPC   D2A26068   8.295   5.226   8.322
 1762POPC   C3A26069   8.336   5.213   7.864
 1762POPC   C4A26070   8.128   5.104   7.467
 1762POPC   C1B26071   8.344   4.610   8.756
 1762POPC   C2B26072   8.593   4.848   8.492
 1762POPC   C3B26073   8.465   4.780   8.082
 1762POPC   C4B26074   8.394   4.685   7.639
 1763POPC   NC326075  30.491  20.191   9.360
 1763POPC   PO426076  30.678  20.801   9.242
 1763POPC   GL126077  30.685  20.478   8.979
 1763POPC   GL226078  31.061  20.512   9.060
 1763POPC   C1A26079  30.503  20.556   8.564
 1763POPC   D2A26080  30.221  20.885   8.353
 1763POPC   C3A26081  30.220  20.785   7.902
 1763POPC   C4A26082  30.487  20.548   7.622
 1763POPC   C1B26083  31.000  20.709   8.651
 1763POPC   C2B26084  30.943  20.720   8.180
 1763POPC   C3B26085  30.993  20.536   7.751
 1763POPC   C4B26086  30.916  20.461   7.298
 1764POPC   NC326087   4.367  33.195   9.528
 1764POPC   PO426088   3.894  32.676   9.497
 1764POPC   GL126089   4.243  32.780   9.203
 1764POPC   GL226090   4.190  33.137   9.068
 1764POPC   C1A26091   4.498  32.821   8.815
 1764POPC   D2A26092   4.408  33.054   8.424
 1764POPC   C3A26093   4.407  32.842   8.027
 1764POPC   C4A26094   4.090  32.753   7.716
 1764POPC   C1B26095   4.545  33.355   8.840
 1764POPC   C2B26096   4.792  33.416   8.433
 1764POPC   C3B26097   4.606  33.495   8.017
 1764POPC   C4B26098   4.332  33.257   7.748
 1765POPC   NC326099  13.713  18.198   9.653
 1765POPC   PO426100  13.449  18.721   9.552
 1765POPC   GL126101  13.392  18.427   9.144
 1765POPC   GL226102  13.578  18.088   9.140
 1765POPC   C1A26103  13.286  18.190   8.724
 1765POPC   D2A26104  13.404  18.023   8.300
 1765POPC   C3A26105  13.615  18.353   8.127
 1765POPC   C4A26106  13.419  18.595   7.861
 1765POPC   C1B26107  13.744  17.942   8.707
 1765POPC   C2B26108  13.930  17.833   8.302
 1765POPC   C3B26109  13.875  17.990   7.863
 1765POPC   C4B26110  13.434  18.090   7.725
 1766POPC   NC326111  32.654  18.361   9.327
 1766POPC   PO426112  32.134  18.195   9.743
 1766POPC   GL126113  32.160  18.406   9.303
 1766POPC   GL226114  32.226  18.122   9.117
 1766POPC   C1A26115  32.322  18.487   8.797
 1766POPC   D2A26116  32.203  18.465   8.348
 1766POPC   C3A26117  32.279  18.176   8.020
 1766POPC   C4A26118  32.209  18.254   7.611
 1766POPC   C1B26119  32.135  18.001   8.669
 1766POPC   C2B26120  31.861  18.080   8.301
 1766POPC   C3B26121  31.833  17.956   7.876
 1766POPC   C4B26122  32.103  17.762   7.606
 1767POPC   NC326123  36.002  41.854   9.552
 1767POPC   PO426124  36.217  41.152   9.387
 1767POPC   GL126125  36.214  41.416   9.041
 1767POPC   GL226126  36.010  41.703   9.059
 1767POPC   C1A26127  36.335  41.588   8.637
 1767POPC   D2A26128  36.293  41.552   8.188
 1767POPC   C3A26129  36.502  41.795   7.906
 1767POPC   C4A26130  36.344  41.737   7.487
 1767POPC   C1B26131  35.827  41.479   8.681
 1767POPC   C2B26132  35.775  41.508   8.232
 1767POPC   C3B26133  35.883  41.608   7.812
 1767POPC   C4B26134  35.871  41.910   7.459
 1768POPC   NC326135  19.077  22.682   9.702
 1768POPC   PO426136  19.075  23.288   9.450
 1768POPC   GL126137  19.072  22.875   9.200
 1768POPC   GL226138  19.386  22.665   9.108
 1768POPC   C1A26139  18.907  22.811   8.795
 1768POPC   D2A26140  19.014  22.909   8.357
 1768POPC   C3A26141  18.978  22.861   7.932
 1768POPC   C4A26142  18.692  22.624   7.685
 1768POPC   C1B26143  19.408  22.852   8.670
 1768POPC   C2B26144  19.486  23.067   8.263
 1768POPC   C3B26145  19.295  23.274   7.894
 1768POPC   C4B26146  19.326  23.153   7.490
 1769POPC   NC326147  43.549   2.031   9.541
 1769POPC   PO426148  44.225   2.025   9.487
 1769POPC   GL126149  44.054   2.115   9.079
 1769POPC   GL226150  43.712   2.170   9.042
 1769POPC   C1A26151  43.958   1.916   8.687
 1769POPC   D2A26152  43.670   1.962   8.366
 1769POPC   C3A26153  43.740   1.826   7.979
 1769POPC   C4A26154  44.012   1.903   7.723
 1769POPC   C1B26155  43.716   2.394   8.641
 1769POPC   C2B26156  43.956   2.464   8.266
 1769POPC   C3B26157  44.105   2.385   7.862
 1769POPC   C4B26158  43.739   2.310   7.578
 1770POPC   NC326159  35.161  39.925   9.413
 1770POPC   PO426160  35.493  40.504   9.524
 1770POPC   GL126161  35.436  40.248   9.141
 1770POPC   GL226162  35.588  39.902   9.075
 1770POPC   C1A26163  35.196  40.109   8.765
 1770POPC   D2A26164  35.092  40.276   8.368
 1770POPC   C3A26165  35.168  40.145   7.950
 1770POPC   C4A26166  35.567  40.164   7.750
 1770POPC   C1B26167  35.362  39.637   8.779
 1770POPC   C2B26168  35.210  39.765   8.370
 1770POPC   C3B26169  35.323  39.664   7.978
 1770POPC   C4B26170  35.179  39.732   7.597
 1771POPC   NC326171  38.307  31.441   9.236
 1771POPC   PO426172  37.753  31.690   9.460
 1771POPC   GL126173  37.801  31.554   9.078
 1771POPC   GL226174  38.024  31.825   9.014
 1771POPC   C1A26175  37.642  31.356   8.692
 1771POPC   D2A26176  37.747  31.435   8.261
 1771POPC   C3A26177  37.472  31.260   7.946
 1771POPC   C4A26178  37.590  31.057   7.559
 1771POPC   C1B26179  37.723  31.873   8.672
 1771POPC   C2B26180  37.931  32.001   8.319
 1771POPC   C3B26181  38.109  31.747   8.041
 1771POPC   C4B26182  37.842  31.514   7.738
 1772POPC   NC326183   1.913   8.902   9.648
 1772POPC   PO426184   2.386   8.932   9.199
 1772POPC   GL126185   2.156   9.091   8.951
 1772POPC   GL226186   1.847   9.123   9.152
 1772POPC   C1A26187   2.197   8.960   8.540
 1772POPC   D2A26188   2.274   9.012   8.130
 1772POPC   C3A26189   2.116   8.730   7.825
 1772POPC   C4A26190   2.137   9.003   7.450
 1772POPC   C1B26191   1.716   9.019   8.694
 1772POPC   C2B26192   1.767   9.028   8.218
 1772POPC   C3B26193   1.704   9.013   7.760
 1772POPC   C4B26194   1.391   8.774   7.481
 1773POPC   NC326195  42.139   1.842   9.468
 1773POPC   PO426196  42.600   2.295   9.231
 1773POPC   GL126197  42.293   2.102   9.052
 1773POPC   GL226198  42.426   1.772   9.051
 1773POPC   C1A26199  42.253   2.075   8.640
 1773POPC   D2A26200  42.438   2.097   8.305
 1773POPC   C3A26201  42.164   2.242   8.093
 1773POPC   C4A26202  42.337   2.210   7.724
 1773POPC   C1B26203  42.060   1.648   8.794
 1773POPC   C2B26204  42.277   1.604   8.376
 1773POPC   C3B26205  42.263   1.751   7.966
 1773POPC   C4B26206  42.337   1.607   7.579
 1774POPC   NC326207  11.969  41.346   9.511
 1774POPC   PO426208  12.395  41.796   9.405
 1774POPC   GL126209  12.053  41.728   9.074
 1774POPC   GL226210  11.826  41.464   9.050
 1774POPC   C1A26211  11.958  41.724   8.628
 1774POPC   D2A26212  12.215  41.472   8.342
 1774POPC   C3A26213  12.219  41.640   7.931
 1774POPC   C4A26214  11.875  41.928   7.847
 1774POPC   C1B26215  11.566  41.419   8.736
 1774POPC   C2B26216  11.679  41.368   8.311
 1774POPC   C3B26217  11.751  41.427   7.876
 1774POPC   C4B26218  11.639  41.229   7.498
 1775POPC   NC326219  23.135  35.183   9.538
 1775POPC   PO426220  22.991  34.510   9.627
 1775POPC   GL126221  23.113  34.711   9.204
 1775POPC   GL226222  23.223  34.399   9.048
 1775POPC   C1A26223  23.263  34.810   8.745
 1775POPC   D2A26224  23.053  34.781   8.305
 1775POPC   C3A26225  23.251  34.825   7.871
 1775POPC   C4A26226  23.169  34.786   7.402
 1775POPC   C1B26227  23.111  34.337   8.605
 1775POPC   C2B26228  22.925  34.278   8.182
 1775POPC   C3B26229  22.965  34.391   7.719
 1775POPC   C4B26230  22.709  34.552   7.367
 1776POPC   NC326231  26.439  21.671   9.837
 1776POPC   PO426232  26.912  21.948   9.701
 1776POPC   GL126233  26.890  22.131   9.264
 1776POPC   GL226234  26.533  22.119   9.127
 1776POPC   C1A26235  26.872  22.446   8.898
 1776POPC   D2A26236  26.798  22.544   8.440
 1776POPC   C3A26237  26.927  22.225   8.140
 1776POPC   C4A26238  27.141  22.219   7.750
 1776POPC   C1B26239  26.413  22.302   8.701
 1776POPC   C2B26240  26.399  22.279   8.234
 1776POPC   C3B26241  26.536  22.173   7.800
 1776POPC   C4B26242  26.787  21.972   7.489
 1777POPC   NC326243  15.376  15.159   9.558
 1777POPC   PO426244  14.819  15.232   9.399
 1777POPC   GL126245  15.132  15.407   9.104
 1777POPC   GL226246  15.530  15.415   9.124
 1777POPC   C1A26247  15.163  15.248   8.683
 1777POPC   D2A26248  14.905  14.954   8.429
 1777POPC   C3A26249  14.978  15.028   7.979
 1777POPC   C4A26250  15.105  15.398   7.726
 1777POPC   C1B26251  15.551  14.998   8.923
 1777POPC   C2B26252  15.551  14.921   8.479
 1777POPC   C3B26253  15.469  15.091   8.078
 1777POPC   C4B26254  15.377  14.840   7.706
 1778POPC   NC326255   3.561  22.392   9.640
 1778POPC   PO426256   3.623  21.831   9.531
 1778POPC   GL126257   3.442  22.029   9.176
 1778POPC   GL226258   3.755  21.927   9.023
 1778POPC   C1A26259   3.366  22.259   8.771
 1778POPC   D2A26260   3.114  22.374   8.351
 1778POPC   C3A26261   3.346  22.325   7.942
 1778POPC   C4A26262   3.791  22.396   7.831
 1778POPC   C1B26263   3.480  21.750   8.717
 1778POPC   C2B26264   3.511  21.995   8.352
 1778POPC   C3B26265   3.682  21.911   7.987
 1778POPC   C4B26266   3.367  21.837   7.747
 1779POPC   NC326267   6.326  28.978   9.394
 1779POPC   PO426268   6.816  29.375   9.648
 1779POPC   GL126269   6.672  29.492   9.218
 1779POPC   GL226270   6.357  29.387   9.096
 1779POPC   C1A26271   6.809  29.258   8.865
 1779POPC   D2A26272   6.749  28.987   8.525
 1779POPC   C3A26273   6.736  29.178   8.117
 1779POPC   C4A26274   6.840  29.096   7.706
 1779POPC   C1B26275   6.280  29.139   8.717
 1779POPC   C2B26276   6.279  28.969   8.282
 1779POPC   C3B26277   6.275  29.102   7.844
 1779POPC   C4B26278   6.339  29.185   7.398
 1780POPC   NC326279  44.172  38.528   9.437
 1780POPC   PO426280  43.576  38.298   9.730
 1780POPC   GL126281  43.689  38.475   9.307
 1780POPC   GL226282  43.801  38.840   9.265
 1780POPC   C1A26283  43.666  38.421   8.849
 1780POPC   D2A26284  43.486  38.292   8.459
 1780POPC   C3A26285  43.772  38.404   8.136
 1780POPC   C4A26286  43.749  38.449   7.695
 1780POPC   C1B26287  44.004  38.799   8.833
 1780POPC   C2B26288  44.155  38.658   8.413
 1780POPC   C3B26289  44.227  38.582   7.960
 1780POPC   C4B26290  44.269  38.720   7.546
 1781POPC   NC326291  10.261  29.118   9.639
 1781POPC   PO426292  10.873  29.090   9.596
 1781POPC   GL126293  10.603  28.977   9.275
 1781POPC   GL226294  10.495  29.289   9.203
 1781POPC   C1A26295  10.627  28.935   8.816
 1781POPC   D2A26296  10.892  29.030   8.442
 1781POPC   C3A26297  10.686  29.040   8.057
 1781POPC   C4A26298  10.745  28.838   7.684
 1781POPC   C1B26299  10.265  29.327   8.818
 1781POPC   C2B26300  10.295  29.182   8.379
 1781POPC   C3B26301  10.116  29.341   7.989
 1781POPC   C4B26302  10.269  29.625   7.655
 1782POPC   NC326303  19.438  28.293   9.405
 1782POPC   PO426304  18.793  28.379   9.506
 1782POPC   GL126305  19.023  28.413   9.115
 1782POPC   GL226306  19.217  28.734   9.211
 1782POPC   C1A26307  19.032  28.267   8.667
 1782POPC   D2A26308  18.940  28.178   8.223
 1782POPC   C3A26309  19.026  28.451   7.907
 1782POPC   C4A26310  18.692  28.546   7.628
 1782POPC   C1B26311  19.369  28.703   8.791
 1782POPC   C2B26312  19.291  28.630   8.350
 1782POPC   C3B26313  19.446  28.759   7.963
 1782POPC   C4B26314  19.423  28.594   7.554
 1783POPC   NC326315  41.405  25.803   9.237
 1783POPC   PO426316  41.774  26.379   9.337
 1783POPC   GL126317  41.584  26.206   8.988
 1783POPC   GL226318  41.219  26.213   8.935
 1783POPC   C1A26319  41.643  26.012   8.612
 1783POPC   D2A26320  41.743  25.997   8.200
 1783POPC   C3A26321  41.368  25.971   7.994
 1783POPC   C4A26322  41.107  25.657   7.815
 1783POPC   C1B26323  41.388  26.501   8.586
 1783POPC   C2B26324  41.737  26.679   8.312
 1783POPC   C3B26325  41.884  26.403   7.965
 1783POPC   C4B26326  41.539  26.321   7.639
 1784POPC   NC326327  41.074  24.946   9.492
 1784POPC   PO426328  40.570  24.393   9.593
 1784POPC   GL126329  40.516  24.424   9.161
 1784POPC   GL226330  40.603  24.793   9.154
 1784POPC   C1A26331  40.627  24.415   8.723
 1784POPC   D2A26332  40.436  24.536   8.335
 1784POPC   C3A26333  40.727  24.375   8.027
 1784POPC   C4A26334  40.597  24.271   7.624
 1784POPC   C1B26335  40.717  24.899   8.736
 1784POPC   C2B26336  40.866  24.802   8.327
 1784POPC   C3B26337  40.701  24.865   7.911
 1784POPC   C4B26338  40.939  24.680   7.593
 1785POPC   NC326339   3.810  21.425   9.584
 1785POPC   PO426340   4.391  21.172   9.588
 1785POPC   GL126341   4.461  21.431   9.233
 1785POPC   GL226342   4.164  21.663   9.227
 1785POPC   C1A26343   4.535  21.351   8.813
 1785POPC   D2A26344   4.231  21.266   8.503
 1785POPC   C3A26345   4.336  21.341   8.085
 1785POPC   C4A26346   4.180  21.142   7.746
 1785POPC   C1B26347   4.261  21.779   8.768
 1785POPC   C2B26348   4.348  21.810   8.286
 1785POPC   C3B26349   4.184  21.774   7.819
 1785POPC   C4B26350   4.138  21.795   7.317
 1786POPC   NC326351   3.456  30.534   9.609
 1786POPC   PO426352   4.108  30.317   9.391
 1786POPC   GL126353   3.816  30.572   9.105
 1786POPC   GL226354   3.422  30.636   9.113
 1786POPC   C1A26355   3.658  30.654   8.666
 1786POPC   D2A26356   3.354  30.535   8.350
 1786POPC   C3A26357   3.524  30.693   7.961
 1786POPC   C4A26358   3.696  30.525   7.572
 1786POPC   C1B26359   3.306  31.003   8.852
 1786POPC   C2B26360   3.027  31.036   8.505
 1786POPC   C3B26361   3.070  30.895   8.111
 1786POPC   C4B26362   3.288  31.146   7.873
 1787POPC   NC326363  20.165  13.243   9.419
 1787POPC   PO426364  20.574  12.782   9.737
 1787POPC   GL126365  20.509  12.851   9.286
 1787POPC   GL226366  20.173  12.724   9.296
 1787POPC   C1A26367  20.460  12.986   8.829
 1787POPC   D2A26368  20.492  12.778   8.414
 1787POPC   C3A26369  20.700  13.010   8.096
 1787POPC   C4A26370  20.682  13.159   7.682
 1787POPC   C1B26371  20.054  12.661   8.868
 1787POPC   C2B26372  20.044  12.479   8.453
 1787POPC   C3B26373  20.104  12.645   8.046
 1787POPC   C4B26374  20.402  12.742   7.723
 1788POPC   NC326375  27.035  25.417   9.477
 1788POPC   PO426376  26.591  25.031   9.323
 1788POPC   GL126377  26.879  25.274   8.999
 1788POPC   GL226378  27.137  25.567   9.011
 1788POPC   C1A26379  26.904  25.497   8.582
 1788POPC   D2A26380  27.188  25.498   8.246
 1788POPC   C3A26381  26.940  25.392   7.873
 1788POPC   C4A26382  26.543  25.164   7.755
 1788POPC   C1B26383  27.340  25.243   8.729
 1788POPC   C2B26384  27.458  25.047   8.310
 1788POPC   C3B26385  27.338  25.056   7.862
 1788POPC   C4B26386  26.989  24.966   7.577
 1789POPC   NC326387  39.950   6.240   9.455
 1789POPC   PO426388  39.758   6.847   9.378
 1789POPC   GL126389  40.012   6.663   9.105
 1789POPC   GL226390  40.130   6.326   8.992
 1789POPC   C1A26391  39.938   6.775   8.717
 1789POPC   D2A26392  39.766   6.645   8.363
 1789POPC   C3A26393  40.008   6.709   8.027
 1789POPC   C4A26394  39.972   6.779   7.606
 1789POPC   C1B26395  39.874   6.240   8.658
 1789POPC   C2B26396  39.998   6.208   8.221
 1789POPC   C3B26397  40.071   6.275   7.788
 1789POPC   C4B26398  39.723   6.329   7.519
 1790POPC   NC326399  36.435  26.879   9.660
 1790POPC   PO426400  36.046  26.324   9.523
 1790POPC   GL126401  36.096  26.737   9.266
 1790POPC   GL226402  36.304  26.576   9.056
 1790POPC   C1A26403  36.121  27.029   8.856
 1790POPC   D2A26404  36.294  27.112   8.443
 1790POPC   C3A26405  36.061  27.067   8.074
 1790POPC   C4A26406  36.224  27.133   7.670
 1790POPC   C1B26407  35.902  26.562   8.807
 1790POPC   C2B26408  35.913  26.658   8.395
 1790POPC   C3B26409  36.200  26.575   8.083
 1790POPC   C4B26410  36.025  26.670   7.674
 1791POPC   NC326411  21.444  27.286   9.577
 1791POPC   PO426412  21.288  26.649   9.597
 1791POPC   GL126413  21.285  26.826   9.180
 1791POPC   GL226414  21.625  26.990   9.173
 1791POPC   C1A26415  21.093  26.747   8.745
 1791POPC   D2A26416  20.910  26.991   8.366
 1791POPC   C3A26417  21.066  27.019   7.937
 1791POPC   C4A26418  21.084  26.696   7.615
 1791POPC   C1B26419  21.421  27.168   8.792
 1791POPC   C2B26420  21.415  26.980   8.373
 1791POPC   C3B26421  21.516  26.762   7.957
 1791POPC   C4B26422  21.556  26.904   7.537
 1792POPC   NC326423   1.851  28.649   9.753
 1792POPC   PO426424   2.107  29.283   9.651
 1792POPC   GL126425   1.916  29.114   9.284
 1792POPC   GL226426   2.222  29.092   9.158
 1792POPC   C1A26427   1.779  28.992   8.844
 1792POPC   D2A26428   1.655  29.268   8.471
 1792POPC   C3A26429   1.866  29.188   8.060
 1792POPC   C4A26430   1.957  29.355   7.678
 1792POPC   C1B26431   2.174  29.328   8.811
 1792POPC   C2B26432   2.150  29.104   8.461
 1792POPC   C3B26433   2.408  29.020   8.134
 1792POPC   C4B26434   2.244  28.928   7.754
 1793POPC   NC326435   2.567   2.978   9.409
 1793POPC   PO426436   2.685   2.328   9.406
 1793POPC   GL126437   2.707   2.589   9.105
 1793POPC   GL226438   3.016   2.754   9.200
 1793POPC   C1A26439   2.554   2.679   8.721
 1793POPC   D2A26440   2.399   2.463   8.344
 1793POPC   C3A26441   2.687   2.661   8.065
 1793POPC   C4A26442   2.948   2.545   7.778
 1793POPC   C1B26443   3.134   2.550   8.805
 1793POPC   C2B26444   3.213   2.685   8.360
 1793POPC   C3B26445   3.117   2.981   8.006
 1793POPC   C4B26446   2.969   3.016   7.556
 1794POPC   NC326447  13.884   6.251   9.412
 1794POPC   PO426448  13.555   5.630   9.418
 1794POPC   GL126449  13.426   5.753   9.063
 1794POPC   GL226450  13.758   5.896   9.004
 1794POPC   C1A26451  13.324   5.896   8.700
 1794POPC   D2A26452  13.356   6.011   8.324
 1794POPC   C3A26453  13.562   5.715   8.090
 1794POPC   C4A26454  13.372   5.772   7.740
 1794POPC   C1B26455  13.815   5.863   8.545
 1794POPC   C2B26456  13.888   6.118   8.211
 1794POPC   C3B26457  13.838   6.021   7.805
 1794POPC   C4B26458  13.864   5.621   7.649
 1795POPC   NC326459  32.510  39.169   9.318
 1795POPC   PO426460  33.110  39.364   9.513
 1795POPC   GL126461  32.979  39.254   9.099
 1795POPC   GL226462  32.877  38.955   9.005
 1795POPC   C1A26463  33.188  39.203   8.682
 1795POPC   D2A26464  33.358  39.488   8.373
 1795POPC   C3A26465  33.096  39.494   7.994
 1795POPC   C4A26466  33.113  39.259   7.596
 1795POPC   C1B26467  32.679  39.163   8.673
 1795POPC   C2B26468  32.824  39.135   8.253
 1795POPC   C3B26469  32.694  39.150   7.839
 1795POPC   C4B26470  32.628  39.441   7.534
 1796POPC   NC326471   7.997  38.719   9.378
 1796POPC   PO426472   8.180  38.088   9.452
 1796POPC   GL126473   8.238  38.334   9.129
 1796POPC   GL226474   8.505  38.584   9.255
 1796POPC   C1A26475   7.964  38.425   8.782
 1796POPC   D2A26476   7.859  38.255   8.401
 1796POPC   C3A26477   7.894  38.576   8.124
 1796POPC   C4A26478   7.979  38.407   7.760
 1796POPC   C1B26479   8.481  38.623   8.797
 1796POPC   C2B26480   8.352  38.460   8.391
 1796POPC   C3B26481   8.396  38.606   7.976
 1796POPC   C4B26482   8.527  38.771   7.580
 1797POPC   NC326483   0.441  33.375   9.261
 1797POPC   PO426484  44.870  33.081   9.434
 1797POPC   GL126485   0.148  32.955   9.070
 1797POPC   GL226486   0.524  32.863   9.158
 1797POPC   C1A26487   0.321  33.161   8.671
 1797POPC   D2A26488   0.370  33.323   8.243
 1797POPC   C3A26489   0.153  32.984   8.035
 1797POPC   C4A26490   0.167  32.872   7.594
 1797POPC   C1B26491   0.736  32.840   8.748
 1797POPC   C2B26492   0.589  32.871   8.310
 1797POPC   C3B26493   0.626  33.026   7.856
 1797POPC   C4B26494   0.645  32.833   7.440
 1798POPC   NC326495   5.570   3.881   9.601
 1798POPC   PO426496   5.948   3.322   9.549
 1798POPC   GL126497   5.994   3.476   9.143
 1798POPC   GL226498   5.645   3.482   9.052
 1798POPC   C1A26499   5.975   3.212   8.738
 1798POPC   D2A26500   5.788   3.263   8.327
 1798POPC   C3A26501   6.048   3.246   7.961
 1798POPC   C4A26502   5.847   3.227   7.528
 1798POPC   C1B26503   5.828   3.692   8.670
 1798POPC   C2B26504   5.875   3.756   8.225
 1798POPC   C3B26505   5.724   3.606   7.836
 1798POPC   C4B26506   6.062   3.673   7.472
 1799POPC   NC326507  40.186  32.095   9.318
 1799POPC   PO426508  40.248  32.710   9.467
 1799POPC   GL126509  40.025  32.540   9.111
 1799POPC   GL226510  39.786  32.243   9.032
 1799POPC   C1A26511  40.119  32.438   8.685
 1799POPC   D2A26512  40.271  32.425   8.291
 1799POPC   C3A26513  39.941  32.343   8.011
 1799POPC   C4A26514  40.108  32.446   7.597
 1799POPC   C1B26515  39.994  31.944   8.710
 1799POPC   C2B26516  40.172  31.903   8.298
 1799POPC   C3B26517  39.984  31.867   7.879
 1799POPC   C4B26518  39.554  32.012   7.812
 1800POPC   NC326519   8.036   6.340   9.368
 1800POPC   PO426520   8.477   6.866   9.407
 1800POPC   GL126521   8.246   6.744   9.077
 1800POPC   GL226522   8.421   6.429   8.948
 1800POPC   C1A26523   8.329   6.882   8.669
 1800POPC   D2A26524   8.341   6.660   8.287
 1800POPC   C3A26525   8.423   6.904   7.956
 1800POPC   C4A26526   8.175   6.995   7.654
 1800POPC   C1B26527   8.073   6.439   8.692
 1800POPC   C2B26528   7.812   6.639   8.401
 1800POPC   C3B26529   7.911   6.636   7.979
 1800POPC   C4B26530   8.035   6.524   7.553
 1801POPC   NC326531  29.756  35.337   9.493
 1801POPC   PO426532  30.217  35.645   9.147
 1801POPC   GL126533  29.776  35.577   9.021
 1801POPC   GL226534  29.772  35.219   9.002
 1801POPC   C1A26535  29.612  35.465   8.604
 1801POPC   D2A26536  29.859  35.217   8.324
 1801POPC   C3A26537  29.785  35.318   7.927
 1801POPC   C4A26538  29.839  35.703   7.728
 1801POPC   C1B26539  30.123  35.102   8.741
 1801POPC   C2B26540  30.314  34.908   8.363
 1801POPC   C3B26541  30.273  35.081   7.976
 1801POPC   C4B26542  30.201  35.354   7.617
 1802POPC   NC326543  31.738  13.136   9.374
 1802POPC   PO426544  32.059  12.654   9.582
 1802POPC   GL126545  32.168  12.849   9.201
 1802POPC   GL226546  32.179  13.203   9.123
 1802POPC   C1A26547  32.044  12.786   8.774
 1802POPC   D2A26548  32.099  12.452   8.459
 1802POPC   C3A26549  32.038  12.619   8.045
 1802POPC   C4A26550  32.274  12.620   7.691
 1802POPC   C1B26551  32.516  13.025   8.835
 1802POPC   C2B26552  32.680  12.927   8.398
 1802POPC   C3B26553  32.695  12.989   7.922
 1802POPC   C4B26554  32.361  13.124   7.619
 1803POPC   NC326555   4.110  15.741   9.437
 1803POPC   PO426556   3.629  16.211   9.450
 1803POPC   GL126557   3.561  15.961   9.083
 1803POPC   GL226558   3.218  15.797   9.055
 1803POPC   C1A26559   3.754  15.955   8.663
 1803POPC   D2A26560   3.877  15.607   8.416
 1803POPC   C3A26561   3.847  15.798   8.022
 1803POPC   C4A26562   3.781  16.171   7.731
 1803POPC   C1B26563   3.256  16.062   8.681
 1803POPC   C2B26564   3.429  16.042   8.242
 1803POPC   C3B26565   3.290  16.206   7.837
 1803POPC   C4B26566   2.991  16.384   7.582
 1804POPC   NC326567  25.843  27.706   9.541
 1804POPC   PO426568  26.061  28.271   9.400
 1804POPC   GL126569  26.210  27.953   9.101
 1804POPC   GL226570  26.173  27.585   9.144
 1804POPC   C1A26571  26.007  27.828   8.716
 1804POPC   D2A26572  25.830  28.069   8.385
 1804POPC   C3A26573  26.007  27.905   8.054
 1804POPC   C4A26574  25.797  27.721   7.750
 1804POPC   C1B26575  26.377  27.377   8.784
 1804POPC   C2B26576  26.268  27.277   8.390
 1804POPC   C3B26577  26.006  27.386   8.080
 1804POPC   C4B26578  26.248  27.506   7.715
 1805POPC   NC326579  44.035  36.353   9.526
 1805POPC   PO426580  43.637  35.780   9.467
 1805POPC   GL126581  43.740  36.081   9.129
 1805POPC   GL226582  44.084  36.228   9.037
 1805POPC   C1A26583  43.844  35.953   8.701
 1805POPC   D2A26584  43.899  36.148   8.326
 1805POPC   C3A26585  43.575  36.013   8.068
 1805POPC   C4A26586  43.453  36.277   7.752
 1805POPC   C1B26587  44.348  36.476   8.725
 1805POPC   C2B26588  44.334  36.452   8.259
 1805POPC   C3B26589  44.271  36.136   7.938
 1805POPC   C4B26590  44.203  36.014   7.503
 1806POPC   NC326591  41.397  13.259   9.670
 1806POPC   PO426592  41.907  12.844   9.537
 1806POPC   GL126593  41.633  12.854   9.194
 1806POPC   GL226594  41.315  12.992   9.265
 1806POPC   C1A26595  41.558  12.947   8.783
 1806POPC   D2A26596  41.716  12.857   8.399
 1806POPC   C3A26597  41.622  13.085   8.097
 1806POPC   C4A26598  41.537  12.874   7.736
 1806POPC   C1B26599  41.181  12.653   9.031
 1806POPC   C2B26600  41.182  12.629   8.589
 1806POPC   C3B26601  41.282  12.663   8.151
 1806POPC   C4B26602  41.089  12.657   7.726
 1807POPC   NC326603   7.366  25.979   9.620
 1807POPC   PO426604   7.206  26.393   9.496
 1807POPC   GL126605   7.327  26.160   9.126
 1807POPC   GL226606   7.149  25.864   9.144
 1807POPC   C1A26607   7.552  26.165   8.740
 1807POPC   D2A26608   7.780  26.231   8.368
 1807POPC   C3A26609   7.580  26.379   7.987
 1807POPC   C4A26610   7.684  26.238   7.558
 1807POPC   C1B26611   7.160  25.847   8.685
 1807POPC   C2B26612   7.285  26.056   8.296
 1807POPC   C3B26613   7.375  25.935   7.867
 1807POPC   C4B26614   7.210  26.061   7.474
 1808POPC   NC326615  41.004   6.698   9.349
 1808POPC   PO426616  40.441   6.862   9.618
 1808POPC   GL126617  40.499   6.570   9.261
 1808POPC   GL226618  40.672   6.293   9.061
 1808POPC   C1A26619  40.458   6.691   8.830
 1808POPC   D2A26620  40.303   6.550   8.444
 1808POPC   C3A26621  40.539   6.703   8.085
 1808POPC   C4A26622  40.441   6.615   7.673
 1808POPC   C1B26623  40.749   6.306   8.589
 1808POPC   C2B26624  40.958   6.074   8.234
 1808POPC   C3B26625  41.199   6.196   7.899
 1808POPC   C4B26626  41.046   6.533   7.606
 1809POPC   NC326627   3.167  32.203   9.520
 1809POPC   PO426628   3.764  31.867   9.565
 1809POPC   GL126629   3.572  31.977   9.189
 1809POPC   GL226630   3.231  31.947   9.095
 1809POPC   C1A26631   3.535  32.304   8.868
 1809POPC   D2A26632   3.769  32.386   8.498
 1809POPC   C3A26633   3.522  32.334   8.127
 1809POPC   C4A26634   3.397  32.455   7.714
 1809POPC   C1B26635   3.021  32.001   8.726
 1809POPC   C2B26636   3.157  31.984   8.313
 1809POPC   C3B26637   3.118  32.053   7.903
 1809POPC   C4B26638   3.273  31.922   7.511
 1810POPC   NC326639   1.202  39.822   9.553
 1810POPC   PO426640   1.043  40.486   9.389
 1810POPC   GL126641   1.211  40.134   9.131
 1810POPC   GL226642   0.995  39.831   9.086
 1810POPC   C1A26643   1.359  39.979   8.743
 1810POPC   D2A26644   1.272  40.191   8.370
 1810POPC   C3A26645   1.394  39.944   8.051
 1810POPC   C4A26646   1.423  39.947   7.639
 1810POPC   C1B26647   0.843  39.808   8.655
 1810POPC   C2B26648   0.890  39.882   8.200
 1810POPC   C3B26649   0.926  39.889   7.739
 1810POPC   C4B26650   0.984  39.782   7.271
 1811POPC   NC326651  15.426  32.396   9.584
 1811POPC   PO426652  15.013  31.895   9.466
 1811POPC   GL126653  15.256  32.141   9.189
 1811POPC   GL226654  15.021  32.412   9.222
 1811POPC   C1A26655  15.369  32.070   8.775
 1811POPC   D2A26656  15.126  31.979   8.423
 1811POPC   C3A26657  15.296  32.222   8.099
 1811POPC   C4A26658  15.350  32.332   7.679
 1811POPC   C1B26659  14.904  32.281   8.823
 1811POPC   C2B26660  14.940  32.453   8.429
 1811POPC   C3B26661  14.827  32.423   8.035
 1811POPC   C4B26662  14.882  32.111   7.759
 1812POPC   NC326663   7.860  40.751   9.824
 1812POPC   PO426664   8.306  40.599   9.384
 1812POPC   GL126665   8.138  40.647   9.022
 1812POPC   GL226666   7.834  40.766   9.092
 1812POPC   C1A26667   8.243  40.812   8.651
 1812POPC   D2A26668   8.191  41.108   8.365
 1812POPC   C3A26669   8.101  40.858   8.056
 1812POPC   C4A26670   8.202  40.955   7.680
 1812POPC   C1B26671   7.807  41.034   8.692
 1812POPC   C2B26672   7.627  40.985   8.252
 1812POPC   C3B26673   7.695  40.948   7.752
 1812POPC   C4B26674   7.674  41.070   7.298
 1813POPC   NC326675  37.729   2.694   9.383
 1813POPC   PO426676  37.249   3.192   9.427
 1813POPC   GL126677  37.482   3.033   9.086
 1813POPC   GL226678  37.839   3.133   9.095
 1813POPC   C1A26679  37.441   2.767   8.712
 1813POPC   D2A26680  37.454   2.987   8.309
 1813POPC   C3A26681  37.565   2.829   7.916
 1813POPC   C4A26682  37.810   2.513   7.661
 1813POPC   C1B26683  37.827   3.100   8.648
 1813POPC   C2B26684  37.974   2.920   8.247
 1813POPC   C3B26685  38.054   2.918   7.805
 1813POPC   C4B26686  38.150   2.849   7.366
 1814POPC   NC326687  42.663  26.482   9.468
 1814POPC   PO426688  42.162  26.897   9.592
 1814POPC   GL126689  42.388  26.885   9.192
 1814POPC   GL226690  42.183  26.606   9.144
 1814POPC   C1A26691  42.668  26.926   8.785
 1814POPC   D2A26692  42.806  26.808   8.355
 1814POPC   C3A26693  42.692  26.973   7.929
 1814POPC   C4A26694  42.623  27.245   7.574
 1814POPC   C1B26695  42.145  26.762   8.739
 1814POPC   C2B26696  42.258  26.963   8.364
 1814POPC   C3B26697  42.200  26.806   7.955
 1814POPC   C4B26698  42.309  26.863   7.529
 1815POPC   NC326699  32.630  42.405   9.996
 1815POPC   PO426700  32.506  42.417   9.395
 1815POPC   GL126701  32.473  42.238   9.043
 1815POPC   GL226702  32.395  41.888   9.109
 1815POPC   C1A26703  32.401  42.441   8.675
 1815POPC   D2A26704  32.535  42.229   8.327
 1815POPC   C3A26705  32.292  42.390   8.012
 1815POPC   C4A26706  32.168  42.535   7.650
 1815POPC   C1B26707  32.256  41.955   8.673
 1815POPC   C2B26708  32.045  41.991   8.251
 1815POPC   C3B26709  31.912  42.029   7.799
 1815POPC   C4B26710  31.831  42.258   7.397
 1816POPC   NC326711  27.846   1.014   9.324
 1816POPC   PO426712  27.206   0.856   9.438
 1816POPC   GL126713  27.279   1.220   9.139
 1816POPC   GL226714  27.620   1.419   9.109
 1816POPC   C1A26715  27.422   1.163   8.713
 1816POPC   D2A26716  27.546   1.400   8.359
 1816POPC   C3A26717  27.455   1.093   8.066
 1816POPC   C4A26718  27.502   0.999   7.640
 1816POPC   C1B26719  27.914   1.273   8.749
 1816POPC   C2B26720  28.057   1.288   8.337
 1816POPC   C3B26721  27.937   1.252   7.917
 1816POPC   C4B26722  27.906   1.236   7.471
 1817POPC   NC326723  41.022   3.631   9.752
 1817POPC   PO426724  41.616   3.352   9.584
 1817POPC   GL126725  41.542   3.311   9.167
 1817POPC   GL226726  41.248   3.432   9.121
 1817POPC   C1A26727  41.598   3.419   8.742
 1817POPC   D2A26728  41.848   3.361   8.411
 1817POPC   C3A26729  41.626   3.446   8.030
 1817POPC   C4A26730  41.625   3.681   7.666
 1817POPC   C1B26731  41.166   3.699   8.722
 1817POPC   C2B26732  41.419   3.786   8.352
 1817POPC   C3B26733  41.224   3.833   7.932
 1817POPC   C4B26734  41.125   3.704   7.505
 1818POPC   NC326735  36.824  14.208   9.719
 1818POPC   PO426736  36.676  14.835   9.514
 1818POPC   GL126737  36.813  14.430   9.244
 1818POPC   GL226738  36.875  14.061   9.233
 1818POPC   C1A26739  36.974  14.502   8.810
 1818POPC   D2A26740  36.951  14.754   8.474
 1818POPC   C3A26741  36.914  14.566   8.091
 1818POPC   C4A26742  37.180  14.461   7.765
 1818POPC   C1B26743  36.759  14.055   8.820
 1818POPC   C2B26744  36.857  14.171   8.406
 1818POPC   C3B26745  36.976  14.047   7.982
 1818POPC   C4B26746  37.165  13.957   7.578
 1819POPC   NC326747   0.979  15.225   9.468
 1819POPC   PO426748   1.399  14.679   9.487
 1819POPC   GL126749   1.411  15.055   9.176
 1819POPC   GL226750   1.331  15.437   9.149
 1819POPC   C1A26751   1.500  15.013   8.725
 1819POPC   D2A26752   1.428  14.795   8.316
 1819POPC   C3A26753   1.250  15.127   8.068
 1819POPC   C4A26754   1.406  15.413   7.762
 1819POPC   C1B26755   0.966  15.466   8.853
 1819POPC   C2B26756   0.860  15.494   8.405
 1819POPC   C3B26757   0.928  15.528   7.961
 1819POPC   C4B26758   0.866  15.378   7.541
 1820POPC   NC326759  29.366  16.886   9.475
 1820POPC   PO426760  28.753  16.745   9.710
 1820POPC   GL126761  28.893  16.682   9.244
 1820POPC   GL226762  29.235  16.512   9.178
 1820POPC   C1A26763  28.926  16.587   8.782
 1820POPC   D2A26764  29.157  16.638   8.377
 1820POPC   C3A26765  28.934  16.739   7.987
 1820POPC   C4A26766  28.932  16.452   7.643
 1820POPC   C1B26767  29.441  16.731   8.810
 1820POPC   C2B26768  29.605  16.933   8.404
 1820POPC   C3B26769  29.466  17.185   8.030
 1820POPC   C4B26770  29.301  17.093   7.620
 1821POPC   NC326771  42.998  25.960   9.752
 1821POPC   PO426772  43.491  26.382   9.836
 1821POPC   GL126773  43.178  26.273   9.389
 1821POPC   GL226774  42.910  26.007   9.256
 1821POPC   C1A26775  43.042  26.349   8.910
 1821POPC   D2A26776  42.901  26.312   8.442
 1821POPC   C3A26777  43.198  26.198   8.099
 1821POPC   C4A26778  43.365  26.091   7.674
 1821POPC   C1B26779  42.762  25.937   8.796
 1821POPC   C2B26780  42.744  25.804   8.330
 1821POPC   C3B26781  42.950  25.779   7.890
 1821POPC   C4B26782  42.752  25.578   7.507
 1822POPC   NC326783   4.715   7.621   9.639
 1822POPC   PO426784   4.220   7.228   9.625
 1822POPC   GL126785   4.456   7.357   9.271
 1822POPC   GL226786   4.351   7.704   9.251
 1822POPC   C1A26787   4.537   7.370   8.832
 1822POPC   D2A26788   4.349   7.232   8.442
 1822POPC   C3A26789   4.613   7.238   8.092
 1822POPC   C4A26790   4.561   7.417   7.711
 1822POPC   C1B26791   4.067   7.575   8.904
 1822POPC   C2B26792   4.083   7.665   8.467
 1822POPC   C3B26793   4.142   7.556   8.020
 1822POPC   C4B26794   4.261   7.805   7.593
 1823POPC   NC326795   5.434  18.812   9.459
 1823POPC   PO426796   5.034  19.333   9.221
 1823POPC   GL126797   5.243  19.023   8.974
 1823POPC   GL226798   5.158  18.682   9.067
 1823POPC   C1A26799   5.172  19.055   8.513
 1823POPC   D2A26800   4.849  19.236   8.208
 1823POPC   C3A26801   5.001  19.192   7.753
 1823POPC   C4A26802   5.337  19.117   7.396
 1823POPC   C1B26803   4.925  18.633   8.707
 1823POPC   C2B26804   4.752  18.700   8.284
 1823POPC   C3B26805   4.859  18.665   7.859
 1823POPC   C4B26806   5.229  18.729   7.699
 1824POPC   NC326807  18.064  15.577   9.580
 1824POPC   PO426808  18.659  15.891   9.458
 1824POPC   GL126809  18.285  15.851   9.184
 1824POPC   GL226810  18.170  16.201   9.139
 1824POPC   C1A26811  18.158  15.610   8.810
 1824POPC   D2A26812  18.299  15.648   8.355
 1824POPC   C3A26813  18.328  15.611   7.872
 1824POPC   C4A26814  18.030  15.396   7.590
 1824POPC   C1B26815  18.167  16.088   8.721
 1824POPC   C2B26816  18.259  16.191   8.334
 1824POPC   C3B26817  18.210  16.094   7.937
 1824POPC   C4B26818  18.546  16.137   7.664
 1825POPC   NC326819  17.854   8.806   9.387
 1825POPC   PO426820  17.333   9.146   9.555
 1825POPC   GL126821  17.483   9.074   9.128
 1825POPC   GL226822  17.801   9.177   9.049
 1825POPC   C1A26823  17.338   8.995   8.687
 1825POPC   D2A26824  17.245   9.207   8.277
 1825POPC   C3A26825  17.194   8.968   7.921
 1825POPC   C4A26826  17.421   8.604   7.812
 1825POPC   C1B26827  17.849   8.908   8.678
 1825POPC   C2B26828  17.638   8.827   8.264
 1825POPC   C3B26829  17.715   9.025   7.854
 1825POPC   C4B26830  17.457   9.363   7.713
 1826POPC   NC326831  19.941  16.521   9.415
 1826POPC   PO426832  20.106  17.166   9.158
 1826POPC   GL126833  19.744  16.930   8.977
 1826POPC   GL226834  19.680  16.552   8.976
 1826POPC   C1A26835  19.758  16.875   8.535
 1826POPC   D2A26836  19.741  16.569   8.196
 1826POPC   C3A26837  19.958  16.740   7.863
 1826POPC   C4A26838  20.177  17.053   7.680
 1826POPC   C1B26839  19.413  16.511   8.613
 1826POPC   C2B26840  19.286  16.876   8.345
 1826POPC   C3B26841  19.467  16.926   7.940
 1826POPC   C4B26842  19.491  16.532   7.738
 1827POPC   NC326843  13.904  24.884   9.534
 1827POPC   PO426844  13.561  24.330   9.551
 1827POPC   GL126845  13.587  24.646   9.217
 1827POPC   GL226846  13.902  24.458   9.164
 1827POPC   C1A26847  13.536  24.824   8.813
 1827POPC   D2A26848  13.575  24.656   8.424
 1827POPC   C3A26849  13.626  24.789   8.063
 1827POPC   C4A26850  13.478  24.635   7.715
 1827POPC   C1B26851  13.637  24.316   8.823
 1827POPC   C2B26852  13.251  24.306   8.566
 1827POPC   C3B26853  13.231  24.367   8.095
 1827POPC   C4B26854  13.328  24.147   7.690
 1828POPC   NC326855   4.157  10.153   9.503
 1828POPC   PO426856   4.638   9.655   9.634
 1828POPC   GL126857   4.428   9.798   9.225
 1828POPC   GL226858   4.076   9.716   9.203
 1828POPC   C1A26859   4.303   9.874   8.767
 1828POPC   D2A26860   4.203  10.038   8.363
 1828POPC   C3A26861   4.337   9.770   8.034
 1828POPC   C4A26862   4.459   9.847   7.622
 1828POPC   C1B26863   3.909   9.513   8.833
 1828POPC   C2B26864   3.968   9.606   8.417
 1828POPC   C3B26865   3.820   9.588   8.018
 1828POPC   C4B26866   3.876   9.569   7.574
 1829POPC   NC326867  29.380  11.704   9.750
 1829POPC   PO426868  29.168  12.295   9.757
 1829POPC   GL126869  29.261  12.147   9.316
 1829POPC   GL226870  29.416  11.813   9.204
 1829POPC   C1A26871  29.202  12.137   8.824
 1829POPC   D2A26872  29.061  12.271   8.391
 1829POPC   C3A26873  29.248  12.230   7.961
 1829POPC   C4A26874  29.101  12.096   7.538
 1829POPC   C1B26875  29.621  11.814   8.775
 1829POPC   C2B26876  29.418  11.854   8.368
 1829POPC   C3B26877  29.486  11.751   7.950
 1829POPC   C4B26878  29.596  11.367   7.753
 1830POPC   NC326879  39.546  23.553   9.204
 1830POPC   PO426880  40.005  23.729   9.679
 1830POPC   GL126881  40.102  23.611   9.215
 1830POPC   GL226882  40.383  23.809   9.200
 1830POPC   C1A26883  40.021  23.657   8.753
 1830POPC   D2A26884  39.937  23.917   8.401
 1830POPC   C3A26885  39.987  23.659   8.054
 1830POPC   C4A26886  39.886  23.535   7.625
 1830POPC   C1B26887  40.523  23.603   8.809
 1830POPC   C2B26888  40.370  23.507   8.386
 1830POPC   C3B26889  40.505  23.613   7.994
 1830POPC   C4B26890  40.426  23.519   7.600
 1831POPC   NC326891  11.143  16.121  10.027
 1831POPC   PO426892  11.262  15.798   9.433
 1831POPC   GL126893  11.174  16.010   9.045
 1831POPC   GL226894  11.488  16.198   9.042
 1831POPC   C1A26895  11.044  15.891   8.608
 1831POPC   D2A26896  11.261  15.765   8.216
 1831POPC   C3A26897  11.229  16.087   7.894
 1831POPC   C4A26898  11.203  16.149   7.452
 1831POPC   C1B26899  11.567  15.922   8.684
 1831POPC   C2B26900  11.785  15.831   8.304
 1831POPC   C3B26901  11.728  16.067   7.965
 1831POPC   C4B26902  11.663  15.972   7.532
 1832POPC   NC326903  10.097  17.649   9.308
 1832POPC   PO426904  10.343  17.317   9.838
 1832POPC   GL126905  10.408  17.257   9.320
 1832POPC   GL226906  10.656  17.084   9.152
 1832POPC   C1A26907  10.428  17.414   8.805
 1832POPC   D2A26908  10.560  17.816   8.535
 1832POPC   C3A26909  10.575  17.772   8.073
 1832POPC   C4A26910  10.370  17.666   7.693
 1832POPC   C1B26911  10.871  17.189   8.744
 1832POPC   C2B26912  10.715  17.347   8.324
 1832POPC   C3B26913  10.778  17.372   7.836
 1832POPC   C4B26914  10.620  17.339   7.380
 1833POPC   NC326915  24.283  42.804   9.415
 1833POPC   PO426916  24.573  43.431   9.484
 1833POPC   GL126917  24.442  43.256   9.089
 1833POPC   GL226918  24.152  43.045   9.001
 1833POPC   C1A26919  24.414  43.269   8.650
 1833POPC   D2A26920  24.413  43.013   8.333
 1833POPC   C3A26921  24.606  43.106   8.006
 1833POPC   C4A26922  24.479  43.440   7.776
 1833POPC   C1B26923  24.182  42.678   8.728
 1833POPC   C2B26924  24.362  42.527   8.311
 1833POPC   C3B26925  24.213  42.687   7.900
 1833POPC   C4B26926  24.367  42.980   7.585
 1834POPC   NC326927  39.641   4.614   9.583
 1834POPC   PO426928  40.166   4.148   9.382
 1834POPC   GL126929  39.949   4.261   9.028
 1834POPC   GL226930  39.672   4.359   9.165
 1834POPC   C1A26931  39.914   4.355   8.602
 1834POPC   D2A26932  40.249   4.485   8.341
 1834POPC   C3A26933  40.163   4.437   7.932
 1834POPC   C4A26934  40.162   4.627   7.556
 1834POPC   C1B26935  39.462   4.646   8.912
 1834POPC   C2B26936  39.448   4.619   8.485
 1834POPC   C3B26937  39.731   4.606   8.144
 1834POPC   C4B26938  39.676   4.465   7.723
 1835POPC   NC326939  16.960  24.418   9.625
 1835POPC   PO426940  17.598  24.484   9.538
 1835POPC   GL126941  17.577  24.635   9.166
 1835POPC   GL226942  17.927  24.673   9.111
 1835POPC   C1A26943  17.337  24.545   8.832
 1835POPC   D2A26944  17.431  24.695   8.457
 1835POPC   C3A26945  17.503  24.518   8.071
 1835POPC   C4A26946  17.223  24.639   7.778
 1835POPC   C1B26947  17.884  24.545   8.726
 1835POPC   C2B26948  17.938  24.767   8.380
 1835POPC   C3B26949  17.979  24.686   7.969
 1835POPC   C4B26950  17.726  24.716   7.595
 1836POPC   NC326951  31.606  19.261   9.370
 1836POPC   PO426952  31.034  18.902   9.406
 1836POPC   GL126953  31.195  19.029   9.059
 1836POPC   GL226954  31.486  18.883   9.055
 1836POPC   C1A26955  31.266  19.338   8.765
 1836POPC   D2A26956  31.258  19.407   8.332
 1836POPC   C3A26957  31.287  19.053   8.127
 1836POPC   C4A26958  31.158  19.030   7.722
 1836POPC   C1B26959  31.538  18.954   8.605
 1836POPC   C2B26960  31.787  19.089   8.208
 1836POPC   C3B26961  31.680  18.965   7.777
 1836POPC   C4B26962  31.529  18.794   7.383
 1837POPC   NC326963  38.374  12.582   9.437
 1837POPC   PO426964  38.772  13.091   9.520
 1837POPC   GL126965  38.534  12.938   9.108
 1837POPC   GL226966  38.147  12.935   9.138
 1837POPC   C1A26967  38.323  13.196   8.747
 1837POPC   D2A26968  38.264  13.057   8.346
 1837POPC   C3A26969  38.491  12.753   8.153
 1837POPC   C4A26970  38.504  12.779   7.718
 1837POPC   C1B26971  38.214  12.719   8.737
 1837POPC   C2B26972  37.947  12.688   8.352
 1837POPC   C3B26973  38.044  12.723   7.917
 1837POPC   C4B26974  38.083  12.661   7.446
 1838POPC   NC326975   7.010  14.723   9.701
 1838POPC   PO426976   7.668  14.488   9.706
 1838POPC   GL126977   7.633  14.408   9.212
 1838POPC   GL226978   7.259  14.401   9.106
 1838POPC   C1A26979   7.547  14.209   8.788
 1838POPC   D2A26980   7.311  14.407   8.441
 1838POPC   C3A26981   7.455  14.219   8.036
 1838POPC   C4A26982   7.599  14.059   7.632
 1838POPC   C1B26983   7.571  14.709   8.802
 1838POPC   C2B26984   7.686  14.899   8.428
 1838POPC   C3B26985   7.480  14.746   8.085
 1838POPC   C4B26986   7.412  14.580   7.672
 1839POPC   NC326987   0.451  39.887   9.336
 1839POPC   PO426988   0.277  40.464   9.531
 1839POPC   GL126989   0.338  40.326   9.079
 1839POPC   GL226990   0.694  40.250   9.066
 1839POPC   C1A26991   0.378  40.119   8.654
 1839POPC   D2A26992   0.404  39.734   8.376
 1839POPC   C3A26993   0.172  39.750   7.982
 1839POPC   C4A26994   0.156  40.054   7.657
 1839POPC   C1B26995   0.858  40.313   8.661
 1839POPC   C2B26996   0.776  40.390   8.230
 1839POPC   C3B26997   0.574  40.255   7.853
 1839POPC   C4B26998   0.585  40.051   7.400
 1840POPC   NC326999  23.397  28.536   9.961
 1840POPC   PO427000  23.879  28.450   9.473
 1840POPC   GL127001  23.869  28.427   9.048
 1840POPC   GL227002  23.987  28.789   9.040
 1840POPC   C1A27003  23.588  28.270   8.714
 1840POPC   D2A27004  23.660  28.207   8.293
 1840POPC   C3A27005  23.377  28.145   7.951
 1840POPC   C4A27006  23.479  28.351   7.563
 1840POPC   C1B27007  23.624  28.771   8.757
 1840POPC   C2B27008  23.500  28.712   8.354
 1840POPC   C3B27009  23.626  28.606   7.971
 1840POPC   C4B27010  23.860  28.753   7.649
 1841POPC   NC327011  24.707  37.610   9.764
 1841POPC   PO427012  25.310  37.598   9.407
 1841POPC   GL127013  25.122  37.881   9.153
 1841POPC   GL227014  25.414  38.011   8.994
 1841POPC   C1A27015  25.032  37.762   8.736
 1841POPC   D2A27016  25.278  37.898   8.405
 1841POPC   C3A27017  25.019  37.750   8.093
 1841POPC   C4A27018  25.051  37.553   7.723
 1841POPC   C1B27019  25.521  37.614   8.801
 1841POPC   C2B27020  25.680  37.553   8.420
 1841POPC   C3B27021  25.515  37.601   8.032
 1841POPC   C4B27022  25.538  37.466   7.617
 1842POPC   NC327023  35.874  25.895   9.355
 1842POPC   PO427024  36.330  25.414   9.586
 1842POPC   GL127025  36.295  25.680   9.136
 1842POPC   GL227026  36.306  26.050   9.112
 1842POPC   C1A27027  36.063  25.739   8.729
 1842POPC   D2A27028  36.172  25.612   8.305
 1842POPC   C3A27029  36.215  25.863   7.950
 1842POPC   C4A27030  35.899  25.846   7.612
 1842POPC   C1B27031  36.254  26.212   8.704
 1842POPC   C2B27032  36.012  26.129   8.335
 1842POPC   C3B27033  35.882  26.239   7.915
 1842POPC   C4B27034  36.262  26.224   7.587
 1843POPC   NC327035  20.379  37.830   9.430
 1843POPC   PO427036  20.795  37.371   9.291
 1843POPC   GL127037  20.747  37.792   9.075
 1843POPC   GL227038  20.414  37.958   8.946
 1843POPC   C1A27039  20.854  37.869   8.663
 1843POPC   D2A27040  21.049  37.688   8.329
 1843POPC   C3A27041  20.894  37.790   7.967
 1843POPC   C4A27042  20.752  37.502   7.657
 1843POPC   C1B27043  20.440  37.575   8.694
 1843POPC   C2B27044  20.523  37.544   8.228
 1843POPC   C3B27045  20.341  37.777   7.860
 1843POPC   C4B27046  20.264  37.771   7.402
 1844POPC   NC327047  40.074   7.144   9.554
 1844POPC   PO427048  39.810   7.819   9.523
 1844POPC   GL127049  39.680   7.384   9.250
 1844POPC   GL227050  39.965   7.208   9.068
 1844POPC   C1A27051  39.539   7.135   8.824
 1844POPC   D2A27052  39.736   7.146   8.401
 1844POPC   C3A27053  39.780   7.188   7.932
 1844POPC   C4A27054  40.020   7.555   7.720
 1844POPC   C1B27055  40.267   7.167   8.746
 1844POPC   C2B27056  40.239   7.056   8.314
 1844POPC   C3B27057  40.296   7.102   7.855
 1844POPC   C4B27058  40.346   7.241   7.444
 1845POPC   NC327059  20.394   2.350   9.469
 1845POPC   PO427060  20.551   3.016   9.442
 1845POPC   GL127061  20.673   2.618   9.162
 1845POPC   GL227062  20.369   2.450   8.982
 1845POPC   C1A27063  20.811   2.313   8.821
 1845POPC   D2A27064  20.542   2.305   8.492
 1845POPC   C3A27065  20.702   2.296   8.078
 1845POPC   C4A27066  20.570   2.529   7.713
 1845POPC   C1B27067  20.521   2.773   8.726
 1845POPC   C2B27068  20.396   2.808   8.335
 1845POPC   C3B27069  20.577   2.964   7.997
 1845POPC   C4B27070  20.295   3.005   7.661
 1846POPC   NC327071   2.665  18.614   9.511
 1846POPC   PO427072   2.986  18.022   9.543
 1846POPC   GL127073   2.731  18.197   9.209
 1846POPC   GL227074   2.998  18.413   9.163
 1846POPC   C1A27075   2.696  18.395   8.780
 1846POPC   D2A27076   2.989  18.349   8.444
 1846POPC   C3A27077   2.798  18.301   8.060
 1846POPC   C4A27078   2.445  18.306   7.804
 1846POPC   C1B27079   3.120  18.698   8.823
 1846POPC   C2B27080   3.149  18.831   8.401
 1846POPC   C3B27081   3.274  18.546   8.070
 1846POPC   C4B27082   3.085  18.466   7.674
 1847POPC   NC327083  25.666  40.608   9.350
 1847POPC   PO427084  26.269  40.872   9.539
 1847POPC   GL127085  26.051  40.891   9.170
 1847POPC   GL227086  25.919  41.204   9.212
 1847POPC   C1A27087  26.189  40.747   8.763
 1847POPC   D2A27088  26.300  40.911   8.356
 1847POPC   C3A27089  26.071  40.679   8.024
 1847POPC   C4A27090  26.194  40.654   7.565
 1847POPC   C1B27091  26.058  41.231   8.776
 1847POPC   C2B27092  25.810  41.043   8.453
 1847POPC   C3B27093  25.688  41.042   8.041
 1847POPC   C4B27094  25.956  41.082   7.732
 1848POPC   NC327095  43.866   4.602   9.588
 1848POPC   PO427096  43.911   3.972   9.620
 1848POPC   GL127097  43.866   4.211   9.229
 1848POPC   GL227098  43.595   4.385   9.193
 1848POPC   C1A27099  43.955   4.399   8.806
 1848POPC   D2A27100  44.063   4.318   8.365
 1848POPC   C3A27101  43.923   4.556   8.048
 1848POPC   C4A27102  43.914   4.502   7.613
 1848POPC   C1B27103  43.621   4.008   8.840
 1848POPC   C2B27104  43.689   3.942   8.378
 1848POPC   C3B27105  43.848   4.055   7.948
 1848POPC   C4B27106  43.828   4.035   7.451
 1849POPC   NC327107  40.574   3.915   9.340
 1849POPC   PO427108  40.666   3.335   9.680
 1849POPC   GL127109  40.721   3.403   9.221
 1849POPC   GL227110  40.861   3.134   9.012
 1849POPC   C1A27111  40.640   3.536   8.787
 1849POPC   D2A27112  40.471   3.558   8.381
 1849POPC   C3A27113  40.741   3.704   8.075
 1849POPC   C4A27114  40.670   3.545   7.673
 1849POPC   C1B27115  41.135   3.187   8.691
 1849POPC   C2B27116  41.098   3.386   8.298
 1849POPC   C3B27117  41.130   3.332   7.870
 1849POPC   C4B27118  41.285   3.214   7.488
 1850POPC   NC327119  44.812  43.328   9.410
 1850POPC   PO427120  44.298  43.519   9.821
 1850POPC   GL127121  44.303  43.432   9.327
 1850POPC   GL227122  44.426  43.086   9.213
 1850POPC   C1A27123  44.442  43.427   8.846
 1850POPC   D2A27124  44.737  43.228   8.515
 1850POPC   C3A27125  44.654  43.206   8.057
 1850POPC   C4A27126  44.854  43.398   7.692
 1850POPC   C1B27127  44.530  42.865   8.788
 1850POPC   C2B27128  44.566  42.766   8.325
 1850POPC   C3B27129  44.954  42.795   8.088
 1850POPC   C4B27130   0.085  42.699   7.669
 1851POPC   NC327131  23.950   1.699   9.547
 1851POPC   PO427132  23.507   2.113   9.475
 1851POPC   GL127133  23.591   1.958   9.089
 1851POPC   GL227134  23.788   1.655   9.071
 1851POPC   C1A27135  23.460   2.088   8.691
 1851POPC   D2A27136  23.438   1.935   8.260
 1851POPC   C3A27137  23.637   2.188   7.940
 1851POPC   C4A27138  23.524   2.127   7.521
 1851POPC   C1B27139  23.855   1.785   8.651
 1851POPC   C2B27140  23.959   1.889   8.228
 1851POPC   C3B27141  23.803   1.722   7.831
 1851POPC   C4B27142  24.015   1.557   7.478
 1852POPC   NC327143   7.448   2.160   9.569
 1852POPC   PO427144   7.321   1.538   9.609
 1852POPC   GL127145   7.224   1.694   9.207
 1852POPC   GL227146   7.360   1.998   9.110
 1852POPC   C1A27147   7.259   1.623   8.765
 1852POPC   D2A27148   7.148   1.812   8.387
 1852POPC   C3A27149   7.329   1.722   8.001
 1852POPC   C4A27150   7.324   1.932   7.632
 1852POPC   C1B27151   7.177   2.185   8.780
 1852POPC   C2B27152   7.336   2.295   8.391
 1852POPC   C3B27153   7.506   2.194   8.027
 1852POPC   C4B27154   7.512   2.388   7.651
 1853POPC   NC327155   5.635   4.810   9.769
 1853POPC   PO427156   5.978   5.263   9.495
 1853POPC   GL127157   5.776   5.247   9.060
 1853POPC   GL227158   6.095   5.239   9.003
 1853POPC   C1A27159   5.803   5.022   8.648
 1853POPC   D2A27160   5.995   4.923   8.227
 1853POPC   C3A27161   5.712   4.936   7.881
 1853POPC   C4A27162   5.502   4.875   7.484
 1853POPC   C1B27163   6.291   5.492   8.767
 1853POPC   C2B27164   6.153   5.389   8.386
 1853POPC   C3B27165   6.232   5.524   7.979
 1853POPC   C4B27166   6.065   5.285   7.691
 1854POPC   NC327167  28.980  27.710   9.401
 1854POPC   PO427168  29.610  27.545   9.247
 1854POPC   GL127169  29.357  27.676   8.977
 1854POPC   GL227170  29.089  27.471   8.939
 1854POPC   C1A27171  29.425  27.656   8.542
 1854POPC   D2A27172  29.468  27.459   8.174
 1854POPC   C3A27173  29.130  27.517   7.974
 1854POPC   C4A27174  28.744  27.486   7.938
 1854POPC   C1B27175  29.275  27.179   8.646
 1854POPC   C2B27176  29.151  27.055   8.213
 1854POPC   C3B27177  29.354  27.098   7.803
 1854POPC   C4B27178  29.299  27.108   7.355
 1855POPC   NC327179  33.898  40.450   9.469
 1855POPC   PO427180  33.435  40.992   9.574
 1855POPC   GL127181  33.603  40.764   9.201
 1855POPC   GL227182  33.335  40.569   9.081
 1855POPC   C1A27183  33.918  40.733   8.855
 1855POPC   D2A27184  33.996  40.943   8.460
 1855POPC   C3A27185  33.749  40.947   8.121
 1855POPC   C4A27186  33.781  41.065   7.703
 1855POPC   C1B27187  33.510  40.521   8.629
 1855POPC   C2B27188  33.766  40.449   8.243
 1855POPC   C3B27189  33.763  40.559   7.772
 1855POPC   C4B27190  33.558  40.427   7.363
 1856POPC   NC327191  43.359  19.450   9.546
 1856POPC   PO427192  43.899  19.954   9.512
 1856POPC   GL127193  43.863  19.894   9.104
 1856POPC   GL227194  43.607  19.685   9.118
 1856POPC   C1A27195  44.051  19.748   8.737
 1856POPC   D2A27196  43.994  19.992   8.371
 1856POPC   C3A27197  44.098  19.771   8.001
 1856POPC   C4A27198  43.881  19.787   7.623
 1856POPC   C1B27199  43.550  19.810   8.685
 1856POPC   C2B27200  43.658  19.644   8.268
 1856POPC   C3B27201  43.460  19.774   7.890
 1856POPC   C4B27202  43.399  19.597   7.503
 1857POPC   NC327203   1.017  38.986   9.346
 1857POPC   PO427204   1.335  39.411   9.715
 1857POPC   GL127205   1.292  39.409   9.249
 1857POPC   GL227206   1.480  39.124   9.128
 1857POPC   C1A27207   1.170  39.445   8.802
 1857POPC   D2A27208   1.351  39.577   8.394
 1857POPC   C3A27209   1.179  39.503   7.954
 1857POPC   C4A27210   1.074  39.370   7.542
 1857POPC   C1B27211   1.288  38.956   8.745
 1857POPC   C2B27212   1.141  38.924   8.327
 1857POPC   C3B27213   1.066  38.996   7.905
 1857POPC   C4B27214   1.214  38.875   7.502
 1858POPC   NC327215  31.616  44.289   9.309
 1858POPC   PO427216  31.514  44.858   9.676
 1858POPC   GL127217  31.368  44.730   9.235
 1858POPC   GL227218  31.062  44.483   9.237
 1858POPC   C1A27219  31.539  44.696   8.775
 1858POPC   D2A27220  31.452  44.581   8.317
 1858POPC   C3A27221  31.664  44.734   7.938
 1858POPC   C4A27222  31.560  44.923   7.563
 1858POPC   C1B27223  31.034  44.729   8.849
 1858POPC   C2B27224  31.224   0.005   8.511
 1858POPC   C3B27225  31.236   0.006   8.055
 1858POPC   C4B27226  31.042  44.916   7.655
 1859POPC   NC327227  12.354  12.132   9.578
 1859POPC   PO427228  11.657  12.083   9.636
 1859POPC   GL127229  11.968  12.092   9.259
 1859POPC   GL227230  12.291  11.943   9.108
 1859POPC   C1A27231  11.984  12.292   8.845
 1859POPC   D2A27232  12.202  12.280   8.486
 1859POPC   C3A27233  11.988  12.254   8.101
 1859POPC   C4A27234  12.165  12.264   7.704
 1859POPC   C1B27235  11.934  11.777   8.849
 1859POPC   C2B27236  11.910  11.845   8.417
 1859POPC   C3B27237  12.102  11.728   8.053
 1859POPC   C4B27238  12.253  11.761   7.652
 1860POPC   NC327239  38.776  43.887   9.734
 1860POPC   PO427240  38.357  43.511   9.363
 1860POPC   GL127241  38.558  43.703   9.043
 1860POPC   GL227242  38.852  43.854   9.224
 1860POPC   C1A27243  38.358  43.925   8.687
 1860POPC   D2A27244  38.098  43.845   8.340
 1860POPC   C3A27245  38.279  43.978   7.951
 1860POPC   C4A27246  38.701  43.812   7.853
 1860POPC   C1B27247  38.767  44.146   8.896
 1860POPC   C2B27248  38.769  44.215   8.478
 1860POPC   C3B27249  38.729  44.317   8.063
 1860POPC   C4B27250  38.589  44.270   7.656
 1861POPC   NC327251  17.012  32.078   9.464
 1861POPC   PO427252  16.616  32.557   9.751
 1861POPC   GL127253  16.642  32.310   9.247
 1861POPC   GL227254  16.943  32.461   9.122
 1861POPC   C1A27255  16.556  32.409   8.737
 1861POPC   D2A27256  16.629  32.586   8.306
 1861POPC   C3A27257  16.687  32.248   7.977
 1861POPC   C4A27258  16.630  32.274   7.522
 1861POPC   C1B27259  16.977  32.132   8.796
 1861POPC   C2B27260  17.039  32.293   8.378
 1861POPC   C3B27261  17.162  32.418   7.983
 1861POPC   C4B27262  17.073  32.082   7.673
 1862POPC   NC327263  33.409  24.247   9.475
 1862POPC   PO427264  33.974  24.617   9.457
 1862POPC   GL127265  33.688  24.549   9.148
 1862POPC   GL227266  33.776  24.227   9.118
 1862POPC   C1A27267  33.638  24.641   8.725
 1862POPC   D2A27268  33.804  24.794   8.335
 1862POPC   C3A27269  33.685  24.583   7.933
 1862POPC   C4A27270  33.679  24.735   7.515
 1862POPC   C1B27271  34.013  24.302   8.754
 1862POPC   C2B27272  33.806  24.261   8.350
 1862POPC   C3B27273  33.831  24.067   7.938
 1862POPC   C4B27274  34.038  23.932   7.549
 1863POPC   NC327275  35.238  23.436   9.303
 1863POPC   PO427276  34.997  24.066   9.477
 1863POPC   GL127277  35.170  23.940   9.123
 1863POPC   GL227278  35.512  23.833   9.155
 1863POPC   C1A27279  35.301  24.057   8.724
 1863POPC   D2A27280  35.515  23.923   8.361
 1863POPC   C3A27281  35.305  23.674   8.054
 1863POPC   C4A27282  35.073  23.805   7.699
 1863POPC   C1B27283  35.504  23.589   8.762
 1863POPC   C2B27284  35.645  23.449   8.402
 1863POPC   C3B27285  35.853  23.644   8.076
 1863POPC   C4B27286  35.668  23.637   7.689
 1864POPC   NC327287  15.606  41.286   9.880
 1864POPC   PO427288  15.575  41.861   9.526
 1864POPC   GL127289  15.420  41.835   9.058
 1864POPC   GL227290  15.138  41.584   9.060
 1864POPC   C1A27291  15.298  41.768   8.592
 1864POPC   D2A27292  15.131  41.715   8.140
 1864POPC   C3A27293  15.381  41.821   7.770
 1864POPC   C4A27294  15.379  41.810   7.293
 1864POPC   C1B27295  15.272  41.264   8.727
 1864POPC   C2B27296  15.287  41.230   8.261
 1864POPC   C3B27297  14.987  41.241   7.925
 1864POPC   C4B27298  14.921  41.123   7.462
 1865POPC   NC327299  38.287   5.540   9.602
 1865POPC   PO427300  38.638   6.101   9.675
 1865POPC   GL127301  38.442   5.949   9.250
 1865POPC   GL227302  38.535   5.624   9.160
 1865POPC   C1A27303  38.517   6.107   8.787
 1865POPC   D2A27304  38.283   6.045   8.372
 1865POPC   C3A27305  38.421   6.182   7.951
 1865POPC   C4A27306  38.589   6.401   7.577
 1865POPC   C1B27307  38.404   5.634   8.730
 1865POPC   C2B27308  38.293   5.506   8.396
 1865POPC   C3B27309  38.192   5.652   8.037
 1865POPC   C4B27310  38.428   5.595   7.717
 1866POPC   NC327311   0.628  44.990   9.941
 1866POPC   PO427312   0.171  44.794   9.536
 1866POPC   GL127313   0.071  44.830   9.134
 1866POPC   GL227314   0.279  44.511   9.045
 1866POPC   C1A27315   0.212  44.876   8.707
 1866POPC   D2A27316   0.331  44.501   8.419
 1866POPC   C3A27317   0.186  44.507   7.981
 1866POPC   C4A27318   0.115  44.846   7.664
 1866POPC   C1B27319   0.670  44.636   8.790
 1866POPC   C2B27320   0.962  44.622   8.438
 1866POPC   C3B27321   0.757  44.467   8.091
 1866POPC   C4B27322   0.588  44.412   7.685
 1867POPC   NC327323  12.226  25.632   9.465
 1867POPC   PO427324  11.807  26.084   9.504
 1867POPC   GL127325  11.712  26.092   9.098
 1867POPC   GL227326  11.715  25.702   9.129
 1867POPC   C1A27327  12.048  26.244   8.815
 1867POPC   D2A27328  12.266  26.042   8.472
 1867POPC   C3A27329  12.170  26.128   8.037
 1867POPC   C4A27330  12.325  26.330   7.685
 1867POPC   C1B27331  11.865  25.766   8.711
 1867POPC   C2B27332  11.809  25.830   8.292
 1867POPC   C3B27333  11.917  25.708   7.902
 1867POPC   C4B27334  11.787  26.033   7.642
 1868POPC   NC327335   1.115  27.399   9.383
 1868POPC   PO427336   1.513  27.902   9.415
 1868POPC   GL127337   1.180  27.840   9.110
 1868POPC   GL227338   1.344  27.555   8.975
 1868POPC   C1A27339   1.135  27.841   8.634
 1868POPC   D2A27340   1.314  27.817   8.231
 1868POPC   C3A27341   1.011  27.593   8.026
 1868POPC   C4A27342   0.868  27.604   7.604
 1868POPC   C1B27343   1.469  27.446   8.577
 1868POPC   C2B27344   1.425  27.288   8.195
 1868POPC   C3B27345   1.440  27.499   7.810
 1868POPC   C4B27346   1.317  27.342   7.415
 1869POPC   NC327347  31.411  40.339   9.735
 1869POPC   PO427348  31.495  39.774   9.532
 1869POPC   GL127349  31.558  40.153   9.243
 1869POPC   GL227350  31.248  40.171   9.043
 1869POPC   C1A27351  31.686  40.221   8.790
 1869POPC   D2A27352  31.703  39.959   8.405
 1869POPC   C3A27353  31.460  40.133   8.073
 1869POPC   C4A27354  31.318  40.249   7.623
 1869POPC   C1B27355  31.231  39.915   8.665
 1869POPC   C2B27356  31.025  39.891   8.261
 1869POPC   C3B27357  31.158  39.804   7.834
 1869POPC   C4B27358  31.118  39.841   7.363
 1870POPC   NC327359  34.068  26.742   9.479
 1870POPC   PO427360  33.578  27.224   9.531
 1870POPC   GL127361  33.752  27.025   9.169
 1870POPC   GL227362  33.696  26.673   9.132
 1870POPC   C1A27363  33.634  27.035   8.748
 1870POPC   D2A27364  33.500  27.162   8.354
 1870POPC   C3A27365  33.755  26.942   8.025
 1870POPC   C4A27366  33.847  26.855   7.580
 1870POPC   C1B27367  33.616  26.526   8.715
 1870POPC   C2B27368  33.778  26.464   8.266
 1870POPC   C3B27369  33.566  26.518   7.829
 1870POPC   C4B27370  33.469  26.410   7.419
 1871POPC   NC327371   4.236  30.808   9.376
 1871POPC   PO427372   4.740  30.517   9.664
 1871POPC   GL127373   4.720  30.664   9.208
 1871POPC   GL227374   4.459  30.475   9.036
 1871POPC   C1A27375   4.661  30.855   8.776
 1871POPC   D2A27376   4.606  30.592   8.415
 1871POPC   C3A27377   4.505  30.773   8.009
 1871POPC   C4A27378   4.536  30.595   7.589
 1871POPC   C1B27379   4.175  30.686   8.730
 1871POPC   C2B27380   4.024  30.861   8.343
 1871POPC   C3B27381   4.019  30.715   7.922
 1871POPC   C4B27382   4.119  30.834   7.519
 1872POPC   NC327383  34.484  20.848   9.372
 1872POPC   PO427384  34.641  20.189   9.421
 1872POPC   GL127385  34.434  20.235   9.054
 1872POPC   GL227386  34.304  20.532   9.050
 1872POPC   C1A27387  34.554  20.398   8.646
 1872POPC   D2A27388  34.679  20.211   8.288
 1872POPC   C3A27389  34.564  20.491   8.024
 1872POPC   C4A27390  34.522  20.517   7.649
 1872POPC   C1B27391  34.160  20.765   8.704
 1872POPC   C2B27392  34.081  20.908   8.310
 1872POPC   C3B27393  34.248  20.877   7.898
 1872POPC   C4B27394  34.432  20.947   7.459
 1873POPC   NC327395  22.488  44.109   9.494
 1873POPC   PO427396  22.051  43.647   9.368
 1873POPC   GL127397  22.094  43.918   9.053
 1873POPC   GL227398  22.447  43.851   9.041
 1873POPC   C1A27399  21.834  43.929   8.659
 1873POPC   D2A27400  21.804  43.786   8.210
 1873POPC   C3A27401  21.878  44.125   7.925
 1873POPC   C4A27402  22.265  44.255   7.748
 1873POPC   C1B27403  22.375  43.955   8.611
 1873POPC   C2B27404  22.364  43.954   8.158
 1873POPC   C3B27405  22.183  43.731   7.809
 1873POPC   C4B27406  21.854  43.486   7.716
 1874POPC   NC327407  32.215  28.816   9.434
 1874POPC   PO427408  32.406  28.249   9.760
 1874POPC   GL127409  32.220  28.245   9.304
 1874POPC   GL227410  31.970  28.006   9.242
 1874POPC   C1A27411  32.287  28.256   8.845
 1874POPC   D2A27412  32.489  28.050   8.471
 1874POPC   C3A27413  32.458  28.319   8.078
 1874POPC   C4A27414  32.166  28.515   7.760
 1874POPC   C1B27415  31.779  28.160   8.857
 1874POPC   C2B27416  31.945  28.174   8.439
 1874POPC   C3B27417  31.830  28.250   8.029
 1874POPC   C4B27418  31.992  28.063   7.660
 1875POPC   NC327419   4.308  38.839   9.691
 1875POPC   PO427420   4.489  39.488   9.484
 1875POPC   GL127421   4.519  39.289   9.110
 1875POPC   GL227422   4.655  39.023   9.301
 1875POPC   C1A27423   4.453  39.317   8.637
 1875POPC   D2A27424   4.534  39.323   8.200
 1875POPC   C3A27425   4.167  39.232   7.966
 1875POPC   C4A27426   4.105  39.060   7.561
 1875POPC   C1B27427   4.734  38.831   8.913
 1875POPC   C2B27428   4.781  38.926   8.491
 1875POPC   C3B27429   4.696  38.796   8.079
 1875POPC   C4B27430   4.591  39.048   7.743
 1876POPC   NC327431  34.806   8.444   9.481
 1876POPC   PO427432  34.663   7.744   9.523
 1876POPC   GL127433  34.761   7.984   9.216
 1876POPC   GL227434  34.474   8.164   9.217
 1876POPC   C1A27435  34.776   8.158   8.818
 1876POPC   D2A27436  34.867   8.033   8.440
 1876POPC   C3A27437  34.693   8.170   8.082
 1876POPC   C4A27438  34.714   7.996   7.682
 1876POPC   C1B27439  34.304   8.323   8.823
 1876POPC   C2B27440  34.355   8.058   8.471
 1876POPC   C3B27441  34.203   8.073   8.041
 1876POPC   C4B27442  34.385   8.404   7.740
 1877POPC   NC327443   8.704   6.478   9.371
 1877POPC   PO427444   9.310   6.330   9.544
 1877POPC   GL127445   9.189   6.488   9.163
 1877POPC   GL227446   9.003   6.160   9.116
 1877POPC   C1A27447   9.158   6.813   8.795
 1877POPC   D2A27448   8.804   6.830   8.461
 1877POPC   C3A27449   8.962   6.901   8.037
 1877POPC   C4A27450   9.292   6.705   7.818
 1877POPC   C1B27451   8.913   6.382   8.740
 1877POPC   C2B27452   9.157   6.464   8.382
 1877POPC   C3B27453   9.024   6.302   8.025
 1877POPC   C4B27454   8.716   6.513   7.834
 1878POPC   NC327455  39.299  15.956   9.586
 1878POPC   PO427456  38.889  15.762   9.480
 1878POPC   GL127457  39.135  15.860   9.086
 1878POPC   GL227458  39.177  16.223   9.153
 1878POPC   C1A27459  39.259  15.750   8.616
 1878POPC   D2A27460  39.486  15.762   8.185
 1878POPC   C3A27461  39.329  15.704   7.791
 1878POPC   C4A27462  39.123  15.947   7.476
 1878POPC   C1B27463  39.057  16.206   8.710
 1878POPC   C2B27464  39.146  16.129   8.259
 1878POPC   C3B27465  39.340  16.218   7.855
 1878POPC   C4B27466  39.355  16.405   7.420
 1879POPC   NC327467  37.376   2.064   9.522
 1879POPC   PO427468  37.970   2.285   9.339
 1879POPC   GL127469  37.685   2.029   9.125
 1879POPC   GL227470  37.450   2.307   9.072
 1879POPC   C1A27471  37.618   1.673   8.851
 1879POPC   D2A27472  37.671   1.598   8.408
 1879POPC   C3A27473  37.570   1.903   8.085
 1879POPC   C4A27474  37.933   2.054   7.868
 1879POPC   C1B27475  37.396   2.150   8.663
 1879POPC   C2B27476  37.433   2.381   8.269
 1879POPC   C3B27477  37.339   2.374   7.833
 1879POPC   C4B27478  37.534   2.129   7.491
 1880POPC   NC327479  19.439  35.470   9.553
 1880POPC   PO427480  18.930  35.054   9.569
 1880POPC   GL127481  19.111  35.150   9.167
 1880POPC   GL227482  19.311  35.434   9.070
 1880POPC   C1A27483  18.921  35.286   8.761
 1880POPC   D2A27484  18.959  35.657   8.471
 1880POPC   C3A27485  18.880  35.514   8.042
 1880POPC   C4A27486  18.952  35.109   7.903
 1880POPC   C1B27487  19.415  35.330   8.629
 1880POPC   C2B27488  19.403  35.525   8.245
 1880POPC   C3B27489  19.371  35.389   7.828
 1880POPC   C4B27490  19.410  35.229   7.413
 1881POPC   NC327491  29.754  20.862   9.294
 1881POPC   PO427492  30.077  20.352   9.514
 1881POPC   GL127493  30.132  20.440   9.083
 1881POPC   GL227494  30.213  20.795   9.000
 1881POPC   C1A27495  30.110  20.271   8.690
 1881POPC   D2A27496  30.058  20.411   8.285
 1881POPC   C3A27497  29.828  20.209   8.000
 1881POPC   C4A27498  29.851  20.408   7.670
 1881POPC   C1B27499  29.861  20.710   8.700
 1881POPC   C2B27500  29.576  20.877   8.440
 1881POPC   C3B27501  29.735  20.793   8.068
 1881POPC   C4B27502  29.590  20.848   7.687
 1882POPC   NC327503  18.937  44.177   9.822
 1882POPC   PO427504  19.127  44.813   9.662
 1882POPC   GL127505  18.999  44.866   9.210
 1882POPC   GL227506  18.752  44.616   9.189
 1882POPC   C1A27507  19.021  44.722   8.760
 1882POPC   D2A27508  19.193  44.593   8.381
 1882POPC   C3A27509  19.043  44.845   8.064
 1882POPC   C4A27510  19.191  44.805   7.640
 1882POPC   C1B27511  18.543  44.552   8.796
 1882POPC   C2B27512  18.659  44.581   8.346
 1882POPC   C3B27513  18.890  44.357   8.005
 1882POPC   C4B27514  19.258  44.086   7.872
 1883POPC   NC327515  21.650  19.897   9.460
 1883POPC   PO427516  21.030  19.714   9.483
 1883POPC   GL127517  21.229  19.654   9.141
 1883POPC   GL227518  21.467  19.437   9.232
 1883POPC   C1A27519  21.229  19.790   8.692
 1883POPC   D2A27520  21.503  19.930   8.338
 1883POPC   C3A27521  21.405  19.935   7.904
 1883POPC   C4A27522  21.301  19.998   7.477
 1883POPC   C1B27523  21.379  19.304   8.826
 1883POPC   C2B27524  21.486  19.424   8.425
 1883POPC   C3B27525  21.559  19.429   8.014
 1883POPC   C4B27526  21.277  19.474   7.671
 1884POPC   NC327527  13.520  27.102   9.413
 1884POPC   PO427528  14.116  26.706   9.465
 1884POPC   GL127529  13.830  26.660   9.109
 1884POPC   GL227530  13.487  26.752   9.021
 1884POPC   C1A27531  13.808  26.720   8.633
 1884POPC   D2A27532  13.471  26.682   8.358
 1884POPC   C3A27533  13.614  26.515   7.994
 1884POPC   C4A27534  13.845  26.359   7.674
 1884POPC   C1B27535  13.569  27.146   8.763
 1884POPC   C2B27536  13.599  27.178   8.333
 1884POPC   C3B27537  13.484  27.009   7.918
 1884POPC   C4B27538  13.843  26.868   7.666
 1885POPC   NC327539  43.349  43.568   9.453
 1885POPC   PO427540  42.898  44.032   9.541
 1885POPC   GL127541  43.099  43.944   9.186
 1885POPC   GL227542  42.909  43.638   9.159
 1885POPC   C1A27543  43.256  43.803   8.804
 1885POPC   D2A27544  43.328  43.685   8.400
 1885POPC   C3A27545  43.212  43.936   8.081
 1885POPC   C4A27546  43.233  43.845   7.670
 1885POPC   C1B27547  42.743  43.805   8.759
 1885POPC   C2B27548  42.810  43.634   8.333
 1885POPC   C3B27549  42.739  43.796   7.930
 1885POPC   C4B27550  42.873  44.178   7.763
 1886POPC   NC327551  28.696  31.005   9.446
 1886POPC   PO427552  28.559  30.344   9.517
 1886POPC   GL127553  28.462  30.608   9.191
 1886POPC   GL227554  28.814  30.625   9.122
 1886POPC   C1A27555  28.277  30.715   8.794
 1886POPC   D2A27556  28.101  30.758   8.376
 1886POPC   C3A27557  28.340  30.548   8.059
 1886POPC   C4A27558  28.414  30.722   7.682
 1886POPC   C1B27559  28.808  30.799   8.733
 1886POPC   C2B27560  28.646  30.831   8.337
 1886POPC   C3B27561  28.829  30.955   7.927
 1886POPC   C4B27562  28.709  31.221   7.616
 1887POPC   NC327563  19.118  30.676   9.617
 1887POPC   PO427564  18.680  31.156   9.364
 1887POPC   GL127565  18.960  30.824   9.109
 1887POPC   GL227566  18.985  30.509   9.131
 1887POPC   C1A27567  19.205  30.811   8.719
 1887POPC   D2A27568  19.162  31.015   8.285
 1887POPC   C3A27569  19.140  30.749   7.906
 1887POPC   C4A27570  19.416  30.649   7.591
 1887POPC   C1B27571  18.737  30.513   8.770
 1887POPC   C2B27572  18.865  30.590   8.370
 1887POPC   C3B27573  18.769  30.427   8.009
 1887POPC   C4B27574  18.659  30.665   7.665
 1888POPC   NC327575  30.250  13.417   9.665
 1888POPC   PO427576  29.744  13.905   9.507
 1888POPC   GL127577  29.956  13.686   9.194
 1888POPC   GL227578  30.040  13.329   9.177
 1888POPC   C1A27579  30.093  13.697   8.777
 1888POPC   D2A27580  29.920  13.566   8.407
 1888POPC   C3A27581  30.160  13.692   8.114
 1888POPC   C4A27582  30.138  13.755   7.697
 1888POPC   C1B27583  29.996  13.181   8.746
 1888POPC   C2B27584  30.078  13.122   8.253
 1888POPC   C3B27585  29.938  13.294   7.852
 1888POPC   C4B27586  30.120  13.325   7.447
 1889POPC   NC327587  18.440  43.096   9.573
 1889POPC   PO427588  17.911  43.295   9.241
 1889POPC   GL127589  18.226  43.155   9.042
 1889POPC   GL227590  18.250  42.870   9.145
 1889POPC   C1A27591  18.451  43.093   8.665
 1889POPC   D2A27592  18.453  43.361   8.330
 1889POPC   C3A27593  18.407  43.186   7.906
 1889POPC   C4A27594  18.426  43.206   7.435
 1889POPC   C1B27595  18.120  42.711   8.739
 1889POPC   C2B27596  18.123  42.771   8.292
 1889POPC   C3B27597  18.435  42.703   7.986
 1889POPC   C4B27598  18.629  42.613   7.620
 1890POPC   NC327599  37.408  28.835   9.572
 1890POPC   PO427600  37.930  29.199   9.368
 1890POPC   GL127601  37.697  28.935   9.111
 1890POPC   GL227602  37.453  29.155   9.114
 1890POPC   C1A27603  37.630  28.850   8.667
 1890POPC   D2A27604  37.572  28.835   8.225
 1890POPC   C3A27605  37.876  29.056   7.977
 1890POPC   C4A27606  37.974  29.137   7.537
 1890POPC   C1B27607  37.617  29.361   8.715
 1890POPC   C2B27608  37.565  29.380   8.253
 1890POPC   C3B27609  37.828  29.596   7.961
 1890POPC   C4B27610  37.951  29.701   7.551
 1891POPC   NC327611   2.692  31.108   9.510
 1891POPC   PO427612   3.037  31.756   9.510
 1891POPC   GL127613   2.955  31.500   9.209
 1891POPC   GL227614   2.627  31.514   9.180
 1891POPC   C1A27615   2.980  31.477   8.773
 1891POPC   D2A27616   3.233  31.487   8.389
 1891POPC   C3A27617   2.992  31.535   8.004
 1891POPC   C4A27618   3.085  31.457   7.554
 1891POPC   C1B27619   2.414  31.315   8.864
 1891POPC   C2B27620   2.556  31.209   8.478
 1891POPC   C3B27621   2.627  31.136   8.071
 1891POPC   C4B27622   2.570  31.404   7.731
 1892POPC   NC327623  44.349  24.104   9.630
 1892POPC   PO427624  44.791  24.634   9.467
 1892POPC   GL127625  44.784  24.428   9.092
 1892POPC   GL227626  44.494  24.228   9.154
 1892POPC   C1A27627  44.896  24.400   8.659
 1892POPC   D2A27628  44.673  24.448   8.259
 1892POPC   C3A27629  44.911  24.616   7.938
 1892POPC   C4A27630   0.136  24.482   7.606
 1892POPC   C1B27631  44.395  24.378   8.748
 1892POPC   C2B27632  44.083  24.403   8.467
 1892POPC   C3B27633  44.202  24.298   8.085
 1892POPC   C4B27634  44.499  24.379   7.767
 1893POPC   NC327635  22.579   8.035   9.486
 1893POPC   PO427636  22.009   7.995   9.156
 1893POPC   GL127637  22.278   8.041   8.920
 1893POPC   GL227638  22.368   8.363   8.964
 1893POPC   C1A27639  22.129   8.009   8.508
 1893POPC   D2A27640  21.807   8.013   8.242
 1893POPC   C3A27641  22.092   8.130   7.938
 1893POPC   C4A27642  22.252   7.828   7.714
 1893POPC   C1B27643  22.509   8.344   8.573
 1893POPC   C2B27644  22.416   8.505   8.193
 1893POPC   C3B27645  22.552   8.393   7.793
 1893POPC   C4B27646  22.377   8.235   7.403
 1894POPC   NC327647  23.361   3.389   9.340
 1894POPC   PO427648  22.752   3.669   9.499
 1894POPC   GL127649  22.736   3.396   9.132
 1894POPC   GL227650  22.441   3.553   9.035
 1894POPC   C1A27651  22.846   3.375   8.689
 1894POPC   D2A27652  23.155   3.588   8.411
 1894POPC   C3A27653  23.156   3.515   7.953
 1894POPC   C4A27654  22.987   3.187   7.727
 1894POPC   C1B27655  22.791   3.869   8.883
 1894POPC   C2B27656  22.959   4.039   8.509
 1894POPC   C3B27657  22.832   3.891   8.098
 1894POPC   C4B27658  22.743   3.712   7.665
 1895POPC   NC327659   2.877   5.357   9.437
 1895POPC   PO427660   2.861   4.720   9.200
 1895POPC   GL127661   2.605   5.026   9.109
 1895POPC   GL227662   2.335   4.835   8.946
 1895POPC   C1A27663   2.766   5.257   8.788
 1895POPC   D2A27664   2.947   5.162   8.406
 1895POPC   C3A27665   2.817   5.422   8.118
 1895POPC   C4A27666   2.610   5.362   7.717
 1895POPC   C1B27667   2.545   4.846   8.595
 1895POPC   C2B27668   2.469   5.052   8.195
 1895POPC   C3B27669   2.503   4.842   7.809
 1895POPC   C4B27670   2.455   4.943   7.400
 1896POPC   NC327671  14.491  27.275   9.841
 1896POPC   PO427672  13.995  27.645   9.755
 1896POPC   GL127673  14.313  27.637   9.346
 1896POPC   GL227674  14.619  27.719   9.167
 1896POPC   C1A27675  14.297  27.585   8.822
 1896POPC   D2A27676  14.430  27.397   8.435
 1896POPC   C3A27677  14.181  27.474   8.061
 1896POPC   C4A27678  14.239  27.256   7.654
 1896POPC   C1B27679  14.821  27.662   8.753
 1896POPC   C2B27680  14.838  27.667   8.314
 1896POPC   C3B27681  14.689  27.465   7.954
 1896POPC   C4B27682  14.878  27.731   7.693
 1897POPC   NC327683  18.194  25.802   9.625
 1897POPC   PO427684  18.801  25.899   9.440
 1897POPC   GL127685  18.396  25.958   9.118
 1897POPC   GL227686  18.251  26.316   9.015
 1897POPC   C1A27687  18.238  25.980   8.669
 1897POPC   D2A27688  18.497  26.042   8.345
 1897POPC   C3A27689  18.297  25.871   8.000
 1897POPC   C4A27690  17.923  25.934   7.762
 1897POPC   C1B27691  18.061  26.510   8.708
 1897POPC   C2B27692  17.834  26.466   8.381
 1897POPC   C3B27693  18.050  26.330   8.065
 1897POPC   C4B27694  17.950  26.459   7.688
 1898POPC   NC327695  34.820  16.248   9.415
 1898POPC   PO427696  35.122  15.691   9.575
 1898POPC   GL127697  35.262  15.785   9.174
 1898POPC   GL227698  35.253  15.466   9.044
 1898POPC   C1A27699  35.136  15.921   8.758
 1898POPC   D2A27700  35.338  15.897   8.352
 1898POPC   C3A27701  35.165  15.921   7.957
 1898POPC   C4A27702  35.159  16.190   7.575
 1898POPC   C1B27703  35.548  15.611   8.719
 1898POPC   C2B27704  35.646  15.504   8.272
 1898POPC   C3B27705  35.550  15.583   7.818
 1898POPC   C4B27706  35.566  15.889   7.457
 1899POPC   NC327707  42.087  13.941   9.425
 1899POPC   PO427708  42.508  14.485   9.465
 1899POPC   GL127709  42.173  14.409   9.144
 1899POPC   GL227710  42.398  14.489   8.896
 1899POPC   C1A27711  41.941  14.257   8.774
 1899POPC   D2A27712  42.181  14.388   8.424
 1899POPC   C3A27713  42.251  14.398   8.000
 1899POPC   C4A27714  42.667  14.401   7.797
 1899POPC   C1B27715  42.424  14.814   8.597
 1899POPC   C2B27716  42.143  14.927   8.261
 1899POPC   C3B27717  42.207  14.873   7.804
 1899POPC   C4B27718  42.406  14.922   7.419
 1900POPC   NC327719  17.363  10.255   9.514
 1900POPC   PO427720  17.256  10.905   9.400
 1900POPC   GL127721  17.350  10.580   9.108
 1900POPC   GL227722  17.704  10.455   9.112
 1900POPC   C1A27723  17.385  10.447   8.700
 1900POPC   D2A27724  17.657  10.417   8.350
 1900POPC   C3A27725  17.585  10.696   8.039
 1900POPC   C4A27726  17.464  10.946   7.725
 1900POPC   C1B27727  17.789  10.138   8.768
 1900POPC   C2B27728  17.829   9.903   8.406
 1900POPC   C3B27729  17.959  10.101   8.045
 1900POPC   C4B27730  17.790  10.364   7.710
 1901POPC   NC327731  19.427  13.804   9.584
 1901POPC   PO427732  20.107  13.682   9.580
 1901POPC   GL127733  19.892  13.736   9.197
 1901POPC   GL227734  19.619  13.492   9.176
 1901POPC   C1A27735  19.798  13.702   8.749
 1901POPC   D2A27736  19.593  13.539   8.375
 1901POPC   C3A27737  19.757  13.672   7.970
 1901POPC   C4A27738  19.948  13.458   7.640
 1901POPC   C1B27739  19.383  13.259   8.821
 1901POPC   C2B27740  19.248  13.174   8.371
 1901POPC   C3B27741  19.328  13.350   7.969
 1901POPC   C4B27742  19.494  13.250   7.566
 1902POPC   NC327743   1.671  33.245   9.332
 1902POPC   PO427744   0.913  33.252   9.352
 1902POPC   GL127745   1.206  33.124   9.042
 1902POPC   GL227746   1.386  33.396   8.966
 1902POPC   C1A27747   1.175  33.095   8.592
 1902POPC   D2A27748   0.987  33.182   8.229
 1902POPC   C3A27749   1.026  32.776   8.044
 1902POPC   C4A27750   1.110  32.878   7.644
 1902POPC   C1B27751   1.640  33.022   8.754
 1902POPC   C2B27752   1.663  33.079   8.359
 1902POPC   C3B27753   1.460  33.048   8.003
 1902POPC   C4B27754   1.773  33.031   7.713
 1903POPC   NC327755   7.889  16.316   9.340
 1903POPC   PO427756   7.652  15.833   9.665
 1903POPC   GL127757   7.491  15.938   9.212
 1903POPC   GL227758   7.178  16.150   9.137
 1903POPC   C1A27759   7.306  15.805   8.779
 1903POPC   D2A27760   7.473  15.710   8.358
 1903POPC   C3A27761   7.257  15.803   7.968
 1903POPC   C4A27762   7.401  15.756   7.523
 1903POPC   C1B27763   7.493  16.324   8.832
 1903POPC   C2B27764   7.642  16.206   8.443
 1903POPC   C3B27765   7.719  16.285   8.022
 1903POPC   C4B27766   7.387  16.248   7.737
 1904POPC   NC327767  29.832  34.343   9.418
 1904POPC   PO427768  30.121  34.961   9.538
 1904POPC   GL127769  30.045  34.788   9.148
 1904POPC   GL227770  29.702  34.759   9.181
 1904POPC   C1A27771  30.199  34.599   8.749
 1904POPC   D2A27772  30.251  34.365   8.342
 1904POPC   C3A27773  30.197  34.577   7.925
 1904POPC   C4A27774  29.987  34.890   7.617
 1904POPC   C1B27775  29.682  34.595   8.760
 1904POPC   C2B27776  29.849  34.695   8.357
 1904POPC   C3B27777  29.688  34.629   7.958
 1904POPC   C4B27778  29.513  34.235   7.860
 1905POPC   NC327779  29.011  22.398   9.553
 1905POPC   PO427780  28.703  21.801   9.461
 1905POPC   GL127781  28.998  22.067   9.137
 1905POPC   GL227782  29.244  21.881   8.954
 1905POPC   C1A27783  29.083  22.312   8.720
 1905POPC   D2A27784  28.925  22.577   8.355
 1905POPC   C3A27785  29.044  22.397   7.960
 1905POPC   C4A27786  29.382  22.125   7.789
 1905POPC   C1B27787  28.894  21.831   8.691
 1905POPC   C2B27788  28.827  22.054   8.308
 1905POPC   C3B27789  28.896  21.908   7.912
 1905POPC   C4B27790  29.065  21.729   7.575
 1906POPC   NC327791  18.815  15.415   9.513
 1906POPC   PO427792  19.194  14.820   9.643
 1906POPC   GL127793  19.141  14.946   9.218
 1906POPC   GL227794  19.164  15.310   9.152
 1906POPC   C1A27795  18.988  15.004   8.794
 1906POPC   D2A27796  19.191  15.071   8.434
 1906POPC   C3A27797  18.979  15.115   8.054
 1906POPC   C4A27798  18.993  14.909   7.671
 1906POPC   C1B27799  19.079  15.503   8.758
 1906POPC   C2B27800  19.029  15.592   8.353
 1906POPC   C3B27801  19.176  15.566   7.946
 1906POPC   C4B27802  18.809  15.597   7.696
 1907POPC   NC327803  38.156  41.464   9.530
 1907POPC   PO427804  38.655  41.279   9.843
 1907POPC   GL127805  38.653  41.545   9.321
 1907POPC   GL227806  38.339  41.685   9.132
 1907POPC   C1A27807  38.766  41.556   8.874
 1907POPC   D2A27808  38.536  41.584   8.486
 1907POPC   C3A27809  38.583  41.394   8.108
 1907POPC   C4A27810  38.649  41.623   7.742
 1907POPC   C1B27811  38.145  41.491   8.790
 1907POPC   C2B27812  38.065  41.460   8.323
 1907POPC   C3B27813  38.201  41.748   7.969
 1907POPC   C4B27814  38.268  41.832   7.479
 1908POPC   NC327815  34.507  18.896   9.472
 1908POPC   PO427816  34.447  19.527   9.676
 1908POPC   GL127817  34.772  19.359   9.270
 1908POPC   GL227818  34.626  19.060   9.023
 1908POPC   C1A27819  34.812  19.431   8.750
 1908POPC   D2A27820  34.590  19.131   8.425
 1908POPC   C3A27821  34.483  19.272   7.974
 1908POPC   C4A27822  34.781  19.177   7.618
 1908POPC   C1B27823  34.283  18.845   8.767
 1908POPC   C2B27824  34.134  18.906   8.328
 1908POPC   C3B27825  34.314  18.797   7.918
 1908POPC   C4B27826  34.418  18.861   7.447
 1909POPC   NC327827  34.446  44.029   9.384
 1909POPC   PO427828  35.143  43.680   9.434
 1909POPC   GL127829  34.957  44.032   9.210
 1909POPC   GL227830  34.751  43.761   9.074
 1909POPC   C1A27831  34.838  44.163   8.782
 1909POPC   D2A27832  34.835  43.907   8.421
 1909POPC   C3A27833  34.728  44.083   8.017
 1909POPC   C4A27834  35.005  44.108   7.672
 1909POPC   C1B27835  34.474  43.711   8.732
 1909POPC   C2B27836  34.380  43.725   8.317
 1909POPC   C3B27837  34.508  43.620   7.929
 1909POPC   C4B27838  34.440  43.801   7.541
 1910POPC   NC327839  41.110  33.998   9.455
 1910POPC   PO427840  41.500  33.569   9.776
 1910POPC   GL127841  41.464  33.646   9.285
 1910POPC   GL227842  41.743  33.832   9.108
 1910POPC   C1A27843  41.460  33.552   8.793
 1910POPC   D2A27844  41.632  33.682   8.348
 1910POPC   C3A27845  41.393  33.685   7.944
 1910POPC   C4A27846  41.093  33.725   7.623
 1910POPC   C1B27847  41.885  34.009   8.693
 1910POPC   C2B27848  41.710  34.204   8.295
 1910POPC   C3B27849  41.613  34.114   7.840
 1910POPC   C4B27850  41.579  33.856   7.460
 1911POPC   NC327851   1.727  30.678   9.478
 1911POPC   PO427852   2.372  30.770   9.449
 1911POPC   GL127853   2.077  30.914   9.108
 1911POPC   GL227854   1.779  31.081   9.154
 1911POPC   C1A27855   1.781  30.696   8.810
 1911POPC   D2A27856   1.911  30.464   8.461
 1911POPC   C3A27857   1.767  30.482   8.064
 1911POPC   C4A27858   1.917  30.490   7.658
 1911POPC   C1B27859   1.752  31.207   8.724
 1911POPC   C2B27860   1.762  31.094   8.265
 1911POPC   C3B27861   1.720  30.932   7.822
 1911POPC   C4B27862   1.546  30.726   7.418
 1912POPC   NC327863  33.709  23.373   9.579
 1912POPC   PO427864  34.029  22.704   9.550
 1912POPC   GL127865  33.896  22.858   9.159
 1912POPC   GL227866  33.561  22.940   9.245
 1912POPC   C1A27867  33.891  23.029   8.731
 1912POPC   D2A27868  33.932  23.233   8.311
 1912POPC   C3A27869  34.008  22.997   7.923
 1912POPC   C4A27870  33.656  22.959   7.624
 1912POPC   C1B27871  33.488  22.742   8.828
 1912POPC   C2B27872  33.564  22.841   8.388
 1912POPC   C3B27873  33.335  22.825   8.019
 1912POPC   C4B27874  33.348  22.569   7.608
 1913POPC   NC327875  23.427  30.690   9.672
 1913POPC   PO427876  24.060  30.841   9.714
 1913POPC   GL127877  24.069  30.807   9.192
 1913POPC   GL227878  24.006  31.102   9.007
 1913POPC   C1A27879  23.816  30.722   8.736
 1913POPC   D2A27880  23.816  30.492   8.325
 1913POPC   C3A27881  23.524  30.576   7.977
 1913POPC   C4A27882  23.441  30.615   7.512
 1913POPC   C1B27883  24.138  31.127   8.613
 1913POPC   C2B27884  23.865  31.053   8.320
 1913POPC   C3B27885  24.039  30.855   8.016
 1913POPC   C4B27886  23.952  30.570   7.705
 1914POPC   NC327887  41.849  33.321   9.595
 1914POPC   PO427888  41.320  32.915   9.507
 1914POPC   GL127889  41.469  33.156   9.142
 1914POPC   GL227890  41.813  33.297   9.089
 1914POPC   C1A27891  41.604  33.038   8.717
 1914POPC   D2A27892  41.461  32.714   8.467
 1914POPC   C3A27893  41.413  32.941   8.115
 1914POPC   C4A27894  41.628  32.890   7.749
 1914POPC   C1B27895  41.965  33.476   8.696
 1914POPC   C2B27896  41.929  33.231   8.319
 1914POPC   C3B27897  41.720  33.326   7.950
 1914POPC   C4B27898  41.434  33.342   7.571
 1915POPC   NC327899  16.398  24.398   9.277
 1915POPC   PO427900  16.701  24.808   9.592
 1915POPC   GL127901  16.899  24.744   9.166
 1915POPC   GL227902  16.905  24.397   9.105
 1915POPC   C1A27903  16.867  24.683   8.668
 1915POPC   D2A27904  16.988  24.789   8.217
 1915POPC   C3A27905  16.727  24.645   7.875
 1915POPC   C4A27906  16.784  24.751   7.442
 1915POPC   C1B27907  16.948  24.189   8.704
 1915POPC   C2B27908  17.094  24.302   8.300
 1915POPC   C3B27909  16.977  24.186   7.874
 1915POPC   C4B27910  17.161  23.889   7.590
 1916POPC   NC327911  42.132  30.398   9.698
 1916POPC   PO427912  42.268  29.744   9.484
 1916POPC   GL127913  42.475  29.816   9.108
 1916POPC   GL227914  42.720  30.065   9.135
 1916POPC   C1A27915  42.265  29.772   8.706
 1916POPC   D2A27916  42.211  29.435   8.418
 1916POPC   C3A27917  42.116  29.552   7.972
 1916POPC   C4A27918  42.100  29.744   7.560
 1916POPC   C1B27919  42.818  29.863   8.729
 1916POPC   C2B27920  42.622  29.757   8.332
 1916POPC   C3B27921  42.561  29.811   7.886
 1916POPC   C4B27922  42.564  30.120   7.572
 1917POPC   NC327923   3.238   8.027   9.345
 1917POPC   PO427924   3.796   8.427   9.469
 1917POPC   GL127925   3.640   8.290   9.122
 1917POPC   GL227926   3.785   7.965   9.136
 1917POPC   C1A27927   3.614   8.467   8.738
 1917POPC   D2A27928   3.926   8.592   8.451
 1917POPC   C3A27929   3.700   8.515   8.064
 1917POPC   C4A27930   3.526   8.408   7.640
 1917POPC   C1B27931   3.992   8.107   8.730
 1917POPC   C2B27932   3.950   8.101   8.247
 1917POPC   C3B27933   3.971   8.177   7.775
 1917POPC   C4B27934   3.804   8.081   7.332
 1918POPC   NC327935   2.756  22.703   9.604
 1918POPC   PO427936   2.532  23.249   9.677
 1918POPC   GL127937   2.520  23.035   9.228
 1918POPC   GL227938   2.802  22.851   9.129
 1918POPC   C1A27939   2.644  23.181   8.775
 1918POPC   D2A27940   2.681  23.336   8.339
 1918POPC   C3A27941   2.647  23.084   7.971
 1918POPC   C4A27942   2.878  23.039   7.587
 1918POPC   C1B27943   2.581  22.686   8.787
 1918POPC   C2B27944   2.701  22.741   8.375
 1918POPC   C3B27945   2.810  22.579   7.970
 1918POPC   C4B27946   2.581  22.615   7.587
 1919POPC   NC327947  26.109   4.446   9.559
 1919POPC   PO427948  25.793   3.810   9.578
 1919POPC   GL127949  25.874   4.118   9.218
 1919POPC   GL227950  26.198   4.163   9.137
 1919POPC   C1A27951  25.921   4.191   8.722
 1919POPC   D2A27952  25.790   4.436   8.363
 1919POPC   C3A27953  25.915   4.249   7.934
 1919POPC   C4A27954  25.903   4.158   7.450
 1919POPC   C1B27955  26.318   4.496   8.836
 1919POPC   C2B27956  26.297   4.398   8.381
 1919POPC   C3B27957  26.208   4.657   7.995
 1919POPC   C4B27958  26.338   4.644   7.559
 1920POPC   NC327959  23.537  33.245   9.516
 1920POPC   PO427960  23.621  33.929   9.477
 1920POPC   GL127961  23.718  33.631   9.190
 1920POPC   GL227962  23.404  33.505   9.106
 1920POPC   C1A27963  23.838  33.528   8.775
 1920POPC   D2A27964  23.687  33.675   8.407
 1920POPC   C3A27965  23.897  33.773   8.041
 1920POPC   C4A27966  23.894  33.586   7.661
 1920POPC   C1B27967  23.314  33.733   8.775
 1920POPC   C2B27968  23.232  33.894   8.389
 1920POPC   C3B27969  23.363  33.804   7.999
 1920POPC   C4B27970  23.271  33.970   7.603
 1921POPC   NC327971  23.728  12.368   9.509
 1921POPC   PO427972  24.131  11.773   9.486
 1921POPC   GL127973  23.908  12.046   9.170
 1921POPC   GL227974  23.518  12.080   9.124
 1921POPC   C1A27975  23.851  12.338   8.813
 1921POPC   D2A27976  23.952  12.168   8.405
 1921POPC   C3A27977  23.650  12.303   8.130
 1921POPC   C4A27978  23.782  12.408   7.740
 1921POPC   C1B27979  23.683  11.861   8.738
 1921POPC   C2B27980  23.593  11.774   8.314
 1921POPC   C3B27981  23.709  11.876   7.876
 1921POPC   C4B27982  23.351  12.077   7.721
 1922POPC   NC327983   9.516  38.251   9.595
 1922POPC   PO427984  10.247  38.025   9.513
 1922POPC   GL127985   9.870  38.101   9.192
 1922POPC   GL227986   9.622  38.395   9.132
 1922POPC   C1A27987   9.907  38.293   8.746
 1922POPC   D2A27988   9.724  38.452   8.367
 1922POPC   C3A27989   9.992  38.367   8.016
 1922POPC   C4A27990  10.026  38.140   7.624
 1922POPC   C1B27991   9.660  38.744   8.822
 1922POPC   C2B27992   9.538  38.953   8.441
 1922POPC   C3B27993   9.320  38.799   8.086
 1922POPC   C4B27994   9.496  38.417   7.871
 1923POPC   NC327995  11.185  10.770   9.518
 1923POPC   PO427996  11.695  10.312   9.352
 1923POPC   GL127997  11.317  10.450   9.097
 1923POPC   GL227998  11.263  10.799   9.013
 1923POPC   C1A27999  11.120  10.483   8.659
 1923POPC   D2A28000  10.871  10.443   8.293
 1923POPC   C3A28001  11.041  10.216   7.957
 1923POPC   C4A28002  11.248  10.315   7.592
 1923POPC   C1B28003  11.533  10.946   8.663
 1923POPC   C2B28004  11.429  10.900   8.245
 1923POPC   C3B28005  11.203  10.712   7.942
 1923POPC   C4B28006  11.085  10.772   7.515
 1924POPC   NC328007  26.771  33.261   9.621
 1924POPC   PO428008  26.479  32.616   9.765
 1924POPC   GL128009  26.555  32.894   9.342
 1924POPC   GL228010  26.952  32.997   9.239
 1924POPC   C1A28011  26.564  33.018   8.885
 1924POPC   D2A28012  26.609  33.030   8.428
 1924POPC   C3A28013  26.834  32.765   8.119
 1924POPC   C4A28014  26.886  32.912   7.708
 1924POPC   C1B28015  27.057  33.218   8.855
 1924POPC   C2B28016  27.123  33.111   8.416
 1924POPC   C3B28017  26.879  33.279   8.067
 1924POPC   C4B28018  26.828  33.488   7.696
 1925POPC   NC328019  16.184  26.007   9.757
 1925POPC   PO428020  15.675  26.360   9.600
 1925POPC   GL128021  15.939  26.210   9.323
 1925POPC   GL228022  15.678  25.965   9.235
 1925POPC   C1A28023  15.928  26.246   8.874
 1925POPC   D2A28024  15.713  26.325   8.465
 1925POPC   C3A28025  15.874  26.060   8.101
 1925POPC   C4A28026  16.145  25.859   7.793
 1925POPC   C1B28027  15.469  26.012   8.818
 1925POPC   C2B28028  15.514  25.836   8.392
 1925POPC   C3B28029  15.489  25.741   7.924
 1925POPC   C4B28030  15.763  25.650   7.532
 1926POPC   NC328031  25.702  15.535   9.209
 1926POPC   PO428032  25.660  14.966   9.597
 1926POPC   GL128033  25.490  15.026   9.189
 1926POPC   GL228034  25.196  15.236   9.198
 1926POPC   C1A28035  25.320  14.973   8.775
 1926POPC   D2A28036  25.097  15.190   8.365
 1926POPC   C3A28037  25.220  15.000   7.931
 1926POPC   C4A28038  25.510  15.073   7.558
 1926POPC   C1B28039  25.237  15.466   8.781
 1926POPC   C2B28040  25.489  15.536   8.395
 1926POPC   C3B28041  25.356  15.481   7.956
 1926POPC   C4B28042  25.183  15.471   7.536
 1927POPC   NC328043   5.554   5.491   9.462
 1927POPC   PO428044   6.068   6.048   9.508
 1927POPC   GL128045   6.128   5.985   9.080
 1927POPC   GL228046   5.912   5.719   9.080
 1927POPC   C1A28047   6.018   5.924   8.625
 1927POPC   D2A28048   5.855   5.762   8.227
 1927POPC   C3A28049   6.127   6.047   7.992
 1927POPC   C4A28050   6.262   6.543   7.958
 1927POPC   C1B28051   5.700   5.528   8.672
 1927POPC   C2B28052   5.565   5.305   8.291
 1927POPC   C3B28053   5.577   5.438   7.881
 1927POPC   C4B28054   5.817   5.751   7.710
 1928POPC   NC328055   1.950  13.847   9.774
 1928POPC   PO428056   2.198  13.444   9.378
 1928POPC   GL128057   2.044  13.537   8.983
 1928POPC   GL228058   2.109  13.851   9.055
 1928POPC   C1A28059   2.085  13.417   8.585
 1928POPC   D2A28060   2.272  13.529   8.237
 1928POPC   C3A28061   1.980  13.363   7.943
 1928POPC   C4A28062   1.558  13.465   7.843
 1928POPC   C1B28063   1.851  13.905   8.672
 1928POPC   C2B28064   1.803  13.732   8.256
 1928POPC   C3B28065   2.040  13.879   7.893
 1928POPC   C4B28066   1.993  13.741   7.438
 1929POPC   NC328067  42.434  19.060  10.213
 1929POPC   PO428068  42.625  19.093   9.634
 1929POPC   GL128069  42.526  19.116   9.168
 1929POPC   GL228070  42.749  18.867   9.086
 1929POPC   C1A28071  42.409  18.985   8.715
 1929POPC   D2A28072  42.364  19.095   8.268
 1929POPC   C3A28073  42.258  18.841   7.847
 1929POPC   C4A28074  41.982  18.534   7.552
 1929POPC   C1B28075  42.875  19.182   8.744
 1929POPC   C2B28076  42.849  19.289   8.327
 1929POPC   C3B28077  42.753  19.113   7.941
 1929POPC   C4B28078  42.690  18.864   7.571
 1930POPC   NC328079  33.509  39.633   9.505
 1930POPC   PO428080  34.068  39.971   9.482
 1930POPC   GL128081  33.787  39.945   9.159
 1930POPC   GL228082  33.727  40.257   9.028
 1930POPC   C1A28083  33.541  39.801   8.789
 1930POPC   D2A28084  33.558  39.994   8.376
 1930POPC   C3A28085  33.581  39.759   7.978
 1930POPC   C4A28086  33.341  39.700   7.603
 1930POPC   C1B28087  33.957  40.145   8.678
 1930POPC   C2B28088  34.129  40.028   8.271
 1930POPC   C3B28089  33.961  40.093   7.831
 1930POPC   C4B28090  34.046  40.319   7.416
 1931POPC   NC328091  16.619   2.008   9.484
 1931POPC   PO428092  17.110   2.494   9.470
 1931POPC   GL128093  16.999   2.188   9.150
 1931POPC   GL228094  17.073   1.830   9.243
 1931POPC   C1A28095  16.823   1.988   8.796
 1931POPC   D2A28096  16.647   2.113   8.418
 1931POPC   C3A28097  16.709   1.950   8.020
 1931POPC   C4A28098  16.561   2.140   7.623
 1931POPC   C1B28099  17.283   1.765   8.842
 1931POPC   C2B28100  17.178   1.769   8.413
 1931POPC   C3B28101  17.200   1.768   7.982
 1931POPC   C4B28102  16.973   1.797   7.618
 1932POPC   NC328103  39.009   9.204   9.489
 1932POPC   PO428104  38.268   9.225   9.492
 1932POPC   GL128105  38.522   8.982   9.200
 1932POPC   GL228106  38.370   8.635   9.143
 1932POPC   C1A28107  38.495   9.051   8.756
 1932POPC   D2A28108  38.713   9.191   8.379
 1932POPC   C3A28109  38.581   9.056   7.972
 1932POPC   C4A28110  38.820   9.197   7.639
 1932POPC   C1B28111  38.538   8.545   8.767
 1932POPC   C2B28112  38.589   8.690   8.371
 1932POPC   C3B28113  38.675   8.526   7.988
 1932POPC   C4B28114  38.464   8.576   7.591
 1933POPC   NC328115   7.776  19.165   9.871
 1933POPC   PO428116   8.350  18.987   9.644
 1933POPC   GL128117   8.335  18.978   9.189
 1933POPC   GL228118   8.583  19.177   9.038
 1933POPC   C1A28119   8.136  18.986   8.793
 1933POPC   D2A28120   8.237  18.913   8.372
 1933POPC   C3A28121   8.097  19.187   8.065
 1933POPC   C4A28122   7.958  19.158   7.653
 1933POPC   C1B28123   8.510  19.317   8.611
 1933POPC   C2B28124   8.520  19.482   8.186
 1933POPC   C3B28125   8.529  19.313   7.756
 1933POPC   C4B28126   8.374  19.173   7.345
 1934POPC   NC328127  31.905   8.753   9.457
 1934POPC   PO428128  31.275   8.608   9.562
 1934POPC   GL128129  31.482   8.812   9.187
 1934POPC   GL228130  31.700   9.113   9.132
 1934POPC   C1A28131  31.662   8.814   8.740
 1934POPC   D2A28132  31.698   8.645   8.339
 1934POPC   C3A28133  31.560   8.891   7.981
 1934POPC   C4A28134  31.418   8.687   7.593
 1934POPC   C1B28135  31.641   9.381   8.749
 1934POPC   C2B28136  31.682   9.461   8.310
 1934POPC   C3B28137  31.900   9.298   7.948
 1934POPC   C4B28138  31.864   9.208   7.525
 1935POPC   NC328139   0.140  26.049   9.620
 1935POPC   PO428140   0.709  26.364   9.608
 1935POPC   GL128141   0.544  26.104   9.259
 1935POPC   GL228142   0.209  26.192   9.151
 1935POPC   C1A28143   0.620  25.799   8.921
 1935POPC   D2A28144   0.474  25.720   8.494
 1935POPC   C3A28145   0.550  25.889   8.072
 1935POPC   C4A28146   0.673  25.964   7.628
 1935POPC   C1B28147   0.271  26.137   8.744
 1935POPC   C2B28148   0.010  26.287   8.458
 1935POPC   C3B28149   0.045  26.406   8.061
 1935POPC   C4B28150   0.177  26.120   7.748
 1936POPC   NC328151   5.577   2.224   9.573
 1936POPC   PO428152   4.979   2.189   9.743
 1936POPC   GL128153   5.167   1.950   9.379
 1936POPC   GL228154   4.982   2.119   9.143
 1936POPC   C1A28155   5.402   1.826   8.957
 1936POPC   D2A28156   5.227   1.789   8.516
 1936POPC   C3A28157   5.370   1.862   8.085
 1936POPC   C4A28158   5.132   1.904   7.694
 1936POPC   C1B28159   5.231   2.296   8.787
 1936POPC   C2B28160   5.138   2.276   8.335
 1936POPC   C3B28161   5.168   2.415   7.904
 1936POPC   C4B28162   4.914   2.355   7.531
 1937POPC   NC328163   5.924  33.569   9.518
 1937POPC   PO428164   5.384  33.960   9.470
 1937POPC   GL128165   5.576  33.721   9.152
 1937POPC   GL228166   5.859  33.890   9.115
 1937POPC   C1A28167   5.604  33.780   8.672
 1937POPC   D2A28168   5.488  33.927   8.249
 1937POPC   C3A28169   5.618  33.659   7.920
 1937POPC   C4A28170   5.892  33.448   7.643
 1937POPC   C1B28171   6.063  33.981   8.757
 1937POPC   C2B28172   6.001  33.888   8.341
 1937POPC   C3B28173   6.116  33.759   7.965
 1937POPC   C4B28174   6.103  33.944   7.587
 1938POPC   NC328175  41.458  38.280   9.203
 1938POPC   PO428176  42.053  38.709   9.289
 1938POPC   GL128177  41.762  38.616   8.981
 1938POPC   GL228178  41.403  38.729   8.938
 1938POPC   C1A28179  41.639  38.460   8.588
 1938POPC   D2A28180  41.583  38.768   8.324
 1938POPC   C3A28181  41.757  38.542   8.007
 1938POPC   C4A28182  41.512  38.159   7.891
 1938POPC   C1B28183  41.112  38.431   8.684
 1938POPC   C2B28184  41.125  38.356   8.249
 1938POPC   C3B28185  41.273  38.628   7.921
 1938POPC   C4B28186  41.489  38.597   7.562
 1939POPC   NC328187   5.487  40.067   9.505
 1939POPC   PO428188   6.130  39.762   9.580
 1939POPC   GL128189   5.945  39.942   9.210
 1939POPC   GL228190   5.707  39.687   9.201
 1939POPC   C1A28191   6.060  39.885   8.754
 1939POPC   D2A28192   6.139  39.834   8.300
 1939POPC   C3A28193   5.877  40.014   7.947
 1939POPC   C4A28194   6.053  40.391   7.718
 1939POPC   C1B28195   5.550  39.917   8.834
 1939POPC   C2B28196   5.543  40.030   8.366
 1939POPC   C3B28197   5.341  40.042   7.931
 1939POPC   C4B28198   5.252  40.341   7.594
 1940POPC   NC328199  18.474   4.750   9.530
 1940POPC   PO428200  18.039   5.249   9.584
 1940POPC   GL128201  18.059   5.161   9.177
 1940POPC   GL228202  18.406   5.137   9.191
 1940POPC   C1A28203  17.902   5.252   8.774
 1940POPC   D2A28204  18.085   5.393   8.386
 1940POPC   C3A28205  18.044   5.103   8.030
 1940POPC   C4A28206  18.062   4.856   7.624
 1940POPC   C1B28207  18.410   5.229   8.774
 1940POPC   C2B28208  18.417   4.991   8.399
 1940POPC   C3B28209  18.539   5.224   8.061
 1940POPC   C4B28210  18.634   5.093   7.687
 1941POPC   NC328211   1.725   2.284   9.424
 1941POPC   PO428212   2.159   2.742   9.452
 1941POPC   GL128213   2.009   2.877   9.051
 1941POPC   GL228214   1.662   2.805   9.064
 1941POPC   C1A28215   2.092   2.838   8.601
 1941POPC   D2A28216   2.271   2.941   8.206
 1941POPC   C3A28217   2.241   2.684   7.833
 1941POPC   C4A28218   2.167   2.896   7.407
 1941POPC   C1B28219   1.598   2.939   8.650
 1941POPC   C2B28220   1.770   3.156   8.295
 1941POPC   C3B28221   1.820   2.931   7.955
 1941POPC   C4B28222   1.795   2.657   7.629
 1942POPC   NC328223  23.499  28.868   9.389
 1942POPC   PO428224  23.834  29.540   9.469
 1942POPC   GL128225  23.627  29.327   9.146
 1942POPC   GL228226  23.303  29.481   9.119
 1942POPC   C1A28227  23.836  29.222   8.770
 1942POPC   D2A28228  23.921  28.990   8.381
 1942POPC   C3A28229  24.077  29.103   7.997
 1942POPC   C4A28230  24.286  29.375   7.729
 1942POPC   C1B28231  23.467  29.574   8.708
 1942POPC   C2B28232  23.494  29.285   8.371
 1942POPC   C3B28233  23.545  29.107   7.962
 1942POPC   C4B28234  23.745  29.242   7.583
 1943POPC   NC328235  42.795   3.654   9.389
 1943POPC   PO428236  43.497   3.517   9.511
 1943POPC   GL128237  43.302   3.764   9.177
 1943POPC   GL228238  43.146   3.496   9.057
 1943POPC   C1A28239  43.100   3.907   8.787
 1943POPC   D2A28240  43.151   3.652   8.438
 1943POPC   C3A28241  43.242   3.912   8.127
 1943POPC   C4A28242  43.427   3.893   7.729
 1943POPC   C1B28243  42.789   3.451   8.764
 1943POPC   C2B28244  42.657   3.475   8.354
 1943POPC   C3B28245  42.891   3.292   8.046
 1943POPC   C4B28246  43.147   3.496   7.836
 1944POPC   NC328247  41.669  32.534   9.523
 1944POPC   PO428248  41.465  31.945   9.748
 1944POPC   GL128249  41.391  32.175   9.285
 1944POPC   GL228250  41.683  32.161   9.043
 1944POPC   C1A28251  41.258  32.361   8.846
 1944POPC   D2A28252  41.175  32.259   8.391
 1944POPC   C3A28253  41.279  32.470   8.003
 1944POPC   C4A28254  41.390  32.497   7.551
 1944POPC   C1B28255  41.646  32.091   8.595
 1944POPC   C2B28256  41.729  32.336   8.252
 1944POPC   C3B28257  41.756  32.314   7.842
 1944POPC   C4B28258  41.877  31.895   7.747
 1945POPC   NC328259  26.883  36.636   9.514
 1945POPC   PO428260  26.834  37.317   9.655
 1945POPC   GL128261  26.773  37.107   9.242
 1945POPC   GL228262  26.436  37.154   9.122
 1945POPC   C1A28263  26.871  36.914   8.812
 1945POPC   D2A28264  26.988  37.027   8.367
 1945POPC   C3A28265  26.920  36.763   7.987
 1945POPC   C4A28266  26.790  36.845   7.557
 1945POPC   C1B28267  26.353  36.966   8.704
 1945POPC   C2B28268  26.475  36.871   8.275
 1945POPC   C3B28269  26.374  36.904   7.835
 1945POPC   C4B28270  26.321  36.848   7.365
 1946POPC   NC328271   0.453  34.258   9.730
 1946POPC   PO428272   0.181  33.783   9.325
 1946POPC   GL128273   0.471  33.848   9.041
 1946POPC   GL228274   0.631  34.053   9.260
 1946POPC   C1A28275   0.560  33.769   8.606
 1946POPC   D2A28276   0.383  33.900   8.216
 1946POPC   C3A28277   0.308  33.707   7.808
 1946POPC   C4A28278   0.206  34.070   7.563
 1946POPC   C1B28279   0.851  34.163   8.884
 1946POPC   C2B28280   1.021  34.053   8.512
 1946POPC   C3B28281   0.894  33.825   8.152
 1946POPC   C4B28282   0.676  34.033   7.791
 1947POPC   NC328283  16.895  31.085   9.458
 1947POPC   PO428284  16.660  31.757   9.370
 1947POPC   GL128285  16.677  31.398   9.112
 1947POPC   GL228286  17.048  31.397   9.100
 1947POPC   C1A28287  16.466  31.271   8.744
 1947POPC   D2A28288  16.712  31.353   8.361
 1947POPC   C3A28289  16.597  31.585   8.005
 1947POPC   C4A28290  16.665  31.301   7.641
 1947POPC   C1B28291  16.949  31.614   8.735
 1947POPC   C2B28292  17.058  31.782   8.340
 1947POPC   C3B28293  17.108  31.642   7.924
 1947POPC   C4B28294  17.031  31.619   7.452
 1948POPC   NC328295  12.884  30.161   9.552
 1948POPC   PO428296  13.128  30.694   9.305
 1948POPC   GL128297  13.015  30.731   8.931
 1948POPC   GL228298  13.022  31.078   8.913
 1948POPC   C1A28299  12.914  30.523   8.565
 1948POPC   D2A28300  13.120  30.574   8.190
 1948POPC   C3A28301  12.941  30.713   7.811
 1948POPC   C4A28302  13.191  31.000   7.563
 1948POPC   C1B28303  13.246  30.977   8.521
 1948POPC   C2B28304  13.222  31.110   8.068
 1948POPC   C3B28305  12.817  31.217   7.817
 1948POPC   C4B28306  12.441  30.963   7.735
 1949POPC   NC328307  20.847  40.725   9.484
 1949POPC   PO428308  21.434  41.004   9.474
 1949POPC   GL128309  21.373  40.803   9.063
 1949POPC   GL228310  21.047  40.604   9.034
 1949POPC   C1A28311  21.495  40.855   8.617
 1949POPC   D2A28312  21.750  40.843   8.235
 1949POPC   C3A28313  21.529  40.815   7.846
 1949POPC   C4A28314  21.407  41.102   7.533
 1949POPC   C1B28315  21.179  40.426   8.641
 1949POPC   C2B28316  21.239  40.585   8.241
 1949POPC   C3B28317  21.031  40.805   7.935
 1949POPC   C4B28318  21.091  40.650   7.530
 1950POPC   NC328319  29.509  20.859   9.884
 1950POPC   PO428320  29.082  20.348   9.612
 1950POPC   GL128321  29.330  20.513   9.265
 1950POPC   GL228322  29.638  20.337   9.248
 1950POPC   C1A28323  29.286  20.612   8.815
 1950POPC   D2A28324  29.092  20.598   8.402
 1950POPC   C3A28325  29.187  20.907   8.074
 1950POPC   C4A28326  29.093  20.749   7.677
 1950POPC   C1B28327  29.632  20.245   8.823
 1950POPC   C2B28328  29.561  20.368   8.407
 1950POPC   C3B28329  29.377  20.438   7.997
 1950POPC   C4B28330  29.356  20.288   7.593
 1951POPC   NC328331  18.604   0.063   9.499
 1951POPC   PO428332  18.597  44.425   9.638
 1951POPC   GL128333  18.246  44.544   9.276
 1951POPC   GL228334  18.314  44.889   9.139
 1951POPC   C1A28335  18.030  44.637   8.841
 1951POPC   D2A28336  18.237  44.862   8.490
 1951POPC   C3A28337  18.201  44.634   8.075
 1951POPC   C4A28338  18.478  44.546   7.735
 1951POPC   C1B28339  18.651   0.054   8.860
 1951POPC   C2B28340  18.754   0.125   8.438
 1951POPC   C3B28341  18.555   0.011   8.056
 1951POPC   C4B28342  18.372   0.183   7.711
 1952POPC   NC328343  42.698  34.555   9.474
 1952POPC   PO428344  42.029  34.614   9.495
 1952POPC   GL128345  42.304  34.690   9.171
 1952POPC   GL228346  42.350  35.026   9.074
 1952POPC   C1A28347  42.364  34.459   8.814
 1952POPC   D2A28348  42.192  34.350   8.432
 1952POPC   C3A28349  42.322  34.603   8.122
 1952POPC   C4A28350  42.348  34.465   7.730
 1952POPC   C1B28351  42.646  34.893   8.777
 1952POPC   C2B28352  42.816  35.000   8.381
 1952POPC   C3B28353  42.621  35.014   7.961
 1952POPC   C4B28354  42.450  34.918   7.549
 1953POPC   NC328355  43.099  24.023   9.336
 1953POPC   PO428356  42.781  23.486   9.506
 1953POPC   GL128357  42.986  23.539   9.120
 1953POPC   GL228358  43.334  23.597   9.136
 1953POPC   C1A28359  42.926  23.659   8.689
 1953POPC   D2A28360  42.961  23.365   8.340
 1953POPC   C3A28361  42.892  23.575   7.940
 1953POPC   C4A28362  42.928  23.924   7.624
 1953POPC   C1B28363  43.465  23.685   8.713
 1953POPC   C2B28364  43.311  23.710   8.314
 1953POPC   C3B28365  43.349  23.846   7.924
 1953POPC   C4B28366  43.425  24.059   7.569
 1954POPC   NC328367  33.987  44.635   9.421
 1954POPC   PO428368  34.645  44.506   9.371
 1954POPC   GL128369  34.323  44.452   9.103
 1954POPC   GL228370  34.231  44.811   9.018
 1954POPC   C1A28371  34.194  44.405   8.725
 1954POPC   D2A28372  34.388  44.225   8.374
 1954POPC   C3A28373  34.372  44.485   7.995
 1954POPC   C4A28374  34.800  44.575   7.815
 1954POPC   C1B28375  34.359  44.873   8.590
 1954POPC   C2B28376  34.299  44.997   8.160
 1954POPC   C3B28377  34.594   0.055   7.809
 1954POPC   C4B28378  34.860  44.932   7.444
 1955POPC   NC328379  38.761  31.556   9.742
 1955POPC   PO428380  38.571  31.075   9.326
 1955POPC   GL128381  38.726  31.281   8.995
 1955POPC   GL228382  38.689  31.658   9.029
 1955POPC   C1A28383  38.633  31.197   8.560
 1955POPC   D2A28384  38.250  31.297   8.281
 1955POPC   C3A28385  38.301  31.340   7.823
 1955POPC   C4A28386  38.082  31.131   7.444
 1955POPC   C1B28387  38.545  31.689   8.614
 1955POPC   C2B28388  38.667  31.584   8.184
 1955POPC   C3B28389  38.654  31.708   7.741
 1955POPC   C4B28390  38.815  31.809   7.310
 1956POPC   NC328391  17.162   2.977   9.714
 1956POPC   PO428392  16.583   2.889   9.341
 1956POPC   GL128393  16.644   2.568   9.059
 1956POPC   GL228394  16.461   2.304   9.047
 1956POPC   C1A28395  16.869   2.502   8.695
 1956POPC   D2A28396  16.966   2.724   8.340
 1956POPC   C3A28397  16.831   2.667   7.925
 1956POPC   C4A28398  16.872   2.639   7.462
 1956POPC   C1B28399  16.393   2.519   8.601
 1956POPC   C2B28400  16.410   2.471   8.147
 1956POPC   C3B28401  16.378   2.610   7.725
 1956POPC   C4B28402  16.300   2.986   7.497
 1957POPC   NC328403  37.237  26.397   9.308
 1957POPC   PO428404  36.898  26.894   9.662
 1957POPC   GL128405  36.764  26.779   9.220
 1957POPC   GL228406  36.532  27.028   9.129
 1957POPC   C1A28407  36.725  26.810   8.724
 1957POPC   D2A28408  36.661  26.691   8.266
 1957POPC   C3A28409  37.014  26.703   7.934
 1957POPC   C4A28410  37.355  26.461   7.719
 1957POPC   C1B28411  36.643  27.331   8.768
 1957POPC   C2B28412  36.763  27.302   8.327
 1957POPC   C3B28413  36.641  27.103   7.963
 1957POPC   C4B28414  36.533  26.727   7.738
 1958POPC   NC328415   4.896   9.247   9.640
 1958POPC   PO428416   5.424   8.800   9.447
 1958POPC   GL128417   5.204   9.127   9.255
 1958POPC   GL228418   4.938   8.958   9.214
 1958POPC   C1A28419   4.906   9.380   8.943
 1958POPC   D2A28420   5.013   9.463   8.519
 1958POPC   C3A28421   4.845   9.386   8.102
 1958POPC   C4A28422   5.152   9.382   7.767
 1958POPC   C1B28423   5.133   8.978   8.787
 1958POPC   C2B28424   4.969   8.957   8.408
 1958POPC   C3B28425   5.161   8.931   8.020
 1958POPC   C4B28426   4.930   8.963   7.643
 1959POPC   NC328427  25.550  38.767   9.447
 1959POPC   PO428428  25.110  38.204   9.585
 1959POPC   GL128429  25.193  38.425   9.217
 1959POPC   GL228430  24.843  38.324   9.155
 1959POPC   C1A28431  25.201  38.729   8.835
 1959POPC   D2A28432  25.371  38.827   8.386
 1959POPC   C3A28433  25.111  38.820   8.014
 1959POPC   C4A28434  25.095  38.567   7.627
 1959POPC   C1B28435  25.019  38.258   8.764
 1959POPC   C2B28436  24.854  38.188   8.387
 1959POPC   C3B28437  25.070  38.266   8.048
 1959POPC   C4B28438  25.064  38.062   7.682
 1960POPC   NC328439  41.544  34.717   9.531
 1960POPC   PO428440  41.353  34.257   9.167
 1960POPC   GL128441  41.506  34.682   9.022
 1960POPC   GL228442  41.818  34.874   9.102
 1960POPC   C1A28443  41.462  34.606   8.618
 1960POPC   D2A28444  41.201  34.348   8.416
 1960POPC   C3A28445  41.365  34.500   8.046
 1960POPC   C4A28446  41.167  34.460   7.670
 1960POPC   C1B28447  41.949  34.727   8.710
 1960POPC   C2B28448  41.828  34.726   8.279
 1960POPC   C3B28449  41.860  34.551   7.874
 1960POPC   C4B28450  41.955  34.733   7.478
 1961POPC   NC328451  19.395  11.872   9.536
 1961POPC   PO428452  20.126  11.925   9.481
 1961POPC   GL128453  19.897  12.049   9.121
 1961POPC   GL228454  19.736  12.369   9.254
 1961POPC   C1A28455  19.981  11.944   8.658
 1961POPC   D2A28456  20.227  11.916   8.244
 1961POPC   C3A28457  20.055  11.739   7.883
 1961POPC   C4A28458  19.826  11.934   7.587
 1961POPC   C1B28459  19.657  12.349   8.798
 1961POPC   C2B28460  19.623  12.202   8.395
 1961POPC   C3B28461  19.830  12.189   8.047
 1961POPC   C4B28462  19.752  12.446   7.714
 1962POPC   NC328463  24.507   0.714   9.647
 1962POPC   PO428464  24.143   0.352   9.211
 1962POPC   GL128465  24.581   0.499   9.147
 1962POPC   GL228466  24.845   0.234   9.113
 1962POPC   C1A28467  24.797   0.672   8.797
 1962POPC   D2A28468  24.958   0.811   8.372
 1962POPC   C3A28469  24.676   0.619   8.080
 1962POPC   C4A28470  24.406   0.687   7.750
 1962POPC   C1B28471  24.696   0.082   8.700
 1962POPC   C2B28472  24.565   0.128   8.256
 1962POPC   C3B28473  24.346   0.185   7.846
 1962POPC   C4B28474  24.501   0.324   7.429
 1963POPC   NC328475   5.310  13.442   9.473
 1963POPC   PO428476   4.707  13.495   9.392
 1963POPC   GL128477   4.975  13.732   9.133
 1963POPC   GL228478   4.841  14.059   9.196
 1963POPC   C1A28479   5.227  13.598   8.783
 1963POPC   D2A28480   5.110  13.496   8.375
 1963POPC   C3A28481   5.209  13.507   7.966
 1963POPC   C4A28482   5.100  13.405   7.545
 1963POPC   C1B28483   4.671  14.070   8.778
 1963POPC   C2B28484   4.619  14.101   8.340
 1963POPC   C3B28485   4.798  13.845   8.081
 1963POPC   C4B28486   4.980  13.876   7.709
 1964POPC   NC328487  22.613   7.374   9.448
 1964POPC   PO428488  22.190   7.825   9.641
 1964POPC   GL128489  22.196   7.552   9.232
 1964POPC   GL228490  21.849   7.466   9.143
 1964POPC   C1A28491  22.244   7.508   8.756
 1964POPC   D2A28492  22.294   7.571   8.293
 1964POPC   C3A28493  22.411   7.290   7.968
 1964POPC   C4A28494  22.548   7.434   7.582
 1964POPC   C1B28495  21.805   7.212   8.764
 1964POPC   C2B28496  21.803   7.419   8.370
 1964POPC   C3B28497  21.917   7.534   7.954
 1964POPC   C4B28498  22.049   7.390   7.529
 1965POPC   NC328499  15.534  16.313   9.575
 1965POPC   PO428500  15.322  15.686   9.514
 1965POPC   GL128501  15.326  15.906   9.162
 1965POPC   GL228502  15.037  16.105   9.240
 1965POPC   C1A28503  15.396  15.867   8.709
 1965POPC   D2A28504  15.385  16.102   8.288
 1965POPC   C3A28505  15.411  15.860   7.874
 1965POPC   C4A28506  15.435  15.691   7.449
 1965POPC   C1B28507  14.895  15.938   8.833
 1965POPC   C2B28508  14.819  16.081   8.418
 1965POPC   C3B28509  14.928  16.034   7.986
 1965POPC   C4B28510  14.993  15.920   7.552
 1966POPC   NC328511   0.611  18.845   9.378
 1966POPC   PO428512  44.949  18.867   9.523
 1966POPC   GL128513   0.189  18.957   9.129
 1966POPC   GL228514   0.410  19.248   9.085
 1966POPC   C1A28515   0.398  18.924   8.701
 1966POPC   D2A28516   0.213  19.097   8.332
 1966POPC   C3A28517   0.451  18.949   7.982
 1966POPC   C4A28518   0.517  19.067   7.557
 1966POPC   C1B28519   0.505  19.427   8.661
 1966POPC   C2B28520   0.579  19.424   8.219
 1966POPC   C3B28521   0.316  19.433   7.890
 1966POPC   C4B28522   0.325  19.538   7.492
 1967POPC   NC328523   5.002  41.604   9.678
 1967POPC   PO428524   5.687  41.270   9.671
 1967POPC   GL128525   5.362  41.319   9.262
 1967POPC   GL228526   5.031  41.508   9.186
 1967POPC   C1A28527   5.324  41.394   8.788
 1967POPC   D2A28528   5.337  41.767   8.486
 1967POPC   C3A28529   5.292  41.702   8.044
 1967POPC   C4A28530   5.151  41.340   7.836
 1967POPC   C1B28531   4.781  41.621   8.828
 1967POPC   C2B28532   4.662  41.575   8.395
 1967POPC   C3B28533   4.783  41.810   8.031
 1967POPC   C4B28534   4.873  41.692   7.601
 1968POPC   NC328535  32.699  43.772   9.640
 1968POPC   PO428536  33.297  43.446   9.381
 1968POPC   GL128537  33.263  43.881   9.245
 1968POPC   GL228538  32.937  43.922   9.185
 1968POPC   C1A28539  33.274  44.024   8.809
 1968POPC   D2A28540  33.368  43.990   8.348
 1968POPC   C3A28541  33.053  43.973   7.945
 1968POPC   C4A28542  33.103  43.966   7.448
 1968POPC   C1B28543  32.822  43.779   8.776
 1968POPC   C2B28544  32.587  43.740   8.387
 1968POPC   C3B28545  32.504  43.935   7.968
 1968POPC   C4B28546  32.644  43.778   7.541
 1969POPC   NC328547   1.737  13.501   9.370
 1969POPC   PO428548   1.306  13.924   9.713
 1969POPC   GL128549   1.219  13.805   9.252
 1969POPC   GL228550   1.514  13.770   9.026
 1969POPC   C1A28551   1.067  13.499   8.901
 1969POPC   D2A28552   0.862  13.342   8.493
 1969POPC   C3A28553   1.035  13.363   8.032
 1969POPC   C4A28554   1.069  13.498   7.594
 1969POPC   C1B28555   1.277  13.934   8.708
 1969POPC   C2B28556   1.259  13.691   8.354
 1969POPC   C3B28557   1.237  13.840   7.951
 1969POPC   C4B28558   1.572  13.973   7.732
 1970POPC   NC328559  22.996  12.372   9.123
 1970POPC   PO428560  22.881  12.119   9.712
 1970POPC   GL128561  22.713  11.947   9.311
 1970POPC   GL228562  23.052  11.851   9.250
 1970POPC   C1A28563  22.773  11.849   8.826
 1970POPC   D2A28564  23.118  12.012   8.520
 1970POPC   C3A28565  22.960  12.164   8.135
 1970POPC   C4A28566  22.844  12.124   7.739
 1970POPC   C1B28567  23.244  11.658   8.878
 1970POPC   C2B28568  23.120  11.503   8.467
 1970POPC   C3B28569  23.149  11.680   8.056
 1970POPC   C4B28570  23.334  11.567   7.691
 1971POPC   NC328571   7.764  20.098   9.512
 1971POPC   PO428572   7.495  19.495   9.741
 1971POPC   GL128573   7.592  19.559   9.258
 1971POPC   GL228574   7.491  19.853   9.108
 1971POPC   C1A28575   7.604  19.483   8.780
 1971POPC   D2A28576   7.646  19.382   8.338
 1971POPC   C3A28577   7.457  19.666   8.022
 1971POPC   C4A28578   7.642  19.619   7.607
 1971POPC   C1B28579   7.623  20.083   8.758
 1971POPC   C2B28580   7.878  20.067   8.384
 1971POPC   C3B28581   7.746  20.125   7.936
 1971POPC   C4B28582   7.307  20.194   7.852
 1972POPC   NC328583   1.667  36.810   9.632
 1972POPC   PO428584   2.110  37.231   9.823
 1972POPC   GL128585   2.076  37.259   9.319
 1972POPC   GL228586   1.823  37.068   9.240
 1972POPC   C1A28587   2.095  37.076   8.837
 1972POPC   D2A28588   2.018  36.781   8.496
 1972POPC   C3A28589   2.126  36.814   8.036
 1972POPC   C4A28590   2.173  36.601   7.633
 1972POPC   C1B28591   1.587  37.250   8.936
 1972POPC   C2B28592   1.585  37.134   8.509
 1972POPC   C3B28593   1.627  36.838   8.176
 1972POPC   C4B28594   1.594  36.960   7.756
 1973POPC   NC328595  39.175  13.056   9.289
 1973POPC   PO428596  39.469  13.637   9.483
 1973POPC   GL128597  39.419  13.451   9.113
 1973POPC   GL228598  39.072  13.530   9.147
 1973POPC   C1A28599  39.293  13.471   8.690
 1973POPC   D2A28600  39.196  13.339   8.287
 1973POPC   C3A28601  39.369  13.662   8.046
 1973POPC   C4A28602  39.373  13.572   7.646
 1973POPC   C1B28603  38.856  13.758   8.814
 1973POPC   C2B28604  38.925  13.779   8.363
 1973POPC   C3B28605  38.879  13.614   7.933
 1973POPC   C4B28606  38.989  13.906   7.621
 1974POPC   NC328607  28.790  14.988  10.076
 1974POPC   PO428608  29.057  15.344   9.506
 1974POPC   GL128609  29.048  15.234   9.090
 1974POPC   GL228610  29.395  15.213   9.044
 1974POPC   C1A28611  29.055  15.402   8.677
 1974POPC   D2A28612  29.193  15.453   8.290
 1974POPC   C3A28613  28.903  15.706   8.100
 1974POPC   C4A28614  28.691  15.607   7.731
 1974POPC   C1B28615  29.236  14.937   8.722
 1974POPC   C2B28616  29.043  14.945   8.346
 1974POPC   C3B28617  29.195  15.042   7.964
 1974POPC   C4B28618  29.447  14.911   7.576
 1975POPC   NC328619   9.018  16.361   9.476
 1975POPC   PO428620   8.813  17.022   9.670
 1975POPC   GL128621   8.913  16.957   9.163
 1975POPC   GL228622   8.798  16.622   9.046
 1975POPC   C1A28623   9.177  16.835   8.765
 1975POPC   D2A28624   9.341  16.732   8.323
 1975POPC   C3A28625   9.081  16.454   8.010
 1975POPC   C4A28626   8.700  16.254   7.817
 1975POPC   C1B28627   8.681  16.967   8.728
 1975POPC   C2B28628   8.662  17.049   8.324
 1975POPC   C3B28629   8.627  16.731   8.057
 1975POPC   C4B28630   8.813  16.743   7.675
 1976POPC   NC328631  26.368  31.620   9.420
 1976POPC   PO428632  25.818  31.302   9.525
 1976POPC   GL128633  25.742  31.323   9.134
 1976POPC   GL228634  25.982  31.568   9.078
 1976POPC   C1A28635  25.966  31.164   8.771
 1976POPC   D2A28636  26.178  31.209   8.396
 1976POPC   C3A28637  25.887  31.148   8.058
 1976POPC   C4A28638  25.906  31.207   7.643
 1976POPC   C1B28639  26.167  31.657   8.685
 1976POPC   C2B28640  26.409  31.662   8.295
 1976POPC   C3B28641  26.204  31.539   7.907
 1976POPC   C4B28642  26.084  31.672   7.468
 1977POPC   NC328643  29.020  30.314   9.469
 1977POPC   PO428644  29.177  31.018   9.409
 1977POPC   GL128645  29.293  30.812   9.063
 1977POPC   GL228646  29.409  30.468   9.157
 1977POPC   C1A28647  29.427  30.846   8.658
 1977POPC   D2A28648  29.578  31.067   8.308
 1977POPC   C3A28649  29.366  31.002   7.920
 1977POPC   C4A28650  29.322  30.565   7.842
 1977POPC   C1B28651  29.146  30.422   8.769
 1977POPC   C2B28652  29.106  30.590   8.335
 1977POPC   C3B28653  28.846  30.474   7.983
 1977POPC   C4B28654  28.867  30.589   7.528
 1978POPC   NC328655  26.432  29.348   9.314
 1978POPC   PO428656  26.745  28.865   9.652
 1978POPC   GL128657  26.663  28.912   9.111
 1978POPC   GL228658  26.752  29.246   8.959
 1978POPC   C1A28659  26.867  28.872   8.662
 1978POPC   D2A28660  27.249  28.969   8.405
 1978POPC   C3A28661  27.162  29.145   7.982
 1978POPC   C4A28662  26.887  29.008   7.625
 1978POPC   C1B28663  26.480  29.426   8.637
 1978POPC   C2B28664  26.461  29.256   8.247
 1978POPC   C3B28665  26.566  29.319   7.856
 1978POPC   C4B28666  26.902  29.633   7.766
 1979POPC   NC328667  18.321  30.076   9.672
 1979POPC   PO428668  18.443  29.519   9.333
 1979POPC   GL128669  18.452  29.837   9.058
 1979POPC   GL228670  18.197  30.030   9.171
 1979POPC   C1A28671  18.573  29.903   8.627
 1979POPC   D2A28672  18.560  29.998   8.182
 1979POPC   C3A28673  18.336  29.760   7.859
 1979POPC   C4A28674  18.153  29.827   7.443
 1979POPC   C1B28675  18.013  29.966   8.758
 1979POPC   C2B28676  18.065  29.843   8.293
 1979POPC   C3B28677  17.963  30.104   7.899
 1979POPC   C4B28678  17.928  30.268   7.450
 1980POPC   NC328679   0.326   1.892   9.577
 1980POPC   PO428680   0.877   2.284   9.498
 1980POPC   GL128681   0.536   2.133   9.190
 1980POPC   GL228682   0.601   1.869   9.094
 1980POPC   C1A28683   0.335   2.089   8.733
 1980POPC   D2A28684   0.307   2.151   8.257
 1980POPC   C3A28685   0.322   1.823   7.910
 1980POPC   C4A28686   0.211   1.851   7.419
 1980POPC   C1B28687   0.739   1.716   8.739
 1980POPC   C2B28688   0.619   1.714   8.342
 1980POPC   C3B28689   0.843   1.685   7.981
 1980POPC   C4B28690   0.699   1.783   7.581
 1981POPC   NC328691  11.685   9.907   9.582
 1981POPC   PO428692  11.162   9.488   9.538
 1981POPC   GL128693  11.355   9.647   9.184
 1981POPC   GL228694  11.586   9.386   9.084
 1981POPC   C1A28695  11.321   9.999   8.855
 1981POPC   D2A28696  11.127  10.016   8.436
 1981POPC   C3A28697  11.223   9.750   8.077
 1981POPC   C4A28698  11.269   9.824   7.659
 1981POPC   C1B28699  11.465   9.557   8.666
 1981POPC   C2B28700  11.183   9.347   8.374
 1981POPC   C3B28701  11.007   9.264   8.040
 1981POPC   C4B28702  11.170   9.332   7.697
 1982POPC   NC328703  36.653  39.364   9.447
 1982POPC   PO428704  37.321  39.078   9.341
 1982POPC   GL128705  36.965  39.179   9.073
 1982POPC   GL228706  37.183  39.203   8.769
 1982POPC   C1A28707  36.704  39.331   8.724
 1982POPC   D2A28708  36.795  39.523   8.374
 1982POPC   C3A28709  36.676  39.343   8.005
 1982POPC   C4A28710  37.000  39.361   7.694
 1982POPC   C1B28711  37.121  38.761   8.783
 1982POPC   C2B28712  36.945  38.730   8.399
 1982POPC   C3B28713  37.061  39.022   8.094
 1982POPC   C4B28714  37.346  39.028   7.781
 1983POPC   NC328715   5.154  14.449   9.502
 1983POPC   PO428716   4.633  14.892   9.746
 1983POPC   GL128717   4.804  14.928   9.190
 1983POPC   GL228718   5.044  14.651   9.057
 1983POPC   C1A28719   4.728  14.859   8.731
 1983POPC   D2A28720   4.891  14.476   8.552
 1983POPC   C3A28721   4.982  14.412   8.107
 1983POPC   C4A28722   5.352  14.601   7.903
 1983POPC   C1B28723   5.207  14.231   8.874
 1983POPC   C2B28724   5.112  14.004   8.508
 1983POPC   C3B28725   5.288  13.979   8.135
 1983POPC   C4B28726   5.427  14.114   7.768
 1984POPC   NC328727  40.349  44.148   9.551
 1984POPC   PO428728  39.971  43.493   9.451
 1984POPC   GL128729  40.237  43.778   9.138
 1984POPC   GL228730  40.136  44.138   9.098
 1984POPC   C1A28731  40.146  43.899   8.676
 1984POPC   D2A28732  39.804  43.830   8.396
 1984POPC   C3A28733  39.951  43.637   8.038
 1984POPC   C4A28734  40.128  43.796   7.667
 1984POPC   C1B28735  39.724  44.155   8.802
 1984POPC   C2B28736  39.684  44.411   8.484
 1984POPC   C3B28737  39.966  44.310   8.191
 1984POPC   C4B28738  39.897  44.246   7.790
 1985POPC   NC328739  20.875  44.370   9.737
 1985POPC   PO428740  21.540  44.380   9.508
 1985POPC   GL128741  21.375  44.621   9.165
 1985POPC   GL228742  21.022  44.624   9.259
 1985POPC   C1A28743  21.536  44.592   8.748
 1985POPC   D2A28744  21.604  44.498   8.330
 1985POPC   C3A28745  21.585  44.876   8.111
 1985POPC   C4A28746  21.418  44.930   7.735
 1985POPC   C1B28747  20.976  44.523   8.812
 1985POPC   C2B28748  21.130  44.662   8.399
 1985POPC   C3B28749  21.176  44.554   7.992
 1985POPC   C4B28750  20.825  44.577   7.717
 1986POPC   NC328751   6.183  42.502   9.437
 1986POPC   PO428752   5.666  42.083   9.378
 1986POPC   GL128753   5.904  42.252   9.085
 1986POPC   GL228754   5.793  42.575   9.125
 1986POPC   C1A28755   6.136  42.445   8.763
 1986POPC   D2A28756   6.037  42.256   8.397
 1986POPC   C3A28757   6.181  42.388   8.047
 1986POPC   C4A28758   5.886  42.431   7.787
 1986POPC   C1B28759   5.595  42.825   8.833
 1986POPC   C2B28760   5.568  43.012   8.428
 1986POPC   C3B28761   5.622  42.776   8.059
 1986POPC   C4B28762   5.352  42.572   7.748
 1987POPC   NC328763  35.928  30.869   9.500
 1987POPC   PO428764  35.711  30.311   9.128
 1987POPC   GL128765  36.066  30.374   8.929
 1987POPC   GL228766  36.189  30.609   9.122
 1987POPC   C1A28767  36.267  30.321   8.562
 1987POPC   D2A28768  36.419  30.610   8.251
 1987POPC   C3A28769  36.144  30.572   7.894
 1987POPC   C4A28770  35.839  30.650   7.556
 1987POPC   C1B28771  36.197  30.821   8.702
 1987POPC   C2B28772  35.910  30.941   8.370
 1987POPC   C3B28773  35.772  30.937   7.978
 1987POPC   C4B28774  36.104  31.067   7.704
 1988POPC   NC328775  27.917  24.094   9.413
 1988POPC   PO428776  28.183  24.685   9.343
 1988POPC   GL128777  27.790  24.678   9.069
 1988POPC   GL228778  27.785  24.327   8.971
 1988POPC   C1A28779  27.544  24.630   8.643
 1988POPC   D2A28780  27.660  24.503   8.217
 1988POPC   C3A28781  27.494  24.570   7.788
 1988POPC   C4A28782  27.111  24.473   7.564
 1988POPC   C1B28783  28.059  24.533   8.657
 1988POPC   C2B28784  28.183  24.412   8.243
 1988POPC   C3B28785  28.005  24.491   7.846
 1988POPC   C4B28786  27.888  24.639   7.452
 1989POPC   NC328787   1.165  12.695   9.528
 1989POPC   PO428788   1.732  13.050   9.480
 1989POPC   GL128789   1.488  12.990   9.107
 1989POPC   GL228790   1.198  12.781   9.026
 1989POPC   C1A28791   1.392  13.147   8.688
 1989POPC   D2A28792   1.610  13.197   8.295
 1989POPC   C3A28793   1.396  12.999   7.937
 1989POPC   C4A28794   1.558  12.811   7.573
 1989POPC   C1B28795   0.954  12.854   8.657
 1989POPC   C2B28796   0.965  12.889   8.203
 1989POPC   C3B28797   1.040  12.588   7.857
 1989POPC   C4B28798   0.941  12.244   7.557
 1990POPC   NC328799  15.540   5.445   9.384
 1990POPC   PO428800  15.178   6.002   9.548
 1990POPC   GL128801  15.136   5.816   9.174
 1990POPC   GL228802  15.028   5.475   9.207
 1990POPC   C1A28803  15.139   5.982   8.766
 1990POPC   D2A28804  15.300   5.890   8.370
 1990POPC   C3A28805  15.295   6.215   8.090
 1990POPC   C4A28806  15.403   6.238   7.658
 1990POPC   C1B28807  14.739   5.665   8.878
 1990POPC   C2B28808  14.757   5.870   8.441
 1990POPC   C3B28809  14.710   5.709   8.015
 1990POPC   C4B28810  15.078   5.749   7.750
 1991POPC   NC328811   0.459  35.017   9.289
 1991POPC   PO428812   0.217  35.631   9.486
 1991POPC   GL128813   0.249  35.459   9.113
 1991POPC   GL228814   0.222  35.805   8.987
 1991POPC   C1A28815   0.118  35.217   8.732
 1991POPC   D2A28816   0.164  34.876   8.403
 1991POPC   C3A28817   0.223  35.059   7.997
 1991POPC   C4A28818   0.196  35.196   7.551
 1991POPC   C1B28819   0.505  35.576   8.705
 1991POPC   C2B28820   0.421  35.409   8.308
 1991POPC   C3B28821   0.684  35.335   7.959
 1991POPC   C4B28822   0.900  35.505   7.610
 1992POPC   NC328823  37.132  14.778   9.380
 1992POPC   PO428824  37.286  14.152   9.543
 1992POPC   GL128825  37.309  14.311   9.136
 1992POPC   GL228826  37.629  14.326   9.019
 1992POPC   C1A28827  37.271  14.105   8.711
 1992POPC   D2A28828  37.333  14.248   8.277
 1992POPC   C3A28829  37.528  14.093   7.919
 1992POPC   C4A28830  37.912  14.241   7.745
 1992POPC   C1B28831  37.460  14.585   8.644
 1992POPC   C2B28832  37.406  14.744   8.195
 1992POPC   C3B28833  37.627  14.687   7.781
 1992POPC   C4B28834  37.461  14.792   7.349
 1993POPC   NC328835   0.432  39.014   9.689
 1993POPC   PO428836   0.731  39.536   9.419
 1993POPC   GL128837   0.588  39.219   9.154
 1993POPC   GL228838   0.239  39.117   9.219
 1993POPC   C1A28839   0.634  39.298   8.714
 1993POPC   D2A28840   0.875  39.381   8.355
 1993POPC   C3A28841   0.657  39.456   7.975
 1993POPC   C4A28842   0.564  39.114   7.707
 1993POPC   C1B28843   0.301  38.900   8.816
 1993POPC   C2B28844   0.432  38.931   8.367
 1993POPC   C3B28845   0.239  38.783   7.978
 1993POPC   C4B28846   0.037  39.043   7.668
 1994POPC   NC328847  44.645  25.673   9.713
 1994POPC   PO428848  44.411  26.265   9.788
 1994POPC   GL128849  44.670  26.131   9.372
 1994POPC   GL228850  44.826  25.811   9.262
 1994POPC   C1A28851  44.758  26.147   8.896
 1994POPC   D2A28852  44.562  26.059   8.498
 1994POPC   C3A28853  44.632  26.113   8.086
 1994POPC   C4A28854  44.382  26.133   7.719
 1994POPC   C1B28855   0.097  25.706   8.938
 1994POPC   C2B28856  44.956  25.753   8.532
 1994POPC   C3B28857   0.039  25.770   8.108
 1994POPC   C4B28858  44.793  25.805   7.722
 1995POPC   NC328859   0.960  44.552   9.341
 1995POPC   PO428860   1.572  44.430   9.579
 1995POPC   GL128861   1.435  44.509   9.169
 1995POPC   GL228862   1.461  44.872   9.144
 1995POPC   C1A28863   1.470  44.572   8.724
 1995POPC   D2A28864   1.477  44.901   8.407
 1995POPC   C3A28865   1.285  44.776   8.040
 1995POPC   C4A28866   1.179  44.390   7.777
 1995POPC   C1B28867   1.123  44.941   8.804
 1995POPC   C2B28868   1.074   0.240   8.459
 1995POPC   C3B28869   0.926   0.170   8.046
 1995POPC   C4B28870   0.880  44.834   7.761
 1996POPC   NC328871  26.006  13.146   9.531
 1996POPC   PO428872  26.059  12.502   9.733
 1996POPC   GL128873  25.892  12.680   9.311
 1996POPC   GL228874  25.830  12.415   9.095
 1996POPC   C1A28875  26.002  12.921   8.903
 1996POPC   D2A28876  25.961  13.141   8.492
 1996POPC   C3A28877  26.297  13.195   8.198
 1996POPC   C4A28878  26.088  12.943   7.890
 1996POPC   C1B28879  25.937  12.482   8.660
 1996POPC   C2B28880  25.924  12.604   8.261
 1996POPC   C3B28881  25.715  12.569   7.912
 1996POPC   C4B28882  25.955  12.518   7.555
 1997POPC   NC328883  21.841   5.191   9.314
 1997POPC   PO428884  22.530   5.302   9.334
 1997POPC   GL128885  22.253   5.388   9.090
 1997POPC   GL228886  22.339   5.684   8.973
 1997POPC   C1A28887  22.114   5.228   8.724
 1997POPC   D2A28888  22.113   5.343   8.328
 1997POPC   C3A28889  21.932   5.064   8.024
 1997POPC   C4A28890  22.154   4.798   7.775
 1997POPC   C1B28891  22.593   5.383   8.669
 1997POPC   C2B28892  22.601   5.260   8.238
 1997POPC   C3B28893  22.318   5.365   7.867
 1997POPC   C4B28894  22.175   5.676   7.572
 1998POPC   NC328895   2.637  28.250   9.580
 1998POPC   PO428896   3.149  28.425   9.220
 1998POPC   GL128897   2.717  28.387   9.095
 1998POPC   GL228898   2.586  28.700   9.183
 1998POPC   C1A28899   2.570  28.278   8.689
 1998POPC   D2A28900   2.825  28.331   8.302
 1998POPC   C3A28901   2.759  28.134   7.895
 1998POPC   C4A28902   2.715  28.167   7.420
 1998POPC   C1B28903   2.802  28.744   8.737
 1998POPC   C2B28904   2.862  28.835   8.289
 1998POPC   C3B28905   2.679  28.653   7.886
 1998POPC   C4B28906   2.729  28.725   7.433
 1999POPC   NC328907  37.479  26.591   9.764
 1999POPC   PO428908  37.363  27.118   9.312
 1999POPC   GL128909  37.518  26.800   9.079
 1999POPC   GL228910  37.854  26.760   9.078
 1999POPC   C1A28911  37.651  26.952   8.670
 1999POPC   D2A28912  37.888  27.015   8.329
 1999POPC   C3A28913  37.638  26.817   8.050
 1999POPC   C4A28914  37.429  26.982   7.718
 1999POPC   C1B28915  38.082  26.528   8.759
 1999POPC   C2B28916  38.255  26.616   8.343
 1999POPC   C3B28917  38.145  26.797   7.947
 1999POPC   C4B28918  37.840  26.679   7.615
 2000POPC   NC328919  23.556  13.097   9.376
 2000POPC   PO428920  24.010  12.740   9.578
 2000POPC   GL128921  24.014  12.963   9.168
 2000POPC   GL228922  23.709  12.773   9.023
 2000POPC   C1A28923  24.002  12.994   8.698
 2000POPC   D2A28924  23.801  12.694   8.440
 2000POPC   C3A28925  23.634  12.815   8.043
 2000POPC   C4A28926  23.882  12.946   7.699
 2000POPC   C1B28927  23.380  12.714   8.700
 2000POPC   C2B28928  23.236  12.557   8.314
 2000POPC   C3B28929  23.218  12.549   7.860
 2000POPC   C4B28930  23.445  12.707   7.521
 2001POPC   NC328931  11.366  30.349   9.785
 2001POPC   PO428932  11.523  29.782   9.523
 2001POPC   GL128933  11.513  29.579   9.115
 2001POPC   GL228934  11.182  29.686   9.100
 2001POPC   C1A28935  11.584  29.615   8.646
 2001POPC   D2A28936  11.526  29.870   8.286
 2001POPC   C3A28937  11.514  29.729   7.862
 2001POPC   C4A28938  11.212  29.622   7.499
 2001POPC   C1B28939  11.192  29.926   8.710
 2001POPC   C2B28940  11.027  29.984   8.285
 2001POPC   C3B28941  11.125  30.041   7.837
 2001POPC   C4B28942  11.375  30.096   7.439
 2002POPC   NC328943   1.319  30.113   9.544
 2002POPC   PO428944   0.718  30.121   9.363
 2002POPC   GL128945   1.058  29.972   9.113
 2002POPC   GL228946   0.935  29.717   8.936
 2002POPC   C1A28947   1.382  30.044   8.806
 2002POPC   D2A28948   1.412  30.413   8.543
 2002POPC   C3A28949   1.328  30.245   8.162
 2002POPC   C4A28950   1.560  30.062   7.834
 2002POPC   C1B28951   1.251  29.553   8.681
 2002POPC   C2B28952   1.402  29.696   8.294
 2002POPC   C3B28953   1.523  29.552   7.903
 2002POPC   C4B28954   1.616  29.690   7.492
 2003POPC   NC328955  37.966  26.071   9.463
 2003POPC   PO428956  38.516  25.685   9.349
 2003POPC   GL128957  38.506  25.916   8.997
 2003POPC   GL228958  38.653  26.262   9.072
 2003POPC   C1A28959  38.364  25.772   8.596
 2003POPC   D2A28960  38.242  25.699   8.177
 2003POPC   C3A28961  38.299  25.946   7.838
 2003POPC   C4A28962  38.622  25.979   7.517
 2003POPC   C1B28963  38.531  26.260   8.624
 2003POPC   C2B28964  38.570  26.214   8.182
 2003POPC   C3B28965  38.893  26.284   7.845
 2003POPC   C4B28966  38.958  26.343   7.368
 2004POPC   NC328967  19.398   9.198   9.419
 2004POPC   PO428968  18.947   8.696   9.647
 2004POPC   GL128969  19.088   8.771   9.235
 2004POPC   GL228970  18.937   9.080   9.179
 2004POPC   C1A28971  19.292   8.903   8.835
 2004POPC   D2A28972  19.326   8.726   8.417
 2004POPC   C3A28973  19.337   8.961   8.050
 2004POPC   C4A28974  19.102   8.772   7.774
 2004POPC   C1B28975  18.857   9.249   8.773
 2004POPC   C2B28976  18.997   9.127   8.399
 2004POPC   C3B28977  18.822   9.134   8.008
 2004POPC   C4B28978  18.716   9.480   7.770
 2005POPC   NC328979  25.787  34.498   9.606
 2005POPC   PO428980  26.340  34.462   9.200
 2005POPC   GL128981  25.912  34.396   9.135
 2005POPC   GL228982  25.672  34.689   9.143
 2005POPC   C1A28983  25.784  34.226   8.770
 2005POPC   D2A28984  25.946  34.193   8.346
 2005POPC   C3A28985  25.810  34.469   8.012
 2005POPC   C4A28986  26.119  34.568   7.707
 2005POPC   C1B28987  25.942  34.765   8.790
 2005POPC   C2B28988  26.123  34.680   8.408
 2005POPC   C3B28989  26.265  34.888   8.059
 2005POPC   C4B28990  25.917  35.024   7.819
 2006POPC   NC328991  26.435  28.512   9.530
 2006POPC   PO428992  27.092  28.372   9.468
 2006POPC   GL128993  26.952  28.413   9.073
 2006POPC   GL228994  26.602  28.393   9.066
 2006POPC   C1A28995  27.136  28.451   8.699
 2006POPC   D2A28996  27.007  28.339   8.305
 2006POPC   C3A28997  26.980  28.662   8.074
 2006POPC   C4A28998  27.075  28.562   7.718
 2006POPC   C1B28999  26.616  28.408   8.629
 2006POPC   C2B29000  26.454  28.247   8.221
 2006POPC   C3B29001  26.675  28.236   7.814
 2006POPC   C4B29002  26.555  28.048   7.383
 2007POPC   NC329003  10.880  23.118   9.559
 2007POPC   PO429004  11.580  23.168   9.520
 2007POPC   GL129005  11.422  23.035   9.118
 2007POPC   GL229006  11.116  22.953   9.110
 2007POPC   C1A29007  11.434  22.787   8.724
 2007POPC   D2A29008  11.284  22.660   8.308
 2007POPC   C3A29009  11.518  22.817   7.947
 2007POPC   C4A29010  11.593  23.234   7.734
 2007POPC   C1B29011  10.932  22.932   8.724
 2007POPC   C2B29012  10.849  23.073   8.308
 2007POPC   C3B29013  11.010  22.905   7.932
 2007POPC   C4B29014  11.219  22.873   7.525
 2008POPC   NC329015   3.259  28.552   9.665
 2008POPC   PO429016   3.860  28.774   9.436
 2008POPC   GL129017   3.706  28.455   9.172
 2008POPC   GL229018   3.729  28.729   8.930
 2008POPC   C1A29019   3.627  28.271   8.757
 2008POPC   D2A29020   3.297  28.128   8.468
 2008POPC   C3A29021   3.282  28.291   8.035
 2008POPC   C4A29022   3.556  28.271   7.648
 2008POPC   C1B29023   3.397  28.705   8.626
 2008POPC   C2B29024   3.612  28.556   8.312
 2008POPC   C3B29025   3.786  28.678   7.948
 2008POPC   C4B29026   3.511  28.810   7.698
 2009POPC   NC329027  22.970  31.566   9.525
 2009POPC   PO429028  23.410  31.066   9.366
 2009POPC   GL129029  23.101  31.232   9.083
 2009POPC   GL229030  22.740  31.269   9.132
 2009POPC   C1A29031  22.954  31.372   8.671
 2009POPC   D2A29032  22.798  31.544   8.318
 2009POPC   C3A29033  22.916  31.358   7.942
 2009POPC   C4A29034  23.034  31.559   7.533
 2009POPC   C1B29035  22.530  31.585   8.861
 2009POPC   C2B29036  22.375  31.793   8.489
 2009POPC   C3B29037  22.388  31.695   8.056
 2009POPC   C4B29038  22.548  31.564   7.669
 2010POPC   NC329039  26.571  42.829   9.392
 2010POPC   PO429040  26.896  43.486   9.522
 2010POPC   GL129041  26.843  43.235   9.127
 2010POPC   GL229042  27.003  42.900   9.082
 2010POPC   C1A29043  26.697  43.071   8.722
 2010POPC   D2A29044  26.658  42.798   8.355
 2010POPC   C3A29045  26.739  42.992   7.960
 2010POPC   C4A29046  26.996  43.334   7.794
 2010POPC   C1B29047  27.123  42.764   8.693
 2010POPC   C2B29048  27.149  42.991   8.320
 2010POPC   C3B29049  27.226  42.869   7.906
 2010POPC   C4B29050  27.329  42.973   7.506
 2011POPC   NC329051  22.154  15.673   9.689
 2011POPC   PO429052  22.006  14.999   9.616
 2011POPC   GL129053  22.126  15.064   9.187
 2011POPC   GL229054  22.224  15.389   9.043
 2011POPC   C1A29055  22.154  14.898   8.755
 2011POPC   D2A29056  21.957  14.980   8.336
 2011POPC   C3A29057  22.139  14.855   7.940
 2011POPC   C4A29058  22.350  15.082   7.595
 2011POPC   C1B29059  21.873  15.363   8.731
 2011POPC   C2B29060  21.850  15.505   8.301
 2011POPC   C3B29061  22.023  15.379   7.908
 2011POPC   C4B29062  22.162  15.549   7.530
 2012POPC   NC329063   8.575   3.603   9.396
 2012POPC   PO429064   8.154   3.267   9.897
 2012POPC   GL129065   8.083   3.589   9.439
 2012POPC   GL229066   8.138   3.365   9.134
 2012POPC   C1A29067   7.997   3.786   8.955
 2012POPC   D2A29068   7.854   3.828   8.489
 2012POPC   C3A29069   8.122   3.869   8.104
 2012POPC   C4A29070   8.159   3.668   7.693
 2012POPC   C1B29071   8.173   3.209   8.747
 2012POPC   C2B29072   8.206   3.438   8.382
 2012POPC   C3B29073   8.474   3.457   8.029
 2012POPC   C4B29074   8.683   3.409   7.635
 2013POPC   NC329075  31.489  21.644   9.579
 2013POPC   PO429076  31.113  22.262   9.520
 2013POPC   GL129077  31.303  22.343   9.132
 2013POPC   GL229078  31.517  22.054   9.216
 2013POPC   C1A29079  31.571  22.413   8.802
 2013POPC   D2A29080  31.352  22.488   8.442
 2013POPC   C3A29081  31.505  22.445   8.029
 2013POPC   C4A29082  31.320  22.248   7.679
 2013POPC   C1B29083  31.227  21.941   8.861
 2013POPC   C2B29084  31.440  21.985   8.529
 2013POPC   C3B29085  31.404  21.967   8.117
 2013POPC   C4B29086  31.334  21.703   7.795
 2014POPC   NC329087   1.177  33.601   9.538
 2014POPC   PO429088   0.931  34.316   9.565
 2014POPC   GL129089   1.172  34.008   9.246
 2014POPC   GL229090   0.976  33.708   9.087
 2014POPC   C1A29091   1.412  33.899   8.854
 2014POPC   D2A29092   1.657  33.948   8.466
 2014POPC   C3A29093   1.387  34.108   8.164
 2014POPC   C4A29094   1.190  34.040   7.787
 2014POPC   C1B29095   1.030  33.572   8.666
 2014POPC   C2B29096   1.358  33.539   8.348
 2014POPC   C3B29097   1.254  33.540   7.905
 2014POPC   C4B29098   0.888  33.602   7.649
 2015POPC   NC329099   5.429   3.211   9.516
 2015POPC   PO429100   5.115   3.852   9.666
 2015POPC   GL129101   5.212   3.695   9.258
 2015POPC   GL229102   5.266   4.050   9.189
 2015POPC   C1A29103   5.162   3.403   8.873
 2015POPC   D2A29104   5.286   3.245   8.448
 2015POPC   C3A29105   4.947   3.213   8.171
 2015POPC   C4A29106   4.825   3.302   7.795
 2015POPC   C1B29107   5.057   3.906   8.791
 2015POPC   C2B29108   4.990   3.670   8.414
 2015POPC   C3B29109   5.204   3.637   8.025
 2015POPC   C4B29110   5.243   3.873   7.645
 2016POPC   NC329111  33.054  19.190   9.517
 2016POPC   PO429112  32.534  18.795   9.545
 2016POPC   GL129113  32.767  18.912   9.173
 2016POPC   GL229114  33.127  18.822   9.164
 2016POPC   C1A29115  32.966  19.235   8.875
 2016POPC   D2A29116  33.268  19.212   8.514
 2016POPC   C3A29117  33.012  19.135   8.140
 2016POPC   C4A29118  33.064  19.150   7.696
 2016POPC   C1B29119  33.036  18.745   8.733
 2016POPC   C2B29120  33.195  18.673   8.308
 2016POPC   C3B29121  33.448  18.886   7.982
 2016POPC   C4B29122  33.482  18.832   7.530
 2017POPC   NC329123  41.373   1.383   9.366
 2017POPC   PO429124  41.738   0.792   9.525
 2017POPC   GL129125  41.592   0.967   9.116
 2017POPC   GL229126  41.734   1.327   9.040
 2017POPC   C1A29127  41.417   1.020   8.687
 2017POPC   D2A29128  41.381   1.302   8.321
 2017POPC   C3A29129  41.501   1.081   7.977
 2017POPC   C4A29130  41.563   1.111   7.541
 2017POPC   C1B29131  41.917   1.155   8.708
 2017POPC   C2B29132  41.915   1.254   8.305
 2017POPC   C3B29133  41.841   1.456   7.965
 2017POPC   C4B29134  41.466   1.568   7.775
 2018POPC   NC329135  31.070  13.987   9.721
 2018POPC   PO429136  31.595  13.540   9.567
 2018POPC   GL129137  31.448  13.547   9.171
 2018POPC   GL229138  31.279  13.822   9.256
 2018POPC   C1A29139  31.414  13.461   8.724
 2018POPC   D2A29140  31.542  13.197   8.396
 2018POPC   C3A29141  31.483  13.354   8.011
 2018POPC   C4A29142  31.759  13.369   7.680
 2018POPC   C1B29143  31.507  13.937   8.859
 2018POPC   C2B29144  31.473  13.956   8.420
 2018POPC   C3B29145  31.321  14.049   8.015
 2018POPC   C4B29146  31.228  13.724   7.739
 2019POPC   NC329147  10.201  27.525   9.454
 2019POPC   PO429148   9.614  27.638   9.583
 2019POPC   GL129149   9.663  27.787   9.180
 2019POPC   GL229150   9.974  27.928   9.144
 2019POPC   C1A29151   9.767  27.572   8.782
 2019POPC   D2A29152   9.966  27.362   8.418
 2019POPC   C3A29153   9.831  27.362   8.005
 2019POPC   C4A29154   9.951  27.577   7.672
 2019POPC   C1B29155   9.853  28.067   8.775
 2019POPC   C2B29156  10.019  27.872   8.444
 2019POPC   C3B29157  10.151  27.875   8.060
 2019POPC   C4B29158   9.981  28.068   7.709
 2020POPC   NC329159  17.329  44.339   9.514
 2020POPC   PO429160  16.637  44.427   9.758
 2020POPC   GL129161  16.754  44.590   9.370
 2020POPC   GL229162  16.890  44.304   9.263
 2020POPC   C1A29163  16.667  44.699   8.936
 2020POPC   D2A29164  16.485  44.539   8.541
 2020POPC   C3A29165  16.585  44.717   8.127
 2020POPC   C4A29166  16.410  44.653   7.739
 2020POPC   C1B29167  17.069  44.387   8.832
 2020POPC   C2B29168  17.008  44.540   8.378
 2020POPC   C3B29169  16.907  44.342   7.936
 2020POPC   C4B29170  16.812  44.418   7.454
 2021POPC   NC329171  19.474   0.494   9.439
 2021POPC   PO429172  18.875   0.384   9.694
 2021POPC   GL129173  19.012   0.372   9.243
 2021POPC   GL229174  19.163   0.707   9.115
 2021POPC   C1A29175  19.152   0.226   8.825
 2021POPC   D2A29176  19.193   0.413   8.412
 2021POPC   C3A29177  19.319   0.279   7.991
 2021POPC   C4A29178  18.922   0.244   7.755
 2021POPC   C1B29179  19.356   0.813   8.705
 2021POPC   C2B29180  19.396   0.842   8.251
 2021POPC   C3B29181  19.099   0.738   7.936
 2021POPC   C4B29182  19.123   0.616   7.483
 2022POPC   NC329183  19.693  15.566   9.579
 2022POPC   PO429184  20.131  16.085   9.471
 2022POPC   GL129185  19.790  15.948   9.242
 2022POPC   GL229186  19.905  15.626   9.117
 2022POPC   C1A29187  19.649  16.042   8.847
 2022POPC   D2A29188  19.899  16.254   8.552
 2022POPC   C3A29189  19.941  16.029   8.170
 2022POPC   C4A29190  19.914  16.234   7.797
 2022POPC   C1B29191  19.583  15.492   8.850
 2022POPC   C2B29192  19.514  15.466   8.412
 2022POPC   C3B29193  19.707  15.523   8.021
 2022POPC   C4B29194  19.916  15.720   7.712
 2023POPC   NC329195   7.041  29.745   9.460
 2023POPC   PO429196   7.659  29.657   9.620
 2023POPC   GL129197   7.536  29.900   9.237
 2023POPC   GL229198   7.216  30.056   9.104
 2023POPC   C1A29199   7.595  29.971   8.795
 2023POPC   D2A29200   7.344  29.883   8.450
 2023POPC   C3A29201   7.532  29.894   8.061
 2023POPC   C4A29202   7.238  30.036   7.823
 2023POPC   C1B29203   7.002  29.745   8.827
 2023POPC   C2B29204   6.931  29.544   8.459
 2023POPC   C3B29205   7.108  29.581   8.080
 2023POPC   C4B29206   7.042  29.557   7.680
 2024POPC   NC329207   8.122   9.867   9.563
 2024POPC   PO429208   7.711  10.321   9.466
 2024POPC   GL129209   8.002  10.010   9.114
 2024POPC   GL229210   8.228   9.666   9.129
 2024POPC   C1A29211   8.005   9.817   8.696
 2024POPC   D2A29212   7.919   9.504   8.381
 2024POPC   C3A29213   7.931   9.568   7.962
 2024POPC   C4A29214   8.160   9.705   7.620
 2024POPC   C1B29215   8.428   9.506   8.778
 2024POPC   C2B29216   8.414   9.707   8.388
 2024POPC   C3B29217   8.468   9.574   7.990
 2024POPC   C4B29218   8.627   9.285   7.703
 2025POPC   NC329219  10.259   4.002   9.553
 2025POPC   PO429220  10.645   4.444   9.595
 2025POPC   GL129221  10.498   4.519   9.139
 2025POPC   GL229222  10.556   4.844   9.000
 2025POPC   C1A29223  10.377   4.490   8.678
 2025POPC   D2A29224  10.103   4.261   8.365
 2025POPC   C3A29225  10.291   4.223   7.937
 2025POPC   C4A29226  10.420   3.841   7.678
 2025POPC   C1B29227  10.851   4.780   8.671
 2025POPC   C2B29228  10.866   4.626   8.245
 2025POPC   C3B29229  10.992   4.412   7.853
 2025POPC   C4B29230  11.079   4.393   7.398
 2026POPC   NC329231  10.645  28.506   9.518
 2026POPC   PO429232  10.212  27.973   9.572
 2026POPC   GL129233  10.408  28.224   9.175
 2026POPC   GL229234  10.379  28.569   9.091
 2026POPC   C1A29235  10.720  28.406   8.778
 2026POPC   D2A29236  10.566  28.628   8.387
 2026POPC   C3A29237  10.815  28.476   8.048
 2026POPC   C4A29238  10.733  28.300   7.626
 2026POPC   C1B29239  10.215  28.395   8.717
 2026POPC   C2B29240  10.088  28.353   8.302
 2026POPC   C3B29241  10.331  28.349   7.942
 2026POPC   C4B29242  10.301  28.542   7.530
 2027POPC   NC329243  16.260  34.612   9.319
 2027POPC   PO429244  15.710  34.313   9.650
 2027POPC   GL129245  15.850  34.313   9.184
 2027POPC   GL229246  15.835  34.633   9.035
 2027POPC   C1A29247  16.125  34.290   8.758
 2027POPC   D2A29248  16.120  34.381   8.292
 2027POPC   C3A29249  15.932  34.444   7.866
 2027POPC   C4A29250  16.055  34.160   7.494
 2027POPC   C1B29251  15.665  34.469   8.627
 2027POPC   C2B29252  15.663  34.695   8.225
 2027POPC   C3B29253  15.441  34.675   7.830
 2027POPC   C4B29254  15.389  34.746   7.392
 2028POPC   NC329255  25.448  31.873   9.506
 2028POPC   PO429256  25.190  31.336   9.419
 2028POPC   GL129257  25.188  31.622   9.080
 2028POPC   GL229258  25.509  31.775   9.019
 2028POPC   C1A29259  25.141  31.569   8.629
 2028POPC   D2A29260  24.968  31.379   8.246
 2028POPC   C3A29261  25.147  31.534   7.852
 2028POPC   C4A29262  25.436  31.373   7.517
 2028POPC   C1B29263  25.657  31.585   8.650
 2028POPC   C2B29264  25.527  31.513   8.223
 2028POPC   C3B29265  25.692  31.670   7.831
 2028POPC   C4B29266  25.610  31.835   7.379
 2029POPC   NC329267  11.535  25.336   9.509
 2029POPC   PO429268  11.305  24.818   9.201
 2029POPC   GL129269  11.143  25.115   8.949
 2029POPC   GL229270  11.273  25.391   9.083
 2029POPC   C1A29271  11.140  25.078   8.560
 2029POPC   D2A29272  11.414  25.001   8.337
 2029POPC   C3A29273  11.198  25.080   8.029
 2029POPC   C4A29274  11.254  25.112   7.618
 2029POPC   C1B29275  11.533  25.361   8.743
 2029POPC   C2B29276  11.371  25.514   8.369
 2029POPC   C3B29277  11.499  25.456   7.989
 2029POPC   C4B29278  11.494  25.612   7.596
 2030POPC   NC329279  23.009  15.767   9.858
 2030POPC   PO429280  22.429  16.115   9.689
 2030POPC   GL129281  22.739  16.204   9.335
 2030POPC   GL229282  22.994  15.953   9.340
 2030POPC   C1A29283  22.918  16.178   8.865
 2030POPC   D2A29284  23.189  16.135   8.467
 2030POPC   C3A29285  22.930  16.078   8.085
 2030POPC   C4A29286  22.685  16.000   7.695
 2030POPC   C1B29287  23.142  15.730   8.976
 2030POPC   C2B29288  23.042  15.633   8.537
 2030POPC   C3B29289  23.121  15.581   8.091
 2030POPC   C4B29290  23.116  15.756   7.695
 2031POPC   NC329291  36.592  31.454   9.514
 2031POPC   PO429292  35.931  31.496   9.535
 2031POPC   GL129293  35.802  31.239   9.178
 2031POPC   GL229294  36.144  31.133   9.102
 2031POPC   C1A29295  35.831  31.278   8.733
 2031POPC   D2A29296  36.115  31.425   8.409
 2031POPC   C3A29297  35.806  31.674   8.224
 2031POPC   C4A29298  35.643  31.492   7.860
 2031POPC   C1B29299  36.274  31.519   8.892
 2031POPC   C2B29300  36.611  31.587   8.581
 2031POPC   C3B29301  36.570  31.581   8.130
 2031POPC   C4B29302  36.171  31.549   7.883
 2032POPC   NC329303  12.252   8.490   9.586
 2032POPC   PO429304  11.752   8.032   9.531
 2032POPC   GL129305  11.981   7.997   9.163
 2032POPC   GL229306  12.257   8.221   9.166
 2032POPC   C1A29307  11.926   8.087   8.742
 2032POPC   D2A29308  11.973   7.915   8.351
 2032POPC   C3A29309  11.911   8.219   8.023
 2032POPC   C4A29310  11.659   8.126   7.674
 2032POPC   C1B29311  12.431   8.025   8.822
 2032POPC   C2B29312  12.561   7.948   8.411
 2032POPC   C3B29313  12.357   7.937   8.014
 2032POPC   C4B29314  12.245   8.172   7.623
 2033POPC   NC329315  20.963  36.666   9.524
 2033POPC   PO429316  20.594  37.141   9.785
 2033POPC   GL129317  20.526  36.906   9.331
 2033POPC   GL229318  20.200  36.711   9.235
 2033POPC   C1A29319  20.558  36.789   8.884
 2033POPC   D2A29320  20.701  37.007   8.506
 2033POPC   C3A29321  20.615  37.055   8.064
 2033POPC   C4A29322  20.805  36.696   7.889
 2033POPC   C1B29323  20.026  36.615   8.870
 2033POPC   C2B29324  20.243  36.657   8.508
 2033POPC   C3B29325  20.173  36.802   8.126
 2033POPC   C4B29326  20.308  36.786   7.734
 2034POPC   NC329327  22.810   9.908   9.483
 2034POPC   PO429328  22.909   9.284   9.552
 2034POPC   GL129329  22.853   9.508   9.152
 2034POPC   GL229330  23.162   9.676   9.038
 2034POPC   C1A29331  22.740   9.759   8.772
 2034POPC   D2A29332  22.856  10.026   8.419
 2034POPC   C3A29333  22.801   9.836   8.018
 2034POPC   C4A29334  23.102   9.840   7.682
 2034POPC   C1B29335  23.248   9.703   8.563
 2034POPC   C2B29336  23.351   9.652   8.100
 2034POPC   C3B29337  23.564   9.609   7.673
 2034POPC   C4B29338  23.530   9.541   7.193
 2035POPC   NC329339  17.625  11.219   9.479
 2035POPC   PO429340  16.971  11.281   9.692
 2035POPC   GL129341  17.220  11.386   9.220
 2035POPC   GL229342  17.216  11.110   8.940
 2035POPC   C1A29343  17.527  11.515   8.879
 2035POPC   D2A29344  17.670  11.387   8.472
 2035POPC   C3A29345  17.390  11.210   8.174
 2035POPC   C4A29346  17.241  11.398   7.788
 2035POPC   C1B29347  17.634  10.929   8.809
 2035POPC   C2B29348  17.858  10.913   8.412
 2035POPC   C3B29349  17.873  11.146   8.029
 2035POPC   C4B29350  17.787  11.328   7.631
 2036POPC   NC329351  15.086  33.969   9.570
 2036POPC   PO429352  15.307  33.442   9.368
 2036POPC   GL129353  15.197  33.774   9.119
 2036POPC   GL229354  15.491  33.923   9.097
 2036POPC   C1A29355  15.173  34.031   8.707
 2036POPC   D2A29356  15.172  33.820   8.293
 2036POPC   C3A29357  15.350  33.995   7.918
 2036POPC   C4A29358  15.293  33.849   7.469
 2036POPC   C1B29359  15.398  33.579   8.719
 2036POPC   C2B29360  15.370  33.333   8.364
 2036POPC   C3B29361  15.403  33.488   7.955
 2036POPC   C4B29362  15.510  33.376   7.570
 2037POPC   NC329363  34.929  25.593   9.478
 2037POPC   PO429364  35.477  25.935   9.575
 2037POPC   GL129365  35.270  26.180   9.279
 2037POPC   GL229366  35.123  25.922   9.159
 2037POPC   C1A29367  35.352  26.296   8.869
 2037POPC   D2A29368  35.574  26.254   8.531
 2037POPC   C3A29369  35.411  26.254   8.140
 2037POPC   C4A29370  35.408  26.085   7.738
 2037POPC   C1B29371  35.010  25.711   8.779
 2037POPC   C2B29372  35.151  25.880   8.382
 2037POPC   C3B29373  35.042  25.801   7.941
 2037POPC   C4B29374  34.906  25.953   7.507
 2038POPC   NC329375  10.338  42.892   9.520
 2038POPC   PO429376  10.842  43.304   9.293
 2038POPC   GL129377  10.540  43.025   9.071
 2038POPC   GL229378  10.661  42.689   9.125
 2038POPC   C1A29379  10.269  42.965   8.704
 2038POPC   D2A29380  10.434  43.020   8.269
 2038POPC   C3A29381  10.319  43.047   7.807
 2038POPC   C4A29382  10.480  43.369   7.496
 2038POPC   C1B29383  10.713  42.696   8.687
 2038POPC   C2B29384  10.889  42.788   8.297
 2038POPC   C3B29385  10.965  42.871   7.884
 2038POPC   C4B29386  10.734  42.933   7.513
 2039POPC   NC329387  23.565  31.957   9.588
 2039POPC   PO429388  24.121  32.374   9.746
 2039POPC   GL129389  23.850  32.321   9.362
 2039POPC   GL229390  23.844  32.622   9.175
 2039POPC   C1A29391  23.743  32.081   8.944
 2039POPC   D2A29392  23.774  32.009   8.472
 2039POPC   C3A29393  23.580  32.150   8.082
 2039POPC   C4A29394  23.530  31.907   7.695
 2039POPC   C1B29395  24.029  32.481   8.777
 2039POPC   C2B29396  23.966  32.596   8.361
 2039POPC   C3B29397  24.076  32.448   7.995
 2039POPC   C4B29398  23.894  32.275   7.672
 2040POPC   NC329399  20.564  20.993   9.363
 2040POPC   PO429400  20.961  21.513   9.370
 2040POPC   GL129401  20.512  21.478   9.211
 2040POPC   GL229402  20.468  21.797   9.119
 2040POPC   C1A29403  20.366  21.286   8.791
 2040POPC   D2A29404  20.686  21.257   8.468
 2040POPC   C3A29405  20.616  21.243   8.025
 2040POPC   C4A29406  20.885  21.053   7.731
 2040POPC   C1B29407  20.672  21.692   8.759
 2040POPC   C2B29408  20.796  21.800   8.373
 2040POPC   C3B29409  20.705  21.759   7.974
 2040POPC   C4B29410  20.714  21.657   7.563
 2041POPC   NC329411  24.374  28.477   9.499
 2041POPC   PO429412  25.079  28.438   9.483
 2041POPC   GL129413  24.771  28.318   9.178
 2041POPC   GL229414  24.717  28.636   9.091
 2041POPC   C1A29415  24.675  28.095   8.796
 2041POPC   D2A29416  24.619  28.309   8.413
 2041POPC   C3A29417  24.630  28.127   8.018
 2041POPC   C4A29418  24.768  28.251   7.644
 2041POPC   C1B29419  24.358  28.499   8.838
 2041POPC   C2B29420  24.034  28.524   8.533
 2041POPC   C3B29421  24.115  28.603   8.087
 2041POPC   C4B29422  24.300  28.416   7.741
 2042POPC   NC329423  43.515   5.317   9.438
 2042POPC   PO429424  44.022   4.985   9.799
 2042POPC   GL129425  43.988   5.122   9.352
 2042POPC   GL229426  43.747   4.907   9.207
 2042POPC   C1A29427  43.897   5.241   8.873
 2042POPC   D2A29428  44.118   5.262   8.477
 2042POPC   C3A29429  43.953   5.267   8.081
 2042POPC   C4A29430  43.901   4.990   7.757
 2042POPC   C1B29431  43.623   4.793   8.815
 2042POPC   C2B29432  43.752   4.908   8.413
 2042POPC   C3B29433  43.522   4.840   8.057
 2042POPC   C4B29434  43.463   4.758   7.636
 2043POPC   NC329435   1.863   9.955   9.386
 2043POPC   PO429436   1.980   9.383   9.725
 2043POPC   GL129437   2.147   9.530   9.280
 2043POPC   GL229438   2.358   9.820   9.113
 2043POPC   C1A29439   2.021   9.552   8.828
 2043POPC   D2A29440   2.223   9.471   8.437
 2043POPC   C3A29441   2.010   9.449   8.053
 2043POPC   C4A29442   2.250   9.449   7.676
 2043POPC   C1B29443   2.116  10.044   8.744
 2043POPC   C2B29444   1.943   9.891   8.332
 2043POPC   C3B29445   2.027   9.924   7.854
 2043POPC   C4B29446   1.767  10.002   7.484
 2044POPC   NC329447  40.429  31.934   9.802
 2044POPC   PO429448  40.791  31.459   9.508
 2044POPC   GL129449  40.846  31.619   9.108
 2044POPC   GL229450  40.562  31.797   9.166
 2044POPC   C1A29451  40.898  31.483   8.697
 2044POPC   D2A29452  41.071  31.243   8.349
 2044POPC   C3A29453  40.865  31.354   7.976
 2044POPC   C4A29454  40.974  31.802   7.899
 2044POPC   C1B29455  40.445  31.726   8.748
 2044POPC   C2B29456  40.481  31.481   8.364
 2044POPC   C3B29457  40.476  31.682   7.954
 2044POPC   C4B29458  40.668  31.595   7.550
 2045POPC   NC329459  32.387  11.661   9.418
 2045POPC   PO429460  32.024  11.037   9.512
 2045POPC   GL129461  32.152  11.275   9.139
 2045POPC   GL229462  32.537  11.271   9.110
 2045POPC   C1A29463  32.227  11.362   8.694
 2045POPC   D2A29464  32.124  11.123   8.310
 2045POPC   C3A29465  32.267  11.321   7.901
 2045POPC   C4A29466  32.181  11.605   7.511
 2045POPC   C1B29467  32.688  11.566   8.773
 2045POPC   C2B29468  32.633  11.403   8.353
 2045POPC   C3B29469  32.578  10.994   8.173
 2045POPC   C4B29470  32.562  10.919   7.722
 2046POPC   NC329471  15.446   4.552   9.487
 2046POPC   PO429472  14.797   4.524   9.714
 2046POPC   GL129473  14.994   4.501   9.266
 2046POPC   GL229474  15.204   4.243   9.124
 2046POPC   C1A29475  15.093   4.630   8.819
 2046POPC   D2A29476  15.383   4.590   8.476
 2046POPC   C3A29477  15.186   4.552   8.074
 2046POPC   C4A29478  15.472   4.300   7.828
 2046POPC   C1B29479  15.437   4.137   8.748
 2046POPC   C2B29480  15.278   4.124   8.311
 2046POPC   C3B29481  15.178   3.915   7.913
 2046POPC   C4B29482  15.154   4.016   7.462
 2047POPC   NC329483   1.681  28.307   9.293
 2047POPC   PO429484   2.194  28.342   9.676
 2047POPC   GL129485   2.210  28.321   9.208
 2047POPC   GL229486   2.048  28.620   9.150
 2047POPC   C1A29487   2.049  28.258   8.739
 2047POPC   D2A29488   1.714  28.190   8.376
 2047POPC   C3A29489   1.768  28.072   7.906
 2047POPC   C4A29490   1.883  28.253   7.482
 2047POPC   C1B29491   2.279  28.729   8.779
 2047POPC   C2B29492   2.288  28.570   8.350
 2047POPC   C3B29493   2.130  28.464   7.926
 2047POPC   C4B29494   2.318  28.480   7.509
 2048POPC   NC329495   3.816  12.498   9.424
 2048POPC   PO429496   3.385  13.013   9.532
 2048POPC   GL129497   3.564  12.848   9.144
 2048POPC   GL229498   3.480  12.524   9.047
 2048POPC   C1A29499   3.645  12.866   8.694
 2048POPC   D2A29500   3.870  13.146   8.416
 2048POPC   C3A29501   3.770  13.068   7.976
 2048POPC   C4A29502   3.387  12.931   7.711
 2048POPC   C1B29503   3.465  12.323   8.680
 2048POPC   C2B29504   3.693  12.409   8.348
 2048POPC   C3B29505   3.627  12.577   7.988
 2048POPC   C4B29506   3.479  12.434   7.625
 2049POPC   NC329507   8.460  11.377   9.785
 2049POPC   PO429508   7.851  11.311   9.427
 2049POPC   GL129509   7.998  11.191   9.022
 2049POPC   GL229510   8.047  11.577   8.917
 2049POPC   C1A29511   8.392  11.163   8.766
 2049POPC   D2A29512   8.507  11.358   8.429
 2049POPC   C3A29513   8.379  11.117   8.130
 2049POPC   C4A29514   8.374  11.251   7.746
 2049POPC   C1B29515   7.727  11.419   8.675
 2049POPC   C2B29516   7.904  11.224   8.333
 2049POPC   C3B29517   7.985  11.446   7.979
 2049POPC   C4B29518   7.903  11.362   7.546
 2050POPC   NC329519  35.143   7.025   9.632
 2050POPC   PO429520  35.536   6.443   9.682
 2050POPC   GL129521  35.369   6.610   9.289
 2050POPC   GL229522  35.546   6.909   9.249
 2050POPC   C1A29523  35.292   6.621   8.823
 2050POPC   D2A29524  35.296   6.813   8.421
 2050POPC   C3A29525  35.199   6.677   7.976
 2050POPC   C4A29526  35.431   6.387   7.785
 2050POPC   C1B29527  35.710   6.955   8.826
 2050POPC   C2B29528  35.737   7.085   8.399
 2050POPC   C3B29529  35.580   6.997   8.013
 2050POPC   C4B29530  35.715   7.052   7.633
 2051POPC   NC329531  35.152   2.899   9.607
 2051POPC   PO429532  35.775   2.778   9.536
 2051POPC   GL129533  35.456   2.732   9.216
 2051POPC   GL229534  35.446   2.431   9.065
 2051POPC   C1A29535  35.372   2.873   8.766
 2051POPC   D2A29536  35.479   3.140   8.384
 2051POPC   C3A29537  35.428   3.058   7.937
 2051POPC   C4A29538  35.641   2.928   7.572
 2051POPC   C1B29539  35.382   2.387   8.601
 2051POPC   C2B29540  35.336   2.647   8.236
 2051POPC   C3B29541  35.378   2.550   7.783
 2051POPC   C4B29542  34.996   2.421   7.528
 2052POPC   NC329543  29.381  12.702   9.801
 2052POPC   PO429544  29.965  13.049   9.601
 2052POPC   GL129545  29.909  12.809   9.232
 2052POPC   GL229546  29.580  12.857   9.265
 2052POPC   C1A29547  30.017  12.598   8.842
 2052POPC   D2A29548  29.898  12.673   8.419
 2052POPC   C3A29549  30.073  12.590   8.013
 2052POPC   C4A29550  30.189  12.872   7.678
 2052POPC   C1B29551  29.588  12.885   8.821
 2052POPC   C2B29552  29.604  13.111   8.434
 2052POPC   C3B29553  29.646  12.920   8.038
 2052POPC   C4B29554  29.526  13.039   7.659
 2053POPC   NC329555  28.085  32.378   9.653
 2053POPC   PO429556  28.322  31.792   9.621
 2053POPC   GL129557  28.328  32.095   9.239
 2053POPC   GL229558  28.192  32.445   9.174
 2053POPC   C1A29559  28.469  32.145   8.791
 2053POPC   D2A29560  28.388  31.937   8.408
 2053POPC   C3A29561  28.403  32.160   7.994
 2053POPC   C4A29562  28.291  32.005   7.551
 2053POPC   C1B29563  28.022  32.371   8.794
 2053POPC   C2B29564  28.185  32.411   8.408
 2053POPC   C3B29565  27.970  32.416   8.018
 2053POPC   C4B29566  28.153  32.497   7.609
 2054POPC   NC329567  27.495  18.885   9.405
 2054POPC   PO429568  28.007  19.206   9.662
 2054POPC   GL129569  27.930  19.329   9.214
 2054POPC   GL229570  27.609  19.171   9.025
 2054POPC   C1A29571  28.014  19.227   8.760
 2054POPC   D2A29572  27.673  19.181   8.488
 2054POPC   C3A29573  27.711  19.216   8.064
 2054POPC   C4A29574  27.519  19.045   7.696
 2054POPC   C1B29575  27.636  18.771   8.779
 2054POPC   C2B29576  27.580  18.677   8.344
 2054POPC   C3B29577  27.268  18.793   8.069
 2054POPC   C4B29578  27.061  18.668   7.692
 2055POPC   NC329579   4.949  35.881   9.703
 2055POPC   PO429580   5.308  36.393   9.515
 2055POPC   GL129581   5.054  36.226   9.184
 2055POPC   GL229582   4.801  36.497   9.161
 2055POPC   C1A29583   5.218  36.067   8.763
 2055POPC   D2A29584   5.246  36.188   8.302
 2055POPC   C3A29585   5.414  35.983   7.919
 2055POPC   C4A29586   5.475  36.165   7.495
 2055POPC   C1B29587   4.923  36.488   8.736
 2055POPC   C2B29588   4.742  36.240   8.420
 2055POPC   C3B29589   4.810  36.080   8.025
 2055POPC   C4B29590   4.999  36.209   7.688
 2056POPC   NC329591  30.107   0.351   9.490
 2056POPC   PO429592  29.822  44.791   9.413
 2056POPC   GL129593  29.761   0.150   9.136
 2056POPC   GL229594  29.607  44.958   8.941
 2056POPC   C1A29595  29.826   0.347   8.695
 2056POPC   D2A29596  29.817   0.203   8.255
 2056POPC   C3A29597  29.844   0.523   7.909
 2056POPC   C4A29598  30.036   0.819   7.597
 2056POPC   C1B29599  29.928  44.839   8.619
 2056POPC   C2B29600  30.235  44.876   8.303
 2056POPC   C3B29601  30.167   0.068   7.903
 2056POPC   C4B29602  29.759   0.052   7.754
 2057POPC   NC329603  18.930   6.319   9.744
 2057POPC   PO429604  19.379   5.843   9.466
 2057POPC   GL129605  19.116   6.056   9.191
 2057POPC   GL229606  18.781   5.975   9.297
 2057POPC   C1A29607  19.105   5.876   8.769
 2057POPC   D2A29608  19.392   5.679   8.442
 2057POPC   C3A29609  19.304   5.666   7.979
 2057POPC   C4A29610  19.418   6.081   7.801
 2057POPC   C1B29611  18.656   5.650   8.993
 2057POPC   C2B29612  18.734   5.567   8.543
 2057POPC   C3B29613  18.918   5.876   8.264
 2057POPC   C4B29614  18.899   5.978   7.831
 2058POPC   NC329615  30.667  29.507   9.689
 2058POPC   PO429616  30.374  30.001   9.338
 2058POPC   GL129617  30.518  30.023   8.946
 2058POPC   GL229618  30.730  30.282   9.017
 2058POPC   C1A29619  30.602  29.839   8.558
 2058POPC   D2A29620  30.694  29.621   8.186
 2058POPC   C3A29621  30.400  29.730   7.868
 2058POPC   C4A29622  30.490  29.935   7.471
 2058POPC   C1B29623  30.934  30.224   8.632
 2058POPC   C2B29624  30.791  30.323   8.232
 2058POPC   C3B29625  30.782  30.095   7.867
 2058POPC   C4B29626  30.989  30.097   7.481
 2059POPC   NC329627   7.303  16.140   9.673
 2059POPC   PO429628   6.658  16.136   9.465
 2059POPC   GL129629   6.682  16.212   9.025
 2059POPC   GL229630   6.820  16.460   8.856
 2059POPC   C1A29631   6.659  15.990   8.661
 2059POPC   D2A29632   6.904  15.818   8.336
 2059POPC   C3A29633   6.632  15.884   8.032
 2059POPC   C4A29634   6.431  16.000   7.690
 2059POPC   C1B29635   7.082  16.247   8.555
 2059POPC   C2B29636   7.095  16.416   8.144
 2059POPC   C3B29637   6.864  16.296   7.778
 2059POPC   C4B29638   6.919  15.891   7.594
 2060POPC   NC329639   6.766   5.182   9.524
 2060POPC   PO429640   6.324   4.713   9.431
 2060POPC   GL129641   6.361   4.798   9.036
 2060POPC   GL229642   6.593   5.120   9.037
 2060POPC   C1A29643   6.315   4.950   8.638
 2060POPC   D2A29644   6.624   5.141   8.404
 2060POPC   C3A29645   6.544   5.126   7.989
 2060POPC   C4A29646   6.499   4.918   7.624
 2060POPC   C1B29647   6.803   4.804   8.801
 2060POPC   C2B29648   6.928   4.670   8.386
 2060POPC   C3B29649   6.966   4.815   7.960
 2060POPC   C4B29650   7.012   5.065   7.588
 2061POPC   NC329651   2.544   1.122   9.785
 2061POPC   PO429652   2.769   1.550   9.350
 2061POPC   GL129653   2.682   1.269   9.036
 2061POPC   GL229654   2.323   1.208   8.990
 2061POPC   C1A29655   2.691   0.934   8.725
 2061POPC   D2A29656   2.616   0.970   8.300
 2061POPC   C3A29657   2.868   1.280   8.144
 2061POPC   C4A29658   2.916   1.359   7.729
 2061POPC   C1B29659   2.439   1.611   8.742
 2061POPC   C2B29660   2.610   1.810   8.402
 2061POPC   C3B29661   2.556   1.660   7.995
 2061POPC   C4B29662   2.435   1.223   7.871
 2062POPC   NC329663   5.576  32.778  10.022
 2062POPC   PO429664   5.576  33.251   9.493
 2062POPC   GL129665   5.816  33.277   9.115
 2062POPC   GL229666   5.790  32.963   9.099
 2062POPC   C1A29667   5.738  33.268   8.681
 2062POPC   D2A29668   5.844  33.396   8.282
 2062POPC   C3A29669   5.650  33.127   7.980
 2062POPC   C4A29670   5.792  32.958   7.588
 2062POPC   C1B29671   5.926  32.791   8.761
 2062POPC   C2B29672   6.136  33.002   8.435
 2062POPC   C3B29673   6.161  33.035   7.982
 2062POPC   C4B29674   6.290  33.081   7.563
 2063POPC   NC329675  35.390  44.073   9.497
 2063POPC   PO429676  35.985  43.688   9.442
 2063POPC   GL129677  35.641  43.801   9.133
 2063POPC   GL229678  35.656  44.165   9.091
 2063POPC   C1A29679  35.315  43.862   8.777
 2063POPC   D2A29680  35.275  43.636   8.373
 2063POPC   C3A29681  35.041  43.678   7.984
 2063POPC   C4A29682  35.266  43.657   7.621
 2063POPC   C1B29683  35.841  44.043   8.714
 2063POPC   C2B29684  35.655  43.999   8.360
 2063POPC   C3B29685  35.448  43.975   7.991
 2063POPC   C4B29686  35.512  44.112   7.603
 2064POPC   NC329687  38.542  37.289   9.399
 2064POPC   PO429688  38.805  37.892   9.472
 2064POPC   GL129689  38.558  37.739   9.060
 2064POPC   GL229690  38.269  37.486   9.022
 2064POPC   C1A29691  38.362  37.750   8.607
 2064POPC   D2A29692  38.392  37.815   8.156
 2064POPC   C3A29693  38.686  37.541   7.974
 2064POPC   C4A29694  38.854  37.511   7.558
 2064POPC   C1B29695  37.910  37.481   8.742
 2064POPC   C2B29696  37.975  37.492   8.320
 2064POPC   C3B29697  37.900  37.245   7.971
 2064POPC   C4B29698  38.176  37.483   7.785
 2065POPC   NC329699   2.796  40.507   9.486
 2065POPC   PO429700   2.962  41.181   9.297
 2065POPC   GL129701   2.701  40.858   9.110
 2065POPC   GL229702   2.795  40.548   8.987
 2065POPC   C1A29703   2.514  40.921   8.731
 2065POPC   D2A29704   2.546  40.677   8.393
 2065POPC   C3A29705   2.618  40.988   8.114
 2065POPC   C4A29706   2.417  41.018   7.750
 2065POPC   C1B29707   2.996  40.468   8.614
 2065POPC   C2B29708   2.971  40.498   8.172
 2065POPC   C3B29709   2.818  40.646   7.799
 2065POPC   C4B29710   2.569  40.469   7.499
 2066POPC   NC329711  18.919   1.230   9.621
 2066POPC   PO429712  19.549   0.972   9.444
 2066POPC   GL129713  19.222   1.215   9.196
 2066POPC   GL229714  18.902   1.451   9.177
 2066POPC   C1A29715  19.163   1.318   8.762
 2066POPC   D2A29716  19.423   1.339   8.416
 2066POPC   C3A29717  19.179   1.256   8.034
 2066POPC   C4A29718  19.256   1.110   7.611
 2066POPC   C1B29719  18.639   1.394   8.817
 2066POPC   C2B29720  18.767   1.253   8.403
 2066POPC   C3B29721  18.669   1.425   8.003
 2066POPC   C4B29722  18.769   1.262   7.636
 2067POPC   NC329723  24.134  42.409  10.015
 2067POPC   PO429724  24.559  42.432   9.528
 2067POPC   GL129725  24.542  42.492   9.106
 2067POPC   GL229726  24.728  42.807   9.140
 2067POPC   C1A29727  24.483  42.244   8.723
 2067POPC   D2A29728  24.472  42.011   8.315
 2067POPC   C3A29729  24.439  42.229   7.909
 2067POPC   C4A29730  24.500  42.475   7.495
 2067POPC   C1B29731  24.676  42.780   8.703
 2067POPC   C2B29732  24.867  42.656   8.330
 2067POPC   C3B29733  24.772  42.641   7.889
 2067POPC   C4B29734  24.877  42.959   7.566
 2068POPC   NC329735   3.755  38.010   9.603
 2068POPC   PO429736   3.445  37.491   9.890
 2068POPC   GL129737   3.612  37.612   9.341
 2068POPC   GL229738   3.477  37.801   9.128
 2068POPC   C1A29739   3.759  37.488   8.862
 2068POPC   D2A29740   3.641  37.555   8.425
 2068POPC   C3A29741   3.866  37.436   8.059
 2068POPC   C4A29742   3.759  37.585   7.641
 2068POPC   C1B29743   3.342  37.832   8.731
 2068POPC   C2B29744   3.367  37.978   8.295
 2068POPC   C3B29745   3.511  38.007   7.874
 2068POPC   C4B29746   3.396  37.949   7.445
 2069POPC   NC329747  31.187  34.666   9.547
 2069POPC   PO429748  31.631  34.232   9.313
 2069POPC   GL129749  31.499  34.630   9.105
 2069POPC   GL229750  31.255  34.907   9.110
 2069POPC   C1A29751  31.443  34.632   8.698
 2069POPC   D2A29752  31.216  34.381   8.427
 2069POPC   C3A29753  31.385  34.367   8.058
 2069POPC   C4A29754  31.208  34.317   7.676
 2069POPC   C1B29755  31.125  35.023   8.700
 2069POPC   C2B29756  31.231  34.878   8.290
 2069POPC   C3B29757  31.253  34.818   7.872
 2069POPC   C4B29758  31.048  34.759   7.502
 2070POPC   NC329759  15.689  14.629   9.763
 2070POPC   PO429760  16.209  14.275   9.515
 2070POPC   GL129761  16.113  14.512   9.171
 2070POPC   GL229762  15.758  14.594   9.249
 2070POPC   C1A29763  16.236  14.330   8.757
 2070POPC   D2A29764  15.973  14.120   8.440
 2070POPC   C3A29765  16.029  14.255   8.016
 2070POPC   C4A29766  15.727  14.379   7.695
 2070POPC   C1B29767  15.775  14.539   8.797
 2070POPC   C2B29768  15.984  14.639   8.418
 2070POPC   C3B29769  15.822  14.731   8.037
 2070POPC   C4B29770  16.051  14.748   7.653
 2071POPC   NC329771  35.136  29.193   9.536
 2071POPC   PO429772  35.529  28.770   9.412
 2071POPC   GL129773  35.283  28.993   9.097
 2071POPC   GL229774  35.410  29.298   9.065
 2071POPC   C1A29775  35.292  29.015   8.654
 2071POPC   D2A29776  35.225  28.847   8.264
 2071POPC   C3A29777  35.311  28.947   7.836
 2071POPC   C4A29778  35.387  29.102   7.439
 2071POPC   C1B29779  35.552  29.472   8.668
 2071POPC   C2B29780  35.619  29.214   8.308
 2071POPC   C3B29781  35.570  29.392   7.903
 2071POPC   C4B29782  35.728  29.501   7.484
 2072POPC   NC329783  22.374  19.539  10.049
 2072POPC   PO429784  21.852  19.496   9.608
 2072POPC   GL129785  21.964  19.643   9.161
 2072POPC   GL229786  21.683  19.799   8.957
 2072POPC   C1A29787  22.310  19.578   8.848
 2072POPC   D2A29788  22.463  19.726   8.449
 2072POPC   C3A29789  22.386  19.641   8.002
 2072POPC   C4A29790  22.301  19.903   7.602
 2072POPC   C1B29791  21.945  19.878   8.635
 2072POPC   C2B29792  22.033  19.961   8.227
 2072POPC   C3B29793  21.897  19.773   7.881
 2072POPC   C4B29794  21.782  19.904   7.501
 2073POPC   NC329795  30.030  27.120   9.585
 2073POPC   PO429796  29.528  26.651   9.452
 2073POPC   GL129797  29.839  26.694   9.150
 2073POPC   GL229798  30.005  26.426   9.185
 2073POPC   C1A29799  30.006  26.889   8.782
 2073POPC   D2A29800  30.369  26.974   8.486
 2073POPC   C3A29801  30.238  26.927   8.050
 2073POPC   C4A29802  29.827  26.930   7.863
 2073POPC   C1B29803  30.178  26.408   8.771
 2073POPC   C2B29804  30.046  26.577   8.377
 2073POPC   C3B29805  30.004  26.471   7.960
 2073POPC   C4B29806  30.085  26.335   7.562
 2074POPC   NC329807   0.122  14.376   9.468
 2074POPC   PO429808   0.726  14.053   9.492
 2074POPC   GL129809   0.586  14.369   9.211
 2074POPC   GL229810   0.840  14.597   9.114
 2074POPC   C1A29811   0.383  14.608   8.864
 2074POPC   D2A29812   0.503  14.569   8.445
 2074POPC   C3A29813   0.319  14.754   8.099
 2074POPC   C4A29814   0.109  14.601   7.743
 2074POPC   C1B29815   0.853  14.262   8.745
 2074POPC   C2B29816   0.867  14.038   8.295
 2074POPC   C3B29817   0.850  14.134   7.815
 2074POPC   C4B29818   0.504  14.308   7.541
 2075POPC   NC329819  20.797  28.867   9.362
 2075POPC   PO429820  20.659  29.472   9.508
 2075POPC   GL129821  20.589  29.338   9.104
 2075POPC   GL229822  20.459  29.010   9.024
 2075POPC   C1A29823  20.596  29.545   8.711
 2075POPC   D2A29824  20.835  29.468   8.344
 2075POPC   C3A29825  20.579  29.412   7.992
 2075POPC   C4A29826  20.597  29.181   7.608
 2075POPC   C1B29827  20.750  29.035   8.672
 2075POPC   C2B29828  20.688  28.867   8.234
 2075POPC   C3B29829  20.859  28.800   7.807
 2075POPC   C4B29830  20.797  28.790   7.339
 2076POPC   NC329831  23.532   0.916   9.554
 2076POPC   PO429832  24.069   1.291   9.384
 2076POPC   GL129833  23.772   1.135   9.124
 2076POPC   GL229834  23.442   1.263   9.117
 2076POPC   C1A29835  23.728   1.288   8.701
 2076POPC   D2A29836  23.652   1.458   8.310
 2076POPC   C3A29837  23.749   1.174   8.025
 2076POPC   C4A29838  23.605   1.267   7.639
 2076POPC   C1B29839  23.381   0.920   8.776
 2076POPC   C2B29840  23.374   0.739   8.338
 2076POPC   C3B29841  23.350   0.864   7.884
 2076POPC   C4B29842  23.276   0.785   7.409
 2077POPC   NC329843  42.279  12.576   9.599
 2077POPC   PO429844  42.441  12.000   9.584
 2077POPC   GL129845  42.258  12.253   9.191
 2077POPC   GL229846  41.923  12.405   9.216
 2077POPC   C1A29847  42.177  12.146   8.744
 2077POPC   D2A29848  42.380  12.224   8.352
 2077POPC   C3A29849  42.308  12.132   7.917
 2077POPC   C4A29850  42.596  12.291   7.585
 2077POPC   C1B29851  41.887  12.554   8.777
 2077POPC   C2B29852  41.843  12.357   8.352
 2077POPC   C3B29853  41.910  12.501   7.901
 2077POPC   C4B29854  41.717  12.462   7.469
 2078POPC   NC329855  10.976  41.393   9.582
 2078POPC   PO429856  11.614  41.630   9.484
 2078POPC   GL129857  11.312  41.519   9.191
 2078POPC   GL229858  11.076  41.755   9.230
 2078POPC   C1A29859  11.072  41.344   8.852
 2078POPC   D2A29860  11.183  41.488   8.427
 2078POPC   C3A29861  11.183  41.246   8.028
 2078POPC   C4A29862  11.135  41.164   7.583
 2078POPC   C1B29863  11.075  41.865   8.829
 2078POPC   C2B29864  11.238  41.990   8.459
 2078POPC   C3B29865  11.435  41.819   8.111
 2078POPC   C4B29866  11.326  41.672   7.724
 2079POPC   NC329867  23.657   7.117  10.117
 2079POPC   PO429868  23.743   7.115   9.499
 2079POPC   GL129869  23.625   7.336   9.112
 2079POPC   GL229870  23.387   7.623   9.083
 2079POPC   C1A29871  23.525   7.291   8.663
 2079POPC   D2A29872  23.287   7.343   8.302
 2079POPC   C3A29873  23.411   7.409   7.889
 2079POPC   C4A29874  23.380   7.145   7.583
 2079POPC   C1B29875  23.407   7.798   8.641
 2079POPC   C2B29876  23.530   7.815   8.180
 2079POPC   C3B29877  23.780   7.752   7.767
 2079POPC   C4B29878  23.899   7.909   7.341
 2080POPC   NC329879  32.389  27.841   9.569
 2080POPC   PO429880  31.994  27.328   9.462
 2080POPC   GL129881  32.249  27.570   9.154
 2080POPC   GL229882  32.537  27.853   9.085
 2080POPC   C1A29883  32.112  27.768   8.789
 2080POPC   D2A29884  32.155  27.605   8.410
 2080POPC   C3A29885  31.961  27.722   8.043
 2080POPC   C4A29886  31.987  27.551   7.626
 2080POPC   C1B29887  32.584  27.535   8.747
 2080POPC   C2B29888  32.657  27.582   8.300
 2080POPC   C3B29889  32.465  27.796   7.979
 2080POPC   C4B29890  32.491  27.955   7.574
 2081POPC   NC329891  33.771   0.481   9.788
 2081POPC   PO429892  33.570  44.893   9.495
 2081POPC   GL129893  33.813   0.075   9.180
 2081POPC   GL229894  33.593   0.328   9.128
 2081POPC   C1A29895  33.996   0.210   8.768
 2081POPC   D2A29896  33.887   0.322   8.325
 2081POPC   C3A29897  34.075   0.454   7.928
 2081POPC   C4A29898  33.872   0.500   7.511
 2081POPC   C1B29899  33.490   0.310   8.687
 2081POPC   C2B29900  33.446   0.070   8.286
 2081POPC   C3B29901  33.585   0.226   7.868
 2081POPC   C4B29902  33.365   0.339   7.478
 2082POPC   NC329903  24.390  18.094   9.694
 2082POPC   PO429904  24.105  18.576   9.316
 2082POPC   GL129905  24.421  18.492   9.016
 2082POPC   GL229906  24.584  18.205   9.171
 2082POPC   C1A29907  24.333  18.451   8.574
 2082POPC   D2A29908  24.565  18.290   8.231
 2082POPC   C3A29909  24.521  18.592   7.892
 2082POPC   C4A29910  24.686  18.580   7.451
 2082POPC   C1B29911  24.535  18.018   8.735
 2082POPC   C2B29912  24.338  17.858   8.358
 2082POPC   C3B29913  24.503  17.832   7.960
 2082POPC   C4B29914  24.743  18.149   7.749
 2083POPC   NC329915  39.705  10.638   9.295
 2083POPC   PO429916  39.093  10.590   9.566
 2083POPC   GL129917  39.210  10.563   9.157
 2083POPC   GL229918  39.167  10.224   9.052
 2083POPC   C1A29919  39.295  10.547   8.704
 2083POPC   D2A29920  39.055  10.266   8.418
 2083POPC   C3A29921  39.043  10.414   7.993
 2083POPC   C4A29922  39.229  10.675   7.661
 2083POPC   C1B29923  39.424  10.045   8.710
 2083POPC   C2B29924  39.491  10.059   8.229
 2083POPC   C3B29925  39.486  10.232   7.781
 2083POPC   C4B29926  39.592  10.205   7.317
 2084POPC   NC329927  12.800  14.579   9.456
 2084POPC   PO429928  13.162  13.963   9.530
 2084POPC   GL129929  13.080  14.269   9.170
 2084POPC   GL229930  13.111  14.626   9.009
 2084POPC   C1A29931  13.128  14.208   8.731
 2084POPC   D2A29932  12.927  14.351   8.365
 2084POPC   C3A29933  13.085  14.444   7.991
 2084POPC   C4A29934  12.995  14.077   7.713
 2084POPC   C1B29935  12.734  14.573   8.784
 2084POPC   C2B29936  12.494  14.611   8.395
 2084POPC   C3B29937  12.562  14.431   7.988
 2084POPC   C4B29938  12.759  14.756   7.793
 2085POPC   NC329939  14.093  16.508   9.534
 2085POPC   PO429940  14.409  17.021   9.858
 2085POPC   GL129941  14.475  16.907   9.378
 2085POPC   GL229942  14.753  16.688   9.314
 2085POPC   C1A29943  14.366  16.739   8.923
 2085POPC   D2A29944  14.195  16.829   8.482
 2085POPC   C3A29945  14.113  16.633   8.091
 2085POPC   C4A29946  14.284  16.598   7.705
 2085POPC   C1B29947  14.810  16.478   8.910
 2085POPC   C2B29948  14.642  16.574   8.483
 2085POPC   C3B29949  14.640  16.734   8.055
 2085POPC   C4B29950  14.794  16.489   7.725
 2086POPC   NC329951  26.115  39.715   9.311
 2086POPC   PO429952  26.274  39.073   9.644
 2086POPC   GL129953  26.225  39.159   9.216
 2086POPC   GL229954  25.954  38.896   9.142
 2086POPC   C1A29955  26.233  39.325   8.792
 2086POPC   D2A29956  26.381  39.276   8.370
 2086POPC   C3A29957  26.213  39.426   7.988
 2086POPC   C4A29958  25.814  39.393   7.814
 2086POPC   C1B29959  26.145  38.813   8.747
 2086POPC   C2B29960  26.331  38.742   8.365
 2086POPC   C3B29961  26.258  38.847   7.975
 2086POPC   C4B29962  26.033  38.973   7.646
 2087POPC   NC329963  11.485   3.588  10.082
 2087POPC   PO429964  11.429   3.587   9.594
 2087POPC   GL129965  11.264   3.550   9.133
 2087POPC   GL229966  10.929   3.395   9.185
 2087POPC   C1A29967  11.339   3.595   8.641
 2087POPC   D2A29968  11.402   3.469   8.181
 2087POPC   C3A29969  11.380   3.794   7.847
 2087POPC   C4A29970  11.347   3.932   7.388
 2087POPC   C1B29971  10.937   3.283   8.749
 2087POPC   C2B29972  10.913   3.441   8.325
 2087POPC   C3B29973  10.971   3.461   7.869
 2087POPC   C4B29974  10.785   3.492   7.443
 2088POPC   NC329975  32.466  12.456   9.464
 2088POPC   PO429976  32.007  11.936   9.383
 2088POPC   GL129977  32.310  12.080   9.110
 2088POPC   GL229978  32.113  12.362   9.061
 2088POPC   C1A29979  32.346  11.995   8.660
 2088POPC   D2A29980  32.233  11.709   8.293
 2088POPC   C3A29981  32.431  11.814   7.895
 2088POPC   C4A29982  32.165  12.104   7.665
 2088POPC   C1B29983  32.499  12.478   8.815
 2088POPC   C2B29984  32.659  12.422   8.413
 2088POPC   C3B29985  32.469  12.301   8.045
 2088POPC   C4B29986  32.642  12.230   7.622
 2089POPC   NC329987  44.022  19.465   9.354
 2089POPC   PO429988  43.546  19.022   9.521
 2089POPC   GL129989  43.683  19.152   9.105
 2089POPC   GL229990  43.754  18.816   9.003
 2089POPC   C1A29991  43.922  19.210   8.681
 2089POPC   D2A29992  44.102  19.309   8.243
 2089POPC   C3A29993  43.810  19.328   7.850
 2089POPC   C4A29994  43.497  19.081   7.577
 2089POPC   C1B29995  44.134  18.722   8.780
 2089POPC   C2B29996  44.202  18.797   8.380
 2089POPC   C3B29997  43.953  18.850   8.018
 2089POPC   C4B29998  43.963  18.918   7.551
 2090POPC   NC329999  24.687  17.428   9.527
 2090POPC   PO430000  24.107  17.800   9.482
 2090POPC   GL130001  24.290  17.661   9.128
 2090POPC   GL230002  24.622  17.708   9.124
 2090POPC   C1A30003  24.333  17.508   8.720
 2090POPC   D2A30004  24.603  17.389   8.352
 2090POPC   C3A30005  24.327  17.341   8.001
 2090POPC   C4A30006  24.269  17.461   7.583
 2090POPC   C1B30007  24.847  17.626   8.750
 2090POPC   C2B30008  24.881  17.841   8.353
 2090POPC   C3B30009  25.003  17.676   7.953
 2090POPC   C4B30010  24.792  17.274   7.838
 2091POPC   NC330011  27.783  17.175   9.371
 2091POPC   PO430012  27.494  16.570   9.551
 2091POPC   GL130013  27.551  16.449   9.140
 2091POPC   GL230014  27.781  16.715   9.064
 2091POPC   C1A30015  27.385  16.592   8.763
 2091POPC   D2A30016  27.597  16.831   8.482
 2091POPC   C3A30017  27.560  16.605   8.132
 2091POPC   C4A30018  27.503  16.784   7.743
 2091POPC   C1B30019  28.057  16.850   8.729
 2091POPC   C2B30020  28.104  16.836   8.328
 2091POPC   C3B30021  27.909  17.004   8.003
 2091POPC   C4B30022  28.025  16.963   7.596
 2092POPC   NC330023   2.352  16.615   9.555
 2092POPC   PO430024   1.630  16.857   9.482
 2092POPC   GL130025   1.923  16.674   9.182
 2092POPC   GL230026   2.208  16.921   9.168
 2092POPC   C1A30027   1.943  16.445   8.769
 2092POPC   D2A30028   2.173  16.452   8.356
 2092POPC   C3A30029   2.081  16.701   8.015
 2092POPC   C4A30030   1.743  16.610   7.752
 2092POPC   C1B30031   2.369  17.173   8.820
 2092POPC   C2B30032   2.264  17.044   8.393
 2092POPC   C3B30033   2.480  17.016   8.008
 2092POPC   C4B30034   2.248  17.064   7.643
 2093POPC   NC330035  18.504  26.325   9.428
 2093POPC   PO430036  18.123  26.904   9.517
 2093POPC   GL130037  18.123  26.811   9.120
 2093POPC   GL230038  18.493  26.772   9.070
 2093POPC   C1A30039  18.159  27.027   8.736
 2093POPC   D2A30040  18.360  26.937   8.359
 2093POPC   C3A30041  18.163  26.845   7.979
 2093POPC   C4A30042  17.929  27.077   7.664
 2093POPC   C1B30043  18.560  26.547   8.652
 2093POPC   C2B30044  18.544  26.499   8.165
 2093POPC   C3B30045  18.468  26.514   7.724
 2093POPC   C4B30046  18.687  26.641   7.333
 2094POPC   NC330047  17.039  28.683   9.431
 2094POPC   PO430048  17.136  28.061   9.181
 2094POPC   GL130049  16.728  28.267   9.044
 2094POPC   GL230050  16.717  28.667   8.992
 2094POPC   C1A30051  16.516  28.308   8.666
 2094POPC   D2A30052  16.769  28.582   8.464
 2094POPC   C3A30053  16.898  28.511   8.080
 2094POPC   C4A30054  16.858  28.309   7.739
 2094POPC   C1B30055  16.325  28.770   8.755
 2094POPC   C2B30056  16.090  28.614   8.403
 2094POPC   C3B30057  16.318  28.479   8.032
 2094POPC   C4B30058  16.445  28.656   7.648
 2095POPC   NC330059   5.039   9.985   9.706
 2095POPC   PO430060   5.328   9.395   9.699
 2095POPC   GL130061   5.256   9.625   9.333
 2095POPC   GL230062   4.947   9.769   9.249
 2095POPC   C1A30063   5.312   9.701   8.889
 2095POPC   D2A30064   5.239   9.930   8.506
 2095POPC   C3A30065   5.278   9.710   8.140
 2095POPC   C4A30066   5.345   9.838   7.742
 2095POPC   C1B30067   4.816   9.876   8.817
 2095POPC   C2B30068   4.722   9.863   8.359
 2095POPC   C3B30069   4.861   9.925   7.926
 2095POPC   C4B30070   4.938   9.938   7.460
 2096POPC   NC330071  40.626  11.792   9.825
 2096POPC   PO430072  40.368  12.277   9.568
 2096POPC   GL130073  40.629  12.317   9.205
 2096POPC   GL230074  40.624  11.968   9.180
 2096POPC   C1A30075  40.874  12.264   8.822
 2096POPC   D2A30076  40.743  12.413   8.427
 2096POPC   C3A30077  40.954  12.274   8.046
 2096POPC   C4A30078  41.042  12.165   7.591
 2096POPC   C1B30079  40.509  11.913   8.740
 2096POPC   C2B30080  40.720  11.897   8.322
 2096POPC   C3B30081  40.806  11.789   7.873
 2096POPC   C4B30082  40.584  11.852   7.491
 2097POPC   NC330083  16.185  32.458   9.575
 2097POPC   PO430084  15.698  32.002   9.493
 2097POPC   GL130085  15.802  32.334   9.218
 2097POPC   GL230086  16.138  32.301   9.086
 2097POPC   C1A30087  15.726  32.424   8.793
 2097POPC   D2A30088  15.745  32.258   8.356
 2097POPC   C3A30089  15.746  32.516   7.985
 2097POPC   C4A30090  15.811  32.517   7.505
 2097POPC   C1B30091  16.118  32.121   8.676
 2097POPC   C2B30092  16.260  32.212   8.247
 2097POPC   C3B30093  16.199  32.345   7.816
 2097POPC   C4B30094  16.140  32.141   7.415
 2098POPC   NC330095  34.536  13.920   9.307
 2098POPC   PO430096  34.918  14.278   9.746
 2098POPC   GL130097  34.687  14.385   9.216
 2098POPC   GL230098  34.625  14.176   8.893
 2098POPC   C1A30099  34.701  14.652   8.809
 2098POPC   D2A30100  34.606  14.399   8.407
 2098POPC   C3A30101  34.595  14.597   8.025
 2098POPC   C4A30102  34.673  14.774   7.619
 2098POPC   C1B30103  34.251  14.467   8.768
 2098POPC   C2B30104  34.092  14.558   8.387
 2098POPC   C3B30105  34.158  14.325   8.032
 2098POPC   C4B30106  34.332  14.382   7.640
 2099POPC   NC330107  12.167  10.921   9.630
 2099POPC   PO430108  12.478  11.515   9.705
 2099POPC   GL130109  12.341  11.444   9.266
 2099POPC   GL230110  12.183  11.117   9.141
 2099POPC   C1A30111  12.427  11.490   8.843
 2099POPC   D2A30112  12.135  11.401   8.521
 2099POPC   C3A30113  12.207  11.229   8.106
 2099POPC   C4A30114  12.298  11.268   7.670
 2099POPC   C1B30115  12.068  10.928   8.730
 2099POPC   C2B30116  11.922  10.832   8.332
 2099POPC   C3B30117  11.851  10.932   7.903
 2099POPC   C4B30118  11.941  11.006   7.440
 2100POPC   NC330119  19.389  18.829   9.712
 2100POPC   PO430120  18.996  19.239   9.358
 2100POPC   GL130121  19.037  18.951   9.072
 2100POPC   GL230122  19.305  18.849   9.211
 2100POPC   C1A30123  18.933  18.870   8.678
 2100POPC   D2A30124  19.012  19.154   8.355
 2100POPC   C3A30125  18.979  18.930   7.977
 2100POPC   C4A30126  18.940  18.889   7.580
 2100POPC   C1B30127  19.472  19.107   8.847
 2100POPC   C2B30128  19.550  19.132   8.414
 2100POPC   C3B30129  19.393  19.194   8.021
 2100POPC   C4B30130  19.472  19.117   7.599
 2101POPC   NC330131  11.211  38.866   9.590
 2101POPC   PO430132  11.667  38.386   9.774
 2101POPC   GL130133  11.470  38.419   9.296
 2101POPC   GL230134  11.118  38.544   9.210
 2101POPC   C1A30135  11.394  38.372   8.796
 2101POPC   D2A30136  11.083  38.500   8.450
 2101POPC   C3A30137  11.195  38.489   8.000
 2101POPC   C4A30138  11.244  38.377   7.561
 2101POPC   C1B30139  11.135  38.810   8.845
 2101POPC   C2B30140  11.280  38.970   8.449
 2101POPC   C3B30141  11.227  38.996   8.033
 2101POPC   C4B30142  11.221  38.885   7.630
 2102POPC   NC330143  35.587  13.052   9.449
 2102POPC   PO430144  35.169  12.563   9.471
 2102POPC   GL130145  35.394  12.658   9.139
 2102POPC   GL230146  35.220  12.945   9.076
 2102POPC   C1A30147  35.264  12.568   8.730
 2102POPC   D2A30148  35.354  12.723   8.321
 2102POPC   C3A30149  35.124  12.611   7.983
 2102POPC   C4A30150  34.951  12.929   7.753
 2102POPC   C1B30151  35.263  13.097   8.668
 2102POPC   C2B30152  35.245  13.282   8.251
 2102POPC   C3B30153  35.428  13.041   7.909
 2102POPC   C4B30154  35.697  12.992   7.564
 2103POPC   NC330155  39.861  25.174   9.353
 2103POPC   PO430156  39.141  25.094   9.468
 2103POPC   GL130157  39.284  24.962   9.101
 2103POPC   GL230158  39.450  25.260   9.061
 2103POPC   C1A30159  39.135  25.013   8.714
 2103POPC   D2A30160  38.884  24.946   8.382
 2103POPC   C3A30161  38.945  25.247   8.133
 2103POPC   C4A30162  38.911  25.136   7.740
 2103POPC   C1B30163  39.571  25.322   8.645
 2103POPC   C2B30164  39.666  25.325   8.211
 2103POPC   C3B30165  39.386  25.292   7.869
 2103POPC   C4B30166  39.102  25.643   7.784
 2104POPC   NC330167  33.525  25.920   9.644
 2104POPC   PO430168  34.069  26.288   9.502
 2104POPC   GL130169  33.804  26.161   9.138
 2104POPC   GL230170  33.754  25.816   9.165
 2104POPC   C1A30171  33.866  26.101   8.654
 2104POPC   D2A30172  33.792  25.856   8.253
 2104POPC   C3A30173  33.870  26.114   7.868
 2104POPC   C4A30174  34.106  26.495   7.818
 2104POPC   C1B30175  33.665  25.652   8.745
 2104POPC   C2B30176  33.310  25.729   8.420
 2104POPC   C3B30177  33.363  25.607   8.010
 2104POPC   C4B30178  33.753  25.630   7.774
 2105POPC   NC330179  41.718  23.028   9.633
 2105POPC   PO430180  41.841  23.555   9.412
 2105POPC   GL130181  41.504  23.269   9.224
 2105POPC   GL230182  41.582  22.929   9.147
 2105POPC   C1A30183  41.444  23.276   8.768
 2105POPC   D2A30184  41.683  23.100   8.405
 2105POPC   C3A30185  41.467  23.007   8.051
 2105POPC   C4A30186  41.414  23.175   7.630
 2105POPC   C1B30187  41.687  22.751   8.781
 2105POPC   C2B30188  41.880  22.529   8.443
 2105POPC   C3B30189  41.942  22.500   7.990
 2105POPC   C4B30190  41.632  22.674   7.710
 2106POPC   NC330191  34.616  23.974   9.719
 2106POPC   PO430192  34.083  23.681   9.605
 2106POPC   GL130193  34.318  23.728   9.217
 2106POPC   GL230194  34.703  23.702   9.151
 2106POPC   C1A30195  34.348  23.902   8.809
 2106POPC   D2A30196  34.561  23.657   8.479
 2106POPC   C3A30197  34.545  23.843   8.077
 2106POPC   C4A30198  34.523  23.740   7.657
 2106POPC   C1B30199  34.983  23.628   8.766
 2106POPC   C2B30200  35.026  23.394   8.390
 2106POPC   C3B30201  34.841  23.412   7.962
 2106POPC   C4B30202  34.854  23.400   7.485
 2107POPC   NC330203  31.878  15.973   9.642
 2107POPC   PO430204  31.243  15.779   9.506
 2107POPC   GL130205  31.398  16.093   9.247
 2107POPC   GL230206  31.671  15.961   9.163
 2107POPC   C1A30207  31.279  16.194   8.801
 2107POPC   D2A30208  31.554  16.142   8.446
 2107POPC   C3A30209  31.397  16.175   8.049
 2107POPC   C4A30210  31.391  15.975   7.644
 2107POPC   C1B30211  31.469  15.723   8.823
 2107POPC   C2B30212  31.558  15.643   8.385
 2107POPC   C3B30213  31.297  15.668   8.024
 2107POPC   C4B30214  31.193  15.497   7.657
 2108POPC   NC330215  31.078  24.959   9.556
 2108POPC   PO430216  30.661  25.535   9.449
 2108POPC   GL130217  30.819  25.245   9.210
 2108POPC   GL230218  31.100  25.429   9.223
 2108POPC   C1A30219  30.765  25.306   8.780
 2108POPC   D2A30220  30.575  25.496   8.414
 2108POPC   C3A30221  30.638  25.198   8.075
 2108POPC   C4A30222  30.571  25.116   7.633
 2108POPC   C1B30223  31.168  25.645   8.866
 2108POPC   C2B30224  31.038  25.700   8.443
 2108POPC   C3B30225  31.010  25.533   8.004
 2108POPC   C4B30226  30.745  25.597   7.635
 2109POPC   NC330227  16.863  25.240   9.585
 2109POPC   PO430228  16.533  25.793   9.556
 2109POPC   GL130229  16.738  25.594   9.156
 2109POPC   GL230230  16.983  25.320   9.120
 2109POPC   C1A30231  16.881  25.530   8.683
 2109POPC   D2A30232  16.743  25.152   8.470
 2109POPC   C3A30233  16.600  25.139   8.035
 2109POPC   C4A30234  16.357  25.388   7.727
 2109POPC   C1B30235  17.142  25.064   8.834
 2109POPC   C2B30236  17.252  25.166   8.456
 2109POPC   C3B30237  17.086  25.307   8.077
 2109POPC   C4B30238  16.924  25.217   7.644
 2110POPC   NC330239  40.961  26.491   9.507
 2110POPC   PO430240  40.573  27.025   9.489
 2110POPC   GL130241  40.694  26.811   9.136
 2110POPC   GL230242  40.553  26.479   9.146
 2110POPC   C1A30243  40.704  26.917   8.717
 2110POPC   D2A30244  40.962  26.768   8.387
 2110POPC   C3A30245  40.793  27.003   8.061
 2110POPC   C4A30246  40.907  27.152   7.671
 2110POPC   C1B30247  40.639  26.400   8.708
 2110POPC   C2B30248  40.526  26.518   8.298
 2110POPC   C3B30249  40.680  26.529   7.895
 2110POPC   C4B30250  40.486  26.273   7.654
 2111POPC   NC330251   4.683  38.070   9.580
 2111POPC   PO430252   4.757  38.763   9.815
 2111POPC   GL130253   4.606  38.532   9.385
 2111POPC   GL230254   4.283  38.652   9.225
 2111POPC   C1A30255   4.558  38.345   8.944
 2111POPC   D2A30256   4.620  38.433   8.484
 2111POPC   C3A30257   4.437  38.220   8.103
 2111POPC   C4A30258   4.679  38.060   7.744
 2111POPC   C1B30259   4.220  38.926   8.865
 2111POPC   C2B30260   4.285  38.858   8.412
 2111POPC   C3B30261   4.174  38.706   7.993
 2111POPC   C4B30262   4.034  38.339   7.747
 2112POPC   NC330263  37.885   1.066   9.541
 2112POPC   PO430264  37.594   1.644   9.536
 2112POPC   GL130265  37.551   1.311   9.241
 2112POPC   GL230266  37.865   1.210   9.064
 2112POPC   C1A30267  37.391   1.071   8.929
 2112POPC   D2A30268  37.644   1.118   8.587
 2112POPC   C3A30269  37.544   1.162   8.164
 2112POPC   C4A30270  37.257   1.139   7.794
 2112POPC   C1B30271  38.056   1.413   8.735
 2112POPC   C2B30272  38.065   1.299   8.302
 2112POPC   C3B30273  37.900   1.498   7.956
 2112POPC   C4B30274  37.742   1.215   7.701
 2113POPC   NC330275  30.008  33.118   9.707
 2113POPC   PO430276  29.550  32.759   9.321
 2113POPC   GL130277  29.764  32.911   9.047
 2113POPC   GL230278  30.081  32.931   9.210
 2113POPC   C1A30279  29.943  32.987   8.680
 2113POPC   D2A30280  30.083  33.298   8.424
 2113POPC   C3A30281  30.048  33.146   8.040
 2113POPC   C4A30282  29.806  32.885   7.797
 2113POPC   C1B30283  30.135  32.578   8.918
 2113POPC   C2B30284  30.148  32.548   8.464
 2113POPC   C3B30285  30.302  32.707   8.083
 2113POPC   C4B30286  30.273  32.767   7.648
 2114POPC   NC330287  44.810  42.066   9.555
 2114POPC   PO430288  44.779  42.729   9.450
 2114POPC   GL130289  44.806  42.415   9.099
 2114POPC   GL230290  44.795  42.045   9.049
 2114POPC   C1A30291  44.675  42.355   8.662
 2114POPC   D2A30292  44.885  42.329   8.279
 2114POPC   C3A30293  44.698  42.410   7.873
 2114POPC   C4A30294  44.566  42.809   7.735
 2114POPC   C1B30295  44.465  41.885   8.762
 2114POPC   C2B30296  44.259  41.856   8.383
 2114POPC   C3B30297  44.347  42.068   8.035
 2114POPC   C4B30298  44.491  42.002   7.638
 2115POPC   NC330299  10.876  24.146   9.500
 2115POPC   PO430300  10.671  23.543   9.711
 2115POPC   GL130301  10.725  23.686   9.273
 2115POPC   GL230302  10.396  23.575   9.172
 2115POPC   C1A30303  10.670  23.788   8.800
 2115POPC   D2A30304  10.753  23.618   8.368
 2115POPC   C3A30305  10.599  23.863   8.047
 2115POPC   C4A30306  10.628  23.905   7.587
 2115POPC   C1B30307  10.182  23.642   8.749
 2115POPC   C2B30308  10.176  23.768   8.304
 2115POPC   C3B30309  10.177  23.681   7.845
 2115POPC   C4B30310  10.112  23.867   7.441
 2116POPC   NC330311   7.601   1.178   9.677
 2116POPC   PO430312   7.095   0.834   9.623
 2116POPC   GL130313   7.264   1.071   9.225
 2116POPC   GL230314   7.550   1.296   9.185
 2116POPC   C1A30315   7.247   1.001   8.744
 2116POPC   D2A30316   7.114   0.831   8.336
 2116POPC   C3A30317   7.199   1.094   7.976
 2116POPC   C4A30318   7.460   1.088   7.595
 2116POPC   C1B30319   7.666   1.298   8.768
 2116POPC   C2B30320   7.497   1.307   8.361
 2116POPC   C3B30321   7.678   1.367   7.958
 2116POPC   C4B30322   7.641   1.558   7.529
 2117POPC   NC330323  20.083   5.321   9.416
 2117POPC   PO430324  19.487   5.036   9.522
 2117POPC   GL130325  19.706   4.929   9.158
 2117POPC   GL230326  19.636   5.284   9.098
 2117POPC   C1A30327  19.861   4.711   8.770
 2117POPC   D2A30328  19.740   4.801   8.337
 2117POPC   C3A30329  19.984   4.828   7.963
 2117POPC   C4A30330  19.864   4.913   7.542
 2117POPC   C1B30331  19.806   5.207   8.670
 2117POPC   C2B30332  19.925   5.290   8.243
 2117POPC   C3B30333  19.704   5.279   7.857
 2117POPC   C4B30334  19.563   5.307   7.435
 2118POPC   NC330335   8.612  37.976   9.266
 2118POPC   PO430336   8.705  37.525   9.744
 2118POPC   GL130337   9.015  37.647   9.303
 2118POPC   GL230338   9.175  37.994   9.220
 2118POPC   C1A30339   9.053  37.712   8.803
 2118POPC   D2A30340   8.923  37.918   8.377
 2118POPC   C3A30341   8.758  37.644   8.016
 2118POPC   C4A30342   8.673  37.466   7.582
 2118POPC   C1B30343   9.375  38.112   8.803
 2118POPC   C2B30344   9.441  37.930   8.376
 2118POPC   C3B30345   9.244  37.922   7.940
 2118POPC   C4B30346   9.297  38.125   7.507
 2119POPC   NC330347  38.197  34.654   9.541
 2119POPC   PO430348  38.700  34.313   9.741
 2119POPC   GL130349  38.692  34.536   9.282
 2119POPC   GL230350  38.465  34.789   9.159
 2119POPC   C1A30351  38.747  34.672   8.778
 2119POPC   D2A30352  38.780  34.482   8.344
 2119POPC   C3A30353  38.640  34.514   7.924
 2119POPC   C4A30354  38.691  34.215   7.511
 2119POPC   C1B30355  38.276  34.916   8.775
 2119POPC   C2B30356  38.321  34.763   8.346
 2119POPC   C3B30357  38.140  34.634   7.963
 2119POPC   C4B30358  37.837  34.784   7.647
 2120POPC   NC330359  22.655  14.123   9.464
 2120POPC   PO430360  22.993  14.700   9.419
 2120POPC   GL130361  22.861  14.437   9.105
 2120POPC   GL230362  22.989  14.093   9.076
 2120POPC   C1A30363  23.016  14.478   8.705
 2120POPC   D2A30364  22.841  14.402   8.316
 2120POPC   C3A30365  23.054  14.529   7.948
 2120POPC   C4A30366  23.096  14.499   7.512
 2120POPC   C1B30367  22.900  13.982   8.639
 2120POPC   C2B30368  23.083  13.959   8.202
 2120POPC   C3B30369  23.038  14.013   7.717
 2120POPC   C4B30370  23.111  14.069   7.234
 2121POPC   NC330371  20.852  21.945   9.472
 2121POPC   PO430372  20.145  21.982   9.464
 2121POPC   GL130373  20.295  22.269   9.149
 2121POPC   GL230374  20.673  22.326   9.183
 2121POPC   C1A30375  20.470  22.168   8.739
 2121POPC   D2A30376  20.349  22.078   8.356
 2121POPC   C3A30377  20.524  22.240   8.038
 2121POPC   C4A30378  20.362  22.061   7.705
 2121POPC   C1B30379  20.855  22.642   8.899
 2121POPC   C2B30380  20.763  22.800   8.472
 2121POPC   C3B30381  20.895  22.646   8.040
 2121POPC   C4B30382  20.807  22.438   7.653
 2122POPC   NC330383  33.273  30.975   9.481
 2122POPC   PO430384  32.794  30.533   9.210
 2122POPC   GL130385  33.081  30.788   9.029
 2122POPC   GL230386  33.384  30.590   9.135
 2122POPC   C1A30387  33.022  30.885   8.578
 2122POPC   D2A30388  33.011  31.071   8.155
 2122POPC   C3A30389  32.943  30.786   7.832
 2122POPC   C4A30390  32.622  30.477   7.827
 2122POPC   C1B30391  33.450  30.603   8.686
 2122POPC   C2B30392  33.362  30.680   8.229
 2122POPC   C3B30393  33.375  30.461   7.854
 2122POPC   C4B30394  33.053  30.270   7.717
 2123POPC   NC330395  38.185  36.490   9.520
 2123POPC   PO430396  38.790  36.900   9.599
 2123POPC   GL130397  38.609  36.698   9.256
 2123POPC   GL230398  38.964  36.558   9.216
 2123POPC   C1A30399  38.288  36.664   8.868
 2123POPC   D2A30400  38.084  36.976   8.525
 2123POPC   C3A30401  38.366  37.152   8.183
 2123POPC   C4A30402  38.537  37.108   7.755
 2123POPC   C1B30403  38.801  36.685   8.793
 2123POPC   C2B30404  38.543  36.661   8.402
 2123POPC   C3B30405  38.743  36.723   8.013
 2123POPC   C4B30406  38.760  36.629   7.575
 2124POPC   NC330407  33.117  11.896   9.640
 2124POPC   PO430408  33.136  11.252   9.734
 2124POPC   GL130409  33.132  11.290   9.261
 2124POPC   GL230410  32.987  10.988   9.128
 2124POPC   C1A30411  33.187  11.423   8.816
 2124POPC   D2A30412  33.101  11.625   8.432
 2124POPC   C3A30413  33.310  11.543   8.066
 2124POPC   C4A30414  33.145  11.594   7.620
 2124POPC   C1B30415  32.818  11.038   8.715
 2124POPC   C2B30416  33.040  11.094   8.353
 2124POPC   C3B30417  32.944  11.236   7.947
 2124POPC   C4B30418  33.062  11.071   7.585
 2125POPC   NC330419  15.312  43.686   9.973
 2125POPC   PO430420  15.494  44.218   9.595
 2125POPC   GL130421  15.445  44.139   9.113
 2125POPC   GL230422  15.360  43.788   9.004
 2125POPC   C1A30423  15.313  44.156   8.653
 2125POPC   D2A30424  15.207  43.906   8.293
 2125POPC   C3A30425  15.220  44.127   7.909
 2125POPC   C4A30426  15.345  43.979   7.541
 2125POPC   C1B30427  15.040  43.612   8.702
 2125POPC   C2B30428  14.839  43.534   8.289
 2125POPC   C3B30429  14.976  43.648   7.837
 2125POPC   C4B30430  14.842  43.542   7.416
 2126POPC   NC330431  11.081  15.318   9.511
 2126POPC   PO430432  11.477  14.824   9.502
 2126POPC   GL130433  11.420  15.072   9.158
 2126POPC   GL230434  11.035  15.033   9.084
 2126POPC   C1A30435  11.417  14.974   8.731
 2126POPC   D2A30436  11.155  15.094   8.393
 2126POPC   C3A30437  11.193  14.916   8.006
 2126POPC   C4A30438  11.392  15.147   7.722
 2126POPC   C1B30439  10.973  15.380   8.795
 2126POPC   C2B30440  10.832  15.467   8.355
 2126POPC   C3B30441  10.988  15.420   7.925
 2126POPC   C4B30442  11.241  15.637   7.611
 2127POPC   NC330443  44.225  33.938   9.660
 2127POPC   PO430444  43.606  33.880   9.473
 2127POPC   GL130445  43.895  33.826   9.176
 2127POPC   GL230446  44.046  34.169   9.249
 2127POPC   C1A30447  43.807  33.568   8.804
 2127POPC   D2A30448  43.781  33.383   8.390
 2127POPC   C3A30449  43.852  33.580   7.962
 2127POPC   C4A30450  44.151  33.767   7.649
 2127POPC   C1B30451  43.923  34.213   8.846
 2127POPC   C2B30452  44.022  33.948   8.498
 2127POPC   C3B30453  44.009  34.051   8.075
 2127POPC   C4B30454  43.981  34.330   7.711
 2128POPC   NC330455  14.725  28.103   9.467
 2128POPC   PO430456  15.357  28.254   9.531
 2128POPC   GL130457  15.334  28.326   9.136
 2128POPC   GL230458  15.403  28.666   9.139
 2128POPC   C1A30459  15.076  28.201   8.791
 2128POPC   D2A30460  15.211  27.993   8.432
 2128POPC   C3A30461  15.053  28.092   8.029
 2128POPC   C4A30462  15.351  28.335   7.814
 2128POPC   C1B30463  15.007  28.713   8.902
 2128POPC   C2B30464  14.848  28.584   8.500
 2128POPC   C3B30465  15.044  28.610   8.114
 2128POPC   C4B30466  14.961  28.634   7.703
 2129POPC   NC330467  37.462  39.636   9.656
 2129POPC   PO430468  37.845  40.176   9.429
 2129POPC   GL130469  37.695  40.177   8.985
 2129POPC   GL230470  37.387  40.005   8.985
 2129POPC   C1A30471  37.720  40.267   8.515
 2129POPC   D2A30472  37.730  40.038   8.103
 2129POPC   C3A30473  37.963  40.202   7.721
 2129POPC   C4A30474  37.833  40.144   7.292
 2129POPC   C1B30475  37.528  39.796   8.577
 2129POPC   C2B30476  37.421  39.418   8.324
 2129POPC   C3B30477  37.482  39.505   7.885
 2129POPC   C4B30478  37.520  39.870   7.624
 2130POPC   NC330479  40.050   0.702   9.695
 2130POPC   PO430480  40.197   0.158   9.358
 2130POPC   GL130481  40.264   0.538   9.130
 2130POPC   GL230482  39.980   0.709   9.198
 2130POPC   C1A30483  40.159   0.797   8.735
 2130POPC   D2A30484  39.910   0.833   8.373
 2130POPC   C3A30485  40.088   0.714   8.023
 2130POPC   C4A30486  39.990   0.541   7.666
 2130POPC   C1B30487  39.831   0.421   8.846
 2130POPC   C2B30488  39.844   0.285   8.422
 2130POPC   C3B30489  39.746   0.247   7.991
 2130POPC   C4B30490  39.598   0.079   7.591
 2131POPC   NC330491  20.863  37.535   9.715
 2131POPC   PO430492  21.551  37.664   9.465
 2131POPC   GL130493  21.555  37.919   9.112
 2131POPC   GL230494  21.829  37.784   9.006
 2131POPC   C1A30495  21.397  37.860   8.674
 2131POPC   D2A30496  21.539  37.552   8.319
 2131POPC   C3A30497  21.322  37.500   7.913
 2131POPC   C4A30498  21.196  37.745   7.549
 2131POPC   C1B30499  21.839  38.128   8.730
 2131POPC   C2B30500  21.615  38.202   8.361
 2131POPC   C3B30501  21.402  37.992   8.037
 2131POPC   C4B30502  21.650  37.908   7.728
 2132POPC   NC330503  23.288   7.146   9.501
 2132POPC   PO430504  22.945   7.716   9.441
 2132POPC   GL130505  22.959   7.368   9.095
 2132POPC   GL230506  23.192   7.091   9.014
 2132POPC   C1A30507  22.991   7.501   8.682
 2132POPC   D2A30508  23.022   7.778   8.297
 2132POPC   C3A30509  22.903   7.552   7.945
 2132POPC   C4A30510  23.022   7.509   7.485
 2132POPC   C1B30511  22.891   6.983   8.710
 2132POPC   C2B30512  22.791   7.172   8.317
 2132POPC   C3B30513  23.030   7.068   7.960
 2132POPC   C4B30514  22.896   7.028   7.566
 2133POPC   NC330515   9.521  14.956   9.367
 2133POPC   PO430516   9.860  15.564   9.558
 2133POPC   GL130517   9.720  15.386   9.175
 2133POPC   GL230518  10.005  15.161   9.155
 2133POPC   C1A30519   9.614  15.270   8.746
 2133POPC   D2A30520   9.366  15.209   8.365
 2133POPC   C3A30521   9.460  15.474   8.011
 2133POPC   C4A30522   9.427  15.322   7.603
 2133POPC   C1B30523  10.029  14.953   8.745
 2133POPC   C2B30524   9.866  14.944   8.322
 2133POPC   C3B30525   9.785  15.047   7.907
 2133POPC   C4B30526   9.591  14.828   7.557
 2134POPC   NC330527  26.471  12.293   9.747
 2134POPC   PO430528  26.847  12.698   9.495
 2134POPC   GL130529  26.873  12.980   9.143
 2134POPC   GL230530  26.994  13.299   9.253
 2134POPC   C1A30531  26.535  13.033   8.831
 2134POPC   D2A30532  26.352  12.796   8.501
 2134POPC   C3A30533  26.629  12.782   8.153
 2134POPC   C4A30534  26.589  13.051   7.799
 2134POPC   C1B30535  26.950  13.350   8.795
 2134POPC   C2B30536  26.851  13.174   8.382
 2134POPC   C3B30537  27.015  13.253   7.945
 2134POPC   C4B30538  27.133  13.147   7.491
 2135POPC   NC330539  11.581  40.694   9.508
 2135POPC   PO430540  10.892  40.940   9.544
 2135POPC   GL130541  11.009  40.860   9.131
 2135POPC   GL230542  10.973  40.515   9.043
 2135POPC   C1A30543  10.974  40.865   8.680
 2135POPC   D2A30544  11.319  40.989   8.463
 2135POPC   C3A30545  11.208  40.734   8.151
 2135POPC   C4A30546  11.304  40.742   7.765
 2135POPC   C1B30547  11.382  40.619   8.851
 2135POPC   C2B30548  11.580  40.529   8.452
 2135POPC   C3B30549  11.600  40.415   8.014
 2135POPC   C4B30550  11.754  40.595   7.625
 2136POPC   NC330551   3.433  37.031   9.770
 2136POPC   PO430552   3.941  37.288   9.445
 2136POPC   GL130553   3.619  37.095   9.190
 2136POPC   GL230554   3.290  37.251   9.183
 2136POPC   C1A30555   3.539  36.783   8.857
 2136POPC   D2A30556   3.406  36.671   8.440
 2136POPC   C3A30557   3.630  36.708   8.030
 2136POPC   C4A30558   3.901  36.984   7.800
 2136POPC   C1B30559   3.335  37.234   8.713
 2136POPC   C2B30560   3.391  37.144   8.238
 2136POPC   C3B30561   3.391  37.150   7.761
 2136POPC   C4B30562   3.131  36.998   7.393
 2137POPC   NC330563  10.055  17.677   9.884
 2137POPC   PO430564   9.765  17.231   9.449
 2137POPC   GL130565   9.957  17.196   9.064
 2137POPC   GL230566   9.718  17.496   8.984
 2137POPC   C1A30567   9.982  17.273   8.622
 2137POPC   D2A30568   9.620  17.437   8.447
 2137POPC   C3A30569   9.633  17.475   8.038
 2137POPC   C4A30570  10.048  17.324   7.869
 2137POPC   C1B30571   9.954  17.785   8.693
 2137POPC   C2B30572  10.103  17.698   8.292
 2137POPC   C3B30573   9.962  17.852   7.928
 2137POPC   C4B30574   9.593  17.913   7.742
 2138POPC   NC330575  16.089   1.536   9.553
 2138POPC   PO430576  16.232   0.884   9.729
 2138POPC   GL130577  16.032   1.062   9.356
 2138POPC   GL230578  16.316   1.215   9.213
 2138POPC   C1A30579  15.930   1.130   8.900
 2138POPC   D2A30580  15.963   1.360   8.501
 2138POPC   C3A30581  15.905   1.227   8.086
 2138POPC   C4A30582  15.968   1.215   7.644
 2138POPC   C1B30583  16.383   1.400   8.802
 2138POPC   C2B30584  16.461   1.237   8.370
 2138POPC   C3B30585  16.343   1.410   7.970
 2138POPC   C4B30586  16.247   1.654   7.621
 2139POPC   NC330587  42.967  29.928   9.549
 2139POPC   PO430588  43.580  29.959   9.511
 2139POPC   GL130589  43.317  29.771   9.174
 2139POPC   GL230590  42.983  29.612   9.149
 2139POPC   C1A30591  43.340  29.877   8.755
 2139POPC   D2A30592  43.147  29.970   8.356
 2139POPC   C3A30593  43.378  29.905   8.005
 2139POPC   C4A30594  43.210  29.800   7.611
 2139POPC   C1B30595  43.143  29.412   8.778
 2139POPC   C2B30596  43.268  29.456   8.360
 2139POPC   C3B30597  42.997  29.567   8.043
 2139POPC   C4B30598  42.823  29.397   7.685
 2140POPC   NC330599  20.131  40.435   9.563
 2140POPC   PO430600  20.801  40.230   9.486
 2140POPC   GL130601  20.542  40.280   9.151
 2140POPC   GL230602  20.475  40.607   9.170
 2140POPC   C1A30603  20.667  40.414   8.745
 2140POPC   D2A30604  20.778  40.742   8.445
 2140POPC   C3A30605  20.575  40.641   8.058
 2140POPC   C4A30606  20.592  40.534   7.653
 2140POPC   C1B30607  20.395  40.921   8.854
 2140POPC   C2B30608  20.445  41.153   8.476
 2140POPC   C3B30609  20.661  41.160   8.098
 2140POPC   C4B30610  20.465  41.028   7.741
 2141POPC   NC330611   0.852   6.294   9.581
 2141POPC   PO430612   1.126   6.935   9.343
 2141POPC   GL130613   1.087   6.530   9.087
 2141POPC   GL230614   0.745   6.348   9.079
 2141POPC   C1A30615   1.340   6.507   8.675
 2141POPC   D2A30616   1.535   6.678   8.259
 2141POPC   C3A30617   1.316   6.534   7.867
 2141POPC   C4A30618   0.880   6.365   7.805
 2141POPC   C1B30619   0.806   6.476   8.654
 2141POPC   C2B30620   1.002   6.607   8.274
 2141POPC   C3B30621   0.918   6.864   7.906
 2141POPC   C4B30622   0.612   6.759   7.599
 2142POPC   NC330623  38.746  41.726   9.757
 2142POPC   PO430624  39.333  41.362   9.509
 2142POPC   GL130625  39.223  41.555   9.131
 2142POPC   GL230626  39.082  41.809   9.261
 2142POPC   C1A30627  39.265  41.451   8.692
 2142POPC   D2A30628  39.569  41.250   8.395
 2142POPC   C3A30629  39.501  41.461   8.018
 2142POPC   C4A30630  39.077  41.495   7.990
 2142POPC   C1B30631  39.008  42.013   8.864
 2142POPC   C2B30632  38.965  41.866   8.458
 2142POPC   C3B30633  38.893  41.990   8.043
 2142POPC   C4B30634  39.108  41.891   7.676
 2143POPC   NC330635  19.408  33.024   9.611
 2143POPC   PO430636  18.856  33.375   9.535
 2143POPC   GL130637  18.986  33.071   9.230
 2143POPC   GL230638  19.321  33.093   9.129
 2143POPC   C1A30639  18.952  32.940   8.797
 2143POPC   D2A30640  18.756  33.097   8.427
 2143POPC   C3A30641  18.949  33.027   8.015
 2143POPC   C4A30642  19.261  32.901   7.731
 2143POPC   C1B30643  19.313  33.337   8.788
 2143POPC   C2B30644  19.276  33.151   8.422
 2143POPC   C3B30645  19.372  33.367   8.102
 2143POPC   C4B30646  19.319  33.416   7.690
 2144POPC   NC330647  22.424  43.360   9.302
 2144POPC   PO430648  22.030  42.995   9.734
 2144POPC   GL130649  22.025  43.021   9.239
 2144POPC   GL230650  22.353  42.957   8.987
 2144POPC   C1A30651  21.928  43.137   8.783
 2144POPC   D2A30652  22.086  43.331   8.370
 2144POPC   C3A30653  22.250  43.056   8.029
 2144POPC   C4A30654  22.162  43.099   7.585
 2144POPC   C1B30655  22.539  43.237   8.673
 2144POPC   C2B30656  22.574  43.540   8.362
 2144POPC   C3B30657  22.595  43.465   7.946
 2144POPC   C4B30658  22.514  43.455   7.495
 2145POPC   NC330659  39.346   7.828   9.607
 2145POPC   PO430660  39.013   8.508   9.846
 2145POPC   GL130661  39.044   8.248   9.401
 2145POPC   GL230662  39.144   7.940   9.156
 2145POPC   C1A30663  38.964   8.365   8.952
 2145POPC   D2A30664  38.932   8.331   8.483
 2145POPC   C3A30665  39.124   8.225   8.072
 2145POPC   C4A30666  39.168   8.367   7.652
 2145POPC   C1B30667  39.397   8.142   8.813
 2145POPC   C2B30668  39.444   8.431   8.441
 2145POPC   C3B30669  39.534   8.510   7.988
 2145POPC   C4B30670  39.584   8.088   7.783
 2146POPC   NC330671   2.179  37.669   9.668
 2146POPC   PO430672   1.475  37.896   9.581
 2146POPC   GL130673   1.939  37.874   9.280
 2146POPC   GL230674   2.342  37.840   9.211
 2146POPC   C1A30675   2.004  37.573   8.930
 2146POPC   D2A30676   2.058  37.451   8.487
 2146POPC   C3A30677   1.933  37.784   8.193
 2146POPC   C4A30678   1.790  37.702   7.798
 2146POPC   C1B30679   2.271  37.982   8.798
 2146POPC   C2B30680   2.411  37.825   8.417
 2146POPC   C3B30681   2.433  37.810   7.980
 2146POPC   C4B30682   2.178  38.059   7.694
 2147POPC   NC330683  28.013   5.671   9.696
 2147POPC   PO430684  28.510   6.110   9.575
 2147POPC   GL130685  28.449   5.774   9.241
 2147POPC   GL230686  28.093   5.752   9.203
 2147POPC   C1A30687  28.518   5.732   8.767
 2147POPC   D2A30688  28.732   5.670   8.334
 2147POPC   C3A30689  28.536   5.783   7.910
 2147POPC   C4A30690  28.479   5.952   7.450
 2147POPC   C1B30691  27.980   5.568   8.835
 2147POPC   C2B30692  28.157   5.526   8.444
 2147POPC   C3B30693  28.047   5.614   8.022
 2147POPC   C4B30694  28.212   5.532   7.604
 2148POPC   NC330695  18.729  39.966   9.508
 2148POPC   PO430696  19.372  40.156   9.540
 2148POPC   GL130697  19.186  39.987   9.184
 2148POPC   GL230698  18.982  40.298   9.150
 2148POPC   C1A30699  19.187  39.859   8.742
 2148POPC   D2A30700  18.961  40.022   8.347
 2148POPC   C3A30701  19.071  39.956   7.898
 2148POPC   C4A30702  18.730  39.862   7.596
 2148POPC   C1B30703  19.133  40.369   8.752
 2148POPC   C2B30704  19.346  40.338   8.401
 2148POPC   C3B30705  19.201  40.457   8.030
 2148POPC   C4B30706  19.428  40.311   7.687
 2149POPC   NC330707  34.090  16.399   9.468
 2149POPC   PO430708  34.729  16.716   9.438
 2149POPC   GL130709  34.564  16.760   9.028
 2149POPC   GL230710  34.229  16.749   9.097
 2149POPC   C1A30711  34.446  16.941   8.636
 2149POPC   D2A30712  34.469  16.937   8.174
 2149POPC   C3A30713  34.441  16.744   7.767
 2149POPC   C4A30714  34.821  16.583   7.537
 2149POPC   C1B30715  34.135  16.513   8.797
 2149POPC   C2B30716  34.120  16.628   8.406
 2149POPC   C3B30717  34.293  16.381   8.095
 2149POPC   C4B30718  34.141  16.335   7.702
 2150POPC   NC330719  12.304  18.121   9.573
 2150POPC   PO430720  11.898  18.576   9.659
 2150POPC   GL130721  12.013  18.403   9.254
 2150POPC   GL230722  12.362  18.534   9.237
 2150POPC   C1A30723  11.943  18.173   8.852
 2150POPC   D2A30724  12.175  18.065   8.473
 2150POPC   C3A30725  12.051  18.310   8.126
 2150POPC   C4A30726  11.965  18.313   7.692
 2150POPC   C1B30727  12.424  18.374   8.811
 2150POPC   C2B30728  12.502  18.471   8.373
 2150POPC   C3B30729  12.521  18.343   7.936
 2150POPC   C4B30730  12.386  18.616   7.603
 2151POPC   NC330731  44.723  44.850   9.661
 2151POPC   PO430732  44.319  44.419   9.634
 2151POPC   GL130733  44.644  44.517   9.259
 2151POPC   GL230734  44.528  44.821   9.190
 2151POPC   C1A30735  44.750  44.633   8.771
 2151POPC   D2A30736  44.908  44.793   8.316
 2151POPC   C3A30737  44.692  44.668   7.939
 2151POPC   C4A30738  44.500  44.307   7.818
 2151POPC   C1B30739  44.307  44.925   8.795
 2151POPC   C2B30740  44.387  44.669   8.397
 2151POPC   C3B30741  44.139  44.589   8.027
 2151POPC   C4B30742  44.231  44.707   7.591
 2152POPC   NC330743   5.093  38.822   9.498
 2152POPC   PO430744   5.389  39.490   9.548
 2152POPC   GL130745   5.097  39.277   9.236
 2152POPC   GL230746   5.207  39.013   9.049
 2152POPC   C1A30747   4.925  39.330   8.813
 2152POPC   D2A30748   5.189  39.223   8.478
 2152POPC   C3A30749   5.022  39.221   8.070
 2152POPC   C4A30750   5.103  39.048   7.695
 2152POPC   C1B30751   5.427  39.413   8.884
 2152POPC   C2B30752   5.615  39.535   8.507
 2152POPC   C3B30753   5.406  39.569   8.134
 2152POPC   C4B30754   5.310  39.512   7.706
 2153POPC   NC330755   4.059  29.216   9.517
 2153POPC   PO430756   4.649  28.763   9.502
 2153POPC   GL130757   4.394  28.958   9.207
 2153POPC   GL230758   4.510  29.293   9.181
 2153POPC   C1A30759   4.264  29.060   8.780
 2153POPC   D2A30760   4.491  29.123   8.390
 2153POPC   C3A30761   4.326  28.796   8.156
 2153POPC   C4A30762   4.310  28.709   7.745
 2153POPC   C1B30763   4.607  29.491   8.769
 2153POPC   C2B30764   4.779  29.583   8.337
 2153POPC   C3B30765   4.707  29.383   7.941
 2153POPC   C4B30766   4.281  29.227   7.866
 2154POPC   NC330767   2.992  19.252   9.445
 2154POPC   PO430768   2.329  18.970   9.473
 2154POPC   GL130769   2.590  19.154   9.141
 2154POPC   GL230770   2.704  18.841   9.066
 2154POPC   C1A30771   2.947  19.202   8.801
 2154POPC   D2A30772   2.829  19.256   8.392
 2154POPC   C3A30773   3.042  19.341   8.042
 2154POPC   C4A30774   2.883  19.303   7.637
 2154POPC   C1B30775   2.531  18.884   8.648
 2154POPC   C2B30776   2.667  18.774   8.236
 2154POPC   C3B30777   2.663  18.766   7.793
 2154POPC   C4B30778   2.431  18.609   7.397
 2155POPC   NC330779   3.767  19.083   9.536
 2155POPC   PO430780   3.144  18.787   9.471
 2155POPC   GL130781   3.398  19.060   9.161
 2155POPC   GL230782   3.780  19.238   9.080
 2155POPC   C1A30783   3.472  19.062   8.748
 2155POPC   D2A30784   3.422  19.262   8.419
 2155POPC   C3A30785   3.507  19.019   8.068
 2155POPC   C4A30786   3.226  18.944   7.745
 2155POPC   C1B30787   4.025  19.373   8.722
 2155POPC   C2B30788   3.917  19.483   8.308
 2155POPC   C3B30789   3.957  19.263   7.923
 2155POPC   C4B30790   3.699  19.083   7.589
 2156POPC   NC330791  14.985   4.081   9.581
 2156POPC   PO430792  15.194   3.510   9.745
 2156POPC   GL130793  15.186   3.699   9.295
 2156POPC   GL230794  14.880   3.849   9.130
 2156POPC   C1A30795  15.260   3.648   8.835
 2156POPC   D2A30796  15.316   3.641   8.377
 2156POPC   C3A30797  15.295   3.398   7.980
 2156POPC   C4A30798  15.233   3.526   7.560
 2156POPC   C1B30799  14.933   4.040   8.704
 2156POPC   C2B30800  14.795   3.937   8.244
 2156POPC   C3B30801  14.757   3.662   7.833
 2156POPC   C4B30802  14.788   3.258   7.579
 2157POPC   NC330803  44.038  21.876   9.519
 2157POPC   PO430804  43.461  22.134   9.445
 2157POPC   GL130805  43.720  22.122   9.066
 2157POPC   GL230806  44.063  22.163   9.090
 2157POPC   C1A30807  43.852  22.160   8.607
 2157POPC   D2A30808  44.140  22.299   8.286
 2157POPC   C3A30809  43.946  22.122   7.946
 2157POPC   C4A30810  43.496  22.160   7.945
 2157POPC   C1B30811  44.108  21.789   8.827
 2157POPC   C2B30812  44.345  21.844   8.438
 2157POPC   C3B30813  44.289  21.743   8.001
 2157POPC   C4B30814  44.081  21.764   7.586
 2158POPC   NC330815  10.233  12.076   9.654
 2158POPC   PO430816  10.867  11.868   9.823
 2158POPC   GL130817  10.646  12.178   9.355
 2158POPC   GL230818  10.356  12.015   9.140
 2158POPC   C1A30819  10.718  12.128   8.821
 2158POPC   D2A30820  10.905  12.169   8.387
 2158POPC   C3A30821  10.631  12.119   8.008
 2158POPC   C4A30822  10.802  12.127   7.577
 2158POPC   C1B30823  10.276  12.350   8.743
 2158POPC   C2B30824  10.521  12.560   8.408
 2158POPC   C3B30825  10.438  12.633   7.967
 2158POPC   C4B30826  10.362  12.346   7.608
 2159POPC   NC330827  34.119  24.160   9.505
 2159POPC   PO430828  33.513  23.805   9.547
 2159POPC   GL130829  33.790  23.731   9.200
 2159POPC   GL230830  33.894  23.394   9.111
 2159POPC   C1A30831  33.791  23.832   8.781
 2159POPC   D2A30832  33.571  23.598   8.479
 2159POPC   C3A30833  33.524  23.676   8.043
 2159POPC   C4A30834  33.424  23.404   7.715
 2159POPC   C1B30835  34.147  23.458   8.742
 2159POPC   C2B30836  34.072  23.735   8.358
 2159POPC   C3B30837  34.090  23.592   7.939
 2159POPC   C4B30838  33.926  23.395   7.580
 2160POPC   NC330839  19.153  40.614   9.665
 2160POPC   PO430840  18.538  40.955   9.731
 2160POPC   GL130841  18.849  40.886   9.311
 2160POPC   GL230842  19.222  40.779   9.199
 2160POPC   C1A30843  18.860  40.786   8.840
 2160POPC   D2A30844  18.623  40.870   8.437
 2160POPC   C3A30845  18.794  40.819   8.020
 2160POPC   C4A30846  18.890  41.196   7.803
 2160POPC   C1B30847  19.388  40.820   8.787
 2160POPC   C2B30848  19.185  40.839   8.415
 2160POPC   C3B30849  19.278  40.999   8.047
 2160POPC   C4B30850  19.239  40.822   7.659
 2161POPC   NC330851  16.936  18.557   9.409
 2161POPC   PO430852  16.767  17.944   9.551
 2161POPC   GL130853  16.757  18.020   9.146
 2161POPC   GL230854  16.714  18.336   9.011
 2161POPC   C1A30855  16.737  17.884   8.730
 2161POPC   D2A30856  16.977  17.930   8.355
 2161POPC   C3A30857  16.786  17.959   7.927
 2161POPC   C4A30858  16.702  18.201   7.522
 2161POPC   C1B30859  16.841  18.378   8.575
 2161POPC   C2B30860  16.825  18.441   8.134
 2161POPC   C3B30861  16.544  18.587   7.808
 2161POPC   C4B30862  16.195  18.387   7.593
 2162POPC   NC330863  19.613  40.313   9.195
 2162POPC   PO430864  19.595  40.891   9.555
 2162POPC   GL130865  19.736  40.950   9.141
 2162POPC   GL230866  19.983  40.728   9.171
 2162POPC   C1A30867  19.901  40.907   8.702
 2162POPC   D2A30868  19.773  40.583   8.432
 2162POPC   C3A30869  19.660  40.690   8.013
 2162POPC   C4A30870  19.778  41.076   7.812
 2162POPC   C1B30871  20.139  40.449   8.826
 2162POPC   C2B30872  20.281  40.596   8.463
 2162POPC   C3B30873  20.126  40.853   8.161
 2162POPC   C4B30874  20.109  40.661   7.764
 2163POPC   NC330875  32.575  35.928   9.348
 2163POPC   PO430876  32.120  36.403   9.363
 2163POPC   GL130877  32.255  36.226   9.065
 2163POPC   GL230878  32.573  36.413   9.053
 2163POPC   C1A30879  32.021  36.068   8.741
 2163POPC   D2A30880  32.152  35.831   8.403
 2163POPC   C3A30881  31.924  35.941   8.030
 2163POPC   C4A30882  31.912  36.082   7.619
 2163POPC   C1B30883  32.580  36.100   8.684
 2163POPC   C2B30884  32.551  36.095   8.229
 2163POPC   C3B30885  32.430  35.857   7.880
 2163POPC   C4B30886  32.406  36.057   7.460
 2164POPC   NC330887  23.419  42.721   9.413
 2164POPC   PO430888  23.887  42.199   9.684
 2164POPC   GL130889  23.796  42.218   9.229
 2164POPC   GL230890  23.770  42.573   9.059
 2164POPC   C1A30891  23.967  42.149   8.809
 2164POPC   D2A30892  23.904  42.373   8.420
 2164POPC   C3A30893  23.902  42.215   8.003
 2164POPC   C4A30894  24.060  42.266   7.569
 2164POPC   C1B30895  23.485  42.361   8.713
 2164POPC   C2B30896  23.420  42.252   8.306
 2164POPC   C3B30897  23.575  42.617   8.100
 2164POPC   C4B30898  23.720  42.603   7.704
 2165POPC   NC330899  31.955  14.333   9.449
 2165POPC   PO430900  32.528  14.689   9.666
 2165POPC   GL130901  32.325  14.600   9.234
 2165POPC   GL230902  32.339  14.268   9.079
 2165POPC   C1A30903  32.149  14.649   8.794
 2165POPC   D2A30904  32.165  14.880   8.397
 2165POPC   C3A30905  32.191  14.680   8.000
 2165POPC   C4A30906  31.893  14.719   7.680
 2165POPC   C1B30907  32.012  14.104   8.802
 2165POPC   C2B30908  31.948  14.124   8.349
 2165POPC   C3B30909  31.906  14.251   7.911
 2165POPC   C4B30910  32.245  14.102   7.647
 2166POPC   NC330911  12.730  29.503   9.462
 2166POPC   PO430912  13.237  29.048   9.375
 2166POPC   GL130913  12.824  29.089   9.171
 2166POPC   GL230914  12.656  28.756   9.136
 2166POPC   C1A30915  12.767  29.397   8.821
 2166POPC   D2A30916  12.950  29.596   8.437
 2166POPC   C3A30917  13.079  29.273   8.130
 2166POPC   C4A30918  13.003  29.212   7.689
 2166POPC   C1B30919  12.766  28.894   8.710
 2166POPC   C2B30920  12.627  29.185   8.378
 2166POPC   C3B30921  12.612  29.091   7.982
 2166POPC   C4B30922  12.733  28.742   7.800
 2167POPC   NC330923  14.455   4.644   9.393
 2167POPC   PO430924  14.489   5.316   9.593
 2167POPC   GL130925  14.335   5.126   9.201
 2167POPC   GL230926  14.005   5.017   9.064
 2167POPC   C1A30927  14.400   5.291   8.794
 2167POPC   D2A30928  14.685   5.357   8.429
 2167POPC   C3A30929  14.430   5.261   8.104
 2167POPC   C4A30930  14.354   5.375   7.690
 2167POPC   C1B30931  14.046   4.997   8.584
 2167POPC   C2B30932  14.506   4.889   8.482
 2167POPC   C3B30933  14.758   4.866   8.132
 2167POPC   C4B30934  14.617   4.848   7.730
 2168POPC   NC330935   1.817   3.114   9.475
 2168POPC   PO430936   2.410   3.502   9.327
 2168POPC   GL130937   2.005   3.433   9.118
 2168POPC   GL230938   1.826   3.748   8.975
 2168POPC   C1A30939   1.946   3.311   8.745
 2168POPC   D2A30940   2.272   3.378   8.460
 2168POPC   C3A30941   2.178   3.473   8.042
 2168POPC   C4A30942   2.026   3.283   7.681
 2168POPC   C1B30943   2.187   3.880   8.720
 2168POPC   C2B30944   2.246   4.051   8.290
 2168POPC   C3B30945   2.259   3.975   7.852
 2168POPC   C4B30946   1.927   3.772   7.616
 2169POPC   NC330947  34.154  13.073   9.516
 2169POPC   PO430948  33.579  12.656   9.453
 2169POPC   GL130949  33.930  12.743   9.196
 2169POPC   GL230950  33.870  13.051   9.084
 2169POPC   C1A30951  34.018  12.668   8.768
 2169POPC   D2A30952  33.632  12.677   8.433
 2169POPC   C3A30953  33.748  12.722   8.013
 2169POPC   C4A30954  33.586  12.994   7.744
 2169POPC   C1B30955  33.787  13.099   8.670
 2169POPC   C2B30956  34.080  12.945   8.314
 2169POPC   C3B30957  34.078  13.121   7.868
 2169POPC   C4B30958  33.877  13.280   7.455
 2170POPC   NC330959   2.536  17.817   9.558
 2170POPC   PO430960   2.600  17.102   9.473
 2170POPC   GL130961   2.783  17.336   9.148
 2170POPC   GL230962   2.881  17.670   9.199
 2170POPC   C1A30963   2.931  17.405   8.752
 2170POPC   D2A30964   2.770  17.205   8.406
 2170POPC   C3A30965   2.766  17.458   8.066
 2170POPC   C4A30966   2.768  17.297   7.673
 2170POPC   C1B30967   2.629  17.819   8.882
 2170POPC   C2B30968   2.634  17.976   8.489
 2170POPC   C3B30969   2.486  17.898   8.113
 2170POPC   C4B30970   2.620  17.811   7.704
 2171POPC   NC330971   8.492  16.844   9.393
 2171POPC   PO430972   7.870  16.692   9.617
 2171POPC   GL130973   7.988  16.734   9.105
 2171POPC   GL230974   8.161  17.037   9.031
 2171POPC   C1A30975   7.971  16.540   8.709
 2171POPC   D2A30976   8.246  16.738   8.445
 2171POPC   C3A30977   8.092  16.663   8.051
 2171POPC   C4A30978   8.291  16.695   7.672
 2171POPC   C1B30979   8.265  17.249   8.643
 2171POPC   C2B30980   8.207  17.184   8.187
 2171POPC   C3B30981   8.438  17.156   7.817
 2171POPC   C4B30982   8.508  17.043   7.351
 2172POPC   NC330983  37.788  30.352   9.559
 2172POPC   PO430984  37.297  30.890   9.499
 2172POPC   GL130985  37.522  30.724   9.137
 2172POPC   GL230986  37.883  30.688   9.180
 2172POPC   C1A30987  37.418  30.862   8.697
 2172POPC   D2A30988  37.314  30.891   8.252
 2172POPC   C3A30989  37.523  30.641   7.921
 2172POPC   C4A30990  37.468  30.591   7.449
 2172POPC   C1B30991  37.922  30.935   8.811
 2172POPC   C2B30992  37.814  30.938   8.366
 2172POPC   C3B30993  37.920  31.006   7.942
 2172POPC   C4B30994  37.957  30.660   7.625
 2173POPC   NC330995  32.704  20.806   9.450
 2173POPC   PO430996  32.107  20.342   9.572
 2173POPC   GL130997  32.289  20.353   9.197
 2173POPC   GL230998  32.335  20.683   9.137
 2173POPC   C1A30999  32.404  20.302   8.767
 2173POPC   D2A31000  32.243  20.365   8.357
 2173POPC   C3A31001  32.342  20.275   7.933
 2173POPC   C4A31002  32.395  20.478   7.528
 2173POPC   C1B31003  32.213  20.776   8.755
 2173POPC   C2B31004  32.349  20.870   8.369
 2173POPC   C3B31005  32.178  20.770   7.989
 2173POPC   C4B31006  32.358  20.960   7.670
 2174POPC   NC331007  28.827  23.807   9.513
 2174POPC   PO431008  28.173  23.742   9.508
 2174POPC   GL131009  28.467  23.725   9.166
 2174POPC   GL231010  28.312  23.538   8.927
 2174POPC   C1A31011  28.714  23.836   8.770
 2174POPC   D2A31012  28.632  23.994   8.318
 2174POPC   C3A31013  28.665  23.697   7.953
 2174POPC   C4A31014  28.440  23.306   7.784
 2174POPC   C1B31015  28.161  23.970   8.794
 2174POPC   C2B31016  27.830  24.097   8.487
 2174POPC   C3B31017  27.859  24.042   8.024
 2174POPC   C4B31018  28.290  24.046   7.856
 2175POPC   NC331019  15.867  18.827   9.742
 2175POPC   PO431020  15.622  19.203   9.675
 2175POPC   GL131021  15.853  19.147   9.248
 2175POPC   GL231022  15.880  18.794   9.167
 2175POPC   C1A31023  16.066  19.144   8.791
 2175POPC   D2A31024  16.268  18.888   8.408
 2175POPC   C3A31025  16.137  18.898   7.930
 2175POPC   C4A31026  15.933  19.168   7.589
 2175POPC   C1B31027  15.706  18.790   8.721
 2175POPC   C2B31028  15.768  18.983   8.308
 2175POPC   C3B31029  15.626  18.873   7.877
 2175POPC   C4B31030  15.425  19.090   7.513
 2176POPC   NC331031  39.080   0.387   9.442
 2176POPC   PO431032  39.581   0.698   9.735
 2176POPC   GL131033  39.510   0.518   9.234
 2176POPC   GL231034  39.411   0.188   9.090
 2176POPC   C1A31035  39.338   0.536   8.738
 2176POPC   D2A31036  39.467   0.598   8.272
 2176POPC   C3A31037  39.280   0.434   7.875
 2176POPC   C4A31038  38.985   0.600   7.573
 2176POPC   C1B31039  39.019   0.151   8.837
 2176POPC   C2B31040  39.002   0.044   8.420
 2176POPC   C3B31041  38.856   0.323   8.115
 2176POPC   C4B31042  38.637   0.264   7.767
 2177POPC   NC331043  27.396  14.512   9.428
 2177POPC   PO431044  27.946  14.180   9.480
 2177POPC   GL131045  27.699  14.237   9.114
 2177POPC   GL231046  27.376  14.081   9.155
 2177POPC   C1A31047  27.552  14.470   8.714
 2177POPC   D2A31048  27.765  14.294   8.342
 2177POPC   C3A31049  27.785  14.436   7.932
 2177POPC   C4A31050  27.458  14.473   7.646
 2177POPC   C1B31051  27.474  13.971   8.743
 2177POPC   C2B31052  27.304  14.047   8.321
 2177POPC   C3B31053  27.520  13.998   7.919
 2177POPC   C4B31054  27.407  13.997   7.472
 2178POPC   NC331055  36.698   7.476   9.586
 2178POPC   PO431056  37.147   6.878   9.453
 2178POPC   GL131057  37.022   7.280   9.199
 2178POPC   GL231058  36.656   7.323   9.123
 2178POPC   C1A31059  37.014   7.454   8.767
 2178POPC   D2A31060  37.134   7.757   8.454
 2178POPC   C3A31061  37.011   7.634   8.044
 2178POPC   C4A31062  37.247   7.393   7.699
 2178POPC   C1B31063  36.503   7.532   8.771
 2178POPC   C2B31064  36.282   7.505   8.387
 2178POPC   C3B31065  36.444   7.575   7.989
 2178POPC   C4B31066  36.721   7.484   7.658
 2179POPC   NC331067  13.185  28.613   9.510
 2179POPC   PO431068  12.576  28.347   9.488
 2179POPC   GL131069  12.927  28.331   9.186
 2179POPC   GL231070  12.663  28.188   9.012
 2179POPC   C1A31071  13.047  28.475   8.810
 2179POPC   D2A31072  12.757  28.321   8.520
 2179POPC   C3A31073  12.823  28.367   8.124
 2179POPC   C4A31074  12.921  28.271   7.732
 2179POPC   C1B31075  12.377  28.059   8.717
 2179POPC   C2B31076  12.427  27.894   8.314
 2179POPC   C3B31077  12.437  28.102   7.918
 2179POPC   C4B31078  12.598  27.945   7.519
 2180POPC   NC331079  31.194  43.289   9.473
 2180POPC   PO431080  30.586  42.964   9.483
 2180POPC   GL131081  30.717  43.084   9.112
 2180POPC   GL231082  31.075  43.059   9.044
 2180POPC   C1A31083  30.755  42.803   8.744
 2180POPC   D2A31084  30.721  42.717   8.307
 2180POPC   C3A31085  30.726  43.086   8.066
 2180POPC   C4A31086  30.840  43.168   7.626
 2180POPC   C1B31087  30.884  43.282   8.684
 2180POPC   C2B31088  30.713  43.501   8.332
 2180POPC   C3B31089  31.009  43.518   7.961
 2180POPC   C4B31090  31.075  43.565   7.456
 2181POPC   NC331091  13.914  31.820   9.700
 2181POPC   PO431092  13.429  31.488   9.529
 2181POPC   GL131093  13.755  31.487   9.239
 2181POPC   GL231094  13.721  31.844   9.223
 2181POPC   C1A31095  13.936  31.364   8.821
 2181POPC   D2A31096  13.680  31.264   8.487
 2181POPC   C3A31097  13.766  31.378   8.083
 2181POPC   C4A31098  13.588  31.271   7.712
 2181POPC   C1B31099  13.566  31.709   8.804
 2181POPC   C2B31100  13.632  31.791   8.359
 2181POPC   C3B31101  13.470  31.783   7.918
 2181POPC   C4B31102  13.172  31.550   7.643
 2182POPC   NC331103  43.226  39.716   9.483
 2182POPC   PO431104  42.821  40.214   9.585
 2182POPC   GL131105  43.104  40.269   9.215
 2182POPC   GL231106  43.442  40.105   9.203
 2182POPC   C1A31107  43.080  40.063   8.810
 2182POPC   D2A31108  43.117  39.782   8.409
 2182POPC   C3A31109  43.155  39.988   7.952
 2182POPC   C4A31110  43.374  40.144   7.547
 2182POPC   C1B31111  43.521  39.810   8.859
 2182POPC   C2B31112  43.636  39.847   8.454
 2182POPC   C3B31113  43.513  39.690   8.093
 2182POPC   C4B31114  43.600  39.729   7.711
 2183POPC   NC331115  43.366  17.891   9.577
 2183POPC   PO431116  43.337  18.498   9.534
 2183POPC   GL131117  43.392  18.445   9.083
 2183POPC   GL231118  43.052  18.464   8.966
 2183POPC   C1A31119  43.357  18.266   8.616
 2183POPC   D2A31120  43.128  18.386   8.233
 2183POPC   C3A31121  43.250  18.247   7.819
 2183POPC   C4A31122  43.237  17.997   7.454
 2183POPC   C1B31123  42.841  18.686   8.610
 2183POPC   C2B31124  42.660  18.672   8.191
 2183POPC   C3B31125  42.757  18.423   7.841
 2183POPC   C4B31126  42.949  18.440   7.434
 2184POPC   NC331127  11.831  14.712   9.246
 2184POPC   PO431128  12.383  14.419   9.383
 2184POPC   GL131129  12.262  14.589   9.016
 2184POPC   GL231130  12.036  14.306   9.006
 2184POPC   C1A31131  12.034  14.645   8.618
 2184POPC   D2A31132  12.044  14.391   8.254
 2184POPC   C3A31133  12.090  14.549   7.846
 2184POPC   C4A31134  12.124  14.213   7.558
 2184POPC   C1B31135  11.874  14.092   8.659
 2184POPC   C2B31136  11.592  14.147   8.310
 2184POPC   C3B31137  11.733  14.163   7.886
 2184POPC   C4B31138  11.657  13.964   7.499
 2185POPC   NC331139   9.909   9.391   9.564
 2185POPC   PO431140   9.602   8.830   9.498
 2185POPC   GL131141   9.463   8.833   9.085
 2185POPC   GL231142   9.445   8.477   9.075
 2185POPC   C1A31143   9.513   9.055   8.669
 2185POPC   D2A31144   9.380   9.340   8.305
 2185POPC   C3A31145   9.532   9.348   7.841
 2185POPC   C4A31146   9.659   9.304   7.369
 2185POPC   C1B31147   9.644   8.530   8.643
 2185POPC   C2B31148   9.776   8.811   8.257
 2185POPC   C3B31149   9.767   8.903   7.792
 2185POPC   C4B31150   9.480   8.610   7.621
 2186POPC   NC331151   5.311  37.632   9.445
 2186POPC   PO431152   4.680  37.654   9.354
 2186POPC   GL131153   4.727  37.456   8.974
 2186POPC   GL231154   5.060  37.414   9.019
 2186POPC   C1A31155   4.735  37.494   8.534
 2186POPC   D2A31156   4.781  37.898   8.336
 2186POPC   C3A31157   5.087  37.831   8.038
 2186POPC   C4A31158   5.171  37.481   7.796
 2186POPC   C1B31159   5.180  37.703   8.712
 2186POPC   C2B31160   5.507  37.799   8.445
 2186POPC   C3B31161   5.569  37.998   8.059
 2186POPC   C4B31162   5.486  37.848   7.672
 2187POPC   NC331163  10.347  41.129   9.494
 2187POPC   PO431164  10.692  41.754   9.564
 2187POPC   GL131165  10.630  41.499   9.217
 2187POPC   GL231166  10.304  41.560   9.169
 2187POPC   C1A31167  10.638  41.620   8.785
 2187POPC   D2A31168  10.619  41.810   8.392
 2187POPC   C3A31169  10.901  41.694   8.077
 2187POPC   C4A31170  10.823  41.561   7.692
 2187POPC   C1B31171  10.134  41.635   8.754
 2187POPC   C2B31172  10.273  41.453   8.345
 2187POPC   C3B31173  10.341  41.655   7.931
 2187POPC   C4B31174  10.333  41.540   7.486
 2188POPC   NC331175  35.910  39.266   9.491
 2188POPC   PO431176  36.520  38.912   9.487
 2188POPC   GL131177  36.294  39.179   9.133
 2188POPC   GL231178  35.963  39.443   9.038
 2188POPC   C1A31179  36.099  39.045   8.765
 2188POPC   D2A31180  36.027  39.247   8.387
 2188POPC   C3A31181  36.143  39.040   8.016
 2188POPC   C4A31182  35.895  38.989   7.673
 2188POPC   C1B31183  36.240  39.546   8.739
 2188POPC   C2B31184  36.312  39.717   8.365
 2188POPC   C3B31185  36.224  39.575   7.988
 2188POPC   C4B31186  36.292  39.356   7.627
 2189POPC   NC331187  17.813  24.931   9.529
 2189POPC   PO431188  17.306  25.440   9.513
 2189POPC   GL131189  17.474  25.153   9.212
 2189POPC   GL231190  17.752  25.345   9.133
 2189POPC   C1A31191  17.642  25.008   8.799
 2189POPC   D2A31192  17.766  25.243   8.446
 2189POPC   C3A31193  17.587  25.034   8.101
 2189POPC   C4A31194  17.422  25.132   7.742
 2189POPC   C1B31195  17.880  25.617   8.787
 2189POPC   C2B31196  17.883  25.762   8.343
 2189POPC   C3B31197  17.645  25.560   8.014
 2189POPC   C4B31198  17.673  25.532   7.588
 2190POPC   NC331199   5.530  29.571   9.512
 2190POPC   PO431200   6.027  29.986   9.594
 2190POPC   GL131201   5.824  29.936   9.193
 2190POPC   GL231202   5.841  29.593   9.101
 2190POPC   C1A31203   5.948  30.124   8.779
 2190POPC   D2A31204   5.996  30.343   8.380
 2190POPC   C3A31205   6.035  30.163   7.971
 2190POPC   C4A31206   6.278  30.021   7.616
 2190POPC   C1B31207   5.656  29.703   8.697
 2190POPC   C2B31208   5.594  30.018   8.360
 2190POPC   C3B31209   5.651  29.838   7.932
 2190POPC   C4B31210   5.817  29.823   7.501
 2191POPC   NC331211  32.341  10.688   9.599
 2191POPC   PO431212  31.918  10.183   9.461
 2191POPC   GL131213  32.030  10.592   9.205
 2191POPC   GL231214  32.333  10.497   9.122
 2191POPC   C1A31215  32.159  10.842   8.801
 2191POPC   D2A31216  32.398  10.615   8.472
 2191POPC   C3A31217  32.258  10.628   8.024
 2191POPC   C4A31218  32.429  10.403   7.660
 2191POPC   C1B31219  32.034  10.340   8.776
 2191POPC   C2B31220  31.906  10.481   8.383
 2191POPC   C3B31221  31.863  10.313   7.972
 2191POPC   C4B31222  31.905  10.175   7.536
 2192POPC   NC331223  19.843  34.211   9.727
 2192POPC   PO431224  20.206  33.831   9.263
 2192POPC   GL131225  19.925  33.924   8.994
 2192POPC   GL231226  19.664  33.890   9.221
 2192POPC   C1A31227  19.818  34.176   8.650
 2192POPC   D2A31228  19.771  34.148   8.221
 2192POPC   C3A31229  20.117  33.936   8.005
 2192POPC   C4A31230  20.246  33.766   7.598
 2192POPC   C1B31231  19.478  33.819   8.814
 2192POPC   C2B31232  19.365  33.852   8.388
 2192POPC   C3B31233  19.487  33.834   7.949
 2192POPC   C4B31234  19.377  33.961   7.536
 2193POPC   NC331235  26.643  35.919   9.789
 2193POPC   PO431236  26.824  35.351   9.417
 2193POPC   GL131237  26.920  35.360   9.012
 2193POPC   GL231238  27.196  35.540   9.053
 2193POPC   C1A31239  26.580  35.444   8.720
 2193POPC   D2A31240  26.430  35.575   8.339
 2193POPC   C3A31241  26.485  35.363   8.000
 2193POPC   C4A31242  26.571  35.541   7.625
 2193POPC   C1B31243  27.119  35.785   8.749
 2193POPC   C2B31244  26.931  35.612   8.392
 2193POPC   C3B31245  26.989  35.425   8.000
 2193POPC   C4B31246  27.081  35.574   7.599
 2194POPC   NC331247  15.090  10.369   9.442
 2194POPC   PO431248  15.558  10.934   9.434
 2194POPC   GL131249  15.285  10.940   9.069
 2194POPC   GL231250  14.911  10.842   9.097
 2194POPC   C1A31251  15.234  10.576   8.789
 2194POPC   D2A31252  15.450  10.357   8.470
 2194POPC   C3A31253  15.309  10.400   8.041
 2194POPC   C4A31254  15.419  10.482   7.618
 2194POPC   C1B31255  14.740  10.473   8.809
 2194POPC   C2B31256  14.915  10.311   8.408
 2194POPC   C3B31257  14.800  10.349   7.971
 2194POPC   C4B31258  14.927  10.552   7.588
 2195POPC   NC331259  19.539  18.047   9.487
 2195POPC   PO431260  18.992  18.456   9.716
 2195POPC   GL131261  18.948  18.458   9.234
 2195POPC   GL231262  19.247  18.328   9.139
 2195POPC   C1A31263  18.892  18.348   8.791
 2195POPC   D2A31264  18.793  18.135   8.416
 2195POPC   C3A31265  18.846  18.444   8.090
 2195POPC   C4A31266  19.055  18.415   7.700
 2195POPC   C1B31267  19.357  18.601   8.776
 2195POPC   C2B31268  19.268  18.672   8.326
 2195POPC   C3B31269  19.430  18.699   7.895
 2195POPC   C4B31270  19.413  18.663   7.421
 2196POPC   NC331271  17.827  18.442   9.380
 2196POPC   PO431272  18.477  18.397   9.504
 2196POPC   GL131273  18.425  18.307   9.087
 2196POPC   GL231274  18.167  18.082   9.171
 2196POPC   C1A31275  18.403  18.405   8.644
 2196POPC   D2A31276  18.179  18.513   8.275
 2196POPC   C3A31277  18.352  18.303   7.939
 2196POPC   C4A31278  18.679  17.998   7.928
 2196POPC   C1B31279  18.316  17.922   8.767
 2196POPC   C2B31280  18.331  17.884   8.305
 2196POPC   C3B31281  18.129  17.862   7.871
 2196POPC   C4B31282  18.008  17.738   7.453
 2197POPC   NC331283  31.698  12.384   9.471
 2197POPC   PO431284  31.364  11.870   9.766
 2197POPC   GL131285  31.471  12.001   9.263
 2197POPC   GL231286  31.285  12.290   9.138
 2197POPC   C1A31287  31.646  12.138   8.821
 2197POPC   D2A31288  31.505  12.193   8.375
 2197POPC   C3A31289  31.807  12.157   8.050
 2197POPC   C4A31290  31.768  11.812   7.767
 2197POPC   C1B31291  31.115  12.345   8.682
 2197POPC   C2B31292  31.013  12.052   8.292
 2197POPC   C3B31293  31.271  11.973   7.934
 2197POPC   C4B31294  31.443  12.375   7.760
 2198POPC   NC331295  29.431  40.230   9.283
 2198POPC   PO431296  28.986  39.978   9.647
 2198POPC   GL131297  29.091  39.888   9.175
 2198POPC   GL231298  28.937  40.228   9.105
 2198POPC   C1A31299  29.409  39.931   8.746
 2198POPC   D2A31300  29.283  40.022   8.334
 2198POPC   C3A31301  29.591  39.859   8.068
 2198POPC   C4A31302  29.649  40.078   7.688
 2198POPC   C1B31303  28.914  40.011   8.709
 2198POPC   C2B31304  28.794  39.841   8.341
 2198POPC   C3B31305  28.830  40.014   7.916
 2198POPC   C4B31306  28.854  39.739   7.537
 2199POPC   NC331307  16.192  11.639   9.518
 2199POPC   PO431308  16.206  10.988   9.737
 2199POPC   GL131309  16.075  11.159   9.306
 2199POPC   GL231310  15.815  11.440   9.211
 2199POPC   C1A31311  16.034  11.116   8.850
 2199POPC   D2A31312  15.832  11.010   8.457
 2199POPC   C3A31313  15.923  11.114   8.032
 2199POPC   C4A31314  15.739  10.869   7.745
 2199POPC   C1B31315  15.954  11.613   8.793
 2199POPC   C2B31316  16.040  11.780   8.395
 2199POPC   C3B31317  15.894  11.707   7.996
 2199POPC   C4B31318  16.143  11.523   7.692
 2200POPC   NC331319   6.353  12.356   9.566
 2200POPC   PO431320   6.820  11.890   9.450
 2200POPC   GL131321   6.619  11.914   9.127
 2200POPC   GL231322   6.530  12.262   9.090
 2200POPC   C1A31323   6.698  11.673   8.777
 2200POPC   D2A31324   6.504  11.626   8.410
 2200POPC   C3A31325   6.530  11.979   8.166
 2200POPC   C4A31326   6.567  11.985   7.749
 2200POPC   C1B31327   6.714  12.166   8.656
 2200POPC   C2B31328   6.807  12.410   8.274
 2200POPC   C3B31329   6.914  12.376   7.832
 2200POPC   C4B31330   6.897  12.184   7.424
 2201POPC   NC331331  26.470  14.741   9.730
 2201POPC   PO431332  26.960  14.320   9.392
 2201POPC   GL131333  26.895  14.271   9.009
 2201POPC   GL231334  26.601  14.154   9.016
 2201POPC   C1A31335  26.974  14.420   8.637
 2201POPC   D2A31336  27.084  14.781   8.440
 2201POPC   C3A31337  27.305  14.552   8.144
 2201POPC   C4A31338  27.072  14.258   7.875
 2201POPC   C1B31339  26.512  13.985   8.619
 2201POPC   C2B31340  26.755  14.138   8.265
 2201POPC   C3B31341  26.712  14.578   8.127
 2201POPC   C4B31342  26.522  14.918   7.836
 2202POPC   NC331343   8.380  41.914   9.465
 2202POPC   PO431344   8.100  42.470   9.680
 2202POPC   GL131345   8.017  42.246   9.296
 2202POPC   GL231346   8.339  42.386   9.213
 2202POPC   C1A31347   8.034  42.135   8.843
 2202POPC   D2A31348   7.962  42.421   8.469
 2202POPC   C3A31349   8.236  42.428   8.134
 2202POPC   C4A31350   8.320  42.151   7.816
 2202POPC   C1B31351   8.323  42.576   8.819
 2202POPC   C2B31352   8.480  42.831   8.488
 2202POPC   C3B31353   8.539  42.837   8.049
 2202POPC   C4B31354   8.377  42.638   7.655
 2203POPC   NC331355  31.586  32.613   9.579
 2203POPC   PO431356  32.279  32.835   9.639
 2203POPC   GL131357  32.217  33.076   9.259
 2203POPC   GL231358  31.879  33.096   9.245
 2203POPC   C1A31359  32.315  32.983   8.808
 2203POPC   D2A31360  32.534  32.918   8.400
 2203POPC   C3A31361  32.324  32.758   8.043
 2203POPC   C4A31362  32.244  32.858   7.605
 2203POPC   C1B31363  31.821  33.105   8.790
 2203POPC   C2B31364  32.058  33.192   8.375
 2203POPC   C3B31365  32.012  33.192   7.919
 2203POPC   C4B31366  31.899  33.204   7.454
 2204POPC   NC331367   6.435   7.138   9.540
 2204POPC   PO431368   7.067   7.429   9.415
 2204POPC   GL131369   6.655   7.430   9.173
 2204POPC   GL231370   6.404   7.151   9.040
 2204POPC   C1A31371   6.639   7.519   8.743
 2204POPC   D2A31372   6.906   7.737   8.458
 2204POPC   C3A31373   6.893   7.556   8.049
 2204POPC   C4A31374   7.078   7.620   7.685
 2204POPC   C1B31375   6.406   7.070   8.588
 2204POPC   C2B31376   6.458   7.392   8.267
 2204POPC   C3B31377   6.365   7.628   7.891
 2204POPC   C4B31378   6.172   7.468   7.521
 2205POPC   NC331379   7.297  10.133   9.414
 2205POPC   PO431380   7.787   9.568   9.405
 2205POPC   GL131381   7.374   9.665   9.164
 2205POPC   GL231382   7.532   9.916   9.018
 2205POPC   C1A31383   7.128   9.852   8.756
 2205POPC   D2A31384   7.050   9.978   8.317
 2205POPC   C3A31385   7.247   9.897   7.905
 2205POPC   C4A31386   7.391   9.591   7.572
 2205POPC   C1B31387   7.579  10.082   8.611
 2205POPC   C2B31388   7.648   9.947   8.199
 2205POPC   C3B31389   7.732   9.974   7.725
 2205POPC   C4B31390   7.799   9.853   7.282
 2206POPC   NC331391  23.192  38.743   9.588
 2206POPC   PO431392  22.648  39.216   9.573
 2206POPC   GL131393  23.006  39.264   9.229
 2206POPC   GL231394  23.243  39.547   9.187
 2206POPC   C1A31395  23.090  39.240   8.754
 2206POPC   D2A31396  23.333  39.202   8.339
 2206POPC   C3A31397  23.049  39.113   7.984
 2206POPC   C4A31398  22.640  39.317   7.997
 2206POPC   C1B31399  22.894  39.679   8.914
 2206POPC   C2B31400  22.855  39.691   8.459
 2206POPC   C3B31401  23.070  39.622   8.072
 2206POPC   C4B31402  22.979  39.496   7.647
 2207POPC   NC331403  28.967   6.070   9.484
 2207POPC   PO431404  29.096   5.326   9.452
 2207POPC   GL131405  29.130   5.722   9.152
 2207POPC   GL231406  29.474   5.890   9.085
 2207POPC   C1A31407  29.049   5.858   8.730
 2207POPC   D2A31408  29.279   5.661   8.392
 2207POPC   C3A31409  29.220   5.741   7.961
 2207POPC   C4A31410  28.951   5.928   7.643
 2207POPC   C1B31411  29.482   6.119   8.716
 2207POPC   C2B31412  29.388   6.167   8.276
 2207POPC   C3B31413  29.364   6.209   7.812
 2207POPC   C4B31414  29.350   6.074   7.367
 2208POPC   NC331415   4.246  28.532   9.502
 2208POPC   PO431416   4.607  28.054   9.378
 2208POPC   GL131417   4.535  28.410   9.105
 2208POPC   GL231418   4.193  28.533   9.007
 2208POPC   C1A31419   4.546  28.362   8.697
 2208POPC   D2A31420   4.481  28.111   8.380
 2208POPC   C3A31421   4.531  28.338   8.037
 2208POPC   C4A31422   4.517  28.228   7.609
 2208POPC   C1B31423   4.083  28.583   8.578
 2208POPC   C2B31424   4.059  28.341   8.204
 2208POPC   C3B31425   4.038  28.295   7.749
 2208POPC   C4B31426   3.924  28.638   7.431
 2209POPC   NC331427   5.996  18.557   9.343
 2209POPC   PO431428   5.564  18.087   9.703
 2209POPC   GL131429   5.782  17.947   9.241
 2209POPC   GL231430   6.101  18.052   9.148
 2209POPC   C1A31431   5.790  18.131   8.763
 2209POPC   D2A31432   5.926  18.079   8.350
 2209POPC   C3A31433   5.927  18.422   8.070
 2209POPC   C4A31434   5.675  18.501   7.715
 2209POPC   C1B31435   6.145  17.796   8.730
 2209POPC   C2B31436   6.327  17.705   8.323
 2209POPC   C3B31437   6.263  17.957   7.985
 2209POPC   C4B31438   6.007  18.115   7.658
 2210POPC   NC331439   1.692  18.016   9.534
 2210POPC   PO431440   2.304  18.310   9.507
 2210POPC   GL131441   2.124  18.268   9.126
 2210POPC   GL231442   1.768  18.339   9.092
 2210POPC   C1A31443   2.246  18.182   8.730
 2210POPC   D2A31444   2.345  18.367   8.334
 2210POPC   C3A31445   2.012  18.242   8.057
 2210POPC   C4A31446   2.122  17.917   7.767
 2210POPC   C1B31447   1.774  18.027   8.750
 2210POPC   C2B31448   1.948  17.808   8.372
 2210POPC   C3B31449   1.742  17.718   8.003
 2210POPC   C4B31450   1.611  18.086   7.756
 2211POPC   NC331451   5.479  19.412   9.292
 2211POPC   PO431452   5.183  19.849   9.719
 2211POPC   GL131453   5.169  19.846   9.231
 2211POPC   GL231454   4.831  19.930   9.111
 2211POPC   C1A31455   5.287  19.829   8.770
 2211POPC   D2A31456   5.136  19.652   8.346
 2211POPC   C3A31457   5.291  19.712   7.891
 2211POPC   C4A31458   5.197  19.588   7.440
 2211POPC   C1B31459   4.783  19.896   8.654
 2211POPC   C2B31460   4.707  19.951   8.210
 2211POPC   C3B31461   4.839  20.026   7.812
 2211POPC   C4B31462   4.704  20.240   7.466
 2212POPC   NC331463  34.793  12.304   9.544
 2212POPC   PO431464  34.314  11.982   9.517
 2212POPC   GL131465  34.532  12.089   9.141
 2212POPC   GL231466  34.748  11.829   9.103
 2212POPC   C1A31467  34.407  12.262   8.724
 2212POPC   D2A31468  34.579  12.195   8.329
 2212POPC   C3A31469  34.412  12.228   7.908
 2212POPC   C4A31470  34.450  11.920   7.564
 2212POPC   C1B31471  34.915  12.122   8.771
 2212POPC   C2B31472  35.120  12.210   8.361
 2212POPC   C3B31473  34.926  12.147   7.959
 2212POPC   C4B31474  34.805  12.333   7.593
 2213POPC   NC331475  18.635   8.414   9.459
 2213POPC   PO431476  18.293   7.836   9.642
 2213POPC   GL131477  18.194   8.009   9.173
 2213POPC   GL231478  18.339   8.305   9.069
 2213POPC   C1A31479  18.347   7.944   8.713
 2213POPC   D2A31480  18.159   8.052   8.328
 2213POPC   C3A31481  18.363   8.195   8.009
 2213POPC   C4A31482  18.440   8.022   7.623
 2213POPC   C1B31483  18.402   8.452   8.657
 2213POPC   C2B31484  18.095   8.555   8.378
 2213POPC   C3B31485  17.937   8.524   7.962
 2213POPC   C4B31486  18.207   8.514   7.635
 2214POPC   NC331487  39.147   3.419   9.597
 2214POPC   PO431488  39.406   4.083   9.532
 2214POPC   GL131489  39.339   3.722   9.173
 2214POPC   GL231490  39.380   3.345   9.138
 2214POPC   C1A31491  39.257   3.637   8.713
 2214POPC   D2A31492  39.244   3.350   8.325
 2214POPC   C3A31493  39.203   3.607   7.931
 2214POPC   C4A31494  39.008   3.849   7.543
 2214POPC   C1B31495  39.607   3.264   8.735
 2214POPC   C2B31496  39.747   3.452   8.321
 2214POPC   C3B31497  39.740   3.477   7.862
 2214POPC   C4B31498  39.864   3.230   7.454
 2215POPC   NC331499  42.862  15.253   9.752
 2215POPC   PO431500  43.364  15.144   9.327
 2215POPC   GL131501  43.088  15.318   9.109
 2215POPC   GL231502  42.844  15.096   9.265
 2215POPC   C1A31503  43.193  15.329   8.676
 2215POPC   D2A31504  43.069  15.521   8.315
 2215POPC   C3A31505  43.045  15.275   7.972
 2215POPC   C4A31506  43.151  15.283   7.577
 2215POPC   C1B31507  43.026  14.865   8.876
 2215POPC   C2B31508  43.265  14.824   8.483
 2215POPC   C3B31509  43.032  14.758   8.093
 2215POPC   C4B31510  42.895  14.837   7.691
 2216POPC   NC331511  26.979   2.143   9.795
 2216POPC   PO431512  27.565   2.101   9.485
 2216POPC   GL131513  27.489   1.937   9.117
 2216POPC   GL231514  27.204   1.744   9.208
 2216POPC   C1A31515  27.386   2.128   8.714
 2216POPC   D2A31516  27.365   2.238   8.292
 2216POPC   C3A31517  27.725   2.109   8.064
 2216POPC   C4A31518  27.951   2.298   7.733
 2216POPC   C1B31519  27.265   1.638   8.765
 2216POPC   C2B31520  27.125   1.770   8.342
 2216POPC   C3B31521  27.297   1.795   7.929
 2216POPC   C4B31522  27.529   1.488   7.751
 2217POPC   NC331523  17.929  11.930   9.371
 2217POPC   PO431524  18.344  12.360   9.592
 2217POPC   GL131525  18.482  12.209   9.158
 2217POPC   GL231526  18.357  11.859   9.128
 2217POPC   C1A31527  18.285  12.141   8.727
 2217POPC   D2A31528  18.030  12.197   8.365
 2217POPC   C3A31529  18.318  12.029   8.068
 2217POPC   C4A31530  18.371  12.089   7.656
 2217POPC   C1B31531  18.077  11.651   8.779
 2217POPC   C2B31532  18.041  11.697   8.337
 2217POPC   C3B31533  18.134  11.564   7.941
 2217POPC   C4B31534  18.156  11.638   7.497
 2218POPC   NC331535   6.021  28.145   9.373
 2218POPC   PO431536   5.897  27.566   9.521
 2218POPC   GL131537   5.837  27.444   9.108
 2218POPC   GL231538   5.749  27.800   9.055
 2218POPC   C1A31539   5.643  27.428   8.703
 2218POPC   D2A31540   5.646  27.651   8.321
 2218POPC   C3A31541   5.856  27.485   7.922
 2218POPC   C4A31542   6.158  27.553   7.585
 2218POPC   C1B31543   6.033  27.770   8.691
 2218POPC   C2B31544   6.160  27.731   8.255
 2218POPC   C3B31545   6.111  27.973   7.891
 2218POPC   C4B31546   5.861  28.334   7.790
 2219POPC   NC331547  35.887  11.352   9.273
 2219POPC   PO431548  36.310  11.876   9.531
 2219POPC   GL131549  36.250  11.688   9.136
 2219POPC   GL231550  36.404  11.438   9.177
 2219POPC   C1A31551  36.121  11.480   8.711
 2219POPC   D2A31552  36.099  11.149   8.398
 2219POPC   C3A31553  36.015  11.329   7.973
 2219POPC   C4A31554  35.811  11.686   7.761
 2219POPC   C1B31555  36.458  11.143   8.869
 2219POPC   C2B31556  36.630  11.126   8.504
 2219POPC   C3B31557  36.482  10.982   8.124
 2219POPC   C4B31558  36.476  11.260   7.811
 2220POPC   NC331559  21.741   7.831   9.489
 2220POPC   PO431560  21.344   7.318   9.472
 2220POPC   GL131561  21.356   7.664   9.176
 2220POPC   GL231562  21.076   7.897   9.259
 2220POPC   C1A31563  21.475   7.606   8.735
 2220POPC   D2A31564  21.306   7.240   8.477
 2220POPC   C3A31565  21.470   7.158   8.063
 2220POPC   C4A31566  21.567   7.317   7.668
 2220POPC   C1B31567  21.009   7.796   8.814
 2220POPC   C2B31568  21.094   7.707   8.384
 2220POPC   C3B31569  21.424   7.668   8.099
 2220POPC   C4B31570  21.600   7.905   7.764
 2221POPC   NC331571  39.821  14.923   9.612
 2221POPC   PO431572  40.403  14.827   9.430
 2221POPC   GL131573  40.079  14.941   9.144
 2221POPC   GL231574  39.873  15.235   9.186
 2221POPC   C1A31575  39.982  15.045   8.712
 2221POPC   D2A31576  39.919  14.906   8.292
 2221POPC   C3A31577  40.084  15.178   7.975
 2221POPC   C4A31578  40.230  15.225   7.531
 2221POPC   C1B31579  39.632  15.413   8.815
 2221POPC   C2B31580  39.764  15.394   8.375
 2221POPC   C3B31581  39.568  15.264   7.976
 2221POPC   C4B31582  39.444  15.276   7.532
 2222POPC   NC331583  32.626  33.582   9.499
 2222POPC   PO431584  33.122  34.086   9.517
 2222POPC   GL131585  32.980  33.850   9.187
 2222POPC   GL231586  32.700  34.033   9.158
 2222POPC   C1A31587  32.957  33.710   8.749
 2222POPC   D2A31588  33.185  33.686   8.346
 2222POPC   C3A31589  33.034  33.613   7.904
 2222POPC   C4A31590  33.286  33.587   7.507
 2222POPC   C1B31591  32.685  34.176   8.760
 2222POPC   C2B31592  32.682  33.959   8.375
 2222POPC   C3B31593  32.766  34.051   7.972
 2222POPC   C4B31594  32.681  33.923   7.575
 2223POPC   NC331595  43.561   6.032   9.591
 2223POPC   PO431596  43.050   5.557   9.463
 2223POPC   GL131597  43.190   5.648   9.062
 2223POPC   GL231598  43.516   5.748   9.162
 2223POPC   C1A31599  43.023   5.555   8.628
 2223POPC   D2A31600  43.020   5.539   8.162
 2223POPC   C3A31601  42.875   5.925   8.005
 2223POPC   C4A31602  42.628   6.040   7.673
 2223POPC   C1B31603  43.679   5.688   8.760
 2223POPC   C2B31604  43.521   5.627   8.343
 2223POPC   C3B31605  43.393   5.824   7.940
 2223POPC   C4B31606  43.242   5.621   7.568
 2224POPC   NC331607  34.243  35.499   9.351
 2224POPC   PO431608  34.714  35.111   9.440
 2224POPC   GL131609  34.842  35.348   9.101
 2224POPC   GL231610  34.551  35.391   8.940
 2224POPC   C1A31611  35.007  35.432   8.677
 2224POPC   D2A31612  34.721  35.251   8.334
 2224POPC   C3A31613  34.510  35.464   7.983
 2224POPC   C4A31614  34.557  35.518   7.516
 2224POPC   C1B31615  34.317  35.136   8.648
 2224POPC   C2B31616  34.197  35.099   8.243
 2224POPC   C3B31617  34.501  34.885   8.012
 2224POPC   C4B31618  34.717  35.058   7.656
 2225POPC   NC331619  40.288  22.332   9.536
 2225POPC   PO431620  39.628  22.347   9.486
 2225POPC   GL131621  39.951  22.209   9.129
 2225POPC   GL231622  40.314  22.041   9.112
 2225POPC   C1A31623  40.027  22.219   8.670
 2225POPC   D2A31624  40.149  22.126   8.221
 2225POPC   C3A31625  39.829  22.241   7.884
 2225POPC   C4A31626  39.604  21.960   7.562
 2225POPC   C1B31627  40.520  22.160   8.706
 2225POPC   C2B31628  40.407  22.535   8.445
 2225POPC   C3B31629  40.258  22.591   7.996
 2225POPC   C4B31630  40.297  22.230   7.691
 2226POPC   NC331631  27.137   2.279   9.323
 2226POPC   PO431632  26.830   1.735   9.619
 2226POPC   GL131633  26.699   1.748   9.155
 2226POPC   GL231634  26.744   2.096   9.070
 2226POPC   C1A31635  26.773   1.602   8.697
 2226POPC   D2A31636  26.694   1.434   8.263
 2226POPC   C3A31637  26.784   1.764   7.936
 2226POPC   C4A31638  26.930   1.934   7.536
 2226POPC   C1B31639  26.864   2.097   8.655
 2226POPC   C2B31640  26.797   2.208   8.247
 2226POPC   C3B31641  27.035   2.242   7.909
 2226POPC   C4B31642  27.412   2.255   7.690
 2227POPC   NC331643  25.592  17.103   9.546
 2227POPC   PO431644  26.107  16.605   9.498
 2227POPC   GL131645  25.934  16.662   9.115
 2227POPC   GL231646  25.883  16.956   9.138
 2227POPC   C1A31647  26.180  16.729   8.710
 2227POPC   D2A31648  26.532  16.650   8.409
 2227POPC   C3A31649  26.360  16.757   8.008
 2227POPC   C4A31650  25.991  16.613   7.802
 2227POPC   C1B31651  25.717  16.930   8.714
 2227POPC   C2B31652  25.812  16.715   8.338
 2227POPC   C3B31653  25.542  16.739   8.030
 2227POPC   C4B31654  25.565  16.877   7.650
 2228POPC   NC331655  44.157  16.353   9.489
 2228POPC   PO431656  43.651  15.983   9.475
 2228POPC   GL131657  43.900  16.062   9.141
 2228POPC   GL231658  44.211  15.909   9.238
 2228POPC   C1A31659  43.797  15.994   8.735
 2228POPC   D2A31660  43.675  15.700   8.427
 2228POPC   C3A31661  43.776  15.813   7.999
 2228POPC   C4A31662  43.702  15.892   7.553
 2228POPC   C1B31663  44.193  15.680   8.836
 2228POPC   C2B31664  44.158  15.853   8.414
 2228POPC   C3B31665  44.290  15.800   8.036
 2228POPC   C4B31666  44.137  15.655   7.655
 2229POPC   NC331667  44.275  36.978   9.742
 2229POPC   PO431668  44.824  37.267   9.582
 2229POPC   GL131669  44.591  37.044   9.250
 2229POPC   GL231670  44.229  37.125   9.246
 2229POPC   C1A31671  44.751  36.909   8.828
 2229POPC   D2A31672  44.682  36.811   8.387
 2229POPC   C3A31673  44.810  37.132   8.063
 2229POPC   C4A31674  44.906  37.054   7.632
 2229POPC   C1B31675  44.261  37.027   8.811
 2229POPC   C2B31676  44.444  37.266   8.478
 2229POPC   C3B31677  44.309  37.185   8.059
 2229POPC   C4B31678  43.930  36.993   7.873
 2230POPC   NC331679   3.077  25.190   9.612
 2230POPC   PO431680   3.397  24.720   9.443
 2230POPC   GL131681   3.428  25.084   9.163
 2230POPC   GL231682   3.238  25.385   9.159
 2230POPC   C1A31683   3.546  25.252   8.746
 2230POPC   D2A31684   3.731  25.207   8.330
 2230POPC   C3A31685   3.490  25.120   7.950
 2230POPC   C4A31686   3.595  24.897   7.550
 2230POPC   C1B31687   3.121  25.546   8.753
 2230POPC   C2B31688   3.253  25.416   8.333
 2230POPC   C3B31689   3.242  25.579   7.911
 2230POPC   C4B31690   3.586  25.594   7.616
 2231POPC   NC331691  29.378  19.954   9.479
 2231POPC   PO431692  28.881  19.485   9.397
 2231POPC   GL131693  29.064  19.720   9.082
 2231POPC   GL231694  29.111  20.080   9.074
 2231POPC   C1A31695  29.099  19.589   8.664
 2231POPC   D2A31696  29.081  19.496   8.255
 2231POPC   C3A31697  29.471  19.487   8.105
 2231POPC   C4A31698  29.276  19.451   7.729
 2231POPC   C1B31699  29.182  20.103   8.643
 2231POPC   C2B31700  29.277  19.976   8.199
 2231POPC   C3B31701  29.090  19.904   7.787
 2231POPC   C4B31702  28.964  20.032   7.351
 2232POPC   NC331703   5.565  12.677   9.610
 2232POPC   PO431704   6.138  12.592   9.243
 2232POPC   GL131705   5.755  12.654   9.077
 2232POPC   GL231706   5.495  12.888   9.093
 2232POPC   C1A31707   5.566  12.615   8.656
 2232POPC   D2A31708   5.587  12.799   8.256
 2232POPC   C3A31709   5.888  12.620   7.966
 2232POPC   C4A31710   6.182  12.875   7.808
 2232POPC   C1B31711   5.782  13.076   8.801
 2232POPC   C2B31712   5.692  13.440   8.574
 2232POPC   C3B31713   5.616  13.321   8.181
 2232POPC   C4B31714   5.876  13.300   7.820
 2233POPC   NC331715  36.268   0.758   9.500
 2233POPC   PO431716  35.717   0.353   9.613
 2233POPC   GL131717  35.998   0.382   9.252
 2233POPC   GL231718  35.949   0.046   9.183
 2233POPC   C1A31719  36.212   0.575   8.853
 2233POPC   D2A31720  36.420   0.669   8.434
 2233POPC   C3A31721  36.138   0.685   8.074
 2233POPC   C4A31722  36.072   0.505   7.667
 2233POPC   C1B31723  36.125   0.056   8.799
 2233POPC   C2B31724  36.024  44.886   8.417
 2233POPC   C3B31725  36.077   0.099   8.037
 2233POPC   C4B31726  35.876   0.056   7.619
 2234POPC   NC331727  26.479  34.149   9.503
 2234POPC   PO431728  26.953  33.719   9.639
 2234POPC   GL131729  26.993  33.640   9.225
 2234POPC   GL231730  26.868  33.989   9.198
 2234POPC   C1A31731  26.784  33.671   8.804
 2234POPC   D2A31732  26.601  33.544   8.417
 2234POPC   C3A31733  26.667  33.817   8.067
 2234POPC   C4A31734  26.509  33.883   7.633
 2234POPC   C1B31735  27.054  34.141   8.850
 2234POPC   C2B31736  27.039  34.133   8.410
 2234POPC   C3B31737  27.287  34.057   8.057
 2234POPC   C4B31738  27.012  33.985   7.720
 2235POPC   NC331739  11.314  28.010   9.534
 2235POPC   PO431740  11.434  27.375   9.509
 2235POPC   GL131741  11.303  27.448   9.081
 2235POPC   GL231742  11.037  27.228   9.036
 2235POPC   C1A31743  11.440  27.629   8.669
 2235POPC   D2A31744  11.580  27.979   8.379
 2235POPC   C3A31745  11.517  27.845   7.911
 2235POPC   C4A31746  11.392  27.495   7.665
 2235POPC   C1B31747  10.866  27.550   8.757
 2235POPC   C2B31748  10.974  27.633   8.325
 2235POPC   C3B31749  10.900  27.510   7.890
 2235POPC   C4B31750  10.984  27.825   7.599
 2236POPC   NC331751  10.802   9.180   9.536
 2236POPC   PO431752  11.101   8.590   9.232
 2236POPC   GL131753  10.763   8.778   9.068
 2236POPC   GL231754  10.519   8.492   9.065
 2236POPC   C1A31755  10.744   8.983   8.657
 2236POPC   D2A31756  10.704   8.907   8.213
 2236POPC   C3A31757  10.485   9.277   8.019
 2236POPC   C4A31758  10.031   9.308   8.024
 2236POPC   C1B31759  10.293   8.720   8.750
 2236POPC   C2B31760  10.233   8.987   8.396
 2236POPC   C3B31761  10.251   8.829   7.975
 2236POPC   C4B31762  10.598   8.597   7.805
 2237POPC   NC331763  31.059  17.823   9.699
 2237POPC   PO431764  31.633  17.408   9.568
 2237POPC   GL131765  31.372  17.440   9.203
 2237POPC   GL231766  31.430  17.094   9.139
 2237POPC   C1A31767  31.245  17.719   8.831
 2237POPC   D2A31768  31.089  17.632   8.416
 2237POPC   C3A31769  31.436  17.694   8.104
 2237POPC   C4A31770  31.755  17.431   7.871
 2237POPC   C1B31771  31.279  17.212   8.730
 2237POPC   C2B31772  31.410  17.210   8.311
 2237POPC   C3B31773  31.253  17.258   7.894
 2237POPC   C4B31774  31.178  17.591   7.623
 2238POPC   NC331775   6.084  37.613   9.585
 2238POPC   PO431776   5.536  37.341   9.741
 2238POPC   GL131777   5.758  37.665   9.228
 2238POPC   GL231778   5.588  37.999   9.170
 2238POPC   C1A31779   5.866  37.491   8.743
 2238POPC   D2A31780   5.951  37.613   8.285
 2238POPC   C3A31781   5.677  37.463   7.971
 2238POPC   C4A31782   5.593  37.360   7.542
 2238POPC   C1B31783   5.876  37.986   8.814
 2238POPC   C2B31784   5.925  38.126   8.411
 2238POPC   C3B31785   6.078  38.035   8.005
 2238POPC   C4B31786   5.994  37.763   7.678
 2239POPC   NC331787   3.383  15.058   9.511
 2239POPC   PO431788   4.040  15.232   9.516
 2239POPC   GL131789   3.706  15.323   9.154
 2239POPC   GL231790   3.861  15.554   8.946
 2239POPC   C1A31791   3.701  15.133   8.679
 2239POPC   D2A31792   3.769  15.150   8.205
 2239POPC   C3A31793   3.432  15.170   7.873
 2239POPC   C4A31794   3.366  14.907   7.477
 2239POPC   C1B31795   3.435  15.559   8.678
 2239POPC   C2B31796   3.345  15.532   8.230
 2239POPC   C3B31797   3.398  15.713   7.816
 2239POPC   C4B31798   3.746  15.661   7.523
 2240POPC   NC331799  16.884  30.465   9.484
 2240POPC   PO431800  16.427  31.036   9.502
 2240POPC   GL131801  16.619  30.880   9.078
 2240POPC   GL231802  16.859  30.596   9.003
 2240POPC   C1A31803  16.925  31.043   8.767
 2240POPC   D2A31804  17.034  30.964   8.366
 2240POPC   C3A31805  16.738  30.902   8.037
 2240POPC   C4A31806  16.816  30.803   7.621
 2240POPC   C1B31807  16.704  30.586   8.573
 2240POPC   C2B31808  16.669  30.344   8.174
 2240POPC   C3B31809  16.403  30.407   7.814
 2240POPC   C4B31810  16.402  30.421   7.356
 2241POPC   NC331811  19.109  14.416   9.410
 2241POPC   PO431812  18.619  14.892   9.311
 2241POPC   GL131813  18.835  14.563   9.031
 2241POPC   GL231814  18.743  14.187   9.139
 2241POPC   C1A31815  19.208  14.552   8.757
 2241POPC   D2A31816  19.450  14.539   8.391
 2241POPC   C3A31817  19.229  14.588   8.012
 2241POPC   C4A31818  19.090  14.253   7.740
 2241POPC   C1B31819  18.940  14.118   8.728
 2241POPC   C2B31820  18.949  14.212   8.282
 2241POPC   C3B31821  18.627  14.261   7.959
 2241POPC   C4B31822  18.634  14.212   7.481
 2242POPC   NC331823  37.907  42.179   9.558
 2242POPC   PO431824  37.390  42.634   9.406
 2242POPC   GL131825  37.552  42.236   9.176
 2242POPC   GL231826  37.870  41.968   9.114
 2242POPC   C1A31827  37.520  42.161   8.756
 2242POPC   D2A31828  37.517  42.387   8.363
 2242POPC   C3A31829  37.424  42.175   7.995
 2242POPC   C4A31830  37.582  42.361   7.619
 2242POPC   C1B31831  38.035  42.236   8.806
 2242POPC   C2B31832  37.942  42.083   8.390
 2242POPC   C3B31833  37.930  42.189   7.963
 2242POPC   C4B31834  37.796  41.913   7.622
 2243POPC   NC331835  28.412  28.245   9.447
 2243POPC   PO431836  28.661  27.761   9.058
 2243POPC   GL131837  28.451  28.136   8.960
 2243POPC   GL231838  28.678  28.431   9.058
 2243POPC   C1A31839  28.026  28.280   8.860
 2243POPC   D2A31840  27.978  28.385   8.432
 2243POPC   C3A31841  28.169  28.072   8.116
 2243POPC   C4A31842  28.254  28.160   7.651
 2243POPC   C1B31843  28.806  28.327   8.651
 2243POPC   C2B31844  28.513  28.375   8.350
 2243POPC   C3B31845  28.528  28.494   7.941
 2243POPC   C4B31846  28.782  28.309   7.642
 2244POPC   NC331847  42.068  28.463   9.472
 2244POPC   PO431848  42.502  28.051   9.389
 2244POPC   GL131849  42.338  28.262   9.059
 2244POPC   GL231850  42.444  28.597   9.137
 2244POPC   C1A31851  42.092  28.504   8.760
 2244POPC   D2A31852  42.191  28.536   8.335
 2244POPC   C3A31853  42.328  28.189   8.112
 2244POPC   C4A31854  42.173  28.084   7.696
 2244POPC   C1B31855  42.622  28.547   8.731
 2244POPC   C2B31856  42.656  28.774   8.351
 2244POPC   C3B31857  42.783  28.582   7.984
 2244POPC   C4B31858  42.516  28.455   7.725
 2245POPC   NC331859   4.625   3.559   9.659
 2245POPC   PO431860   4.028   3.194   9.849
 2245POPC   GL131861   4.132   3.322   9.373
 2245POPC   GL231862   4.311   3.626   9.210
 2245POPC   C1A31863   4.164   3.292   8.887
 2245POPC   D2A31864   4.190   3.646   8.591
 2245POPC   C3A31865   3.945   3.584   8.211
 2245POPC   C4A31866   3.956   3.379   7.816
 2245POPC   C1B31867   4.636   3.585   8.893
 2245POPC   C2B31868   4.609   3.356   8.520
 2245POPC   C3B31869   4.494   3.534   8.122
 2245POPC   C4B31870   4.725   3.809   7.834
 2246POPC   NC331871  16.793   4.905   9.518
 2246POPC   PO431872  16.336   5.471   9.504
 2246POPC   GL131873  16.524   5.220   9.194
 2246POPC   GL231874  16.309   4.922   9.306
 2246POPC   C1A31875  16.851   5.231   8.833
 2246POPC   D2A31876  17.025   4.936   8.497
 2246POPC   C3A31877  17.153   5.020   8.056
 2246POPC   C4A31878  17.131   5.102   7.615
 2246POPC   C1B31879  16.380   4.816   8.875
 2246POPC   C2B31880  16.460   4.705   8.442
 2246POPC   C3B31881  16.681   4.791   8.066
 2246POPC   C4B31882  16.629   5.004   7.689
 2247POPC   NC331883  40.359  43.264   9.550
 2247POPC   PO431884  39.806  42.884   9.563
 2247POPC   GL131885  39.878  43.081   9.175
 2247POPC   GL231886  40.243  43.047   9.107
 2247POPC   C1A31887  39.892  43.042   8.738
 2247POPC   D2A31888  39.980  42.723   8.480
 2247POPC   C3A31889  40.019  42.846   8.059
 2247POPC   C4A31890  39.792  42.961   7.683
 2247POPC   C1B31891  40.251  43.403   8.795
 2247POPC   C2B31892  40.375  43.572   8.381
 2247POPC   C3B31893  40.450  43.506   7.968
 2247POPC   C4B31894  40.199  43.263   7.716
 2248POPC   NC331895  29.775  29.085   9.525
 2248POPC   PO431896  30.333  29.046   9.125
 2248POPC   GL131897  29.878  29.031   9.006
 2248POPC   GL231898  29.564  28.820   9.141
 2248POPC   C1A31899  29.811  29.320   8.633
 2248POPC   D2A31900  30.084  29.527   8.294
 2248POPC   C3A31901  30.061  29.334   7.869
 2248POPC   C4A31902  30.147  29.513   7.464
 2248POPC   C1B31903  29.449  28.951   8.731
 2248POPC   C2B31904  29.412  29.092   8.325
 2248POPC   C3B31905  29.401  28.881   7.946
 2248POPC   C4B31906  29.772  28.895   7.733
 2249POPC   NC331907  37.197  23.853   9.431
 2249POPC   PO431908  36.522  23.715   9.379
 2249POPC   GL131909  36.837  23.783   9.078
 2249POPC   GL231910  37.072  23.495   9.069
 2249POPC   C1A31911  36.846  23.932   8.675
 2249POPC   D2A31912  36.828  23.707   8.284
 2249POPC   C3A31913  37.062  23.856   7.934
 2249POPC   C4A31914  36.824  24.184   7.726
 2249POPC   C1B31915  37.154  23.540   8.664
 2249POPC   C2B31916  37.128  23.289   8.294
 2249POPC   C3B31917  36.913  23.311   7.886
 2249POPC   C4B31918  37.018  23.382   7.403
 2250POPC   NC331919  31.959  35.301   9.525
 2250POPC   PO431920  32.563  35.547   9.628
 2250POPC   GL131921  32.407  35.435   9.232
 2250POPC   GL231922  32.146  35.677   9.124
 2250POPC   C1A31923  32.231  35.154   8.929
 2250POPC   D2A31924  32.108  35.159   8.502
 2250POPC   C3A31925  32.328  35.400   8.193
 2250POPC   C4A31926  32.398  35.267   7.784
 2250POPC   C1B31927  31.889  35.545   8.761
 2250POPC   C2B31928  31.780  35.505   8.291
 2250POPC   C3B31929  31.911  35.458   7.854
 2250POPC   C4B31930  32.159  35.624   7.522
 2251POPC   NC331931  40.631  13.409   9.494
 2251POPC   PO431932  41.275  13.605   9.392
 2251POPC   GL131933  40.966  13.560   9.060
 2251POPC   GL231934  40.645  13.713   9.043
 2251POPC   C1A31935  40.796  13.467   8.604
 2251POPC   D2A31936  40.678  13.341   8.178
 2251POPC   C3A31937  40.886  13.560   7.845
 2251POPC   C4A31938  40.759  13.522   7.423
 2251POPC   C1B31939  40.547  13.903   8.610
 2251POPC   C2B31940  40.525  13.832   8.145
 2251POPC   C3B31941  40.483  13.844   7.688
 2251POPC   C4B31942  40.533  13.931   7.196
 2252POPC   NC331943  35.623  17.780   9.553
 2252POPC   PO431944  35.782  18.382   9.482
 2252POPC   GL131945  35.838  18.215   9.093
 2252POPC   GL231946  35.775  17.864   9.066
 2252POPC   C1A31947  35.957  18.373   8.701
 2252POPC   D2A31948  36.084  18.241   8.336
 2252POPC   C3A31949  35.889  18.438   7.995
 2252POPC   C4A31950  35.997  18.406   7.574
 2252POPC   C1B31951  35.726  17.888   8.614
 2252POPC   C2B31952  35.848  17.840   8.147
 2252POPC   C3B31953  36.194  18.028   7.877
 2252POPC   C4B31954  36.372  18.048   7.451
 2253POPC   NC331955  26.658  13.902   9.482
 2253POPC   PO431956  27.220  13.707   9.493
 2253POPC   GL131957  26.973  13.778   9.107
 2253POPC   GL231958  26.624  13.633   9.037
 2253POPC   C1A31959  26.989  13.877   8.705
 2253POPC   D2A31960  26.925  13.664   8.371
 2253POPC   C3A31961  26.954  13.768   7.947
 2253POPC   C4A31962  26.698  13.548   7.659
 2253POPC   C1B31963  26.477  13.489   8.595
 2253POPC   C2B31964  26.463  13.695   8.146
 2253POPC   C3B31965  26.415  13.965   7.771
 2253POPC   C4B31966  26.405  13.860   7.299
 2254POPC   NC331967  26.070  17.930   9.446
 2254POPC   PO431968  25.647  18.500   9.502
 2254POPC   GL131969  25.905  18.330   9.189
 2254POPC   GL231970  26.237  18.433   9.281
 2254POPC   C1A31971  25.966  18.183   8.756
 2254POPC   D2A31972  25.698  18.278   8.381
 2254POPC   C3A31973  25.868  18.145   7.984
 2254POPC   C4A31974  26.241  18.059   7.833
 2254POPC   C1B31975  26.117  18.651   8.879
 2254POPC   C2B31976  26.001  18.698   8.466
 2254POPC   C3B31977  25.883  18.667   8.046
 2254POPC   C4B31978  26.143  18.544   7.716
 2255POPC   NC331979  41.966  29.417   9.371
 2255POPC   PO431980  41.287  29.356   9.497
 2255POPC   GL131981  41.506  29.354   9.102
 2255POPC   GL231982  41.671  29.033   9.013
 2255POPC   C1A31983  41.805  29.503   8.769
 2255POPC   D2A31984  41.735  29.614   8.358
 2255POPC   C3A31985  41.733  29.268   8.134
 2255POPC   C4A31986  41.818  29.154   7.736
 2255POPC   C1B31987  41.506  29.143   8.593
 2255POPC   C2B31988  41.302  29.048   8.215
 2255POPC   C3B31989  41.318  29.185   7.802
 2255POPC   C4B31990  41.376  29.078   7.353
 2256POPC   NC331991  31.534  27.322   9.545
 2256POPC   PO431992  31.116  27.807   9.468
 2256POPC   GL131993  31.393  27.586   9.121
 2256POPC   GL231994  31.678  27.327   9.046
 2256POPC   C1A31995  31.542  27.716   8.721
 2256POPC   D2A31996  31.440  28.058   8.462
 2256POPC   C3A31997  31.485  27.860   8.107
 2256POPC   C4A31998  31.479  27.603   7.746
 2256POPC   C1B31999  31.334  27.230   8.730
 2256POPC   C2B32000  31.381  27.369   8.300
 2256POPC   C3B32001  31.713  27.261   7.999
 2256POPC   C4B32002  31.636  27.119   7.574
 2257POPC   NC332003  19.337  42.743   9.460
 2257POPC   PO432004  19.023  42.109   9.572
 2257POPC   GL132005  19.144  42.241   9.164
 2257POPC   GL232006  19.049  42.580   9.085
 2257POPC   C1A32007  19.241  42.296   8.721
 2257POPC   D2A32008  18.999  42.327   8.371
 2257POPC   C3A32009  19.186  42.169   8.005
 2257POPC   C4A32010  18.974  42.203   7.633
 2257POPC   C1B32011  18.797  42.738   8.755
 2257POPC   C2B32012  18.800  42.818   8.320
 2257POPC   C3B32013  19.022  42.663   7.958
 2257POPC   C4B32014  19.131  42.664   7.515
 2258POPC   NC332015  36.367  38.408   9.511
 2258POPC   PO432016  35.737  38.761   9.470
 2258POPC   GL132017  36.015  38.537   9.166
 2258POPC   GL232018  35.913  38.200   9.016
 2258POPC   C1A32019  36.224  38.551   8.774
 2258POPC   D2A32020  36.001  38.684   8.393
 2258POPC   C3A32021  36.196  38.511   8.049
 2258POPC   C4A32022  36.290  38.631   7.647
 2258POPC   C1B32023  36.028  38.152   8.538
 2258POPC   C2B32024  35.938  38.066   8.102
 2258POPC   C3B32025  36.088  38.137   7.677
 2258POPC   C4B32026  35.842  38.087   7.275
 2259POPC   NC332027  14.038  12.435   9.478
 2259POPC   PO432028  13.583  12.930   9.531
 2259POPC   GL132029  13.745  12.808   9.165
 2259POPC   GL232030  13.445  12.636   9.091
 2259POPC   C1A32031  13.865  12.860   8.732
 2259POPC   D2A32032  13.734  12.989   8.335
 2259POPC   C3A32033  13.733  12.866   7.861
 2259POPC   C4A32034  13.685  12.614   7.442
 2259POPC   C1B32035  13.354  12.874   8.709
 2259POPC   C2B32036  13.206  12.818   8.306
 2259POPC   C3B32037  13.316  12.588   7.967
 2259POPC   C4B32038  13.266  12.844   7.649
 2260POPC   NC332039  28.298  34.082   9.486
 2260POPC   PO432040  27.900  33.477   9.425
 2260POPC   GL132041  28.210  33.710   9.131
 2260POPC   GL232042  28.160  34.058   9.013
 2260POPC   C1A32043  28.489  33.770   8.749
 2260POPC   D2A32044  28.657  33.834   8.311
 2260POPC   C3A32045  28.366  33.658   7.949
 2260POPC   C4A32046  28.105  33.813   7.589
 2260POPC   C1B32047  28.078  34.175   8.616
 2260POPC   C2B32048  28.365  34.302   8.334
 2260POPC   C3B32049  28.347  34.152   7.968
 2260POPC   C4B32050  27.892  34.085   8.004
 2261POPC   NC332051   2.221  24.673   9.633
 2261POPC   PO432052   1.929  25.336   9.497
 2261POPC   GL132053   1.906  25.184   9.135
 2261POPC   GL232054   2.243  25.105   9.159
 2261POPC   C1A32055   1.889  25.378   8.753
 2261POPC   D2A32056   1.822  25.179   8.336
 2261POPC   C3A32057   1.925  25.436   7.983
 2261POPC   C4A32058   1.623  25.528   7.668
 2261POPC   C1B32059   2.106  24.941   8.739
 2261POPC   C2B32060   2.254  24.829   8.317
 2261POPC   C3B32061   2.103  24.934   7.907
 2261POPC   C4B32062   1.693  25.004   7.788
 2262POPC   NC332063  31.653  10.707   9.508
 2262POPC   PO432064  31.134  10.248   9.646
 2262POPC   GL132065  31.261  10.469   9.243
 2262POPC   GL232066  31.593  10.351   9.083
 2262POPC   C1A32067  31.199  10.495   8.799
 2262POPC   D2A32068  31.448  10.294   8.503
 2262POPC   C3A32069  31.368  10.419   8.089
 2262POPC   C4A32070  31.435  10.173   7.735
 2262POPC   C1B32071  31.658  10.698   8.824
 2262POPC   C2B32072  31.500  10.819   8.422
 2262POPC   C3B32073  31.728  10.833   8.042
 2262POPC   C4B32074  31.591  10.652   7.681
 2263POPC   NC332075  35.570  26.379   9.641
 2263POPC   PO432076  35.230  26.902   9.523
 2263POPC   GL132077  35.266  26.695   9.177
 2263POPC   GL232078  35.593  26.607   9.192
 2263POPC   C1A32079  35.156  26.775   8.777
 2263POPC   D2A32080  35.397  26.728   8.434
 2263POPC   C3A32081  35.206  26.715   8.035
 2263POPC   C4A32082  35.520  26.579   7.743
 2263POPC   C1B32083  35.615  26.994   8.930
 2263POPC   C2B32084  35.724  27.138   8.515
 2263POPC   C3B32085  35.549  27.092   8.094
 2263POPC   C4B32086  35.690  27.071   7.694
 2264POPC   NC332087  31.076  33.132   9.864
 2264POPC   PO432088  30.483  33.035   9.550
 2264POPC   GL132089  30.566  32.783   9.141
 2264POPC   GL232090  30.912  32.682   9.016
 2264POPC   C1A32091  30.439  32.997   8.774
 2264POPC   D2A32092  30.583  33.366   8.519
 2264POPC   C3A32093  30.557  33.178   8.128
 2264POPC   C4A32094  30.459  33.237   7.708
 2264POPC   C1B32095  30.941  33.044   8.717
 2264POPC   C2B32096  31.055  33.178   8.310
 2264POPC   C3B32097  31.009  33.240   7.884
 2264POPC   C4B32098  31.132  33.114   7.487
 2265POPC   NC332099  37.936   4.184   9.335
 2265POPC   PO432100  38.464   4.382   9.684
 2265POPC   GL132101  38.497   4.300   9.271
 2265POPC   GL232102  38.301   4.591   9.182
 2265POPC   C1A32103  38.544   4.233   8.845
 2265POPC   D2A32104  38.340   4.338   8.467
 2265POPC   C3A32105  38.475   4.123   8.083
 2265POPC   C4A32106  38.817   4.235   7.809
 2265POPC   C1B32107  38.077   4.692   8.793
 2265POPC   C2B32108  37.993   4.678   8.325
 2265POPC   C3B32109  38.343   4.641   8.038
 2265POPC   C4B32110  38.365   4.441   7.646
 2266POPC   NC332111   0.722  22.108   9.479
 2266POPC   PO432112   0.065  22.326   9.460
 2266POPC   GL132113   0.361  22.175   9.081
 2266POPC   GL232114   0.505  21.830   9.081
 2266POPC   C1A32115   0.661  22.183   8.665
 2266POPC   D2A32116   0.864  22.457   8.340
 2266POPC   C3A32117   0.624  22.444   7.935
 2266POPC   C4A32118   0.219  22.240   7.801
 2266POPC   C1B32119   0.257  21.868   8.688
 2266POPC   C2B32120   0.329  21.971   8.242
 2266POPC   C3B32121   0.246  21.721   7.871
 2266POPC   C4B32122   0.320  21.767   7.425
 2267POPC   NC332123  43.784  18.601   9.481
 2267POPC   PO432124  43.868  17.818   9.470
 2267POPC   GL132125  43.916  18.174   9.228
 2267POPC   GL232126  44.209  18.370   9.263
 2267POPC   C1A32127  43.813  18.318   8.836
 2267POPC   D2A32128  43.758  18.564   8.457
 2267POPC   C3A32129  43.727  18.339   8.084
 2267POPC   C4A32130  43.617  18.590   7.735
 2267POPC   C1B32131  44.312  18.238   8.852
 2267POPC   C2B32132  44.147  18.245   8.458
 2267POPC   C3B32133  44.267  18.257   8.075
 2267POPC   C4B32134  44.117  18.448   7.739
 2268POPC   NC332135  35.576  12.236   9.448
 2268POPC   PO432136  34.950  11.857   9.579
 2268POPC   GL132137  35.161  12.077   9.221
 2268POPC   GL232138  35.327  11.767   9.211
 2268POPC   C1A32139  35.433  12.101   8.820
 2268POPC   D2A32140  35.635  12.314   8.469
 2268POPC   C3A32141  35.672  12.094   8.088
 2268POPC   C4A32142  35.392  12.165   7.767
 2268POPC   C1B32143  35.191  11.663   8.808
 2268POPC   C2B32144  35.381  11.768   8.412
 2268POPC   C3B32145  35.231  11.736   8.005
 2268POPC   C4B32146  35.338  11.635   7.580
 2269POPC   NC332147  20.329  32.634   9.609
 2269POPC   PO432148  20.709  33.243   9.541
 2269POPC   GL132149  20.651  32.910   9.247
 2269POPC   GL232150  20.318  32.899   9.159
 2269POPC   C1A32151  20.673  32.863   8.791
 2269POPC   D2A32152  20.622  33.090   8.403
 2269POPC   C3A32153  20.578  32.958   7.984
 2269POPC   C4A32154  20.974  32.822   7.841
 2269POPC   C1B32155  20.225  33.128   8.765
 2269POPC   C2B32156  20.279  33.458   8.463
 2269POPC   C3B32157  20.378  33.473   8.036
 2269POPC   C4B32158  20.240  33.245   7.683
 2270POPC   NC332159   7.956  40.261   9.377
 2270POPC   PO432160   8.686  40.009   9.465
 2270POPC   GL132161   8.373  40.012   9.145
 2270POPC   GL232162   8.525  40.287   9.021
 2270POPC   C1A32163   8.130  39.805   8.796
 2270POPC   D2A32164   8.252  39.896   8.336
 2270POPC   C3A32165   8.213  39.764   7.890
 2270POPC   C4A32166   8.377  40.070   7.618
 2270POPC   C1B32167   8.269  40.287   8.687
 2270POPC   C2B32168   8.204  40.411   8.293
 2270POPC   C3B32169   8.022  40.232   7.965
 2270POPC   C4B32170   7.890  40.354   7.576
 2271POPC   NC332171  32.182  43.242   9.683
 2271POPC   PO432172  31.583  43.045   9.466
 2271POPC   GL132173  31.527  42.808   9.138
 2271POPC   GL232174  31.240  42.578   9.168
 2271POPC   C1A32175  31.541  43.003   8.756
 2271POPC   D2A32176  31.759  43.184   8.428
 2271POPC   C3A32177  31.554  43.058   8.085
 2271POPC   C4A32178  31.362  43.244   7.727
 2271POPC   C1B32179  31.240  42.587   8.721
 2271POPC   C2B32180  31.185  42.892   8.397
 2271POPC   C3B32181  31.135  42.825   7.953
 2271POPC   C4B32182  31.167  42.798   7.539
 2272POPC   NC332183   7.464   8.590   9.791
 2272POPC   PO432184   7.249   7.985   9.729
 2272POPC   GL132185   7.249   7.980   9.247
 2272POPC   GL232186   7.467   8.190   9.045
 2272POPC   C1A32187   7.276   7.763   8.839
 2272POPC   D2A32188   7.473   7.975   8.492
 2272POPC   C3A32189   7.236   7.968   8.100
 2272POPC   C4A32190   7.263   8.101   7.674
 2272POPC   C1B32191   7.484   8.461   8.680
 2272POPC   C2B32192   7.598   8.650   8.289
 2272POPC   C3B32193   7.555   8.505   7.874
 2272POPC   C4B32194   7.662   8.649   7.426
 2273POPC   NC332195  37.161   1.433   9.555
 2273POPC   PO432196  36.548   1.141   9.550
 2273POPC   GL132197  36.698   0.902   9.203
 2273POPC   GL232198  36.852   1.234   9.107
 2273POPC   C1A32199  36.941   0.831   8.809
 2273POPC   D2A32200  37.103   1.175   8.520
 2273POPC   C3A32201  36.836   1.178   8.176
 2273POPC   C4A32202  36.747   1.040   7.766
 2273POPC   C1B32203  37.121   1.557   8.917
 2273POPC   C2B32204  37.200   1.696   8.511
 2273POPC   C3B32205  37.207   1.534   8.117
 2273POPC   C4B32206  37.301   1.647   7.712
 2274POPC   NC332207  25.504   5.712   9.520
 2274POPC   PO432208  25.127   6.232   9.481
 2274POPC   GL132209  25.196   5.924   9.146
 2274POPC   GL232210  25.551   5.977   9.082
 2274POPC   C1A32211  25.060   5.713   8.749
 2274POPC   D2A32212  24.890   5.907   8.366
 2274POPC   C3A32213  24.816   5.694   7.973
 2274POPC   C4A32214  25.140   5.714   7.673
 2274POPC   C1B32215  25.576   5.643   8.782
 2274POPC   C2B32216  25.443   5.716   8.367
 2274POPC   C3B32217  25.585   5.782   7.958
 2274POPC   C4B32218  25.648   5.560   7.612
 2275POPC   NC332219   7.642  17.016   9.893
 2275POPC   PO432220   7.329  17.531   9.556
 2275POPC   GL132221   7.471  17.442   9.168
 2275POPC   GL232222   7.185  17.245   9.146
 2275POPC   C1A32223   7.455  17.341   8.732
 2275POPC   D2A32224   7.447  17.663   8.455
 2275POPC   C3A32225   7.332  17.576   8.084
 2275POPC   C4A32226   7.501  17.342   7.746
 2275POPC   C1B32227   7.114  17.682   8.875
 2275POPC   C2B32228   7.038  18.010   8.500
 2275POPC   C3B32229   6.831  17.988   8.068
 2275POPC   C4B32230   7.033  17.749   7.719
 2276POPC   NC332231  33.685  43.685   9.498
 2276POPC   PO432232  34.355  43.550   9.348
 2276POPC   GL132233  34.081  43.842   9.078
 2276POPC   GL232234  33.714  43.823   9.005
 2276POPC   C1A32235  34.029  43.941   8.643
 2276POPC   D2A32236  33.885  43.846   8.268
 2276POPC   C3A32237  34.155  44.007   7.934
 2276POPC   C4A32238  33.951  44.011   7.522
 2276POPC   C1B32239  33.509  43.553   8.699
 2276POPC   C2B32240  33.548  43.453   8.254
 2276POPC   C3B32241  33.517  43.756   7.921
 2276POPC   C4B32242  33.540  43.726   7.523
 2277POPC   NC332243  20.033  20.177   9.284
 2277POPC   PO432244  19.705  20.685   9.565
 2277POPC   GL132245  19.681  20.777   9.165
 2277POPC   GL232246  19.468  20.987   9.165
 2277POPC   C1A32247  19.721  20.614   8.750
 2277POPC   D2A32248  19.840  20.676   8.314
 2277POPC   C3A32249  20.018  20.330   8.080
 2277POPC   C4A32250  20.011  20.248   7.630
 2277POPC   C1B32251  19.341  20.969   8.771
 2277POPC   C2B32252  19.489  21.048   8.373
 2277POPC   C3B32253  19.561  21.002   7.948
 2277POPC   C4B32254  19.884  20.738   7.792
 2278POPC   NC332255  25.253  12.369   9.980
 2278POPC   PO432256  25.057  11.802   9.612
 2278POPC   GL132257  25.114  12.196   9.365
 2278POPC   GL232258  25.424  12.127   9.215
 2278POPC   C1A32259  25.079  12.279   8.880
 2278POPC   D2A32260  25.065  12.005   8.500
 2278POPC   C3A32261  24.962  12.140   8.071
 2278POPC   C4A32262  25.084  11.959   7.650
 2278POPC   C1B32263  25.554  12.113   8.771
 2278POPC   C2B32264  25.453  12.328   8.354
 2278POPC   C3B32265  25.473  12.105   7.981
 2278POPC   C4B32266  25.542  12.219   7.576
 2279POPC   NC332267  20.096  34.282   9.294
 2279POPC   PO432268  19.726  34.683   9.734
 2279POPC   GL132269  19.750  34.659   9.258
 2279POPC   GL232270  19.624  34.376   9.091
 2279POPC   C1A32271  19.992  34.676   8.808
 2279POPC   D2A32272  20.058  34.548   8.379
 2279POPC   C3A32273  19.824  34.605   8.016
 2279POPC   C4A32274  19.982  34.667   7.638
 2279POPC   C1B32275  19.332  34.325   8.756
 2279POPC   C2B32276  19.356  34.455   8.330
 2279POPC   C3B32277  19.394  34.344   7.894
 2279POPC   C4B32278  19.793  34.192   7.697
 2280POPC   NC332279  23.838  19.712   9.600
 2280POPC   PO432280  24.095  20.201   9.534
 2280POPC   GL132281  23.840  19.988   9.153
 2280POPC   GL232282  23.757  19.607   9.093
 2280POPC   C1A32283  23.868  19.895   8.675
 2280POPC   D2A32284  23.669  19.718   8.276
 2280POPC   C3A32285  23.806  19.925   7.886
 2280POPC   C4A32286  23.780  20.186   7.502
 2280POPC   C1B32287  23.819  19.380   8.656
 2280POPC   C2B32288  23.857  19.233   8.193
 2280POPC   C3B32289  23.997  19.457   7.788
 2280POPC   C4B32290  24.016  19.392   7.300
 2281POPC   NC332291  30.384  21.070   9.447
 2281POPC   PO432292  30.979  21.453   9.479
 2281POPC   GL132293  30.868  21.290   9.087
 2281POPC   GL232294  30.530  21.311   8.974
 2281POPC   C1A32295  30.949  21.458   8.689
 2281POPC   D2A32296  30.735  21.603   8.309
 2281POPC   C3A32297  30.885  21.402   7.931
 2281POPC   C4A32298  30.706  20.991   7.783
 2281POPC   C1B32299  30.603  21.783   8.851
 2281POPC   C2B32300  30.444  22.038   8.527
 2281POPC   C3B32301  30.267  21.836   8.162
 2281POPC   C4B32302  30.450  21.718   7.756
 2282POPC   NC332303  31.890  44.746   9.893
 2282POPC   PO432304  32.041  44.166   9.463
 2282POPC   GL132305  32.090  44.366   9.071
 2282POPC   GL232306  32.297  44.677   9.044
 2282POPC   C1A32307  31.877  44.328   8.686
 2282POPC   D2A32308  31.930  44.436   8.259
 2282POPC   C3A32309  32.159  44.763   8.076
 2282POPC   C4A32310  32.237  44.451   7.796
 2282POPC   C1B32311  32.237  44.678   8.591
 2282POPC   C2B32312  32.473  44.423   8.276
 2282POPC   C3B32313  32.671  44.663   7.960
 2282POPC   C4B32314  32.529   0.078   7.830
 2283POPC   NC332315   0.569  26.831   9.550
 2283POPC   PO432316  44.990  26.472   9.535
 2283POPC   GL132317   0.189  26.722   9.195
 2283POPC   GL232318   0.529  26.606   9.098
 2283POPC   C1A32319   0.373  27.069   8.906
 2283POPC   D2A32320   0.629  27.075   8.498
 2283POPC   C3A32321   0.462  26.846   8.124
 2283POPC   C4A32322   0.225  26.746   7.732
 2283POPC   C1B32323   0.408  26.617   8.652
 2283POPC   C2B32324   0.487  26.337   8.309
 2283POPC   C3B32325   0.564  26.399   7.890
 2283POPC   C4B32326   0.480  26.387   7.428
 2284POPC   NC332327  25.193   0.905   9.507
 2284POPC   PO432328  25.221   1.533   9.313
 2284POPC   GL132329  25.202   1.193   9.075
 2284POPC   GL232330  25.513   1.027   9.138
 2284POPC   C1A32331  25.075   1.214   8.666
 2284POPC   D2A32332  25.204   1.417   8.316
 2284POPC   C3A32333  25.070   1.333   7.918
 2284POPC   C4A32334  24.956   1.311   7.505
 2284POPC   C1B32335  25.457   0.900   8.733
 2284POPC   C2B32336  25.604   1.087   8.369
 2284POPC   C3B32337  25.434   1.007   8.042
 2284POPC   C4B32338  25.370   0.990   7.650
 2285POPC   NC332339  26.461  34.833   9.430
 2285POPC   PO432340  26.892  34.364   9.563
 2285POPC   GL132341  26.854  34.523   9.143
 2285POPC   GL232342  26.930  34.859   9.210
 2285POPC   C1A32343  26.729  34.471   8.681
 2285POPC   D2A32344  26.589  34.529   8.275
 2285POPC   C3A32345  26.550  34.320   7.903
 2285POPC   C4A32346  26.612  34.651   7.638
 2285POPC   C1B32347  26.669  34.949   8.829
 2285POPC   C2B32348  26.630  35.044   8.402
 2285POPC   C3B32349  26.782  34.943   8.019
 2285POPC   C4B32350  26.865  35.109   7.620
 2286POPC   NC332351  20.766  27.352   9.363
 2286POPC   PO432352  20.382  27.887   9.425
 2286POPC   GL132353  20.510  27.718   9.077
 2286POPC   GL232354  20.867  27.737   9.054
 2286POPC   C1A32355  20.466  27.461   8.719
 2286POPC   D2A32356  20.614  27.401   8.308
 2286POPC   C3A32357  20.381  27.532   7.891
 2286POPC   C4A32358  20.405  27.395   7.442
 2286POPC   C1B32359  20.980  27.607   8.653
 2286POPC   C2B32360  20.926  27.835   8.258
 2286POPC   C3B32361  20.906  27.539   7.925
 2286POPC   C4B32362  20.928  27.372   7.522
 2287POPC   NC332363  21.653   1.391   9.541
 2287POPC   PO432364  21.101   1.076   9.697
 2287POPC   GL132365  21.030   1.153   9.242
 2287POPC   GL232366  21.378   1.080   9.180
 2287POPC   C1A32367  21.247   1.384   8.823
 2287POPC   D2A32368  21.496   1.324   8.459
 2287POPC   C3A32369  21.339   1.392   8.048
 2287POPC   C4A32370  21.534   1.048   7.800
 2287POPC   C1B32371  21.079   0.882   8.832
 2287POPC   C2B32372  20.880   0.917   8.427
 2287POPC   C3B32373  21.053   0.974   8.038
 2287POPC   C4B32374  21.063   1.180   7.667
 2288POPC   NC332375  22.328  30.822   9.487
 2288POPC   PO432376  21.863  30.343   9.525
 2288POPC   GL132377  21.936  30.621   9.186
 2288POPC   GL232378  22.289  30.636   9.032
 2288POPC   C1A32379  21.913  30.815   8.768
 2288POPC   D2A32380  22.172  30.805   8.393
 2288POPC   C3A32381  21.972  30.901   7.990
 2288POPC   C4A32382  22.032  30.720   7.578
 2288POPC   C1B32383  22.450  30.432   8.703
 2288POPC   C2B32384  22.540  30.455   8.286
 2288POPC   C3B32385  22.373  30.589   7.940
 2288POPC   C4B32386  22.328  30.304   7.648
 2289POPC   NC332387  35.286  14.533   9.554
 2289POPC   PO432388  35.016  13.997   9.235
 2289POPC   GL132389  35.270  14.312   9.098
 2289POPC   GL232390  35.103  14.608   9.091
 2289POPC   C1A32391  35.544  14.291   8.738
 2289POPC   D2A32392  35.645  14.538   8.388
 2289POPC   C3A32393  35.479  14.588   8.025
 2289POPC   C4A32394  35.483  14.216   7.798
 2289POPC   C1B32395  35.055  14.339   8.655
 2289POPC   C2B32396  35.097  14.328   8.221
 2289POPC   C3B32397  34.971  14.106   7.883
 2289POPC   C4B32398  34.784  14.217   7.520
 2290POPC   NC332399  19.237  20.729   9.533
 2290POPC   PO432400  18.913  20.134   9.546
 2290POPC   GL132401  19.095  20.372   9.185
 2290POPC   GL232402  19.460  20.322   9.210
 2290POPC   C1A32403  18.976  20.617   8.792
 2290POPC   D2A32404  18.975  20.917   8.415
 2290POPC   C3A32405  18.962  20.694   8.008
 2290POPC   C4A32406  18.647  20.709   7.694
 2290POPC   C1B32407  19.352  20.270   8.757
 2290POPC   C2B32408  19.331  20.558   8.395
 2290POPC   C3B32409  19.440  20.513   7.965
 2290POPC   C4B32410  19.258  20.324   7.592
 2291POPC   NC332411  22.298  27.803   9.683
 2291POPC   PO432412  21.887  27.331   9.463
 2291POPC   GL132413  22.181  27.520   9.198
 2291POPC   GL232414  22.241  27.855   9.102
 2291POPC   C1A32415  22.069  27.493   8.772
 2291POPC   D2A32416  21.846  27.414   8.402
 2291POPC   C3A32417  21.787  27.792   8.191
 2291POPC   C4A32418  21.818  27.856   7.770
 2291POPC   C1B32419  22.477  27.813   8.726
 2291POPC   C2B32420  22.305  27.688   8.343
 2291POPC   C3B32421  22.238  27.626   7.933
 2291POPC   C4B32422  22.471  27.917   7.704
 2292POPC   NC332423   2.245   1.562   9.353
 2292POPC   PO432424   2.104   0.974   9.736
 2292POPC   GL132425   1.912   1.005   9.279
 2292POPC   GL232426   1.817   1.342   9.152
 2292POPC   C1A32427   1.869   1.025   8.788
 2292POPC   D2A32428   2.175   1.159   8.491
 2292POPC   C3A32429   1.983   1.128   8.091
 2292POPC   C4A32430   2.065   0.913   7.683
 2292POPC   C1B32431   1.942   1.544   8.742
 2292POPC   C2B32432   2.086   1.622   8.316
 2292POPC   C3B32433   1.753   1.628   8.020
 2292POPC   C4B32434   1.737   1.308   7.686
 2293POPC   NC332435  35.889  35.129   9.634
 2293POPC   PO432436  36.556  35.374   9.550
 2293POPC   GL132437  36.445  35.358   9.140
 2293POPC   GL232438  36.070  35.353   9.110
 2293POPC   C1A32439  36.424  35.435   8.714
 2293POPC   D2A32440  36.158  35.472   8.385
 2293POPC   C3A32441  36.341  35.354   8.004
 2293POPC   C4A32442  36.377  35.507   7.573
 2293POPC   C1B32443  35.897  35.186   8.716
 2293POPC   C2B32444  35.756  35.156   8.311
 2293POPC   C3B32445  35.779  35.397   7.981
 2293POPC   C4B32446  35.942  35.107   7.769
 2294POPC   NC332447  36.505  41.668   9.396
 2294POPC   PO432448  36.954  41.141   9.521
 2294POPC   GL132449  37.141  41.436   9.187
 2294POPC   GL232450  36.818  41.477   9.062
 2294POPC   C1A32451  37.157  41.723   8.806
 2294POPC   D2A32452  36.871  41.618   8.467
 2294POPC   C3A32453  37.088  41.604   8.082
 2294POPC   C4A32454  37.081  41.884   7.761
 2294POPC   C1B32455  36.651  41.215   8.806
 2294POPC   C2B32456  36.612  41.178   8.389
 2294POPC   C3B32457  36.701  41.280   7.990
 2294POPC   C4B32458  36.784  41.518   7.599
 2295POPC   NC332459  36.558  37.778   9.507
 2295POPC   PO432460  37.221  37.492   9.559
 2295POPC   GL132461  37.028  37.707   9.228
 2295POPC   GL232462  36.742  37.476   9.148
 2295POPC   C1A32463  37.081  37.960   8.852
 2295POPC   D2A32464  36.895  37.960   8.440
 2295POPC   C3A32465  37.058  37.821   8.088
 2295POPC   C4A32466  37.137  38.007   7.689
 2295POPC   C1B32467  36.692  37.641   8.795
 2295POPC   C2B32468  36.573  37.585   8.387
 2295POPC   C3B32469  36.475  37.895   8.091
 2295POPC   C4B32470  36.687  37.738   7.759
 2296POPC   NC332471  38.829  32.395   9.570
 2296POPC   PO432472  38.460  31.819   9.475
 2296POPC   GL132473  38.433  32.129   9.123
 2296POPC   GL232474  38.627  32.424   9.112
 2296POPC   C1A32475  38.489  32.193   8.671
 2296POPC   D2A32476  38.473  32.050   8.245
 2296POPC   C3A32477  38.316  32.234   7.872
 2296POPC   C4A32478  38.505  32.193   7.456
 2296POPC   C1B32479  38.876  32.536   8.771
 2296POPC   C2B32480  38.905  32.308   8.394
 2296POPC   C3B32481  38.760  32.437   8.032
 2296POPC   C4B32482  38.784  32.574   7.626
 2297POPC   NC332483  40.451  41.676   9.555
 2297POPC   PO432484  40.964  41.131   9.484
 2297POPC   GL132485  40.774  41.460   9.162
 2297POPC   GL232486  40.554  41.770   9.074
 2297POPC   C1A32487  40.924  41.493   8.738
 2297POPC   D2A32488  41.086  41.192   8.412
 2297POPC   C3A32489  40.866  41.293   8.033
 2297POPC   C4A32490  40.883  41.630   7.730
 2297POPC   C1B32491  40.456  41.673   8.669
 2297POPC   C2B32492  40.457  41.611   8.233
 2297POPC   C3B32493  40.457  41.891   7.887
 2297POPC   C4B32494  40.400  41.843   7.424
 2298POPC   NC332495  36.265   1.556   9.531
 2298POPC   PO432496  35.843   1.014   9.482
 2298POPC   GL132497  36.184   1.162   9.191
 2298POPC   GL232498  35.998   1.440   9.113
 2298POPC   C1A32499  36.403   1.076   8.804
 2298POPC   D2A32500  36.184   1.114   8.397
 2298POPC   C3A32501  36.346   1.221   8.007
 2298POPC   C4A32502  36.221   0.977   7.651
 2298POPC   C1B32503  36.137   1.518   8.697
 2298POPC   C2B32504  36.075   1.607   8.223
 2298POPC   C3B32505  35.925   1.407   7.781
 2298POPC   C4B32506  36.023   1.529   7.329
 2299POPC   NC332507  34.298  34.802   9.444
 2299POPC   PO432508  34.732  34.318   9.490
 2299POPC   GL132509  34.498  34.490   9.097
 2299POPC   GL232510  34.531  34.872   9.021
 2299POPC   C1A32511  34.423  34.576   8.638
 2299POPC   D2A32512  34.224  34.271   8.366
 2299POPC   C3A32513  34.341  34.387   7.960
 2299POPC   C4A32514  34.365  34.630   7.591
 2299POPC   C1B32515  34.854  34.957   8.764
 2299POPC   C2B32516  34.968  34.781   8.396
 2299POPC   C3B32517  35.025  34.794   7.980
 2299POPC   C4B32518  34.846  34.556   7.706
 2300POPC   NC332519  39.821  13.927   9.522
 2300POPC   PO432520  39.791  14.537   9.864
 2300POPC   GL132521  39.958  14.486   9.372
 2300POPC   GL232522  40.124  14.210   9.201
 2300POPC   C1A32523  39.934  14.535   8.865
 2300POPC   D2A32524  39.862  14.338   8.427
 2300POPC   C3A32525  39.996  14.494   7.986
 2300POPC   C4A32526  40.270  14.744   7.732
 2300POPC   C1B32527  40.083  13.985   8.816
 2300POPC   C2B32528  40.065  13.835   8.391
 2300POPC   C3B32529  40.056  13.981   7.943
 2300POPC   C4B32530  40.079  14.015   7.471
 2301POPC   NC332531   5.844  39.380   9.638
 2301POPC   PO432532   6.295  38.843   9.520
 2301POPC   GL132533   6.022  39.110   9.231
 2301POPC   GL232534   5.658  39.120   9.238
 2301POPC   C1A32535   5.959  39.382   8.874
 2301POPC   D2A32536   6.077  39.318   8.438
 2301POPC   C3A32537   5.908  39.457   8.042
 2301POPC   C4A32538   5.974  39.284   7.626
 2301POPC   C1B32539   5.662  38.972   8.782
 2301POPC   C2B32540   5.638  39.050   8.329
 2301POPC   C3B32541   5.558  39.119   7.893
 2301POPC   C4B32542   5.554  39.122   7.402
 2302POPC   NC332543  27.261  41.470   9.565
 2302POPC   PO432544  27.662  41.893   9.695
 2302POPC   GL132545  27.600  41.675   9.253
 2302POPC   GL232546  27.286  41.803   9.170
 2302POPC   C1A32547  27.762  41.565   8.804
 2302POPC   D2A32548  27.901  41.706   8.373
 2302POPC   C3A32549  27.727  41.502   7.998
 2302POPC   C4A32550  27.659  41.658   7.548
 2302POPC   C1B32551  27.272  41.713   8.779
 2302POPC   C2B32552  27.394  41.540   8.404
 2302POPC   C3B32553  27.235  41.346   8.062
 2302POPC   C4B32554  27.217  41.432   7.649
 2303POPC   NC332555  43.404  22.621   9.462
 2303POPC   PO432556  42.765  22.787   9.221
 2303POPC   GL132557  43.138  22.830   9.080
 2303POPC   GL232558  43.291  23.093   9.182
 2303POPC   C1A32559  43.300  22.738   8.711
 2303POPC   D2A32560  43.200  22.857   8.340
 2303POPC   C3A32561  43.058  22.614   8.074
 2303POPC   C4A32562  43.082  22.745   7.682
 2303POPC   C1B32563  43.226  23.236   8.770
 2303POPC   C2B32564  43.488  23.247   8.410
 2303POPC   C3B32565  43.304  23.199   7.969
 2303POPC   C4B32566  43.591  23.182   7.631
 2304POPC   NC332567   6.907  37.359   9.591
 2304POPC   PO432568   6.413  36.996   9.431
 2304POPC   GL132569   6.685  37.171   9.153
 2304POPC   GL232570   6.932  36.911   9.153
 2304POPC   C1A32571   6.806  37.214   8.725
 2304POPC   D2A32572   6.651  36.941   8.399
 2304POPC   C3A32573   6.740  37.129   8.018
 2304POPC   C4A32574   6.547  37.052   7.651
 2304POPC   C1B32575   6.999  36.723   8.736
 2304POPC   C2B32576   7.016  36.519   8.309
 2304POPC   C3B32577   6.725  36.598   7.978
 2304POPC   C4B32578   6.279  36.665   7.837
 2305POPC   NC332579  14.951   6.329   9.325
 2305POPC   PO432580  15.545   6.648   9.466
 2305POPC   GL132581  15.364   6.841   9.094
 2305POPC   GL232582  14.991   6.817   9.071
 2305POPC   C1A32583  15.442   6.966   8.682
 2305POPC   D2A32584  15.423   6.708   8.318
 2305POPC   C3A32585  15.445   6.911   7.907
 2305POPC   C4A32586  15.316   6.717   7.504
 2305POPC   C1B32587  15.127   6.518   8.728
 2305POPC   C2B32588  14.887   6.393   8.360
 2305POPC   C3B32589  15.006   6.640   8.007
 2305POPC   C4B32590  14.826   6.747   7.645
 2306POPC   NC332591   0.788  16.944   9.349
 2306POPC   PO432592   0.281  16.518   9.564
 2306POPC   GL132593   0.478  16.567   9.197
 2306POPC   GL232594   0.447  16.215   9.158
 2306POPC   C1A32595   0.516  16.826   8.783
 2306POPC   D2A32596   0.253  16.808   8.387
 2306POPC   C3A32597   0.422  16.999   8.009
 2306POPC   C4A32598   0.557  16.816   7.647
 2306POPC   C1B32599   0.195  16.454   8.805
 2306POPC   C2B32600   0.516  16.368   8.474
 2306POPC   C3B32601   0.551  16.486   8.048
 2306POPC   C4B32602   0.469  16.333   7.637
 2307POPC   NC332603   7.973  18.714   9.441
 2307POPC   PO432604   8.191  18.009   9.509
 2307POPC   GL132605   8.022  18.174   9.097
 2307POPC   GL232606   8.152  18.502   8.994
 2307POPC   C1A32607   7.948  18.103   8.637
 2307POPC   D2A32608   7.767  17.992   8.227
 2307POPC   C3A32609   7.955  18.193   7.897
 2307POPC   C4A32610   8.374  18.269   7.767
 2307POPC   C1B32611   8.371  18.411   8.595
 2307POPC   C2B32612   8.529  18.519   8.184
 2307POPC   C3B32613   8.401  18.793   7.823
 2307POPC   C4B32614   8.344  18.649   7.383
 2308POPC   NC332615  42.650  42.857   9.538
 2308POPC   PO432616  42.166  43.398   9.549
 2308POPC   GL132617  42.322  43.115   9.245
 2308POPC   GL232618  42.687  43.173   9.154
 2308POPC   C1A32619  42.131  42.980   8.886
 2308POPC   D2A32620  42.149  43.071   8.465
 2308POPC   C3A32621  42.267  42.919   8.060
 2308POPC   C4A32622  42.127  43.095   7.673
 2308POPC   C1B32623  42.655  42.954   8.778
 2308POPC   C2B32624  42.650  43.139   8.401
 2308POPC   C3B32625  42.780  43.097   8.031
 2308POPC   C4B32626  42.626  43.034   7.678
 2309POPC   NC332627  22.683  28.259   9.320
 2309POPC   PO432628  23.135  28.666   9.606
 2309POPC   GL132629  23.177  28.524   9.168
 2309POPC   GL232630  23.214  28.178   9.071
 2309POPC   C1A32631  23.144  28.578   8.733
 2309POPC   D2A32632  23.097  28.410   8.318
 2309POPC   C3A32633  23.116  28.674   7.947
 2309POPC   C4A32634  22.896  28.669   7.527
 2309POPC   C1B32635  22.871  28.145   8.711
 2309POPC   C2B32636  22.633  28.168   8.299
 2309POPC   C3B32637  22.857  28.210   7.901
 2309POPC   C4B32638  22.984  27.901   7.633
 2310POPC   NC332639  30.840  15.540   9.432
 2310POPC   PO432640  30.529  16.151   9.474
 2310POPC   GL132641  30.606  15.916   9.148
 2310POPC   GL232642  30.938  15.932   9.125
 2310POPC   C1A32643  30.645  16.087   8.744
 2310POPC   D2A32644  30.579  16.014   8.341
 2310POPC   C3A32645  30.370  16.227   8.055
 2310POPC   C4A32646  30.423  15.954   7.748
 2310POPC   C1B32647  30.942  15.676   8.774
 2310POPC   C2B32648  31.066  15.883   8.401
 2310POPC   C3B32649  30.918  16.031   7.955
 2310POPC   C4B32650  30.865  15.964   7.496
 2311POPC   NC332651  16.934  44.883   9.759
 2311POPC   PO432652  16.523   0.401   9.566
 2311POPC   GL132653  16.757   0.442   9.209
 2311POPC   GL232654  16.496   0.217   9.056
 2311POPC   C1A32655  16.960   0.154   8.894
 2311POPC   D2A32656  16.720   0.026   8.522
 2311POPC   C3A32657  16.761   0.281   8.144
 2311POPC   C4A32658  16.892   0.463   7.770
 2311POPC   C1B32659  16.575   0.507   8.697
 2311POPC   C2B32660  16.352   0.663   8.309
 2311POPC   C3B32661  16.406   0.556   7.878
 2311POPC   C4B32662  16.438   0.165   7.633
 2312POPC   NC332663  42.205  41.188   9.444
 2312POPC   PO432664  42.540  41.700   9.508
 2312POPC   GL132665  42.364  41.635   9.090
 2312POPC   GL232666  42.361  41.298   8.992
 2312POPC   C1A32667  42.576  41.619   8.665
 2312POPC   D2A32668  42.750  41.699   8.248
 2312POPC   C3A32669  42.413  41.839   7.938
 2312POPC   C4A32670  42.251  41.791   7.496
 2312POPC   C1B32671  42.129  41.345   8.613
 2312POPC   C2B32672  42.300  41.432   8.228
 2312POPC   C3B32673  42.258  41.372   7.795
 2312POPC   C4B32674  41.979  41.073   7.659
 2313POPC   NC332675   2.771  44.425   9.425
 2313POPC   PO432676   2.392   0.043   9.514
 2313POPC   GL132677   2.657  44.857   9.168
 2313POPC   GL232678   2.988  44.987   9.031
 2313POPC   C1A32679   2.594  44.922   8.735
 2313POPC   D2A32680   2.419  44.969   8.323
 2313POPC   C3A32681   2.562  44.616   8.113
 2313POPC   C4A32682   2.684  44.601   7.706
 2313POPC   C1B32683   2.945  44.547   8.812
 2313POPC   C2B32684   2.944  44.353   8.395
 2313POPC   C3B32685   3.072  44.613   8.043
 2313POPC   C4B32686   3.193  44.493   7.639
 2314POPC   NC332687  33.566  11.198   9.566
 2314POPC   PO432688  34.246  11.154   9.480
 2314POPC   GL132689  33.896  11.049   9.188
 2314POPC   GL232690  33.511  10.906   9.166
 2314POPC   C1A32691  33.842  11.210   8.792
 2314POPC   D2A32692  34.036  11.439   8.473
 2314POPC   C3A32693  33.830  11.449   8.082
 2314POPC   C4A32694  33.978  11.099   7.868
 2314POPC   C1B32695  33.376  10.965   8.761
 2314POPC   C2B32696  33.534  11.139   8.388
 2314POPC   C3B32697  33.423  11.008   8.002
 2314POPC   C4B32698  33.529  11.263   7.701
 2315POPC   NC332699  33.786  10.115   9.566
 2315POPC   PO432700  33.578  10.750   9.679
 2315POPC   GL132701  33.843  10.550   9.293
 2315POPC   GL232702  33.622  10.323   9.143
 2315POPC   C1A32703  33.829  10.695   8.815
 2315POPC   D2A32704  33.968  10.859   8.394
 2315POPC   C3A32705  33.805  10.653   8.003
 2315POPC   C4A32706  33.847  10.755   7.514
 2315POPC   C1B32707  33.895  10.202   8.829
 2315POPC   C2B32708  33.836  10.333   8.430
 2315POPC   C3B32709  33.782  10.135   8.060
 2315POPC   C4B32710  33.765  10.262   7.663
 2316POPC   NC332711  27.582  36.348   9.497
 2316POPC   PO432712  27.045  35.868   9.538
 2316POPC   GL132713  27.473  35.900   9.254
 2316POPC   GL232714  27.556  36.221   9.021
 2316POPC   C1A32715  27.643  35.792   8.815
 2316POPC   D2A32716  27.546  36.090   8.467
 2316POPC   C3A32717  27.669  35.972   8.022
 2316POPC   C4A32718  27.817  36.024   7.576
 2316POPC   C1B32719  27.934  36.306   8.758
 2316POPC   C2B32720  27.991  36.281   8.294
 2316POPC   C3B32721  27.909  36.434   7.846
 2316POPC   C4B32722  27.955  36.448   7.344
 2317POPC   NC332723  11.456   8.424   9.503
 2317POPC   PO432724  10.980   7.970   9.538
 2317POPC   GL132725  11.236   8.109   9.161
 2317POPC   GL232726  11.570   8.309   9.045
 2317POPC   C1A32727  11.325   8.012   8.726
 2317POPC   D2A32728  11.180   8.257   8.391
 2317POPC   C3A32729  11.342   8.051   8.054
 2317POPC   C4A32730  11.251   7.790   7.691
 2317POPC   C1B32731  11.763   8.568   8.727
 2317POPC   C2B32732  11.708   8.627   8.290
 2317POPC   C3B32733  11.510   8.554   7.889
 2317POPC   C4B32734  11.409   8.494   7.425
 2318POPC   NC332735  23.997  17.042   9.429
 2318POPC   PO432736  23.831  16.371   9.444
 2318POPC   GL132737  23.721  16.452   9.077
 2318POPC   GL232738  23.656  16.791   9.103
 2318POPC   C1A32739  23.798  16.405   8.672
 2318POPC   D2A32740  23.558  16.524   8.309
 2318POPC   C3A32741  23.719  16.490   7.882
 2318POPC   C4A32742  23.928  16.744   7.563
 2318POPC   C1B32743  23.788  16.907   8.691
 2318POPC   C2B32744  23.675  17.087   8.265
 2318POPC   C3B32745  23.842  17.214   7.852
 2318POPC   C4B32746  23.865  17.216   7.401
 2319POPC   NC332747  33.452  35.658   9.439
 2319POPC   PO432748  33.939  35.128   9.425
 2319POPC   GL132749  33.777  35.413   9.118
 2319POPC   GL232750  34.040  35.485   8.881
 2319POPC   C1A32751  33.604  35.709   8.801
 2319POPC   D2A32752  33.793  35.852   8.426
 2319POPC   C3A32753  33.899  35.523   8.117
 2319POPC   C4A32754  33.610  35.576   7.786
 2319POPC   C1B32755  33.727  35.213   8.650
 2319POPC   C2B32756  33.634  35.077   8.227
 2319POPC   C3B32757  33.836  35.068   7.842
 2319POPC   C4B32758  34.212  35.162   7.690
 2320POPC   NC332759   2.529  13.903   9.445
 2320POPC   PO432760   2.546  13.259   9.739
 2320POPC   GL132761   2.754  13.419   9.296
 2320POPC   GL232762   2.552  13.552   9.058
 2320POPC   C1A32763   2.969  13.599   8.813
 2320POPC   D2A32764   3.002  13.703   8.320
 2320POPC   C3A32765   2.849  13.424   7.951
 2320POPC   C4A32766   2.781  13.394   7.455
 2320POPC   C1B32767   2.469  13.725   8.688
 2320POPC   C2B32768   2.551  13.976   8.361
 2320POPC   C3B32769   2.576  13.844   7.995
 2320POPC   C4B32770   2.394  13.558   7.725
 2321POPC   NC332771   4.920  28.380   9.449
 2321POPC   PO432772   5.582  28.234   9.507
 2321POPC   GL132773   5.353  28.484   9.199
 2321POPC   GL232774   5.180  28.817   9.251
 2321POPC   C1A32775   5.046  28.474   8.823
 2321POPC   D2A32776   4.982  28.148   8.509
 2321POPC   C3A32777   5.197  28.160   8.131
 2321POPC   C4A32778   4.970  28.347   7.822
 2321POPC   C1B32779   5.418  28.822   8.846
 2321POPC   C2B32780   5.301  28.704   8.405
 2321POPC   C3B32781   5.356  28.643   7.940
 2321POPC   C4B32782   5.105  28.704   7.516
 2322POPC   NC332783  36.799   3.061   9.431
 2322POPC   PO432784  37.265   2.538   9.497
 2322POPC   GL132785  37.087   2.676   9.138
 2322POPC   GL232786  36.748   2.688   9.109
 2322POPC   C1A32787  37.014   2.485   8.745
 2322POPC   D2A32788  37.038   2.686   8.346
 2322POPC   C3A32789  36.993   3.010   8.065
 2322POPC   C4A32790  37.107   2.836   7.701
 2322POPC   C1B32791  36.768   2.922   8.730
 2322POPC   C2B32792  36.568   3.054   8.338
 2322POPC   C3B32793  36.399   2.870   7.989
 2322POPC   C4B32794  36.617   2.913   7.627
 2323POPC   NC332795  10.670  38.073   9.309
 2323POPC   PO432796  10.725  38.778   9.495
 2323POPC   GL132797  10.614  38.541   9.121
 2323POPC   GL232798  10.296  38.357   9.094
 2323POPC   C1A32799  10.626  38.398   8.714
 2323POPC   D2A32800  10.375  38.447   8.378
 2323POPC   C3A32801  10.704  38.407   8.094
 2323POPC   C4A32802  10.888  38.108   7.826
 2323POPC   C1B32803  10.178  38.717   8.828
 2323POPC   C2B32804  10.063  38.853   8.424
 2323POPC   C3B32805  10.284  38.781   7.993
 2323POPC   C4B32806  10.421  38.452   7.697
 2324POPC   NC332807  13.953  15.751   9.517
 2324POPC   PO432808  13.550  16.388   9.511
 2324POPC   GL132809  13.542  16.120   9.138
 2324POPC   GL232810  13.519  15.772   9.225
 2324POPC   C1A32811  13.825  15.952   8.820
 2324POPC   D2A32812  13.868  15.837   8.385
 2324POPC   C3A32813  13.819  16.174   8.087
 2324POPC   C4A32814  13.789  16.068   7.665
 2324POPC   C1B32815  13.401  15.643   8.822
 2324POPC   C2B32816  13.357  15.781   8.377
 2324POPC   C3B32817  13.533  15.737   7.942
 2324POPC   C4B32818  13.388  15.787   7.466
 2325POPC   NC332819   2.413  36.974   9.564
 2325POPC   PO432820   3.095  36.779   9.521
 2325POPC   GL132821   2.891  36.942   9.101
 2325POPC   GL232822   2.544  37.090   9.086
 2325POPC   C1A32823   2.948  36.851   8.633
 2325POPC   D2A32824   2.959  36.525   8.265
 2325POPC   C3A32825   3.125  36.671   7.833
 2325POPC   C4A32826   3.049  36.440   7.412
 2325POPC   C1B32827   2.466  36.718   8.868
 2325POPC   C2B32828   2.503  36.663   8.436
 2325POPC   C3B32829   2.645  36.859   8.042
 2325POPC   C4B32830   2.530  37.212   7.783
 2326POPC   NC332831  14.214  40.678   9.483
 2326POPC   PO432832  13.945  41.251   9.445
 2326POPC   GL132833  14.174  41.068   9.121
 2326POPC   GL232834  14.503  40.893   9.135
 2326POPC   C1A32835  14.124  40.780   8.817
 2326POPC   D2A32836  14.350  40.683   8.463
 2326POPC   C3A32837  14.207  40.775   8.047
 2326POPC   C4A32838  14.428  40.500   7.819
 2326POPC   C1B32839  14.526  41.091   8.724
 2326POPC   C2B32840  14.420  41.177   8.265
 2326POPC   C3B32841  14.511  41.102   7.797
 2326POPC   C4B32842  14.432  41.270   7.347
 2327POPC   NC332843  25.301  32.563   9.429
 2327POPC   PO432844  24.955  31.944   9.487
 2327POPC   GL132845  25.144  32.151   9.127
 2327POPC   GL232846  25.039  32.487   8.995
 2327POPC   C1A32847  25.347  32.148   8.719
 2327POPC   D2A32848  25.551  32.027   8.333
 2327POPC   C3A32849  25.211  31.993   8.046
 2327POPC   C4A32850  25.164  31.960   7.586
 2327POPC   C1B32851  25.336  32.668   8.726
 2327POPC   C2B32852  25.356  32.503   8.324
 2327POPC   C3B32853  25.246  32.499   7.938
 2327POPC   C4B32854  24.907  32.388   7.703
 2328POPC   NC332855  20.727  43.384   9.822
 2328POPC   PO432856  20.463  42.808   9.638
 2328POPC   GL132857  20.456  42.907   9.209
 2328POPC   GL232858  20.550  43.185   9.095
 2328POPC   C1A32859  20.678  42.748   8.845
 2328POPC   D2A32860  20.639  42.934   8.442
 2328POPC   C3A32861  20.754  42.789   8.041
 2328POPC   C4A32862  20.785  43.041   7.657
 2328POPC   C1B32863  20.638  43.411   8.717
 2328POPC   C2B32864  20.839  43.384   8.346
 2328POPC   C3B32865  20.637  43.404   7.990
 2328POPC   C4B32866  20.603  43.572   7.597
 2329POPC   NC332867  44.331  20.149   9.612
 2329POPC   PO432868  44.859  19.686   9.595
 2329POPC   GL132869  44.740  19.853   9.208
 2329POPC   GL232870  44.368  19.817   9.218
 2329POPC   C1A32871  44.620  19.675   8.809
 2329POPC   D2A32872  44.457  19.821   8.428
 2329POPC   C3A32873  44.761  19.962   8.185
 2329POPC   C4A32874   0.036  19.925   7.840
 2329POPC   C1B32875  44.366  20.134   8.886
 2329POPC   C2B32876  44.345  20.357   8.487
 2329POPC   C3B32877  44.343  20.236   8.044
 2329POPC   C4B32878  44.507  19.944   7.724
 2330POPC   NC332879   5.680   7.406   9.489
 2330POPC   PO432880   6.351   7.600   9.592
 2330POPC   GL132881   6.121   7.564   9.171
 2330POPC   GL232882   5.902   7.282   9.059
 2330POPC   C1A32883   6.128   7.518   8.684
 2330POPC   D2A32884   5.975   7.228   8.349
 2330POPC   C3A32885   5.880   7.425   7.997
 2330POPC   C4A32886   5.624   7.366   7.658
 2330POPC   C1B32887   5.624   7.349   8.699
 2330POPC   C2B32888   5.558   7.663   8.376
 2330POPC   C3B32889   5.437   7.730   7.956
 2330POPC   C4B32890   5.415   7.855   7.493
 2331POPC   NC332891  22.512   5.732   9.473
 2331POPC   PO432892  21.841   5.629   9.482
 2331POPC   GL132893  21.824   5.670   9.066
 2331POPC   GL232894  21.919   6.001   9.133
 2331POPC   C1A32895  21.967   5.734   8.637
 2331POPC   D2A32896  22.386   5.784   8.432
 2331POPC   C3A32897  22.275   5.890   8.036
 2331POPC   C4A32898  21.887   5.670   7.986
 2331POPC   C1B32899  21.949   6.238   8.777
 2331POPC   C2B32900  22.090   6.216   8.393
 2331POPC   C3B32901  22.081   6.479   8.076
 2331POPC   C4B32902  21.888   6.443   7.681
 2332POPC   NC332903  24.279  15.164   9.364
 2332POPC   PO432904  24.379  15.839   9.417
 2332POPC   GL132905  24.410  15.581   9.059
 2332POPC   GL232906  24.701  15.393   9.157
 2332POPC   C1A32907  24.355  15.247   8.714
 2332POPC   D2A32908  24.242  15.000   8.331
 2332POPC   C3A32909  24.307  15.173   7.927
 2332POPC   C4A32910  24.366  15.530   7.716
 2332POPC   C1B32911  24.837  15.100   8.851
 2332POPC   C2B32912  24.707  14.891   8.514
 2332POPC   C3B32913  24.729  14.904   8.095
 2332POPC   C4B32914  24.777  14.717   7.724
 2333POPC   NC332915  33.335  16.604   9.444
 2333POPC   PO432916  33.997  16.921   9.522
 2333POPC   GL132917  33.738  16.805   9.212
 2333POPC   GL232918  33.527  17.058   9.339
 2333POPC   C1A32919  33.636  16.613   8.812
 2333POPC   D2A32920  33.606  16.615   8.355
 2333POPC   C3A32921  33.849  16.665   7.985
 2333POPC   C4A32922  33.633  16.431   7.654
 2333POPC   C1B32923  33.467  17.099   8.901
 2333POPC   C2B32924  33.527  17.112   8.486
 2333POPC   C3B32925  33.578  17.158   8.065
 2333POPC   C4B32926  33.514  16.926   7.702
 2334POPC   NC332927  10.165  24.833   9.570
 2334POPC   PO432928   9.620  24.657   9.516
 2334POPC   GL132929   9.908  24.625   9.163
 2334POPC   GL232930   9.893  24.968   9.099
 2334POPC   C1A32931  10.072  24.646   8.734
 2334POPC   D2A32932  10.275  24.528   8.333
 2334POPC   C3A32933   9.924  24.416   8.063
 2334POPC   C4A32934   9.881  24.336   7.627
 2334POPC   C1B32935   9.639  24.926   8.698
 2334POPC   C2B32936   9.598  24.742   8.280
 2334POPC   C3B32937   9.528  24.781   7.828
 2334POPC   C4B32938   9.498  25.156   7.585
 2335POPC   NC332939  34.867  26.577   9.464
 2335POPC   PO432940  34.413  27.039   9.380
 2335POPC   GL132941  34.461  26.646   9.139
 2335POPC   GL232942  34.164  26.512   9.033
 2335POPC   C1A32943  34.578  26.589   8.703
 2335POPC   D2A32944  34.806  26.822   8.389
 2335POPC   C3A32945  34.676  26.728   7.998
 2335POPC   C4A32946  34.728  26.896   7.597
 2335POPC   C1B32947  34.076  26.767   8.674
 2335POPC   C2B32948  34.219  26.822   8.240
 2335POPC   C3B32949  34.277  26.965   7.802
 2335POPC   C4B32950  34.285  26.747   7.354
 2336POPC   NC332951   2.629  15.279   9.459
 2336POPC   PO432952   2.990  14.757   9.611
 2336POPC   GL132953   2.961  14.940   9.177
 2336POPC   GL232954   2.780  15.233   8.989
 2336POPC   C1A32955   3.219  15.106   8.839
 2336POPC   D2A32956   2.984  15.311   8.515
 2336POPC   C3A32957   2.988  15.124   8.128
 2336POPC   C4A32958   2.937  15.055   7.700
 2336POPC   C1B32959   2.501  15.165   8.645
 2336POPC   C2B32960   2.325  15.253   8.259
 2336POPC   C3B32961   2.446  15.195   7.837
 2336POPC   C4B32962   2.227  15.056   7.478
 2337POPC   NC332963  27.279  42.141   9.551
 2337POPC   PO432964  27.828  42.136   9.219
 2337POPC   GL132965  27.697  42.473   8.973
 2337POPC   GL232966  27.363  42.531   9.130
 2337POPC   C1A32967  27.925  42.514   8.583
 2337POPC   D2A32968  27.798  42.238   8.256
 2337POPC   C3A32969  27.431  42.425   8.069
 2337POPC   C4A32970  27.326  42.430   7.653
 2337POPC   C1B32971  27.233  42.246   8.791
 2337POPC   C2B32972  27.342  42.042   8.387
 2337POPC   C3B32973  27.439  41.929   7.936
 2337POPC   C4B32974  27.213  41.938   7.525
 2338POPC   NC332975  31.609  29.178   9.632
 2338POPC   PO432976  32.362  29.273   9.569
 2338POPC   GL132977  32.385  29.201   9.111
 2338POPC   GL232978  32.325  28.844   8.958
 2338POPC   C1A32979  32.435  29.223   8.634
 2338POPC   D2A32980  32.066  29.231   8.386
 2338POPC   C3A32981  32.102  29.248   7.956
 2338POPC   C4A32982  32.426  29.327   7.656
 2338POPC   C1B32983  32.607  28.642   8.681
 2338POPC   C2B32984  32.623  28.799   8.296
 2338POPC   C3B32985  32.457  28.879   7.909
 2338POPC   C4B32986  32.405  28.855   7.438
 2339POPC   NC332987   5.160   7.901   9.445
 2339POPC   PO432988   4.999   7.262   9.650
 2339POPC   GL132989   4.981   7.355   9.205
 2339POPC   GL232990   4.847   7.689   9.114
 2339POPC   C1A32991   5.189   7.093   8.871
 2339POPC   D2A32992   5.409   6.927   8.490
 2339POPC   C3A32993   5.385   7.117   8.067
 2339POPC   C4A32994   5.132   7.358   7.770
 2339POPC   C1B32995   5.023   7.560   8.710
 2339POPC   C2B32996   5.046   7.471   8.267
 2339POPC   C3B32997   4.886   7.766   7.920
 2339POPC   C4B32998   4.913   7.704   7.455
 2340POPC   NC332999  43.275  36.968   9.736
 2340POPC   PO433000  42.648  36.928   9.601
 2340POPC   GL133001  42.968  37.026   9.224
 2340POPC   GL233002  43.317  36.908   9.236
 2340POPC   C1A33003  42.997  37.077   8.738
 2340POPC   D2A33004  43.070  37.314   8.324
 2340POPC   C3A33005  42.941  37.141   7.918
 2340POPC   C4A33006  42.694  36.783   7.786
 2340POPC   C1B33007  43.370  36.742   8.832
 2340POPC   C2B33008  43.415  36.886   8.415
 2340POPC   C3B33009  43.471  36.755   8.007
 2340POPC   C4B33010  43.224  36.806   7.654
 2341POPC   NC333011   5.426  10.791   9.742
 2341POPC   PO433012   4.854  10.416   9.639
 2341POPC   GL133013   5.123  10.416   9.276
 2341POPC   GL233014   5.341  10.128   9.280
 2341POPC   C1A33015   5.060  10.592   8.836
 2341POPC   D2A33016   4.853  10.330   8.522
 2341POPC   C3A33017   4.963  10.419   8.097
 2341POPC   C4A33018   4.832  10.389   7.675
 2341POPC   C1B33019   5.433  10.253   8.853
 2341POPC   C2B33020   5.380  10.413   8.419
 2341POPC   C3B33021   5.452  10.295   7.966
 2341POPC   C4B33022   5.301  10.291   7.506
 2342POPC   NC333023  14.144  41.670   9.379
 2342POPC   PO433024  13.378  41.612   9.444
 2342POPC   GL133025  13.503  41.513   9.044
 2342POPC   GL233026  13.856  41.477   8.979
 2342POPC   C1A33027  13.461  41.642   8.622
 2342POPC   D2A33028  13.209  41.755   8.296
 2342POPC   C3A33029  13.378  41.883   7.931
 2342POPC   C4A33030  13.629  41.536   7.846
 2342POPC   C1B33031  14.015  41.249   8.604
 2342POPC   C2B33032  13.918  41.213   8.142
 2342POPC   C3B33033  14.027  41.264   7.703
 2342POPC   C4B33034  13.843  41.359   7.296
 2343POPC   NC333035  20.081  34.984   9.781
 2343POPC   PO433036  19.845  35.671   9.641
 2343POPC   GL133037  19.873  35.414   9.281
 2343POPC   GL233038  20.110  35.696   9.173
 2343POPC   C1A33039  19.688  35.077   8.977
 2343POPC   D2A33040  19.612  34.857   8.544
 2343POPC   C3A33041  19.834  35.058   8.216
 2343POPC   C4A33042  19.796  35.113   7.760
 2343POPC   C1B33043  19.884  35.546   8.797
 2343POPC   C2B33044  20.082  35.467   8.402
 2343POPC   C3B33045  19.867  35.531   8.033
 2343POPC   C4B33046  19.793  35.624   7.628
 2344POPC   NC333047   4.939  34.237   9.413
 2344POPC   PO433048   5.434  34.628   9.408
 2344POPC   GL133049   5.178  34.566   9.043
 2344POPC   GL233050   4.823  34.631   9.087
 2344POPC   C1A33051   5.032  34.749   8.648
 2344POPC   D2A33052   5.227  35.047   8.420
 2344POPC   C3A33053   5.362  34.769   8.126
 2344POPC   C4A33054   5.404  34.677   7.681
 2344POPC   C1B33055   4.856  34.269   8.762
 2344POPC   C2B33056   5.183  34.305   8.431
 2344POPC   C3B33057   5.201  34.293   7.976
 2344POPC   C4B33058   4.940  34.305   7.584
 2345POPC   NC333059  10.075   7.377   9.786
 2345POPC   PO433060   9.726   7.489   9.226
 2345POPC   GL133061   9.727   7.637   8.878
 2345POPC   GL233062  10.042   7.688   8.829
 2345POPC   C1A33063   9.720   7.483   8.480
 2345POPC   D2A33064   9.744   7.562   8.089
 2345POPC   C3A33065   9.450   7.261   8.011
 2345POPC   C4A33066   9.240   7.209   7.664
 2345POPC   C1B33067  10.115   7.255   8.713
 2345POPC   C2B33068  10.065   7.017   8.357
 2345POPC   C3B33069  10.125   7.235   7.984
 2345POPC   C4B33070   9.812   7.321   7.648
 2346POPC   NC333071  21.547  16.368   9.657
 2346POPC   PO433072  21.369  17.015   9.695
 2346POPC   GL133073  21.415  16.729   9.272
 2346POPC   GL233074  21.132  16.535   9.145
 2346POPC   C1A33075  21.485  16.802   8.802
 2346POPC   D2A33076  21.312  16.962   8.377
 2346POPC   C3A33077  21.549  16.866   7.992
 2346POPC   C4A33078  21.651  17.104   7.630
 2346POPC   C1B33079  21.224  16.334   8.773
 2346POPC   C2B33080  21.440  16.451   8.406
 2346POPC   C3B33081  21.179  16.533   8.086
 2346POPC   C4B33082  21.221  16.400   7.719
 2347POPC   NC333083  38.914  41.024   9.542
 2347POPC   PO433084  39.462  40.653   9.528
 2347POPC   GL133085  39.206  40.799   9.152
 2347POPC   GL233086  38.974  41.107   9.054
 2347POPC   C1A33087  39.356  40.929   8.753
 2347POPC   D2A33088  39.387  40.747   8.344
 2347POPC   C3A33089  39.270  40.988   7.990
 2347POPC   C4A33090  39.378  40.971   7.560
 2347POPC   C1B33091  38.840  40.838   8.712
 2347POPC   C2B33092  38.881  40.675   8.290
 2347POPC   C3B33093  38.774  40.843   7.895
 2347POPC   C4B33094  38.906  40.690   7.481
 2348POPC   NC333095  24.853  44.367   9.469
 2348POPC   PO433096  25.417  44.664   9.533
 2348POPC   GL133097  25.298  44.778   9.182
 2348POPC   GL233098  25.216  44.425   9.090
 2348POPC   C1A33099  25.189  44.968   8.836
 2348POPC   D2A33100  25.077  44.817   8.483
 2348POPC   C3A33101  25.193  44.832   8.088
 2348POPC   C4A33102  25.127  44.750   7.707
 2348POPC   C1B33103  25.516  44.566   8.775
 2348POPC   C2B33104  25.721  44.396   8.435
 2348POPC   C3B33105  25.652  44.593   8.054
 2348POPC   C4B33106  25.647  44.765   7.662
 2349POPC   NC333107  17.193  17.977   9.746
 2349POPC   PO433108  17.391  18.559   9.469
 2349POPC   GL133109  17.287  18.179   9.277
 2349POPC   GL233110  17.603  18.066   9.115
 2349POPC   C1A33111  17.174  18.125   8.862
 2349POPC   D2A33112  17.414  18.192   8.508
 2349POPC   C3A33113  17.346  18.405   8.135
 2349POPC   C4A33114  17.152  18.307   7.753
 2349POPC   C1B33115  17.893  18.226   8.738
 2349POPC   C2B33116  17.859  18.095   8.269
 2349POPC   C3B33117  17.780  18.262   7.843
 2349POPC   C4B33118  17.646  18.130   7.419
 2350POPC   NC333119   6.080  27.150   9.489
 2350POPC   PO433120   6.022  26.582   9.401
 2350POPC   GL133121   5.860  26.887   9.092
 2350POPC   GL233122   6.166  27.004   9.012
 2350POPC   C1A33123   5.761  26.942   8.635
 2350POPC   D2A33124   5.571  27.145   8.245
 2350POPC   C3A33125   5.788  26.984   7.871
 2350POPC   C4A33126   6.076  26.643   7.744
 2350POPC   C1B33127   6.146  27.276   8.700
 2350POPC   C2B33128   6.078  27.224   8.293
 2350POPC   C3B33129   6.273  27.133   7.895
 2350POPC   C4B33130   6.142  27.061   7.447
 2351POPC   NC333131  24.466  32.039   9.596
 2351POPC   PO433132  24.762  32.681   9.408
 2351POPC   GL133133  24.624  32.271   9.178
 2351POPC   GL233134  24.269  32.201   9.110
 2351POPC   C1A33135  24.631  32.294   8.747
 2351POPC   D2A33136  24.848  32.531   8.449
 2351POPC   C3A33137  24.582  32.456   8.096
 2351POPC   C4A33138  24.431  32.201   7.715
 2351POPC   C1B33139  24.223  31.973   8.711
 2351POPC   C2B33140  24.251  32.034   8.246
 2351POPC   C3B33141  24.098  31.847   7.852
 2351POPC   C4B33142  24.132  31.916   7.386
 2352POPC   NC333143   2.230  40.137   9.505
 2352POPC   PO433144   1.618  39.998   9.432
 2352POPC   GL133145   1.924  40.085   9.108
 2352POPC   GL233146   2.239  39.840   9.082
 2352POPC   C1A33147   2.055  40.218   8.725
 2352POPC   D2A33148   1.796  40.060   8.393
 2352POPC   C3A33149   2.069  39.984   8.039
 2352POPC   C4A33150   2.089  40.295   7.719
 2352POPC   C1B33151   2.002  39.708   8.715
 2352POPC   C2B33152   1.866  39.548   8.292
 2352POPC   C3B33153   1.776  39.614   7.844
 2352POPC   C4B33154   2.040  39.778   7.483
 2353POPC   NC333155   3.844  13.184   9.466
 2353POPC   PO433156   3.897  13.866   9.434
 2353POPC   GL133157   3.804  13.694   9.032
 2353POPC   GL233158   3.762  13.309   8.985
 2353POPC   C1A33159   3.714  13.666   8.608
 2353POPC   D2A33160   3.788  13.630   8.192
 2353POPC   C3A33161   3.436  13.767   7.967
 2353POPC   C4A33162   3.427  13.925   7.558
 2353POPC   C1B33163   3.330  13.231   8.898
 2353POPC   C2B33164   3.197  13.203   8.497
 2353POPC   C3B33165   3.318  13.287   8.073
 2353POPC   C4B33166   3.306  13.425   7.607
 2354POPC   NC333167  43.008  41.729   9.651
 2354POPC   PO433168  43.667  41.482   9.673
 2354POPC   GL133169  43.408  41.667   9.262
 2354POPC   GL233170  43.038  41.714   9.140
 2354POPC   C1A33171  43.452  41.854   8.817
 2354POPC   D2A33172  43.281  41.843   8.373
 2354POPC   C3A33173  43.462  41.703   7.997
 2354POPC   C4A33174  43.199  41.389   7.756
 2354POPC   C1B33175  43.076  41.488   8.725
 2354POPC   C2B33176  42.861  41.207   8.424
 2354POPC   C3B33177  42.704  41.206   7.993
 2354POPC   C4B33178  42.736  41.372   7.557
 2355POPC   NC333179   0.085   1.261   9.479
 2355POPC   PO433180  44.452   1.071   9.683
 2355POPC   GL133181  44.582   1.156   9.213
 2355POPC   GL233182  44.696   1.464   9.134
 2355POPC   C1A33183  44.469   1.068   8.746
 2355POPC   D2A33184  44.316   1.041   8.282
 2355POPC   C3A33185  44.654   1.102   7.994
 2355POPC   C4A33186  44.587   1.164   7.542
 2355POPC   C1B33187  44.367   1.547   8.851
 2355POPC   C2B33188  44.463   1.530   8.396
 2355POPC   C3B33189  44.349   1.509   7.949
 2355POPC   C4B33190  44.370   1.624   7.524
 2356POPC   NC333191  24.302  32.605   9.397
 2356POPC   PO433192  24.023  33.218   9.594
 2356POPC   GL133193  24.286  33.059   9.196
 2356POPC   GL233194  24.600  33.186   9.102
 2356POPC   C1A33195  24.465  32.787   8.801
 2356POPC   D2A33196  24.564  32.962   8.393
 2356POPC   C3A33197  24.306  32.921   8.047
 2356POPC   C4A33198  24.448  32.712   7.677
 2356POPC   C1B33199  24.254  33.228   8.721
 2356POPC   C2B33200  24.234  33.517   8.379
 2356POPC   C3B33201  24.303  33.445   7.948
 2356POPC   C4B33202  24.247  33.210   7.560
 2357POPC   NC333203  29.644  42.103   9.650
 2357POPC   PO433204  29.938  41.567   9.301
 2357POPC   GL133205  30.140  41.697   8.984
 2357POPC   GL233206  30.281  41.363   8.975
 2357POPC   C1A33207  30.055  41.596   8.567
 2357POPC   D2A33208  29.707  41.433   8.362
 2357POPC   C3A33209  29.723  41.403   7.936
 2357POPC   C4A33210  29.683  41.836   7.800
 2357POPC   C1B33211  30.459  41.231   8.651
 2357POPC   C2B33212  30.214  41.190   8.299
 2357POPC   C3B33213  30.280  41.360   7.904
 2357POPC   C4B33214  30.072  41.579   7.609
 2358POPC   NC333215  44.830  32.565   9.296
 2358POPC   PO433216  44.334  32.269   9.667
 2358POPC   GL133217  44.526  32.116   9.093
 2358POPC   GL233218  44.650  32.440   8.829
 2358POPC   C1A33219  44.806  31.991   8.729
 2358POPC   D2A33220  44.764  32.242   8.330
 2358POPC   C3A33221  44.832  32.006   7.940
 2358POPC   C4A33222   0.026  32.067   7.556
 2358POPC   C1B33223   0.027  32.645   8.654
 2358POPC   C2B33224   0.204  32.527   8.259
 2358POPC   C3B33225   0.001  32.479   7.859
 2358POPC   C4B33226  44.807  32.515   7.431
 2359POPC   NC333227  15.808  15.729   9.454
 2359POPC   PO433228  15.823  15.060   9.644
 2359POPC   GL133229  15.950  15.066   9.235
 2359POPC   GL233230  16.073  15.373   9.167
 2359POPC   C1A33231  16.084  14.965   8.821
 2359POPC   D2A33232  16.003  15.168   8.430
 2359POPC   C3A33233  16.112  15.138   7.994
 2359POPC   C4A33234  15.766  15.164   7.662
 2359POPC   C1B33235  16.237  15.523   8.781
 2359POPC   C2B33236  16.111  15.665   8.372
 2359POPC   C3B33237  16.280  15.627   7.989
 2359POPC   C4B33238  16.130  15.496   7.619
 2360POPC   NC333239  26.677  26.310   9.751
 2360POPC   PO433240  27.073  25.838   9.661
 2360POPC   GL133241  26.901  26.011   9.257
 2360POPC   GL233242  26.642  26.287   9.224
 2360POPC   C1A33243  26.938  25.983   8.796
 2360POPC   D2A33244  26.715  25.981   8.389
 2360POPC   C3A33245  26.949  25.908   8.001
 2360POPC   C4A33246  27.048  25.802   7.573
 2360POPC   C1B33247  26.461  26.194   8.800
 2360POPC   C2B33248  26.245  26.260   8.385
 2360POPC   C3B33249  26.284  26.434   7.944
 2360POPC   C4B33250  26.469  26.262   7.524
 2361POPC   NC333251  41.169   4.711   9.440
 2361POPC   PO433252  41.470   5.307   9.555
 2361POPC   GL133253  41.621   5.106   9.172
 2361POPC   GL233254  41.664   4.776   9.239
 2361POPC   C1A33255  41.586   5.134   8.738
 2361POPC   D2A33256  41.799   5.201   8.365
 2361POPC   C3A33257  41.542   5.177   8.045
 2361POPC   C4A33258  41.331   5.244   7.694
 2361POPC   C1B33259  41.560   4.623   8.821
 2361POPC   C2B33260  41.475   4.773   8.387
 2361POPC   C3B33261  41.635   4.643   7.980
 2361POPC   C4B33262  41.524   4.781   7.547
 2362POPC   NC333263   3.990   2.783   9.497
 2362POPC   PO433264   4.563   2.452   9.447
 2362POPC   GL133265   4.397   2.653   9.061
 2362POPC   GL233266   4.041   2.783   8.983
 2362POPC   C1A33267   4.419   2.901   8.671
 2362POPC   D2A33268   4.175   3.146   8.356
 2362POPC   C3A33269   4.352   3.062   7.932
 2362POPC   C4A33270   4.094   2.964   7.548
 2362POPC   C1B33271   4.139   2.468   8.644
 2362POPC   C2B33272   4.202   2.651   8.254
 2362POPC   C3B33273   4.163   2.590   7.866
 2362POPC   C4B33274   4.303   2.222   7.864
 2363POPC   NC333275  16.292  31.476   9.426
 2363POPC   PO433276  15.743  31.217   9.392
 2363POPC   GL133277  15.900  31.579   9.105
 2363POPC   GL233278  16.271  31.740   8.998
 2363POPC   C1A33279  15.930  31.559   8.661
 2363POPC   D2A33280  15.727  31.307   8.336
 2363POPC   C3A33281  15.765  31.440   7.916
 2363POPC   C4A33282  16.176  31.362   7.813
 2363POPC   C1B33283  16.416  31.742   8.541
 2363POPC   C2B33284  16.092  31.740   8.200
 2363POPC   C3B33285  15.870  31.935   7.843
 2363POPC   C4B33286  15.951  31.670   7.459
 2364POPC   NC333287   4.352  14.852   9.374
 2364POPC   PO433288   4.570  15.503   9.415
 2364POPC   GL133289   4.293  15.267   9.074
 2364POPC   GL233290   4.015  14.952   9.041
 2364POPC   C1A33291   4.222  15.177   8.648
 2364POPC   D2A33292   4.373  15.411   8.357
 2364POPC   C3A33293   4.470  15.247   8.000
 2364POPC   C4A33294   4.247  15.384   7.658
 2364POPC   C1B33295   3.908  14.653   8.710
 2364POPC   C2B33296   4.002  14.680   8.260
 2364POPC   C3B33297   4.133  14.910   7.876
 2364POPC   C4B33298   4.275  14.919   7.454
 2365POPC   NC333299   5.444  32.795   9.435
 2365POPC   PO433300   4.761  32.869   9.574
 2365POPC   GL133301   5.014  32.953   9.199
 2365POPC   GL233302   5.126  32.618   9.066
 2365POPC   C1A33303   4.962  33.047   8.763
 2365POPC   D2A33304   4.880  32.874   8.378
 2365POPC   C3A33305   5.024  33.085   8.021
 2365POPC   C4A33306   4.877  32.713   7.817
 2365POPC   C1B33307   5.414  32.826   8.788
 2365POPC   C2B33308   5.393  32.923   8.388
 2365POPC   C3B33309   5.375  32.685   8.011
 2365POPC   C4B33310   5.318  32.786   7.590
 2366POPC   NC333311  28.383  31.466   9.936
 2366POPC   PO433312  28.047  30.963   9.619
 2366POPC   GL133313  28.252  31.130   9.225
 2366POPC   GL233314  28.459  31.453   9.237
 2366POPC   C1A33315  28.472  31.183   8.809
 2366POPC   D2A33316  28.617  31.340   8.411
 2366POPC   C3A33317  28.397  31.198   8.049
 2366POPC   C4A33318  28.269  31.481   7.733
 2366POPC   C1B33319  28.679  31.673   8.844
 2366POPC   C2B33320  28.876  31.782   8.429
 2366POPC   C3B33321  28.658  31.727   8.031
 2366POPC   C4B33322  28.754  31.720   7.624
 2367POPC   NC333323  19.858  22.272   9.661
 2367POPC   PO433324  19.525  21.634   9.706
 2367POPC   GL133325  19.596  21.961   9.354
 2367POPC   GL233326  19.766  22.296   9.169
 2367POPC   C1A33327  19.706  21.880   8.912
 2367POPC   D2A33328  19.627  21.921   8.476
 2367POPC   C3A33329  19.895  21.794   8.116
 2367POPC   C4A33330  19.878  21.926   7.680
 2367POPC   C1B33331  19.970  22.266   8.721
 2367POPC   C2B33332  19.898  22.297   8.259
 2367POPC   C3B33333  19.901  22.479   7.864
 2367POPC   C4B33334  19.548  22.804   7.807
 2368POPC   NC333335  20.335  35.908   9.632
 2368POPC   PO433336  20.675  35.663   9.121
 2368POPC   GL133337  20.834  36.119   9.109
 2368POPC   GL233338  20.617  36.383   9.252
 2368POPC   C1A33339  20.922  36.420   8.792
 2368POPC   D2A33340  20.714  36.485   8.390
 2368POPC   C3A33341  20.798  36.144   8.114
 2368POPC   C4A33342  20.702  35.840   7.800
 2368POPC   C1B33343  20.403  36.275   8.872
 2368POPC   C2B33344  20.260  36.138   8.464
 2368POPC   C3B33345  20.296  36.318   8.092
 2368POPC   C4B33346  20.496  36.327   7.756
 2369POPC   NC333347  39.361  24.673   9.515
 2369POPC   PO433348  38.978  24.112   9.567
 2369POPC   GL133349  39.126  24.361   9.197
 2369POPC   GL233350  39.466  24.466   9.060
 2369POPC   C1A33351  39.006  24.517   8.795
 2369POPC   D2A33352  39.060  24.474   8.347
 2369POPC   C3A33353  39.438  24.361   8.141
 2369POPC   C4A33354  39.230  24.164   7.809
 2369POPC   C1B33355  39.481  24.624   8.627
 2369POPC   C2B33356  39.393  24.879   8.268
 2369POPC   C3B33357  39.266  24.769   7.854
 2369POPC   C4B33358  39.458  24.911   7.486
 2370POPC   NC333359  16.023  42.117   9.544
 2370POPC   PO433360  15.751  42.695   9.569
 2370POPC   GL133361  16.006  42.613   9.203
 2370POPC   GL233362  16.316  42.517   9.282
 2370POPC   C1A33363  16.131  42.666   8.751
 2370POPC   D2A33364  16.008  42.449   8.359
 2370POPC   C3A33365  15.909  42.633   7.957
 2370POPC   C4A33366  15.890  42.669   7.513
 2370POPC   C1B33367  16.260  42.207   8.932
 2370POPC   C2B33368  16.153  41.995   8.530
 2370POPC   C3B33369  16.185  42.055   8.064
 2370POPC   C4B33370  16.099  41.727   7.749
 2371POPC   NC333371  12.542   5.078   9.635
 2371POPC   PO433372  12.646   5.649   9.348
 2371POPC   GL133373  12.657   5.293   9.137
 2371POPC   GL233374  12.981   5.166   9.106
 2371POPC   C1A33375  12.667   5.130   8.715
 2371POPC   D2A33376  12.921   5.054   8.356
 2371POPC   C3A33377  12.751   4.967   7.967
 2371POPC   C4A33378  12.632   5.312   7.695
 2371POPC   C1B33379  13.116   4.891   8.818
 2371POPC   C2B33380  13.261   4.711   8.442
 2371POPC   C3B33381  13.215   4.730   7.994
 2371POPC   C4B33382  13.140   4.930   7.615
 2372POPC   NC333383  20.368  31.864   9.350
 2372POPC   PO433384  20.775  32.454   9.495
 2372POPC   GL133385  20.635  32.286   9.150
 2372POPC   GL233386  20.818  31.991   9.094
 2372POPC   C1A33387  20.485  32.386   8.749
 2372POPC   D2A33388  20.667  32.553   8.380
 2372POPC   C3A33389  20.473  32.462   8.019
 2372POPC   C4A33390  20.604  32.527   7.614
 2372POPC   C1B33391  20.648  31.914   8.702
 2372POPC   C2B33392  20.557  32.033   8.301
 2372POPC   C3B33393  20.626  32.004   7.875
 2372POPC   C4B33394  20.764  31.694   7.650
 2373POPC   NC333395  31.908  34.574   9.409
 2373POPC   PO433396  32.475  34.739   9.485
 2373POPC   GL133397  32.515  34.545   9.098
 2373POPC   GL233398  32.259  34.314   9.082
 2373POPC   C1A33399  32.421  34.702   8.700
 2373POPC   D2A33400  32.201  34.699   8.326
 2373POPC   C3A33401  32.369  34.765   7.957
 2373POPC   C4A33402  32.474  34.424   7.740
 2373POPC   C1B33403  31.947  34.528   8.777
 2373POPC   C2B33404  31.781  34.449   8.369
 2373POPC   C3B33405  31.905  34.471   7.946
 2373POPC   C4B33406  31.714  34.169   7.732
 2374POPC   NC333407  44.417   4.762   9.674
 2374POPC   PO433408  44.757   5.297   9.575
 2374POPC   GL133409  44.509   5.094   9.305
 2374POPC   GL233410  44.712   4.804   9.249
 2374POPC   C1A33411  44.394   5.137   8.902
 2374POPC   D2A33412  44.585   5.066   8.501
 2374POPC   C3A33413  44.299   4.872   8.210
 2374POPC   C4A33414  44.393   5.011   7.824
 2374POPC   C1B33415  44.622   4.677   8.836
 2374POPC   C2B33416  44.670   4.562   8.415
 2374POPC   C3B33417  44.786   4.791   8.078
 2374POPC   C4B33418  44.768   4.714   7.651
 2375POPC   NC333419  34.971  38.674   9.446
 2375POPC   PO433420  34.352  38.377   9.576
 2375POPC   GL133421  34.603  38.433   9.209
 2375POPC   GL233422  34.535  38.783   9.160
 2375POPC   C1A33423  34.732  38.356   8.773
 2375POPC   D2A33424  34.568  38.437   8.357
 2375POPC   C3A33425  34.672  38.147   8.027
 2375POPC   C4A33426  34.406  38.095   7.691
 2375POPC   C1B33427  34.661  38.865   8.722
 2375POPC   C2B33428  34.945  38.804   8.378
 2375POPC   C3B33429  34.910  38.725   7.962
 2375POPC   C4B33430  34.554  38.582   7.776
 2376POPC   NC333431  23.066  40.506   9.432
 2376POPC   PO433432  22.575  40.917   9.359
 2376POPC   GL133433  22.844  40.726   9.013
 2376POPC   GL233434  23.210  40.583   8.970
 2376POPC   C1A33435  22.935  40.748   8.588
 2376POPC   D2A33436  23.132  40.939   8.286
 2376POPC   C3A33437  22.920  40.875   7.911
 2376POPC   C4A33438  22.661  41.183   7.712
 2376POPC   C1B33439  23.419  40.872   8.722
 2376POPC   C2B33440  23.641  40.852   8.377
 2376POPC   C3B33441  23.489  40.763   7.977
 2376POPC   C4B33442  23.310  40.706   7.599
 2377POPC   NC333443  14.783  15.679   9.432
 2377POPC   PO433444  14.301  16.084   9.526
 2377POPC   GL133445  14.514  16.053   9.170
 2377POPC   GL233446  14.412  15.724   9.084
 2377POPC   C1A33447  14.426  16.161   8.763
 2377POPC   D2A33448  14.193  16.275   8.436
 2377POPC   C3A33449  14.456  16.252   8.063
 2377POPC   C4A33450  14.521  16.080   7.651
 2377POPC   C1B33451  14.252  15.674   8.702
 2377POPC   C2B33452  14.374  15.811   8.311
 2377POPC   C3B33453  14.165  15.833   7.920
 2377POPC   C4B33454  14.186  15.760   7.451
 2378POPC   NC333455  12.956  13.563   9.599
 2378POPC   PO433456  12.312  13.437   9.556
 2378POPC   GL133457  12.644  13.509   9.162
 2378POPC   GL233458  13.052  13.598   9.116
 2378POPC   C1A33459  12.748  13.843   8.816
 2378POPC   D2A33460  12.968  13.849   8.408
 2378POPC   C3A33461  12.671  13.848   8.059
 2378POPC   C4A33462  12.635  13.523   7.743
 2378POPC   C1B33463  12.966  13.360   8.745
 2378POPC   C2B33464  12.903  13.369   8.293
 2378POPC   C3B33465  13.100  13.593   7.941
 2378POPC   C4B33466  13.290  13.379   7.586
 2379POPC   NC333467  39.777   3.881   9.352
 2379POPC   PO433468  39.718   3.242   9.524
 2379POPC   GL133469  39.906   3.413   9.129
 2379POPC   GL233470  40.217   3.593   9.172
 2379POPC   C1A33471  40.112   3.365   8.699
 2379POPC   D2A33472  40.177   3.147   8.289
 2379POPC   C3A33473  40.229   3.324   7.853
 2379POPC   C4A33474  40.189   3.619   7.493
 2379POPC   C1B33475  40.213   3.864   8.792
 2379POPC   C2B33476  40.052   3.855   8.402
 2379POPC   C3B33477  40.241   3.842   7.976
 2379POPC   C4B33478  40.295   4.092   7.596
 2380POPC   NC333479   0.435   3.913   9.410
 2380POPC   PO433480   0.757   3.272   9.402
 2380POPC   GL133481   0.514   3.526   9.098
 2380POPC   GL233482   0.128   3.575   9.168
 2380POPC   C1A33483   0.674   3.767   8.752
 2380POPC   D2A33484   0.821   3.566   8.386
 2380POPC   C3A33485   0.677   3.674   8.004
 2380POPC   C4A33486   0.634   3.322   7.785
 2380POPC   C1B33487   0.146   3.759   8.770
 2380POPC   C2B33488   0.291   3.629   8.374
 2380POPC   C3B33489   0.182   3.820   7.986
 2380POPC   C4B33490   0.267   3.636   7.595
 2381POPC   NC333491  43.719  31.364   9.591
 2381POPC   PO433492  43.756  31.900   9.362
 2381POPC   GL133493  44.099  31.727   9.168
 2381POPC   GL233494  43.966  31.387   9.157
 2381POPC   C1A33495  43.994  31.681   8.747
 2381POPC   D2A33496  43.813  31.435   8.472
 2381POPC   C3A33497  43.554  31.655   8.233
 2381POPC   C4A33498  43.338  31.686   7.849
 2381POPC   C1B33499  44.174  31.173   8.854
 2381POPC   C2B33500  44.220  31.128   8.424
 2381POPC   C3B33501  44.116  31.401   8.067
 2381POPC   C4B33502  43.743  31.385   7.828
 2382POPC   NC333503  14.906  33.247   9.498
 2382POPC   PO433504  14.297  33.000   9.679
 2382POPC   GL133505  14.373  32.842   9.262
 2382POPC   GL233506  14.712  32.843   9.206
 2382POPC   C1A33507  14.310  32.993   8.832
 2382POPC   D2A33508  14.539  33.239   8.504
 2382POPC   C3A33509  14.325  33.244   8.109
 2382POPC   C4A33510  14.196  33.055   7.710
 2382POPC   C1B33511  14.757  32.770   8.788
 2382POPC   C2B33512  14.528  32.750   8.358
 2382POPC   C3B33513  14.677  32.895   7.930
 2382POPC   C4B33514  14.975  32.679   7.589
 2383POPC   NC333515  38.227  43.981   9.336
 2383POPC   PO433516  37.585  44.143   9.426
 2383POPC   GL133517  37.743  43.833   9.150
 2383POPC   GL233518  37.901  44.085   8.921
 2383POPC   C1A33519  37.728  43.659   8.739
 2383POPC   D2A33520  37.599  43.857   8.404
 2383POPC   C3A33521  37.715  43.733   8.006
 2383POPC   C4A33522  37.796  44.070   7.724
 2383POPC   C1B33523  37.413  44.120   8.819
 2383POPC   C2B33524  37.149  44.078   8.433
 2383POPC   C3B33525  37.362  44.116   8.030
 2383POPC   C4B33526  37.200  44.181   7.636
 2384POPC   NC333527   8.004  29.955   9.629
 2384POPC   PO433528   8.337  29.475   9.481
 2384POPC   GL133529   8.010  29.659   9.211
 2384POPC   GL233530   8.028  29.996   9.108
 2384POPC   C1A33531   7.941  29.600   8.778
 2384POPC   D2A33532   7.911  29.842   8.402
 2384POPC   C3A33533   7.991  29.630   8.019
 2384POPC   C4A33534   8.383  29.504   7.803
 2384POPC   C1B33535   8.042  30.238   8.722
 2384POPC   C2B33536   8.157  30.272   8.267
 2384POPC   C3B33537   8.014  30.134   7.855
 2384POPC   C4B33538   8.123  30.218   7.387
 2385POPC   NC333539  24.286   2.504   9.501
 2385POPC   PO433540  24.843   2.850   9.517
 2385POPC   GL133541  24.650   2.760   9.130
 2385POPC   GL233542  24.286   2.705   9.031
 2385POPC   C1A33543  24.610   2.905   8.702
 2385POPC   D2A33544  24.377   2.754   8.344
 2385POPC   C3A33545  24.612   2.543   8.071
 2385POPC   C4A33546  24.492   2.457   7.672
 2385POPC   C1B33547  23.991   2.792   8.674
 2385POPC   C2B33548  23.971   3.052   8.281
 2385POPC   C3B33549  24.113   2.951   7.866
 2385POPC   C4B33550  24.566   2.961   7.764
 2386POPC   NC333551  20.128  27.469   9.524
 2386POPC   PO433552  19.694  27.959   9.613
 2386POPC   GL133553  19.803  27.640   9.202
 2386POPC   GL233554  19.605  27.365   9.044
 2386POPC   C1A33555  19.980  27.634   8.770
 2386POPC   D2A33556  19.902  27.954   8.480
 2386POPC   C3A33557  19.799  27.795   8.078
 2386POPC   C4A33558  20.048  27.914   7.753
 2386POPC   C1B33559  19.995  27.139   8.802
 2386POPC   C2B33560  20.103  27.329   8.362
 2386POPC   C3B33561  20.011  27.181   7.938
 2386POPC   C4B33562  19.885  27.363   7.543
 2387POPC   NC333563  17.766  42.863   9.342
 2387POPC   PO433564  17.300  43.201   9.673
 2387POPC   GL133565  17.418  43.184   9.160
 2387POPC   GL233566  17.666  43.021   8.878
 2387POPC   C1A33567  17.339  43.411   8.766
 2387POPC   D2A33568  17.502  43.250   8.415
 2387POPC   C3A33569  17.498  43.367   8.009
 2387POPC   C4A33570  17.665  42.977   7.811
 2387POPC   C1B33571  17.971  43.239   8.590
 2387POPC   C2B33572  17.966  43.248   8.150
 2387POPC   C3B33573  17.989  43.320   7.685
 2387POPC   C4B33574  17.961  43.401   7.256
 2388POPC   NC333575  39.970   5.556   9.653
 2388POPC   PO433576  40.355   6.045   9.368
 2388POPC   GL133577  40.085   5.804   9.173
 2388POPC   GL233578  39.779   5.944   9.090
 2388POPC   C1A33579  40.094   5.753   8.741
 2388POPC   D2A33580  40.362   5.459   8.559
 2388POPC   C3A33581  40.371   5.440   8.109
 2388POPC   C4A33582  40.313   5.798   7.821
 2388POPC   C1B33583  39.594   5.664   8.768
 2388POPC   C2B33584  39.665   5.850   8.381
 2388POPC   C3B33585  39.545   6.091   8.053
 2388POPC   C4B33586  39.779   5.863   7.765
 2389POPC   NC333587  38.398  33.972   9.677
 2389POPC   PO433588  38.201  33.328   9.426
 2389POPC   GL133589  38.430  33.666   9.151
 2389POPC   GL233590  38.583  34.032   9.163
 2389POPC   C1A33591  38.641  33.716   8.756
 2389POPC   D2A33592  38.730  33.967   8.395
 2389POPC   C3A33593  38.590  33.764   8.031
 2389POPC   C4A33594  38.345  33.683   7.687
 2389POPC   C1B33595  38.454  34.243   8.747
 2389POPC   C2B33596  38.289  34.257   8.295
 2389POPC   C3B33597  38.308  34.162   7.842
 2389POPC   C4B33598  38.222  34.066   7.385
 2390POPC   NC333599   4.972   2.623   9.598
 2390POPC   PO433600   4.978   3.272   9.548
 2390POPC   GL133601   5.106   2.953   9.203
 2390POPC   GL233602   4.940   2.631   9.093
 2390POPC   C1A33603   5.327   2.874   8.809
 2390POPC   D2A33604   5.385   2.723   8.360
 2390POPC   C3A33605   5.307   2.934   7.955
 2390POPC   C4A33606   5.030   2.850   7.637
 2390POPC   C1B33607   4.885   2.655   8.645
 2390POPC   C2B33608   4.716   2.779   8.268
 2390POPC   C3B33609   4.663   2.601   7.901
 2390POPC   C4B33610   4.556   2.731   7.486
 2391POPC   NC333611  16.811  28.068   9.512
 2391POPC   PO433612  16.552  27.402   9.656
 2391POPC   GL133613  16.596  27.384   9.205
 2391POPC   GL233614  16.590  27.739   9.123
 2391POPC   C1A33615  16.721  27.320   8.764
 2391POPC   D2A33616  16.821  27.504   8.349
 2391POPC   C3A33617  16.597  27.470   8.002
 2391POPC   C4A33618  16.660  27.443   7.589
 2391POPC   C1B33619  16.741  27.844   8.711
 2391POPC   C2B33620  16.775  28.031   8.298
 2391POPC   C3B33621  16.529  27.996   7.943
 2391POPC   C4B33622  16.658  27.938   7.474
 2392POPC   NC333623  44.144  43.080   9.814
 2392POPC   PO433624  44.024  42.816   9.165
 2392POPC   GL133625  43.995  43.115   8.888
 2392POPC   GL233626  43.932  43.458   8.974
 2392POPC   C1A33627  44.171  43.157   8.516
 2392POPC   D2A33628  44.168  43.372   8.179
 2392POPC   C3A33629  44.159  43.064   7.905
 2392POPC   C4A33630  44.362  43.298   7.591
 2392POPC   C1B33631  43.553  43.344   8.750
 2392POPC   C2B33632  43.677  43.302   8.347
 2392POPC   C3B33633  43.565  43.117   7.989
 2392POPC   C4B33634  43.706  42.945   7.632
 2393POPC   NC333635  41.098  37.434   9.574
 2393POPC   PO433636  40.430  37.597   9.607
 2393POPC   GL133637  40.482  37.761   9.226
 2393POPC   GL233638  40.831  37.677   9.181
 2393POPC   C1A33639  40.522  37.660   8.793
 2393POPC   D2A33640  40.320  37.717   8.417
 2393POPC   C3A33641  40.582  37.658   8.107
 2393POPC   C4A33642  40.500  37.604   7.710
 2393POPC   C1B33643  41.077  37.715   8.781
 2393POPC   C2B33644  41.173  37.758   8.324
 2393POPC   C3B33645  41.037  37.865   7.899
 2393POPC   C4B33646  41.238  37.985   7.478
 2394POPC   NC333647  43.826  43.167   9.371
 2394POPC   PO433648  43.113  43.084   9.479
 2394POPC   GL133649  43.221  43.207   9.114
 2394POPC   GL233650  43.485  42.940   9.078
 2394POPC   C1A33651  43.015  43.349   8.731
 2394POPC   D2A33652  43.179  43.205   8.344
 2394POPC   C3A33653  43.154  43.435   7.978
 2394POPC   C4A33654  42.917  43.437   7.610
 2394POPC   C1B33655  43.174  42.865   8.757
 2394POPC   C2B33656  42.985  42.752   8.370
 2394POPC   C3B33657  43.166  42.742   8.024
 2394POPC   C4B33658  43.163  42.987   7.687
 2395POPC   NC333659  11.718  10.752   9.240
 2395POPC   PO433660  12.228  10.454   9.609
 2395POPC   GL133661  12.199  10.569   9.137
 2395POPC   GL233662  11.938  10.401   8.932
 2395POPC   C1A33663  12.361  10.502   8.724
 2395POPC   D2A33664  12.077  10.336   8.408
 2395POPC   C3A33665  12.165  10.511   8.014
 2395POPC   C4A33666  12.319  10.774   7.722
 2395POPC   C1B33667  11.619  10.441   8.650
 2395POPC   C2B33668  11.453  10.379   8.263
 2395POPC   C3B33669  11.656  10.427   7.900
 2395POPC   C4B33670  11.591  10.673   7.574
 2396POPC   NC333671  35.786  29.213   9.435
 2396POPC   PO433672  36.376  28.835   9.348
 2396POPC   GL133673  36.214  29.157   9.027
 2396POPC   GL233674  35.922  29.379   8.990
 2396POPC   C1A33675  36.258  29.341   8.627
 2396POPC   D2A33676  36.099  29.077   8.348
 2396POPC   C3A33677  36.220  29.124   7.962
 2396POPC   C4A33678  36.362  28.821   7.667
 2396POPC   C1B33679  35.789  28.977   8.799
 2396POPC   C2B33680  35.705  28.704   8.458
 2396POPC   C3B33681  35.757  28.806   8.039
 2396POPC   C4B33682  35.822  29.011   7.673
 2397POPC   NC333683  40.158  23.297   9.602
 2397POPC   PO433684  39.528  23.172   9.456
 2397POPC   GL133685  39.866  23.099   9.139
 2397POPC   GL233686  40.237  23.077   9.163
 2397POPC   C1A33687  39.973  22.745   8.832
 2397POPC   D2A33688  39.901  22.624   8.393
 2397POPC   C3A33689  39.811  22.862   8.030
 2397POPC   C4A33690  39.816  22.741   7.581
 2397POPC   C1B33691  40.214  23.181   8.749
 2397POPC   C2B33692  40.230  23.014   8.337
 2397POPC   C3B33693  40.162  23.204   7.936
 2397POPC   C4B33694  40.136  23.115   7.504
 2398POPC   NC333695  40.814  29.297   9.491
 2398POPC   PO433696  40.988  28.674   9.382
 2398POPC   GL133697  41.082  29.016   9.114
 2398POPC   GL233698  40.764  29.158   9.010
 2398POPC   C1A33699  41.090  28.871   8.709
 2398POPC   D2A33700  40.857  29.075   8.439
 2398POPC   C3A33701  40.835  28.906   8.064
 2398POPC   C4A33702  40.535  28.997   7.802
 2398POPC   C1B33703  40.528  28.880   8.764
 2398POPC   C2B33704  40.369  28.964   8.335
 2398POPC   C3B33705  40.448  29.385   8.114
 2398POPC   C4B33706  40.502  29.543   7.662
 2399POPC   NC333707  33.297  31.973   9.431
 2399POPC   PO433708  32.919  32.421   9.716
 2399POPC   GL133709  33.035  32.389   9.273
 2399POPC   GL233710  33.390  32.458   9.282
 2399POPC   C1A33711  32.972  32.225   8.818
 2399POPC   D2A33712  32.785  32.367   8.371
 2399POPC   C3A33713  32.870  32.107   7.964
 2399POPC   C4A33714  32.786  32.041   7.509
 2399POPC   C1B33715  33.483  32.385   8.852
 2399POPC   C2B33716  33.286  32.415   8.458
 2399POPC   C3B33717  33.341  32.288   8.043
 2399POPC   C4B33718  33.523  32.305   7.640
 2400POPC   NC333719  15.257  26.221   9.451
 2400POPC   PO433720  14.905  25.762   9.825
 2400POPC   GL133721  14.882  25.877   9.324
 2400POPC   GL233722  15.191  25.738   9.161
 2400POPC   C1A33723  14.929  26.020   8.835
 2400POPC   D2A33724  15.168  26.311   8.517
 2400POPC   C3A33725  15.327  26.199   8.096
 2400POPC   C4A33726  15.150  26.099   7.677
 2400POPC   C1B33727  15.158  25.608   8.685
 2400POPC   C2B33728  15.010  25.825   8.279
 2400POPC   C3B33729  14.922  25.694   7.837
 2400POPC   C4B33730  15.239  25.515   7.532
 2401POPC   NC333731  37.151  24.622   9.555
 2401POPC   PO433732  36.449  24.676   9.523
 2401POPC   GL133733  36.768  24.615   9.179
 2401POPC   GL233734  37.002  24.295   9.170
 2401POPC   C1A33735  36.688  24.422   8.773
 2401POPC   D2A33736  36.824  24.339   8.350
 2401POPC   C3A33737  36.806  24.703   8.111
 2401POPC   C4A33738  36.916  24.693   7.717
 2401POPC   C1B33739  37.185  24.312   8.729
 2401POPC   C2B33740  37.289  24.137   8.336
 2401POPC   C3B33741  37.302  24.340   7.900
 2401POPC   C4B33742  37.188  24.355   7.423
 2402POPC   NC333743  36.968   9.947   9.454
 2402POPC   PO433744  36.665   9.327   9.602
 2402POPC   GL133745  36.548   9.550   9.234
 2402POPC   GL233746  36.542   9.918   9.162
 2402POPC   C1A33747  36.704   9.518   8.822
 2402POPC   D2A33748  36.600   9.739   8.443
 2402POPC   C3A33749  36.766   9.588   8.048
 2402POPC   C4A33750  36.980   9.733   7.659
 2402POPC   C1B33751  36.878  10.001   8.809
 2402POPC   C2B33752  37.013  10.078   8.373
 2402POPC   C3B33753  36.793  10.114   7.943
 2402POPC   C4B33754  36.500   9.976   7.601
 2403POPC   NC333755  19.776  19.312   9.397
 2403POPC   PO433756  20.144  18.908   9.797
 2403POPC   GL133757  20.034  18.862   9.252
 2403POPC   GL233758  19.790  18.799   9.095
 2403POPC   C1A33759  20.017  19.074   8.751
 2403POPC   D2A33760  20.034  19.372   8.367
 2403POPC   C3A33761  19.881  19.260   7.916
 2403POPC   C4A33762  19.865  19.407   7.459
 2403POPC   C1B33763  19.866  18.586   8.728
 2403POPC   C2B33764  19.781  18.676   8.342
 2403POPC   C3B33765  19.926  18.641   7.969
 2403POPC   C4B33766  19.922  18.845   7.590
 2404POPC   NC333767  28.151   4.150   9.608
 2404POPC   PO433768  27.472   4.516   9.550
 2404POPC   GL133769  27.561   4.306   9.177
 2404POPC   GL233770  27.892   4.395   9.216
 2404POPC   C1A33771  27.378   4.061   8.809
 2404POPC   D2A33772  27.266   4.176   8.398
 2404POPC   C3A33773  27.197   3.992   8.000
 2404POPC   C4A33774  27.352   4.051   7.590
 2404POPC   C1B33775  27.859   4.232   8.769
 2404POPC   C2B33776  27.771   4.064   8.341
 2404POPC   C3B33777  27.665   4.250   7.953
 2404POPC   C4B33778  27.706   4.484   7.557
 2405POPC   NC333779  42.658  38.897   9.395
 2405POPC   PO433780  43.273  39.247   9.640
 2405POPC   GL133781  43.056  39.305   9.207
 2405POPC   GL233782  42.854  39.622   9.115
 2405POPC   C1A33783  43.199  39.413   8.779
 2405POPC   D2A33784  43.508  39.342   8.462
 2405POPC   C3A33785  43.393  39.180   8.057
 2405POPC   C4A33786  43.050  38.999   7.850
 2405POPC   C1B33787  42.685  39.393   8.740
 2405POPC   C2B33788  42.917  39.314   8.319
 2405POPC   C3B33789  43.014  39.499   7.906
 2405POPC   C4B33790  42.835  39.330   7.480
 2406POPC   NC333791  22.640  35.717   9.514
 2406POPC   PO433792  23.301  35.599   9.441
 2406POPC   GL133793  23.085  35.459   9.101
 2406POPC   GL233794  22.767  35.490   9.083
 2406POPC   C1A33795  23.068  35.296   8.692
 2406POPC   D2A33796  23.347  35.207   8.350
 2406POPC   C3A33797  23.141  35.341   8.017
 2406POPC   C4A33798  23.113  35.710   7.722
 2406POPC   C1B33799  22.526  35.468   8.690
 2406POPC   C2B33800  22.470  35.403   8.220
 2406POPC   C3B33801  22.687  35.433   7.824
 2406POPC   C4B33802  22.785  35.044   7.614
 2407POPC   NC333803  31.622  39.006   9.489
 2407POPC   PO433804  31.099  39.333   9.197
 2407POPC   GL133805  31.429  39.096   8.998
 2407POPC   GL233806  31.791  39.039   9.028
 2407POPC   C1A33807  31.524  39.176   8.590
 2407POPC   D2A33808  31.377  39.503   8.325
 2407POPC   C3A33809  31.303  39.331   7.931
 2407POPC   C4A33810  31.492  39.518   7.569
 2407POPC   C1B33811  31.817  38.763   8.664
 2407POPC   C2B33812  31.769  38.879   8.220
 2407POPC   C3B33813  31.751  39.134   7.824
 2407POPC   C4B33814  31.757  39.146   7.343
 2408POPC   NC333815   7.188  29.173   9.862
 2408POPC   PO433816   7.685  28.879   9.680
 2408POPC   GL133817   7.583  29.021   9.221
 2408POPC   GL233818   7.573  29.383   9.176
 2408POPC   C1A33819   7.287  28.994   8.785
 2408POPC   D2A33820   7.213  29.132   8.325
 2408POPC   C3A33821   7.310  28.885   7.917
 2408POPC   C4A33822   7.582  28.752   7.507
 2408POPC   C1B33823   7.428  29.486   8.771
 2408POPC   C2B33824   7.608  29.444   8.375
 2408POPC   C3B33825   7.544  29.355   7.962
 2408POPC   C4B33826   7.547  29.623   7.609
 2409POPC   NC333827  18.630  11.229   9.506
 2409POPC   PO433828  18.030  11.472   9.420
 2409POPC   GL133829  18.356  11.327   9.097
 2409POPC   GL233830  18.702  11.516   9.098
 2409POPC   C1A33831  18.382  11.062   8.739
 2409POPC   D2A33832  18.249  11.241   8.392
 2409POPC   C3A33833  18.442  11.141   8.052
 2409POPC   C4A33834  18.273  11.132   7.676
 2409POPC   C1B33835  18.572  11.569   8.670
 2409POPC   C2B33836  18.580  11.610   8.222
 2409POPC   C3B33837  18.594  11.615   7.763
 2409POPC   C4B33838  18.618  11.796   7.344
 2410POPC   NC333839  12.258  28.056   9.358
 2410POPC   PO433840  11.727  28.325   9.613
 2410POPC   GL133841  11.809  28.417   9.184
 2410POPC   GL233842  12.186  28.505   9.136
 2410POPC   C1A33843  11.905  28.260   8.756
 2410POPC   D2A33844  12.127  28.313   8.351
 2410POPC   C3A33845  11.905  28.155   8.026
 2410POPC   C4A33846  11.720  28.237   7.619
 2410POPC   C1B33847  12.363  28.569   8.751
 2410POPC   C2B33848  12.467  28.707   8.349
 2410POPC   C3B33849  12.219  28.734   8.050
 2410POPC   C4B33850  12.156  28.476   7.741
 2411POPC   NC333851  19.600   6.230   9.334
 2411POPC   PO433852  20.108   5.806   9.671
 2411POPC   GL133853  19.882   5.799   9.251
 2411POPC   GL233854  19.934   6.099   8.994
 2411POPC   C1A33855  19.738   5.687   8.825
 2411POPC   D2A33856  19.967   5.804   8.460
 2411POPC   C3A33857  19.791   5.746   8.067
 2411POPC   C4A33858  19.771   5.747   7.644
 2411POPC   C1B33859  19.618   6.161   8.658
 2411POPC   C2B33860  19.705   6.206   8.215
 2411POPC   C3B33861  19.932   6.222   7.791
 2411POPC   C4B33862  19.903   6.215   7.312
 2412POPC   NC333863  19.736   1.432   9.427
 2412POPC   PO433864  20.254   1.207   9.786
 2412POPC   GL133865  20.056   1.068   9.302
 2412POPC   GL233866  20.093   1.322   9.106
 2412POPC   C1A33867  19.763   1.084   8.846
 2412POPC   D2A33868  19.864   1.007   8.407
 2412POPC   C3A33869  19.712   1.185   7.998
 2412POPC   C4A33870  19.791   1.097   7.540
 2412POPC   C1B33871  20.253   1.212   8.720
 2412POPC   C2B33872  20.250   1.342   8.286
 2412POPC   C3B33873  20.207   1.249   7.828
 2412POPC   C4B33874  20.253   1.222   7.349
 2413POPC   NC333875  36.290  13.200   9.384
 2413POPC   PO433876  35.855  12.630   9.429
 2413POPC   GL133877  35.992  12.887   9.117
 2413POPC   GL233878  35.730  13.051   8.967
 2413POPC   C1A33879  36.196  12.958   8.730
 2413POPC   D2A33880  36.396  12.840   8.370
 2413POPC   C3A33881  36.194  13.064   8.055
 2413POPC   C4A33882  36.202  12.979   7.644
 2413POPC   C1B33883  35.717  12.791   8.674
 2413POPC   C2B33884  35.877  12.729   8.289
 2413POPC   C3B33885  35.671  12.586   7.935
 2413POPC   C4B33886  35.748  12.486   7.533
 2414POPC   NC333887  40.325   5.335   9.255
 2414POPC   PO433888  39.795   5.057   9.573
 2414POPC   GL133889  39.879   4.858   9.184
 2414POPC   GL233890  40.166   4.666   9.275
 2414POPC   C1A33891  39.868   5.040   8.770
 2414POPC   D2A33892  39.889   5.383   8.424
 2414POPC   C3A33893  39.783   5.333   7.993
 2414POPC   C4A33894  39.778   4.975   7.720
 2414POPC   C1B33895  40.278   4.710   8.835
 2414POPC   C2B33896  40.264   4.976   8.464
 2414POPC   C3B33897  40.150   4.940   8.062
 2414POPC   C4B33898  40.319   5.097   7.710
 2415POPC   NC333899   1.112  14.279   9.440
 2415POPC   PO433900   1.754  14.047   9.404
 2415POPC   GL133901   1.451  14.263   9.080
 2415POPC   GL233902   1.347  14.580   9.008
 2415POPC   C1A33903   1.569  14.360   8.631
 2415POPC   D2A33904   1.540  14.151   8.268
 2415POPC   C3A33905   1.325  14.355   8.001
 2415POPC   C4A33906   1.237  14.420   7.634
 2415POPC   C1B33907   1.076  14.723   8.686
 2415POPC   C2B33908   0.982  14.527   8.312
 2415POPC   C3B33909   0.832  14.634   7.910
 2415POPC   C4B33910   1.051  14.915   7.642
 2416POPC   NC333911  33.842   9.514   9.520
 2416POPC   PO433912  34.254  10.134   9.550
 2416POPC   GL133913  34.085   9.890   9.189
 2416POPC   GL233914  33.726   9.809   9.120
 2416POPC   C1A33915  34.037   9.728   8.742
 2416POPC   D2A33916  33.723   9.796   8.457
 2416POPC   C3A33917  33.823   9.632   8.080
 2416POPC   C4A33918  34.057   9.789   7.746
 2416POPC   C1B33919  33.403   9.961   8.829
 2416POPC   C2B33920  33.328  10.114   8.387
 2416POPC   C3B33921  33.301   9.892   7.975
 2416POPC   C4B33922  33.562   9.763   7.620
 2417POPC   NC333923  24.602  27.233   9.568
 2417POPC   PO433924  24.458  27.960   9.443
 2417POPC   GL133925  24.668  27.682   9.137
 2417POPC   GL233926  24.602  27.324   9.086
 2417POPC   C1A33927  24.439  27.650   8.748
 2417POPC   D2A33928  24.560  27.780   8.376
 2417POPC   C3A33929  24.310  27.675   8.055
 2417POPC   C4A33930  24.328  27.652   7.643
 2417POPC   C1B33931  24.388  27.140   8.766
 2417POPC   C2B33932  24.428  27.272   8.374
 2417POPC   C3B33933  24.530  27.238   7.940
 2417POPC   C4B33934  24.528  27.205   7.498
 2418POPC   NC333935  39.246  10.127   9.534
 2418POPC   PO433936  38.958   9.517   9.825
 2418POPC   GL133937  39.052   9.650   9.285
 2418POPC   GL233938  39.362   9.761   9.183
 2418POPC   C1A33939  38.952   9.842   8.812
 2418POPC   D2A33940  39.119   9.744   8.384
 2418POPC   C3A33941  39.029   9.894   7.974
 2418POPC   C4A33942  39.191   9.888   7.553
 2418POPC   C1B33943  39.342   9.541   8.779
 2418POPC   C2B33944  39.220   9.248   8.477
 2418POPC   C3B33945  39.082   9.352   8.047
 2418POPC   C4B33946  39.281   9.384   7.627
 2419POPC   NC333947  31.483  10.039   9.456
 2419POPC   PO433948  31.695   9.391   9.547
 2419POPC   GL133949  31.723   9.646   9.175
 2419POPC   GL233950  32.075   9.524   9.117
 2419POPC   C1A33951  31.517   9.884   8.820
 2419POPC   D2A33952  31.238   9.777   8.479
 2419POPC   C3A33953  31.372   9.807   8.070
 2419POPC   C4A33954  31.202   9.718   7.651
 2419POPC   C1B33955  32.021   9.834   8.813
 2419POPC   C2B33956  31.847   9.961   8.409
 2419POPC   C3B33957  31.926   9.811   8.003
 2419POPC   C4B33958  31.702   9.701   7.671
 2420POPC   NC333959   4.381  13.814   9.506
 2420POPC   PO433960   4.280  13.134   9.645
 2420POPC   GL133961   4.208  13.431   9.206
 2420POPC   GL233962   4.430  13.710   9.031
 2420POPC   C1A33963   4.170  13.445   8.723
 2420POPC   D2A33964   4.259  13.779   8.475
 2420POPC   C3A33965   4.293  13.720   8.052
 2420POPC   C4A33966   4.060  13.449   7.789
 2420POPC   C1B33967   4.699  13.543   8.719
 2420POPC   C2B33968   4.614  13.417   8.322
 2420POPC   C3B33969   4.723  13.370   7.906
 2420POPC   C4B33970   4.547  13.612   7.626
 2421POPC   NC333971  35.476   0.736   9.545
 2421POPC   PO433972  34.951   0.302   9.703
 2421POPC   GL133973  35.141   0.351   9.264
 2421POPC   GL233974  35.476   0.284   9.189
 2421POPC   C1A33975  35.198   0.312   8.771
 2421POPC   D2A33976  35.346   0.504   8.361
 2421POPC   C3A33977  35.152   0.427   7.907
 2421POPC   C4A33978  34.866   0.518   7.527
 2421POPC   C1B33979  35.705   0.474   8.838
 2421POPC   C2B33980  35.887   0.396   8.426
 2421POPC   C3B33981  35.677   0.390   7.994
 2421POPC   C4B33982  35.555   0.454   7.567
 2422POPC   NC333983  27.971  25.091   9.347
 2422POPC   PO433984  27.480  25.484   9.377
 2422POPC   GL133985  27.657  25.596   8.983
 2422POPC   GL233986  27.936  25.391   8.942
 2422POPC   C1A33987  27.643  25.609   8.521
 2422POPC   D2A33988  27.721  25.440   8.101
 2422POPC   C3A33989  27.425  25.553   7.799
 2422POPC   C4A33990  27.256  25.363   7.432
 2422POPC   C1B33991  27.818  25.052   8.688
 2422POPC   C2B33992  27.959  24.908   8.285
 2422POPC   C3B33993  27.840  24.976   7.850
 2422POPC   C4B33994  27.743  25.270   7.533
 2423POPC   NC333995  42.085  35.082   9.498
 2423POPC   PO433996  41.986  35.732   9.566
 2423POPC   GL133997  42.202  35.517   9.206
 2423POPC   GL233998  41.915  35.396   9.121
 2423POPC   C1A33999  42.428  35.452   8.793
 2423POPC   D2A34000  42.523  35.562   8.392
 2423POPC   C3A34001  42.269  35.470   8.056
 2423POPC   C4A34002  42.435  35.420   7.647
 2423POPC   C1B34003  42.003  35.226   8.743
 2423POPC   C2B34004  42.240  35.052   8.377
 2423POPC   C3B34005  42.090  35.022   7.918
 2423POPC   C4B34006  41.885  35.387   7.704
 2424POPC   NC334007   2.433  25.513   9.474
 2424POPC   PO434008   2.704  24.914   9.599
 2424POPC   GL134009   2.937  24.933   9.204
 2424POPC   GL234010   2.751  25.229   9.134
 2424POPC   C1A34011   3.072  25.043   8.775
 2424POPC   D2A34012   2.801  25.240   8.450
 2424POPC   C3A34013   2.935  25.167   8.008
 2424POPC   C4A34014   2.788  25.465   7.708
 2424POPC   C1B34015   2.466  25.380   8.821
 2424POPC   C2B34016   2.295  25.328   8.445
 2424POPC   C3B34017   2.438  25.297   8.056
 2424POPC   C4B34018   2.314  25.329   7.653
 2425POPC   NC334019  28.484   2.704   9.522
 2425POPC   PO434020  27.961   3.055   9.618
 2425POPC   GL134021  28.143   2.889   9.183
 2425POPC   GL234022  28.471   3.020   9.092
 2425POPC   C1A34023  28.389   2.570   8.886
 2425POPC   D2A34024  28.501   2.503   8.446
 2425POPC   C3A34025  28.442   2.724   8.027
 2425POPC   C4A34026  28.396   2.512   7.631
 2425POPC   C1B34027  28.290   3.040   8.673
 2425POPC   C2B34028  28.085   3.099   8.262
 2425POPC   C3B34029  28.207   3.250   7.840
 2425POPC   C4B34030  28.394   3.004   7.489
 2426POPC   NC334031   0.723  29.653   9.389
 2426POPC   PO434032   0.048  29.893   9.415
 2426POPC   GL134033   0.314  29.946   9.046
 2426POPC   GL234034   0.594  30.143   8.884
 2426POPC   C1A34035   0.125  30.231   8.733
 2426POPC   D2A34036  44.850  30.207   8.358
 2426POPC   C3A34037   0.076  29.987   8.038
 2426POPC   C4A34038   0.485  29.822   7.988
 2426POPC   C1B34039   0.547  29.772   8.623
 2426POPC   C2B34040   0.879  29.662   8.332
 2426POPC   C3B34041   1.027  29.882   7.969
 2426POPC   C4B34042   0.763  30.158   7.714
 2427POPC   NC334043  39.743  26.102   9.707
 2427POPC   PO434044  40.069  25.489   9.640
 2427POPC   GL134045  39.926  25.661   9.199
 2427POPC   GL234046  39.807  26.028   9.196
 2427POPC   C1A34047  40.056  25.819   8.775
 2427POPC   D2A34048  40.201  26.149   8.501
 2427POPC   C3A34049  40.192  26.104   8.050
 2427POPC   C4A34050  39.983  26.084   7.657
 2427POPC   C1B34051  39.803  26.303   8.825
 2427POPC   C2B34052  39.561  26.337   8.435
 2427POPC   C3B34053  39.684  26.322   8.002
 2427POPC   C4B34054  39.682  26.470   7.569
 2428POPC   NC334055  20.988  14.821   9.683
 2428POPC   PO434056  20.397  14.623   9.405
 2428POPC   GL134057  20.629  14.548   9.083
 2428POPC   GL234058  20.909  14.476   9.299
 2428POPC   C1A34059  20.484  14.457   8.668
 2428POPC   D2A34060  20.523  14.228   8.254
 2428POPC   C3A34061  20.406  14.453   7.876
 2428POPC   C4A34062  20.464  14.633   7.441
 2428POPC   C1B34063  20.987  14.168   8.969
 2428POPC   C2B34064  20.961  14.293   8.548
 2428POPC   C3B34065  21.016  14.397   8.127
 2428POPC   C4B34066  21.303  14.214   7.831
 2429POPC   NC334067  31.223  35.571   9.443
 2429POPC   PO434068  31.644  34.957   9.503
 2429POPC   GL134069  31.703  35.159   9.080
 2429POPC   GL234070  31.408  35.383   8.997
 2429POPC   C1A34071  31.607  35.130   8.617
 2429POPC   D2A34072  31.291  35.382   8.362
 2429POPC   C3A34073  31.414  35.304   7.955
 2429POPC   C4A34074  31.748  34.966   7.910
 2429POPC   C1B34075  31.114  35.668   8.748
 2429POPC   C2B34076  30.935  35.743   8.307
 2429POPC   C3B34077  31.027  35.678   7.860
 2429POPC   C4B34078  31.191  35.527   7.417
 2430POPC   NC334079   1.034   3.634   9.473
 2430POPC   PO434080   1.695   3.609   9.480
 2430POPC   GL134081   1.420   3.500   9.168
 2430POPC   GL234082   1.339   3.876   9.164
 2430POPC   C1A34083   1.160   3.563   8.795
 2430POPC   D2A34084   1.332   3.613   8.388
 2430POPC   C3A34085   1.173   3.373   8.036
 2430POPC   C4A34086   1.557   3.372   7.833
 2430POPC   C1B34087   1.278   4.057   8.784
 2430POPC   C2B34088   1.030   4.025   8.437
 2430POPC   C3B34089   1.185   3.971   8.038
 2430POPC   C4B34090   1.072   3.748   7.693
 2431POPC   NC334091  24.926  34.045   9.834
 2431POPC   PO434092  25.310  33.608   9.432
 2431POPC   GL134093  25.303  33.648   9.061
 2431POPC   GL234094  25.021  33.481   9.022
 2431POPC   C1A34095  25.321  34.014   8.801
 2431POPC   D2A34096  25.058  34.084   8.484
 2431POPC   C3A34097  25.121  33.830   8.142
 2431POPC   C4A34098  25.217  33.860   7.732
 2431POPC   C1B34099  25.154  33.572   8.589
 2431POPC   C2B34100  25.375  33.398   8.255
 2431POPC   C3B34101  25.164  33.309   7.939
 2431POPC   C4B34102  25.128  33.373   7.565
 2432POPC   NC334103  31.500  22.528   9.541
 2432POPC   PO434104  31.482  23.141   9.394
 2432POPC   GL134105  31.615  22.826   9.134
 2432POPC   GL234106  31.953  22.676   9.233
 2432POPC   C1A34107  31.508  22.933   8.736
 2432POPC   D2A34108  31.507  23.171   8.385
 2432POPC   C3A34109  31.362  22.930   8.048
 2432POPC   C4A34110  31.357  23.071   7.646
 2432POPC   C1B34111  32.006  22.736   8.781
 2432POPC   C2B34112  31.788  22.741   8.372
 2432POPC   C3B34113  31.892  22.780   7.965
 2432POPC   C4B34114  31.679  22.681   7.614
 2433POPC   NC334115  31.136  25.836   9.582
 2433POPC   PO434116  31.674  26.216   9.452
 2433POPC   GL134117  31.399  26.085   9.181
 2433POPC   GL234118  31.508  25.734   9.268
 2433POPC   C1A34119  31.533  26.327   8.800
 2433POPC   D2A34120  31.777  26.352   8.436
 2433POPC   C3A34121  31.530  26.345   8.092
 2433POPC   C4A34122  31.574  26.126   7.727
 2433POPC   C1B34123  31.658  25.791   8.871
 2433POPC   C2B34124  31.498  25.918   8.496
 2433POPC   C3B34125  31.381  25.858   8.109
 2433POPC   C4B34126  31.474  25.612   7.757
 2434POPC   NC334127  21.711  10.108   9.585
 2434POPC   PO434128  22.342   9.789   9.447
 2434POPC   GL134129  22.060   9.947   9.164
 2434POPC   GL234130  22.326  10.071   8.953
 2434POPC   C1A34131  21.997   9.733   8.775
 2434POPC   D2A34132  21.903   9.783   8.360
 2434POPC   C3A34133  22.229   9.855   8.020
 2434POPC   C4A34134  22.121   9.764   7.599
 2434POPC   C1B34135  22.353  10.001   8.531
 2434POPC   C2B34136  22.383   9.572   8.409
 2434POPC   C3B34137  22.489   9.407   7.998
 2434POPC   C4B34138  22.597   9.556   7.573
 2435POPC   NC334139  31.878   5.729   9.692
 2435POPC   PO434140  31.490   6.090   9.523
 2435POPC   GL134141  31.462   6.311   9.087
 2435POPC   GL234142  31.778   6.246   8.919
 2435POPC   C1A34143  31.377   6.300   8.603
 2435POPC   D2A34144  31.553   6.125   8.173
 2435POPC   C3A34145  31.285   5.970   7.859
 2435POPC   C4A34146  31.161   6.084   7.436
 2435POPC   C1B34147  31.671   5.878   8.642
 2435POPC   C2B34148  31.588   5.622   8.257
 2435POPC   C3B34149  31.764   5.679   7.834
 2435POPC   C4B34150  31.956   5.688   7.383
 2436POPC   NC334151  39.660   2.805   9.390
 2436POPC   PO434152  39.010   2.548   9.392
 2436POPC   GL134153  39.303   2.630   9.075
 2436POPC   GL234154  39.597   2.415   9.063
 2436POPC   C1A34155  39.314   2.832   8.684
 2436POPC   D2A34156  39.057   2.846   8.314
 2436POPC   C3A34157  39.327   2.847   7.970
 2436POPC   C4A34158  39.406   3.107   7.648
 2436POPC   C1B34159  39.421   2.321   8.671
 2436POPC   C2B34160  39.471   2.446   8.261
 2436POPC   C3B34161  39.414   2.354   7.845
 2436POPC   C4B34162  39.284   2.562   7.480
 2437POPC   NC334163  24.981  40.988   9.237
 2437POPC   PO434164  25.312  40.534   9.624
 2437POPC   GL134165  25.314  40.698   9.047
 2437POPC   GL234166  25.546  40.978   8.918
 2437POPC   C1A34167  25.177  40.707   8.640
 2437POPC   D2A34168  25.370  40.732   8.270
 2437POPC   C3A34169  25.064  40.858   7.965
 2437POPC   C4A34170  24.914  40.535   7.668
 2437POPC   C1B34171  25.697  40.597   8.706
 2437POPC   C2B34172  25.675  40.301   8.391
 2437POPC   C3B34173  25.665  40.322   8.001
 2437POPC   C4B34174  25.449  40.615   7.753
 2438POPC   NC334175  28.950   2.005   9.541
 2438POPC   PO434176  29.412   1.781   9.324
 2438POPC   GL134177  29.088   2.022   9.049
 2438POPC   GL234178  28.718   1.975   9.089
 2438POPC   C1A34179  28.872   2.235   8.694
 2438POPC   D2A34180  28.910   2.248   8.261
 2438POPC   C3A34181  29.279   2.207   7.971
 2438POPC   C4A34182  29.216   2.193   7.505
 2438POPC   C1B34183  28.822   1.720   8.712
 2438POPC   C2B34184  28.959   1.748   8.256
 2438POPC   C3B34185  28.889   1.912   7.823
 2438POPC   C4B34186  28.911   1.615   7.482
 2439POPC   NC334187   8.177  21.237   9.760
 2439POPC   PO434188   8.597  20.743   9.764
 2439POPC   GL134189   8.246  20.899   9.382
 2439POPC   GL234190   8.263  21.254   9.244
 2439POPC   C1A34191   8.123  20.921   8.886
 2439POPC   D2A34192   8.183  21.170   8.469
 2439POPC   C3A34193   8.218  21.295   7.991
 2439POPC   C4A34194   7.986  21.543   7.650
 2439POPC   C1B34195   8.442  21.449   8.854
 2439POPC   C2B34196   8.631  21.693   8.502
 2439POPC   C3B34197   8.581  21.676   8.054
 2439POPC   C4B34198   8.485  21.581   7.636
 2440POPC   NC334199  36.496  15.181   9.772
 2440POPC   PO434200  35.921  15.202   9.470
 2440POPC   GL134201  36.127  15.255   9.057
 2440POPC   GL234202  36.473  15.065   9.042
 2440POPC   C1A34203  36.026  15.404   8.632
 2440POPC   D2A34204  36.133  15.253   8.210
 2440POPC   C3A34205  36.000  15.347   7.770
 2440POPC   C4A34206  35.780  15.170   7.409
 2440POPC   C1B34207  36.239  14.929   8.665
 2440POPC   C2B34208  36.096  14.740   8.286
 2440POPC   C3B34209  36.106  14.858   7.888
 2440POPC   C4B34210  36.461  15.096   7.717
 2441POPC   NC334211   3.168  37.629   9.527
 2441POPC   PO434212   2.537  37.434   9.474
 2441POPC   GL134213   2.826  37.506   9.154
 2441POPC   GL234214   2.948  37.825   9.116
 2441POPC   C1A34215   2.849  37.389   8.740
 2441POPC   D2A34216   3.076  37.555   8.387
 2441POPC   C3A34217   2.972  37.370   8.012
 2441POPC   C4A34218   2.941  37.449   7.593
 2441POPC   C1B34219   2.832  37.910   8.704
 2441POPC   C2B34220   2.862  38.028   8.261
 2441POPC   C3B34221   2.964  37.902   7.843
 2441POPC   C4B34222   2.632  37.870   7.511
 2442POPC   NC334223  10.036  37.620   9.420
 2442POPC   PO434224   9.432  37.733   9.595
 2442POPC   GL134225   9.579  37.675   9.151
 2442POPC   GL234226   9.793  37.373   9.067
 2442POPC   C1A34227   9.781  37.805   8.756
 2442POPC   D2A34228   9.959  37.970   8.351
 2442POPC   C3A34229   9.771  37.892   7.965
 2442POPC   C4A34230  10.068  37.629   7.710
 2442POPC   C1B34231   9.953  37.354   8.640
 2442POPC   C2B34232   9.726  37.489   8.265
 2442POPC   C3B34233   9.566  37.443   7.822
 2442POPC   C4B34234   9.570  37.295   7.366
 2443POPC   NC334235  19.559   2.659   9.396
 2443POPC   PO434236  18.959   2.575   9.598
 2443POPC   GL134237  18.932   2.561   9.127
 2443POPC   GL234238  19.260   2.529   8.973
 2443POPC   C1A34239  18.811   2.745   8.734
 2443POPC   D2A34240  18.997   2.762   8.324
 2443POPC   C3A34241  18.938   3.128   8.044
 2443POPC   C4A34242  18.938   3.092   7.593
 2443POPC   C1B34243  19.455   2.851   8.692
 2443POPC   C2B34244  19.407   3.078   8.288
 2443POPC   C3B34245  19.352   2.916   7.857
 2443POPC   C4B34246  19.336   2.791   7.407
 2444POPC   NC334247  43.595  24.470   9.425
 2444POPC   PO434248  42.935  24.538   9.382
 2444POPC   GL134249  43.224  24.423   9.052
 2444POPC   GL234250  43.346  24.757   9.075
 2444POPC   C1A34251  43.229  24.153   8.649
 2444POPC   D2A34252  42.965  24.069   8.248
 2444POPC   C3A34253  43.141  24.318   7.901
 2444POPC   C4A34254  43.040  24.694   7.705
 2444POPC   C1B34255  43.623  24.598   8.786
 2444POPC   C2B34256  43.574  24.520   8.382
 2444POPC   C3B34257  43.466  24.724   8.012
 2444POPC   C4B34258  43.538  24.598   7.621
 2445POPC   NC334259  11.731  23.630   9.445
 2445POPC   PO434260  11.224  23.979   9.255
 2445POPC   GL134261  11.283  23.541   9.114
 2445POPC   GL234262  11.000  23.424   8.932
 2445POPC   C1A34263  11.415  23.322   8.694
 2445POPC   D2A34264  11.245  23.399   8.263
 2445POPC   C3A34265  11.510  23.667   8.013
 2445POPC   C4A34266  11.438  23.782   7.595
 2445POPC   C1B34267  11.156  23.765   8.643
 2445POPC   C2B34268  11.127  23.947   8.228
 2445POPC   C3B34269  11.022  23.704   7.864
 2445POPC   C4B34270  11.095  23.338   7.700
 2446POPC   NC334271   2.987  11.198   9.443
 2446POPC   PO434272   3.649  11.379   9.550
 2446POPC   GL134273   3.573  11.319   9.131
 2446POPC   GL234274   3.272  11.503   9.134
 2446POPC   C1A34275   3.714  11.081   8.760
 2446POPC   D2A34276   4.017  10.898   8.466
 2446POPC   C3A34277   3.797  10.930   8.095
 2446POPC   C4A34278   3.667  11.226   7.794
 2446POPC   C1B34279   3.199  11.307   8.751
 2446POPC   C2B34280   3.445  11.350   8.391
 2446POPC   C3B34281   3.421  11.611   8.028
 2446POPC   C4B34282   3.213  11.482   7.643
 2447POPC   NC334283   6.797  41.274   9.380
 2447POPC   PO434284   6.399  41.858   9.485
 2447POPC   GL134285   6.512  41.613   9.089
 2447POPC   GL234286   6.315  41.320   9.204
 2447POPC   C1A34287   6.635  41.563   8.602
 2447POPC   D2A34288   6.861  41.670   8.173
 2447POPC   C3A34289   6.759  41.794   7.754
 2447POPC   C4A34290   6.401  41.654   7.554
 2447POPC   C1B34291   6.304  41.210   8.767
 2447POPC   C2B34292   6.218  41.166   8.340
 2447POPC   C3B34293   6.394  41.390   8.022
 2447POPC   C4B34294   6.362  41.173   7.663
 2448POPC   NC334295  23.757  27.111   9.676
 2448POPC   PO434296  23.292  26.676   9.875
 2448POPC   GL134297  23.543  26.740   9.361
 2448POPC   GL234298  23.513  27.105   9.230
 2448POPC   C1A34299  23.441  26.809   8.849
 2448POPC   D2A34300  23.446  26.712   8.416
 2448POPC   C3A34301  23.656  26.832   8.056
 2448POPC   C4A34302  23.729  26.577   7.709
 2448POPC   C1B34303  23.892  27.021   8.952
 2448POPC   C2B34304  23.959  26.957   8.499
 2448POPC   C3B34305  24.018  27.193   8.105
 2448POPC   C4B34306  24.100  27.010   7.709
 2449POPC   NC334307  20.229  12.589   9.977
 2449POPC   PO434308  19.790  13.040   9.610
 2449POPC   GL134309  19.750  12.997   9.174
 2449POPC   GL234310  19.526  12.784   9.034
 2449POPC   C1A34311  19.866  13.142   8.779
 2449POPC   D2A34312  20.024  12.995   8.422
 2449POPC   C3A34313  19.825  13.143   8.054
 2449POPC   C4A34314  19.935  12.954   7.661
 2449POPC   C1B34315  19.471  12.781   8.612
 2449POPC   C2B34316  19.596  12.686   8.216
 2449POPC   C3B34317  19.467  12.838   7.837
 2449POPC   C4B34318  19.588  12.759   7.354
 2450POPC   NC334319  36.045  22.633   9.549
 2450POPC   PO434320  36.322  22.034   9.541
 2450POPC   GL134321  36.054  22.244   9.200
 2450POPC   GL234322  35.786  22.527   9.121
 2450POPC   C1A34323  36.223  22.120   8.808
 2450POPC   D2A34324  36.164  22.260   8.405
 2450POPC   C3A34325  36.343  21.980   8.107
 2450POPC   C4A34326  36.489  21.741   7.743
 2450POPC   C1B34327  35.730  22.249   8.772
 2450POPC   C2B34328  35.617  22.042   8.385
 2450POPC   C3B34329  35.825  22.128   8.036
 2450POPC   C4B34330  36.111  22.164   7.680
 2451POPC   NC334331  26.292  44.540   9.460
 2451POPC   PO434332  25.962   0.100   9.528
 2451POPC   GL134333  26.113  44.933   9.173
 2451POPC   GL234334  25.836  44.667   9.202
 2451POPC   C1A34335  26.287  44.934   8.754
 2451POPC   D2A34336  26.008  44.831   8.404
 2451POPC   C3A34337  26.066  44.896   7.974
 2451POPC   C4A34338  26.158  44.769   7.562
 2451POPC   C1B34339  26.045  44.521   8.845
 2451POPC   C2B34340  26.333  44.467   8.511
 2451POPC   C3B34341  26.152  44.378   8.108
 2451POPC   C4B34342  26.380  44.288   7.720
 2452POPC   NC334343  28.999  29.563   9.734
 2452POPC   PO434344  29.396  30.051   9.539
 2452POPC   GL134345  29.213  29.927   9.149
 2452POPC   GL234346  29.017  29.621   9.206
 2452POPC   C1A34347  29.152  29.924   8.705
 2452POPC   D2A34348  29.316  30.124   8.359
 2452POPC   C3A34349  29.322  29.967   7.971
 2452POPC   C4A34350  29.094  30.150   7.667
 2452POPC   C1B34351  28.814  29.558   8.788
 2452POPC   C2B34352  28.954  29.586   8.336
 2452POPC   C3B34353  28.721  29.498   7.951
 2452POPC   C4B34354  28.816  29.733   7.590
 2453POPC   NC334355  19.089   2.166   9.416
 2453POPC   PO434356  19.322   1.517   9.624
 2453POPC   GL134357  19.331   1.730   9.203
 2453POPC   GL234358  19.547   1.551   8.986
 2453POPC   C1A34359  19.029   1.852   8.838
 2453POPC   D2A34360  19.048   2.264   8.572
 2453POPC   C3A34361  18.973   2.254   8.105
 2453POPC   C4A34362  19.175   2.411   7.725
 2453POPC   C1B34363  19.497   1.838   8.676
 2453POPC   C2B34364  19.291   1.858   8.333
 2453POPC   C3B34365  19.431   1.713   7.970
 2453POPC   C4B34366  19.125   1.620   7.673
 2454POPC   NC334367  16.932  42.857   9.656
 2454POPC   PO434368  16.516  42.179   9.638
 2454POPC   GL134369  16.714  42.174   9.255
 2454POPC   GL234370  16.832  42.495   9.315
 2454POPC   C1A34371  16.728  42.049   8.818
 2454POPC   D2A34372  16.563  42.291   8.456
 2454POPC   C3A34373  16.708  42.166   8.036
 2454POPC   C4A34374  16.503  42.030   7.647
 2454POPC   C1B34375  16.857  42.532   8.887
 2454POPC   C2B34376  16.997  42.553   8.459
 2454POPC   C3B34377  16.747  42.684   8.109
 2454POPC   C4B34378  16.906  42.574   7.719
 2455POPC   NC334379   9.438   7.574   9.576
 2455POPC   PO434380   8.760   7.641   9.486
 2455POPC   GL134381   8.851   7.606   9.079
 2455POPC   GL234382   9.226   7.621   9.112
 2455POPC   C1A34383   8.844   7.276   8.756
 2455POPC   D2A34384   9.122   7.221   8.396
 2455POPC   C3A34385   8.925   7.420   8.019
 2455POPC   C4A34386   8.730   7.220   7.651
 2455POPC   C1B34387   9.248   7.600   8.694
 2455POPC   C2B34388   9.301   7.719   8.282
 2455POPC   C3B34389   9.317   7.705   7.832
 2455POPC   C4B34390   9.003   7.715   7.555
 2456POPC   NC334391   5.128   4.309   9.628
 2456POPC   PO434392   4.712   4.789   9.599
 2456POPC   GL134393   4.992   4.674   9.252
 2456POPC   GL234394   5.354   4.572   9.247
 2456POPC   C1A34395   5.029   4.401   8.889
 2456POPC   D2A34396   5.184   4.367   8.480
 2456POPC   C3A34397   5.023   4.127   8.155
 2456POPC   C4A34398   4.938   4.269   7.757
 2456POPC   C1B34399   5.482   4.639   8.819
 2456POPC   C2B34400   5.556   4.681   8.358
 2456POPC   C3B34401   5.324   4.562   7.974
 2456POPC   C4B34402   5.391   4.383   7.547
 2457POPC   NC334403   9.983  19.297   9.290
 2457POPC   PO434404   9.495  18.866   9.600
 2457POPC   GL134405   9.566  18.826   9.146
 2457POPC   GL234406   9.880  18.952   8.943
 2457POPC   C1A34407   9.416  18.912   8.744
 2457POPC   D2A34408   9.623  19.242   8.528
 2457POPC   C3A34409   9.627  19.311   8.117
 2457POPC   C4A34410   9.878  19.454   7.784
 2457POPC   C1B34411  10.132  19.262   8.645
 2457POPC   C2B34412  10.263  19.269   8.198
 2457POPC   C3B34413  10.025  18.993   7.940
 2457POPC   C4B34414   9.982  18.557   7.974
 2458POPC   NC334415  29.703   4.107   9.772
 2458POPC   PO434416  30.181   3.906   9.501
 2458POPC   GL134417  29.957   3.578   9.246
 2458POPC   GL234418  29.565   3.566   9.264
 2458POPC   C1A34419  30.047   3.439   8.814
 2458POPC   D2A34420  30.273   3.640   8.476
 2458POPC   C3A34421  30.100   3.613   8.060
 2458POPC   C4A34422  29.827   3.276   7.969
 2458POPC   C1B34423  29.634   3.749   8.828
 2458POPC   C2B34424  29.730   3.602   8.406
 2458POPC   C3B34425  29.547   3.700   7.984
 2458POPC   C4B34426  29.248   4.008   7.815
 2459POPC   NC334427  34.942  17.527   9.592
 2459POPC   PO434428  35.521  17.342   9.559
 2459POPC   GL134429  35.288  17.582   9.186
 2459POPC   GL234430  34.940  17.756   9.143
 2459POPC   C1A34431  35.262  17.656   8.727
 2459POPC   D2A34432  35.465  17.528   8.318
 2459POPC   C3A34433  35.442  17.595   7.867
 2459POPC   C4A34434  35.207  17.355   7.536
 2459POPC   C1B34435  34.746  17.697   8.749
 2459POPC   C2B34436  34.937  17.677   8.319
 2459POPC   C3B34437  34.919  17.595   7.875
 2459POPC   C4B34438  34.900  17.794   7.480
 2460POPC   NC334439   6.701  11.500   9.664
 2460POPC   PO434440   5.962  11.397   9.591
 2460POPC   GL134441   6.243  11.507   9.205
 2460POPC   GL234442   6.601  11.381   9.189
 2460POPC   C1A34443   6.322  11.314   8.782
 2460POPC   D2A34444   6.469  11.047   8.453
 2460POPC   C3A34445   6.447  11.252   8.069
 2460POPC   C4A34446   6.565  11.478   7.742
 2460POPC   C1B34447   6.818  11.178   8.808
 2460POPC   C2B34448   6.903  11.299   8.380
 2460POPC   C3B34449   7.000  11.282   7.946
 2460POPC   C4B34450   7.022  11.691   7.720
 2461POPC   NC334451   6.868  43.956   9.517
 2461POPC   PO434452   6.277  43.584   9.680
 2461POPC   GL134453   6.450  43.871   9.225
 2461POPC   GL234454   6.804  43.755   9.069
 2461POPC   C1A34455   6.599  44.125   8.807
 2461POPC   D2A34456   6.885  44.086   8.403
 2461POPC   C3A34457   6.746  44.112   7.961
 2461POPC   C4A34458   6.538  44.031   7.531
 2461POPC   C1B34459   6.856  43.634   8.641
 2461POPC   C2B34460   6.797  43.551   8.214
 2461POPC   C3B34461   6.749  43.622   7.769
 2461POPC   C4B34462   6.841  43.505   7.338
 2462POPC   NC334463  43.261  38.761   9.777
 2462POPC   PO434464  42.844  38.473   9.405
 2462POPC   GL134465  43.199  38.442   9.152
 2462POPC   GL234466  43.379  38.106   9.121
 2462POPC   C1A34467  43.199  38.618   8.745
 2462POPC   D2A34468  43.113  38.832   8.371
 2462POPC   C3A34469  43.338  38.648   8.056
 2462POPC   C4A34470  43.194  38.507   7.686
 2462POPC   C1B34471  43.050  38.097   8.805
 2462POPC   C2B34472  42.975  38.264   8.422
 2462POPC   C3B34473  43.143  38.183   8.065
 2462POPC   C4B34474  42.929  38.064   7.719
 2463POPC   NC334475  12.664  40.700   9.765
 2463POPC   PO434476  11.996  40.897   9.583
 2463POPC   GL134477  11.891  40.960   9.171
 2463POPC   GL234478  12.136  40.744   9.046
 2463POPC   C1A34479  11.763  40.953   8.749
 2463POPC   D2A34480  11.936  40.903   8.362
 2463POPC   C3A34481  11.705  40.937   8.015
 2463POPC   C4A34482  12.043  40.996   7.719
 2463POPC   C1B34483  12.289  41.047   8.711
 2463POPC   C2B34484  12.460  41.035   8.257
 2463POPC   C3B34485  12.551  40.956   7.799
 2463POPC   C4B34486  12.429  40.956   7.348
 2464POPC   NC334487   2.148  23.024   9.585
 2464POPC   PO434488   1.537  22.913   9.378
 2464POPC   GL134489   1.865  23.054   9.115
 2464POPC   GL234490   2.057  22.761   9.142
 2464POPC   C1A34491   2.156  23.004   8.725
 2464POPC   D2A34492   2.179  22.628   8.463
 2464POPC   C3A34493   2.307  22.698   8.044
 2464POPC   C4A34494   2.232  22.975   7.689
 2464POPC   C1B34495   1.753  22.703   8.778
 2464POPC   C2B34496   1.740  22.926   8.392
 2464POPC   C3B34497   1.835  23.016   7.997
 2464POPC   C4B34498   1.811  23.348   7.706
 2465POPC   NC334499  36.091  13.940   9.569
 2465POPC   PO434500  35.858  13.410   9.314
 2465POPC   GL134501  36.102  13.416   8.962
 2465POPC   GL234502  36.287  13.679   9.144
 2465POPC   C1A34503  36.138  13.432   8.502
 2465POPC   D2A34504  35.873  13.723   8.251
 2465POPC   C3A34505  36.094  13.908   7.917
 2465POPC   C4A34506  36.219  13.907   7.478
 2465POPC   C1B34507  36.515  13.634   8.766
 2465POPC   C2B34508  36.442  13.857   8.385
 2465POPC   C3B34509  36.565  13.766   7.978
 2465POPC   C4B34510  36.348  13.469   7.737
 2466POPC   NC334511  13.112   6.375   9.557
 2466POPC   PO434512  12.645   6.798   9.427
 2466POPC   GL134513  12.728   6.541   9.134
 2466POPC   GL234514  13.068   6.640   9.129
 2466POPC   C1A34515  12.727   6.696   8.728
 2466POPC   D2A34516  12.604   6.543   8.369
 2466POPC   C3A34517  12.733   6.780   7.985
 2466POPC   C4A34518  13.139   6.722   7.778
 2466POPC   C1B34519  13.248   6.721   8.733
 2466POPC   C2B34520  13.092   6.704   8.330
 2466POPC   C3B34521  12.995   6.338   8.080
 2466POPC   C4B34522  13.118   6.213   7.653
 2467POPC   NC334523  22.179  18.799   9.498
 2467POPC   PO434524  22.620  19.299   9.723
 2467POPC   GL134525  22.272  19.270   9.339
 2467POPC   GL234526  21.883  19.135   9.227
 2467POPC   C1A34527  22.259  19.074   8.926
 2467POPC   D2A34528  22.344  19.143   8.520
 2467POPC   C3A34529  22.271  18.869   8.174
 2467POPC   C4A34530  21.984  18.765   7.836
 2467POPC   C1B34531  21.871  19.350   8.773
 2467POPC   C2B34532  22.000  19.456   8.324
 2467POPC   C3B34533  22.042  19.272   7.898
 2467POPC   C4B34534  21.771  19.375   7.547
 2468POPC   NC334535  14.218  13.927   9.445
 2468POPC   PO434536  14.276  14.575   9.523
 2468POPC   GL134537  14.418  14.545   9.143
 2468POPC   GL234538  14.519  14.220   9.169
 2468POPC   C1A34539  14.487  14.635   8.733
 2468POPC   D2A34540  14.404  14.800   8.378
 2468POPC   C3A34541  14.497  14.628   8.016
 2468POPC   C4A34542  14.198  14.553   7.703
 2468POPC   C1B34543  14.343  14.143   8.804
 2468POPC   C2B34544  14.463  14.208   8.412
 2468POPC   C3B34545  14.326  14.160   8.044
 2468POPC   C4B34546  14.448  14.084   7.667
 2469POPC   NC334547  23.281  44.148   9.514
 2469POPC   PO434548  22.708  43.682   9.472
 2469POPC   GL134549  22.931  43.944   9.207
 2469POPC   GL234550  23.099  43.617   9.147
 2469POPC   C1A34551  23.172  44.074   8.846
 2469POPC   D2A34552  23.321  44.180   8.441
 2469POPC   C3A34553  23.197  44.298   8.010
 2469POPC   C4A34554  23.082  44.150   7.600
 2469POPC   C1B34555  22.853  43.678   8.780
 2469POPC   C2B34556  23.054  43.725   8.405
 2469POPC   C3B34557  22.901  43.879   8.064
 2469POPC   C4B34558  22.649  43.933   7.733
 2470POPC   NC334559  27.338   4.017   9.534
 2470POPC   PO434560  27.913   3.742   9.532
 2470POPC   GL134561  27.850   3.875   9.148
 2470POPC   GL234562  27.527   3.727   9.162
 2470POPC   C1A34563  27.781   3.727   8.721
 2470POPC   D2A34564  27.703   3.510   8.329
 2470POPC   C3A34565  27.670   3.739   7.930
 2470POPC   C4A34566  27.769   3.568   7.554
 2470POPC   C1B34567  27.300   3.544   8.826
 2470POPC   C2B34568  27.215   3.659   8.406
 2470POPC   C3B34569  27.245   3.482   8.010
 2470POPC   C4B34570  27.094   3.605   7.631
 2471POPC   NC334571  39.636  28.026   9.436
 2471POPC   PO434572  40.033  27.465   9.541
 2471POPC   GL134573  40.120  27.470   9.115
 2471POPC   GL234574  40.293  27.143   9.074
 2471POPC   C1A34575  40.079  27.752   8.729
 2471POPC   D2A34576  39.877  27.939   8.348
 2471POPC   C3A34577  40.006  27.756   7.967
 2471POPC   C4A34578  39.711  27.632   7.618
 2471POPC   C1B34579  40.016  27.198   8.710
 2471POPC   C2B34580  39.992  27.384   8.321
 2471POPC   C3B34581  39.948  27.261   7.904
 2471POPC   C4B34582  40.159  27.360   7.502
 2472POPC   NC334583  32.001  29.541   9.445
 2472POPC   PO434584  32.552  29.808   9.721
 2472POPC   GL134585  32.477  29.720   9.297
 2472POPC   GL234586  32.219  29.988   9.266
 2472POPC   C1A34587  32.325  29.664   8.874
 2472POPC   D2A34588  32.196  29.754   8.472
 2472POPC   C3A34589  32.383  29.658   8.083
 2472POPC   C4A34590  32.131  29.735   7.714
 2472POPC   C1B34591  32.137  30.176   8.855
 2472POPC   C2B34592  32.258  30.255   8.423
 2472POPC   C3B34593  32.211  30.164   7.985
 2472POPC   C4B34594  31.891  30.220   7.694
 2473POPC   NC334595  38.246  25.374   9.166
 2473POPC   PO434596  38.206  24.738   9.449
 2473POPC   GL134597  38.534  24.909   9.169
 2473POPC   GL234598  38.768  25.214   9.110
 2473POPC   C1A34599  38.532  24.964   8.734
 2473POPC   D2A34600  38.468  25.274   8.398
 2473POPC   C3A34601  38.458  25.069   8.007
 2473POPC   C4A34602  38.157  25.138   7.709
 2473POPC   C1B34603  38.819  25.497   8.720
 2473POPC   C2B34604  38.768  25.713   8.276
 2473POPC   C3B34605  38.613  25.543   7.849
 2473POPC   C4B34606  38.761  25.461   7.388
 2474POPC   NC334607  32.458  27.114   9.438
 2474POPC   PO434608  32.080  26.642   9.743
 2474POPC   GL134609  32.198  26.637   9.306
 2474POPC   GL234610  32.020  26.915   9.172
 2474POPC   C1A34611  32.359  26.679   8.855
 2474POPC   D2A34612  32.162  26.682   8.463
 2474POPC   C3A34613  32.327  26.734   8.037
 2474POPC   C4A34614  32.661  26.776   7.715
 2474POPC   C1B34615  32.170  27.175   8.816
 2474POPC   C2B34616  32.404  27.142   8.428
 2474POPC   C3B34617  32.234  27.266   8.035
 2474POPC   C4B34618  32.121  27.069   7.668
 2475POPC   NC334619  10.878   5.621   9.505
 2475POPC   PO434620  10.520   6.157   9.645
 2475POPC   GL134621  10.633   6.221   9.208
 2475POPC   GL234622  10.603   5.883   9.080
 2475POPC   C1A34623  10.418   6.264   8.778
 2475POPC   D2A34624  10.330   6.082   8.357
 2475POPC   C3A34625  10.616   6.034   7.979
 2475POPC   C4A34626  10.698   5.991   7.497
 2475POPC   C1B34627  10.342   5.700   8.740
 2475POPC   C2B34628  10.461   5.575   8.299
 2475POPC   C3B34629  10.223   5.615   7.939
 2475POPC   C4B34630  10.221   5.935   7.640
 2476POPC   NC334631  34.286  40.176   9.823
 2476POPC   PO434632  34.752  39.762   9.578
 2476POPC   GL134633  34.551  39.955   9.241
 2476POPC   GL234634  34.781  40.198   9.084
 2476POPC   C1A34635  34.400  39.925   8.824
 2476POPC   D2A34636  34.631  40.161   8.536
 2476POPC   C3A34637  34.671  40.055   8.097
 2476POPC   C4A34638  34.370  39.786   7.858
 2476POPC   C1B34639  34.381  40.425   8.939
 2476POPC   C2B34640  34.263  40.523   8.508
 2476POPC   C3B34641  34.239  40.493   8.066
 2476POPC   C4B34642  34.432  40.300   7.729
 2477POPC   NC334643  30.828  38.990   9.364
 2477POPC   PO434644  30.514  39.627   9.406
 2477POPC   GL134645  30.612  39.372   9.019
 2477POPC   GL234646  30.514  38.984   8.964
 2477POPC   C1A34647  30.821  39.509   8.627
 2477POPC   D2A34648  30.867  39.405   8.199
 2477POPC   C3A34649  30.501  39.307   7.987
 2477POPC   C4A34650  30.372  39.373   7.579
 2477POPC   C1B34651  30.887  38.993   8.684
 2477POPC   C2B34652  31.144  38.976   8.300
 2477POPC   C3B34653  30.878  38.939   7.937
 2477POPC   C4B34654  30.707  38.950   7.549
 2478POPC   NC334655  27.319  37.344   9.479
 2478POPC   PO434656  27.323  36.721   9.414
 2478POPC   GL134657  27.616  36.737   9.121
 2478POPC   GL234658  27.738  37.104   9.179
 2478POPC   C1A34659  27.524  36.613   8.694
 2478POPC   D2A34660  27.263  36.569   8.352
 2478POPC   C3A34661  27.454  36.780   8.050
 2478POPC   C4A34662  27.740  37.096   7.928
 2478POPC   C1B34663  27.416  37.114   8.838
 2478POPC   C2B34664  27.442  37.255   8.424
 2478POPC   C3B34665  27.278  37.331   8.032
 2478POPC   C4B34666  27.250  37.083   7.702
 2479POPC   NC334667  41.733  26.845   9.425
 2479POPC   PO434668  41.351  26.350   9.716
 2479POPC   GL134669  41.343  26.623   9.209
 2479POPC   GL234670  41.663  26.712   8.956
 2479POPC   C1A34671  41.215  26.920   8.836
 2479POPC   D2A34672  41.340  27.122   8.406
 2479POPC   C3A34673  41.304  26.981   7.983
 2479POPC   C4A34674  41.401  27.107   7.536
 2479POPC   C1B34675  41.746  27.071   8.694
 2479POPC   C2B34676  41.827  27.304   8.319
 2479POPC   C3B34677  41.812  27.195   7.884
 2479POPC   C4B34678  41.717  26.799   7.745
 2480POPC   NC334679  19.080  21.669   9.836
 2480POPC   PO434680  19.157  22.290   9.489
 2480POPC   GL134681  19.017  22.320   9.053
 2480POPC   GL234682  19.293  22.145   8.988
 2480POPC   C1A34683  19.130  22.406   8.586
 2480POPC   D2A34684  19.362  22.529   8.210
 2480POPC   C3A34685  19.137  22.376   7.858
 2480POPC   C4A34686  18.856  22.025   7.783
 2480POPC   C1B34687  19.134  21.879   8.673
 2480POPC   C2B34688  19.136  22.002   8.252
 2480POPC   C3B34689  19.462  22.023   7.973
 2480POPC   C4B34690  19.372  21.860   7.577
 2481POPC   NC334691  20.486  24.573   9.530
 2481POPC   PO434692  21.000  24.151   9.334
 2481POPC   GL134693  20.730  24.430   9.117
 2481POPC   GL234694  20.379  24.376   9.067
 2481POPC   C1A34695  20.656  24.652   8.737
 2481POPC   D2A34696  20.909  24.634   8.385
 2481POPC   C3A34697  20.751  24.724   8.017
 2481POPC   C4A34698  20.613  24.702   7.612
 2481POPC   C1B34699  20.523  24.169   8.688
 2481POPC   C2B34700  20.486  24.346   8.272
 2481POPC   C3B34701  20.622  24.228   7.855
 2481POPC   C4B34702  20.507  24.258   7.430
 2482POPC   NC334703  29.508  25.467   9.451
 2482POPC   PO434704  29.041  25.026   9.470
 2482POPC   GL134705  29.213  25.230   9.126
 2482POPC   GL234706  29.378  24.966   9.033
 2482POPC   C1A34707  29.261  25.507   8.773
 2482POPC   D2A34708  29.105  25.461   8.353
 2482POPC   C3A34709  29.288  25.192   8.049
 2482POPC   C4A34710  29.422  25.250   7.617
 2482POPC   C1B34711  29.132  25.022   8.660
 2482POPC   C2B34712  28.881  24.975   8.323
 2482POPC   C3B34713  28.965  24.798   7.908
 2482POPC   C4B34714  29.134  24.822   7.503
 2483POPC   NC334715  32.664  16.768   9.716
 2483POPC   PO434716  32.966  16.459   9.213
 2483POPC   GL134717  33.084  16.802   9.046
 2483POPC   GL234718  32.759  16.946   9.136
 2483POPC   C1A34719  33.167  16.740   8.604
 2483POPC   D2A34720  32.869  16.601   8.261
 2483POPC   C3A34721  32.983  16.709   7.825
 2483POPC   C4A34722  33.189  16.595   7.466
 2483POPC   C1B34723  32.904  17.153   8.725
 2483POPC   C2B34724  33.045  17.124   8.281
 2483POPC   C3B34725  33.112  17.203   7.852
 2483POPC   C4B34726  33.142  17.098   7.400
 2484POPC   NC334727  35.524  10.105   9.462
 2484POPC   PO434728  35.065   9.567   9.500
 2484POPC   GL134729  35.107   9.883   9.197
 2484POPC   GL234730  35.419   9.813   9.064
 2484POPC   C1A34731  34.985   9.819   8.767
 2484POPC   D2A34732  35.157   9.669   8.378
 2484POPC   C3A34733  35.089   9.975   8.083
 2484POPC   C4A34734  34.886   9.936   7.708
 2484POPC   C1B34735  35.574   9.629   8.691
 2484POPC   C2B34736  35.612   9.881   8.326
 2484POPC   C3B34737  35.798   9.880   7.951
 2484POPC   C4B34738  35.707  10.054   7.539
 2485POPC   NC334739  44.447  15.086   9.536
 2485POPC   PO434740  44.815  15.637   9.641
 2485POPC   GL134741  44.805  15.330   9.259
 2485POPC   GL234742  44.846  14.971   9.151
 2485POPC   C1A34743  44.572  15.281   8.851
 2485POPC   D2A34744  44.769  15.205   8.427
 2485POPC   C3A34745  44.572  15.376   8.094
 2485POPC   C4A34746  44.459  15.266   7.709
 2485POPC   C1B34747  44.708  14.803   8.742
 2485POPC   C2B34748  44.423  14.840   8.343
 2485POPC   C3B34749  44.322  14.806   7.875
 2485POPC   C4B34750  44.663  14.766   7.543
 2486POPC   NC334751  17.915  44.887   9.528
 2486POPC   PO434752  17.269  44.805   9.439
 2486POPC   GL134753  17.580  44.608   9.161
 2486POPC   GL234754  17.661  44.926   9.051
 2486POPC   C1A34755  17.592  44.392   8.752
 2486POPC   D2A34756  17.757  44.465   8.341
 2486POPC   C3A34757  17.457  44.612   8.037
 2486POPC   C4A34758  17.276  44.536   7.634
 2486POPC   C1B34759  17.645  44.918   8.597
 2486POPC   C2B34760  17.840  44.974   8.193
 2486POPC   C3B34761  17.827   0.035   7.771
 2486POPC   C4B34762  17.388   0.033   7.692
 2487POPC   NC334763  15.499  12.187   9.379
 2487POPC   PO434764  15.074  11.768   9.424
 2487POPC   GL134765  15.063  12.023   9.053
 2487POPC   GL234766  15.410  12.029   8.907
 2487POPC   C1A34767  15.061  12.247   8.621
 2487POPC   D2A34768  14.948  12.086   8.234
 2487POPC   C3A34769  14.952  12.382   7.908
 2487POPC   C4A34770  15.300  12.426   7.634
 2487POPC   C1B34771  15.150  11.742   8.638
 2487POPC   C2B34772  15.102  11.583   8.264
 2487POPC   C3B34773  15.367  11.780   7.978
 2487POPC   C4B34774  15.465  11.931   7.586
 2488POPC   NC334775  44.911  25.085   9.484
 2488POPC   PO434776  44.281  25.371   9.590
 2488POPC   GL134777  44.548  25.339   9.241
 2488POPC   GL234778  44.497  24.965   9.191
 2488POPC   C1A34779  44.775  25.325   8.850
 2488POPC   D2A34780  44.665  25.257   8.431
 2488POPC   C3A34781  44.583  25.522   8.095
 2488POPC   C4A34782  44.613  25.308   7.690
 2488POPC   C1B34783  44.599  24.840   8.781
 2488POPC   C2B34784  44.381  24.820   8.414
 2488POPC   C3B34785  44.457  24.884   7.970
 2488POPC   C4B34786  44.447  24.828   7.513
 2489POPC   NC334787   0.077  22.771   9.291
 2489POPC   PO434788   0.609  23.072   9.601
 2489POPC   GL134789   0.660  22.904   9.167
 2489POPC   GL234790   0.705  22.545   9.148
 2489POPC   C1A34791   0.841  22.830   8.746
 2489POPC   D2A34792   0.652  22.942   8.371
 2489POPC   C3A34793   0.863  22.879   8.009
 2489POPC   C4A34794   0.670  22.918   7.653
 2489POPC   C1B34795   0.390  22.600   8.757
 2489POPC   C2B34796   0.301  22.589   8.304
 2489POPC   C3B34797   0.241  22.753   7.885
 2489POPC   C4B34798   0.287  22.639   7.450
 2490POPC   NC334799  36.962  29.794   9.643
 2490POPC   PO434800  36.545  30.232   9.462
 2490POPC   GL134801  36.923  30.114   9.181
 2490POPC   GL234802  37.117  29.792   9.154
 2490POPC   C1A34803  36.927  30.050   8.734
 2490POPC   D2A34804  36.730  30.208   8.377
 2490POPC   C3A34805  36.783  29.920   8.079
 2490POPC   C4A34806  36.876  29.879   7.676
 2490POPC   C1B34807  37.140  29.570   8.744
 2490POPC   C2B34808  37.186  29.733   8.330
 2490POPC   C3B34809  37.075  29.507   7.947
 2490POPC   C4B34810  37.083  29.485   7.454
 2491POPC   NC334811   8.730  10.660   9.521
 2491POPC   PO434812   9.195  10.268   9.609
 2491POPC   GL134813   9.095  10.422   9.189
 2491POPC   GL234814   8.742  10.346   9.144
 2491POPC   C1A34815   9.141  10.592   8.756
 2491POPC   D2A34816   8.994  10.496   8.352
 2491POPC   C3A34817   9.221  10.581   7.953
 2491POPC   C4A34818   9.137  10.249   7.666
 2491POPC   C1B34819   8.652  10.704   8.856
 2491POPC   C2B34820   8.822  10.958   8.496
 2491POPC   C3B34821   8.785  10.835   8.054
 2491POPC   C4B34822   8.729  10.451   7.909
 2492POPC   NC334823  15.562  43.775   9.465
 2492POPC   PO434824  16.189  44.072   9.410
 2492POPC   GL134825  15.903  43.934   9.120
 2492POPC   GL234826  15.859  43.585   9.074
 2492POPC   C1A34827  15.771  43.908   8.701
 2492POPC   D2A34828  16.000  43.884   8.330
 2492POPC   C3A34829  15.666  43.921   8.052
 2492POPC   C4A34830  15.584  43.613   7.784
 2492POPC   C1B34831  16.258  43.720   8.814
 2492POPC   C2B34832  16.459  43.651   8.406
 2492POPC   C3B34833  16.202  43.461   8.082
 2492POPC   C4B34834  16.075  43.766   7.800
 2493POPC   NC334835  25.181   4.814   9.523
 2493POPC   PO434836  25.071   5.539   9.466
 2493POPC   GL134837  25.091   5.177   9.152
 2493POPC   GL234838  25.456   5.019   9.103
 2493POPC   C1A34839  25.035   5.173   8.703
 2493POPC   D2A34840  25.074   5.391   8.303
 2493POPC   C3A34841  25.316   5.292   7.924
 2493POPC   C4A34842  25.084   5.186   7.525
 2493POPC   C1B34843  25.431   4.854   8.645
 2493POPC   C2B34844  25.234   4.853   8.208
 2493POPC   C3B34845  25.418   4.801   7.780
 2493POPC   C4B34846  25.832   4.648   7.634
 2494POPC   NC334847   7.747  10.777   9.385
 2494POPC   PO434848   8.430  11.016   9.482
 2494POPC   GL134849   8.229  10.754   9.168
 2494POPC   GL234850   8.237  10.429   9.278
 2494POPC   C1A34851   8.126  10.736   8.726
 2494POPC   D2A34852   8.433  10.627   8.399
 2494POPC   C3A34853   8.247  10.599   8.028
 2494POPC   C4A34854   7.974  10.929   7.853
 2494POPC   C1B34855   8.316  10.283   8.837
 2494POPC   C2B34856   8.051  10.273   8.461
 2494POPC   C3B34857   8.127  10.051   8.096
 2494POPC   C4B34858   8.351  10.143   7.778
 2495POPC   NC334859  26.660   3.033   9.469
 2495POPC   PO434860  26.636   2.322   9.533
 2495POPC   GL134861  26.576   2.610   9.141
 2495POPC   GL234862  26.822   2.889   9.028
 2495POPC   C1A34863  26.445   2.772   8.710
 2495POPC   D2A34864  26.582   2.922   8.329
 2495POPC   C3A34865  26.369   2.843   7.910
 2495POPC   C4A34866  26.472   2.857   7.469
 2495POPC   C1B34867  26.923   2.599   8.724
 2495POPC   C2B34868  27.041   2.651   8.304
 2495POPC   C3B34869  26.840   2.701   7.934
 2495POPC   C4B34870  27.052   2.628   7.571
 2496POPC   NC334871   2.935  13.015   9.660
 2496POPC   PO434872   2.541  12.504   9.697
 2496POPC   GL134873   2.664  12.855   9.297
 2496POPC   GL234874   3.023  12.749   9.201
 2496POPC   C1A34875   2.794  13.109   8.902
 2496POPC   D2A34876   2.692  13.274   8.473
 2496POPC   C3A34877   2.887  12.969   8.161
 2496POPC   C4A34878   2.840  12.962   7.707
 2496POPC   C1B34879   3.122  12.734   8.741
 2496POPC   C2B34880   3.187  12.559   8.309
 2496POPC   C3B34881   3.067  12.563   7.881
 2496POPC   C4B34882   3.039  12.579   7.382
 2497POPC   NC334883  20.860  11.402   9.613
 2497POPC   PO434884  20.346  11.035   9.446
 2497POPC   GL134885  20.534  11.251   9.103
 2497POPC   GL234886  20.626  11.603   9.166
 2497POPC   C1A34887  20.646  11.209   8.678
 2497POPC   D2A34888  20.781  11.324   8.285
 2497POPC   C3A34889  20.442  11.443   8.074
 2497POPC   C4A34890  20.295  11.304   7.733
 2497POPC   C1B34891  20.978  11.537   8.882
 2497POPC   C2B34892  21.143  11.675   8.474
 2497POPC   C3B34893  21.190  11.530   8.049
 2497POPC   C4B34894  20.845  11.434   7.750
 2498POPC   NC334895   2.852   0.212   9.507
 2498POPC   PO434896   2.595   0.903   9.386
 2498POPC   GL134897   2.775   0.603   9.135
 2498POPC   GL234898   2.542   0.352   9.128
 2498POPC   C1A34899   2.857   0.394   8.733
 2498POPC   D2A34900   2.971   0.078   8.426
 2498POPC   C3A34901   2.777   0.230   8.049
 2498POPC   C4A34902   2.674   0.667   7.867
 2498POPC   C1B34903   2.347   0.362   8.741
 2498POPC   C2B34904   2.479   0.489   8.369
 2498POPC   C3B34905   2.267   0.387   8.010
 2498POPC   C4B34906   2.415   0.045   7.760
 2499POPC   NC334907   8.607  18.136   9.331
 2499POPC   PO434908   9.142  17.945   9.768
 2499POPC   GL134909   9.121  18.188   9.322
 2499POPC   GL234910   9.068  17.926   9.132
 2499POPC   C1A34911   9.199  18.370   8.857
 2499POPC   D2A34912   9.327  18.532   8.418
 2499POPC   C3A34913   9.064  18.561   8.052
 2499POPC   C4A34914   9.185  18.674   7.623
 2499POPC   C1B34915   8.896  17.979   8.731
 2499POPC   C2B34916   8.972  18.176   8.377
 2499POPC   C3B34917   9.166  18.070   7.990
 2499POPC   C4B34918   8.830  17.978   7.747
 2500POPC   NC334919  37.708  21.576   9.591
 2500POPC   PO434920  38.019  20.999   9.608
 2500POPC   GL134921  37.904  21.232   9.199
 2500POPC   GL234922  37.857  21.617   9.126
 2500POPC   C1A34923  37.879  21.262   8.735
 2500POPC   D2A34924  37.550  21.275   8.414
 2500POPC   C3A34925  37.704  21.340   8.014
 2500POPC   C4A34926  37.860  21.725   7.892
 2500POPC   C1B34927  37.560  21.659   8.775
 2500POPC   C2B34928  37.630  21.804   8.376
 2500POPC   C3B34929  37.402  21.916   8.052
 2500POPC   C4B34930  37.530  22.022   7.662
 2501POPC   NC334931  16.406  28.976   9.400
 2501POPC   PO434932  15.728  28.928   9.476
 2501POPC   GL134933  15.701  29.087   9.080
 2501POPC   GL234934  16.033  29.114   9.064
 2501POPC   C1A34935  15.463  28.954   8.709
 2501POPC   D2A34936  15.481  28.838   8.287
 2501POPC   C3A34937  15.783  29.074   8.046
 2501POPC   C4A34938  15.978  28.918   7.647
 2501POPC   C1B34939  15.954  29.107   8.621
 2501POPC   C2B34940  15.876  29.454   8.391
 2501POPC   C3B34941  15.988  29.658   8.052
 2501POPC   C4B34942  15.979  29.464   7.694
 2502POPC   NC334943  34.954  44.888   9.457
 2502POPC   PO434944  35.541  44.505   9.573
 2502POPC   GL134945  35.279  44.503   9.220
 2502POPC   GL234946  35.482  44.770   9.137
 2502POPC   C1A34947  35.327  44.391   8.773
 2502POPC   D2A34948  35.196  44.250   8.341
 2502POPC   C3A34949  35.301  44.471   7.932
 2502POPC   C4A34950  35.244  44.550   7.468
 2502POPC   C1B34951  35.606  44.983   8.788
 2502POPC   C2B34952  35.531   0.026   8.390
 2502POPC   C3B34953  35.614  44.871   8.021
 2502POPC   C4B34954  35.346  44.993   7.691
 2503POPC   NC334955   6.576  39.599   9.584
 2503POPC   PO434956   6.804  40.221   9.516
 2503POPC   GL134957   6.886  40.126   9.114
 2503POPC   GL234958   6.836  39.785   9.178
 2503POPC   C1A34959   6.671  40.017   8.723
 2503POPC   D2A34960   6.566  40.253   8.353
 2503POPC   C3A34961   6.423  40.107   7.941
 2503POPC   C4A34962   6.451  40.141   7.475
 2503POPC   C1B34963   6.957  39.591   8.806
 2503POPC   C2B34964   6.798  39.606   8.408
 2503POPC   C3B34965   6.845  39.804   8.030
 2503POPC   C4B34966   6.693  39.700   7.641
 2504POPC   NC334967  17.852  34.338   9.313
 2504POPC   PO434968  17.273  34.156   9.624
 2504POPC   GL134969  17.372  34.253   9.113
 2504POPC   GL234970  17.238  34.558   8.968
 2504POPC   C1A34971  17.627  34.419   8.703
 2504POPC   D2A34972  17.652  34.253   8.274
 2504POPC   C3A34973  17.312  34.311   8.036
 2504POPC   C4A34974  17.477  34.566   7.764
 2504POPC   C1B34975  17.275  34.785   8.594
 2504POPC   C2B34976  17.307  34.836   8.165
 2504POPC   C3B34977  17.402  35.054   7.805
 2504POPC   C4B34978  17.192  35.100   7.421
 2505POPC   NC334979  24.894  40.702   9.680
 2505POPC   PO434980  24.263  40.597   9.467
 2505POPC   GL134981  24.475  40.811   9.127
 2505POPC   GL234982  24.248  41.037   8.963
 2505POPC   C1A34983  24.643  40.731   8.694
 2505POPC   D2A34984  24.770  40.593   8.285
 2505POPC   C3A34985  24.498  40.655   7.931
 2505POPC   C4A34986  24.464  40.680   7.465
 2505POPC   C1B34987  24.615  41.240   8.759
 2505POPC   C2B34988  24.826  41.145   8.370
 2505POPC   C3B34989  24.623  41.165   7.974
 2505POPC   C4B34990  24.244  41.062   7.732
 2506POPC   NC334991   5.086  11.479   9.470
 2506POPC   PO434992   5.366  11.965   9.144
 2506POPC   GL134993   5.143  11.584   8.973
 2506POPC   GL234994   4.779  11.584   9.090
 2506POPC   C1A34995   5.116  11.120   8.775
 2506POPC   D2A34996   5.297  10.919   8.361
 2506POPC   C3A34997   5.432  11.239   8.040
 2506POPC   C4A34998   5.147  11.559   7.808
 2506POPC   C1B34999   4.755  11.476   8.658
 2506POPC   C2B35000   5.058  11.425   8.348
 2506POPC   C3B35001   4.948  11.143   8.039
 2506POPC   C4B35002   4.710  11.225   7.747
 2507POPC   NC335003  31.649  36.294   9.432
 2507POPC   PO435004  31.688  35.640   9.393
 2507POPC   GL135005  31.494  35.876   9.050
 2507POPC   GL235006  31.477  36.218   8.961
 2507POPC   C1A35007  31.553  35.888   8.594
 2507POPC   D2A35008  31.590  36.228   8.335
 2507POPC   C3A35009  31.349  36.063   8.013
 2507POPC   C4A35010  31.516  35.770   7.732
 2507POPC   C1B35011  31.317  36.551   8.775
 2507POPC   C2B35012  31.337  36.673   8.411
 2507POPC   C3B35013  31.334  36.570   8.014
 2507POPC   C4B35014  31.140  36.772   7.729
 2508POPC   NC335015  22.625  34.721   9.429
 2508POPC   PO435016  22.003  34.414   9.508
 2508POPC   GL135017  22.152  34.678   9.175
 2508POPC   GL235018  22.404  34.580   8.983
 2508POPC   C1A35019  21.952  34.597   8.767
 2508POPC   D2A35020  21.794  34.476   8.388
 2508POPC   C3A35021  21.962  34.548   7.995
 2508POPC   C4A35022  21.896  34.829   7.668
 2508POPC   C1B35023  22.369  34.300   8.647
 2508POPC   C2B35024  22.389  34.411   8.258
 2508POPC   C3B35025  22.466  34.353   7.855
 2508POPC   C4B35026  22.221  34.440   7.512
 2509POPC   NC335027  15.478  27.776   9.532
 2509POPC   PO435028  14.828  27.471   9.568
 2509POPC   GL135029  15.048  27.440   9.182
 2509POPC   GL235030  15.148  27.815   9.126
 2509POPC   C1A35031  15.181  27.302   8.760
 2509POPC   D2A35032  15.336  27.499   8.394
 2509POPC   C3A35033  15.202  27.438   7.998
 2509POPC   C4A35034  15.255  27.402   7.576
 2509POPC   C1B35035  15.537  27.928   8.837
 2509POPC   C2B35036  15.729  27.825   8.423
 2509POPC   C3B35037  15.519  27.855   8.019
 2509POPC   C4B35038  15.391  27.907   7.577
 2510POPC   NC335039  18.734  14.734   9.718
 2510POPC   PO435040  18.206  14.282   9.467
 2510POPC   GL135041  18.042  14.352   9.060
 2510POPC   GL235042  18.353  14.453   8.964
 2510POPC   C1A35043  17.984  14.582   8.681
 2510POPC   D2A35044  18.280  14.521   8.355
 2510POPC   C3A35045  18.097  14.264   8.100
 2510POPC   C4A35046  18.182  14.289   7.701
 2510POPC   C1B35047  18.533  14.777   8.696
 2510POPC   C2B35048  18.819  14.714   8.383
 2510POPC   C3B35049  18.624  14.756   8.014
 2510POPC   C4B35050  18.508  14.674   7.613
 2511POPC   NC335051  12.834  27.953   9.486
 2511POPC   PO435052  13.209  27.430   9.571
 2511POPC   GL135053  12.899  27.552   9.186
 2511POPC   GL235054  12.641  27.315   9.053
 2511POPC   C1A35055  12.759  27.738   8.783
 2511POPC   D2A35056  12.957  27.848   8.402
 2511POPC   C3A35057  12.851  27.814   7.976
 2511POPC   C4A35058  13.115  27.818   7.604
 2511POPC   C1B35059  12.722  27.241   8.641
 2511POPC   C2B35060  12.628  27.399   8.220
 2511POPC   C3B35061  12.658  27.184   7.818
 2511POPC   C4B35062  13.031  26.984   7.628
 2512POPC   NC335063  31.097  20.938   9.386
 2512POPC   PO435064  31.649  21.198   9.695
 2512POPC   GL135065  31.480  21.232   9.228
 2512POPC   GL235066  31.323  21.542   9.125
 2512POPC   C1A35067  31.440  21.288   8.730
 2512POPC   D2A35068  31.326  21.517   8.359
 2512POPC   C3A35069  31.569  21.367   8.067
 2512POPC   C4A35070  31.361  21.166   7.749
 2512POPC   C1B35071  31.705  21.679   8.901
 2512POPC   C2B35072  31.821  21.645   8.459
 2512POPC   C3B35073  31.876  21.776   8.034
 2512POPC   C4B35074  31.787  21.666   7.589
 2513POPC   NC335075  15.449  44.685   9.584
 2513POPC   PO435076  14.881  44.996   9.460
 2513POPC   GL135077  15.171  44.780   9.172
 2513POPC   GL235078  15.049  44.452   9.163
 2513POPC   C1A35079  15.458  44.590   8.874
 2513POPC   D2A35080  15.418  44.675   8.427
 2513POPC   C3A35081  15.361  44.633   7.970
 2513POPC   C4A35082  15.126  44.945   7.713
 2513POPC   C1B35083  14.978  44.560   8.707
 2513POPC   C2B35084  14.996  44.396   8.279
 2513POPC   C3B35085  14.846  44.526   7.855
 2513POPC   C4B35086  14.708  44.766   7.466
 2514POPC   NC335087  17.760   4.486   9.644
 2514POPC   PO435088  17.238   4.147   9.663
 2514POPC   GL135089  17.409   4.298   9.276
 2514POPC   GL235090  17.708   4.133   9.253
 2514POPC   C1A35091  17.265   4.265   8.847
 2514POPC   D2A35092  17.376   4.129   8.454
 2514POPC   C3A35093  17.379   4.330   8.097
 2514POPC   C4A35094  17.339   4.121   7.749
 2514POPC   C1B35095  17.760   4.421   8.883
 2514POPC   C2B35096  17.888   4.302   8.470
 2514POPC   C3B35097  17.858   4.158   8.057
 2514POPC   C4B35098  17.768   4.429   7.721
 2515POPC   NC335099  12.868  41.679   9.522
 2515POPC   PO435100  12.988  41.020   9.617
 2515POPC   GL135101  13.041  41.298   9.196
 2515POPC   GL235102  12.751  41.546   9.060
 2515POPC   C1A35103  13.055  41.322   8.711
 2515POPC   D2A35104  12.802  41.458   8.320
 2515POPC   C3A35105  13.027  41.426   7.891
 2515POPC   C4A35106  12.871  41.223   7.485
 2515POPC   C1B35107  12.922  41.806   8.746
 2515POPC   C2B35108  12.770  41.984   8.383
 2515POPC   C3B35109  12.777  41.871   7.955
 2515POPC   C4B35110  12.611  41.652   7.589
 2516POPC   NC335111  30.732  10.410   9.760
 2516POPC   PO435112  30.372  10.819   9.499
 2516POPC   GL135113  30.718  10.607   9.219
 2516POPC   GL235114  30.787  10.252   9.248
 2516POPC   C1A35115  30.800  10.813   8.808
 2516POPC   D2A35116  30.692  10.679   8.406
 2516POPC   C3A35117  30.983  10.806   8.097
 2516POPC   C4A35118  30.867  10.651   7.720
 2516POPC   C1B35119  30.745  10.281   8.770
 2516POPC   C2B35120  30.954  10.230   8.333
 2516POPC   C3B35121  30.946  10.148   7.854
 2516POPC   C4B35122  30.936  10.061   7.372
 2517POPC   NC335123  23.296  10.719   9.484
 2517POPC   PO435124  23.964  10.857   9.483
 2517POPC   GL135125  23.746  10.628   9.117
 2517POPC   GL235126  23.430  10.445   9.080
 2517POPC   C1A35127  23.574  10.762   8.699
 2517POPC   D2A35128  23.400  10.642   8.276
 2517POPC   C3A35129  23.646  10.635   7.915
 2517POPC   C4A35130  23.939  10.971   7.823
 2517POPC   C1B35131  23.518  10.249   8.674
 2517POPC   C2B35132  23.344  10.135   8.273
 2517POPC   C3B35133  23.537  10.089   7.853
 2517POPC   C4B35134  23.562  10.019   7.362
 2518POPC   NC335135  24.329  34.721   9.403
 2518POPC   PO435136  24.594  34.154   9.522
 2518POPC   GL135137  24.599  34.315   9.158
 2518POPC   GL235138  24.256  34.341   9.063
 2518POPC   C1A35139  24.827  34.399   8.807
 2518POPC   D2A35140  24.654  34.385   8.404
 2518POPC   C3A35141  24.746  34.596   8.045
 2518POPC   C4A35142  24.876  34.426   7.632
 2518POPC   C1B35143  24.313  34.629   8.710
 2518POPC   C2B35144  24.194  34.572   8.263
 2518POPC   C3B35145  24.295  34.688   7.836
 2518POPC   C4B35146  24.148  35.043   7.639
 2519POPC   NC335147  11.964  33.087   9.576
 2519POPC   PO435148  11.593  32.835   9.235
 2519POPC   GL135149  12.035  32.949   9.099
 2519POPC   GL235150  12.172  33.295   9.153
 2519POPC   C1A35151  12.252  33.033   8.723
 2519POPC   D2A35152  12.250  33.325   8.387
 2519POPC   C3A35153  12.313  33.089   8.022
 2519POPC   C4A35154  12.361  32.687   7.854
 2519POPC   C1B35155  11.871  33.366   8.781
 2519POPC   C2B35156  11.731  33.328   8.322
 2519POPC   C3B35157  11.826  33.082   7.915
 2519POPC   C4B35158  12.106  33.217   7.548
 2520POPC   NC335159  35.518  15.458   9.510
 2520POPC   PO435160  35.015  14.945   9.553
 2520POPC   GL135161  35.400  14.996   9.255
 2520POPC   GL235162  35.619  14.697   9.123
 2520POPC   C1A35163  35.632  15.148   8.882
 2520POPC   D2A35164  35.728  15.028   8.467
 2520POPC   C3A35165  35.647  15.066   8.026
 2520POPC   C4A35166  35.386  15.023   7.688
 2520POPC   C1B35167  35.352  14.772   8.713
 2520POPC   C2B35168  35.009  14.807   8.415
 2520POPC   C3B35169  35.036  14.828   7.989
 2520POPC   C4B35170  35.135  14.562   7.647
 2521POPC   NC335171   6.042  18.075   9.655
 2521POPC   PO435172   5.717  17.425   9.455
 2521POPC   GL135173   5.893  17.475   9.075
 2521POPC   GL235174   6.226  17.566   9.160
 2521POPC   C1A35175   5.711  17.474   8.698
 2521POPC   D2A35176   5.849  17.556   8.310
 2521POPC   C3A35177   5.635  17.388   7.999
 2521POPC   C4A35178   5.500  17.577   7.610
 2521POPC   C1B35179   6.330  17.326   8.767
 2521POPC   C2B35180   6.304  17.198   8.347
 2521POPC   C3B35181   6.194  17.367   7.953
 2521POPC   C4B35182   5.987  17.619   7.688
 2522POPC   NC335183  19.659  32.564   9.273
 2522POPC   PO435184  20.038  32.069   9.615
 2522POPC   GL135185  19.962  32.133   9.188
 2522POPC   GL235186  20.143  32.421   9.151
 2522POPC   C1A35187  20.098  32.050   8.759
 2522POPC   D2A35188  20.138  32.291   8.374
 2522POPC   C3A35189  19.801  32.306   8.103
 2522POPC   C4A35190  19.507  32.037   7.878
 2522POPC   C1B35191  20.063  32.648   8.756
 2522POPC   C2B35192  20.201  32.805   8.343
 2522POPC   C3B35193  20.069  32.770   7.914
 2522POPC   C4B35194  19.660  32.574   7.708
 2523POPC   NC335195  10.801  24.797   9.923
 2523POPC   PO435196  10.446  25.221   9.517
 2523POPC   GL135197  10.497  25.426   9.136
 2523POPC   GL235198  10.812  25.607   9.078
 2523POPC   C1A35199  10.406  25.686   8.768
 2523POPC   D2A35200  10.216  25.613   8.367
 2523POPC   C3A35201  10.410  25.532   7.981
 2523POPC   C4A35202  10.272  25.250   7.601
 2523POPC   C1B35203  10.752  25.338   8.706
 2523POPC   C2B35204  10.833  25.374   8.244
 2523POPC   C3B35205  10.749  25.184   7.808
 2523POPC   C4B35206  10.790  24.946   7.425
 2524POPC   NC335207  20.905  41.507   9.403
 2524POPC   PO435208  20.435  40.998   9.509
 2524POPC   GL135209  20.445  41.346   9.185
 2524POPC   GL235210  20.345  41.709   9.250
 2524POPC   C1A35211  20.590  41.570   8.789
 2524POPC   D2A35212  20.861  41.606   8.419
 2524POPC   C3A35213  20.841  41.851   8.042
 2524POPC   C4A35214  20.720  41.544   7.745
 2524POPC   C1B35215  20.216  41.902   8.837
 2524POPC   C2B35216  20.432  41.920   8.404
 2524POPC   C3B35217  20.328  41.825   7.958
 2524POPC   C4B35218  20.422  41.860   7.488
 2525POPC   NC335219  21.155  32.164   9.429
 2525POPC   PO435220  21.550  32.709   9.457
 2525POPC   GL135221  21.350  32.544   9.135
 2525POPC   GL235222  21.089  32.730   9.038
 2525POPC   C1A35223  21.468  32.292   8.791
 2525POPC   D2A35224  21.603  32.066   8.456
 2525POPC   C3A35225  21.541  32.234   8.049
 2525POPC   C4A35226  21.681  32.005   7.673
 2525POPC   C1B35227  20.980  32.388   8.786
 2525POPC   C2B35228  21.056  32.200   8.401
 2525POPC   C3B35229  21.027  32.301   7.969
 2525POPC   C4B35230  21.183  31.927   7.775
 2526POPC   NC335231  21.838  31.576   9.538
 2526POPC   PO435232  22.447  31.270   9.545
 2526POPC   GL135233  22.206  31.405   9.221
 2526POPC   GL235234  21.992  31.131   9.178
 2526POPC   C1A35235  22.018  31.513   8.825
 2526POPC   D2A35236  21.889  31.634   8.428
 2526POPC   C3A35237  21.953  31.424   8.038
 2526POPC   C4A35238  22.047  31.662   7.680
 2526POPC   C1B35239  22.340  31.098   8.831
 2526POPC   C2B35240  22.348  31.290   8.424
 2526POPC   C3B35241  22.406  31.184   8.000
 2526POPC   C4B35242  22.420  31.078   7.573
 2527POPC   NC335243  21.135  39.222   9.581
 2527POPC   PO435244  20.474  39.153   9.674
 2527POPC   GL135245  20.705  39.092   9.268
 2527POPC   GL235246  20.620  39.376   9.099
 2527POPC   C1A35247  20.560  38.961   8.819
 2527POPC   D2A35248  20.337  39.256   8.489
 2527POPC   C3A35249  20.456  39.411   8.030
 2527POPC   C4A35250  20.551  39.576   7.594
 2527POPC   C1B35251  20.890  39.318   8.718
 2527POPC   C2B35252  20.800  39.519   8.398
 2527POPC   C3B35253  20.937  39.632   8.041
 2527POPC   C4B35254  20.908  39.274   7.801
 2528POPC   NC335255  38.646  23.770   9.582
 2528POPC   PO435256  38.077  23.781   9.287
 2528POPC   GL135257  38.391  23.697   9.010
 2528POPC   GL235258  38.650  23.467   9.093
 2528POPC   C1A35259  38.262  23.768   8.613
 2528POPC   D2A35260  38.054  23.566   8.332
 2528POPC   C3A35261  38.109  23.815   8.037
 2528POPC   C4A35262  38.218  23.630   7.752
 2528POPC   C1B35263  38.604  23.384   8.633
 2528POPC   C2B35264  38.522  23.466   8.194
 2528POPC   C3B35265  38.664  23.401   7.800
 2528POPC   C4B35266  38.599  23.670   7.444
 2529POPC   NC335267   6.719   8.650   9.432
 2529POPC   PO435268   7.035   9.260   9.432
 2529POPC   GL135269   6.707   9.086   9.122
 2529POPC   GL235270   6.484   8.767   9.023
 2529POPC   C1A35271   6.732   9.066   8.699
 2529POPC   D2A35272   6.476   9.203   8.398
 2529POPC   C3A35273   6.667   9.058   8.056
 2529POPC   C4A35274   6.807   8.928   7.668
 2529POPC   C1B35275   6.296   8.753   8.637
 2529POPC   C2B35276   6.532   8.606   8.285
 2529POPC   C3B35277   6.431   8.624   7.858
 2529POPC   C4B35278   6.492   8.594   7.402
 2530POPC   NC335279  27.098   5.586   9.905
 2530POPC   PO435280  26.714   5.073   9.530
 2530POPC   GL135281  26.901   5.038   9.115
 2530POPC   GL235282  26.780   4.720   9.034
 2530POPC   C1A35283  27.005   5.255   8.715
 2530POPC   D2A35284  26.964   5.127   8.269
 2530POPC   C3A35285  26.750   5.345   7.964
 2530POPC   C4A35286  26.799   5.406   7.506
 2530POPC   C1B35287  26.777   4.820   8.642
 2530POPC   C2B35288  26.606   4.766   8.294
 2530POPC   C3B35289  26.721   4.678   7.917
 2530POPC   C4B35290  26.934   4.926   7.671
 2531POPC   NC335291   3.764  40.446   9.698
 2531POPC   PO435292   3.756  39.779   9.547
 2531POPC   GL135293   3.804  39.972   9.148
 2531POPC   GL235294   3.549  40.172   9.109
 2531POPC   C1A35295   3.655  39.808   8.751
 2531POPC   D2A35296   3.426  39.543   8.473
 2531POPC   C3A35297   3.472  39.723   8.067
 2531POPC   C4A35298   3.431  39.839   7.631
 2531POPC   C1B35299   3.188  40.041   8.833
 2531POPC   C2B35300   3.203  40.046   8.389
 2531POPC   C3B35301   3.341  40.203   8.006
 2531POPC   C4B35302   3.755  40.158   7.882
 2532POPC   NC335303  18.845  10.315   9.355
 2532POPC   PO435304  19.408  10.352   9.607
 2532POPC   GL135305  19.342  10.447   9.171
 2532POPC   GL235306  19.096  10.695   9.070
 2532POPC   C1A35307  19.128  10.260   8.796
 2532POPC   D2A35308  18.944  10.232   8.410
 2532POPC   C3A35309  19.113  10.489   8.104
 2532POPC   C4A35310  19.420  10.291   7.841
 2532POPC   C1B35311  18.912  10.692   8.628
 2532POPC   C2B35312  18.614  10.708   8.281
 2532POPC   C3B35313  18.645  10.698   7.834
 2532POPC   C4B35314  18.915  10.411   7.617
 2533POPC   NC335315   3.849   3.777   9.512
 2533POPC   PO435316   3.395   3.321   9.359
 2533POPC   GL135317   3.730   3.504   9.088
 2533POPC   GL235318   3.876   3.857   9.009
 2533POPC   C1A35319   3.717   3.438   8.675
 2533POPC   D2A35320   3.341   3.427   8.436
 2533POPC   C3A35321   3.477   3.362   8.021
 2533POPC   C4A35322   3.192   3.416   7.720
 2533POPC   C1B35323   3.537   3.902   8.693
 2533POPC   C2B35324   3.502   3.849   8.213
 2533POPC   C3B35325   3.283   3.893   7.808
 2533POPC   C4B35326   3.216   3.881   7.334
 2534POPC   NC335327  10.464  10.775   9.352
 2534POPC   PO435328  10.978  10.343   9.505
 2534POPC   GL135329  10.646  10.287   9.225
 2534POPC   GL235330  10.795  10.547   9.039
 2534POPC   C1A35331  10.455  10.166   8.823
 2534POPC   D2A35332  10.460  10.155   8.393
 2534POPC   C3A35333  10.346  10.583   8.213
 2534POPC   C4A35334  10.179  10.595   7.785
 2534POPC   C1B35335  10.725  10.827   8.685
 2534POPC   C2B35336  10.773  10.934   8.260
 2534POPC   C3B35337  10.705  10.684   7.861
 2534POPC   C4B35338  10.559  10.782   7.455
 2535POPC   NC335339   4.848   6.828   9.581
 2535POPC   PO435340   5.294   6.308   9.613
 2535POPC   GL135341   5.106   6.339   9.199
 2535POPC   GL235342   4.757   6.412   9.136
 2535POPC   C1A35343   5.066   6.519   8.762
 2535POPC   D2A35344   5.089   6.293   8.390
 2535POPC   C3A35345   5.341   6.532   8.171
 2535POPC   C4A35346   5.387   6.657   7.828
 2535POPC   C1B35347   4.682   6.852   8.949
 2535POPC   C2B35348   4.802   7.017   8.551
 2535POPC   C3B35349   4.926   6.821   8.197
 2535POPC   C4B35350   4.937   6.891   7.783
 2536POPC   NC335351   6.940   1.288   9.588
 2536POPC   PO435352   6.324   1.470   9.641
 2536POPC   GL135353   6.427   1.224   9.247
 2536POPC   GL235354   6.733   0.985   9.234
 2536POPC   C1A35355   6.471   1.084   8.804
 2536POPC   D2A35356   6.607   0.957   8.388
 2536POPC   C3A35357   6.525   1.113   7.967
 2536POPC   C4A35358   6.756   1.083   7.576
 2536POPC   C1B35359   6.906   1.299   8.937
 2536POPC   C2B35360   6.957   1.330   8.474
 2536POPC   C3B35361   6.897   1.478   8.064
 2536POPC   C4B35362   7.098   1.467   7.627
 2537POPC   NC335363  24.326  13.532   9.400
 2537POPC   PO435364  24.645  14.080   9.450
 2537POPC   GL135365  24.653  13.787   9.100
 2537POPC   GL235366  24.326  13.866   8.996
 2537POPC   C1A35367  24.718  13.657   8.663
 2537POPC   D2A35368  24.644  13.893   8.263
 2537POPC   C3A35369  24.426  13.779   7.850
 2537POPC   C4A35370  24.429  13.457   7.502
 2537POPC   C1B35371  24.203  13.492   8.754
 2537POPC   C2B35372  24.011  13.389   8.365
 2537POPC   C3B35373  24.100  13.361   7.907
 2537POPC   C4B35374  23.912  13.453   7.482
 2538POPC   NC335375   5.931   1.376   9.392
 2538POPC   PO435376   6.031   2.081   9.574
 2538POPC   GL135377   6.220   2.077   9.175
 2538POPC   GL235378   6.214   1.736   9.190
 2538POPC   C1A35379   6.030   2.160   8.786
 2538POPC   D2A35380   5.649   2.084   8.525
 2538POPC   C3A35381   5.646   2.315   8.132
 2538POPC   C4A35382   5.578   2.161   7.709
 2538POPC   C1B35383   5.986   1.661   8.800
 2538POPC   C2B35384   6.085   1.840   8.397
 2538POPC   C3B35385   5.922   1.865   7.978
 2538POPC   C4B35386   6.075   1.576   7.668
 2539POPC   NC335387  44.598  31.931   9.531
 2539POPC   PO435388  44.536  31.266   9.494
 2539POPC   GL135389  44.591  31.473   9.115
 2539POPC   GL235390  44.886  31.274   9.063
 2539POPC   C1A35391  44.482  31.576   8.690
 2539POPC   D2A35392  44.630  31.737   8.322
 2539POPC   C3A35393  44.576  31.556   7.939
 2539POPC   C4A35394  44.742  31.627   7.575
 2539POPC   C1B35395  44.688  31.119   8.713
 2539POPC   C2B35396  44.691  31.213   8.303
 2539POPC   C3B35397  44.490  31.037   7.974
 2539POPC   C4B35398  44.414  31.201   7.576
 2540POPC   NC335399   8.979  36.374   9.489
 2540POPC   PO435400   8.502  35.958   9.439
 2540POPC   GL135401   8.573  36.344   9.145
 2540POPC   GL235402   8.814  36.626   9.074
 2540POPC   C1A35403   8.622  36.361   8.695
 2540POPC   D2A35404   8.778  36.636   8.402
 2540POPC   C3A35405   8.740  36.372   8.020
 2540POPC   C4A35406   8.783  35.959   7.904
 2540POPC   C1B35407   9.118  36.462   8.759
 2540POPC   C2B35408   9.086  36.216   8.359
 2540POPC   C3B35409   9.228  36.278   7.913
 2540POPC   C4B35410   9.504  36.048   7.622
 2541POPC   NC335411  27.733  31.271   9.469
 2541POPC   PO435412  27.280  31.750   9.379
 2541POPC   GL135413  27.531  31.539   9.061
 2541POPC   GL235414  27.493  31.172   9.034
 2541POPC   C1A35415  27.556  31.464   8.613
 2541POPC   D2A35416  27.217  31.371   8.345
 2541POPC   C3A35417  27.287  31.097   8.022
 2541POPC   C4A35418  27.533  31.268   7.701
 2541POPC   C1B35419  27.911  31.108   8.845
 2541POPC   C2B35420  28.078  31.273   8.474
 2541POPC   C3B35421  27.883  31.265   8.077
 2541POPC   C4B35422  27.993  31.007   7.734
 2542POPC   NC335423  21.351  11.807   9.345
 2542POPC   PO435424  21.883  12.057   9.721
 2542POPC   GL135425  21.704  12.178   9.290
 2542POPC   GL235426  21.377  12.230   9.086
 2542POPC   C1A35427  21.755  12.012   8.859
 2542POPC   D2A35428  21.471  12.065   8.537
 2542POPC   C3A35429  21.506  11.971   8.103
 2542POPC   C4A35430  21.611  12.263   7.777
 2542POPC   C1B35431  21.135  12.378   8.769
 2542POPC   C2B35432  21.003  12.224   8.377
 2542POPC   C3B35433  21.062  12.248   7.949
 2542POPC   C4B35434  21.078  11.905   7.707
 2543POPC   NC335435  17.093  37.500   9.582
 2543POPC   PO435436  17.357  38.032   9.541
 2543POPC   GL135437  16.962  37.912   9.260
 2543POPC   GL235438  16.875  37.576   9.123
 2543POPC   C1A35439  16.804  37.977   8.810
 2543POPC   D2A35440  16.880  37.820   8.381
 2543POPC   C3A35441  16.649  37.820   7.987
 2543POPC   C4A35442  16.959  37.904   7.663
 2543POPC   C1B35443  16.665  37.476   8.712
 2543POPC   C2B35444  16.684  37.361   8.253
 2543POPC   C3B35445  17.000  37.474   7.956
 2543POPC   C4B35446  17.362  37.522   7.740
 2544POPC   NC335447  28.077  35.051   9.381
 2544POPC   PO435448  28.629  35.416   9.466
 2544POPC   GL135449  28.453  35.284   9.114
 2544POPC   GL235450  28.163  35.435   9.031
 2544POPC   C1A35451  28.559  35.419   8.720
 2544POPC   D2A35452  28.492  35.145   8.407
 2544POPC   C3A35453  28.466  35.395   8.070
 2544POPC   C4A35454  28.583  35.361   7.656
 2544POPC   C1B35455  28.035  35.231   8.653
 2544POPC   C2B35456  27.976  35.242   8.204
 2544POPC   C3B35457  28.035  35.360   7.782
 2544POPC   C4B35458  28.103  35.638   7.431
 2545POPC   NC335459  43.519  15.539   9.497
 2545POPC   PO435460  44.000  15.058   9.624
 2545POPC   GL135461  43.869  15.215   9.233
 2545POPC   GL235462  43.758  14.920   9.042
 2545POPC   C1A35463  43.710  15.418   8.846
 2545POPC   D2A35464  43.663  15.164   8.465
 2545POPC   C3A35465  43.524  15.352   8.100
 2545POPC   C4A35466  43.638  15.415   7.700
 2545POPC   C1B35467  44.097  15.119   8.777
 2545POPC   C2B35468  44.162  15.341   8.416
 2545POPC   C3B35469  44.041  15.310   8.001
 2545POPC   C4B35470  44.008  15.099   7.558
 2546POPC   NC335471  40.516  25.643   9.269
 2546POPC   PO435472  41.171  25.414   9.412
 2546POPC   GL135473  40.882  25.240   9.112
 2546POPC   GL235474  41.134  25.016   9.000
 2546POPC   C1A35475  40.745  25.390   8.694
 2546POPC   D2A35476  40.548  25.205   8.344
 2546POPC   C3A35477  40.548  25.356   7.928
 2546POPC   C4A35478  40.315  25.134   7.623
 2546POPC   C1B35479  41.277  25.340   8.771
 2546POPC   C2B35480  41.151  25.249   8.427
 2546POPC   C3B35481  41.013  25.238   8.091
 2546POPC   C4B35482  41.155  25.123   7.748
 2547POPC   NC335483  10.645  25.711   9.548
 2547POPC   PO435484  10.187  26.242   9.647
 2547POPC   GL135485  10.499  26.162   9.323
 2547POPC   GL235486  10.283  25.899   9.216
 2547POPC   C1A35487  10.699  26.090   8.899
 2547POPC   D2A35488  10.867  25.807   8.579
 2547POPC   C3A35489  10.821  25.898   8.138
 2547POPC   C4A35490  10.768  26.099   7.737
 2547POPC   C1B35491  10.212  26.159   8.867
 2547POPC   C2B35492  10.432  26.088   8.449
 2547POPC   C3B35493  10.514  26.338   8.092
 2547POPC   C4B35494  10.166  26.290   7.808
 2548POPC   NC335495  21.664  22.361   9.881
 2548POPC   PO435496  21.064  22.355   9.594
 2548POPC   GL135497  21.215  22.361   9.181
 2548POPC   GL235498  21.234  21.994   9.134
 2548POPC   C1A35499  21.315  22.490   8.715
 2548POPC   D2A35500  21.341  22.469   8.241
 2548POPC   C3A35501  21.568  22.117   8.003
 2548POPC   C4A35502  21.564  21.927   7.574
 2548POPC   C1B35503  20.961  22.118   8.805
 2548POPC   C2B35504  20.873  22.300   8.413
 2548POPC   C3B35505  21.041  22.126   8.000
 2548POPC   C4B35506  21.202  21.690   7.839
 2549POPC   NC335507  35.876  21.894   9.569
 2549POPC   PO435508  36.351  21.358   9.632
 2549POPC   GL135509  36.026  21.429   9.312
 2549POPC   GL235510  36.064  21.736   9.125
 2549POPC   C1A35511  35.959  21.296   8.864
 2549POPC   D2A35512  35.899  21.156   8.450
 2549POPC   C3A35513  36.172  21.201   8.111
 2549POPC   C4A35514  36.235  21.295   7.717
 2549POPC   C1B35515  35.870  21.759   8.708
 2549POPC   C2B35516  36.001  21.661   8.282
 2549POPC   C3B35517  35.960  21.698   7.816
 2549POPC   C4B35518  35.800  21.482   7.446
 2550POPC   NC335519  39.838   1.960   9.553
 2550POPC   PO435520  40.421   1.762   9.444
 2550POPC   GL135521  40.135   1.954   9.151
 2550POPC   GL235522  40.344   2.027   8.923
 2550POPC   C1A35523  39.829   2.022   8.842
 2550POPC   D2A35524  39.789   1.821   8.451
 2550POPC   C3A35525  39.981   1.964   8.081
 2550POPC   C4A35526  39.940   1.697   7.699
 2550POPC   C1B35527  40.241   2.051   8.532
 2550POPC   C2B35528  39.953   2.367   8.435
 2550POPC   C3B35529  40.026   2.507   8.033
 2550POPC   C4B35530  40.365   2.292   7.774
 2551POPC   NC335531  44.636   2.295   9.489
 2551POPC   PO435532  44.910   1.699   9.522
 2551POPC   GL135533  44.917   1.943   9.163
 2551POPC   GL235534  44.563   1.968   9.092
 2551POPC   C1A35535  44.898   1.768   8.734
 2551POPC   D2A35536  44.825   1.924   8.310
 2551POPC   C3A35537  44.862   1.593   8.037
 2551POPC   C4A35538  44.875   1.558   7.620
 2551POPC   C1B35539  44.448   1.995   8.650
 2551POPC   C2B35540  44.208   1.949   8.227
 2551POPC   C3B35541  44.486   2.004   7.871
 2551POPC   C4B35542  44.909   2.090   7.816
 2552POPC   NC335543  42.186  40.334   9.266
 2552POPC   PO435544  42.547  40.710   9.710
 2552POPC   GL135545  42.647  40.876   9.291
 2552POPC   GL235546  42.668  40.551   9.177
 2552POPC   C1A35547  42.634  40.932   8.817
 2552POPC   D2A35548  42.265  40.842   8.521
 2552POPC   C3A35549  42.248  40.921   8.064
 2552POPC   C4A35550  42.455  40.941   7.616
 2552POPC   C1B35551  42.564  40.437   8.722
 2552POPC   C2B35552  42.745  40.680   8.369
 2552POPC   C3B35553  42.665  40.653   7.965
 2552POPC   C4B35554  42.282  40.476   7.751
 2553POPC   NC335555  19.611  36.091   9.633
 2553POPC   PO435556  20.271  36.413   9.644
 2553POPC   GL135557  20.004  36.218   9.282
 2553POPC   GL235558  19.668  36.368   9.169
 2553POPC   C1A35559  19.925  36.065   8.842
 2553POPC   D2A35560  19.788  35.898   8.425
 2553POPC   C3A35561  19.892  36.026   8.034
 2553POPC   C4A35562  20.162  35.968   7.695
 2553POPC   C1B35563  19.588  36.410   8.698
 2553POPC   C2B35564  19.826  36.447   8.310
 2553POPC   C3B35565  19.873  36.507   7.831
 2553POPC   C4B35566  19.663  36.551   7.410
 2554POPC   NC335567  17.639  26.759   9.502
 2554POPC   PO435568  17.987  26.134   9.402
 2554POPC   GL135569  17.711  26.451   9.092
 2554POPC   GL235570  17.346  26.652   9.115
 2554POPC   C1A35571  17.664  26.804   8.763
 2554POPC   D2A35572  17.803  26.987   8.363
 2554POPC   C3A35573  17.653  26.784   7.986
 2554POPC   C4A35574  17.423  26.980   7.653
 2554POPC   C1B35575  17.244  26.495   8.743
 2554POPC   C2B35576  17.328  26.650   8.349
 2554POPC   C3B35577  17.115  26.689   7.951
 2554POPC   C4B35578  17.006  26.646   7.513
 2555POPC   NC335579  31.867  24.129   9.497
 2555POPC   PO435580  31.404  24.632   9.648
 2555POPC   GL135581  31.378  24.644   9.229
 2555POPC   GL235582  31.031  24.632   9.146
 2555POPC   C1A35583  31.652  24.795   8.878
 2555POPC   D2A35584  31.610  24.910   8.447
 2555POPC   C3A35585  31.693  24.638   8.105
 2555POPC   C4A35586  31.434  24.568   7.768
 2555POPC   C1B35587  31.274  24.457   8.775
 2555POPC   C2B35588  31.463  24.289   8.416
 2555POPC   C3B35589  31.341  24.127   8.028
 2555POPC   C4B35590  31.523  23.979   7.661
 2556POPC   NC335591  26.247  17.107   9.482
 2556POPC   PO435592  25.754  17.564   9.551
 2556POPC   GL135593  25.846  17.470   9.150
 2556POPC   GL235594  25.525  17.301   9.080
 2556POPC   C1A35595  26.074  17.643   8.786
 2556POPC   D2A35596  25.933  17.818   8.401
 2556POPC   C3A35597  26.022  17.639   8.041
 2556POPC   C4A35598  26.291  17.480   7.756
 2556POPC   C1B35599  25.647  17.414   8.636
 2556POPC   C2B35600  25.975  17.233   8.380
 2556POPC   C3B35601  25.963  17.106   7.958
 2556POPC   C4B35602  25.757  17.395   7.692
 2557POPC   NC335603  27.825  32.980   9.460
 2557POPC   PO435604  27.238  33.255   9.638
 2557POPC   GL135605  27.438  33.265   9.202
 2557POPC   GL235606  27.487  32.898   9.074
 2557POPC   C1A35607  27.561  33.273   8.724
 2557POPC   D2A35608  27.607  33.210   8.266
 2557POPC   C3A35609  27.355  33.055   7.919
 2557POPC   C4A35610  27.610  33.247   7.604
 2557POPC   C1B35611  27.883  32.868   8.790
 2557POPC   C2B35612  27.977  32.864   8.331
 2557POPC   C3B35613  27.851  32.884   7.871
 2557POPC   C4B35614  27.742  32.755   7.424
 2558POPC   NC335615  14.657   5.774   9.621
 2558POPC   PO435616  14.216   6.203   9.730
 2558POPC   GL135617  14.361   6.051   9.287
 2558POPC   GL235618  14.265   5.671   9.272
 2558POPC   C1A35619  14.545   6.141   8.848
 2558POPC   D2A35620  14.339   6.224   8.448
 2558POPC   C3A35621  14.460   6.135   8.057
 2558POPC   C4A35622  14.852   6.189   7.841
 2558POPC   C1B35623  14.221   5.767   8.852
 2558POPC   C2B35624  14.292   5.687   8.439
 2558POPC   C3B35625  14.181   5.716   8.033
 2558POPC   C4B35626  14.290   5.898   7.629
 2559POPC   NC335627  20.300  14.150   9.405
 2559POPC   PO435628  19.557  14.321   9.483
 2559POPC   GL135629  19.685  14.560   9.125
 2559POPC   GL235630  19.917  14.279   9.084
 2559POPC   C1A35631  19.970  14.675   8.765
 2559POPC   D2A35632  20.122  14.619   8.323
 2559POPC   C3A35633  19.798  14.586   8.001
 2559POPC   C4A35634  19.590  14.207   7.831
 2559POPC   C1B35635  19.583  14.186   8.781
 2559POPC   C2B35636  19.669  14.057   8.352
 2559POPC   C3B35637  20.034  14.115   8.064
 2559POPC   C4B35638  20.072  14.182   7.603
 2560POPC   NC335639  43.255  35.539   9.291
 2560POPC   PO435640  42.709  35.047   9.474
 2560POPC   GL135641  42.943  35.157   9.118
 2560POPC   GL235642  42.766  35.455   9.141
 2560POPC   C1A35643  43.205  35.256   8.725
 2560POPC   D2A35644  43.480  35.137   8.395
 2560POPC   C3A35645  43.460  35.428   8.039
 2560POPC   C4A35646  43.370  35.106   7.763
 2560POPC   C1B35647  42.892  35.658   8.735
 2560POPC   C2B35648  43.022  35.493   8.306
 2560POPC   C3B35649  42.930  35.417   7.859
 2560POPC   C4B35650  42.916  35.578   7.419
 2561POPC   NC335651  21.983  32.565   9.537
 2561POPC   PO435652  22.140  31.938   9.697
 2561POPC   GL135653  22.090  32.115   9.303
 2561POPC   GL235654  21.747  32.220   9.227
 2561POPC   C1A35655  22.108  32.044   8.866
 2561POPC   D2A35656  22.182  32.260   8.490
 2561POPC   C3A35657  22.021  32.046   8.137
 2561POPC   C4A35658  22.165  32.153   7.764
 2561POPC   C1B35659  21.911  32.534   8.896
 2561POPC   C2B35660  21.796  32.584   8.471
 2561POPC   C3B35661  22.008  32.569   8.080
 2561POPC   C4B35662  21.808  32.502   7.700
 2562POPC   NC335663   7.215   6.910   9.402
 2562POPC   PO435664   7.580   6.291   9.437
 2562POPC   GL135665   7.390   6.498   9.109
 2562POPC   GL235666   7.720   6.623   9.014
 2562POPC   C1A35667   7.312   6.728   8.713
 2562POPC   D2A35668   7.066   6.708   8.338
 2562POPC   C3A35669   7.236   6.689   7.917
 2562POPC   C4A35670   7.185   6.784   7.468
 2562POPC   C1B35671   7.590   6.284   8.685
 2562POPC   C2B35672   7.395   6.322   8.277
 2562POPC   C3B35673   7.536   6.271   7.847
 2562POPC   C4B35674   7.549   6.431   7.448
 2563POPC   NC335675  29.045  38.615   9.504
 2563POPC   PO435676  29.554  38.257   9.482
 2563POPC   GL135677  29.270  38.367   9.123
 2563POPC   GL235678  29.363  38.703   9.069
 2563POPC   C1A35679  29.048  38.482   8.700
 2563POPC   D2A35680  29.193  38.661   8.302
 2563POPC   C3A35681  29.025  38.540   7.888
 2563POPC   C4A35682  28.856  38.128   7.743
 2563POPC   C1B35683  29.555  38.465   8.711
 2563POPC   C2B35684  29.544  38.262   8.348
 2563POPC   C3B35685  29.536  38.435   7.939
 2563POPC   C4B35686  29.454  38.779   7.675
 2564POPC   NC335687  14.579  11.796   9.423
 2564POPC   PO435688  14.499  12.530   9.566
 2564POPC   GL135689  14.553  12.302   9.194
 2564POPC   GL235690  14.253  12.086   9.136
 2564POPC   C1A35691  14.564  12.216   8.750
 2564POPC   D2A35692  14.487  11.904   8.438
 2564POPC   C3A35693  14.521  11.932   7.985
 2564POPC   C4A35694  14.916  11.908   7.733
 2564POPC   C1B35695  14.055  11.996   8.715
 2564POPC   C2B35696  14.063  12.112   8.250
 2564POPC   C3B35697  13.996  11.915   7.899
 2564POPC   C4B35698  14.216  11.749   7.586
 2565POPC   NC335699  42.584  15.854   9.658
 2565POPC   PO435700  42.040  16.015   9.646
 2565POPC   GL135701  42.270  15.741   9.276
 2565POPC   GL235702  42.636  15.577   9.223
 2565POPC   C1A35703  42.337  15.721   8.808
 2565POPC   D2A35704  42.152  15.839   8.391
 2565POPC   C3A35705  42.325  15.970   7.984
 2565POPC   C4A35706  42.334  15.774   7.578
 2565POPC   C1B35707  42.842  15.705   8.793
 2565POPC   C2B35708  42.706  15.865   8.349
 2565POPC   C3B35709  42.762  15.723   7.884
 2565POPC   C4B35710  42.870  15.667   7.385
 2566POPC   NC335711   9.872  16.774   9.496
 2566POPC   PO435712   9.259  16.750   9.435
 2566POPC   GL135713   9.542  16.843   9.118
 2566POPC   GL235714   9.647  16.483   9.130
 2566POPC   C1A35715   9.709  16.844   8.690
 2566POPC   D2A35716   9.966  16.884   8.302
 2566POPC   C3A35717   9.684  16.975   7.966
 2566POPC   C4A35718   9.841  17.000   7.527
 2566POPC   C1B35719   9.763  16.327   8.739
 2566POPC   C2B35720   9.798  16.408   8.314
 2566POPC   C3B35721   9.585  16.480   7.955
 2566POPC   C4B35722   9.512  16.596   7.533
 2567POPC   NC335723  28.467  19.336   9.562
 2567POPC   PO435724  28.175  19.942   9.725
 2567POPC   GL135725  28.331  19.789   9.347
 2567POPC   GL235726  28.625  19.963   9.236
 2567POPC   C1A35727  28.282  19.622   8.949
 2567POPC   D2A35728  28.117  19.711   8.551
 2567POPC   C3A35729  28.159  19.386   8.280
 2567POPC   C4A35730  28.287  19.481   7.856
 2567POPC   C1B35731  28.693  19.882   8.781
 2567POPC   C2B35732  28.616  19.675   8.396
 2567POPC   C3B35733  28.615  19.847   7.982
 2567POPC   C4B35734  28.374  20.219   7.867
 2568POPC   NC335735  34.491  18.153   9.512
 2568POPC   PO435736  34.897  18.670   9.424
 2568POPC   GL135737  34.574  18.490   9.109
 2568POPC   GL235738  34.552  18.097   9.028
 2568POPC   C1A35739  34.609  18.433   8.651
 2568POPC   D2A35740  34.717  18.622   8.257
 2568POPC   C3A35741  34.789  18.364   7.898
 2568POPC   C4A35742  34.435  18.379   7.668
 2568POPC   C1B35743  34.343  17.990   8.652
 2568POPC   C2B35744  34.554  18.025   8.259
 2568POPC   C3B35745  34.524  17.902   7.839
 2568POPC   C4B35746  34.400  17.907   7.411
 2569POPC   NC335747  33.559  13.877   9.515
 2569POPC   PO435748  33.750  13.293   9.509
 2569POPC   GL135749  33.682  13.537   9.114
 2569POPC   GL235750  33.889  13.829   9.133
 2569POPC   C1A35751  33.860  13.601   8.664
 2569POPC   D2A35752  33.902  13.406   8.279
 2569POPC   C3A35753  33.660  13.456   7.932
 2569POPC   C4A35754  33.555  13.681   7.601
 2569POPC   C1B35755  34.151  13.977   8.790
 2569POPC   C2B35756  34.267  13.984   8.390
 2569POPC   C3B35757  34.008  13.825   8.037
 2569POPC   C4B35758  34.010  13.998   7.647
 2570POPC   NC335759   9.219  17.213   9.506
 2570POPC   PO435760   8.549  17.329   9.251
 2570POPC   GL135761   8.738  17.550   8.984
 2570POPC   GL235762   9.068  17.418   9.050
 2570POPC   C1A35763   8.790  17.484   8.567
 2570POPC   D2A35764   9.140  17.212   8.419
 2570POPC   C3A35765   9.067  17.054   8.006
 2570POPC   C4A35766   8.890  17.239   7.609
 2570POPC   C1B35767   9.271  17.630   8.757
 2570POPC   C2B35768   9.185  17.706   8.342
 2570POPC   C3B35769   8.951  17.559   8.041
 2570POPC   C4B35770   9.224  17.584   7.717
 2571POPC   NC335771   1.750   5.082   9.469
 2571POPC   PO435772   2.307   5.502   9.485
 2571POPC   GL135773   2.307   5.437   9.050
 2571POPC   GL235774   2.010   5.192   9.051
 2571POPC   C1A35775   2.271   5.272   8.626
 2571POPC   D2A35776   2.026   4.897   8.489
 2571POPC   C3A35777   1.995   4.888   8.045
 2571POPC   C4A35778   2.117   5.178   7.723
 2571POPC   C1B35779   1.781   5.371   8.715
 2571POPC   C2B35780   1.869   5.347   8.268
 2571POPC   C3B35781   1.753   5.511   7.876
 2571POPC   C4B35782   1.680   5.423   7.428
 2572POPC   NC335783  27.760  16.196   9.532
 2572POPC   PO435784  27.553  15.573   9.602
 2572POPC   GL135785  27.421  15.902   9.272
 2572POPC   GL235786  27.748  15.967   9.089
 2572POPC   C1A35787  27.300  16.085   8.860
 2572POPC   D2A35788  27.500  16.172   8.462
 2572POPC   C3A35789  27.335  16.063   8.087
 2572POPC   C4A35790  27.442  16.283   7.731
 2572POPC   C1B35791  27.758  15.790   8.705
 2572POPC   C2B35792  27.893  15.837   8.301
 2572POPC   C3B35793  27.823  15.998   7.891
 2572POPC   C4B35794  27.836  16.077   7.455
 2573POPC   NC335795  13.539  27.718   9.779
 2573POPC   PO435796  13.874  27.390   9.278
 2573POPC   GL135797  13.686  27.625   8.967
 2573POPC   GL235798  13.375  27.753   9.162
 2573POPC   C1A35799  13.818  27.847   8.619
 2573POPC   D2A35800  13.486  27.759   8.339
 2573POPC   C3A35801  13.594  27.534   7.975
 2573POPC   C4A35802  13.856  27.592   7.650
 2573POPC   C1B35803  13.224  27.535   8.775
 2573POPC   C2B35804  13.136  27.372   8.371
 2573POPC   C3B35805  13.117  27.384   7.928
 2573POPC   C4B35806  13.367  27.373   7.522
 2574POPC   NC335807  32.710  39.363   9.756
 2574POPC   PO435808  32.095  39.177   9.511
 2574POPC   GL135809  32.153  39.422   9.112
 2574POPC   GL235810  32.549  39.572   9.041
 2574POPC   C1A35811  32.157  39.163   8.721
 2574POPC   D2A35812  32.286  38.894   8.419
 2574POPC   C3A35813  32.244  39.023   8.033
 2574POPC   C4A35814  32.195  39.368   7.821
 2574POPC   C1B35815  32.365  39.613   8.701
 2574POPC   C2B35816  32.408  39.418   8.326
 2574POPC   C3B35817  32.585  39.611   8.014
 2574POPC   C4B35818  32.356  39.838   7.691
 2575POPC   NC335819  19.506  23.130   9.287
 2575POPC   PO435820  19.890  22.734   9.626
 2575POPC   GL135821  19.898  22.813   9.173
 2575POPC   GL235822  19.962  23.178   9.029
 2575POPC   C1A35823  19.889  22.770   8.741
 2575POPC   D2A35824  19.958  23.082   8.465
 2575POPC   C3A35825  19.972  22.928   8.079
 2575POPC   C4A35826  20.039  22.946   7.634
 2575POPC   C1B35827  19.650  23.410   8.706
 2575POPC   C2B35828  19.585  23.572   8.254
 2575POPC   C3B35829  19.782  23.344   7.884
 2575POPC   C4B35830  19.780  23.342   7.429
 2576POPC   NC335831  43.354  29.012   9.661
 2576POPC   PO435832  42.845  29.441   9.625
 2576POPC   GL135833  42.983  29.121   9.285
 2576POPC   GL235834  43.341  29.164   9.176
 2576POPC   C1A35835  42.902  28.966   8.848
 2576POPC   D2A35836  43.126  28.950   8.433
 2576POPC   C3A35837  42.994  29.047   8.042
 2576POPC   C4A35838  43.044  28.913   7.618
 2576POPC   C1B35839  43.489  29.022   8.771
 2576POPC   C2B35840  43.602  28.794   8.421
 2576POPC   C3B35841  43.504  29.036   8.044
 2576POPC   C4B35842  43.316  29.315   7.734
 2577POPC   NC335843  37.451  11.391   9.722
 2577POPC   PO435844  37.797  11.567   9.249
 2577POPC   GL135845  37.649  11.141   9.154
 2577POPC   GL235846  37.842  10.820   9.256
 2577POPC   C1A35847  37.536  11.203   8.747
 2577POPC   D2A35848  37.656  11.468   8.404
 2577POPC   C3A35849  37.431  11.360   8.039
 2577POPC   C4A35850  37.532  11.379   7.612
 2577POPC   C1B35851  37.965  10.914   8.835
 2577POPC   C2B35852  37.887  11.003   8.424
 2577POPC   C3B35853  38.103  10.947   8.068
 2577POPC   C4B35854  37.930  11.004   7.679
 2578POPC   NC335855  19.405   4.587   9.450
 2578POPC   PO435856  19.266   3.826   9.489
 2578POPC   GL135857  18.956   4.075   9.208
 2578POPC   GL235858  19.069   4.429   9.111
 2578POPC   C1A35859  18.819   4.182   8.768
 2578POPC   D2A35860  19.134   4.169   8.436
 2578POPC   C3A35861  19.000   4.300   8.038
 2578POPC   C4A35862  18.747   4.243   7.673
 2578POPC   C1B35863  19.354   4.548   8.777
 2578POPC   C2B35864  19.264   4.675   8.361
 2578POPC   C3B35865  19.419   4.661   7.930
 2578POPC   C4B35866  19.287   4.352   7.611
 2579POPC   NC335867   8.310  11.445   9.317
 2579POPC   PO435868   8.922  11.464   9.664
 2579POPC   GL135869   8.854  11.532   9.244
 2579POPC   GL235870   8.685  11.825   9.192
 2579POPC   C1A35871   8.938  11.332   8.843
 2579POPC   D2A35872   9.164  11.391   8.459
 2579POPC   C3A35873   8.915  11.311   8.110
 2579POPC   C4A35874   8.869  11.173   7.687
 2579POPC   C1B35875   8.593  11.699   8.794
 2579POPC   C2B35876   8.581  11.869   8.402
 2579POPC   C3B35877   8.572  11.664   8.005
 2579POPC   C4B35878   8.787  11.666   7.630
 2580POPC   NC335879  32.624  23.845   9.609
 2580POPC   PO435880  32.015  23.678   9.450
 2580POPC   GL135881  32.175  23.930   9.137
 2580POPC   GL235882  32.528  24.063   9.175
 2580POPC   C1A35883  32.172  23.763   8.725
 2580POPC   D2A35884  32.525  23.542   8.523
 2580POPC   C3A35885  32.472  23.561   8.109
 2580POPC   C4A35886  32.092  23.658   7.871
 2580POPC   C1B35887  32.410  24.219   8.803
 2580POPC   C2B35888  32.476  24.044   8.413
 2580POPC   C3B35889  32.395  24.083   8.026
 2580POPC   C4B35890  32.537  23.868   7.715
 2581POPC   NC335891  30.650  27.739   9.477
 2581POPC   PO435892  30.459  27.054   9.441
 2581POPC   GL135893  30.557  27.345   9.127
 2581POPC   GL235894  30.920  27.386   9.168
 2581POPC   C1A35895  30.442  27.459   8.686
 2581POPC   D2A35896  30.371  27.425   8.219
 2581POPC   C3A35897  30.656  27.586   7.940
 2581POPC   C4A35898  31.045  27.415   7.876
 2581POPC   C1B35899  30.990  27.611   8.750
 2581POPC   C2B35900  31.019  27.754   8.307
 2581POPC   C3B35901  31.036  27.932   7.886
 2581POPC   C4B35902  30.695  27.984   7.584
 2582POPC   NC335903  24.859  15.756   9.487
 2582POPC   PO435904  24.572  16.341   9.578
 2582POPC   GL135905  24.719  16.138   9.137
 2582POPC   GL235906  24.950  15.854   8.999
 2582POPC   C1A35907  24.522  16.006   8.734
 2582POPC   D2A35908  24.666  15.924   8.314
 2582POPC   C3A35909  24.428  15.966   7.987
 2582POPC   C4A35910  24.375  16.004   7.563
 2582POPC   C1B35911  24.755  15.564   8.676
 2582POPC   C2B35912  24.625  15.400   8.278
 2582POPC   C3B35913  24.841  15.597   7.936
 2582POPC   C4B35914  24.908  15.994   7.747
 2583POPC   NC335915  14.659   9.345   9.445
 2583POPC   PO435916  14.178   9.644   9.759
 2583POPC   GL135917  14.254   9.623   9.195
 2583POPC   GL235918  14.511   9.921   9.064
 2583POPC   C1A35919  14.250   9.761   8.687
 2583POPC   D2A35920  14.611   9.840   8.388
 2583POPC   C3A35921  14.523   9.889   7.941
 2583POPC   C4A35922  14.341   9.765   7.516
 2583POPC   C1B35923  14.717   9.598   8.833
 2583POPC   C2B35924  14.991   9.500   8.492
 2583POPC   C3B35925  14.825   9.462   8.081
 2583POPC   C4B35926  14.837   9.588   7.646
 2584POPC   NC335927  31.786  18.509   9.688
 2584POPC   PO435928  31.161  18.273   9.772
 2584POPC   GL135929  31.312  18.466   9.319
 2584POPC   GL235930  31.668  18.414   9.186
 2584POPC   C1A35931  31.323  18.470   8.824
 2584POPC   D2A35932  31.382  18.130   8.510
 2584POPC   C3A35933  31.420  18.216   8.077
 2584POPC   C4A35934  31.351  18.042   7.722
 2584POPC   C1B35935  31.808  18.402   8.724
 2584POPC   C2B35936  31.696  18.574   8.318
 2584POPC   C3B35937  31.846  18.486   7.920
 2584POPC   C4B35938  31.713  18.335   7.532
 2585POPC   NC335939  34.958  31.156   9.391
 2585POPC   PO435940  34.339  31.443   9.591
 2585POPC   GL135941  34.499  31.303   9.217
 2585POPC   GL235942  34.677  31.615   9.190
 2585POPC   C1A35943  34.579  31.323   8.778
 2585POPC   D2A35944  34.824  31.369   8.442
 2585POPC   C3A35945  34.551  31.336   8.101
 2585POPC   C4A35946  34.734  31.491   7.737
 2585POPC   C1B35947  34.276  31.712   8.923
 2585POPC   C2B35948  34.203  31.715   8.458
 2585POPC   C3B35949  34.368  31.841   8.027
 2585POPC   C4B35950  34.514  31.932   7.586
 2586POPC   NC335951  36.167  20.940   9.641
 2586POPC   PO435952  35.602  20.727   9.433
 2586POPC   GL135953  35.918  20.917   9.180
 2586POPC   GL235954  36.299  21.033   9.136
 2586POPC   C1A35955  36.012  20.768   8.784
 2586POPC   D2A35956  35.895  20.513   8.461
 2586POPC   C3A35957  35.837  20.748   8.116
 2586POPC   C4A35958  36.004  20.557   7.747
 2586POPC   C1B35959  36.390  21.075   8.649
 2586POPC   C2B35960  36.343  20.768   8.277
 2586POPC   C3B35961  36.454  20.809   7.799
 2586POPC   C4B35962  36.734  20.689   7.410
 2587POPC   NC335963  22.303  11.856   9.649
 2587POPC   PO435964  21.739  11.552   9.403
 2587POPC   GL135965  22.085  11.842   9.204
 2587POPC   GL235966  22.214  12.210   9.292
 2587POPC   C1A35967  22.270  11.998   8.807
 2587POPC   D2A35968  22.428  11.745   8.453
 2587POPC   C3A35969  22.460  11.983   8.079
 2587POPC   C4A35970  22.412  11.845   7.682
 2587POPC   C1B35971  22.010  12.452   8.953
 2587POPC   C2B35972  21.934  12.371   8.516
 2587POPC   C3B35973  22.012  12.252   8.101
 2587POPC   C4B35974  22.158  12.275   7.676
 2588POPC   NC335975   5.938   1.356   9.914
 2588POPC   PO435976   5.827   0.918   9.401
 2588POPC   GL135977   6.008   1.007   9.022
 2588POPC   GL235978   5.737   1.204   8.975
 2588POPC   C1A35979   6.039   1.195   8.581
 2588POPC   D2A35980   5.844   1.031   8.248
 2588POPC   C3A35981   6.062   0.866   7.893
 2588POPC   C4A35982   5.898   1.044   7.516
 2588POPC   C1B35983   5.552   1.379   8.683
 2588POPC   C2B35984   5.679   1.528   8.329
 2588POPC   C3B35985   5.691   1.383   7.922
 2588POPC   C4B35986   5.571   1.659   7.617
 2589POPC   NC335987   3.983  11.101   9.407
 2589POPC   PO435988   4.647  11.334   9.509
 2589POPC   GL135989   4.336  11.350   9.158
 2589POPC   GL235990   4.035  11.573   9.223
 2589POPC   C1A35991   4.281  11.256   8.723
 2589POPC   D2A35992   4.474  11.193   8.328
 2589POPC   C3A35993   4.247  11.189   7.974
 2589POPC   C4A35994   4.152  10.893   7.703
 2589POPC   C1B35995   3.872  11.557   8.789
 2589POPC   C2B35996   3.946  11.410   8.355
 2589POPC   C3B35997   4.045  11.647   7.983
 2589POPC   C4B35998   3.833  11.669   7.605
 2590POPC   NC335999   1.046  22.857   9.522
 2590POPC   PO436000   1.066  23.483   9.326
 2590POPC   GL136001   1.133  23.094   9.075
 2590POPC   GL236002   1.196  22.690   9.080
 2590POPC   C1A36003   1.344  23.015   8.718
 2590POPC   D2A36004   1.212  22.838   8.378
 2590POPC   C3A36005   1.329  23.097   8.091
 2590POPC   C4A36006   1.271  23.259   7.738
 2590POPC   C1B36007   1.285  22.457   8.744
 2590POPC   C2B36008   1.545  22.451   8.377
 2590POPC   C3B36009   1.483  22.624   7.958
 2590POPC   C4B36010   1.623  22.870   7.559
 2591POPC   NC336011   6.546   6.152   9.414
 2591POPC   PO436012   6.753   6.776   9.490
 2591POPC   GL136013   6.836   6.532   9.162
 2591POPC   GL236014   6.501   6.644   9.037
 2591POPC   C1A36015   6.846   6.460   8.730
 2591POPC   D2A36016   6.574   6.568   8.399
 2591POPC   C3A36017   6.765   6.439   8.018
 2591POPC   C4A36018   6.692   6.671   7.643
 2591POPC   C1B36019   6.841   6.967   8.844
 2591POPC   C2B36020   6.909   7.182   8.442
 2591POPC   C3B36021   6.789   7.026   8.036
 2591POPC   C4B36022   6.869   7.154   7.625
 2592POPC   NC336023  25.171  13.066   9.410
 2592POPC   PO436024  25.484  12.526   9.601
 2592POPC   GL136025  25.373  12.656   9.185
 2592POPC   GL236026  25.503  13.020   9.034
 2592POPC   C1A36027  25.462  12.604   8.781
 2592POPC   D2A36028  25.525  12.850   8.459
 2592POPC   C3A36029  25.193  12.780   8.160
 2592POPC   C4A36030  25.202  12.517   7.813
 2592POPC   C1B36031  25.097  12.973   8.754
 2592POPC   C2B36032  24.853  13.189   8.397
 2592POPC   C3B36033  24.691  13.351   8.014
 2592POPC   C4B36034  25.021  13.173   7.818
 2593POPC   NC336035  36.281  24.137   9.462
 2593POPC   PO436036  35.832  24.669   9.507
 2593POPC   GL136037  35.955  24.501   9.152
 2593POPC   GL236038  36.276  24.478   9.091
 2593POPC   C1A36039  35.831  24.791   8.806
 2593POPC   D2A36040  35.877  24.799   8.383
 2593POPC   C3A36041  35.981  24.590   8.034
 2593POPC   C4A36042  35.728  24.592   7.724
 2593POPC   C1B36043  36.184  24.464   8.692
 2593POPC   C2B36044  36.365  24.567   8.359
 2593POPC   C3B36045  36.431  24.336   8.006
 2593POPC   C4B36046  36.299  24.503   7.635
 2594POPC   NC336047  28.174  44.238   9.536
 2594POPC   PO436048  28.528  43.660   9.612
 2594POPC   GL136049  28.322  43.765   9.258
 2594POPC   GL236050  27.968  43.808   9.346
 2594POPC   C1A36051  28.400  43.656   8.825
 2594POPC   D2A36052  28.277  43.435   8.433
 2594POPC   C3A36053  28.414  43.611   8.031
 2594POPC   C4A36054  28.647  43.710   7.641
 2594POPC   C1B36055  27.974  43.933   8.910
 2594POPC   C2B36056  28.097  43.922   8.476
 2594POPC   C3B36057  28.055  44.059   8.068
 2594POPC   C4B36058  28.201  43.957   7.706
 2595POPC   NC336059   5.283  44.355   9.634
 2595POPC   PO436060   4.893  44.881   9.446
 2595POPC   GL136061   5.063  44.749   9.074
 2595POPC   GL236062   5.391  44.649   9.165
 2595POPC   C1A36063   4.908  44.894   8.665
 2595POPC   D2A36064   5.162  44.922   8.305
 2595POPC   C3A36065   5.073   0.027   7.895
 2595POPC   C4A36066   5.392   0.016   7.623
 2595POPC   C1B36067   5.432  44.739   8.714
 2595POPC   C2B36068   5.411  44.470   8.334
 2595POPC   C3B36069   5.309  44.518   7.893
 2595POPC   C4B36070   5.317  44.237   7.544
 2596POPC   NC336071  44.319  17.777   9.296
 2596POPC   PO436072  43.983  17.252   9.558
 2596POPC   GL136073  44.104  17.380   9.066
 2596POPC   GL236074  43.930  17.731   8.969
 2596POPC   C1A36075  43.871  17.379   8.619
 2596POPC   D2A36076  43.978  17.284   8.220
 2596POPC   C3A36077  43.747  17.390   7.861
 2596POPC   C4A36078  43.756  17.134   7.508
 2596POPC   C1B36079  44.189  17.772   8.652
 2596POPC   C2B36080  44.121  17.777   8.243
 2596POPC   C3B36081  44.182  17.622   7.879
 2596POPC   C4B36082  44.194  17.941   7.654
 2597POPC   NC336083  28.098  29.134   9.780
 2597POPC   PO436084  28.545  28.750   9.431
 2597POPC   GL136085  28.238  28.968   9.171
 2597POPC   GL236086  27.977  28.762   9.068
 2597POPC   C1A36087  28.238  29.199   8.768
 2597POPC   D2A36088  28.034  29.415   8.430
 2597POPC   C3A36089  28.230  29.333   8.017
 2597POPC   C4A36090  28.472  28.999   7.794
 2597POPC   C1B36091  28.337  28.681   8.756
 2597POPC   C2B36092  28.478  28.889   8.373
 2597POPC   C3B36093  28.135  28.775   8.116
 2597POPC   C4B36094  27.892  28.441   7.899
 2598POPC   NC336095  31.119  19.994   9.716
 2598POPC   PO436096  30.506  19.755   9.526
 2598POPC   GL136097  30.766  19.759   9.195
 2598POPC   GL236098  30.948  20.044   9.241
 2598POPC   C1A36099  30.854  19.599   8.819
 2598POPC   D2A36100  30.884  19.759   8.405
 2598POPC   C3A36101  30.857  19.546   8.012
 2598POPC   C4A36102  30.576  19.716   7.727
 2598POPC   C1B36103  30.970  20.091   8.801
 2598POPC   C2B36104  30.904  20.261   8.405
 2598POPC   C3B36105  30.843  20.096   7.980
 2598POPC   C4B36106  31.031  20.031   7.570
 2599POPC   NC336107  38.601  30.032   9.651
 2599POPC   PO436108  37.994  29.856   9.432
 2599POPC   GL136109  38.270  29.940   9.107
 2599POPC   GL236110  38.622  30.032   9.130
 2599POPC   C1A36111  38.092  30.026   8.701
 2599POPC   D2A36112  38.149  29.860   8.304
 2599POPC   C3A36113  38.522  29.763   8.119
 2599POPC   C4A36114  38.421  29.843   7.699
 2599POPC   C1B36115  38.572  30.174   8.686
 2599POPC   C2B36116  38.500  30.250   8.222
 2599POPC   C3B36117  38.786  30.148   7.819
 2599POPC   C4B36118  38.628  30.196   7.356
 2600POPC   NC336119   9.817   4.585   9.450
 2600POPC   PO436120   9.797   3.947   9.529
 2600POPC   GL136121   9.713   4.148   9.139
 2600POPC   GL236122   9.470   3.889   9.020
 2600POPC   C1A36123   9.857   4.445   8.793
 2600POPC   D2A36124   9.637   4.520   8.393
 2600POPC   C3A36125   9.829   4.471   7.980
 2600POPC   C4A36126   9.663   4.421   7.562
 2600POPC   C1B36127   9.664   3.994   8.622
 2600POPC   C2B36128   9.659   4.032   8.183
 2600POPC   C3B36129   9.853   3.992   7.774
 2600POPC   C4B36130  10.083   4.115   7.399
 2601POPC   NC336131  30.026  11.104   9.617
 2601POPC   PO436132  30.550  11.485   9.517
 2601POPC   GL136133  30.160  11.399   9.248
 2601POPC   GL236134  29.961  11.657   9.121
 2601POPC   C1A36135  29.918  11.203   8.890
 2601POPC   D2A36136  29.720  11.334   8.486
 2601POPC   C3A36137  29.980  11.263   8.079
 2601POPC   C4A36138  29.945  10.997   7.673
 2601POPC   C1B36139  30.109  11.631   8.664
 2601POPC   C2B36140  29.920  11.748   8.263
 2601POPC   C3B36141  29.989  11.734   7.797
 2601POPC   C4B36142  29.966  11.489   7.415
 2602POPC   NC336143   7.468   7.629   9.542
 2602POPC   PO436144   7.667   7.058   9.396
 2602POPC   GL136145   7.512   7.375   9.097
 2602POPC   GL236146   7.703   7.726   9.108
 2602POPC   C1A36147   7.359   7.266   8.685
 2602POPC   D2A36148   7.473   7.026   8.301
 2602POPC   C3A36149   7.300   7.199   7.916
 2602POPC   C4A36150   7.352   7.272   7.453
 2602POPC   C1B36151   7.783   7.576   8.692
 2602POPC   C2B36152   7.589   7.531   8.272
 2602POPC   C3B36153   7.553   7.639   7.823
 2602POPC   C4B36154   7.547   7.753   7.396
 2603POPC   NC336155  17.026   2.864   9.202
 2603POPC   PO436156  17.494   3.238   9.510
 2603POPC   GL136157  17.492   3.049   9.085
 2603POPC   GL236158  17.497   2.684   9.027
 2603POPC   C1A36159  17.271   3.008   8.653
 2603POPC   D2A36160  17.076   3.208   8.304
 2603POPC   C3A36161  17.216   2.990   7.948
 2603POPC   C4A36162  17.641   3.039   7.830
 2603POPC   C1B36163  17.736   2.477   8.663
 2603POPC   C2B36164  17.595   2.302   8.249
 2603POPC   C3B36165  17.481   2.544   7.890
 2603POPC   C4B36166  17.804   2.505   7.603
 2604POPC   NC336167  25.895  39.269   9.825
 2604POPC   PO436168  25.351  39.174   9.543
 2604POPC   GL136169  25.454  39.194   9.107
 2604POPC   GL236170  25.763  39.389   9.098
 2604POPC   C1A36171  25.253  39.226   8.679
 2604POPC   D2A36172  25.386  39.330   8.231
 2604POPC   C3A36173  25.076  39.355   7.873
 2604POPC   C4A36174  25.080  39.658   7.497
 2604POPC   C1B36175  25.760  39.158   8.691
 2604POPC   C2B36176  25.886  39.095   8.268
 2604POPC   C3B36177  25.617  38.950   7.938
 2604POPC   C4B36178  25.338  39.008   7.602
 2605POPC   NC336179   7.505   9.174   9.380
 2605POPC   PO436180   7.260   8.494   9.398
 2605POPC   GL136181   7.502   8.729   9.108
 2605POPC   GL236182   7.186   8.916   9.042
 2605POPC   C1A36183   7.550   8.974   8.697
 2605POPC   D2A36184   7.168   9.021   8.400
 2605POPC   C3A36185   7.230   8.894   7.987
 2605POPC   C4A36186   7.630   9.036   7.836
 2605POPC   C1B36187   7.194   9.329   8.814
 2605POPC   C2B36188   7.435   9.547   8.508
 2605POPC   C3B36189   7.429   9.445   8.089
 2605POPC   C4B36190   7.049   9.358   7.863
 2606POPC   NC336191  30.816  40.739   9.433
 2606POPC   PO436192  30.270  41.086   9.445
 2606POPC   GL136193  30.555  40.935   9.060
 2606POPC   GL236194  30.950  40.940   8.971
 2606POPC   C1A36195  30.615  40.744   8.640
 2606POPC   D2A36196  30.865  40.948   8.377
 2606POPC   C3A36197  30.633  41.029   8.062
 2606POPC   C4A36198  30.556  40.938   7.675
 2606POPC   C1B36199  31.135  40.608   8.704
 2606POPC   C2B36200  30.993  40.405   8.331
 2606POPC   C3B36201  30.906  40.595   7.934
 2606POPC   C4B36202  31.066  40.995   7.804
 2607POPC   NC336203  39.800  13.291   9.485
 2607POPC   PO436204  40.289  13.836   9.498
 2607POPC   GL136205  40.198  13.536   9.200
 2607POPC   GL236206  39.900  13.606   9.102
 2607POPC   C1A36207  40.281  13.486   8.759
 2607POPC   D2A36208  40.202  13.279   8.386
 2607POPC   C3A36209  40.177  13.474   8.046
 2607POPC   C4A36210  40.382  13.354   7.737
 2607POPC   C1B36211  39.806  13.301   8.773
 2607POPC   C2B36212  39.705  13.423   8.366
 2607POPC   C3B36213  39.714  13.297   7.944
 2607POPC   C4B36214  39.868  13.576   7.650
 2608POPC   NC336215  11.446   6.155   9.669
 2608POPC   PO436216  11.323   5.479   9.634
 2608POPC   GL136217  11.312   5.820   9.282
 2608POPC   GL236218  11.600   6.033   9.166
 2608POPC   C1A36219  11.080   5.994   8.922
 2608POPC   D2A36220  10.845   5.722   8.626
 2608POPC   C3A36221  10.962   5.655   8.182
 2608POPC   C4A36222  11.104   5.886   7.802
 2608POPC   C1B36223  11.540   5.850   8.736
 2608POPC   C2B36224  11.404   5.883   8.275
 2608POPC   C3B36225  11.602   5.835   7.859
 2608POPC   C4B36226  11.531   5.863   7.400
 2609POPC   NC336227  30.599  14.226  10.041
 2609POPC   PO436228  30.847  14.270   9.428
 2609POPC   GL136229  30.785  14.598   9.145
 2609POPC   GL236230  30.471  14.610   9.065
 2609POPC   C1A36231  30.820  14.611   8.687
 2609POPC   D2A36232  30.717  14.325   8.339
 2609POPC   C3A36233  30.566  14.582   8.053
 2609POPC   C4A36234  30.717  14.702   7.682
 2609POPC   C1B36235  30.410  14.275   8.742
 2609POPC   C2B36236  30.204  14.148   8.366
 2609POPC   C3B36237  30.383  14.125   7.944
 2609POPC   C4B36238  30.457  14.112   7.495
 2610POPC   NC336239  34.252  21.938   9.401
 2610POPC   PO436240  34.830  22.422   9.485
 2610POPC   GL136241  34.701  22.130   9.166
 2610POPC   GL236242  34.745  21.765   9.219
 2610POPC   C1A36243  34.463  22.296   8.822
 2610POPC   D2A36244  34.595  22.530   8.455
 2610POPC   C3A36245  34.705  22.237   8.148
 2610POPC   C4A36246  34.744  22.295   7.718
 2610POPC   C1B36247  34.537  21.731   8.808
 2610POPC   C2B36248  34.555  21.761   8.342
 2610POPC   C3B36249  34.458  21.865   7.886
 2610POPC   C4B36250  34.450  21.809   7.413
 2611POPC   NC336251  34.494  22.808   9.530
 2611POPC   PO436252  35.062  23.157   9.627
 2611POPC   GL136253  34.726  23.207   9.254
 2611POPC   GL236254  34.349  23.158   9.172
 2611POPC   C1A36255  34.670  23.234   8.785
 2611POPC   D2A36256  34.426  23.150   8.420
 2611POPC   C3A36257  34.592  22.944   8.075
 2611POPC   C4A36258  34.851  22.962   7.714
 2611POPC   C1B36259  34.337  22.818   8.824
 2611POPC   C2B36260  34.130  22.721   8.387
 2611POPC   C3B36261  34.289  22.541   8.004
 2611POPC   C4B36262  34.428  22.709   7.628
 2612POPC   NC336263  30.036  19.896   9.586
 2612POPC   PO436264  29.564  19.686   9.152
 2612POPC   GL136265  29.926  19.918   9.077
 2612POPC   GL236266  30.243  19.803   9.107
 2612POPC   C1A36267  30.014  19.784   8.662
 2612POPC   D2A36268  29.771  19.858   8.361
 2612POPC   C3A36269  29.940  19.701   7.995
 2612POPC   C4A36270  29.619  19.830   7.715
 2612POPC   C1B36271  30.491  19.947   8.746
 2612POPC   C2B36272  30.438  20.066   8.320
 2612POPC   C3B36273  30.319  20.142   7.892
 2612POPC   C4B36274  30.110  19.920   7.564
 2613POPC   NC336275  25.494   0.139   9.528
 2613POPC   PO436276  24.927   0.536   9.535
 2613POPC   GL136277  25.189   0.605   9.108
 2613POPC   GL236278  25.426   0.349   9.085
 2613POPC   C1A36279  25.209   0.441   8.653
 2613POPC   D2A36280  25.084   0.295   8.268
 2613POPC   C3A36281  25.168   0.577   7.925
 2613POPC   C4A36282  24.900   0.797   7.644
 2613POPC   C1B36283  25.698   0.035   8.874
 2613POPC   C2B36284  25.549   0.024   8.447
 2613POPC   C3B36285  25.608   0.126   8.025
 2613POPC   C4B36286  25.364   0.188   7.654
 2614POPC   NC336287  42.419  29.362   9.736
 2614POPC   PO436288  41.963  28.937   9.443
 2614POPC   GL136289  42.291  29.079   9.160
 2614POPC   GL236290  42.508  29.326   9.243
 2614POPC   C1A36291  42.348  28.991   8.742
 2614POPC   D2A36292  41.995  28.989   8.506
 2614POPC   C3A36293  42.137  28.968   8.083
 2614POPC   C4A36294  42.042  28.638   7.781
 2614POPC   C1B36295  42.621  29.409   8.840
 2614POPC   C2B36296  42.745  29.287   8.455
 2614POPC   C3B36297  42.545  29.277   8.080
 2614POPC   C4B36298  42.544  28.966   7.774
 2615POPC   NC336299  32.675  42.862   9.462
 2615POPC   PO436300  32.111  42.793   9.833
 2615POPC   GL136301  32.075  42.901   9.317
 2615POPC   GL236302  32.327  42.763   9.081
 2615POPC   C1A36303  32.032  43.111   8.883
 2615POPC   D2A36304  32.209  42.912   8.489
 2615POPC   C3A36305  32.027  42.877   8.075
 2615POPC   C4A36306  31.887  43.193   7.737
 2615POPC   C1B36307  32.616  42.981   8.810
 2615POPC   C2B36308  32.640  43.214   8.431
 2615POPC   C3B36309  32.579  43.010   8.069
 2615POPC   C4B36310  32.361  42.992   7.719
 2616POPC   NC336311  24.868  36.735   9.588
 2616POPC   PO436312  24.445  37.328   9.477
 2616POPC   GL136313  24.577  37.027   9.196
 2616POPC   GL236314  24.286  36.796   9.111
 2616POPC   C1A36315  24.684  36.891   8.782
 2616POPC   D2A36316  24.463  36.749   8.430
 2616POPC   C3A36317  24.556  36.786   8.005
 2616POPC   C4A36318  24.193  36.754   7.765
 2616POPC   C1B36319  24.242  37.149   8.794
 2616POPC   C2B36320  24.249  37.341   8.360
 2616POPC   C3B36321  24.111  37.261   7.906
 2616POPC   C4B36322  24.210  37.328   7.447
 2617POPC   NC336323   5.287   0.115   9.350
 2617POPC   PO436324   4.873   0.636   9.502
 2617POPC   GL136325   4.996   0.509   9.141
 2617POPC   GL236326   4.806   0.220   9.074
 2617POPC   C1A36327   5.226   0.605   8.795
 2617POPC   D2A36328   5.399   0.333   8.522
 2617POPC   C3A36329   5.416   0.372   8.073
 2617POPC   C4A36330   5.185   0.495   7.705
 2617POPC   C1B36331   4.800   0.395   8.671
 2617POPC   C2B36332   4.910   0.373   8.239
 2617POPC   C3B36333   4.701   0.427   7.825
 2617POPC   C4B36334   4.487   0.390   7.401
 2618POPC   NC336335  39.135  12.080   9.502
 2618POPC   PO436336  38.771  11.532   9.473
 2618POPC   GL136337  39.024  11.764   9.132
 2618POPC   GL236338  39.381  11.778   9.138
 2618POPC   C1A36339  39.011  12.145   8.825
 2618POPC   D2A36340  38.874  12.390   8.429
 2618POPC   C3A36341  39.061  12.257   8.095
 2618POPC   C4A36342  39.155  11.970   7.812
 2618POPC   C1B36343  39.450  11.927   8.709
 2618POPC   C2B36344  39.515  12.035   8.256
 2618POPC   C3B36345  39.610  11.785   7.865
 2618POPC   C4B36346  39.571  11.660   7.416
 2619POPC   NC336347  36.176   9.370   9.654
 2619POPC   PO436348  35.942  10.017   9.651
 2619POPC   GL136349  36.013  10.030   9.203
 2619POPC   GL236350  35.911   9.717   9.188
 2619POPC   C1A36351  35.872  10.057   8.759
 2619POPC   D2A36352  36.035  10.179   8.348
 2619POPC   C3A36353  36.296   9.917   8.063
 2619POPC   C4A36354  36.157   9.610   7.727
 2619POPC   C1B36355  36.205   9.672   8.843
 2619POPC   C2B36356  36.082   9.635   8.433
 2619POPC   C3B36357  35.805   9.398   8.203
 2619POPC   C4B36358  35.737   9.267   7.806
 2620POPC   NC336359  36.677  21.718   9.630
 2620POPC   PO436360  37.303  21.656   9.374
 2620POPC   GL136361  36.884  21.663   9.134
 2620POPC   GL236362  36.530  21.520   9.151
 2620POPC   C1A36363  36.854  21.485   8.714
 2620POPC   D2A36364  37.143  21.626   8.399
 2620POPC   C3A36365  37.196  21.455   7.982
 2620POPC   C4A36366  36.994  21.622   7.622
 2620POPC   C1B36367  36.354  21.591   8.706
 2620POPC   C2B36368  36.531  21.527   8.268
 2620POPC   C3B36369  36.706  21.291   7.912
 2620POPC   C4B36370  36.651  21.182   7.469
 2621POPC   NC336371   1.643  38.283   9.355
 2621POPC   PO436372   2.256  38.187   9.570
 2621POPC   GL136373   2.148  38.425   9.206
 2621POPC   GL236374   1.904  38.735   9.171
 2621POPC   C1A36375   2.153  38.484   8.776
 2621POPC   D2A36376   1.935  38.237   8.460
 2621POPC   C3A36377   1.934  38.427   8.051
 2621POPC   C4A36378   2.195  38.588   7.717
 2621POPC   C1B36379   1.669  38.626   8.763
 2621POPC   C2B36380   1.502  38.552   8.346
 2621POPC   C3B36381   1.530  38.711   7.914
 2621POPC   C4B36382   1.710  38.706   7.503
 2622POPC   NC336383  43.715  39.372   9.715
 2622POPC   PO436384  44.258  39.009   9.554
 2622POPC   GL136385  43.997  39.336   9.269
 2622POPC   GL236386  43.591  39.341   9.214
 2622POPC   C1A36387  43.894  39.419   8.825
 2622POPC   D2A36388  43.998  39.177   8.456
 2622POPC   C3A36389  43.884  39.368   8.075
 2622POPC   C4A36390  43.817  39.272   7.650
 2622POPC   C1B36391  43.533  39.017   8.863
 2622POPC   C2B36392  43.638  38.814   8.446
 2622POPC   C3B36393  43.796  38.879   7.989
 2622POPC   C4B36394  43.520  38.877   7.587
 2623POPC   NC336395  37.612  29.602   9.377
 2623POPC   PO436396  37.256  30.157   9.582
 2623POPC   GL136397  37.465  30.180   9.190
 2623POPC   GL236398  37.815  30.188   9.091
 2623POPC   C1A36399  37.457  29.965   8.807
 2623POPC   D2A36400  37.671  29.867   8.446
 2623POPC   C3A36401  37.550  30.024   8.052
 2623POPC   C4A36402  37.417  29.770   7.707
 2623POPC   C1B36403  37.716  30.427   8.736
 2623POPC   C2B36404  37.873  30.400   8.296
 2623POPC   C3B36405  38.035  30.178   7.909
 2623POPC   C4B36406  38.145  30.192   7.448
 2624POPC   NC336407  10.640  39.248   9.560
 2624POPC   PO436408  11.264  39.319   9.651
 2624POPC   GL136409  11.219  39.260   9.246
 2624POPC   GL236410  10.957  39.098   9.199
 2624POPC   C1A36411  11.310  39.289   8.841
 2624POPC   D2A36412  11.450  39.525   8.515
 2624POPC   C3A36413  11.345  39.485   8.098
 2624POPC   C4A36414  11.540  39.304   7.736
 2624POPC   C1B36415  10.789  39.321   8.907
 2624POPC   C2B36416  10.911  39.319   8.496
 2624POPC   C3B36417  10.834  39.434   8.108
 2624POPC   C4B36418  10.994  39.345   7.733
 2625POPC   NC336419  44.335  22.812   9.419
 2625POPC   PO436420  43.694  23.055   9.478
 2625POPC   GL136421  43.917  22.951   9.145
 2625POPC   GL236422  43.893  22.600   9.271
 2625POPC   C1A36423  44.052  22.961   8.703
 2625POPC   D2A36424  44.215  22.835   8.289
 2625POPC   C3A36425  43.957  23.007   7.961
 2625POPC   C4A36426  44.112  23.370   7.746
 2625POPC   C1B36427  43.749  22.581   8.850
 2625POPC   C2B36428  43.712  22.659   8.380
 2625POPC   C3B36429  43.541  22.707   7.948
 2625POPC   C4B36430  43.541  22.693   7.485
 2626POPC   NC336431  20.145  20.547   9.681
 2626POPC   PO436432  20.666  20.562   9.274
 2626POPC   GL136433  20.433  20.420   8.985
 2626POPC   GL236434  20.170  20.651   9.168
 2626POPC   C1A36435  20.597  20.584   8.560
 2626POPC   D2A36436  20.864  20.808   8.265
 2626POPC   C3A36437  20.839  20.556   7.930
 2626POPC   C4A36438  20.477  20.314   7.820
 2626POPC   C1B36439  20.192  20.803   8.769
 2626POPC   C2B36440  20.270  20.968   8.373
 2626POPC   C3B36441  20.358  20.808   7.970
 2626POPC   C4B36442  20.265  21.088   7.635
 2627POPC   NC336443  44.887  40.482   9.288
 2627POPC   PO436444  44.784  39.854   9.464
 2627POPC   GL136445  44.750  39.976   9.083
 2627POPC   GL236446  44.508  40.250   9.010
 2627POPC   C1A36447  44.891  39.748   8.727
 2627POPC   D2A36448  44.754  39.620   8.329
 2627POPC   C3A36449  44.551  39.889   8.022
 2627POPC   C4A36450  44.401  40.249   7.753
 2627POPC   C1B36451  44.868  40.260   8.697
 2627POPC   C2B36452  44.973  40.085   8.325
 2627POPC   C3B36453  44.871  40.301   7.982
 2627POPC   C4B36454  44.890  40.503   7.607
 2628POPC   NC336455  12.011  28.720   9.556
 2628POPC   PO436456  12.293  29.306   9.504
 2628POPC   GL136457  12.243  29.058   9.188
 2628POPC   GL236458  11.907  29.084   9.176
 2628POPC   C1A36459  12.290  29.082   8.773
 2628POPC   D2A36460  11.993  29.097   8.435
 2628POPC   C3A36461  12.139  29.235   8.022
 2628POPC   C4A36462  11.987  29.551   7.770
 2628POPC   C1B36463  11.882  28.779   8.840
 2628POPC   C2B36464  11.730  28.634   8.450
 2628POPC   C3B36465  11.690  28.633   8.023
 2628POPC   C4B36466  11.849  28.910   7.738
 2629POPC   NC336467  34.221  25.012   9.523
 2629POPC   PO436468  33.790  25.523   9.591
 2629POPC   GL136469  33.782  25.286   9.173
 2629POPC   GL236470  33.987  24.983   9.072
 2629POPC   C1A36471  33.609  25.141   8.765
 2629POPC   D2A36472  33.603  25.307   8.349
 2629POPC   C3A36473  33.755  25.134   7.951
 2629POPC   C4A36474  34.143  25.303   7.738
 2629POPC   C1B36475  34.200  24.950   8.656
 2629POPC   C2B36476  34.277  24.990   8.178
 2629POPC   C3B36477  34.135  24.804   7.768
 2629POPC   C4B36478  34.120  24.949   7.327
 2630POPC   NC336479  19.217  44.439   9.376
 2630POPC   PO436480  18.823  43.876   9.490
 2630POPC   GL136481  18.847  44.093   9.130
 2630POPC   GL236482  18.504  44.126   9.072
 2630POPC   C1A36483  19.087  43.895   8.786
 2630POPC   D2A36484  19.317  43.543   8.602
 2630POPC   C3A36485  19.279  43.639   8.167
 2630POPC   C4A36486  19.224  43.575   7.724
 2630POPC   C1B36487  18.605  44.025   8.646
 2630POPC   C2B36488  18.763  43.787   8.295
 2630POPC   C3B36489  18.790  43.876   7.841
 2630POPC   C4B36490  18.565  44.065   7.472
 2631POPC   NC336491  33.274  38.906   9.398
 2631POPC   PO436492  33.894  39.260   9.472
 2631POPC   GL136493  33.827  39.445   9.119
 2631POPC   GL236494  33.484  39.368   9.067
 2631POPC   C1A36495  34.007  39.605   8.754
 2631POPC   D2A36496  33.884  39.569   8.343
 2631POPC   C3A36497  34.134  39.341   8.054
 2631POPC   C4A36498  34.026  39.047   7.725
 2631POPC   C1B36499  33.704  39.170   8.701
 2631POPC   C2B36500  33.713  39.063   8.256
 2631POPC   C3B36501  33.567  39.253   7.869
 2631POPC   C4B36502  33.591  39.299   7.412
 2632POPC   NC336503  12.631  10.229   9.548
 2632POPC   PO436504  12.550  10.830   9.374
 2632POPC   GL136505  12.741  10.571   9.076
 2632POPC   GL236506  13.010  10.405   9.228
 2632POPC   C1A36507  12.858  10.470   8.638
 2632POPC   D2A36508  12.584  10.313   8.287
 2632POPC   C3A36509  12.695  10.500   7.938
 2632POPC   C4A36510  13.071  10.711   7.920
 2632POPC   C1B36511  13.101  10.114   8.927
 2632POPC   C2B36512  13.251  10.095   8.479
 2632POPC   C3B36513  13.084  10.164   8.044
 2632POPC   C4B36514  13.107  10.310   7.605
 2633POPC   NC336515  21.336  38.100   9.537
 2633POPC   PO436516  21.132  38.756   9.531
 2633POPC   GL136517  21.326  38.479   9.199
 2633POPC   GL236518  21.117  38.174   9.092
 2633POPC   C1A36519  21.477  38.473   8.796
 2633POPC   D2A36520  21.410  38.680   8.401
 2633POPC   C3A36521  21.392  38.511   8.009
 2633POPC   C4A36522  21.168  38.764   7.727
 2633POPC   C1B36523  20.999  38.335   8.725
 2633POPC   C2B36524  21.083  38.233   8.342
 2633POPC   C3B36525  20.939  38.300   7.935
 2633POPC   C4B36526  21.220  38.251   7.581
 2634POPC   NC336527  37.965  32.892   9.492
 2634POPC   PO436528  37.513  33.431   9.446
 2634POPC   GL136529  37.498  33.179   9.105
 2634POPC   GL236530  37.615  32.831   9.079
 2634POPC   C1A36531  37.565  33.192   8.685
 2634POPC   D2A36532  37.829  33.448   8.445
 2634POPC   C3A36533  37.711  33.432   8.047
 2634POPC   C4A36534  37.614  33.273   7.695
 2634POPC   C1B36535  37.866  32.771   8.704
 2634POPC   C2B36536  38.096  32.980   8.385
 2634POPC   C3B36537  37.896  32.950   7.988
 2634POPC   C4B36538  37.468  32.792   7.832
 2635POPC   NC336539  27.831  30.555   9.668
 2635POPC   PO436540  27.304  30.997   9.512
 2635POPC   GL136541  27.544  30.705   9.251
 2635POPC   GL236542  27.917  30.722   9.188
 2635POPC   C1A36543  27.555  30.717   8.808
 2635POPC   D2A36544  27.633  30.981   8.432
 2635POPC   C3A36545  27.670  30.756   8.037
 2635POPC   C4A36546  27.563  30.771   7.573
 2635POPC   C1B36547  27.902  30.364   8.904
 2635POPC   C2B36548  27.742  30.391   8.477
 2635POPC   C3B36549  27.905  30.300   8.122
 2635POPC   C4B36550  27.957  30.468   7.731
 2636POPC   NC336551   4.247  43.759   9.703
 2636POPC   PO436552   4.755  43.927   9.287
 2636POPC   GL136553   4.390  43.875   9.060
 2636POPC   GL236554   4.084  44.099   9.109
 2636POPC   C1A36555   4.458  43.995   8.662
 2636POPC   D2A36556   4.734  43.968   8.295
 2636POPC   C3A36557   4.471  43.825   7.956
 2636POPC   C4A36558   4.445  44.009   7.542
 2636POPC   C1B36559   3.904  44.034   8.674
 2636POPC   C2B36560   3.833  44.244   8.272
 2636POPC   C3B36561   4.052  44.122   7.922
 2636POPC   C4B36562   4.051  43.722   7.695
 2637POPC   NC336563   2.239   9.764   9.822
 2637POPC   PO436564   2.847   9.727   9.403
 2637POPC   GL136565   2.865   9.648   8.973
 2637POPC   GL236566   2.585   9.421   8.795
 2637POPC   C1A36567   3.025   9.597   8.580
 2637POPC   D2A36568   2.792   9.423   8.253
 2637POPC   C3A36569   2.865   9.636   7.869
 2637POPC   C4A36570   2.636   9.733   7.526
 2637POPC   C1B36571   2.562   9.848   8.620
 2637POPC   C2B36572   2.408  10.134   8.306
 2637POPC   C3B36573   2.518  10.057   7.915
 2637POPC   C4B36574   2.649  10.243   7.577
 2638POPC   NC336575  18.784  33.843   9.524
 2638POPC   PO436576  19.414  34.205   9.534
 2638POPC   GL136577  19.157  34.019   9.194
 2638POPC   GL236578  19.146  33.626   9.187
 2638POPC   C1A36579  18.998  33.928   8.791
 2638POPC   D2A36580  18.956  34.142   8.417
 2638POPC   C3A36581  19.019  34.013   8.038
 2638POPC   C4A36582  18.936  34.169   7.656
 2638POPC   C1B36583  18.824  33.459   8.861
 2638POPC   C2B36584  18.942  33.564   8.417
 2638POPC   C3B36585  18.903  33.524   7.966
 2638POPC   C4B36586  18.893  33.675   7.539
 2639POPC   NC336587  35.675  31.722   9.216
 2639POPC   PO436588  35.330  32.137   9.654
 2639POPC   GL136589  35.384  32.229   9.187
 2639POPC   GL236590  35.707  32.206   9.047
 2639POPC   C1A36591  35.221  32.340   8.749
 2639POPC   D2A36592  34.965  32.655   8.465
 2639POPC   C3A36593  35.033  32.707   8.007
 2639POPC   C4A36594  35.366  32.454   7.820
 2639POPC   C1B36595  35.643  32.035   8.617
 2639POPC   C2B36596  35.611  32.183   8.196
 2639POPC   C3B36597  35.586  31.991   7.774
 2639POPC   C4B36598  35.524  31.693   7.411
 2640POPC   NC336599  28.833  22.946   9.668
 2640POPC   PO436600  29.443  22.691   9.592
 2640POPC   GL136601  29.354  22.824   9.180
 2640POPC   GL236602  29.158  23.123   9.145
 2640POPC   C1A36603  29.253  22.820   8.736
 2640POPC   D2A36604  29.343  23.115   8.425
 2640POPC   C3A36605  29.289  22.884   8.097
 2640POPC   C4A36606  29.314  23.080   7.774
 2640POPC   C1B36607  28.948  23.254   8.725
 2640POPC   C2B36608  28.864  23.167   8.244
 2640POPC   C3B36609  28.837  22.921   7.847
 2640POPC   C4B36610  28.651  23.016   7.398
 2641POPC   NC336611   0.124  11.795   9.400
 2641POPC   PO436612  44.943  12.394   9.410
 2641POPC   GL136613  44.749  12.278   9.047
 2641POPC   GL236614  44.716  11.925   9.063
 2641POPC   C1A36615  44.772  12.314   8.624
 2641POPC   D2A36616  44.975  12.058   8.320
 2641POPC   C3A36617  44.876  12.212   7.912
 2641POPC   C4A36618  44.582  12.526   7.855
 2641POPC   C1B36619  44.523  11.884   8.633
 2641POPC   C2B36620  44.470  12.144   8.237
 2641POPC   C3B36621  44.309  12.103   7.802
 2641POPC   C4B36622  44.154  12.122   7.359
 2642POPC   NC336623  32.405  38.435   9.545
 2642POPC   PO436624  31.764  38.597   9.328
 2642POPC   GL136625  32.086  38.494   9.128
 2642POPC   GL236626  32.243  38.790   9.129
 2642POPC   C1A36627  32.111  38.350   8.736
 2642POPC   D2A36628  32.383  38.328   8.406
 2642POPC   C3A36629  32.201  38.523   8.093
 2642POPC   C4A36630  32.295  38.326   7.776
 2642POPC   C1B36631  32.508  38.680   8.805
 2642POPC   C2B36632  32.766  38.673   8.461
 2642POPC   C3B36633  32.669  38.673   8.031
 2642POPC   C4B36634  32.531  38.740   7.602
 2643POPC   NC336635   5.700  15.348   9.475
 2643POPC   PO436636   6.344  14.974   9.383
 2643POPC   GL136637   6.058  15.139   9.129
 2643POPC   GL236638   6.103  15.460   9.179
 2643POPC   C1A36639   5.969  15.044   8.723
 2643POPC   D2A36640   6.056  15.148   8.272
 2643POPC   C3A36641   5.705  14.975   8.040
 2643POPC   C4A36642   5.629  14.931   7.608
 2643POPC   C1B36643   5.780  15.516   8.849
 2643POPC   C2B36644   5.601  15.299   8.489
 2643POPC   C3B36645   5.504  15.432   8.106
 2643POPC   C4B36646   5.683  15.447   7.719
 2644POPC   NC336647  13.171  24.552   9.491
 2644POPC   PO436648  12.595  24.664   9.637
 2644POPC   GL136649  12.691  24.678   9.173
 2644POPC   GL236650  13.036  24.581   8.979
 2644POPC   C1A36651  12.592  24.653   8.718
 2644POPC   D2A36652  12.788  24.430   8.373
 2644POPC   C3A36653  12.706  24.379   7.930
 2644POPC   C4A36654  12.387  24.202   7.651
 2644POPC   C1B36655  13.086  24.808   8.567
 2644POPC   C2B36656  13.016  24.825   8.127
 2644POPC   C3B36657  12.985  24.730   7.681
 2644POPC   C4B36658  13.221  24.922   7.354
 2645POPC   NC336659  17.872  41.413   9.651
 2645POPC   PO436660  17.338  41.810   9.576
 2645POPC   GL136661  17.512  41.805   9.164
 2645POPC   GL236662  17.746  41.624   9.205
 2645POPC   C1A36663  17.670  41.918   8.768
 2645POPC   D2A36664  17.495  41.730   8.427
 2645POPC   C3A36665  17.635  41.842   8.044
 2645POPC   C4A36666  17.437  41.723   7.681
 2645POPC   C1B36667  17.533  41.415   8.855
 2645POPC   C2B36668  17.694  41.262   8.459
 2645POPC   C3B36669  17.501  41.331   8.067
 2645POPC   C4B36670  17.364  41.209   7.686
 2646POPC   NC336671  16.208   7.089   9.578
 2646POPC   PO436672  15.710   7.559   9.497
 2646POPC   GL136673  15.990   7.455   9.133
 2646POPC   GL236674  16.227   7.711   9.071
 2646POPC   C1A36675  16.037   7.543   8.648
 2646POPC   D2A36676  15.841   7.730   8.291
 2646POPC   C3A36677  15.981   7.384   8.089
 2646POPC   C4A36678  16.042   7.152   7.761
 2646POPC   C1B36679  16.448   7.818   8.704
 2646POPC   C2B36680  16.412   7.595   8.292
 2646POPC   C3B36681  16.410   7.606   7.828
 2646POPC   C4B36682  16.581   7.647   7.390
 2647POPC   NC336683  20.135  24.090   9.396
 2647POPC   PO436684  19.795  23.469   9.434
 2647POPC   GL136685  19.755  23.781   9.126
 2647POPC   GL236686  19.526  24.026   9.281
 2647POPC   C1A36687  19.870  23.869   8.672
 2647POPC   D2A36688  20.078  23.585   8.368
 2647POPC   C3A36689  20.031  23.776   7.978
 2647POPC   C4A36690  20.012  23.776   7.531
 2647POPC   C1B36691  19.407  24.045   8.845
 2647POPC   C2B36692  19.299  24.011   8.423
 2647POPC   C3B36693  19.514  24.082   8.054
 2647POPC   C4B36694  19.559  23.771   7.750
 2648POPC   NC336695  11.031   7.519   9.530
 2648POPC   PO436696  11.607   7.227   9.369
 2648POPC   GL136697  11.270   7.343   9.104
 2648POPC   GL236698  11.446   7.660   9.131
 2648POPC   C1A36699  11.052   7.571   8.758
 2648POPC   D2A36700  11.011   7.757   8.335
 2648POPC   C3A36701  11.043   7.434   7.994
 2648POPC   C4A36702  11.141   7.188   7.565
 2648POPC   C1B36703  11.582   7.533   8.714
 2648POPC   C2B36704  11.526   7.605   8.272
 2648POPC   C3B36705  11.535   7.355   7.896
 2648POPC   C4B36706  11.560   7.447   7.442
 2649POPC   NC336707   7.698  17.829   9.572
 2649POPC   PO436708   7.474  18.520   9.521
 2649POPC   GL136709   7.371  18.215   9.205
 2649POPC   GL236710   7.214  18.433   8.952
 2649POPC   C1A36711   7.477  18.035   8.799
 2649POPC   D2A36712   7.433  18.312   8.422
 2649POPC   C3A36713   7.325  18.143   8.006
 2649POPC   C4A36714   7.575  17.854   7.752
 2649POPC   C1B36715   7.654  18.513   8.864
 2649POPC   C2B36716   7.868  18.579   8.476
 2649POPC   C3B36717   7.696  18.623   8.051
 2649POPC   C4B36718   7.911  18.644   7.650
 2650POPC   NC336719  20.455  15.078   9.366
 2650POPC   PO436720  20.876  15.571   9.281
 2650POPC   GL136721  20.710  15.304   8.992
 2650POPC   GL236722  20.382  15.468   9.060
 2650POPC   C1A36723  20.488  14.996   8.679
 2650POPC   D2A36724  20.633  14.766   8.278
 2650POPC   C3A36725  20.529  14.951   7.854
 2650POPC   C4A36726  20.713  15.225   7.545
 2650POPC   C1B36727  20.471  15.535   8.629
 2650POPC   C2B36728  20.524  15.311   8.237
 2650POPC   C3B36729  20.331  15.439   7.862
 2650POPC   C4B36730  20.391  15.623   7.470
 2651POPC   NC336731  38.577   2.601   9.533
 2651POPC   PO436732  38.082   3.037   9.557
 2651POPC   GL136733  38.204   2.750   9.188
 2651POPC   GL236734  38.574   2.698   9.034
 2651POPC   C1A36735  38.152   2.702   8.742
 2651POPC   D2A36736  38.533   2.776   8.501
 2651POPC   C3A36737  38.500   2.818   8.069
 2651POPC   C4A36738  38.442   2.583   7.675
 2651POPC   C1B36739  38.916   2.512   8.748
 2651POPC   C2B36740  38.966   2.345   8.344
 2651POPC   C3B36741  38.910   2.503   7.932
 2651POPC   C4B36742  38.893   2.862   7.709
 2652POPC   NC336743  42.878  14.256   9.673
 2652POPC   PO436744  43.146  14.875   9.856
 2652POPC   GL136745  43.078  14.653   9.400
 2652POPC   GL236746  43.376  14.584   9.226
 2652POPC   C1A36747  42.942  14.383   8.984
 2652POPC   D2A36748  42.856  14.519   8.537
 2652POPC   C3A36749  43.044  14.261   8.225
 2652POPC   C4A36750  43.014  13.999   7.863
 2652POPC   C1B36751  43.537  14.504   8.820
 2652POPC   C2B36752  43.635  14.320   8.436
 2652POPC   C3B36753  43.482  14.517   8.120
 2652POPC   C4B36754  43.271  14.435   7.761
 2653POPC   NC336755  40.456  30.364   9.848
 2653POPC   PO436756  40.977  30.211   9.464
 2653POPC   GL136757  40.814  29.925   9.168
 2653POPC   GL236758  41.024  29.611   9.140
 2653POPC   C1A36759  40.563  30.011   8.782
 2653POPC   D2A36760  40.414  30.162   8.380
 2653POPC   C3A36761  40.646  29.875   8.104
 2653POPC   C4A36762  40.806  29.942   7.660
 2653POPC   C1B36763  41.115  29.428   8.748
 2653POPC   C2B36764  40.955  29.554   8.346
 2653POPC   C3B36765  40.939  29.487   7.906
 2653POPC   C4B36766  41.197  29.571   7.504
 2654POPC   NC336767  14.991  13.424   9.527
 2654POPC   PO436768  15.380  13.982   9.425
 2654POPC   GL136769  15.143  13.726   9.120
 2654POPC   GL236770  14.839  13.854   8.972
 2654POPC   C1A36771  15.262  13.535   8.708
 2654POPC   D2A36772  15.426  13.533   8.270
 2654POPC   C3A36773  15.554  13.952   8.069
 2654POPC   C4A36774  15.465  13.984   7.611
 2654POPC   C1B36775  14.764  13.425   8.838
 2654POPC   C2B36776  14.745  13.262   8.424
 2654POPC   C3B36777  14.989  13.300   8.048
 2654POPC   C4B36778  15.137  13.703   7.870
 2655POPC   NC336779  19.140   8.249   9.602
 2655POPC   PO436780  18.700   8.000   9.280
 2655POPC   GL136781  18.967   8.278   9.107
 2655POPC   GL236782  19.216   8.016   9.115
 2655POPC   C1A36783  19.175   8.390   8.766
 2655POPC   D2A36784  19.373   8.194   8.433
 2655POPC   C3A36785  19.176   8.346   8.053
 2655POPC   C4A36786  18.798   8.376   7.802
 2655POPC   C1B36787  18.966   7.924   8.705
 2655POPC   C2B36788  18.739   8.084   8.343
 2655POPC   C3B36789  18.844   7.892   7.939
 2655POPC   C4B36790  19.273   7.907   7.792
 2656POPC   NC336791  33.878  28.382   9.524
 2656POPC   PO436792  33.233  28.143   9.337
 2656POPC   GL136793  33.517  28.437   9.127
 2656POPC   GL236794  33.878  28.311   9.035
 2656POPC   C1A36795  33.654  28.637   8.727
 2656POPC   D2A36796  33.924  28.782   8.377
 2656POPC   C3A36797  33.792  28.608   7.957
 2656POPC   C4A36798  33.696  28.394   7.529
 2656POPC   C1B36799  34.049  28.303   8.637
 2656POPC   C2B36800  34.130  28.321   8.220
 2656POPC   C3B36801  33.978  28.090   7.873
 2656POPC   C4B36802  34.068  28.067   7.411
 2657POPC   NC336803  13.623  11.674   9.455
 2657POPC   PO436804  13.536  10.943   9.495
 2657POPC   GL136805  13.633  11.220   9.137
 2657POPC   GL236806  13.374  11.497   9.061
 2657POPC   C1A36807  13.757  11.070   8.713
 2657POPC   D2A36808  13.947  11.102   8.283
 2657POPC   C3A36809  13.657  11.061   7.956
 2657POPC   C4A36810  13.236  11.177   7.807
 2657POPC   C1B36811  13.706  11.582   8.769
 2657POPC   C2B36812  13.575  11.436   8.357
 2657POPC   C3B36813  13.606  11.586   7.942
 2657POPC   C4B36814  13.502  11.544   7.508
 2658POPC   NC336815  21.794  14.462   9.844
 2658POPC   PO436816  22.320  14.437   9.428
 2658POPC   GL136817  22.321  14.228   9.061
 2658POPC   GL236818  21.993  14.034   8.931
 2658POPC   C1A36819  22.500  14.403   8.723
 2658POPC   D2A36820  22.366  14.619   8.365
 2658POPC   C3A36821  22.479  14.451   7.971
 2658POPC   C4A36822  22.477  14.579   7.580
 2658POPC   C1B36823  21.971  14.334   8.586
 2658POPC   C2B36824  21.991  14.383   8.132
 2658POPC   C3B36825  22.111  14.201   7.711
 2658POPC   C4B36826  22.062  13.910   7.310
 2659POPC   NC336827  29.229  14.185   9.359
 2659POPC   PO436828  29.431  14.775   9.558
 2659POPC   GL136829  29.280  14.679   9.151
 2659POPC   GL236830  29.512  14.484   8.985
 2659POPC   C1A36831  28.951  14.549   8.832
 2659POPC   D2A36832  28.740  14.479   8.429
 2659POPC   C3A36833  28.779  14.626   8.011
 2659POPC   C4A36834  29.156  14.572   7.804
 2659POPC   C1B36835  29.280  14.162   8.710
 2659POPC   C2B36836  29.151  14.028   8.298
 2659POPC   C3B36837  29.315  14.086   7.888
 2659POPC   C4B36838  29.259  14.219   7.453
 2660POPC   NC336839  30.209  15.818   9.557
 2660POPC   PO436840  29.648  15.713   9.655
 2660POPC   GL136841  29.768  15.767   9.208
 2660POPC   GL236842  30.126  15.749   9.079
 2660POPC   C1A36843  29.816  16.042   8.819
 2660POPC   D2A36844  30.044  16.178   8.452
 2660POPC   C3A36845  29.784  16.134   8.100
 2660POPC   C4A36846  29.555  16.201   7.693
 2660POPC   C1B36847  30.243  15.752   8.646
 2660POPC   C2B36848  30.167  15.760   8.169
 2660POPC   C3B36849  29.941  15.803   7.746
 2660POPC   C4B36850  29.979  15.584   7.349
 2661POPC   NC336851  30.614  32.356   9.436
 2661POPC   PO436852  30.942  31.709   9.413
 2661POPC   GL136853  30.677  31.745   9.029
 2661POPC   GL236854  30.545  32.061   9.003
 2661POPC   C1A36855  30.654  31.853   8.553
 2661POPC   D2A36856  30.522  32.239   8.267
 2661POPC   C3A36857  30.561  32.355   7.831
 2661POPC   C4A36858  30.975  32.346   7.815
 2661POPC   C1B36859  30.582  32.416   8.742
 2661POPC   C2B36860  30.689  32.708   8.433
 2661POPC   C3B36861  30.861  32.768   8.067
 2661POPC   C4B36862  30.772  32.825   7.684
 2662POPC   NC336863  19.081  43.488   9.352
 2662POPC   PO436864  18.830  42.876   9.451
 2662POPC   GL136865  18.741  43.144   9.118
 2662POPC   GL236866  19.086  43.099   9.027
 2662POPC   C1A36867  18.810  43.442   8.750
 2662POPC   D2A36868  18.963  43.285   8.379
 2662POPC   C3A36869  18.851  43.378   7.986
 2662POPC   C4A36870  18.861  43.071   7.680
 2662POPC   C1B36871  19.290  42.885   8.736
 2662POPC   C2B36872  19.315  42.901   8.335
 2662POPC   C3B36873  19.323  43.145   8.003
 2662POPC   C4B36874  19.393  43.099   7.587
 2663POPC   NC336875  14.207   6.662   9.713
 2663POPC   PO436876  13.558   6.623   9.470
 2663POPC   GL136877  13.598   6.600   9.086
 2663POPC   GL236878  13.424   6.274   9.089
 2663POPC   C1A36879  13.740   6.863   8.718
 2663POPC   D2A36880  13.551   6.994   8.329
 2663POPC   C3A36881  13.659   6.835   7.902
 2663POPC   C4A36882  13.479   6.946   7.466
 2663POPC   C1B36883  13.632   6.311   8.693
 2663POPC   C2B36884  13.533   6.482   8.343
 2663POPC   C3B36885  13.494   6.354   7.955
 2663POPC   C4B36886  13.588   6.457   7.543
 2664POPC   NC336887  18.277  39.209   9.601
 2664POPC   PO436888  18.675  38.736   9.663
 2664POPC   GL136889  18.610  38.926   9.214
 2664POPC   GL236890  18.569  39.257   9.172
 2664POPC   C1A36891  18.757  39.066   8.742
 2664POPC   D2A36892  18.674  39.122   8.265
 2664POPC   C3A36893  18.324  39.003   7.961
 2664POPC   C4A36894  18.258  38.650   7.668
 2664POPC   C1B36895  18.756  39.576   8.906
 2664POPC   C2B36896  18.886  39.532   8.474
 2664POPC   C3B36897  18.732  39.600   8.051
 2664POPC   C4B36898  18.381  39.517   7.769
 2665POPC   NC336899  29.552  23.199   9.527
 2665POPC   PO436900  30.182  22.918   9.526
 2665POPC   GL136901  30.183  22.863   9.116
 2665POPC   GL236902  29.862  23.041   9.154
 2665POPC   C1A36903  30.008  22.778   8.715
 2665POPC   D2A36904  29.776  22.842   8.352
 2665POPC   C3A36905  30.082  22.979   8.061
 2665POPC   C4A36906  30.116  22.951   7.604
 2665POPC   C1B36907  29.637  23.147   8.846
 2665POPC   C2B36908  29.795  23.373   8.520
 2665POPC   C3B36909  29.671  23.476   8.132
 2665POPC   C4B36910  29.769  23.265   7.791
 2666POPC   NC336911  10.797  20.275   9.449
 2666POPC   PO436912  10.920  20.880   9.538
 2666POPC   GL136913  11.122  20.815   9.116
 2666POPC   GL236914  11.158  20.442   9.105
 2666POPC   C1A36915  11.265  20.805   8.667
 2666POPC   D2A36916  11.351  20.645   8.214
 2666POPC   C3A36917  11.455  20.921   7.859
 2666POPC   C4A36918  11.140  21.119   7.606
 2666POPC   C1B36919  11.236  20.291   8.659
 2666POPC   C2B36920  11.651  20.289   8.428
 2666POPC   C3B36921  11.771  20.409   8.003
 2666POPC   C4B36922  11.442  20.387   7.721
 2667POPC   NC336923  40.114  27.018   9.554
 2667POPC   PO436924  39.728  26.513   9.507
 2667POPC   GL136925  39.998  26.701   9.169
 2667POPC   GL236926  39.793  27.017   9.151
 2667POPC   C1A36927  40.197  26.693   8.744
 2667POPC   D2A36928  39.998  26.577   8.331
 2667POPC   C3A36929  40.150  26.615   7.904
 2667POPC   C4A36930  40.399  26.948   7.701
 2667POPC   C1B36931  39.684  26.805   8.770
 2667POPC   C2B36932  39.666  26.959   8.346
 2667POPC   C3B36933  39.659  26.836   7.931
 2667POPC   C4B36934  39.893  26.921   7.548
 2668POPC   NC336935  40.611   4.429   9.423
 2668POPC   PO436936  41.022   3.819   9.333
 2668POPC   GL136937  40.899   4.156   9.040
 2668POPC   GL236938  40.943   4.511   9.033
 2668POPC   C1A36939  40.575   4.286   8.751
 2668POPC   D2A36940  40.516   4.058   8.402
 2668POPC   C3A36941  40.613   4.225   8.035
 2668POPC   C4A36942  40.802   4.061   7.703
 2668POPC   C1B36943  41.106   4.412   8.645
 2668POPC   C2B36944  41.049   4.144   8.301
 2668POPC   C3B36945  41.166   4.358   7.925
 2668POPC   C4B36946  41.158   4.808   7.933
 2669POPC   NC336947  26.059  30.258   9.767
 2669POPC   PO436948  26.149  29.644   9.544
 2669POPC   GL136949  25.905  29.803   9.230
 2669POPC   GL236950  26.115  29.654   9.017
 2669POPC   C1A36951  25.866  30.136   8.900
 2669POPC   D2A36952  25.931  30.187   8.448
 2669POPC   C3A36953  25.763  29.930   8.098
 2669POPC   C4A36954  25.963  30.060   7.754
 2669POPC   C1B36955  25.932  29.696   8.646
 2669POPC   C2B36956  26.176  29.711   8.311
 2669POPC   C3B36957  26.076  29.503   7.995
 2669POPC   C4B36958  25.852  29.568   7.650
 2670POPC   NC336959  43.019  40.631   9.610
 2670POPC   PO436960  43.096  41.241   9.341
 2670POPC   GL136961  43.167  40.816   9.164
 2670POPC   GL236962  43.464  40.851   8.948
 2670POPC   C1A36963  43.034  40.609   8.798
 2670POPC   D2A36964  43.253  40.792   8.459
 2670POPC   C3A36965  43.143  40.964   8.055
 2670POPC   C4A36966  42.958  40.906   7.638
 2670POPC   C1B36967  43.486  40.401   8.773
 2670POPC   C2B36968  43.302  40.264   8.403
 2670POPC   C3B36969  43.129  40.463   8.074
 2670POPC   C4B36970  43.332  40.598   7.741
 2671POPC   NC336971  15.367  42.884   9.768
 2671POPC   PO436972  15.008  43.468   9.708
 2671POPC   GL136973  15.224  43.344   9.289
 2671POPC   GL236974  14.956  43.212   9.019
 2671POPC   C1A36975  15.434  43.302   8.876
 2671POPC   D2A36976  15.227  43.157   8.499
 2671POPC   C3A36977  15.297  43.390   8.142
 2671POPC   C4A36978  15.289  43.212   7.736
 2671POPC   C1B36979  15.045  42.808   8.830
 2671POPC   C2B36980  15.068  42.651   8.421
 2671POPC   C3B36981  15.110  42.847   8.051
 2671POPC   C4B36982  15.420  42.701   7.754
 2672POPC   NC336983  44.524  28.484   9.594
 2672POPC   PO436984  44.815  27.955   9.588
 2672POPC   GL136985  44.737  28.257   9.182
 2672POPC   GL236986  44.454  28.508   9.101
 2672POPC   C1A36987  44.812  28.380   8.734
 2672POPC   D2A36988  44.857  28.144   8.331
 2672POPC   C3A36989  44.838  28.362   7.928
 2672POPC   C4A36990  44.890  28.194   7.489
 2672POPC   C1B36991  44.403  28.698   8.686
 2672POPC   C2B36992  44.602  28.631   8.308
 2672POPC   C3B36993  44.408  28.729   7.929
 2672POPC   C4B36994  44.545  28.752   7.489
 2673POPC   NC336995  36.317  32.761   9.477
 2673POPC   PO436996  36.078  33.386   9.568
 2673POPC   GL136997  36.052  33.159   9.153
 2673POPC   GL236998  35.716  33.222   9.067
 2673POPC   C1A36999  36.297  33.171   8.726
 2673POPC   D2A37000  36.323  32.960   8.302
 2673POPC   C3A37001  36.068  33.003   7.934
 2673POPC   C4A37002  36.017  32.834   7.519
 2673POPC   C1B37003  35.806  33.059   8.683
 2673POPC   C2B37004  35.911  33.272   8.348
 2673POPC   C3B37005  35.742  33.395   7.992
 2673POPC   C4B37006  35.891  33.358   7.602
 2674POPC   NC337007   9.118  39.816   9.523
 2674POPC   PO437008   9.300  40.496   9.416
 2674POPC   GL137009   9.172  40.176   9.145
 2674POPC   GL237010   9.439  39.889   9.144
 2674POPC   C1A37011   8.935  40.198   8.746
 2674POPC   D2A37012   8.678  40.190   8.365
 2674POPC   C3A37013   8.877  40.234   7.953
 2674POPC   C4A37014   8.854  40.219   7.505
 2674POPC   C1B37015   9.273  39.833   8.766
 2674POPC   C2B37016   9.078  39.770   8.361
 2674POPC   C3B37017   9.209  39.826   7.945
 2674POPC   C4B37018   9.249  39.907   7.511
 2675POPC   NC337019  29.663  27.885   9.548
 2675POPC   PO437020  29.789  28.599   9.535
 2675POPC   GL137021  29.877  28.375   9.168
 2675POPC   GL237022  29.582  28.174   9.103
 2675POPC   C1A37023  30.153  28.379   8.773
 2675POPC   D2A37024  30.174  28.175   8.369
 2675POPC   C3A37025  30.172  28.358   7.953
 2675POPC   C4A37026  30.243  28.235   7.535
 2675POPC   C1B37027  29.656  28.475   8.730
 2675POPC   C2B37028  29.692  28.630   8.311
 2675POPC   C3B37029  29.675  28.415   7.921
 2675POPC   C4B37030  29.764  28.455   7.468
 2676POPC   NC337031  20.984   2.825   9.496
 2676POPC   PO437032  21.592   2.552   9.474
 2676POPC   GL137033  21.482   2.530   9.100
 2676POPC   GL237034  21.162   2.450   9.164
 2676POPC   C1A37035  21.558   2.644   8.694
 2676POPC   D2A37036  21.456   2.828   8.299
 2676POPC   C3A37037  21.623   2.584   7.967
 2676POPC   C4A37038  21.798   2.682   7.548
 2676POPC   C1B37039  21.065   2.756   8.830
 2676POPC   C2B37040  20.924   2.819   8.407
 2676POPC   C3B37041  21.047   2.669   8.026
 2676POPC   C4B37042  20.998   2.794   7.662
 2677POPC   NC337043  30.335  12.724   9.502
 2677POPC   PO437044  30.634  13.293   9.444
 2677POPC   GL137045  30.695  12.962   9.159
 2677POPC   GL237046  30.379  12.926   9.043
 2677POPC   C1A37047  30.826  12.771   8.760
 2677POPC   D2A37048  30.929  12.886   8.355
 2677POPC   C3A37049  31.111  12.579   8.122
 2677POPC   C4A37050  31.098  12.742   7.701
 2677POPC   C1B37051  30.370  12.883   8.618
 2677POPC   C2B37052  30.451  12.785   8.260
 2677POPC   C3B37053  30.654  12.860   7.911
 2677POPC   C4B37054  30.621  12.661   7.509
 2678POPC   NC337055  32.824  29.453   9.625
 2678POPC   PO437056  33.319  29.003   9.680
 2678POPC   GL137057  33.017  29.005   9.355
 2678POPC   GL237058  33.293  28.954   9.133
 2678POPC   C1A37059  32.827  29.048   8.934
 2678POPC   D2A37060  32.950  29.161   8.513
 2678POPC   C3A37061  32.765  29.265   8.078
 2678POPC   C4A37062  32.866  29.036   7.664
 2678POPC   C1B37063  33.210  29.405   8.960
 2678POPC   C2B37064  33.291  29.549   8.527
 2678POPC   C3B37065  33.282  29.294   8.148
 2678POPC   C4B37066  33.293  29.329   7.738
 2679POPC   NC337067  20.423  10.590   9.532
 2679POPC   PO437068  21.071  10.460   9.604
 2679POPC   GL137069  20.771  10.388   9.246
 2679POPC   GL237070  20.665  10.734   9.113
 2679POPC   C1A37071  20.588  10.288   8.861
 2679POPC   D2A37072  20.338  10.327   8.511
 2679POPC   C3A37073  20.551  10.472   8.146
 2679POPC   C4A37074  20.582  10.203   7.776
 2679POPC   C1B37075  20.416  10.765   8.752
 2679POPC   C2B37076  20.265  10.952   8.370
 2679POPC   C3B37077  20.192  10.849   7.949
 2679POPC   C4B37078  20.578  10.794   7.707
 2680POPC   NC337079  36.115   3.153   9.514
 2680POPC   PO437080  35.955   3.752   9.668
 2680POPC   GL137081  36.101   3.657   9.235
 2680POPC   GL237082  36.167   3.340   9.043
 2680POPC   C1A37083  36.206   3.863   8.850
 2680POPC   D2A37084  36.076   3.938   8.404
 2680POPC   C3A37085  35.831   3.588   8.217
 2680POPC   C4A37086  35.848   3.552   7.781
 2680POPC   C1B37087  36.337   3.416   8.629
 2680POPC   C2B37088  36.315   3.461   8.167
 2680POPC   C3B37089  36.347   3.366   7.722
 2680POPC   C4B37090  36.483   3.262   7.285
 2681POPC   NC337091  43.060  25.019   9.420
 2681POPC   PO437092  42.789  25.605   9.561
 2681POPC   GL137093  43.003  25.492   9.186
 2681POPC   GL237094  43.375  25.428   9.233
 2681POPC   C1A37095  42.834  25.438   8.773
 2681POPC   D2A37096  42.850  25.233   8.394
 2681POPC   C3A37097  42.676  25.363   7.999
 2681POPC   C4A37098  42.766  25.103   7.645
 2681POPC   C1B37099  43.304  25.205   8.831
 2681POPC   C2B37100  43.368  25.069   8.407
 2681POPC   C3B37101  43.171  25.150   7.991
 2681POPC   C4B37102  43.332  25.119   7.587
 2682POPC   NC337103   8.516  44.154   9.463
 2682POPC   PO437104   8.078  43.639   9.507
 2682POPC   GL137105   8.247  43.733   9.135
 2682POPC   GL237106   8.143  44.044   9.111
 2682POPC   C1A37107   8.400  43.742   8.715
 2682POPC   D2A37108   8.164  43.632   8.372
 2682POPC   C3A37109   8.237  43.795   7.952
 2682POPC   C4A37110   8.084  43.588   7.643
 2682POPC   C1B37111   7.950  43.962   8.707
 2682POPC   C2B37112   7.779  43.986   8.305
 2682POPC   C3B37113   7.831  44.116   7.913
 2682POPC   C4B37114   7.995  44.093   7.502
 2683POPC   NC337115  27.334  43.695   9.520
 2683POPC   PO437116  27.716  44.184   9.627
 2683POPC   GL137117  27.531  44.089   9.226
 2683POPC   GL237118  27.548  43.729   9.070
 2683POPC   C1A37119  27.522  44.168   8.804
 2683POPC   D2A37120  27.600  43.856   8.521
 2683POPC   C3A37121  27.549  43.965   8.118
 2683POPC   C4A37122  27.697  43.893   7.689
 2683POPC   C1B37123  27.729  43.441   8.808
 2683POPC   C2B37124  27.761  43.344   8.423
 2683POPC   C3B37125  27.888  43.579   8.118
 2683POPC   C4B37126  27.979  43.465   7.751
 2684POPC   NC337127  20.161  11.466   9.405
 2684POPC   PO437128  19.676  11.032   9.501
 2684POPC   GL137129  19.799  11.206   9.131
 2684POPC   GL237130  19.708  11.563   9.139
 2684POPC   C1A37131  20.102  11.184   8.811
 2684POPC   D2A37132  20.160  11.459   8.484
 2684POPC   C3A37133  19.929  11.283   8.130
 2684POPC   C4A37134  19.803  11.166   7.724
 2684POPC   C1B37135  19.683  11.477   8.685
 2684POPC   C2B37136  19.695  11.709   8.283
 2684POPC   C3B37137  19.554  11.607   7.868
 2684POPC   C4B37138  19.482  11.613   7.394
 2685POPC   NC337139  28.521  17.843   9.469
 2685POPC   PO437140  28.025  18.211   9.759
 2685POPC   GL137141  28.280  18.312   9.347
 2685POPC   GL237142  28.533  18.510   9.363
 2685POPC   C1A37143  28.297  18.224   8.885
 2685POPC   D2A37144  28.524  18.187   8.492
 2685POPC   C3A37145  28.302  17.996   8.159
 2685POPC   C4A37146  28.443  18.142   7.778
 2685POPC   C1B37147  28.641  18.605   8.923
 2685POPC   C2B37148  28.507  18.696   8.498
 2685POPC   C3B37149  28.367  18.517   8.126
 2685POPC   C4B37150  28.375  18.640   7.729
 2686POPC   NC337151  18.621  38.270   9.613
 2686POPC   PO437152  19.345  38.219   9.508
 2686POPC   GL137153  19.184  38.363   9.146
 2686POPC   GL237154  18.907  38.513   9.241
 2686POPC   C1A37155  19.102  38.266   8.741
 2686POPC   D2A37156  19.300  38.424   8.423
 2686POPC   C3A37157  19.098  38.356   8.056
 2686POPC   C4A37158  19.173  38.250   7.664
 2686POPC   C1B37159  18.709  38.560   8.833
 2686POPC   C2B37160  18.843  38.663   8.403
 2686POPC   C3B37161  18.704  38.662   7.960
 2686POPC   C4B37162  18.724  38.478   7.529
 2687POPC   NC337163  32.080  17.562   9.584
 2687POPC   PO437164  32.688  17.904   9.436
 2687POPC   GL137165  32.373  17.646   9.185
 2687POPC   GL237166  32.389  17.297   9.220
 2687POPC   C1A37167  32.068  17.493   8.849
 2687POPC   D2A37168  31.867  17.594   8.435
 2687POPC   C3A37169  32.193  17.629   8.110
 2687POPC   C4A37170  32.259  17.291   7.802
 2687POPC   C1B37171  32.375  17.079   8.820
 2687POPC   C2B37172  32.436  17.189   8.388
 2687POPC   C3B37173  32.588  16.970   8.032
 2687POPC   C4B37174  32.689  17.099   7.614
 2688POPC   NC337175   1.549  42.395   9.310
 2688POPC   PO437176   2.127  42.435   9.639
 2688POPC   GL137177   2.081  42.289   9.203
 2688POPC   GL237178   2.023  42.614   9.143
 2688POPC   C1A37179   1.848  42.260   8.756
 2688POPC   D2A37180   1.811  42.450   8.335
 2688POPC   C3A37181   2.133  42.215   8.134
 2688POPC   C4A37182   2.295  41.943   7.828
 2688POPC   C1B37183   1.963  42.763   8.721
 2688POPC   C2B37184   2.203  42.781   8.332
 2688POPC   C3B37185   2.258  42.642   7.922
 2688POPC   C4B37186   1.920  42.490   7.690
 2689POPC   NC337187   8.615  41.374   9.620
 2689POPC   PO437188   9.090  41.665   9.257
 2689POPC   GL137189   9.014  41.421   8.941
 2689POPC   GL237190   8.682  41.369   9.079
 2689POPC   C1A37191   9.131  41.595   8.538
 2689POPC   D2A37192   9.020  41.954   8.274
 2689POPC   C3A37193   8.696  41.853   8.016
 2689POPC   C4A37194   8.880  41.554   7.774
 2689POPC   C1B37195   8.624  41.184   8.652
 2689POPC   C2B37196   8.644  41.244   8.165
 2689POPC   C3B37197   8.704  41.087   7.741
 2689POPC   C4B37198   8.967  41.180   7.337
 2690POPC   NC337199  15.561  30.100   9.659
 2690POPC   PO437200  15.021  30.192   9.280
 2690POPC   GL137201  15.209  29.898   9.008
 2690POPC   GL237202  15.525  29.908   9.173
 2690POPC   C1A37203  15.133  29.776   8.576
 2690POPC   D2A37204  15.066  30.084   8.259
 2690POPC   C3A37205  15.097  30.090   7.830
 2690POPC   C4A37206  14.743  29.887   7.721
 2690POPC   C1B37207  15.685  29.945   8.743
 2690POPC   C2B37208  15.576  29.865   8.304
 2690POPC   C3B37209  15.569  29.866   7.849
 2690POPC   C4B37210  15.544  30.144   7.508
 2691POPC   NC337211  16.050  26.687   9.559
 2691POPC   PO437212  15.611  27.286   9.537
 2691POPC   GL137213  15.843  27.086   9.128
 2691POPC   GL237214  15.789  26.704   9.122
 2691POPC   C1A37215  16.168  27.210   8.757
 2691POPC   D2A37216  16.436  27.099   8.399
 2691POPC   C3A37217  16.214  27.137   8.026
 2691POPC   C4A37218  15.990  26.889   7.777
 2691POPC   C1B37219  16.020  26.727   8.722
 2691POPC   C2B37220  15.893  26.805   8.306
 2691POPC   C3B37221  15.728  26.534   7.994
 2691POPC   C4B37222  16.118  26.386   7.751
 2692POPC   NC337223   2.188  36.024   9.350
 2692POPC   PO437224   2.061  36.650   9.441
 2692POPC   GL137225   1.954  36.425   9.076
 2692POPC   GL237226   1.700  36.144   9.136
 2692POPC   C1A37227   2.186  36.312   8.707
 2692POPC   D2A37228   2.103  36.045   8.380
 2692POPC   C3A37229   1.882  36.226   8.028
 2692POPC   C4A37230   2.099  36.091   7.677
 2692POPC   C1B37231   1.691  35.844   8.776
 2692POPC   C2B37232   1.630  35.889   8.338
 2692POPC   C3B37233   1.774  35.715   7.930
 2692POPC   C4B37234   1.657  35.860   7.498
 2693POPC   NC337235  32.843  26.196   9.526
 2693POPC   PO437236  33.476  26.380   9.535
 2693POPC   GL137237  33.284  26.040   9.234
 2693POPC   GL237238  32.964  25.963   9.113
 2693POPC   C1A37239  33.380  26.064   8.827
 2693POPC   D2A37240  33.249  26.258   8.470
 2693POPC   C3A37241  33.396  26.141   8.110
 2693POPC   C4A37242  33.336  26.019   7.708
 2693POPC   C1B37243  32.917  25.892   8.724
 2693POPC   C2B37244  32.814  26.013   8.369
 2693POPC   C3B37245  32.949  25.921   8.025
 2693POPC   C4B37246  32.776  25.991   7.684
 2694POPC   NC337247  21.082  31.180   9.502
 2694POPC   PO437248  21.445  31.805   9.441
 2694POPC   GL137249  21.209  31.625   9.155
 2694POPC   GL237250  21.537  31.445   9.061
 2694POPC   C1A37251  21.167  31.797   8.739
 2694POPC   D2A37252  21.365  31.569   8.424
 2694POPC   C3A37253  21.532  31.706   8.058
 2694POPC   C4A37254  21.515  31.516   7.643
 2694POPC   C1B37255  21.235  31.246   8.813
 2694POPC   C2B37256  21.114  31.124   8.376
 2694POPC   C3B37257  21.142  31.302   7.949
 2694POPC   C4B37258  21.141  31.014   7.601
 2695POPC   NC337259  18.434   3.801   9.369
 2695POPC   PO437260  18.208   4.391   9.652
 2695POPC   GL137261  18.179   4.335   9.243
 2695POPC   GL237262  18.034   4.655   9.235
 2695POPC   C1A37263  18.275   4.255   8.817
 2695POPC   D2A37264  18.450   4.447   8.438
 2695POPC   C3A37265  18.376   4.180   8.080
 2695POPC   C4A37266  18.238   4.255   7.674
 2695POPC   C1B37267  18.156   4.777   8.837
 2695POPC   C2B37268  17.940   4.819   8.464
 2695POPC   C3B37269  18.077   4.611   8.103
 2695POPC   C4B37270  18.438   4.665   7.917
 2696POPC   NC337271  23.931  38.904   9.506
 2696POPC   PO437272  23.492  38.355   9.574
 2696POPC   GL137273  23.524  38.417   9.131
 2696POPC   GL237274  23.820  38.615   9.118
 2696POPC   C1A37275  23.652  38.240   8.698
 2696POPC   D2A37276  23.585  37.969   8.294
 2696POPC   C3A37277  23.649  38.087   7.837
 2696POPC   C4A37278  23.438  38.375   7.511
 2696POPC   C1B37279  23.739  38.769   8.730
 2696POPC   C2B37280  23.887  38.597   8.361
 2696POPC   C3B37281  23.714  38.603   7.957
 2696POPC   C4B37282  23.931  38.485   7.622
 2697POPC   NC337283  42.671  37.383   9.507
 2697POPC   PO437284  42.654  38.037   9.690
 2697POPC   GL137285  42.505  37.918   9.245
 2697POPC   GL237286  42.190  37.726   9.090
 2697POPC   C1A37287  42.473  38.001   8.785
 2697POPC   D2A37288  42.239  37.780   8.450
 2697POPC   C3A37289  42.393  37.906   8.051
 2697POPC   C4A37290  42.344  37.692   7.642
 2697POPC   C1B37291  42.482  37.471   8.800
 2697POPC   C2B37292  42.538  37.315   8.354
 2697POPC   C3B37293  42.416  37.244   7.903
 2697POPC   C4B37294  42.624  37.207   7.484
 2698POPC   NC337295  32.986  21.138   9.846
 2698POPC   PO437296  33.058  20.515   9.541
 2698POPC   GL137297  33.087  20.552   9.166
 2698POPC   GL237298  32.781  20.410   9.104
 2698POPC   C1A37299  33.271  20.791   8.835
 2698POPC   D2A37300  33.083  20.846   8.427
 2698POPC   C3A37301  33.206  20.631   8.080
 2698POPC   C4A37302  33.052  20.895   7.754
 2698POPC   C1B37303  32.875  20.476   8.704
 2698POPC   C2B37304  32.735  20.473   8.329
 2698POPC   C3B37305  32.674  20.653   7.975
 2698POPC   C4B37306  32.882  20.413   7.707
 2699POPC   NC337307  15.939  10.671   9.520
 2699POPC   PO437308  15.559  10.052   9.501
 2699POPC   GL137309  15.681  10.379   9.181
 2699POPC   GL237310  16.069  10.402   9.085
 2699POPC   C1A37311  15.730  10.675   8.839
 2699POPC   D2A37312  15.944  10.504   8.524
 2699POPC   C3A37313  15.799  10.576   8.153
 2699POPC   C4A37314  15.874  10.356   7.803
 2699POPC   C1B37315  16.323  10.701   8.789
 2699POPC   C2B37316  16.314  10.803   8.324
 2699POPC   C3B37317  16.217  10.728   7.880
 2699POPC   C4B37318  16.197  10.681   7.422
 2700POPC   NC337319  41.886  31.771   9.721
 2700POPC   PO437320  41.585  31.174   9.557
 2700POPC   GL137321  41.377  31.395   9.213
 2700POPC   GL237322  41.567  31.698   9.260
 2700POPC   C1A37323  41.410  31.357   8.747
 2700POPC   D2A37324  41.695  31.537   8.447
 2700POPC   C3A37325  41.725  31.438   8.013
 2700POPC   C4A37326  41.350  31.356   7.817
 2700POPC   C1B37327  41.323  31.826   8.887
 2700POPC   C2B37328  41.239  31.761   8.442
 2700POPC   C3B37329  41.471  31.902   8.094
 2700POPC   C4B37330  41.375  32.000   7.676
 2701POPC   NC337331  23.885  40.312   9.504
 2701POPC   PO437332  23.427  39.844   9.559
 2701POPC   GL137333  23.665  39.995   9.173
 2701POPC   GL237334  23.626  40.305   9.061
 2701POPC   C1A37335  23.843  39.921   8.763
 2701POPC   D2A37336  24.087  40.182   8.501
 2701POPC   C3A37337  24.130  39.965   8.102
 2701POPC   C4A37338  23.880  39.835   7.733
 2701POPC   C1B37339  23.561  40.358   8.632
 2701POPC   C2B37340  23.709  40.351   8.208
 2701POPC   C3B37341  23.613  40.307   7.766
 2701POPC   C4B37342  23.404  40.254   7.387
 2702POPC   NC337343  10.939  42.166   9.522
 2702POPC   PO437344  11.581  42.370   9.490
 2702POPC   GL137345  11.342  42.183   9.173
 2702POPC   GL237346  11.583  41.967   8.998
 2702POPC   C1A37347  11.099  42.370   8.818
 2702POPC   D2A37348  11.265  42.481   8.416
 2702POPC   C3A37349  11.137  42.381   8.020
 2702POPC   C4A37350  11.442  42.205   7.760
 2702POPC   C1B37351  11.601  42.432   8.816
 2702POPC   C2B37352  11.725  42.674   8.437
 2702POPC   C3B37353  11.508  42.765   8.026
 2702POPC   C4B37354  11.633  42.670   7.583
 2703POPC   NC337355  33.257  12.362   9.282
 2703POPC   PO437356  32.693  12.009   9.503
 2703POPC   GL137357  32.836  12.114   9.131
 2703POPC   GL237358  33.079  11.842   9.099
 2703POPC   C1A37359  32.862  12.056   8.701
 2703POPC   D2A37360  32.715  11.919   8.304
 2703POPC   C3A37361  32.977  11.961   7.939
 2703POPC   C4A37362  33.137  12.184   7.576
 2703POPC   C1B37363  33.372  11.949   8.720
 2703POPC   C2B37364  33.583  11.924   8.272
 2703POPC   C3B37365  33.534  11.903   7.783
 2703POPC   C4B37366  33.564  12.039   7.332
 2704POPC   NC337367   3.755  44.527   9.574
 2704POPC   PO437368   3.133  44.826   9.487
 2704POPC   GL137369   3.341  44.611   9.174
 2704POPC   GL237370   3.713  44.622   9.101
 2704POPC   C1A37371   3.390  44.773   8.762
 2704POPC   D2A37372   3.433  44.545   8.412
 2704POPC   C3A37373   3.591  44.680   8.038
 2704POPC   C4A37374   3.723  44.460   7.726
 2704POPC   C1B37375   3.867  44.537   8.727
 2704POPC   C2B37376   3.953  44.751   8.386
 2704POPC   C3B37377   4.125  44.672   8.012
 2704POPC   C4B37378   4.007  44.888   7.675
 2705POPC   NC337379  30.455  34.652   9.693
 2705POPC   PO437380  30.897  35.032   9.459
 2705POPC   GL137381  30.793  34.680   9.225
 2705POPC   GL237382  30.485  34.519   9.160
 2705POPC   C1A37383  30.961  34.549   8.857
 2705POPC   D2A37384  30.761  34.645   8.467
 2705POPC   C3A37385  30.880  34.529   8.087
 2705POPC   C4A37386  30.686  34.508   7.756
 2705POPC   C1B37387  30.572  34.254   8.739
 2705POPC   C2B37388  30.597  33.975   8.390
 2705POPC   C3B37389  30.485  34.091   7.970
 2705POPC   C4B37390  30.316  34.226   7.552
 2706POPC   NC337391  28.700   4.976   9.483
 2706POPC   PO437392  28.118   5.227   9.634
 2706POPC   GL137393  28.142   5.234   9.214
 2706POPC   GL237394  28.005   4.918   9.154
 2706POPC   C1A37395  28.402   5.237   8.851
 2706POPC   D2A37396  28.377   5.048   8.437
 2706POPC   C3A37397  28.448   5.296   8.089
 2706POPC   C4A37398  28.485   5.120   7.722
 2706POPC   C1B37399  27.942   5.082   8.720
 2706POPC   C2B37400  27.880   5.120   8.301
 2706POPC   C3B37401  27.994   5.117   7.911
 2706POPC   C4B37402  28.092   4.793   7.680
 2707POPC   NC337403  17.676   5.451   9.394
 2707POPC   PO437404  17.036   5.299   9.528
 2707POPC   GL137405  17.275   5.179   9.197
 2707POPC   GL237406  17.581   4.945   9.255
 2707POPC   C1A37407  17.378   5.308   8.799
 2707POPC   D2A37408  17.514   5.123   8.459
 2707POPC   C3A37409  17.593   5.319   8.123
 2707POPC   C4A37410  17.644   5.142   7.704
 2707POPC   C1B37411  17.356   4.779   8.889
 2707POPC   C2B37412  17.460   4.628   8.493
 2707POPC   C3B37413  17.597   4.779   8.071
 2707POPC   C4B37414  17.330   4.658   7.707
 2708POPC   NC337415   0.859  37.425   9.409
 2708POPC   PO437416   1.214  36.935   9.675
 2708POPC   GL137417   1.161  37.029   9.264
 2708POPC   GL237418   1.397  36.794   9.174
 2708POPC   C1A37419   1.117  37.074   8.813
 2708POPC   D2A37420   1.168  36.807   8.471
 2708POPC   C3A37421   1.180  37.046   8.093
 2708POPC   C4A37422   1.097  36.824   7.724
 2708POPC   C1B37423   1.625  36.720   8.821
 2708POPC   C2B37424   1.703  36.381   8.536
 2708POPC   C3B37425   1.414  36.382   8.224
 2708POPC   C4B37426   1.451  36.456   7.790
 2709POPC   NC337427   7.857  43.242   9.410
 2709POPC   PO437428   8.461  43.016   9.449
 2709POPC   GL137429   8.211  43.001   9.110
 2709POPC   GL237430   7.953  42.753   9.183
 2709POPC   C1A37431   8.298  43.244   8.744
 2709POPC   D2A37432   8.580  43.336   8.407
 2709POPC   C3A37433   8.362  43.314   8.030
 2709POPC   C4A37434   8.170  43.101   7.732
 2709POPC   C1B37435   7.934  42.886   8.693
 2709POPC   C2B37436   8.036  42.908   8.222
 2709POPC   C3B37437   7.902  42.699   7.822
 2709POPC   C4B37438   7.888  42.788   7.357
 2710POPC   NC337439  44.039  24.973   9.604
 2710POPC   PO437440  43.962  24.348   9.668
 2710POPC   GL137441  44.104  24.553   9.282
 2710POPC   GL237442  43.958  24.314   9.059
 2710POPC   C1A37443  44.097  24.770   8.875
 2710POPC   D2A37444  43.868  24.948   8.512
 2710POPC   C3A37445  43.962  24.768   8.112
 2710POPC   C4A37446  44.051  24.611   7.724
 2710POPC   C1B37447  43.757  24.104   8.702
 2710POPC   C2B37448  43.700  24.021   8.301
 2710POPC   C3B37449  43.701  24.249   7.962
 2710POPC   C4B37450  43.901  24.161   7.614
 2711POPC   NC337451  28.815  37.698   9.418
 2711POPC   PO437452  29.429  37.449   9.552
 2711POPC   GL137453  29.308  37.700   9.176
 2711POPC   GL237454  29.578  37.953   9.066
 2711POPC   C1A37455  29.043  37.572   8.791
 2711POPC   D2A37456  29.145  37.439   8.366
 2711POPC   C3A37457  28.943  37.647   7.990
 2711POPC   C4A37458  29.173  37.747   7.590
 2711POPC   C1B37459  29.292  38.017   8.750
 2711POPC   C2B37460  29.079  37.965   8.388
 2711POPC   C3B37461  29.269  38.021   8.002
 2711POPC   C4B37462  29.669  37.962   7.825
 2712POPC   NC337463   4.651  11.815   9.619
 2712POPC   PO437464   4.085  12.154   9.621
 2712POPC   GL137465   4.310  12.288   9.230
 2712POPC   GL237466   4.394  11.949   9.195
 2712POPC   C1A37467   4.396  12.232   8.763
 2712POPC   D2A37468   4.202  12.200   8.333
 2712POPC   C3A37469   4.401  12.050   7.991
 2712POPC   C4A37470   4.294  12.115   7.564
 2712POPC   C1B37471   4.341  11.745   8.835
 2712POPC   C2B37472   4.352  11.701   8.414
 2712POPC   C3B37473   4.639  11.611   8.079
 2712POPC   C4B37474   4.468  11.653   7.673
 2713POPC   NC337475   0.729   4.537   9.598
 2713POPC   PO437476   0.139   4.248   9.536
 2713POPC   GL137477   0.397   4.378   9.162
 2713POPC   GL237478   0.669   4.642   9.122
 2713POPC   C1A37479   0.423   4.218   8.732
 2713POPC   D2A37480   0.537   4.051   8.325
 2713POPC   C3A37481   0.466   4.230   7.914
 2713POPC   C4A37482   0.617   3.998   7.587
 2713POPC   C1B37483   0.438   4.737   8.783
 2713POPC   C2B37484   0.164   4.656   8.439
 2713POPC   C3B37485   0.282   4.715   8.006
 2713POPC   C4B37486   0.651   4.692   7.742
 2714POPC   NC337487  28.639  24.786   9.434
 2714POPC   PO437488  28.300  25.394   9.458
 2714POPC   GL137489  28.422  25.126   9.107
 2714POPC   GL237490  28.763  25.003   9.003
 2714POPC   C1A37491  28.321  25.097   8.688
 2714POPC   D2A37492  28.114  25.402   8.439
 2714POPC   C3A37493  28.214  25.283   8.022
 2714POPC   C4A37494  28.186  25.481   7.654
 2714POPC   C1B37495  28.740  25.387   8.751
 2714POPC   C2B37496  28.605  25.468   8.316
 2714POPC   C3B37497  28.737  25.265   7.917
 2714POPC   C4B37498  28.692  25.082   7.484
 2715POPC   NC337499  28.697  44.912  10.058
 2715POPC   PO437500  28.171  44.682   9.645
 2715POPC   GL137501  28.369  44.554   9.196
 2715POPC   GL237502  28.564  44.222   9.184
 2715POPC   C1A37503  28.478  44.704   8.786
 2715POPC   D2A37504  28.603  44.967   8.447
 2715POPC   C3A37505  28.523  44.799   8.018
 2715POPC   C4A37506  28.553  44.980   7.577
 2715POPC   C1B37507  28.411  44.196   8.783
 2715POPC   C2B37508  28.342  44.379   8.375
 2715POPC   C3B37509  28.521  44.289   7.962
 2715POPC   C4B37510  28.376  44.461   7.572
 2716POPC   NC337511  31.841  20.720   9.729
 2716POPC   PO437512  31.313  20.356   9.517
 2716POPC   GL137513  31.518  20.654   9.267
 2716POPC   GL237514  31.837  20.611   9.227
 2716POPC   C1A37515  31.540  20.809   8.852
 2716POPC   D2A37516  31.408  20.893   8.423
 2716POPC   C3A37517  31.670  20.880   8.111
 2716POPC   C4A37518  31.473  20.680   7.826
 2716POPC   C1B37519  31.885  20.391   8.857
 2716POPC   C2B37520  31.816  20.571   8.473
 2716POPC   C3B37521  31.836  20.402   8.041
 2716POPC   C4B37522  31.896  20.484   7.607
 2717POPC   NC337523  19.567  38.136   9.909
 2717POPC   PO437524  19.898  37.779   9.459
 2717POPC   GL137525  20.013  37.618   9.099
 2717POPC   GL237526  19.699  37.489   9.019
 2717POPC   C1A37527  19.981  37.808   8.719
 2717POPC   D2A37528  20.043  37.680   8.343
 2717POPC   C3A37529  19.814  37.767   8.002
 2717POPC   C4A37530  19.865  37.601   7.646
 2717POPC   C1B37531  19.672  37.413   8.610
 2717POPC   C2B37532  19.465  37.502   8.262
 2717POPC   C3B37533  19.495  37.350   7.844
 2717POPC   C4B37534  19.485  37.288   7.395
 2718POPC   NC337535  28.752  31.810   9.469
 2718POPC   PO437536  29.189  32.273   9.494
 2718POPC   GL137537  29.143  31.996   9.152
 2718POPC   GL237538  28.831  32.189   9.131
 2718POPC   C1A37539  29.267  31.960   8.713
 2718POPC   D2A37540  29.216  32.185   8.307
 2718POPC   C3A37541  29.160  31.920   7.928
 2718POPC   C4A37542  29.165  31.977   7.465
 2718POPC   C1B37543  28.934  32.380   8.754
 2718POPC   C2B37544  28.714  32.388   8.372
 2718POPC   C3B37545  28.881  32.459   7.973
 2718POPC   C4B37546  28.748  32.231   7.636
 2719POPC   NC337547  33.374  44.508   9.679
 2719POPC   PO437548  33.958  44.183   9.468
 2719POPC   GL137549  33.639  44.288   9.170
 2719POPC   GL237550  33.585  44.600   9.099
 2719POPC   C1A37551  33.681  44.307   8.699
 2719POPC   D2A37552  33.903  44.344   8.320
 2719POPC   C3A37553  33.746  44.291   7.967
 2719POPC   C4A37554  33.907  44.515   7.597
 2719POPC   C1B37555  33.644  44.827   8.761
 2719POPC   C2B37556  33.877  44.824   8.439
 2719POPC   C3B37557  33.835  44.804   8.017
 2719POPC   C4B37558  34.068   0.004   7.704
 2720POPC   NC337559   2.482  41.213   9.381
 2720POPC   PO437560   2.759  41.691   9.724
 2720POPC   GL137561   2.670  41.738   9.219
 2720POPC   GL237562   2.975  41.854   8.992
 2720POPC   C1A37563   2.640  41.534   8.793
 2720POPC   D2A37564   2.503  41.434   8.385
 2720POPC   C3A37565   2.649  41.482   7.953
 2720POPC   C4A37566   2.943  41.204   7.715
 2720POPC   C1B37567   2.689  42.052   8.722
 2720POPC   C2B37568   2.556  41.945   8.312
 2720POPC   C3B37569   2.862  41.939   7.993
 2720POPC   C4B37570   3.098  42.067   7.654
 2721POPC   NC337571  14.301  29.222   9.584
 2721POPC   PO437572  14.898  29.216   9.459
 2721POPC   GL137573  14.575  29.174   9.116
 2721POPC   GL237574  14.301  28.888   9.188
 2721POPC   C1A37575  14.284  29.279   8.753
 2721POPC   D2A37576  14.043  29.363   8.338
 2721POPC   C3A37577  14.224  29.230   7.944
 2721POPC   C4A37578  14.579  29.399   7.756
 2721POPC   C1B37579  14.452  28.769   8.784
 2721POPC   C2B37580  14.462  28.957   8.370
 2721POPC   C3B37581  14.563  28.841   7.949
 2721POPC   C4B37582  14.297  28.785   7.580
 2722POPC   NC337583  23.768  39.576   9.397
 2722POPC   PO437584  23.500  39.022   9.404
 2722POPC   GL137585  23.528  39.153   9.018
 2722POPC   GL237586  23.842  39.174   9.049
 2722POPC   C1A37587  23.542  39.495   8.720
 2722POPC   D2A37588  23.763  39.588   8.307
 2722POPC   C3A37589  23.542  39.410   7.893
 2722POPC   C4A37590  23.409  39.367   7.429
 2722POPC   C1B37591  23.997  39.284   8.659
 2722POPC   C2B37592  23.947  39.118   8.260
 2722POPC   C3B37593  24.037  39.248   7.849
 2722POPC   C4B37594  23.848  38.976   7.535
 2723POPC   NC337595  44.931  23.455   9.581
 2723POPC   PO437596  44.326  23.640   9.648
 2723POPC   GL137597  44.634  23.726   9.284
 2723POPC   GL237598  44.482  23.543   9.030
 2723POPC   C1A37599  44.981  23.514   8.947
 2723POPC   D2A37600  44.904  23.505   8.496
 2723POPC   C3A37601   0.005  23.612   8.059
 2723POPC   C4A37602  44.719  23.527   7.684
 2723POPC   C1B37603  44.721  23.919   8.823
 2723POPC   C2B37604  44.677  23.972   8.405
 2723POPC   C3B37605  44.589  23.927   7.971
 2723POPC   C4B37606  44.744  24.004   7.515
 2724POPC   NC337607  16.072  34.009   9.600
 2724POPC   PO437608  16.041  33.361   9.601
 2724POPC   GL137609  15.929  33.670   9.225
 2724POPC   GL237610  16.152  33.923   9.103
 2724POPC   C1A37611  15.833  33.836   8.750
 2724POPC   D2A37612  16.106  33.886   8.416
 2724POPC   C3A37613  15.933  33.957   8.018
 2724POPC   C4A37614  15.750  33.810   7.670
 2724POPC   C1B37615  16.255  33.542   8.806
 2724POPC   C2B37616  16.372  33.469   8.348
 2724POPC   C3B37617  16.391  33.711   7.957
 2724POPC   C4B37618  16.301  33.733   7.512
 2725POPC   NC337619  20.401   0.145   9.561
 2725POPC   PO437620  20.781   0.664   9.424
 2725POPC   GL137621  20.740   0.447   9.106
 2725POPC   GL237622  20.391   0.420   9.126
 2725POPC   C1A37623  20.901   0.414   8.696
 2725POPC   D2A37624  20.743   0.432   8.296
 2725POPC   C3A37625  20.952   0.501   7.923
 2725POPC   C4A37626  20.653   0.469   7.637
 2725POPC   C1B37627  20.400   0.282   8.725
 2725POPC   C2B37628  20.249   0.359   8.370
 2725POPC   C3B37629  20.278   0.404   7.955
 2725POPC   C4B37630  20.145   0.757   7.703
 2726POPC   NC337631  11.818  17.286   9.350
 2726POPC   PO437632  12.314  17.719   9.355
 2726POPC   GL137633  12.083  17.571   9.016
 2726POPC   GL237634  11.790  17.750   9.115
 2726POPC   C1A37635  12.025  17.331   8.632
 2726POPC   D2A37636  12.016  17.612   8.276
 2726POPC   C3A37637  12.127  17.454   7.885
 2726POPC   C4A37638  12.441  17.308   7.616
 2726POPC   C1B37639  11.643  17.673   8.697
 2726POPC   C2B37640  11.538  17.462   8.321
 2726POPC   C3B37641  11.617  17.689   7.943
 2726POPC   C4B37642  11.906  17.800   7.601
 2727POPC   NC337643  11.209  14.326   9.540
 2727POPC   PO437644  11.874  14.335   9.532
 2727POPC   GL137645  11.535  14.338   9.150
 2727POPC   GL237646  11.258  14.576   9.107
 2727POPC   C1A37647  11.528  14.461   8.708
 2727POPC   D2A37648  11.226  14.585   8.412
 2727POPC   C3A37649  11.287  14.404   7.985
 2727POPC   C4A37650  11.575  14.640   7.749
 2727POPC   C1B37651  11.034  14.292   8.832
 2727POPC   C2B37652  11.025  14.131   8.397
 2727POPC   C3B37653  10.810  14.449   8.125
 2727POPC   C4B37654  10.753  14.367   7.698
 2728POPC   NC337655  29.423  36.241   9.585
 2728POPC   PO437656  28.740  36.106   9.464
 2728POPC   GL137657  28.930  36.122   9.095
 2728POPC   GL237658  29.138  36.400   9.168
 2728POPC   C1A37659  28.834  35.893   8.725
 2728POPC   D2A37660  28.803  35.701   8.328
 2728POPC   C3A37661  29.041  35.936   8.036
 2728POPC   C4A37662  29.011  35.922   7.588
 2728POPC   C1B37663  28.946  36.511   8.765
 2728POPC   C2B37664  28.880  36.324   8.361
 2728POPC   C3B37665  29.085  36.433   7.962
 2728POPC   C4B37666  29.159  36.382   7.520
 2729POPC   NC337667  26.514  38.658   9.693
 2729POPC   PO437668  25.886  38.428   9.472
 2729POPC   GL137669  25.751  38.387   9.097
 2729POPC   GL237670  26.083  38.367   8.995
 2729POPC   C1A37671  25.689  38.595   8.708
 2729POPC   D2A37672  25.832  38.587   8.256
 2729POPC   C3A37673  25.536  38.455   7.946
 2729POPC   C4A37674  25.622  38.583   7.535
 2729POPC   C1B37675  26.100  38.310   8.574
 2729POPC   C2B37676  26.384  38.216   8.275
 2729POPC   C3B37677  26.302  38.107   7.889
 2729POPC   C4B37678  26.036  38.415   7.769
 2730POPC   NC337679   3.178   4.561   9.488
 2730POPC   PO437680   3.784   4.234   9.486
 2730POPC   GL137681   3.845   4.385   9.089
 2730POPC   GL237682   3.489   4.349   9.066
 2730POPC   C1A37683   3.790   4.334   8.639
 2730POPC   D2A37684   3.471   4.339   8.299
 2730POPC   C3A37685   3.661   4.241   7.885
 2730POPC   C4A37686   3.643   4.115   7.432
 2730POPC   C1B37687   3.350   4.605   8.742
 2730POPC   C2B37688   3.305   4.806   8.346
 2730POPC   C3B37689   3.496   4.745   7.940
 2730POPC   C4B37690   3.310   4.828   7.494
 2731POPC   NC337691  18.300  13.854   9.674
 2731POPC   PO437692  18.293  13.285   9.471
 2731POPC   GL137693  18.131  13.502   9.097
 2731POPC   GL237694  18.212  13.857   9.147
 2731POPC   C1A37695  18.144  13.603   8.633
 2731POPC   D2A37696  18.222  13.353   8.262
 2731POPC   C3A37697  18.154  13.385   7.815
 2731POPC   C4A37698  18.473  13.386   7.470
 2731POPC   C1B37699  18.448  13.987   8.765
 2731POPC   C2B37700  18.565  13.827   8.330
 2731POPC   C3B37701  18.328  13.836   7.931
 2731POPC   C4B37702  18.294  13.844   7.469
 2732POPC   NC337703  41.939   5.255   9.535
 2732POPC   PO437704  42.457   4.844   9.597
 2732POPC   GL137705  42.506   4.996   9.176
 2732POPC   GL237706  42.290   5.307   9.157
 2732POPC   C1A37707  42.633   5.186   8.790
 2732POPC   D2A37708  42.284   5.215   8.508
 2732POPC   C3A37709  42.294   5.327   8.068
 2732POPC   C4A37710  42.598   5.092   7.843
 2732POPC   C1B37711  42.045   4.977   8.918
 2732POPC   C2B37712  41.979   4.751   8.533
 2732POPC   C3B37713  42.128   4.848   8.155
 2732POPC   C4B37714  41.963   4.989   7.790
 2733POPC   NC337715  19.526   9.836   9.755
 2733POPC   PO437716  18.994   9.445   9.527
 2733POPC   GL137717  18.957   9.701   9.164
 2733POPC   GL237718  19.206   9.500   9.038
 2733POPC   C1A37719  18.919   9.778   8.705
 2733POPC   D2A37720  19.170   9.780   8.322
 2733POPC   C3A37721  18.960   9.972   7.957
 2733POPC   C4A37722  18.682   9.953   7.597
 2733POPC   C1B37723  19.386   9.393   8.654
 2733POPC   C2B37724  19.506   9.414   8.218
 2733POPC   C3B37725  19.215   9.496   7.847
 2733POPC   C4B37726  19.369   9.484   7.374
 2734POPC   NC337727  30.505   3.606   9.444
 2734POPC   PO437728  30.986   3.328   9.367
 2734POPC   GL137729  30.762   3.483   8.987
 2734POPC   GL237730  30.474   3.719   8.949
 2734POPC   C1A37731  30.697   3.365   8.565
 2734POPC   D2A37732  30.408   3.208   8.221
 2734POPC   C3A37733  30.466   3.371   7.823
 2734POPC   C4A37734  30.770   3.536   7.579
 2734POPC   C1B37735  30.736   3.897   8.609
 2734POPC   C2B37736  31.008   4.056   8.251
 2734POPC   C3B37737  30.831   4.018   7.804
 2734POPC   C4B37738  30.388   3.874   7.683
 2735POPC   NC337739  13.413  10.497   9.541
 2735POPC   PO437740  13.828   9.996   9.365
 2735POPC   GL137741  13.564  10.249   9.143
 2735POPC   GL237742  13.600  10.079   8.895
 2735POPC   C1A37743  13.385  10.536   8.833
 2735POPC   D2A37744  13.596  10.652   8.455
 2735POPC   C3A37745  13.514  10.437   8.106
 2735POPC   C4A37746  13.527  10.619   7.728
 2735POPC   C1B37747  13.762   9.949   8.595
 2735POPC   C2B37748  13.912  10.209   8.344
 2735POPC   C3B37749  14.056  10.123   7.969
 2735POPC   C4B37750  14.047  10.291   7.598
 2736POPC   NC337751  42.086  14.778   9.486
 2736POPC   PO437752  42.416  15.418   9.702
 2736POPC   GL137753  42.223  15.231   9.263
 2736POPC   GL237754  42.383  14.947   9.112
 2736POPC   C1A37755  42.160  15.244   8.772
 2736POPC   D2A37756  42.428  15.401   8.403
 2736POPC   C3A37757  42.275  15.447   7.977
 2736POPC   C4A37758  42.111  15.317   7.559
 2736POPC   C1B37759  42.659  15.218   8.826
 2736POPC   C2B37760  42.820  15.081   8.430
 2736POPC   C3B37761  42.604  15.057   8.047
 2736POPC   C4B37762  42.632  15.296   7.646
 2737POPC   NC337763   0.936  21.135   9.561
 2737POPC   PO437764   1.523  21.382   9.789
 2737POPC   GL137765   1.473  21.303   9.289
 2737POPC   GL237766   1.140  21.397   9.160
 2737POPC   C1A37767   1.504  21.445   8.820
 2737POPC   D2A37768   1.276  21.550   8.407
 2737POPC   C3A37769   1.364  21.247   8.069
 2737POPC   C4A37770   1.648  20.860   7.997
 2737POPC   C1B37771   1.013  21.216   8.723
 2737POPC   C2B37772   0.837  21.248   8.277
 2737POPC   C3B37773   0.759  21.545   7.921
 2737POPC   C4B37774   1.130  21.776   7.746
 2738POPC   NC337775   4.664  29.941   9.847
 2738POPC   PO437776   5.080  29.601   9.433
 2738POPC   GL137777   4.973  29.844   9.126
 2738POPC   GL237778   5.325  29.869   9.067
 2738POPC   C1A37779   4.719  29.996   8.754
 2738POPC   D2A37780   4.588  30.062   8.326
 2738POPC   C3A37781   4.925  30.036   8.045
 2738POPC   C4A37782   5.348  30.236   7.953
 2738POPC   C1B37783   5.147  29.727   8.677
 2738POPC   C2B37784   5.301  29.616   8.292
 2738POPC   C3B37785   5.192  29.599   7.929
 2738POPC   C4B37786   5.418  29.535   7.585
 2739POPC   NC337787  36.703  44.859   9.539
 2739POPC   PO437788  37.334   0.100   9.568
 2739POPC   GL137789  37.174  44.916   9.172
 2739POPC   GL237790  36.836  44.779   9.076
 2739POPC   C1A37791  37.251  44.654   8.801
 2739POPC   D2A37792  37.233  44.787   8.385
 2739POPC   C3A37793  37.114  44.554   8.034
 2739POPC   C4A37794  36.804  44.516   7.708
 2739POPC   C1B37795  36.782  44.864   8.695
 2739POPC   C2B37796  36.702  44.693   8.346
 2739POPC   C3B37797  36.732  44.906   8.004
 2739POPC   C4B37798  36.739   0.060   7.594
 2740POPC   NC337799  37.593   7.035   9.511
 2740POPC   PO437800  37.912   7.619   9.336
 2740POPC   GL137801  37.510   7.464   9.164
 2740POPC   GL237802  37.316   7.757   9.016
 2740POPC   C1A37803  37.445   7.176   8.790
 2740POPC   D2A37804  37.265   7.227   8.354
 2740POPC   C3A37805  37.559   7.158   8.008
 2740POPC   C4A37806  37.907   7.452   7.857
 2740POPC   C1B37807  37.614   7.662   8.705
 2740POPC   C2B37808  37.787   7.403   8.409
 2740POPC   C3B37809  37.530   7.637   8.145
 2740POPC   C4B37810  37.407   7.844   7.803
 2741POPC   NC337811  13.525  34.335   9.814
 2741POPC   PO437812  13.443  34.861   9.805
 2741POPC   GL137813  13.569  34.691   9.321
 2741POPC   GL237814  13.658  34.341   9.168
 2741POPC   C1A37815  13.723  34.726   8.829
 2741POPC   D2A37816  13.888  34.589   8.398
 2741POPC   C3A37817  13.675  34.669   7.997
 2741POPC   C4A37818  13.456  34.381   7.725
 2741POPC   C1B37819  13.777  34.183   8.704
 2741POPC   C2B37820  13.808  34.048   8.220
 2741POPC   C3B37821  13.814  33.958   7.750
 2741POPC   C4B37822  13.840  33.949   7.289
 2742POPC   NC337823  16.997  32.777   9.583
 2742POPC   PO437824  16.396  32.715   9.264
 2742POPC   GL137825  16.554  32.913   8.991
 2742POPC   GL237826  16.884  32.960   9.093
 2742POPC   C1A37827  16.429  33.012   8.603
 2742POPC   D2A37828  16.709  33.100   8.294
 2742POPC   C3A37829  16.511  33.128   7.900
 2742POPC   C4A37830  16.560  32.704   7.784
 2742POPC   C1B37831  16.949  32.776   8.688
 2742POPC   C2B37832  17.159  32.818   8.300
 2742POPC   C3B37833  17.006  32.924   7.896
 2742POPC   C4B37834  17.084  32.661   7.555
 2743POPC   NC337835  38.997  29.114   9.622
 2743POPC   PO437836  39.580  29.413   9.477
 2743POPC   GL137837  39.324  29.112   9.216
 2743POPC   GL237838  38.969  29.213   9.128
 2743POPC   C1A37839  39.142  28.844   8.844
 2743POPC   D2A37840  38.968  29.033   8.442
 2743POPC   C3A37841  39.061  28.794   8.048
 2743POPC   C4A37842  39.187  28.948   7.629
 2743POPC   C1B37843  39.250  29.446   8.820
 2743POPC   C2B37844  39.388  29.409   8.376
 2743POPC   C3B37845  39.161  29.315   7.998
 2743POPC   C4B37846  38.790  29.467   7.804
 2744POPC   NC337847  18.734  18.021   9.378
 2744POPC   PO437848  19.279  17.567   9.381
 2744POPC   GL137849  19.095  17.519   8.999
 2744POPC   GL237850  19.028  17.873   8.997
 2744POPC   C1A37851  19.037  17.330   8.567
 2744POPC   D2A37852  18.802  17.615   8.309
 2744POPC   C3A37853  18.933  17.572   7.946
 2744POPC   C4A37854  18.963  17.352   7.649
 2744POPC   C1B37855  19.199  17.837   8.609
 2744POPC   C2B37856  19.308  17.799   8.206
 2744POPC   C3B37857  19.247  17.969   7.833
 2744POPC   C4B37858  18.979  17.866   7.506
 2745POPC   NC337859  41.117  31.144   9.599
 2745POPC   PO437860  40.603  30.740   9.616
 2745POPC   GL137861  40.761  30.874   9.199
 2745POPC   GL237862  41.102  30.706   9.105
 2745POPC   C1A37863  40.839  30.956   8.743
 2745POPC   D2A37864  41.118  30.740   8.435
 2745POPC   C3A37865  41.017  30.839   8.012
 2745POPC   C4A37866  40.685  30.889   7.723
 2745POPC   C1B37867  40.873  30.434   8.795
 2745POPC   C2B37868  40.933  30.250   8.395
 2745POPC   C3B37869  40.812  30.335   7.997
 2745POPC   C4B37870  40.969  30.449   7.651
 2746POPC   NC337871  34.177   6.803   9.763
 2746POPC   PO437872  34.822   6.666   9.609
 2746POPC   GL137873  34.813   6.812   9.184
 2746POPC   GL237874  35.081   6.990   9.080
 2746POPC   C1A37875  34.757   6.659   8.734
 2746POPC   D2A37876  34.896   6.479   8.319
 2746POPC   C3A37877  34.689   6.642   7.911
 2746POPC   C4A37878  34.247   6.658   7.768
 2746POPC   C1B37879  34.945   7.114   8.697
 2746POPC   C2B37880  34.832   7.011   8.278
 2746POPC   C3B37881  34.991   7.141   7.886
 2746POPC   C4B37882  34.976   6.941   7.480
 2747POPC   NC337883  24.325  26.327   9.436
 2747POPC   PO437884  24.199  26.999   9.606
 2747POPC   GL137885  24.329  26.866   9.216
 2747POPC   GL237886  24.677  26.829   9.191
 2747POPC   C1A37887  24.312  26.642   8.828
 2747POPC   D2A37888  24.515  26.720   8.446
 2747POPC   C3A37889  24.257  26.735   8.101
 2747POPC   C4A37890  24.235  26.511   7.699
 2747POPC   C1B37891  24.877  26.934   8.769
 2747POPC   C2B37892  24.872  27.041   8.300
 2747POPC   C3B37893  24.741  26.782   7.942
 2747POPC   C4B37894  24.663  26.717   7.499
 2748POPC   NC337895  21.012  16.736   9.586
 2748POPC   PO437896  20.339  16.728   9.482
 2748POPC   GL137897  20.443  16.427   9.167
 2748POPC   GL237898  20.136  16.275   9.005
 2748POPC   C1A37899  20.719  16.513   8.805
 2748POPC   D2A37900  20.828  16.803   8.437
 2748POPC   C3A37901  20.706  16.745   7.984
 2748POPC   C4A37902  20.705  17.047   7.628
 2748POPC   C1B37903  20.174  16.644   8.775
 2748POPC   C2B37904  20.251  16.721   8.368
 2748POPC   C3B37905  20.303  16.410   8.097
 2748POPC   C4B37906  20.363  16.453   7.682
 2749POPC   NC337907  21.549  34.342   9.545
 2749POPC   PO437908  21.062  34.752   9.529
 2749POPC   GL137909  21.303  34.578   9.165
 2749POPC   GL237910  21.647  34.687   9.185
 2749POPC   C1A37911  21.443  34.405   8.769
 2749POPC   D2A37912  21.293  34.448   8.326
 2749POPC   C3A37913  21.494  34.216   8.031
 2749POPC   C4A37914  21.194  34.211   7.703
 2749POPC   C1B37915  21.686  35.018   8.879
 2749POPC   C2B37916  21.520  34.872   8.527
 2749POPC   C3B37917  21.575  34.903   8.111
 2749POPC   C4B37918  21.410  34.679   7.788
 2750POPC   NC337919  39.846  11.545   9.251
 2750POPC   PO437920  39.594  12.098   9.487
 2750POPC   GL137921  39.769  12.200   9.092
 2750POPC   GL237922  40.130  12.162   9.125
 2750POPC   C1A37923  39.867  12.205   8.652
 2750POPC   D2A37924  39.858  12.433   8.264
 2750POPC   C3A37925  39.950  12.154   7.954
 2750POPC   C4A37926  40.096  11.813   7.723
 2750POPC   C1B37927  40.327  12.390   8.780
 2750POPC   C2B37928  40.295  12.195   8.356
 2750POPC   C3B37929  40.454  12.159   7.942
 2750POPC   C4B37930  40.621  12.441   7.687
 2751POPC   NC337931  21.267  17.496   9.688
 2751POPC   PO437932  21.027  17.047   9.240
 2751POPC   GL137933  21.314  17.331   9.169
 2751POPC   GL237934  21.239  17.668   9.199
 2751POPC   C1A37935  21.503  17.406   8.776
 2751POPC   D2A37936  21.713  17.266   8.423
 2751POPC   C3A37937  21.537  17.387   8.063
 2751POPC   C4A37938  21.157  17.329   7.857
 2751POPC   C1B37939  21.378  17.902   8.848
 2751POPC   C2B37940  21.477  17.830   8.421
 2751POPC   C3B37941  21.270  17.834   8.039
 2751POPC   C4B37942  21.043  17.799   7.668
 2752POPC   NC337943   7.017  21.341   9.840
 2752POPC   PO437944   7.721  21.341   9.723
 2752POPC   GL137945   7.754  21.200   9.296
 2752POPC   GL237946   7.403  21.157   9.200
 2752POPC   C1A37947   7.761  21.284   8.828
 2752POPC   D2A37948   7.519  21.300   8.428
 2752POPC   C3A37949   7.664  21.478   8.040
 2752POPC   C4A37950   7.484  21.465   7.615
 2752POPC   C1B37951   7.370  20.943   8.804
 2752POPC   C2B37952   7.247  20.864   8.361
 2752POPC   C3B37953   7.313  21.121   7.978
 2752POPC   C4B37954   6.986  21.285   7.702
 2753POPC   NC337955  42.204  36.784   9.526
 2753POPC   PO437956  42.211  37.379   9.443
 2753POPC   GL137957  42.108  37.145   9.062
 2753POPC   GL237958  42.257  36.790   9.032
 2753POPC   C1A37959  42.161  37.037   8.614
 2753POPC   D2A37960  42.193  36.662   8.371
 2753POPC   C3A37961  42.203  36.749   7.930
 2753POPC   C4A37962  42.221  36.904   7.509
 2753POPC   C1B37963  42.589  36.632   8.742
 2753POPC   C2B37964  42.668  36.452   8.316
 2753POPC   C3B37965  42.483  36.327   7.883
 2753POPC   C4B37966  42.452  36.431   7.405
 2754POPC   NC337967  42.062  21.605   9.596
 2754POPC   PO437968  42.313  21.006   9.636
 2754POPC   GL137969  42.459  21.205   9.249
 2754POPC   GL237970  42.614  21.530   9.363
 2754POPC   C1A37971  42.243  21.451   8.926
 2754POPC   D2A37972  42.109  21.424   8.500
 2754POPC   C3A37973  42.345  21.349   8.113
 2754POPC   C4A37974  42.291  21.594   7.738
 2754POPC   C1B37975  42.646  21.746   8.958
 2754POPC   C2B37976  42.603  21.588   8.520
 2754POPC   C3B37977  42.679  21.719   8.095
 2754POPC   C4B37978  42.754  21.808   7.673
 2755POPC   NC337979  38.990  12.718   9.772
 2755POPC   PO437980  39.572  12.874   9.469
 2755POPC   GL137981  39.586  12.941   9.053
 2755POPC   GL237982  39.374  12.626   9.008
 2755POPC   C1A37983  39.399  12.973   8.633
 2755POPC   D2A37984  39.367  12.609   8.364
 2755POPC   C3A37985  39.194  12.741   7.983
 2755POPC   C4A37986  39.336  13.049   7.664
 2755POPC   C1B37987  38.955  12.732   8.787
 2755POPC   C2B37988  38.914  12.919   8.369
 2755POPC   C3B37989  38.872  13.096   7.911
 2755POPC   C4B37990  38.888  12.906   7.447
 2756POPC   NC337991  30.430  41.529   9.419
 2756POPC   PO437992  31.005  41.217   9.392
 2756POPC   GL137993  30.800  41.435   9.046
 2756POPC   GL237994  30.640  41.762   9.023
 2756POPC   C1A37995  30.871  41.601   8.633
 2756POPC   D2A37996  30.691  41.487   8.287
 2756POPC   C3A37997  30.877  41.612   7.966
 2756POPC   C4A37998  30.732  41.402   7.655
 2756POPC   C1B37999  30.463  41.883   8.601
 2756POPC   C2B38000  30.350  41.829   8.116
 2756POPC   C3B38001  30.481  41.852   7.643
 2756POPC   C4B38002  30.273  41.808   7.204
 2757POPC   NC338003  14.954  30.690   9.399
 2757POPC   PO438004  15.566  30.572   9.710
 2757POPC   GL138005  15.434  30.510   9.275
 2757POPC   GL238006  15.604  30.784   9.155
 2757POPC   C1A38007  15.229  30.669   8.831
 2757POPC   D2A38008  14.916  30.518   8.518
 2757POPC   C3A38009  15.030  30.573   8.081
 2757POPC   C4A38010  14.957  30.864   7.751
 2757POPC   C1B38011  15.703  30.478   8.850
 2757POPC   C2B38012  15.427  30.317   8.524
 2757POPC   C3B38013  15.492  30.333   8.089
 2757POPC   C4B38014  15.464  30.575   7.749
 2758POPC   NC338015   1.867  15.685   9.470
 2758POPC   PO438016   2.024  16.287   9.519
 2758POPC   GL138017   1.950  16.095   9.154
 2758POPC   GL238018   2.240  15.894   9.140
 2758POPC   C1A38019   1.795  15.941   8.775
 2758POPC   D2A38020   1.988  15.990   8.380
 2758POPC   C3A38021   1.767  16.075   8.002
 2758POPC   C4A38022   1.672  15.845   7.617
 2758POPC   C1B38023   2.337  16.092   8.747
 2758POPC   C2B38024   2.511  16.071   8.353
 2758POPC   C3B38025   2.309  16.003   7.968
 2758POPC   C4B38026   2.129  16.293   7.707
 2759POPC   NC338027  20.011   1.947   9.640
 2759POPC   PO438028  19.531   2.212   9.274
 2759POPC   GL138029  19.791   2.021   9.029
 2759POPC   GL238030  19.981   1.819   9.136
 2759POPC   C1A38031  20.093   2.119   8.723
 2759POPC   D2A38032  20.053   2.340   8.359
 2759POPC   C3A38033  19.772   2.119   8.106
 2759POPC   C4A38034  19.915   2.084   7.681
 2759POPC   C1B38035  19.963   1.623   8.725
 2759POPC   C2B38036  19.827   1.645   8.338
 2759POPC   C3B38037  19.976   1.668   7.975
 2759POPC   C4B38038  19.796   1.571   7.643
 2760POPC   NC338039  41.868  43.798   9.553
 2760POPC   PO438040  41.392  44.192   9.324
 2760POPC   GL138041  41.557  43.902   9.055
 2760POPC   GL238042  41.691  43.581   9.117
 2760POPC   C1A38043  41.655  43.913   8.638
 2760POPC   D2A38044  41.910  44.075   8.338
 2760POPC   C3A38045  41.716  43.936   8.009
 2760POPC   C4A38046  41.388  43.819   7.757
 2760POPC   C1B38047  41.895  43.461   8.719
 2760POPC   C2B38048  41.822  43.502   8.258
 2760POPC   C3B38049  41.840  43.488   7.772
 2760POPC   C4B38050  42.023  43.444   7.302
 2761POPC   NC338051   7.092  44.670   9.675
 2761POPC   PO438052   6.472  44.315   9.503
 2761POPC   GL138053   6.656  44.551   9.165
 2761POPC   GL238054   6.924  44.312   9.153
 2761POPC   C1A38055   6.468  44.712   8.742
 2761POPC   D2A38056   6.329   0.061   8.407
 2761POPC   C3A38057   6.392  44.976   7.948
 2761POPC   C4A38058   6.456  44.530   7.825
 2761POPC   C1B38059   6.947  44.494   8.731
 2761POPC   C2B38060   6.750  44.571   8.313
 2761POPC   C3B38061   6.974  44.581   7.914
 2761POPC   C4B38062   6.890  44.386   7.505
 2762POPC   NC338063   3.541  27.535   9.894
 2762POPC   PO438064   3.151  28.107   9.666
 2762POPC   GL138065   3.476  27.947   9.266
 2762POPC   GL238066   3.492  27.561   9.238
 2762POPC   C1A38067   3.610  27.777   8.802
 2762POPC   D2A38068   3.425  27.625   8.402
 2762POPC   C3A38069   3.448  27.813   8.030
 2762POPC   C4A38070   3.792  27.818   7.778
 2762POPC   C1B38071   3.403  27.300   8.816
 2762POPC   C2B38072   3.532  27.133   8.376
 2762POPC   C3B38073   3.633  27.331   7.960
 2762POPC   C4B38074   3.369  27.477   7.622
 2763POPC   NC338075  23.470   2.573   9.473
 2763POPC   PO438076  24.062   2.946   9.471
 2763POPC   GL138077  23.800   2.758   9.152
 2763POPC   GL238078  23.872   2.394   9.214
 2763POPC   C1A38079  23.528   2.613   8.803
 2763POPC   D2A38080  23.525   2.863   8.421
 2763POPC   C3A38081  23.660   2.702   8.038
 2763POPC   C4A38082  23.510   2.623   7.633
 2763POPC   C1B38083  23.940   2.271   8.816
 2763POPC   C2B38084  23.819   2.367   8.400
 2763POPC   C3B38085  24.086   2.439   8.024
 2763POPC   C4B38086  23.981   2.445   7.604
 2764POPC   NC338087  15.608  34.765   9.724
 2764POPC   PO438088  16.050  35.011   9.380
 2764POPC   GL138089  16.238  35.023   8.986
 2764POPC   GL238090  15.901  35.114   8.858
 2764POPC   C1A38091  16.295  35.241   8.567
 2764POPC   D2A38092  15.906  35.261   8.292
 2764POPC   C3A38093  15.945  35.456   7.871
 2764POPC   C4A38094  15.851  35.599   7.440
 2764POPC   C1B38095  16.058  34.798   8.569
 2764POPC   C2B38096  16.156  34.856   8.127
 2764POPC   C3B38097  15.860  34.963   7.777
 2764POPC   C4B38098  15.784  35.092   7.329
 2765POPC   NC338099  19.654  14.778   9.585
 2765POPC   PO438100  20.067  15.292   9.515
 2765POPC   GL138101  19.957  15.045   9.194
 2765POPC   GL238102  19.634  15.145   9.231
 2765POPC   C1A38103  20.011  15.193   8.795
 2765POPC   D2A38104  20.033  15.379   8.404
 2765POPC   C3A38105  20.065  15.073   8.095
 2765POPC   C4A38106  19.945  15.156   7.711
 2765POPC   C1B38107  19.524  14.967   8.843
 2765POPC   C2B38108  19.698  14.977   8.437
 2765POPC   C3B38109  19.523  15.050   8.043
 2765POPC   C4B38110  19.503  14.887   7.662
 2766POPC   NC338111  10.535  18.483   9.473
 2766POPC   PO438112  10.524  17.851   9.248
 2766POPC   GL138113  10.421  18.214   8.960
 2766POPC   GL238114  10.455  18.581   8.999
 2766POPC   C1A38115  10.570  18.365   8.544
 2766POPC   D2A38116  10.785  18.524   8.162
 2766POPC   C3A38117  10.827  18.184   7.921
 2766POPC   C4A38118  10.684  18.021   7.568
 2766POPC   C1B38119  10.165  18.612   8.723
 2766POPC   C2B38120  10.061  18.274   8.484
 2766POPC   C3B38121  10.303  18.186   8.146
 2766POPC   C4B38122  10.257  18.214   7.727
 2767POPC   NC338123  27.781   4.907   9.638
 2767POPC   PO438124  27.561   5.545   9.775
 2767POPC   GL138125  27.634   5.293   9.332
 2767POPC   GL238126  27.463   4.928   9.229
 2767POPC   C1A38127  27.512   5.284   8.869
 2767POPC   D2A38128  27.421   5.019   8.498
 2767POPC   C3A38129  27.426   5.211   8.065
 2767POPC   C4A38130  27.637   5.459   7.759
 2767POPC   C1B38131  27.656   4.701   8.862
 2767POPC   C2B38132  27.637   4.563   8.415
 2767POPC   C3B38133  27.638   4.757   7.997
 2767POPC   C4B38134  27.482   4.954   7.598
 2768POPC   NC338135  27.291  29.635   9.530
 2768POPC   PO438136  27.731  30.104   9.564
 2768POPC   GL138137  27.454  30.023   9.203
 2768POPC   GL238138  27.477  29.683   9.043
 2768POPC   C1A38139  27.397  30.155   8.783
 2768POPC   D2A38140  27.486  29.957   8.399
 2768POPC   C3A38141  27.427  30.181   8.042
 2768POPC   C4A38142  27.300  30.035   7.643
 2768POPC   C1B38143  27.831  29.851   8.861
 2768POPC   C2B38144  27.992  29.931   8.479
 2768POPC   C3B38145  27.880  29.758   8.088
 2768POPC   C4B38146  27.796  29.983   7.738
 2769POPC   NC338147  42.940  27.221   9.337
 2769POPC   PO438148  43.411  27.678   9.575
 2769POPC   GL138149  43.177  27.655   9.194
 2769POPC   GL238150  42.826  27.762   9.080
 2769POPC   C1A38151  43.242  27.678   8.790
 2769POPC   D2A38152  43.089  27.764   8.403
 2769POPC   C3A38153  43.380  27.812   8.096
 2769POPC   C4A38154  43.419  27.606   7.738
 2769POPC   C1B38155  42.746  27.493   8.725
 2769POPC   C2B38156  42.761  27.320   8.308
 2769POPC   C3B38157  42.932  27.482   7.920
 2769POPC   C4B38158  42.979  27.576   7.485
 2770POPC   NC338159  42.942  27.980   9.521
 2770POPC   PO438160  43.358  28.540   9.553
 2770POPC   GL138161  43.133  28.626   9.180
 2770POPC   GL238162  42.893  28.338   9.147
 2770POPC   C1A38163  43.213  28.554   8.744
 2770POPC   D2A38164  43.349  28.309   8.393
 2770POPC   C3A38165  43.279  28.578   8.055
 2770POPC   C4A38166  43.205  28.435   7.655
 2770POPC   C1B38167  42.940  28.126   8.761
 2770POPC   C2B38168  42.835  28.248   8.367
 2770POPC   C3B38169  42.966  28.094   7.986
 2770POPC   C4B38170  42.820  28.084   7.596
 2771POPC   NC338171   6.857  10.593   9.325
 2771POPC   PO438172   6.192  10.551   9.395
 2771POPC   GL138173   6.452  10.533   9.031
 2771POPC   GL238174   6.476  10.898   9.083
 2771POPC   C1A38175   6.728  10.654   8.686
 2771POPC   D2A38176   7.015  10.801   8.380
 2771POPC   C3A38177   6.735  10.836   8.051
 2771POPC   C4A38178   6.552  10.502   7.785
 2771POPC   C1B38179   6.141  10.825   8.775
 2771POPC   C2B38180   6.255  10.566   8.436
 2771POPC   C3B38181   6.219  10.792   8.078
 2771POPC   C4B38182   6.133  10.772   7.684
 2772POPC   NC338183  39.953   9.530   9.439
 2772POPC   PO438184  39.696  10.175   9.366
 2772POPC   GL138185  39.841   9.866   9.012
 2772POPC   GL238186  39.768   9.502   8.997
 2772POPC   C1A38187  39.810   9.753   8.549
 2772POPC   D2A38188  39.566   9.532   8.236
 2772POPC   C3A38189  39.587   9.728   7.828
 2772POPC   C4A38190  39.616   9.673   7.352
 2772POPC   C1B38191  39.754   9.260   8.664
 2772POPC   C2B38192  40.019   9.281   8.330
 2772POPC   C3B38193  39.996   9.455   7.952
 2772POPC   C4B38194  39.780   9.268   7.633
 2773POPC   NC338195  31.127   8.136   9.548
 2773POPC   PO438196  31.752   7.870   9.380
 2773POPC   GL138197  31.530   8.255   9.247
 2773POPC   GL238198  31.746   8.401   9.069
 2773POPC   C1A38199  31.294   8.416   8.862
 2773POPC   D2A38200  31.276   8.184   8.443
 2773POPC   C3A38201  31.366   8.383   8.036
 2773POPC   C4A38202  31.764   8.431   7.851
 2773POPC   C1B38203  31.728   8.196   8.694
 2773POPC   C2B38204  31.788   8.128   8.270
 2773POPC   C3B38205  31.605   7.934   7.909
 2773POPC   C4B38206  31.616   7.731   7.496
 2774POPC   NC338207   1.242  37.536   9.796
 2774POPC   PO438208   1.021  37.791   9.197
 2774POPC   GL138209   1.223  37.716   8.908
 2774POPC   GL238210   1.522  37.776   9.034
 2774POPC   C1A38211   1.089  37.749   8.518
 2774POPC   D2A38212   0.888  37.430   8.324
 2774POPC   C3A38213   0.884  37.603   7.920
 2774POPC   C4A38214   0.918  38.015   7.796
 2774POPC   C1B38215   1.606  37.652   8.595
 2774POPC   C2B38216   1.423  37.515   8.187
 2774POPC   C3B38217   1.339  37.434   7.751
 2774POPC   C4B38218   1.403  37.744   7.437
 2775POPC   NC338219  12.142  14.720   9.640
 2775POPC   PO438220  11.951  15.317   9.359
 2775POPC   GL138221  12.228  15.102   9.138
 2775POPC   GL238222  11.962  15.080   8.890
 2775POPC   C1A38223  12.452  14.993   8.764
 2775POPC   D2A38224  12.626  15.121   8.356
 2775POPC   C3A38225  12.296  14.995   8.045
 2775POPC   C4A38226  11.902  15.034   7.755
 2775POPC   C1B38227  11.704  15.402   8.656
 2775POPC   C2B38228  11.604  15.360   8.197
 2775POPC   C3B38229  11.718  15.541   7.794
 2775POPC   C4B38230  11.624  15.443   7.352
 2776POPC   NC338231  16.927   9.404   9.514
 2776POPC   PO438232  16.780   8.744   9.438
 2776POPC   GL138233  16.691   8.948   9.096
 2776POPC   GL238234  16.987   9.108   9.073
 2776POPC   C1A38235  16.724   8.780   8.691
 2776POPC   D2A38236  16.878   8.858   8.292
 2776POPC   C3A38237  16.590   8.961   7.954
 2776POPC   C4A38238  16.302   8.627   7.881
 2776POPC   C1B38239  17.115   9.451   8.779
 2776POPC   C2B38240  16.976   9.630   8.351
 2776POPC   C3B38241  16.948   9.432   7.897
 2776POPC   C4B38242  17.059   9.364   7.410
 2777POPC   NC338243  24.149   3.405   9.553
 2777POPC   PO438244  23.540   3.797   9.524
 2777POPC   GL138245  23.851   3.682   9.229
 2777POPC   GL238246  23.868   3.315   9.124
 2777POPC   C1A38247  23.986   3.752   8.828
 2777POPC   D2A38248  24.058   3.615   8.432
 2777POPC   C3A38249  23.866   3.765   8.095
 2777POPC   C4A38250  23.837   3.444   7.785
 2777POPC   C1B38251  23.705   3.304   8.674
 2777POPC   C2B38252  23.568   3.349   8.219
 2777POPC   C3B38253  23.472   3.115   7.806
 2777POPC   C4B38254  23.279   2.986   7.365
 2778POPC   NC338255  34.115  38.838   9.533
 2778POPC   PO438256  33.541  38.496   9.415
 2778POPC   GL138257  33.827  38.666   9.121
 2778POPC   GL238258  34.103  38.431   9.093
 2778POPC   C1A38259  33.893  38.657   8.670
 2778POPC   D2A38260  34.029  38.363   8.356
 2778POPC   C3A38261  33.959  38.646   8.027
 2778POPC   C4A38262  33.592  38.725   7.739
 2778POPC   C1B38263  33.756  38.196   8.842
 2778POPC   C2B38264  33.491  38.282   8.494
 2778POPC   C3B38265  33.570  38.220   8.073
 2778POPC   C4B38266  33.922  38.193   7.819
 2779POPC   NC338267  14.804  16.560   5.589
 2779POPC   PO438268  15.311  16.794   5.124
 2779POPC   GL138269  15.328  16.755   5.586
 2779POPC   GL238270  15.647  16.617   5.738
 2779POPC   C1A38271  15.274  16.747   6.064
 2779POPC   D2A38272  15.365  16.642   6.520
 2779POPC   C3A38273  15.079  16.679   6.934
 2779POPC   C4A38274  15.023  16.383   7.284
 2779POPC   C1B38275  15.767  16.803   6.161
 2779POPC   C2B38276  15.816  16.960   6.573
 2779POPC   C3B38277  15.583  16.844   6.933
 2779POPC   C4B38278  15.411  16.736   7.354
 2780POPC   NC338279  39.864  25.053   5.492
 2780POPC   PO438280  40.340  25.627   5.358
 2780POPC   GL138281  40.162  25.432   5.720
 2780POPC   GL238282  40.217  25.090   5.855
 2780POPC   C1A38283  40.130  25.529   6.145
 2780POPC   D2A38284  39.928  25.578   6.513
 2780POPC   C3A38285  39.871  25.307   6.834
 2780POPC   C4A38286  40.190  25.121   7.097
 2780POPC   C1B38287  39.913  25.049   6.215
 2780POPC   C2B38288  39.684  24.890   6.587
 2780POPC   C3B38289  39.715  24.871   7.043
 2780POPC   C4B38290  39.967  24.800   7.414
 2781POPC   NC338291  12.391  41.843   5.183
 2781POPC   PO438292  11.963  41.411   5.516
 2781POPC   GL138293  12.169  41.521   5.859
 2781POPC   GL238294  12.359  41.804   5.785
 2781POPC   C1A38295  12.088  41.668   6.286
 2781POPC   D2A38296  11.894  41.804   6.657
 2781POPC   C3A38297  12.072  41.610   7.042
 2781POPC   C4A38298  12.141  41.413   7.456
 2781POPC   C1B38299  12.576  41.780   6.214
 2781POPC   C2B38300  12.476  41.669   6.678
 2781POPC   C3B38301  12.493  41.908   7.091
 2781POPC   C4B38302  12.215  41.930   7.459
 2782POPC   NC338303  24.365  42.658   5.401
 2782POPC   PO438304  24.455  41.967   5.463
 2782POPC   GL138305  24.291  42.309   5.767
 2782POPC   GL238306  24.636  42.441   5.810
 2782POPC   C1A38307  24.260  42.532   6.198
 2782POPC   D2A38308  24.071  42.542   6.633
 2782POPC   C3A38309  24.259  42.328   7.029
 2782POPC   C4A38310  24.699  42.152   7.078
 2782POPC   C1B38311  24.560  42.099   6.148
 2782POPC   C2B38312  24.454  42.185   6.573
 2782POPC   C3B38313  24.591  42.601   6.752
 2782POPC   C4B38314  24.546  42.822   7.129
 2783POPC   NC338315  33.389  10.097   5.308
 2783POPC   PO438316  32.642  10.085   5.301
 2783POPC   GL138317  32.880  10.383   5.588
 2783POPC   GL238318  32.658  10.587   5.863
 2783POPC   C1A38319  33.146  10.405   5.940
 2783POPC   D2A38320  33.054  10.457   6.377
 2783POPC   C3A38321  33.325  10.567   6.741
 2783POPC   C4A38322  33.192  10.657   7.135
 2783POPC   C1B38323  32.749  10.878   6.232
 2783POPC   C2B38324  32.845  10.812   6.679
 2783POPC   C3B38325  32.744  10.493   6.983
 2783POPC   C4B38326  32.498  10.688   7.258
 2784POPC   NC338327  10.485  12.391   5.318
 2784POPC   PO438328  10.341  11.795   5.406
 2784POPC   GL138329  10.364  11.849   5.855
 2784POPC   GL238330  10.577  12.143   5.871
 2784POPC   C1A38331  10.476  11.929   6.304
 2784POPC   D2A38332  10.744  12.108   6.631
 2784POPC   C3A38333  10.569  11.971   7.012
 2784POPC   C4A38334  10.368  11.854   7.419
 2784POPC   C1B38335  10.245  12.353   6.194
 2784POPC   C2B38336  10.217  12.283   6.681
 2784POPC   C3B38337  10.415  12.449   7.083
 2784POPC   C4B38338  10.888  12.393   7.125
 2785POPC   NC338339  34.429  13.851   5.240
 2785POPC   PO438340  34.946  13.467   5.184
 2785POPC   GL138341  34.730  13.595   5.623
 2785POPC   GL238342  34.384  13.711   5.716
 2785POPC   C1A38343  34.716  13.635   6.116
 2785POPC   D2A38344  34.601  13.373   6.512
 2785POPC   C3A38345  34.628  13.578   6.966
 2785POPC   C4A38346  34.888  13.957   7.088
 2785POPC   C1B38347  34.202  13.599   6.080
 2785POPC   C2B38348  34.303  13.819   6.450
 2785POPC   C3B38349  34.207  13.880   6.867
 2785POPC   C4B38350  34.397  13.990   7.280
 2786POPC   NC338351  34.320   9.733   5.300
 2786POPC   PO438352  34.916   9.466   5.512
 2786POPC   GL138353  34.633   9.745   5.760
 2786POPC   GL238354  34.295   9.929   5.757
 2786POPC   C1A38355  34.708   9.812   6.179
 2786POPC   D2A38356  34.750  10.027   6.555
 2786POPC   C3A38357  34.704   9.683   6.866
 2786POPC   C4A38358  34.809   9.640   7.299
 2786POPC   C1B38359  34.212   9.678   6.105
 2786POPC   C2B38360  34.307   9.572   6.514
 2786POPC   C3B38361  34.175   9.687   6.925
 2786POPC   C4B38362  34.266   9.538   7.329
 2787POPC   NC338363  30.379   6.558   5.168
 2787POPC   PO438364  30.943   6.843   5.381
 2787POPC   GL138365  30.678   6.682   5.702
 2787POPC   GL238366  30.460   6.376   5.714
 2787POPC   C1A38367  30.874   6.524   6.076
 2787POPC   D2A38368  30.905   6.525   6.529
 2787POPC   C3A38369  30.805   6.842   6.826
 2787POPC   C4A38370  30.779   6.809   7.262
 2787POPC   C1B38371  30.380   6.422   6.181
 2787POPC   C2B38372  30.382   6.589   6.617
 2787POPC   C3B38373  30.425   6.498   7.059
 2787POPC   C4B38374  30.703   6.170   7.210
 2788POPC   NC338375  44.333  37.748   5.348
 2788POPC   PO438376  43.672  37.985   5.165
 2788POPC   GL138377  43.733  37.761   5.589
 2788POPC   GL238378  44.060  37.686   5.787
 2788POPC   C1A38379  43.617  37.833   6.040
 2788POPC   D2A38380  43.717  37.988   6.463
 2788POPC   C3A38381  43.544  37.871   6.874
 2788POPC   C4A38382  43.741  37.974   7.258
 2788POPC   C1B38383  44.031  37.594   6.250
 2788POPC   C2B38384  43.922  37.559   6.709
 2788POPC   C3B38385  43.860  37.475   7.173
 2788POPC   C4B38386  44.101  37.333   7.541
 2789POPC   NC338387   8.345   7.620   5.296
 2789POPC   PO438388   8.579   6.971   5.202
 2789POPC   GL138389   8.271   7.168   5.606
 2789POPC   GL238390   8.231   7.532   5.810
 2789POPC   C1A38391   8.089   7.126   6.076
 2789POPC   D2A38392   8.270   7.290   6.492
 2789POPC   C3A38393   8.158   7.283   6.933
 2789POPC   C4A38394   8.345   7.349   7.346
 2789POPC   C1B38395   7.948   7.608   6.213
 2789POPC   C2B38396   7.965   7.698   6.694
 2789POPC   C3B38397   8.037   7.722   7.176
 2789POPC   C4B38398   8.019   7.763   7.655
 2790POPC   NC338399  10.747  25.653   5.686
 2790POPC   PO438400  10.690  25.147   5.257
 2790POPC   GL138401  10.726  25.048   5.755
 2790POPC   GL238402  10.566  25.303   5.994
 2790POPC   C1A38403  10.576  24.841   6.189
 2790POPC   D2A38404  10.386  25.060   6.576
 2790POPC   C3A38405  10.471  24.888   6.982
 2790POPC   C4A38406  10.310  24.790   7.391
 2790POPC   C1B38407  10.817  25.273   6.380
 2790POPC   C2B38408  10.838  25.226   6.833
 2790POPC   C3B38409  10.587  25.345   7.183
 2790POPC   C4B38410  10.602  25.627   7.523
 2791POPC   NC338411  43.289   3.054   5.570
 2791POPC   PO438412  43.121   3.662   5.328
 2791POPC   GL138413  43.003   3.553   5.735
 2791POPC   GL238414  42.807   3.266   5.730
 2791POPC   C1A38415  43.066   3.542   6.170
 2791POPC   D2A38416  43.114   3.296   6.556
 2791POPC   C3A38417  43.144   3.596   6.914
 2791POPC   C4A38418  42.969   3.614   7.356
 2791POPC   C1B38419  42.632   3.257   6.161
 2791POPC   C2B38420  42.647   3.504   6.549
 2791POPC   C3B38421  42.681   3.393   6.998
 2791POPC   C4B38422  42.578   3.289   7.447
 2792POPC   NC338423  25.320  42.631   5.375
 2792POPC   PO438424  25.416  41.995   5.187
 2792POPC   GL138425  25.467  42.209   5.617
 2792POPC   GL238426  25.122  42.211   5.715
 2792POPC   C1A38427  25.541  42.421   6.024
 2792POPC   D2A38428  25.463  42.331   6.481
 2792POPC   C3A38429  25.628  42.619   6.812
 2792POPC   C4A38430  25.618  42.504   7.257
 2792POPC   C1B38431  25.038  42.296   6.156
 2792POPC   C2B38432  24.957  42.266   6.591
 2792POPC   C3B38433  25.163  42.426   6.943
 2792POPC   C4B38434  24.960  42.542   7.290
 2793POPC   NC338435  25.647   4.583   5.238
 2793POPC   PO438436  25.078   4.230   5.460
 2793POPC   GL138437  25.167   4.111   5.847
 2793POPC   GL238438  24.977   3.819   5.787
 2793POPC   C1A38439  25.209   4.261   6.281
 2793POPC   D2A38440  25.300   4.145   6.704
 2793POPC   C3A38441  25.257   4.373   7.051
 2793POPC   C4A38442  25.533   4.629   7.237
 2793POPC   C1B38443  24.829   3.906   6.190
 2793POPC   C2B38444  24.804   4.129   6.587
 2793POPC   C3B38445  24.910   3.998   7.007
 2793POPC   C4B38446  24.971   4.147   7.426
 2794POPC   NC338447  26.308  15.199   5.251
 2794POPC   PO438448  26.871  15.482   5.372
 2794POPC   GL138449  27.044  15.367   5.735
 2794POPC   GL238450  26.699  15.287   5.833
 2794POPC   C1A38451  27.077  15.198   6.158
 2794POPC   D2A38452  27.076  15.358   6.554
 2794POPC   C3A38453  27.053  15.133   6.929
 2794POPC   C4A38454  27.095  15.287   7.317
 2794POPC   C1B38455  26.532  15.079   6.211
 2794POPC   C2B38456  26.721  14.935   6.576
 2794POPC   C3B38457  26.585  14.908   6.971
 2794POPC   C4B38458  26.787  14.864   7.353
 2795POPC   NC338459  30.960  39.720   5.726
 2795POPC   PO438460  30.448  40.112   5.350
 2795POPC   GL138461  30.487  39.944   5.741
 2795POPC   GL238462  30.748  40.172   5.794
 2795POPC   C1A38463  30.520  39.812   6.192
 2795POPC   D2A38464  30.496  39.632   6.607
 2795POPC   C3A38465  30.700  39.851   6.969
 2795POPC   C4A38466  30.608  39.774   7.398
 2795POPC   C1B38467  30.548  40.324   6.151
 2795POPC   C2B38468  30.639  40.217   6.563
 2795POPC   C3B38469  30.580  40.424   6.943
 2795POPC   C4B38470  30.430  40.237   7.292
 2796POPC   NC338471  11.711  29.306   5.417
 2796POPC   PO438472  11.086  29.068   5.446
 2796POPC   GL138473  11.347  29.202   5.822
 2796POPC   GL238474  11.587  28.960   5.848
 2796POPC   C1A38475  11.527  29.287   6.264
 2796POPC   D2A38476  11.514  29.220   6.726
 2796POPC   C3A38477  11.228  29.367   7.036
 2796POPC   C4A38478  11.083  29.120   7.384
 2796POPC   C1B38479  11.435  28.801   6.249
 2796POPC   C2B38480  11.421  28.648   6.655
 2796POPC   C3B38481  11.291  28.849   6.980
 2796POPC   C4B38482  11.574  29.034   7.236
 2797POPC   NC338483  17.387  30.327   5.333
 2797POPC   PO438484  17.898  29.914   5.410
 2797POPC   GL138485  17.534  29.743   5.649
 2797POPC   GL238486  17.336  30.010   5.782
 2797POPC   C1A38487  17.523  29.579   6.068
 2797POPC   D2A38488  17.632  29.535   6.508
 2797POPC   C3A38489  17.757  29.837   6.840
 2797POPC   C4A38490  17.638  29.873   7.271
 2797POPC   C1B38491  17.372  30.367   6.092
 2797POPC   C2B38492  17.301  30.466   6.538
 2797POPC   C3B38493  17.540  30.374   6.909
 2797POPC   C4B38494  17.431  30.350   7.319
 2798POPC   NC338495  10.401  27.411   5.408
 2798POPC   PO438496  10.548  27.999   5.421
 2798POPC   GL138497  10.374  27.824   5.811
 2798POPC   GL238498  10.519  27.480   5.898
 2798POPC   C1A38499  10.407  27.842   6.266
 2798POPC   D2A38500  10.523  27.518   6.574
 2798POPC   C3A38501  10.283  27.521   6.965
 2798POPC   C4A38502  10.145  27.848   7.250
 2798POPC   C1B38503  10.863  27.705   6.084
 2798POPC   C2B38504  10.871  27.892   6.506
 2798POPC   C3B38505  10.908  27.727   6.896
 2798POPC   C4B38506  10.657  27.757   7.211
 2799POPC   NC338507  34.988   7.422   5.556
 2799POPC   PO438508  34.362   7.351   5.366
 2799POPC   GL138509  34.564   7.234   5.752
 2799POPC   GL238510  34.566   7.572   5.838
 2799POPC   C1A38511  34.764   7.265   6.196
 2799POPC   D2A38512  34.760   7.479   6.624
 2799POPC   C3A38513  34.775   7.256   7.048
 2799POPC   C4A38514  34.828   7.431   7.487
 2799POPC   C1B38515  34.332   7.784   6.191
 2799POPC   C2B38516  34.135   7.752   6.607
 2799POPC   C3B38517  34.135   7.825   7.055
 2799POPC   C4B38518  34.233   7.998   7.472
 2800POPC   NC338519   8.621  16.899   5.390
 2800POPC   PO438520   7.959  16.538   5.382
 2800POPC   GL138521   8.146  16.778   5.713
 2800POPC   GL238522   8.451  16.580   5.851
 2800POPC   C1A38523   8.086  16.766   6.175
 2800POPC   D2A38524   8.299  16.556   6.517
 2800POPC   C3A38525   8.274  16.755   6.899
 2800POPC   C4A38526   8.060  16.825   7.243
 2800POPC   C1B38527   8.656  16.317   6.202
 2800POPC   C2B38528   8.548  16.088   6.579
 2800POPC   C3B38529   8.474  16.284   6.941
 2800POPC   C4B38530   8.604  16.565   7.256
 2801POPC   NC338531  34.833  20.738   5.441
 2801POPC   PO438532  34.263  20.460   5.230
 2801POPC   GL138533  34.375  20.589   5.634
 2801POPC   GL238534  34.653  20.410   5.772
 2801POPC   C1A38535  34.414  20.761   6.068
 2801POPC   D2A38536  34.618  20.601   6.434
 2801POPC   C3A38537  34.437  20.669   6.818
 2801POPC   C4A38538  34.344  20.441   7.172
 2801POPC   C1B38539  34.901  20.295   6.131
 2801POPC   C2B38540  35.082  20.426   6.552
 2801POPC   C3B38541  34.942  20.532   6.946
 2801POPC   C4B38542  34.815  20.317   7.301
 2802POPC   NC338543  18.003  34.088   5.561
 2802POPC   PO438544  18.502  33.788   5.369
 2802POPC   GL138545  18.447  33.808   5.838
 2802POPC   GL238546  18.100  33.798   5.965
 2802POPC   C1A38547  18.473  33.761   6.304
 2802POPC   D2A38548  18.541  34.033   6.667
 2802POPC   C3A38549  18.364  33.774   6.994
 2802POPC   C4A38550  18.509  33.425   7.261
 2802POPC   C1B38551  18.093  34.098   6.334
 2802POPC   C2B38552  18.058  34.138   6.769
 2802POPC   C3B38553  17.889  33.983   7.116
 2802POPC   C4B38554  17.952  33.957   7.547
 2803POPC   NC338555  29.941  30.282   5.623
 2803POPC   PO438556  30.093  30.909   5.433
 2803POPC   GL138557  29.983  30.749   5.867
 2803POPC   GL238558  29.644  30.679   5.936
 2803POPC   C1A38559  29.944  30.629   6.329
 2803POPC   D2A38560  29.966  30.377   6.675
 2803POPC   C3A38561  29.967  30.642   7.023
 2803POPC   C4A38562  30.333  30.756   7.154
 2803POPC   C1B38563  29.632  31.028   6.225
 2803POPC   C2B38564  29.616  30.941   6.666
 2803POPC   C3B38565  29.486  30.753   7.010
 2803POPC   C4B38566  29.598  30.715   7.451
 2804POPC   NC338567   9.256  19.028   5.409
 2804POPC   PO438568   8.703  19.402   5.441
 2804POPC   GL138569   8.951  19.277   5.804
 2804POPC   GL238570   8.974  18.896   5.826
 2804POPC   C1A38571   8.844  19.200   6.253
 2804POPC   D2A38572   8.647  19.043   6.629
 2804POPC   C3A38573   8.813  19.168   7.033
 2804POPC   C4A38574   8.903  19.411   7.398
 2804POPC   C1B38575   9.148  18.750   6.230
 2804POPC   C2B38576   9.100  18.559   6.651
 2804POPC   C3B38577   9.265  18.636   7.075
 2804POPC   C4B38578   9.252  19.024   7.268
 2805POPC   NC338579  24.804  41.711   5.623
 2805POPC   PO438580  24.317  41.229   5.420
 2805POPC   GL138581  24.450  41.420   5.827
 2805POPC   GL238582  24.796  41.269   5.880
 2805POPC   C1A38583  24.513  41.555   6.269
 2805POPC   D2A38584  24.383  41.375   6.674
 2805POPC   C3A38585  24.489  41.586   7.089
 2805POPC   C4A38586  24.537  41.436   7.528
 2805POPC   C1B38587  25.013  41.421   6.259
 2805POPC   C2B38588  24.869  41.519   6.685
 2805POPC   C3B38589  24.997  41.422   7.103
 2805POPC   C4B38590  24.919  41.757   7.387
 2806POPC   NC338591  38.896  32.614   5.377
 2806POPC   PO438592  39.381  32.105   5.506
 2806POPC   GL138593  39.220  32.406   5.793
 2806POPC   GL238594  38.852  32.412   5.867
 2806POPC   C1A38595  39.413  32.403   6.220
 2806POPC   D2A38596  39.192  32.347   6.615
 2806POPC   C3A38597  39.428  32.351   7.014
 2806POPC   C4A38598  39.335  32.223   7.414
 2806POPC   C1B38599  39.021  32.053   6.158
 2806POPC   C2B38600  38.933  31.757   6.525
 2806POPC   C3B38601  39.113  31.908   6.912
 2806POPC   C4B38602  39.464  31.806   7.146
 2807POPC   NC338603   6.082   8.876   5.430
 2807POPC   PO438604   5.378   8.689   5.248
 2807POPC   GL138605   5.568   8.912   5.724
 2807POPC   GL238606   5.840   9.154   5.779
 2807POPC   C1A38607   5.818   8.855   6.179
 2807POPC   D2A38608   6.052   8.703   6.540
 2807POPC   C3A38609   5.788   8.759   6.906
 2807POPC   C4A38610   5.823   9.066   7.230
 2807POPC   C1B38611   5.545   9.271   6.134
 2807POPC   C2B38612   5.595   9.137   6.579
 2807POPC   C3B38613   5.490   9.383   6.977
 2807POPC   C4B38614   5.568   9.450   7.460
 2808POPC   NC338615  34.770  16.970   5.320
 2808POPC   PO438616  34.485  17.560   5.224
 2808POPC   GL138617  34.483  17.645   5.659
 2808POPC   GL238618  34.840  17.641   5.720
 2808POPC   C1A38619  34.450  17.465   6.063
 2808POPC   D2A38620  34.645  17.474   6.417
 2808POPC   C3A38621  34.446  17.515   6.804
 2808POPC   C4A38622  34.692  17.445   7.169
 2808POPC   C1B38623  34.727  17.908   6.063
 2808POPC   C2B38624  34.775  17.950   6.519
 2808POPC   C3B38625  34.731  17.929   6.974
 2808POPC   C4B38626  34.735  18.246   7.294
 2809POPC   NC338627  36.052  44.997   5.474
 2809POPC   PO438628  36.087  44.391   5.426
 2809POPC   GL138629  36.216  44.627   5.825
 2809POPC   GL238630  36.066  44.940   5.959
 2809POPC   C1A38631  36.196  44.605   6.289
 2809POPC   D2A38632  36.455  44.395   6.546
 2809POPC   C3A38633  36.650  44.588   6.889
 2809POPC   C4A38634  36.550  44.653   7.301
 2809POPC   C1B38635  35.850  44.997   6.292
 2809POPC   C2B38636  35.866  44.775   6.640
 2809POPC   C3B38637  36.038  44.910   6.972
 2809POPC   C4B38638  36.061  44.701   7.293
 2810POPC   NC338639  17.291  33.568   5.624
 2810POPC   PO438640  16.779  33.836   5.373
 2810POPC   GL138641  16.790  33.659   5.791
 2810POPC   GL238642  17.036  33.875   5.961
 2810POPC   C1A38643  16.730  33.487   6.223
 2810POPC   D2A38644  16.516  33.626   6.613
 2810POPC   C3A38645  16.571  33.577   7.060
 2810POPC   C4A38646  16.506  34.008   7.133
 2810POPC   C1B38647  17.233  33.817   6.372
 2810POPC   C2B38648  17.067  33.880   6.813
 2810POPC   C3B38649  17.034  33.763   7.252
 2810POPC   C4B38650  17.153  33.713   7.707
 2811POPC   NC338651   2.703  30.568   5.439
 2811POPC   PO438652   3.350  30.677   5.544
 2811POPC   GL138653   3.039  30.626   5.857
 2811POPC   GL238654   2.877  30.939   5.766
 2811POPC   C1A38655   2.891  30.556   6.283
 2811POPC   D2A38656   2.890  30.708   6.700
 2811POPC   C3A38657   2.635  30.520   7.030
 2811POPC   C4A38658   2.842  30.537   7.413
 2811POPC   C1B38659   2.545  30.872   6.063
 2811POPC   C2B38660   2.472  30.903   6.484
 2811POPC   C3B38661   2.425  30.983   6.915
 2811POPC   C4B38662   2.447  31.166   7.314
 2812POPC   NC338663  14.673  12.572   5.301
 2812POPC   PO438664  14.308  13.154   5.403
 2812POPC   GL138665  14.379  13.038   5.833
 2812POPC   GL238666  14.763  13.063   5.778
 2812POPC   C1A38667  14.291  12.646   6.121
 2812POPC   D2A38668  14.494  12.475   6.501
 2812POPC   C3A38669  14.434  12.635   6.900
 2812POPC   C4A38670  14.262  12.605   7.294
 2812POPC   C1B38671  14.742  12.875   6.181
 2812POPC   C2B38672  14.452  12.994   6.489
 2812POPC   C3B38673  14.484  13.149   6.899
 2812POPC   C4B38674  14.599  12.969   7.296
 2813POPC   NC338675  24.585  35.916   5.328
 2813POPC   PO438676  24.401  36.525   5.525
 2813POPC   GL138677  24.573  36.212   5.777
 2813POPC   GL238678  24.420  35.916   5.816
 2813POPC   C1A38679  24.585  36.211   6.214
 2813POPC   D2A38680  24.650  36.375   6.603
 2813POPC   C3A38681  24.326  36.187   6.815
 2813POPC   C4A38682  24.367  36.009   7.168
 2813POPC   C1B38683  24.385  35.721   6.227
 2813POPC   C2B38684  24.285  35.679   6.650
 2813POPC   C3B38685  24.214  35.512   7.043
 2813POPC   C4B38686  24.218  35.639   7.455
 2814POPC   NC338687  24.572  14.084   5.533
 2814POPC   PO438688  24.039  14.436   5.565
 2814POPC   GL138689  24.379  14.433   5.868
 2814POPC   GL238690  24.689  14.612   5.756
 2814POPC   C1A38691  24.405  14.306   6.289
 2814POPC   D2A38692  24.419  14.056   6.693
 2814POPC   C3A38693  24.546  14.213   7.096
 2814POPC   C4A38694  24.449  14.242   7.578
 2814POPC   C1B38695  24.823  14.604   6.213
 2814POPC   C2B38696  24.823  14.403   6.645
 2814POPC   C3B38697  24.761  14.681   6.992
 2814POPC   C4B38698  24.479  14.691   7.326
 2815POPC   NC338699  43.061  27.521   5.285
 2815POPC   PO438700  43.013  26.841   5.189
 2815POPC   GL138701  43.022  26.733   5.679
 2815POPC   GL238702  42.966  27.076   5.784
 2815POPC   C1A38703  43.034  26.659   6.177
 2815POPC   D2A38704  42.835  26.746   6.625
 2815POPC   C3A38705  42.928  26.485   6.996
 2815POPC   C4A38706  43.196  26.440   7.335
 2815POPC   C1B38707  43.273  27.104   6.126
 2815POPC   C2B38708  43.193  27.144   6.568
 2815POPC   C3B38709  43.216  26.923   6.968
 2815POPC   C4B38710  43.530  26.804   7.258
 2816POPC   NC338711  36.245  40.430   5.000
 2816POPC   PO438712  36.223  40.946   5.505
 2816POPC   GL138713  36.095  40.912   5.905
 2816POPC   GL238714  35.841  40.648   5.819
 2816POPC   C1A38715  36.240  40.921   6.336
 2816POPC   D2A38716  36.393  40.628   6.621
 2816POPC   C3A38717  36.449  40.855   6.999
 2816POPC   C4A38718  36.208  40.956   7.371
 2816POPC   C1B38719  35.942  40.530   6.235
 2816POPC   C2B38720  35.873  40.676   6.642
 2816POPC   C3B38721  35.969  40.639   7.064
 2816POPC   C4B38722  35.712  40.660   7.450
 2817POPC   NC338723  36.931   2.247   5.437
 2817POPC   PO438724  36.613   2.858   5.383
 2817POPC   GL138725  36.720   2.808   5.823
 2817POPC   GL238726  36.877   2.478   5.895
 2817POPC   C1A38727  36.848   3.027   6.213
 2817POPC   D2A38728  36.664   2.856   6.590
 2817POPC   C3A38729  36.886   2.731   6.948
 2817POPC   C4A38730  37.005   3.058   7.258
 2817POPC   C1B38731  37.011   2.569   6.316
 2817POPC   C2B38732  37.298   2.816   6.539
 2817POPC   C3B38733  37.396   2.799   6.969
 2817POPC   C4B38734  37.316   2.559   7.338
 2818POPC   NC338735  44.423  41.691   5.342
 2818POPC   PO438736  44.885  42.160   5.536
 2818POPC   GL138737  44.733  42.102   5.917
 2818POPC   GL238738  44.474  41.858   5.836
 2818POPC   C1A38739  44.614  42.334   6.271
 2818POPC   D2A38740  44.708  42.185   6.663
 2818POPC   C3A38741  44.654  42.506   6.932
 2818POPC   C4A38742  44.759  42.543   7.335
 2818POPC   C1B38743  44.486  41.834   6.290
 2818POPC   C2B38744  44.221  42.018   6.600
 2818POPC   C3B38745  44.270  42.176   7.000
 2818POPC   C4B38746  44.293  42.388   7.391
 2819POPC   NC338747   9.567   4.386   5.151
 2819POPC   PO438748  10.144   4.582   5.243
 2819POPC   GL138749   9.785   4.525   5.609
 2819POPC   GL238750   9.931   4.336   5.939
 2819POPC   C1A38751   9.473   4.528   5.981
 2819POPC   D2A38752   9.500   4.320   6.382
 2819POPC   C3A38753   9.360   4.326   6.808
 2819POPC   C4A38754   9.639   4.203   7.124
 2819POPC   C1B38755   9.932   4.625   6.328
 2819POPC   C2B38756  10.062   4.781   6.747
 2819POPC   C3B38757  10.178   4.540   7.124
 2819POPC   C4B38758  10.150   4.580   7.585
 2820POPC   NC338759  44.526  21.291   5.302
 2820POPC   PO438760  44.606  21.876   5.657
 2820POPC   GL138761  44.656  21.480   5.750
 2820POPC   GL238762  44.984  21.404   5.703
 2820POPC   C1A38763  44.508  21.165   5.995
 2820POPC   D2A38764  44.387  21.175   6.416
 2820POPC   C3A38765  44.571  21.385   6.769
 2820POPC   C4A38766  44.513  21.167   7.159
 2820POPC   C1B38767  44.918  21.402   6.185
 2820POPC   C2B38768   0.096  21.512   6.615
 2820POPC   C3B38769  44.964  21.652   7.037
 2820POPC   C4B38770  44.909  21.498   7.464
 2821POPC   NC338771   7.104  32.523   5.468
 2821POPC   PO438772   7.068  31.956   5.487
 2821POPC   GL138773   7.339  32.085   5.838
 2821POPC   GL238774   7.560  32.325   5.683
 2821POPC   C1A38775   7.348  32.107   6.323
 2821POPC   D2A38776   7.342  32.069   6.815
 2821POPC   C3A38777   7.465  32.386   7.148
 2821POPC   C4A38778   7.460  32.481   7.592
 2821POPC   C1B38779   7.775  32.289   6.109
 2821POPC   C2B38780   7.825  32.023   6.514
 2821POPC   C3B38781   7.847  32.064   6.967
 2821POPC   C4B38782   7.982  32.418   7.219
 2822POPC   NC338783  37.474  27.128   5.512
 2822POPC   PO438784  37.758  26.469   5.509
 2822POPC   GL138785  37.857  26.884   5.755
 2822POPC   GL238786  37.548  26.954   5.977
 2822POPC   C1A38787  37.960  27.193   6.120
 2822POPC   D2A38788  37.854  26.982   6.517
 2822POPC   C3A38789  37.698  27.214   6.878
 2822POPC   C4A38790  37.727  27.047   7.293
 2822POPC   C1B38791  37.304  26.637   6.177
 2822POPC   C2B38792  37.426  26.467   6.579
 2822POPC   C3B38793  37.516  26.719   6.916
 2822POPC   C4B38794  37.288  26.759   7.287
 2823POPC   NC338795  36.920  19.910   5.190
 2823POPC   PO438796  36.481  19.567   5.394
 2823POPC   GL138797  36.586  19.779   5.808
 2823POPC   GL238798  36.949  19.745   5.788
 2823POPC   C1A38799  36.584  19.847   6.292
 2823POPC   D2A38800  36.583  20.162   6.665
 2823POPC   C3A38801  36.607  20.038   7.121
 2823POPC   C4A38802  36.850  20.163   7.501
 2823POPC   C1B38803  37.066  19.692   6.247
 2823POPC   C2B38804  36.951  19.794   6.697
 2823POPC   C3B38805  37.096  19.839   7.145
 2823POPC   C4B38806  37.302  19.914   7.563
 2824POPC   NC338807  26.809   2.502   5.192
 2824POPC   PO438808  26.434   2.813   5.627
 2824POPC   GL138809  26.578   2.849   6.014
 2824POPC   GL238810  26.946   2.849   6.036
 2824POPC   C1A38811  26.416   2.884   6.411
 2824POPC   D2A38812  26.731   2.846   6.677
 2824POPC   C3A38813  26.735   3.012   7.033
 2824POPC   C4A38814  27.149   2.898   7.158
 2824POPC   C1B38815  26.836   2.488   6.320
 2824POPC   C2B38816  26.860   2.352   6.779
 2824POPC   C3B38817  26.744   2.535   7.181
 2824POPC   C4B38818  26.601   2.368   7.621
 2825POPC   NC338819  43.140  17.712   5.439
 2825POPC   PO438820  42.890  17.154   5.701
 2825POPC   GL138821  43.092  17.515   5.953
 2825POPC   GL238822  43.342  17.783   5.909
 2825POPC   C1A38823  43.183  17.481   6.400
 2825POPC   D2A38824  43.204  17.146   6.745
 2825POPC   C3A38825  42.946  17.324   7.046
 2825POPC   C4A38826  42.992  17.757   7.094
 2825POPC   C1B38827  43.355  17.965   6.313
 2825POPC   C2B38828  43.388  17.838   6.732
 2825POPC   C3B38829  43.473  17.519   7.034
 2825POPC   C4B38830  43.412  17.525   7.471
 2826POPC   NC338831   9.916  22.087   5.448
 2826POPC   PO438832   9.323  22.236   5.168
 2826POPC   GL138833   9.511  22.285   5.679
 2826POPC   GL238834   9.651  21.959   5.856
 2826POPC   C1A38835   9.740  22.349   6.146
 2826POPC   D2A38836   9.934  22.138   6.510
 2826POPC   C3A38837   9.711  21.966   6.847
 2826POPC   C4A38838   9.705  22.275   7.153
 2826POPC   C1B38839   9.964  21.797   6.116
 2826POPC   C2B38840   9.939  21.608   6.520
 2826POPC   C3B38841  10.104  21.670   6.929
 2826POPC   C4B38842  10.111  21.958   7.280
 2827POPC   NC338843   3.057  29.650   5.265
 2827POPC   PO438844   2.583  30.096   5.374
 2827POPC   GL138845   2.741  30.146   5.753
 2827POPC   GL238846   2.883  29.819   5.740
 2827POPC   C1A38847   2.682  30.077   6.172
 2827POPC   D2A38848   2.927  30.067   6.514
 2827POPC   C3A38849   2.668  30.025   6.818
 2827POPC   C4A38850   2.775  30.035   7.244
 2827POPC   C1B38851   3.061  29.728   6.126
 2827POPC   C2B38852   2.934  29.564   6.538
 2827POPC   C3B38853   3.057  29.718   6.944
 2827POPC   C4B38854   2.954  29.485   7.301
 2828POPC   NC338855  21.442  38.736   5.496
 2828POPC   PO438856  21.204  38.078   5.698
 2828POPC   GL138857  21.353  38.404   5.884
 2828POPC   GL238858  21.685  38.306   5.921
 2828POPC   C1A38859  21.362  38.428   6.304
 2828POPC   D2A38860  21.107  38.356   6.608
 2828POPC   C3A38861  21.289  38.318   6.945
 2828POPC   C4A38862  21.220  38.631   7.240
 2828POPC   C1B38863  21.815  38.172   6.315
 2828POPC   C2B38864  21.740  38.409   6.688
 2828POPC   C3B38865  21.720  38.496   7.136
 2828POPC   C4B38866  21.726  38.404   7.605
 2829POPC   NC338867  16.592  31.738   5.560
 2829POPC   PO438868  16.879  31.186   5.642
 2829POPC   GL138869  16.830  31.249   6.027
 2829POPC   GL238870  16.876  31.616   6.007
 2829POPC   C1A38871  16.918  31.316   6.454
 2829POPC   D2A38872  16.759  31.639   6.736
 2829POPC   C3A38873  16.699  31.446   7.108
 2829POPC   C4A38874  16.959  31.141   7.244
 2829POPC   C1B38875  16.488  31.571   6.265
 2829POPC   C2B38876  16.254  31.538   6.657
 2829POPC   C3B38877  16.283  31.738   7.074
 2829POPC   C4B38878  16.473  31.757   7.512
 2830POPC   NC338879  38.141  38.546   5.609
 2830POPC   PO438880  38.745  38.318   5.350
 2830POPC   GL138881  38.567  38.313   5.821
 2830POPC   GL238882  38.219  38.219   5.988
 2830POPC   C1A38883  38.570  38.472   6.271
 2830POPC   D2A38884  38.410  38.614   6.710
 2830POPC   C3A38885  38.725  38.579   7.036
 2830POPC   C4A38886  38.668  38.293   7.410
 2830POPC   C1B38887  38.065  38.423   6.358
 2830POPC   C2B38888  38.075  38.129   6.702
 2830POPC   C3B38889  38.251  38.198   7.080
 2830POPC   C4B38890  38.274  38.616   7.254
 2831POPC   NC338891   7.337  30.787   5.395
 2831POPC   PO438892   7.582  30.273   5.381
 2831POPC   GL138893   7.496  30.468   5.798
 2831POPC   GL238894   7.157  30.606   5.828
 2831POPC   C1A38895   7.482  30.622   6.246
 2831POPC   D2A38896   7.544  30.521   6.698
 2831POPC   C3A38897   7.348  30.730   7.073
 2831POPC   C4A38898   7.392  31.113   7.337
 2831POPC   C1B38899   7.125  30.278   6.104
 2831POPC   C2B38900   7.183  30.193   6.533
 2831POPC   C3B38901   7.202  30.244   6.982
 2831POPC   C4B38902   7.176  30.394   7.432
 2832POPC   NC338903  15.554  14.901   5.494
 2832POPC   PO438904  16.232  14.769   5.548
 2832POPC   GL138905  16.043  14.428   5.750
 2832POPC   GL238906  16.248  14.525   5.990
 2832POPC   C1A38907  15.897  14.170   6.135
 2832POPC   D2A38908  16.109  14.104   6.527
 2832POPC   C3A38909  15.931  14.071   6.972
 2832POPC   C4A38910  16.067  14.341   7.328
 2832POPC   C1B38911  15.855  14.691   6.147
 2832POPC   C2B38912  15.869  14.627   6.545
 2832POPC   C3B38913  15.892  14.602   6.947
 2832POPC   C4B38914  15.673  14.721   7.312
 2833POPC   NC338915  44.252  43.173   5.348
 2833POPC   PO438916  43.654  42.891   5.406
 2833POPC   GL138917  43.868  43.159   5.698
 2833POPC   GL238918  44.122  42.914   5.792
 2833POPC   C1A38919  43.870  43.226   6.142
 2833POPC   D2A38920  43.807  42.932   6.493
 2833POPC   C3A38921  43.713  43.173   6.863
 2833POPC   C4A38922  43.882  43.294   7.264
 2833POPC   C1B38923  44.286  42.885   6.225
 2833POPC   C2B38924  44.258  42.601   6.592
 2833POPC   C3B38925  44.213  42.750   7.008
 2833POPC   C4B38926  44.158  42.874   7.419
 2834POPC   NC338927  37.021  10.658   5.423
 2834POPC   PO438928  36.538  10.168   5.379
 2834POPC   GL138929  36.711  10.419   5.739
 2834POPC   GL238930  36.593  10.747   5.733
 2834POPC   C1A38931  36.924  10.569   6.135
 2834POPC   D2A38932  36.947  10.297   6.509
 2834POPC   C3A38933  36.930  10.396   6.949
 2834POPC   C4A38934  36.915  10.119   7.329
 2834POPC   C1B38935  36.529  10.897   6.136
 2834POPC   C2B38936  36.635  10.756   6.549
 2834POPC   C3B38937  36.516  10.719   6.973
 2834POPC   C4B38938  36.863  10.834   7.201
 2835POPC   NC338939   0.726  22.719   5.426
 2835POPC   PO438940   0.244  23.068   5.302
 2835POPC   GL138941   0.432  23.125   5.739
 2835POPC   GL238942   0.711  23.401   5.745
 2835POPC   C1A38943   0.272  23.022   6.178
 2835POPC   D2A38944   0.046  23.119   6.578
 2835POPC   C3A38945   0.187  22.948   6.946
 2835POPC   C4A38946   0.417  23.096   7.273
 2835POPC   C1B38947   0.776  23.290   6.189
 2835POPC   C2B38948   0.626  23.069   6.551
 2835POPC   C3B38949   0.804  23.124   6.936
 2835POPC   C4B38950   0.984  23.154   7.313
 2836POPC   NC338951   0.383  44.176   5.264
 2836POPC   PO438952   0.679  43.636   5.387
 2836POPC   GL138953   0.533  43.958   5.703
 2836POPC   GL238954   0.847  44.144   5.640
 2836POPC   C1A38955   0.271  43.991   6.128
 2836POPC   D2A38956   0.241  43.733   6.554
 2836POPC   C3A38957   0.328  43.968   6.973
 2836POPC   C4A38958   0.590  43.974   7.391
 2836POPC   C1B38959   0.757  44.191   6.094
 2836POPC   C2B38960   0.626  44.091   6.520
 2836POPC   C3B38961   0.833  44.060   6.925
 2836POPC   C4B38962   0.816  44.402   7.209
 2837POPC   NC338963   8.103   4.859   5.436
 2837POPC   PO438964   7.760   5.477   5.605
 2837POPC   GL138965   8.137   5.264   5.770
 2837POPC   GL238966   8.490   5.355   5.678
 2837POPC   C1A38967   8.106   5.042   6.142
 2837POPC   D2A38968   7.845   5.151   6.509
 2837POPC   C3A38969   7.994   5.076   6.909
 2837POPC   C4A38970   8.366   4.911   7.063
 2837POPC   C1B38971   8.535   5.345   6.144
 2837POPC   C2B38972   8.369   5.210   6.562
 2837POPC   C3B38973   8.377   5.415   6.969
 2837POPC   C4B38974   8.569   5.365   7.402
 2838POPC   NC338975  10.516   4.841   5.422
 2838POPC   PO438976  10.180   5.458   5.387
 2838POPC   GL138977  10.460   5.281   5.733
 2838POPC   GL238978  10.309   5.094   5.998
 2838POPC   C1A38979  10.734   5.302   6.129
 2838POPC   D2A38980  10.555   5.340   6.580
 2838POPC   C3A38981  10.797   5.379   6.970
 2838POPC   C4A38982  10.773   5.242   7.387
 2838POPC   C1B38983  10.445   4.878   6.404
 2838POPC   C2B38984  10.533   4.907   6.905
 2838POPC   C3B38985  10.564   4.794   7.379
 2838POPC   C4B38986  10.576   4.716   7.837
 2839POPC   NC338987  24.351   1.477   5.557
 2839POPC   PO438988  24.594   2.056   5.429
 2839POPC   GL138989  24.593   2.150   5.853
 2839POPC   GL238990  24.300   1.991   5.946
 2839POPC   C1A38991  24.768   2.031   6.263
 2839POPC   D2A38992  24.775   1.804   6.662
 2839POPC   C3A38993  24.520   1.922   7.015
 2839POPC   C4A38994  24.715   2.088   7.386
 2839POPC   C1B38995  24.349   2.321   6.308
 2839POPC   C2B38996  24.451   2.411   6.771
 2839POPC   C3B38997  24.300   2.342   7.214
 2839POPC   C4B38998  24.261   2.006   7.598
 2840POPC   NC338999  24.948   3.038   5.443
 2840POPC   PO439000  25.441   2.587   5.449
 2840POPC   GL139001  25.188   2.721   5.793
 2840POPC   GL239002  24.812   2.613   5.718
 2840POPC   C1A39003  25.389   2.861   6.177
 2840POPC   D2A39004  25.588   2.628   6.528
 2840POPC   C3A39005  25.385   2.544   6.909
 2840POPC   C4A39006  25.294   2.699   7.309
 2840POPC   C1B39007  24.864   2.533   6.166
 2840POPC   C2B39008  25.050   2.723   6.531
 2840POPC   C3B39009  24.985   2.841   6.940
 2840POPC   C4B39010  24.763   2.616   7.266
 2841POPC   NC339011  21.059  15.648   5.567
 2841POPC   PO439012  21.618  15.219   5.362
 2841POPC   GL139013  21.473  15.083   5.770
 2841POPC   GL239014  21.360  15.425   5.909
 2841POPC   C1A39015  21.336  15.013   6.205
 2841POPC   D2A39016  21.374  15.251   6.586
 2841POPC   C3A39017  21.511  15.117   6.975
 2841POPC   C4A39018  21.497  14.856   7.353
 2841POPC   C1B39019  21.036  15.452   6.277
 2841POPC   C2B39020  21.017  15.577   6.754
 2841POPC   C3B39021  21.048  15.272   7.109
 2841POPC   C4B39022  21.223  15.263   7.559
 2842POPC   NC339023   1.538   9.688   5.443
 2842POPC   PO439024   0.933   9.591   5.512
 2842POPC   GL139025   1.234   9.697   5.897
 2842POPC   GL239026   1.588   9.773   5.942
 2842POPC   C1A39027   1.318   9.942   6.327
 2842POPC   D2A39028   1.386   9.836   6.767
 2842POPC   C3A39029   1.344  10.046   7.168
 2842POPC   C4A39030   0.945  10.034   7.403
 2842POPC   C1B39031   1.576   9.485   6.324
 2842POPC   C2B39032   1.686   9.427   6.788
 2842POPC   C3B39033   1.514   9.574   7.218
 2842POPC   C4B39034   1.749   9.515   7.614
 2843POPC   NC339035  11.560  21.875   5.416
 2843POPC   PO439036  11.684  22.558   5.377
 2843POPC   GL139037  11.467  22.252   5.753
 2843POPC   GL239038  11.168  22.022   5.738
 2843POPC   C1A39039  11.541  21.906   6.093
 2843POPC   D2A39040  11.381  21.725   6.506
 2843POPC   C3A39041  11.299  22.073   6.829
 2843POPC   C4A39042  11.379  22.411   7.166
 2843POPC   C1B39043  11.058  22.025   6.203
 2843POPC   C2B39044  10.886  21.858   6.608
 2843POPC   C3B39045  10.952  21.759   7.055
 2843POPC   C4B39046  11.166  21.997   7.386
 2844POPC   NC339047   0.687   0.720   5.481
 2844POPC   PO439048   0.195   0.250   5.537
 2844POPC   GL139049   0.284   0.464   5.911
 2844POPC   GL239050   0.481   0.767   5.947
 2844POPC   C1A39051   0.374   0.442   6.350
 2844POPC   D2A39052   0.053   0.502   6.623
 2844POPC   C3A39053   0.176   0.516   7.034
 2844POPC   C4A39054   0.229   0.152   7.264
 2844POPC   C1B39055   0.798   0.717   6.242
 2844POPC   C2B39056   0.900   0.440   6.549
 2844POPC   C3B39057   0.637   0.355   6.891
 2844POPC   C4B39058   0.630   0.516   7.289
 2845POPC   NC339059   1.532  34.572   5.469
 2845POPC   PO439060   0.860  34.492   5.498
 2845POPC   GL139061   1.145  34.601   5.826
 2845POPC   GL239062   1.250  34.933   5.729
 2845POPC   C1A39063   1.305  34.420   6.202
 2845POPC   D2A39064   1.425  34.461   6.615
 2845POPC   C3A39065   1.205  34.315   6.977
 2845POPC   C4A39066   1.361  34.345   7.387
 2845POPC   C1B39067   1.072  35.029   6.140
 2845POPC   C2B39068   1.124  34.889   6.545
 2845POPC   C3B39069   1.240  34.810   6.962
 2845POPC   C4B39070   0.985  34.690   7.282
 2846POPC   NC339071   0.707  20.098   5.599
 2846POPC   PO439072   1.283  19.845   5.341
 2846POPC   GL139073   1.052  19.686   5.701
 2846POPC   GL239074   1.104  19.986   5.927
 2846POPC   C1A39075   1.098  19.519   6.123
 2846POPC   D2A39076   1.083  19.794   6.480
 2846POPC   C3A39077   1.112  19.577   6.868
 2846POPC   C4A39078   1.169  19.708   7.278
 2846POPC   C1B39079   1.454  20.091   6.229
 2846POPC   C2B39080   1.499  20.242   6.665
 2846POPC   C3B39081   1.521  20.033   7.077
 2846POPC   C4B39082   1.698  20.168   7.470
 2847POPC   NC339083  24.140  43.700   5.044
 2847POPC   PO439084  24.808  43.766   5.102
 2847POPC   GL139085  24.676  43.784   5.567
 2847POPC   GL239086  24.299  43.768   5.622
 2847POPC   C1A39087  24.598  43.994   5.995
 2847POPC   D2A39088  24.390  43.968   6.382
 2847POPC   C3A39089  24.506  43.990   6.808
 2847POPC   C4A39090  24.296  44.110   7.184
 2847POPC   C1B39091  24.234  43.594   6.073
 2847POPC   C2B39092  24.282  43.499   6.536
 2847POPC   C3B39093  24.221  43.611   7.001
 2847POPC   C4B39094  24.145  43.478   7.415
 2848POPC   NC339095  40.268  44.028   5.521
 2848POPC   PO439096  40.812  43.971   5.316
 2848POPC   GL139097  40.716  43.897   5.773
 2848POPC   GL239098  40.612  43.537   5.838
 2848POPC   C1A39099  40.760  44.160   6.178
 2848POPC   D2A39100  40.760  44.030   6.635
 2848POPC   C3A39101  40.952  44.266   7.001
 2848POPC   C4A39102  41.029  44.127   7.436
 2848POPC   C1B39103  40.491  43.699   6.259
 2848POPC   C2B39104  40.363  43.725   6.700
 2848POPC   C3B39105  40.540  43.840   7.111
 2848POPC   C4B39106  40.511  43.556   7.448
 2849POPC   NC339107  23.546  14.035   5.107
 2849POPC   PO439108  23.341  13.428   5.112
 2849POPC   GL139109  23.657  13.458   5.616
 2849POPC   GL239110  23.561  13.718   5.932
 2849POPC   C1A39111  23.848  13.354   6.081
 2849POPC   D2A39112  23.605  13.363   6.499
 2849POPC   C3A39113  23.721  13.497   6.934
 2849POPC   C4A39114  23.512  13.719   7.252
 2849POPC   C1B39115  23.806  13.978   6.250
 2849POPC   C2B39116  23.915  13.910   6.697
 2849POPC   C3B39117  23.791  14.138   7.070
 2849POPC   C4B39118  23.986  14.339   7.425
 2850POPC   NC339119  36.488  42.384   5.462
 2850POPC   PO439120  35.768  42.255   5.410
 2850POPC   GL139121  36.071  42.274   5.735
 2850POPC   GL239122  35.993  42.600   5.885
 2850POPC   C1A39123  36.273  42.267   6.147
 2850POPC   D2A39124  36.062  42.408   6.532
 2850POPC   C3A39125  36.341  42.352   6.840
 2850POPC   C4A39126  36.360  42.060   7.118
 2850POPC   C1B39127  35.757  42.215   6.133
 2850POPC   C2B39128  35.640  42.094   6.564
 2850POPC   C3B39129  35.865  42.108   6.959
 2850POPC   C4B39130  36.015  42.470   7.209
 2851POPC   NC339131  36.765  35.433   5.369
 2851POPC   PO439132  37.212  35.834   5.110
 2851POPC   GL139133  37.133  35.694   5.635
 2851POPC   GL239134  36.794  35.517   5.848
 2851POPC   C1A39135  37.213  35.541   6.096
 2851POPC   D2A39136  37.182  35.345   6.523
 2851POPC   C3A39137  36.983  35.602   6.831
 2851POPC   C4A39138  36.726  35.583   7.196
 2851POPC   C1B39139  36.852  35.163   6.155
 2851POPC   C2B39140  36.685  35.141   6.546
 2851POPC   C3B39141  36.852  35.100   6.926
 2851POPC   C4B39142  36.594  35.015   7.253
 2852POPC   NC339143   2.900  27.275   5.116
 2852POPC   PO439144   3.012  26.705   5.400
 2852POPC   GL139145   2.761  26.667   5.790
 2852POPC   GL239146   2.427  26.736   5.697
 2852POPC   C1A39147   2.760  26.612   6.233
 2852POPC   D2A39148   2.817  26.899   6.587
 2852POPC   C3A39149   2.921  26.718   6.999
 2852POPC   C4A39150   3.193  26.930   7.254
 2852POPC   C1B39151   2.251  26.672   6.127
 2852POPC   C2B39152   2.388  26.610   6.580
 2852POPC   C3B39153   2.440  26.900   6.926
 2852POPC   C4B39154   2.573  26.893   7.347
 2853POPC   NC339155  30.189  39.710   5.290
 2853POPC   PO439156  29.733  40.205   5.317
 2853POPC   GL139157  29.976  40.062   5.656
 2853POPC   GL239158  30.154  40.331   5.833
 2853POPC   C1A39159  30.022  39.838   6.054
 2853POPC   D2A39160  30.139  40.049   6.453
 2853POPC   C3A39161  29.917  39.932   6.825
 2853POPC   C4A39162  30.114  39.839   7.227
 2853POPC   C1B39163  29.814  40.295   6.115
 2853POPC   C2B39164  29.804  40.439   6.539
 2853POPC   C3B39165  30.004  40.421   6.943
 2853POPC   C4B39166  29.728  40.226   7.214
 2854POPC   NC339167   6.564  19.424   5.366
 2854POPC   PO439168   6.545  18.735   5.476
 2854POPC   GL139169   6.667  19.053   5.723
 2854POPC   GL239170   7.005  18.969   5.770
 2854POPC   C1A39171   6.628  19.081   6.159
 2854POPC   D2A39172   6.701  18.727   6.430
 2854POPC   C3A39173   6.622  18.869   6.842
 2854POPC   C4A39174   6.536  19.070   7.223
 2854POPC   C1B39175   7.121  18.996   6.200
 2854POPC   C2B39176   7.044  19.085   6.606
 2854POPC   C3B39177   7.061  19.064   7.049
 2854POPC   C4B39178   6.970  18.987   7.486
 2855POPC   NC339179  43.125  13.750   5.319
 2855POPC   PO439180  42.567  13.518   5.404
 2855POPC   GL139181  42.912  13.668   5.774
 2855POPC   GL239182  43.289  13.794   5.815
 2855POPC   C1A39183  43.058  13.570   6.232
 2855POPC   D2A39184  42.799  13.540   6.626
 2855POPC   C3A39185  43.010  13.426   7.020
 2855POPC   C4A39186  42.841  13.194   7.352
 2855POPC   C1B39187  43.252  14.050   6.193
 2855POPC   C2B39188  43.166  13.941   6.616
 2855POPC   C3B39189  43.311  13.883   7.018
 2855POPC   C4B39190  43.179  13.754   7.426
 2856POPC   NC339191  37.894  36.583   5.544
 2856POPC   PO439192  37.552  37.220   5.523
 2856POPC   GL139193  37.725  36.994   5.856
 2856POPC   GL239194  38.041  37.197   5.847
 2856POPC   C1A39195  37.494  36.884   6.250
 2856POPC   D2A39196  37.275  36.723   6.631
 2856POPC   C3A39197  37.390  36.848   7.055
 2856POPC   C4A39198  37.792  36.846   7.191
 2856POPC   C1B39199  37.840  37.284   6.260
 2856POPC   C2B39200  37.659  37.133   6.669
 2856POPC   C3B39201  37.599  37.351   7.044
 2856POPC   C4B39202  37.835  37.312   7.426
 2857POPC   NC339203  42.777  42.501   5.546
 2857POPC   PO439204  43.280  42.020   5.419
 2857POPC   GL139205  43.188  42.275   5.796
 2857POPC   GL239206  43.426  42.548   5.869
 2857POPC   C1A39207  43.093  42.258   6.249
 2857POPC   D2A39208  43.240  42.098   6.647
 2857POPC   C3A39209  42.947  42.141   6.966
 2857POPC   C4A39210  43.036  42.147   7.387
 2857POPC   C1B39211  43.350  42.710   6.278
 2857POPC   C2B39212  43.143  42.593   6.672
 2857POPC   C3B39213  43.246  42.567   7.098
 2857POPC   C4B39214  43.412  42.965   7.229
 2858POPC   NC339215  35.011  39.704   5.462
 2858POPC   PO439216  34.555  40.185   5.421
 2858POPC   GL139217  34.607  40.070   5.825
 2858POPC   GL239218  34.587  39.719   5.798
 2858POPC   C1A39219  34.698  39.907   6.259
 2858POPC   D2A39220  34.940  39.849   6.659
 2858POPC   C3A39221  34.858  39.830   7.111
 2858POPC   C4A39222  34.766  40.002   7.538
 2858POPC   C1B39223  34.187  39.907   6.007
 2858POPC   C2B39224  34.221  39.939   6.462
 2858POPC   C3B39225  34.123  40.008   6.930
 2858POPC   C4B39226  34.283  39.879   7.364
 2859POPC   NC339227  34.040   7.684   5.344
 2859POPC   PO439228  33.511   7.266   5.425
 2859POPC   GL139229  33.747   7.356   5.779
 2859POPC   GL239230  34.027   7.181   5.704
 2859POPC   C1A39231  33.780   7.547   6.193
 2859POPC   D2A39232  33.811   7.341   6.573
 2859POPC   C3A39233  33.731   7.537   6.946
 2859POPC   C4A39234  33.814   7.280   7.273
 2859POPC   C1B39235  34.200   7.312   6.071
 2859POPC   C2B39236  34.311   7.297   6.460
 2859POPC   C3B39237  34.262   7.341   6.887
 2859POPC   C4B39238  34.309   7.357   7.312
 2860POPC   NC339239  31.967  35.123   5.431
 2860POPC   PO439240  31.275  34.782   5.369
 2860POPC   GL139241  31.399  34.708   5.836
 2860POPC   GL239242  31.298  34.361   5.789
 2860POPC   C1A39243  31.648  34.813   6.272
 2860POPC   D2A39244  31.515  34.809   6.711
 2860POPC   C3A39245  31.689  34.813   7.136
 2860POPC   C4A39246  31.584  34.614   7.528
 2860POPC   C1B39247  31.495  34.319   6.209
 2860POPC   C2B39248  31.354  34.293   6.654
 2860POPC   C3B39249  31.561  34.333   7.055
 2860POPC   C4B39250  31.886  34.099   7.263
 2861POPC   NC339251  28.444  38.831   5.294
 2861POPC   PO439252  28.042  38.237   5.362
 2861POPC   GL139253  28.136  38.445   5.744
 2861POPC   GL239254  28.514  38.434   5.761
 2861POPC   C1A39255  28.238  38.482   6.201
 2861POPC   D2A39256  28.010  38.580   6.585
 2861POPC   C3A39257  28.167  38.497   7.004
 2861POPC   C4A39258  28.095  38.080   7.119
 2861POPC   C1B39259  28.607  38.142   6.128
 2861POPC   C2B39260  28.689  38.025   6.542
 2861POPC   C3B39261  28.587  38.158   6.953
 2861POPC   C4B39262  28.859  38.351   7.258
 2862POPC   NC339263  17.279   3.040   5.535
 2862POPC   PO439264  17.838   2.817   5.261
 2862POPC   GL139265  17.631   2.701   5.688
 2862POPC   GL239266  17.941   2.660   5.816
 2862POPC   C1A39267  17.398   2.855   6.135
 2862POPC   D2A39268  17.382   3.078   6.563
 2862POPC   C3A39269  17.350   2.791   6.932
 2862POPC   C4A39270  17.401   2.817   7.420
 2862POPC   C1B39271  17.899   2.883   6.223
 2862POPC   C2B39272  17.805   2.792   6.663
 2862POPC   C3B39273  17.804   2.684   7.111
 2862POPC   C4B39274  17.924   2.956   7.425
 2863POPC   NC339275  44.317   1.940   5.223
 2863POPC   PO439276  43.705   2.252   5.349
 2863POPC   GL139277  43.845   2.093   5.760
 2863POPC   GL239278  44.107   1.812   5.775
 2863POPC   C1A39279  43.735   2.289   6.188
 2863POPC   D2A39280  43.589   2.196   6.630
 2863POPC   C3A39281  43.888   2.004   6.914
 2863POPC   C4A39282  43.957   1.696   7.228
 2863POPC   C1B39283  43.838   1.779   6.170
 2863POPC   C2B39284  43.659   1.664   6.588
 2863POPC   C3B39285  43.454   1.704   7.008
 2863POPC   C4B39286  43.526   1.685   7.493
 2864POPC   NC339287   4.655   5.990   5.344
 2864POPC   PO439288   5.275   5.675   5.496
 2864POPC   GL139289   5.176   5.823   5.868
 2864POPC   GL239290   4.844   5.748   5.799
 2864POPC   C1A39291   5.302   5.925   6.300
 2864POPC   D2A39292   5.424   5.880   6.751
 2864POPC   C3A39293   5.086   5.950   7.085
 2864POPC   C4A39294   5.056   5.820   7.544
 2864POPC   C1B39295   4.812   6.060   6.142
 2864POPC   C2B39296   4.766   6.098   6.594
 2864POPC   C3B39297   4.578   6.203   6.998
 2864POPC   C4B39298   4.755   6.220   7.394
 2865POPC   NC339299   6.900  44.017   5.436
 2865POPC   PO439300   6.436  44.389   5.731
 2865POPC   GL139301   6.799  44.183   5.907
 2865POPC   GL239302   6.811  43.807   5.901
 2865POPC   C1A39303   6.790  44.222   6.319
 2865POPC   D2A39304   6.545  44.135   6.651
 2865POPC   C3A39305   6.643  44.236   7.059
 2865POPC   C4A39306   6.973  43.972   7.170
 2865POPC   C1B39307   6.411  43.844   6.137
 2865POPC   C2B39308   6.242  43.739   6.560
 2865POPC   C3B39309   6.497  43.711   6.965
 2865POPC   C4B39310   6.353  43.575   7.380
 2866POPC   NC339311   1.622  38.980   5.399
 2866POPC   PO439312   2.288  39.169   5.450
 2866POPC   GL139313   2.012  39.020   5.730
 2866POPC   GL239314   1.768  39.244   5.850
 2866POPC   C1A39315   1.993  38.907   6.139
 2866POPC   D2A39316   1.839  39.111   6.496
 2866POPC   C3A39317   2.130  39.094   6.822
 2866POPC   C4A39318   2.238  39.417   7.133
 2866POPC   C1B39319   1.653  39.566   6.149
 2866POPC   C2B39320   1.684  39.742   6.554
 2866POPC   C3B39321   1.773  39.451   6.893
 2866POPC   C4B39322   1.744  39.111   7.182
 2867POPC   NC339323  13.844  28.329   5.386
 2867POPC   PO439324  13.246  28.282   5.139
 2867POPC   GL139325  13.392  28.355   5.706
 2867POPC   GL239326  13.733  28.387   5.876
 2867POPC   C1A39327  13.371  28.365   6.234
 2867POPC   D2A39328  13.201  28.347   6.715
 2867POPC   C3A39329  13.481  28.360   7.118
 2867POPC   C4A39330  13.432  28.268   7.557
 2867POPC   C1B39331  13.917  28.453   6.310
 2867POPC   C2B39332  13.796  28.336   6.720
 2867POPC   C3B39333  13.891  28.041   7.012
 2867POPC   C4B39334  13.945  28.091   7.455
 2868POPC   NC339335  39.499  27.312   5.376
 2868POPC   PO439336  39.379  27.909   5.155
 2868POPC   GL139337  39.413  27.732   5.637
 2868POPC   GL239338  39.159  27.617   5.848
 2868POPC   C1A39339  39.529  27.806   6.102
 2868POPC   D2A39340  39.379  27.590   6.427
 2868POPC   C3A39341  39.585  27.584   6.814
 2868POPC   C4A39342  39.369  27.639   7.226
 2868POPC   C1B39343  39.015  27.918   6.148
 2868POPC   C2B39344  39.066  28.088   6.586
 2868POPC   C3B39345  38.985  28.040   7.034
 2868POPC   C4B39346  38.777  27.986   7.403
 2869POPC   NC339347   1.392  19.385   5.447
 2869POPC   PO439348   0.920  18.938   5.555
 2869POPC   GL139349   1.216  19.092   5.831
 2869POPC   GL239350   1.298  18.761   5.907
 2869POPC   C1A39351   1.434  19.117   6.249
 2869POPC   D2A39352   1.460  19.246   6.683
 2869POPC   C3A39353   1.190  19.053   6.998
 2869POPC   C4A39354   1.465  18.825   7.300
 2869POPC   C1B39355   0.949  18.900   6.238
 2869POPC   C2B39356   0.865  18.775   6.685
 2869POPC   C3B39357   0.700  18.924   7.090
 2869POPC   C4B39358   0.818  19.336   7.237
 2870POPC   NC339359   3.810   2.634   5.540
 2870POPC   PO439360   3.173   2.341   5.691
 2870POPC   GL139361   3.415   2.637   5.862
 2870POPC   GL239362   3.479   2.982   5.759
 2870POPC   C1A39363   3.694   2.664   6.188
 2870POPC   D2A39364   3.646   2.800   6.580
 2870POPC   C3A39365   3.439   2.611   6.904
 2870POPC   C4A39366   3.651   2.633   7.289
 2870POPC   C1B39367   3.710   3.200   6.109
 2870POPC   C2B39368   3.709   3.294   6.567
 2870POPC   C3B39369   3.667   3.094   7.018
 2870POPC   C4B39370   3.597   3.101   7.516
 2871POPC   NC339371  10.246  17.689   5.411
 2871POPC   PO439372  10.846  17.512   5.463
 2871POPC   GL139373  10.544  17.484   5.827
 2871POPC   GL239374  10.220  17.295   5.756
 2871POPC   C1A39375  10.767  17.428   6.231
 2871POPC   D2A39376  10.913  17.261   6.622
 2871POPC   C3A39377  10.753  17.568   6.920
 2871POPC   C4A39378  10.450  17.807   7.183
 2871POPC   C1B39379  10.192  17.275   6.208
 2871POPC   C2B39380  10.384  17.410   6.563
 2871POPC   C3B39381  10.210  17.463   6.921
 2871POPC   C4B39382  10.127  17.405   7.335
 2872POPC   NC339383  12.153  22.681   5.411
 2872POPC   PO439384  12.620  22.215   5.449
 2872POPC   GL139385  12.186  22.079   5.668
 2872POPC   GL239386  11.964  22.352   5.779
 2872POPC   C1A39387  12.066  21.959   6.130
 2872POPC   D2A39388  12.294  22.052   6.559
 2872POPC   C3A39389  12.113  22.164   6.975
 2872POPC   C4A39390  11.716  22.025   7.112
 2872POPC   C1B39391  11.747  22.384   6.194
 2872POPC   C2B39392  11.621  22.460   6.645
 2872POPC   C3B39393  11.826  22.584   7.019
 2872POPC   C4B39394  12.193  22.717   7.256
 2873POPC   NC339395  38.683  25.609   5.148
 2873POPC   PO439396  38.248  26.106   5.227
 2873POPC   GL139397  38.175  26.128   5.699
 2873POPC   GL239398  37.940  25.910   5.826
 2873POPC   C1A39399  38.353  26.269   6.115
 2873POPC   D2A39400  38.395  26.217   6.575
 2873POPC   C3A39401  38.698  26.239   6.899
 2873POPC   C4A39402  38.465  26.391   7.236
 2873POPC   C1B39403  38.024  25.919   6.301
 2873POPC   C2B39404  38.299  25.732   6.623
 2873POPC   C3B39405  38.374  25.838   7.071
 2873POPC   C4B39406  38.282  25.595   7.461
 2874POPC   NC339407  36.259   7.734   5.586
 2874POPC   PO439408  36.011   8.404   5.525
 2874POPC   GL139409  36.089   8.190   5.845
 2874POPC   GL239410  35.851   7.916   5.834
 2874POPC   C1A39411  36.048   8.334   6.267
 2874POPC   D2A39412  36.171   8.362   6.697
 2874POPC   C3A39413  35.946   8.567   7.002
 2874POPC   C4A39414  36.036   8.286   7.359
 2874POPC   C1B39415  36.065   7.838   6.199
 2874POPC   C2B39416  36.002   7.901   6.570
 2874POPC   C3B39417  36.149   7.906   6.942
 2874POPC   C4B39418  35.947   7.784   7.262
 2875POPC   NC339419   3.477  18.452   5.437
 2875POPC   PO439420   3.435  19.108   5.310
 2875POPC   GL139421   3.501  18.912   5.750
 2875POPC   GL239422   3.751  18.617   5.834
 2875POPC   C1A39423   3.553  19.091   6.187
 2875POPC   D2A39424   3.263  19.223   6.535
 2875POPC   C3A39425   3.480  19.198   6.908
 2875POPC   C4A39426   3.294  19.174   7.292
 2875POPC   C1B39427   3.435  18.569   6.152
 2875POPC   C2B39428   3.465  18.746   6.573
 2875POPC   C3B39429   3.630  18.703   6.971
 2875POPC   C4B39430   3.382  18.687   7.320
 2876POPC   NC339431   3.995   4.256   5.361
 2876POPC   PO439432   3.387   4.575   5.244
 2876POPC   GL139433   3.430   4.392   5.693
 2876POPC   GL239434   3.756   4.281   5.879
 2876POPC   C1A39435   3.303   4.204   6.121
 2876POPC   D2A39436   3.567   4.206   6.492
 2876POPC   C3A39437   3.417   4.092   6.896
 2876POPC   C4A39438   3.244   4.379   7.198
 2876POPC   C1B39439   3.875   4.570   6.244
 2876POPC   C2B39440   3.835   4.713   6.671
 2876POPC   C3B39441   3.733   4.494   7.052
 2876POPC   C4B39442   3.730   4.593   7.495
 2877POPC   NC339443  12.073  10.999   5.404
 2877POPC   PO439444  11.810  11.629   5.254
 2877POPC   GL139445  11.833  11.468   5.732
 2877POPC   GL239446  12.125  11.241   5.842
 2877POPC   C1A39447  11.771  11.335   6.194
 2877POPC   D2A39448  11.989  11.208   6.581
 2877POPC   C3A39449  11.845  11.226   6.984
 2877POPC   C4A39450  11.921  11.507   7.356
 2877POPC   C1B39451  12.354  11.291   6.240
 2877POPC   C2B39452  12.409  11.517   6.661
 2877POPC   C3B39453  12.341  11.342   7.079
 2877POPC   C4B39454  12.427  10.935   7.239
 2878POPC   NC339455  28.252  37.924   5.639
 2878POPC   PO439456  28.546  37.428   5.243
 2878POPC   GL139457  28.574  37.530   5.770
 2878POPC   GL239458  28.762  37.784   5.831
 2878POPC   C1A39459  28.392  37.678   6.220
 2878POPC   D2A39460  28.182  37.899   6.560
 2878POPC   C3A39461  28.244  37.617   6.894
 2878POPC   C4A39462  28.301  37.652   7.308
 2878POPC   C1B39463  28.871  37.532   6.208
 2878POPC   C2B39464  28.697  37.514   6.634
 2878POPC   C3B39465  28.738  37.476   7.071
 2878POPC   C4B39466  28.763  37.847   7.325
 2879POPC   NC339467  31.274  15.397   5.253
 2879POPC   PO439468  31.855  15.259   5.409
 2879POPC   GL139469  31.537  15.258   5.706
 2879POPC   GL239470  31.658  14.954   5.835
 2879POPC   C1A39471  31.334  15.272   6.116
 2879POPC   D2A39472  31.284  15.105   6.535
 2879POPC   C3A39473  31.413  15.309   6.885
 2879POPC   C4A39474  31.288  15.208   7.262
 2879POPC   C1B39475  31.769  15.060   6.278
 2879POPC   C2B39476  31.837  15.095   6.708
 2879POPC   C3B39477  31.821  15.149   7.144
 2879POPC   C4B39478  32.139  15.084   7.435
 2880POPC   NC339479  44.868  35.557   5.267
 2880POPC   PO439480  44.366  35.191   5.544
 2880POPC   GL139481  44.663  35.286   5.845
 2880POPC   GL239482  44.943  35.509   5.819
 2880POPC   C1A39483  44.589  35.354   6.289
 2880POPC   D2A39484  44.829  35.308   6.657
 2880POPC   C3A39485  44.667  35.344   7.084
 2880POPC   C4A39486  44.399  35.056   7.353
 2880POPC   C1B39487  44.935  35.739   6.227
 2880POPC   C2B39488  44.720  35.797   6.628
 2880POPC   C3B39489   0.032  35.782   6.945
 2880POPC   C4B39490   0.061  35.637   7.341
 2881POPC   NC339491   5.337  14.693   5.452
 2881POPC   PO439492   4.814  14.229   5.338
 2881POPC   GL139493   5.028  14.118   5.765
 2881POPC   GL239494   5.370  14.075   5.687
 2881POPC   C1A39495   5.061  14.198   6.257
 2881POPC   D2A39496   4.821  14.374   6.643
 2881POPC   C3A39497   5.022  14.400   7.072
 2881POPC   C4A39498   4.984  14.371   7.574
 2881POPC   C1B39499   5.414  13.858   6.077
 2881POPC   C2B39500   5.323  13.763   6.514
 2881POPC   C3B39501   5.396  14.028   6.887
 2881POPC   C4B39502   5.247  14.021   7.308
 2882POPC   NC339503  19.320  22.756   5.082
 2882POPC   PO439504  19.296  22.159   5.386
 2882POPC   GL139505  19.090  22.211   5.847
 2882POPC   GL239506  18.730  22.259   5.897
 2882POPC   C1A39507  18.999  21.974   6.247
 2882POPC   D2A39508  18.951  21.834   6.683
 2882POPC   C3A39509  19.073  22.137   6.961
 2882POPC   C4A39510  19.081  22.218   7.374
 2882POPC   C1B39511  18.868  22.468   6.303
 2882POPC   C2B39512  18.998  22.564   6.707
 2882POPC   C3B39513  18.801  22.576   7.122
 2882POPC   C4B39514  18.554  22.279   7.347
 2883POPC   NC339515  12.722  18.485   5.520
 2883POPC   PO439516  13.206  17.882   5.519
 2883POPC   GL139517  12.943  18.087   5.866
 2883POPC   GL239518  12.607  17.919   5.960
 2883POPC   C1A39519  12.911  18.189   6.313
 2883POPC   D2A39520  13.098  18.026   6.700
 2883POPC   C3A39521  13.067  18.364   7.010
 2883POPC   C4A39522  13.287  18.449   7.393
 2883POPC   C1B39523  12.420  18.140   6.314
 2883POPC   C2B39524  12.576  18.334   6.703
 2883POPC   C3B39525  12.463  18.385   7.150
 2883POPC   C4B39526  12.375  18.105   7.495
 2884POPC   NC339527  36.808  29.453   5.557
 2884POPC   PO439528  37.152  28.900   5.396
 2884POPC   GL139529  36.836  28.975   5.761
 2884POPC   GL239530  37.105  29.192   5.867
 2884POPC   C1A39531  36.731  29.204   6.197
 2884POPC   D2A39532  37.010  29.287   6.545
 2884POPC   C3A39533  36.900  29.171   6.960
 2884POPC   C4A39534  36.570  29.060   7.226
 2884POPC   C1B39535  37.105  28.854   6.206
 2884POPC   C2B39536  37.213  28.726   6.640
 2884POPC   C3B39537  37.147  28.709   7.090
 2884POPC   C4B39538  37.083  28.994   7.413
 2885POPC   NC339539   2.313  33.967   5.628
 2885POPC   PO439540   3.014  33.995   5.413
 2885POPC   GL139541   2.812  34.166   5.824
 2885POPC   GL239542   2.491  34.214   6.012
 2885POPC   C1A39543   2.996  34.139   6.228
 2885POPC   D2A39544   3.007  33.866   6.577
 2885POPC   C3A39545   2.971  34.076   6.958
 2885POPC   C4A39546   2.795  33.879   7.323
 2885POPC   C1B39547   2.458  33.920   6.325
 2885POPC   C2B39548   2.540  33.947   6.733
 2885POPC   C3B39549   2.604  33.593   6.956
 2885POPC   C4B39550   2.299  33.321   7.095
 2886POPC   NC339551  39.205   3.118   5.624
 2886POPC   PO439552  38.921   2.530   5.315
 2886POPC   GL139553  39.208   2.574   5.697
 2886POPC   GL239554  39.077   2.802   5.973
 2886POPC   C1A39555  39.357   2.432   6.125
 2886POPC   D2A39556  39.147   2.654   6.499
 2886POPC   C3A39557  39.299   2.635   6.939
 2886POPC   C4A39558  39.569   2.886   7.195
 2886POPC   C1B39559  38.744   2.920   6.209
 2886POPC   C2B39560  38.656   3.085   6.614
 2886POPC   C3B39561  39.003   3.058   6.868
 2886POPC   C4B39562  39.095   2.993   7.265
 2887POPC   NC339563  17.531  32.157   5.315
 2887POPC   PO439564  17.194  32.741   5.450
 2887POPC   GL139565  17.318  32.375   5.755
 2887POPC   GL239566  17.683  32.157   5.798
 2887POPC   C1A39567  17.487  32.407   6.166
 2887POPC   D2A39568  17.575  32.179   6.551
 2887POPC   C3A39569  17.423  32.388   6.893
 2887POPC   C4A39570  17.189  32.294   7.239
 2887POPC   C1B39571  17.523  31.861   6.152
 2887POPC   C2B39572  17.189  31.842   6.536
 2887POPC   C3B39573  17.283  31.863   6.984
 2887POPC   C4B39574  17.649  32.041   7.207
 2888POPC   NC339575  44.241   0.182   5.377
 2888POPC   PO439576  43.557   0.384   5.431
 2888POPC   GL139577  43.695   0.514   5.865
 2888POPC   GL239578  44.023   0.519   5.857
 2888POPC   C1A39579  43.696   0.548   6.319
 2888POPC   D2A39580  43.596   0.616   6.747
 2888POPC   C3A39581  43.852   0.416   7.082
 2888POPC   C4A39582  43.893   0.578   7.517
 2888POPC   C1B39583  44.044   0.197   6.168
 2888POPC   C2B39584  44.083   0.204   6.618
 2888POPC   C3B39585  44.269   0.098   7.020
 2888POPC   C4B39586  44.283   0.228   7.441
 2889POPC   NC339587  23.916  32.006   5.631
 2889POPC   PO439588  23.613  32.644   5.476
 2889POPC   GL139589  23.710  32.469   5.883
 2889POPC   GL239590  23.349  32.417   5.918
 2889POPC   C1A39591  23.968  32.272   6.254
 2889POPC   D2A39592  24.102  31.909   6.510
 2889POPC   C3A39593  23.918  31.904   6.925
 2889POPC   C4A39594  23.677  32.147   7.235
 2889POPC   C1B39595  23.466  32.341   6.343
 2889POPC   C2B39596  23.501  32.472   6.784
 2889POPC   C3B39597  23.270  32.449   7.183
 2889POPC   C4B39598  23.410  32.401   7.633
 2890POPC   NC339599  22.272   0.282   5.567
 2890POPC   PO439600  21.995   0.823   5.419
 2890POPC   GL139601  22.007   0.674   5.857
 2890POPC   GL239602  22.332   0.572   6.010
 2890POPC   C1A39603  21.904   0.544   6.301
 2890POPC   D2A39604  22.086   0.516   6.758
 2890POPC   C3A39605  21.822   0.479   7.172
 2890POPC   C4A39606  21.898   0.678   7.644
 2890POPC   C1B39607  22.279   0.176   6.249
 2890POPC   C2B39608  22.393   0.036   6.665
 2890POPC   C3B39609  22.477   0.269   7.041
 2890POPC   C4B39610  22.283   0.620   7.248
 2891POPC   NC339611  25.832  28.975   5.281
 2891POPC   PO439612  26.472  28.816   5.458
 2891POPC   GL139613  26.150  29.089   5.690
 2891POPC   GL239614  25.817  28.941   5.779
 2891POPC   C1A39615  26.108  29.320   6.079
 2891POPC   D2A39616  26.239  29.174   6.492
 2891POPC   C3A39617  25.975  29.286   6.840
 2891POPC   C4A39618  26.110  29.388   7.250
 2891POPC   C1B39619  26.030  28.823   6.160
 2891POPC   C2B39620  25.882  28.828   6.560
 2891POPC   C3B39621  26.154  28.807   6.896
 2891POPC   C4B39622  25.953  28.872   7.250
 2892POPC   NC339623   8.746   6.284   5.596
 2892POPC   PO439624   9.081   5.739   5.399
 2892POPC   GL139625   9.050   5.775   5.804
 2892POPC   GL239626   9.171   6.082   5.851
 2892POPC   C1A39627   8.929   5.736   6.227
 2892POPC   D2A39628   8.971   5.902   6.640
 2892POPC   C3A39629   8.850   5.676   7.040
 2892POPC   C4A39630   8.843   5.867   7.407
 2892POPC   C1B39631   9.417   5.790   6.145
 2892POPC   C2B39632   9.338   5.555   6.538
 2892POPC   C3B39633   9.355   5.707   6.967
 2892POPC   C4B39634   9.398   5.592   7.393
 2893POPC   NC339635  43.562  16.016   5.675
 2893POPC   PO439636  44.063  16.154   5.265
 2893POPC   GL139637  44.049  16.211   5.712
 2893POPC   GL239638  44.051  15.840   5.701
 2893POPC   C1A39639  43.938  16.236   6.185
 2893POPC   D2A39640  43.635  16.001   6.491
 2893POPC   C3A39641  43.718  15.954   6.947
 2893POPC   C4A39642  43.755  16.284   7.257
 2893POPC   C1B39643  44.256  15.825   6.074
 2893POPC   C2B39644  44.204  15.920   6.494
 2893POPC   C3B39645  44.222  16.150   6.865
 2893POPC   C4B39646  44.161  15.956   7.250
 2894POPC   NC339647  16.949   1.435   5.217
 2894POPC   PO439648  16.808   0.683   5.269
 2894POPC   GL139649  16.792   1.031   5.640
 2894POPC   GL239650  16.515   1.220   5.813
 2894POPC   C1A39651  16.879   1.079   6.131
 2894POPC   D2A39652  16.808   0.937   6.584
 2894POPC   C3A39653  16.990   1.109   6.943
 2894POPC   C4A39654  17.016   1.447   7.230
 2894POPC   C1B39655  16.399   1.136   6.299
 2894POPC   C2B39656  16.385   1.178   6.771
 2894POPC   C3B39657  16.531   1.221   7.190
 2894POPC   C4B39658  16.413   0.975   7.585
 2895POPC   NC339659   3.182   7.230   5.417
 2895POPC   PO439660   3.845   7.426   5.412
 2895POPC   GL139661   3.657   7.353   5.805
 2895POPC   GL239662   3.885   7.151   5.998
 2895POPC   C1A39663   3.507   7.484   6.223
 2895POPC   D2A39664   3.541   7.719   6.599
 2895POPC   C3A39665   3.509   7.525   7.011
 2895POPC   C4A39666   3.591   7.303   7.417
 2895POPC   C1B39667   3.879   7.243   6.454
 2895POPC   C2B39668   3.980   7.561   6.791
 2895POPC   C3B39669   3.986   7.558   7.226
 2895POPC   C4B39670   4.078   7.286   7.584
 2896POPC   NC339671   2.824   8.162   5.475
 2896POPC   PO439672   3.175   7.597   5.689
 2896POPC   GL139673   2.891   7.871   5.894
 2896POPC   GL239674   2.544   7.802   5.880
 2896POPC   C1A39675   2.860   8.287   6.133
 2896POPC   D2A39676   2.888   8.608   6.471
 2896POPC   C3A39677   2.951   8.410   6.854
 2896POPC   C4A39678   2.620   8.309   7.106
 2896POPC   C1B39679   2.666   7.845   6.349
 2896POPC   C2B39680   2.594   7.829   6.790
 2896POPC   C3B39681   2.635   7.821   7.236
 2896POPC   C4B39682   2.889   7.763   7.605
 2897POPC   NC339683  40.542   6.059   5.387
 2897POPC   PO439684  40.940   5.656   5.170
 2897POPC   GL139685  40.942   5.817   5.630
 2897POPC   GL239686  40.599   5.723   5.769
 2897POPC   C1A39687  40.937   5.906   6.105
 2897POPC   D2A39688  40.797   6.097   6.535
 2897POPC   C3A39689  40.968   5.973   6.969
 2897POPC   C4A39690  41.046   6.061   7.435
 2897POPC   C1B39691  40.442   6.017   6.098
 2897POPC   C2B39692  40.291   6.049   6.531
 2897POPC   C3B39693  40.437   6.021   6.967
 2897POPC   C4B39694  40.587   5.851   7.375
 2898POPC   NC339695  34.937   9.169   5.129
 2898POPC   PO439696  35.366   8.587   5.355
 2898POPC   GL139697  35.559   8.664   5.802
 2898POPC   GL239698  35.413   9.006   5.771
 2898POPC   C1A39699  35.650   8.648   6.236
 2898POPC   D2A39700  35.433   8.729   6.641
 2898POPC   C3A39701  35.370   8.914   7.042
 2898POPC   C4A39702  35.057   8.797   7.337
 2898POPC   C1B39703  35.312   9.041   6.238
 2898POPC   C2B39704  35.367   9.260   6.628
 2898POPC   C3B39705  35.169   9.399   6.999
 2898POPC   C4B39706  35.277   9.321   7.423
 2899POPC   NC339707  26.426  37.584   5.435
 2899POPC   PO439708  25.841  37.623   5.409
 2899POPC   GL139709  25.988  37.720   5.803
 2899POPC   GL239710  26.198  37.981   5.715
 2899POPC   C1A39711  25.889  37.713   6.252
 2899POPC   D2A39712  26.209  37.706   6.619
 2899POPC   C3A39713  26.096  37.766   7.074
 2899POPC   C4A39714  26.008  37.707   7.545
 2899POPC   C1B39715  26.364  37.944   6.146
 2899POPC   C2B39716  26.403  38.238   6.503
 2899POPC   C3B39717  26.426  38.153   6.940
 2899POPC   C4B39718  26.380  38.050   7.385
 2900POPC   NC339719  10.399  41.233   5.571
 2900POPC   PO439720  10.425  41.892   5.315
 2900POPC   GL139721  10.591  41.702   5.755
 2900POPC   GL239722  10.456  41.929   5.968
 2900POPC   C1A39723  10.673  41.462   6.165
 2900POPC   D2A39724  10.452  41.378   6.577
 2900POPC   C3A39725  10.700  41.471   6.950
 2900POPC   C4A39726  10.728  41.249   7.304
 2900POPC   C1B39727  10.346  41.838   6.339
 2900POPC   C2B39728  10.541  41.883   6.692
 2900POPC   C3B39729  10.356  41.841   7.058
 2900POPC   C4B39730  10.682  41.844   7.309
 2901POPC   NC339731  23.287  34.919   5.349
 2901POPC   PO439732  22.849  35.447   5.342
 2901POPC   GL139733  23.027  35.236   5.726
 2901POPC   GL239734  23.389  35.173   5.801
 2901POPC   C1A39735  23.042  35.423   6.160
 2901POPC   D2A39736  23.019  35.729   6.515
 2901POPC   C3A39737  22.815  35.586   6.919
 2901POPC   C4A39738  22.919  35.459   7.332
 2901POPC   C1B39739  23.446  35.141   6.271
 2901POPC   C2B39740  23.194  35.248   6.664
 2901POPC   C3B39741  23.281  35.179   7.103
 2901POPC   C4B39742  23.310  35.256   7.561
 2902POPC   NC339743   5.575  20.672   5.242
 2902POPC   PO439744   6.203  20.580   5.331
 2902POPC   GL139745   6.070  20.419   5.755
 2902POPC   GL239746   5.695  20.336   5.784
 2902POPC   C1A39747   6.057  20.307   6.205
 2902POPC   D2A39748   5.707  20.299   6.522
 2902POPC   C3A39749   5.784  20.394   6.966
 2902POPC   C4A39750   6.078  20.627   7.220
 2902POPC   C1B39751   5.630  20.643   6.137
 2902POPC   C2B39752   5.457  20.952   6.485
 2902POPC   C3B39753   5.552  21.090   6.946
 2902POPC   C4B39754   5.668  20.990   7.392
 2903POPC   NC339755   4.608  12.371   5.278
 2903POPC   PO439756   4.148  11.895   5.451
 2903POPC   GL139757   4.167  12.196   5.805
 2903POPC   GL239758   4.510  12.357   5.836
 2903POPC   C1A39759   4.284  12.223   6.257
 2903POPC   D2A39760   4.264  11.968   6.611
 2903POPC   C3A39761   4.220  12.051   7.024
 2903POPC   C4A39762   4.195  11.712   7.258
 2903POPC   C1B39763   4.786  12.404   6.209
 2903POPC   C2B39764   4.616  12.488   6.592
 2903POPC   C3B39765   4.711  12.161   6.846
 2903POPC   C4B39766   4.702  12.081   7.257
 2904POPC   NC339767  21.087  29.274   5.522
 2904POPC   PO439768  21.643  28.928   5.433
 2904POPC   GL139769  21.532  29.196   5.760
 2904POPC   GL239770  21.651  29.514   5.671
 2904POPC   C1A39771  21.327  29.102   6.175
 2904POPC   D2A39772  21.260  28.819   6.521
 2904POPC   C3A39773  21.389  28.982   6.907
 2904POPC   C4A39774  21.256  28.957   7.312
 2904POPC   C1B39775  21.459  29.597   6.089
 2904POPC   C2B39776  21.510  29.462   6.538
 2904POPC   C3B39777  21.367  29.509   6.985
 2904POPC   C4B39778  21.527  29.368   7.393
 2905POPC   NC339779  17.117   7.616   5.360
 2905POPC   PO439780  16.381   7.639   5.401
 2905POPC   GL139781  16.700   7.480   5.692
 2905POPC   GL239782  16.536   7.191   5.870
 2905POPC   C1A39783  16.908   7.472   6.124
 2905POPC   D2A39784  16.707   7.391   6.532
 2905POPC   C3A39785  16.919   7.416   6.951
 2905POPC   C4A39786  17.054   7.513   7.390
 2905POPC   C1B39787  16.380   7.563   6.102
 2905POPC   C2B39788  16.252   7.681   6.513
 2905POPC   C3B39789  16.437   7.598   6.905
 2905POPC   C4B39790  16.462   7.201   7.031
 2906POPC   NC339791  16.999  14.686   5.384
 2906POPC   PO439792  17.561  14.411   5.202
 2906POPC   GL139793  17.541  14.375   5.738
 2906POPC   GL239794  17.802  14.198   5.885
 2906POPC   C1A39795  17.537  14.517   6.209
 2906POPC   D2A39796  17.228  14.638   6.570
 2906POPC   C3A39797  17.365  14.512   6.955
 2906POPC   C4A39798  17.735  14.578   7.131
 2906POPC   C1B39799  17.932  14.171   6.280
 2906POPC   C2B39800  17.919  14.377   6.664
 2906POPC   C3B39801  17.816  14.101   6.959
 2906POPC   C4B39802  17.889  14.112   7.339
 2907POPC   NC339803  11.368   4.694   5.400
 2907POPC   PO439804  10.866   5.174   5.422
 2907POPC   GL139805  11.131   5.072   5.777
 2907POPC   GL239806  11.036   4.708   5.813
 2907POPC   C1A39807  11.307   5.256   6.191
 2907POPC   D2A39808  11.478   5.319   6.639
 2907POPC   C3A39809  11.322   5.255   7.095
 2907POPC   C4A39810  11.558   5.361   7.481
 2907POPC   C1B39811  10.962   4.866   6.247
 2907POPC   C2B39812  11.013   5.010   6.688
 2907POPC   C3B39813  11.007   4.852   7.138
 2907POPC   C4B39814  11.022   4.866   7.623
 2908POPC   NC339815  38.999  33.284   5.233
 2908POPC   PO439816  39.352  32.764   5.385
 2908POPC   GL139817  39.097  32.922   5.729
 2908POPC   GL239818  39.190  33.255   5.811
 2908POPC   C1A39819  39.102  32.788   6.154
 2908POPC   D2A39820  39.328  32.891   6.545
 2908POPC   C3A39821  39.122  32.760   6.915
 2908POPC   C4A39822  39.178  32.738   7.354
 2908POPC   C1B39823  39.097  33.267   6.278
 2908POPC   C2B39824  39.082  33.333   6.727
 2908POPC   C3B39825  39.117  33.207   7.167
 2908POPC   C4B39826  39.075  33.274   7.614
 2909POPC   NC339827  21.070  23.093   5.420
 2909POPC   PO439828  20.542  22.638   5.551
 2909POPC   GL139829  20.640  22.990   5.811
 2909POPC   GL239830  20.922  22.850   5.894
 2909POPC   C1A39831  20.583  23.085   6.274
 2909POPC   D2A39832  20.605  22.872   6.696
 2909POPC   C3A39833  20.674  23.122   7.082
 2909POPC   C4A39834  20.535  23.021   7.513
 2909POPC   C1B39835  20.683  22.582   6.192
 2909POPC   C2B39836  20.460  22.374   6.496
 2909POPC   C3B39837  20.717  22.360   6.846
 2909POPC   C4B39838  20.702  22.636   7.199
 2910POPC   NC339839  19.665  19.590   5.418
 2910POPC   PO439840  20.125  20.060   5.330
 2910POPC   GL139841  20.107  19.860   5.710
 2910POPC   GL239842  20.142  20.187   5.847
 2910POPC   C1A39843  20.181  19.758   6.152
 2910POPC   D2A39844  20.170  19.585   6.582
 2910POPC   C3A39845  19.877  19.600   6.950
 2910POPC   C4A39846  20.059  19.851   7.283
 2910POPC   C1B39847  19.793  20.082   6.121
 2910POPC   C2B39848  19.766  19.939   6.550
 2910POPC   C3B39849  19.687  20.070   6.985
 2910POPC   C4B39850  19.596  19.980   7.412
 2911POPC   NC339851   4.127  11.119   5.453
 2911POPC   PO439852   4.701  11.509   5.470
 2911POPC   GL139853   4.456  11.349   5.801
 2911POPC   GL239854   4.177  11.559   5.840
 2911POPC   C1A39855   4.390  11.207   6.223
 2911POPC   D2A39856   4.282  11.441   6.599
 2911POPC   C3A39857   4.342  11.174   6.942
 2911POPC   C4A39858   4.474  11.278   7.321
 2911POPC   C1B39859   4.456  11.721   6.190
 2911POPC   C2B39860   4.739  11.739   6.547
 2911POPC   C3B39861   4.634  11.642   6.973
 2911POPC   C4B39862   4.876  11.607   7.368
 2912POPC   NC339863   7.172   0.599   5.350
 2912POPC   PO439864   7.649   0.200   5.393
 2912POPC   GL139865   7.465   0.394   5.763
 2912POPC   GL239866   7.143   0.482   5.891
 2912POPC   C1A39867   7.539   0.337   6.207
 2912POPC   D2A39868   7.431   0.190   6.642
 2912POPC   C3A39869   7.613   0.350   7.010
 2912POPC   C4A39870   7.921   0.440   7.316
 2912POPC   C1B39871   7.062   0.431   6.380
 2912POPC   C2B39872   7.156   0.670   6.805
 2912POPC   C3B39873   7.342   0.698   7.249
 2912POPC   C4B39874   7.121   0.716   7.649
 2913POPC   NC339875  26.219  13.419   5.477
 2913POPC   PO439876  25.959  14.053   5.418
 2913POPC   GL139877  25.952  13.723   5.806
 2913POPC   GL239878  26.269  13.525   5.959
 2913POPC   C1A39879  25.875  13.618   6.250
 2913POPC   D2A39880  25.954  13.744   6.672
 2913POPC   C3A39881  25.742  13.499   7.020
 2913POPC   C4A39882  25.461  13.690   7.313
 2913POPC   C1B39883  26.341  13.479   6.411
 2913POPC   C2B39884  26.159  13.286   6.764
 2913POPC   C3B39885  26.211  13.377   7.210
 2913POPC   C4B39886  26.210  13.413   7.675
 2914POPC   NC339887  43.114  30.462   5.273
 2914POPC   PO439888  42.759  29.905   5.099
 2914POPC   GL139889  42.812  29.967   5.581
 2914POPC   GL239890  42.886  29.646   5.765
 2914POPC   C1A39891  42.845  30.063   6.067
 2914POPC   D2A39892  42.747  30.130   6.544
 2914POPC   C3A39893  43.096  30.129   6.871
 2914POPC   C4A39894  42.926  30.013   7.250
 2914POPC   C1B39895  43.122  29.596   6.119
 2914POPC   C2B39896  43.094  29.758   6.512
 2914POPC   C3B39897  42.821  29.690   6.862
 2914POPC   C4B39898  43.022  29.501   7.230
 2915POPC   NC339899   6.349  28.248   5.332
 2915POPC   PO439900   6.946  28.437   5.460
 2915POPC   GL139901   6.546  28.479   5.741
 2915POPC   GL239902   6.292  28.209   5.839
 2915POPC   C1A39903   6.491  28.569   6.189
 2915POPC   D2A39904   6.816  28.496   6.532
 2915POPC   C3A39905   6.776  28.561   7.013
 2915POPC   C4A39906   6.801  28.292   7.402
 2915POPC   C1B39907   6.481  28.068   6.245
 2915POPC   C2B39908   6.401  28.245   6.670
 2915POPC   C3B39909   6.205  28.120   7.060
 2915POPC   C4B39910   6.272  28.263   7.483
 2916POPC   NC339911  23.303  26.429   5.624
 2916POPC   PO439912  22.961  26.887   5.231
 2916POPC   GL139913  23.007  26.923   5.728
 2916POPC   GL239914  23.340  26.915   5.819
 2916POPC   C1A39915  22.829  26.728   6.174
 2916POPC   D2A39916  22.995  26.647   6.618
 2916POPC   C3A39917  22.786  26.789   6.978
 2916POPC   C4A39918  22.858  26.659   7.407
 2916POPC   C1B39919  23.313  26.838   6.259
 2916POPC   C2B39920  23.400  26.998   6.660
 2916POPC   C3B39921  23.291  26.964   7.086
 2916POPC   C4B39922  23.291  26.902   7.533
 2917POPC   NC339923  36.010  28.021   5.255
 2917POPC   PO439924  36.217  28.626   5.266
 2917POPC   GL139925  36.116  28.376   5.659
 2917POPC   GL239926  35.765  28.314   5.645
 2917POPC   C1A39927  36.181  28.366   6.130
 2917POPC   D2A39928  36.313  28.540   6.547
 2917POPC   C3A39929  36.185  28.388   6.947
 2917POPC   C4A39930  36.307  28.339   7.372
 2917POPC   C1B39931  35.876  27.978   5.954
 2917POPC   C2B39932  35.900  28.026   6.403
 2917POPC   C3B39933  35.820  28.065   6.841
 2917POPC   C4B39934  35.820  28.181   7.320
 2918POPC   NC339935  26.014   1.727   5.295
 2918POPC   PO439936  25.862   1.045   5.340
 2918POPC   GL139937  26.091   1.141   5.723
 2918POPC   GL239938  25.961   1.455   5.781
 2918POPC   C1A39939  26.087   0.962   6.168
 2918POPC   D2A39940  26.058   0.765   6.601
 2918POPC   C3A39941  26.178   1.001   6.994
 2918POPC   C4A39942  26.231   1.183   7.385
 2918POPC   C1B39943  25.876   1.629   6.198
 2918POPC   C2B39944  25.983   1.679   6.636
 2918POPC   C3B39945  25.854   1.486   7.041
 2918POPC   C4B39946  25.931   1.573   7.504
 2919POPC   NC339947  21.893  13.404   5.386
 2919POPC   PO439948  22.415  13.767   5.280
 2919POPC   GL139949  22.244  13.589   5.717
 2919POPC   GL239950  21.875  13.630   5.855
 2919POPC   C1A39951  22.317  13.463   6.162
 2919POPC   D2A39952  22.174  13.427   6.589
 2919POPC   C3A39953  22.361  13.662   6.929
 2919POPC   C4A39954  22.339  13.496   7.326
 2919POPC   C1B39955  21.853  13.747   6.308
 2919POPC   C2B39956  21.888  13.837   6.762
 2919POPC   C3B39957  21.877  13.486   7.045
 2919POPC   C4B39958  21.833  13.457   7.485
 2920POPC   NC339959   4.053  44.682   5.148
 2920POPC   PO439960   4.488   0.030   5.433
 2920POPC   GL139961   4.392  44.675   5.725
 2920POPC   GL239962   4.017  44.597   5.717
 2920POPC   C1A39963   4.529  44.710   6.157
 2920POPC   D2A39964   4.462  44.991   6.455
 2920POPC   C3A39965   4.518  44.823   6.835
 2920POPC   C4A39966   4.644  44.736   7.244
 2920POPC   C1B39967   4.094  44.444   6.118
 2920POPC   C2B39968   4.063  44.649   6.487
 2920POPC   C3B39969   4.125  44.502   6.863
 2920POPC   C4B39970   4.370  44.279   7.107
 2921POPC   NC339971   7.624   2.972   5.513
 2921POPC   PO439972   8.325   2.671   5.448
 2921POPC   GL139973   8.034   2.749   5.798
 2921POPC   GL239974   7.981   3.104   5.827
 2921POPC   C1A39975   8.100   2.754   6.271
 2921POPC   D2A39976   8.204   2.667   6.718
 2921POPC   C3A39977   8.157   2.878   7.130
 2921POPC   C4A39978   8.235   2.672   7.590
 2921POPC   C1B39979   8.191   3.248   6.161
 2921POPC   C2B39980   8.407   3.117   6.532
 2921POPC   C3B39981   8.583   3.116   6.932
 2921POPC   C4B39982   8.590   2.980   7.375
 2922POPC   NC339983   0.426  31.493   5.374
 2922POPC   PO439984  44.939  31.962   5.347
 2922POPC   GL139985   0.160  31.714   5.754
 2922POPC   GL239986   0.565  31.666   5.807
 2922POPC   C1A39987   0.292  31.512   6.172
 2922POPC   D2A39988   0.378  31.640   6.586
 2922POPC   C3A39989   0.221  31.427   6.949
 2922POPC   C4A39990   0.445  31.196   7.249
 2922POPC   C1B39991   0.782  31.592   6.178
 2922POPC   C2B39992   0.862  31.442   6.564
 2922POPC   C3B39993   0.716  31.530   6.966
 2922POPC   C4B39994   0.730  31.619   7.395
 2923POPC   NC339995  22.007  25.374   5.317
 2923POPC   PO439996  22.783  25.337   5.447
 2923POPC   GL139997  22.492  25.438   5.806
 2923POPC   GL239998  22.168  25.251   5.782
 2923POPC   C1A39999  22.241  25.508   6.208
 2923POPC   D2A40000  22.005  25.168   6.444
 2923POPC   C3A40001  21.944  25.245   6.908
 2923POPC   C4A40002  21.985  25.114   7.348
 2923POPC   C1B40003  22.430  25.047   6.117
 2923POPC   C2B40004  22.473  24.986   6.588
 2923POPC   C3B40005  22.332  24.902   7.018
 2923POPC   C4B40006  22.416  24.842   7.478
 2924POPC   NC340007   7.077  36.246   5.524
 2924POPC   PO440008   7.572  35.884   5.529
 2924POPC   GL140009   7.622  36.110   5.912
 2924POPC   GL240010   7.288  36.208   5.994
 2924POPC   C1A40011   7.767  36.223   6.344
 2924POPC   D2A40012   7.517  36.293   6.729
 2924POPC   C3A40013   7.659  36.200   7.154
 2924POPC   C4A40014   7.545  36.063   7.586
 2924POPC   C1B40015   6.928  36.034   6.210
 2924POPC   C2B40016   6.911  35.927   6.643
 2924POPC   C3B40017   7.190  35.961   6.993
 2924POPC   C4B40018   7.085  35.954   7.405
 2925POPC   NC340019  36.016  43.364   5.618
 2925POPC   PO440020  35.378  43.175   5.374
 2925POPC   GL140021  35.327  43.029   5.784
 2925POPC   GL240022  35.684  43.062   5.887
 2925POPC   C1A40023  35.285  42.996   6.239
 2925POPC   D2A40024  35.395  43.110   6.650
 2925POPC   C3A40025  35.033  43.055   6.884
 2925POPC   C4A40026  35.110  42.796   7.220
 2925POPC   C1B40027  35.652  43.374   6.251
 2925POPC   C2B40028  35.689  43.534   6.696
 2925POPC   C3B40029  35.733  43.280   7.075
 2925POPC   C4B40030  35.673  43.343   7.575
 2926POPC   NC340031  20.263  13.347   5.120
 2926POPC   PO440032  19.970  13.871   5.515
 2926POPC   GL140033  19.833  13.689   5.917
 2926POPC   GL240034  19.587  13.438   5.817
 2926POPC   C1A40035  19.815  13.844   6.329
 2926POPC   D2A40036  20.031  13.901   6.699
 2926POPC   C3A40037  19.811  13.740   7.025
 2926POPC   C4A40038  19.723  13.873   7.436
 2926POPC   C1B40039  19.675  13.320   6.221
 2926POPC   C2B40040  19.556  13.482   6.611
 2926POPC   C3B40041  19.495  13.182   6.919
 2926POPC   C4B40042  19.825  13.194   7.196
 2927POPC   NC340043  36.669   9.870   5.061
 2927POPC   PO440044  37.185   9.478   5.273
 2927POPC   GL140045  37.157   9.635   5.712
 2927POPC   GL240046  36.822   9.536   5.812
 2927POPC   C1A40047  37.242   9.810   6.143
 2927POPC   D2A40048  37.301   9.879   6.607
 2927POPC   C3A40049  36.898   9.886   6.857
 2927POPC   C4A40050  36.621   9.703   7.178
 2927POPC   C1B40051  36.898   9.434   6.267
 2927POPC   C2B40052  36.755   9.394   6.740
 2927POPC   C3B40053  36.632   9.188   7.141
 2927POPC   C4B40054  36.604   9.393   7.588
 2928POPC   NC340055  21.561  33.206   5.556
 2928POPC   PO440056  22.196  33.202   5.334
 2928POPC   GL140057  22.118  33.066   5.732
 2928POPC   GL240058  22.452  32.924   5.748
 2928POPC   C1A40059  21.922  33.087   6.145
 2928POPC   D2A40060  22.172  33.078   6.499
 2928POPC   C3A40061  21.975  33.077   6.879
 2928POPC   C4A40062  22.117  33.196   7.224
 2928POPC   C1B40063  22.598  32.976   6.166
 2928POPC   C2B40064  22.583  32.804   6.587
 2928POPC   C3B40065  22.529  33.071   6.929
 2928POPC   C4B40066  22.496  32.882   7.329
 2929POPC   NC340067   1.223  21.516   4.961
 2929POPC   PO440068   1.661  21.149   5.385
 2929POPC   GL140069   1.398  21.364   5.720
 2929POPC   GL240070   1.055  21.466   5.741
 2929POPC   C1A40071   1.328  21.495   6.163
 2929POPC   D2A40072   1.220  21.328   6.566
 2929POPC   C3A40073   1.285  21.536   6.973
 2929POPC   C4A40074   1.238  21.405   7.419
 2929POPC   C1B40075   0.887  21.764   6.077
 2929POPC   C2B40076   1.022  21.809   6.518
 2929POPC   C3B40077   0.835  21.767   6.944
 2929POPC   C4B40078   0.795  21.618   7.378
 2930POPC   NC340079  30.123  34.341   5.305
 2930POPC   PO440080  29.747  34.921   5.311
 2930POPC   GL140081  29.738  34.660   5.744
 2930POPC   GL240082  30.057  34.557   5.797
 2930POPC   C1A40083  29.795  34.553   6.244
 2930POPC   D2A40084  29.671  34.354   6.670
 2930POPC   C3A40085  29.733  34.586   7.094
 2930POPC   C4A40086  29.853  34.426   7.527
 2930POPC   C1B40087  30.148  34.217   6.062
 2930POPC   C2B40088  30.157  34.207   6.500
 2930POPC   C3B40089  30.158  34.500   6.829
 2930POPC   C4B40090  30.223  34.628   7.237
 2931POPC   NC340091  13.806  30.832   5.241
 2931POPC   PO440092  13.163  30.913   5.254
 2931POPC   GL140093  13.461  30.754   5.624
 2931POPC   GL240094  13.783  30.863   5.752
 2931POPC   C1A40095  13.467  30.582   6.076
 2931POPC   D2A40096  13.683  30.505   6.473
 2931POPC   C3A40097  13.520  30.519   6.908
 2931POPC   C4A40098  13.666  30.303   7.291
 2931POPC   C1B40099  13.501  31.081   6.058
 2931POPC   C2B40100  13.453  30.974   6.517
 2931POPC   C3B40101  13.586  31.039   6.944
 2931POPC   C4B40102  13.389  31.314   7.235
 2932POPC   NC340103   3.111  35.923   5.404
 2932POPC   PO440104   3.617  36.329   5.465
 2932POPC   GL140105   3.552  36.159   5.832
 2932POPC   GL240106   3.198  36.297   5.832
 2932POPC   C1A40107   3.722  35.865   6.187
 2932POPC   D2A40108   3.748  35.569   6.622
 2932POPC   C3A40109   3.744  35.846   7.024
 2932POPC   C4A40110   3.701  36.298   7.199
 2932POPC   C1B40111   3.224  35.995   6.180
 2932POPC   C2B40112   3.384  35.927   6.591
 2932POPC   C3B40113   3.277  36.108   6.976
 2932POPC   C4B40114   3.332  35.985   7.353
 2933POPC   NC340115  36.425  38.251   5.063
 2933POPC   PO440116  37.053  38.366   5.383
 2933POPC   GL140117  36.885  38.513   5.735
 2933POPC   GL240118  37.192  38.421   5.911
 2933POPC   C1A40119  36.720  38.436   6.134
 2933POPC   D2A40120  36.891  38.488   6.539
 2933POPC   C3A40121  36.641  38.469   6.905
 2933POPC   C4A40122  36.726  38.609   7.311
 2933POPC   C1B40123  37.196  38.130   6.263
 2933POPC   C2B40124  37.164  38.061   6.666
 2933POPC   C3B40125  37.218  38.393   6.960
 2933POPC   C4B40126  37.287  38.395   7.390
 2934POPC   NC340127  43.417  20.351   5.607
 2934POPC   PO440128  43.853  20.726   5.242
 2934POPC   GL140129  43.904  20.762   5.682
 2934POPC   GL240130  44.264  20.839   5.705
 2934POPC   C1A40131  43.790  20.610   6.108
 2934POPC   D2A40132  43.951  20.426   6.493
 2934POPC   C3A40133  43.823  20.606   6.851
 2934POPC   C4A40134  43.787  20.431   7.221
 2934POPC   C1B40135  44.307  20.708   6.185
 2934POPC   C2B40136  44.389  20.710   6.665
 2934POPC   C3B40137  44.260  20.680   7.127
 2934POPC   C4B40138  44.191  20.372   7.519
 2935POPC   NC340139   7.315  41.836   5.572
 2935POPC   PO440140   7.188  41.266   5.602
 2935POPC   GL140141   7.439  41.478   5.919
 2935POPC   GL240142   7.680  41.744   5.909
 2935POPC   C1A40143   7.312  41.585   6.328
 2935POPC   D2A40144   7.205  41.237   6.579
 2935POPC   C3A40145   7.310  41.237   6.976
 2935POPC   C4A40146   7.452  41.524   7.233
 2935POPC   C1B40147   7.825  41.567   6.280
 2935POPC   C2B40148   7.709  41.456   6.697
 2935POPC   C3B40149   7.895  41.666   7.030
 2935POPC   C4B40150   7.727  41.938   7.313
 2936POPC   NC340151  29.376  27.848   5.359
 2936POPC   PO440152  29.206  27.299   5.761
 2936POPC   GL140153  29.012  27.710   5.761
 2936POPC   GL240154  29.247  27.970   5.834
 2936POPC   C1A40155  28.882  27.832   6.183
 2936POPC   D2A40156  28.994  27.704   6.623
 2936POPC   C3A40157  28.802  27.625   7.054
 2936POPC   C4A40158  28.988  27.495   7.462
 2936POPC   C1B40159  29.401  27.782   6.241
 2936POPC   C2B40160  29.503  27.682   6.688
 2936POPC   C3B40161  29.366  27.557   7.111
 2936POPC   C4B40162  29.472  27.566   7.593
 2937POPC   NC340163  34.232  42.999   5.405
 2937POPC   PO440164  34.744  43.478   5.283
 2937POPC   GL140165  34.785  43.370   5.682
 2937POPC   GL240166  34.827  43.048   5.775
 2937POPC   C1A40167  34.593  43.359   6.095
 2937POPC   D2A40168  34.769  43.288   6.495
 2937POPC   C3A40169  34.504  43.202   6.843
 2937POPC   C4A40170  34.484  43.394   7.230
 2937POPC   C1B40171  34.785  42.872   6.188
 2937POPC   C2B40172  34.681  42.764   6.622
 2937POPC   C3B40173  34.622  42.737   7.073
 2937POPC   C4B40174  34.689  42.884   7.534
 2938POPC   NC340175  37.420   1.495   5.505
 2938POPC   PO440176  37.777   0.994   5.290
 2938POPC   GL140177  37.525   1.025   5.685
 2938POPC   GL240178  37.820   1.160   5.786
 2938POPC   C1A40179  37.469   1.201   6.152
 2938POPC   D2A40180  37.304   1.291   6.550
 2938POPC   C3A40181  37.483   1.456   6.870
 2938POPC   C4A40182  37.489   1.301   7.285
 2938POPC   C1B40183  37.983   1.266   6.160
 2938POPC   C2B40184  37.837   1.264   6.543
 2938POPC   C3B40185  37.970   1.379   6.922
 2938POPC   C4B40186  38.034   1.321   7.317
 2939POPC   NC340187   0.476  18.005   5.473
 2939POPC   PO440188   0.601  18.580   5.180
 2939POPC   GL140189   0.554  18.526   5.665
 2939POPC   GL240190   0.234  18.328   5.797
 2939POPC   C1A40191   0.554  18.546   6.147
 2939POPC   D2A40192   0.740  18.319   6.505
 2939POPC   C3A40193   0.570  18.419   6.927
 2939POPC   C4A40194   0.455  18.215   7.297
 2939POPC   C1B40195   0.228  18.038   6.163
 2939POPC   C2B40196   0.291  18.111   6.614
 2939POPC   C3B40197   0.196  17.888   6.999
 2939POPC   C4B40198   0.131  17.862   7.466
 2940POPC   NC340199  19.831  22.005   5.499
 2940POPC   PO440200  19.729  22.681   5.332
 2940POPC   GL140201  19.872  22.442   5.757
 2940POPC   GL240202  19.590  22.282   5.873
 2940POPC   C1A40203  19.935  22.132   6.185
 2940POPC   D2A40204  19.899  22.040   6.626
 2940POPC   C3A40205  19.973  21.672   6.876
 2940POPC   C4A40206  19.741  21.680   7.258
 2940POPC   C1B40207  19.403  22.281   6.273
 2940POPC   C2B40208  19.478  22.302   6.704
 2940POPC   C3B40209  19.551  22.133   7.136
 2940POPC   C4B40210  19.556  22.348   7.526
 2941POPC   NC340211  25.946  41.143   5.010
 2941POPC   PO440212  26.064  40.595   5.385
 2941POPC   GL140213  26.069  40.865   5.753
 2941POPC   GL240214  26.322  41.104   5.670
 2941POPC   C1A40215  25.948  40.737   6.180
 2941POPC   D2A40216  25.955  40.836   6.626
 2941POPC   C3A40217  26.012  40.741   7.073
 2941POPC   C4A40218  25.726  40.790   7.375
 2941POPC   C1B40219  26.448  41.197   6.100
 2941POPC   C2B40220  26.405  41.041   6.523
 2941POPC   C3B40221  26.243  41.182   6.922
 2941POPC   C4B40222  26.295  41.110   7.345
 2942POPC   NC340223  36.979   6.434   5.508
 2942POPC   PO440224  36.640   7.006   5.213
 2942POPC   GL140225  36.593   6.910   5.696
 2942POPC   GL240226  36.858   6.754   5.911
 2942POPC   C1A40227  36.490   7.016   6.157
 2942POPC   D2A40228  36.334   6.949   6.595
 2942POPC   C3A40229  36.668   6.823   6.890
 2942POPC   C4A40230  36.773   6.418   7.049
 2942POPC   C1B40231  36.846   6.525   6.343
 2942POPC   C2B40232  37.139   6.250   6.649
 2942POPC   C3B40233  37.258   6.289   7.076
 2942POPC   C4B40234  37.183   6.762   7.128
 2943POPC   NC340235  17.373  33.924   5.146
 2943POPC   PO440236  17.749  33.575   5.600
 2943POPC   GL140237  17.598  33.735   5.973
 2943POPC   GL240238  17.516  34.023   5.815
 2943POPC   C1A40239  17.770  33.695   6.355
 2943POPC   D2A40240  17.889  33.642   6.745
 2943POPC   C3A40241  17.526  33.652   6.978
 2943POPC   C4A40242  17.524  33.721   7.377
 2943POPC   C1B40243  17.597  34.179   6.232
 2943POPC   C2B40244  17.561  34.095   6.681
 2943POPC   C3B40245  17.413  34.135   7.114
 2943POPC   C4B40246  17.306  34.155   7.534
 2944POPC   NC340247  38.522  22.736   5.332
 2944POPC   PO440248  38.592  23.421   5.365
 2944POPC   GL140249  38.404  23.247   5.794
 2944POPC   GL240250  38.389  22.857   5.816
 2944POPC   C1A40251  38.329  23.123   6.240
 2944POPC   D2A40252  38.554  22.836   6.509
 2944POPC   C3A40253  38.742  22.946   6.875
 2944POPC   C4A40254  38.652  23.301   7.106
 2944POPC   C1B40255  38.238  22.602   6.194
 2944POPC   C2B40256  38.122  22.659   6.690
 2944POPC   C3B40257  38.279  22.816   7.109
 2944POPC   C4B40258  38.241  22.717   7.587
 2945POPC   NC340259  42.576   1.549   5.079
 2945POPC   PO440260  42.671   0.994   5.405
 2945POPC   GL140261  42.380   1.110   5.754
 2945POPC   GL240262  42.561   1.325   6.006
 2945POPC   C1A40263  42.194   1.038   6.186
 2945POPC   D2A40264  42.342   0.989   6.588
 2945POPC   C3A40265  42.059   1.099   6.884
 2945POPC   C4A40266  42.246   1.238   7.237
 2945POPC   C1B40267  42.218   1.540   6.152
 2945POPC   C2B40268  42.189   1.500   6.580
 2945POPC   C3B40269  42.549   1.380   6.844
 2945POPC   C4B40270  42.703   1.481   7.250
 2946POPC   NC340271  39.998  11.738   5.465
 2946POPC   PO440272  40.056  11.041   5.427
 2946POPC   GL140273  39.888  11.319   5.836
 2946POPC   GL240274  40.101  11.601   5.933
 2946POPC   C1A40275  39.873  11.399   6.353
 2946POPC   D2A40276  40.009  11.347   6.829
 2946POPC   C3A40277  39.784  11.218   7.242
 2946POPC   C4A40278  39.859  11.339   7.707
 2946POPC   C1B40279  40.115  11.862   6.284
 2946POPC   C2B40280  40.345  11.722   6.633
 2946POPC   C3B40281  40.495  11.593   7.040
 2946POPC   C4B40282  40.214  11.488   7.356
 2947POPC   NC340283   6.503   5.017   5.441
 2947POPC   PO440284   7.120   5.153   5.415
 2947POPC   GL140285   6.872   5.186   5.812
 2947POPC   GL240286   6.506   5.139   5.922
 2947POPC   C1A40287   6.945   4.865   6.130
 2947POPC   D2A40288   7.037   4.765   6.553
 2947POPC   C3A40289   6.865   5.100   6.798
 2947POPC   C4A40290   6.700   5.009   7.177
 2947POPC   C1B40291   6.652   5.248   6.331
 2947POPC   C2B40292   6.583   5.520   6.664
 2947POPC   C3B40293   6.578   5.520   7.063
 2947POPC   C4B40294   6.257   5.298   7.225
 2948POPC   NC340295  33.389   6.805   5.444
 2948POPC   PO440296  34.098   6.506   5.327
 2948POPC   GL140297  34.029   6.671   5.751
 2948POPC   GL240298  33.713   6.787   5.821
 2948POPC   C1A40299  34.045   6.516   6.166
 2948POPC   D2A40300  33.848   6.340   6.521
 2948POPC   C3A40301  33.901   6.471   6.912
 2948POPC   C4A40302  33.581   6.667   7.198
 2948POPC   C1B40303  33.837   6.987   6.180
 2948POPC   C2B40304  34.047   6.866   6.543
 2948POPC   C3B40305  33.922   6.962   6.917
 2948POPC   C4B40306  34.062   6.797   7.307
 2949POPC   NC340307  42.504   2.238   5.303
 2949POPC   PO440308  42.298   1.573   5.444
 2949POPC   GL140309  42.505   1.817   5.784
 2949POPC   GL240310  42.427   2.165   5.796
 2949POPC   C1A40311  42.636   1.891   6.223
 2949POPC   D2A40312  42.350   1.989   6.577
 2949POPC   C3A40313  42.406   1.851   6.978
 2949POPC   C4A40314  42.591   1.974   7.342
 2949POPC   C1B40315  42.144   2.026   6.109
 2949POPC   C2B40316  41.977   2.314   6.463
 2949POPC   C3B40317  42.038   2.251   6.915
 2949POPC   C4B40318  42.069   2.018   7.333
 2950POPC   NC340319  10.961  21.136   5.409
 2950POPC   PO440320  10.333  21.410   5.217
 2950POPC   GL140321  10.337  21.459   5.664
 2950POPC   GL240322  10.629  21.308   5.740
 2950POPC   C1A40323  10.337  21.436   6.132
 2950POPC   D2A40324  10.445  21.633   6.500
 2950POPC   C3A40325  10.557  21.470   6.856
 2950POPC   C4A40326  10.490  21.543   7.249
 2950POPC   C1B40327  10.689  21.057   6.119
 2950POPC   C2B40328  10.535  21.080   6.493
 2950POPC   C3B40329  10.671  20.986   6.894
 2950POPC   C4B40330  10.930  21.243   7.167
 2951POPC   NC340331  28.512  27.469   5.026
 2951POPC   PO440332  28.224  28.034   5.377
 2951POPC   GL140333  28.492  27.817   5.725
 2951POPC   GL240334  28.580  27.421   5.737
 2951POPC   C1A40335  28.380  27.771   6.171
 2951POPC   D2A40336  28.534  27.977   6.542
 2951POPC   C3A40337  28.342  27.812   6.877
 2951POPC   C4A40338  28.245  27.792   7.293
 2951POPC   C1B40339  28.685  27.348   6.195
 2951POPC   C2B40340  28.547  27.410   6.625
 2951POPC   C3B40341  28.346  27.330   7.036
 2951POPC   C4B40342  28.510  27.356   7.467
 2952POPC   NC340343  31.078  17.766   5.668
 2952POPC   PO440344  30.562  17.346   5.452
 2952POPC   GL140345  30.798  17.347   5.836
 2952POPC   GL240346  30.622  17.669   5.944
 2952POPC   C1A40347  30.849  17.354   6.288
 2952POPC   D2A40348  30.483  17.393   6.571
 2952POPC   C3A40349  30.540  17.347   7.020
 2952POPC   C4A40350  30.506  17.118   7.420
 2952POPC   C1B40351  30.786  17.879   6.333
 2952POPC   C2B40352  31.119  17.792   6.662
 2952POPC   C3B40353  31.128  17.641   7.111
 2952POPC   C4B40354  30.730  17.639   7.386
 2953POPC   NC340355  16.799  15.473   4.975
 2953POPC   PO440356  16.615  14.818   5.163
 2953POPC   GL140357  16.757  15.051   5.633
 2953POPC   GL240358  16.471  15.019   5.899
 2953POPC   C1A40359  16.864  15.262   6.050
 2953POPC   D2A40360  16.752  15.028   6.417
 2953POPC   C3A40361  16.653  15.255   6.791
 2953POPC   C4A40362  16.784  15.181   7.216
 2953POPC   C1B40363  16.258  14.970   6.299
 2953POPC   C2B40364  16.249  14.931   6.766
 2953POPC   C3B40365  16.459  14.782   7.157
 2953POPC   C4B40366  16.506  14.937   7.588
 2954POPC   NC340367   6.337  14.676   5.418
 2954POPC   PO440368   6.890  14.227   5.333
 2954POPC   GL140369   6.704  14.375   5.707
 2954POPC   GL240370   6.395  14.202   5.702
 2954POPC   C1A40371   6.753  14.308   6.168
 2954POPC   D2A40372   6.892  14.116   6.588
 2954POPC   C3A40373   6.930  14.444   6.914
 2954POPC   C4A40374   6.692  14.552   7.267
 2954POPC   C1B40375   6.238  14.151   6.120
 2954POPC   C2B40376   6.351  14.095   6.539
 2954POPC   C3B40377   6.428  14.251   6.935
 2954POPC   C4B40378   6.243  14.005   7.220
 2955POPC   NC340379   5.018  17.192   5.297
 2955POPC   PO440380   5.434  17.487   5.787
 2955POPC   GL140381   5.132  17.705   6.023
 2955POPC   GL240382   4.817  17.688   5.825
 2955POPC   C1A40383   5.233  17.845   6.443
 2955POPC   D2A40384   5.259  17.522   6.728
 2955POPC   C3A40385   5.304  17.581   7.141
 2955POPC   C4A40386   5.044  17.406   7.479
 2955POPC   C1B40387   4.734  17.342   6.136
 2955POPC   C2B40388   4.612  17.361   6.583
 2955POPC   C3B40389   4.798  17.370   7.021
 2955POPC   C4B40390   4.602  17.199   7.405
 2956POPC   NC340391  22.505   1.806   5.497
 2956POPC   PO440392  22.956   2.257   5.269
 2956POPC   GL140393  22.879   2.052   5.744
 2956POPC   GL240394  22.766   1.697   5.903
 2956POPC   C1A40395  22.887   2.023   6.249
 2956POPC   D2A40396  22.796   1.863   6.677
 2956POPC   C3A40397  22.904   2.084   7.065
 2956POPC   C4A40398  23.013   2.098   7.525
 2956POPC   C1B40399  23.031   1.524   6.251
 2956POPC   C2B40400  23.275   1.600   6.621
 2956POPC   C3B40401  23.103   1.594   7.025
 2956POPC   C4B40402  22.835   1.656   7.379
 2957POPC   NC340403   1.194  30.978   5.375
 2957POPC   PO440404   1.161  30.418   5.039
 2957POPC   GL140405   1.132  30.526   5.587
 2957POPC   GL240406   0.895  30.808   5.737
 2957POPC   C1A40407   1.337  30.708   6.026
 2957POPC   D2A40408   1.573  30.772   6.468
 2957POPC   C3A40409   1.392  30.805   6.929
 2957POPC   C4A40410   1.074  30.672   7.253
 2957POPC   C1B40411   0.827  30.630   6.135
 2957POPC   C2B40412   0.684  30.616   6.550
 2957POPC   C3B40413   0.782  30.312   6.837
 2957POPC   C4B40414   0.791  30.142   7.214
 2958POPC   NC340415   3.277  36.682   5.474
 2958POPC   PO440416   3.870  37.079   5.432
 2958POPC   GL140417   3.590  37.029   5.754
 2958POPC   GL240418   3.647  36.685   5.837
 2958POPC   C1A40419   3.360  37.031   6.136
 2958POPC   D2A40420   3.370  36.890   6.578
 2958POPC   C3A40421   3.523  37.139   6.939
 2958POPC   C4A40422   3.758  37.171   7.337
 2958POPC   C1B40423   3.483  36.500   6.230
 2958POPC   C2B40424   3.531  36.423   6.680
 2958POPC   C3B40425   3.363  36.651   7.054
 2958POPC   C4B40426   3.556  36.735   7.475
 2959POPC   NC340427  24.302  12.519   5.389
 2959POPC   PO440428  24.777  12.972   5.296
 2959POPC   GL140429  24.567  12.865   5.738
 2959POPC   GL240430  24.603  12.508   5.809
 2959POPC   C1A40431  24.547  13.073   6.204
 2959POPC   D2A40432  24.324  13.097   6.622
 2959POPC   C3A40433  24.541  13.126   7.024
 2959POPC   C4A40434  24.195  13.040   7.300
 2959POPC   C1B40435  24.726  12.603   6.240
 2959POPC   C2B40436  24.715  12.766   6.687
 2959POPC   C3B40437  24.696  12.644   7.167
 2959POPC   C4B40438  24.718  12.446   7.624
 2960POPC   NC340439  14.568  40.468   5.363
 2960POPC   PO440440  13.920  40.609   5.429
 2960POPC   GL140441  14.233  40.716   5.716
 2960POPC   GL240442  14.138  41.027   5.828
 2960POPC   C1A40443  14.344  40.596   6.151
 2960POPC   D2A40444  14.335  40.757   6.593
 2960POPC   C3A40445  14.424  40.569   7.005
 2960POPC   C4A40446  14.663  40.676   7.380
 2960POPC   C1B40447  14.002  40.972   6.238
 2960POPC   C2B40448  13.854  40.975   6.669
 2960POPC   C3B40449  14.068  40.936   7.066
 2960POPC   C4B40450  14.198  40.827   7.489
 2961POPC   NC340451  18.941  41.821   5.375
 2961POPC   PO440452  18.944  41.172   5.338
 2961POPC   GL140453  19.023  41.388   5.725
 2961POPC   GL240454  19.251  41.689   5.797
 2961POPC   C1A40455  18.947  41.477   6.167
 2961POPC   D2A40456  19.186  41.413   6.526
 2961POPC   C3A40457  19.024  41.488   6.928
 2961POPC   C4A40458  18.888  41.344   7.330
 2961POPC   C1B40459  19.440  41.774   6.237
 2961POPC   C2B40460  19.432  41.817   6.729
 2961POPC   C3B40461  19.465  41.698   7.181
 2961POPC   C4B40462  19.309  41.832   7.605
 2962POPC   NC340463  26.356  40.239   5.523
 2962POPC   PO440464  25.796  39.834   5.370
 2962POPC   GL140465  25.924  39.739   5.794
 2962POPC   GL240466  25.975  40.101   5.852
 2962POPC   C1A40467  26.095  39.737   6.197
 2962POPC   D2A40468  26.098  39.627   6.571
 2962POPC   C3A40469  26.271  39.910   6.849
 2962POPC   C4A40470  26.361  39.727   7.217
 2962POPC   C1B40471  26.103  40.249   6.282
 2962POPC   C2B40472  26.061  40.355   6.730
 2962POPC   C3B40473  25.877  40.241   7.113
 2962POPC   C4B40474  25.812  40.310   7.530
 2963POPC   NC340475  23.150  32.546   5.461
 2963POPC   PO440476  22.854  31.951   5.222
 2963POPC   GL140477  22.823  32.151   5.632
 2963POPC   GL240478  22.546  32.369   5.543
 2963POPC   C1A40479  22.955  32.138   6.112
 2963POPC   D2A40480  23.032  32.236   6.578
 2963POPC   C3A40481  23.056  32.028   6.976
 2963POPC   C4A40482  23.095  32.056   7.450
 2963POPC   C1B40483  22.439  32.207   5.972
 2963POPC   C2B40484  22.562  32.348   6.375
 2963POPC   C3B40485  22.601  32.312   6.827
 2963POPC   C4B40486  22.671  32.330   7.266
 2964POPC   NC340487  19.149  14.292   5.235
 2964POPC   PO440488  18.547  14.532   5.317
 2964POPC   GL140489  18.859  14.463   5.688
 2964POPC   GL240490  19.070  14.158   5.723
 2964POPC   C1A40491  19.141  14.484   6.098
 2964POPC   D2A40492  19.315  14.629   6.505
 2964POPC   C3A40493  19.219  14.462   6.912
 2964POPC   C4A40494  18.996  14.523   7.323
 2964POPC   C1B40495  18.907  14.032   6.125
 2964POPC   C2B40496  18.866  14.272   6.534
 2964POPC   C3B40497  18.844  14.156   6.979
 2964POPC   C4B40498  19.222  14.071   7.268
 2965POPC   NC340499  35.659  34.874   5.516
 2965POPC   PO440500  35.097  34.556   5.186
 2965POPC   GL140501  35.223  34.522   5.649
 2965POPC   GL240502  35.521  34.386   5.563
 2965POPC   C1A40503  35.181  34.751   6.091
 2965POPC   D2A40504  34.966  34.781   6.522
 2965POPC   C3A40505  35.119  34.783   6.965
 2965POPC   C4A40506  35.148  34.889   7.441
 2965POPC   C1B40507  35.590  34.400   6.020
 2965POPC   C2B40508  35.427  34.451   6.441
 2965POPC   C3B40509  35.461  34.390   6.882
 2965POPC   C4B40510  35.534  34.609   7.249
 2966POPC   NC340511  19.756   9.393   5.504
 2966POPC   PO440512  19.668  10.009   5.219
 2966POPC   GL140513  19.873   9.889   5.675
 2966POPC   GL240514  20.178   9.655   5.684
 2966POPC   C1A40515  19.751   9.959   6.153
 2966POPC   D2A40516  19.501   9.924   6.573
 2966POPC   C3A40517  19.803   9.899   6.953
 2966POPC   C4A40518  19.776  10.108   7.360
 2966POPC   C1B40519  20.125   9.475   6.094
 2966POPC   C2B40520  20.185   9.493   6.557
 2966POPC   C3B40521  20.146   9.430   7.031
 2966POPC   C4B40522  19.872   9.569   7.389
 2967POPC   NC340523  11.510  12.956   5.504
 2967POPC   PO440524  10.888  12.664   5.325
 2967POPC   GL140525  11.084  12.702   5.736
 2967POPC   GL240526  11.032  13.002   5.918
 2967POPC   C1A40527  11.279  12.602   6.149
 2967POPC   D2A40528  11.083  12.542   6.565
 2967POPC   C3A40529  11.258  12.831   6.871
 2967POPC   C4A40530  11.059  12.892   7.224
 2967POPC   C1B40531  11.392  13.126   6.206
 2967POPC   C2B40532  11.647  13.046   6.601
 2967POPC   C3B40533  11.749  13.198   7.031
 2967POPC   C4B40534  11.689  13.346   7.481
 2968POPC   NC340535  34.151  38.180   5.311
 2968POPC   PO440536  33.809  38.716   5.363
 2968POPC   GL140537  33.792  38.431   5.705
 2968POPC   GL240538  33.773  38.680   5.966
 2968POPC   C1A40539  33.695  38.217   6.131
 2968POPC   D2A40540  33.721  38.422   6.549
 2968POPC   C3A40541  33.730  38.142   6.913
 2968POPC   C4A40542  33.953  38.130   7.309
 2968POPC   C1B40543  34.130  38.644   6.252
 2968POPC   C2B40544  34.308  38.624   6.650
 2968POPC   C3B40545  34.159  38.600   7.067
 2968POPC   C4B40546  34.117  38.570   7.530
 2969POPC   NC340547   3.207   1.896   5.574
 2969POPC   PO440548   3.866   2.176   5.444
 2969POPC   GL140549   3.644   2.093   5.749
 2969POPC   GL240550   3.674   1.734   5.769
 2969POPC   C1A40551   3.752   2.096   6.157
 2969POPC   D2A40552   3.578   2.269   6.517
 2969POPC   C3A40553   3.605   2.041   6.877
 2969POPC   C4A40554   3.260   2.137   7.132
 2969POPC   C1B40555   3.462   1.627   6.169
 2969POPC   C2B40556   3.490   1.575   6.621
 2969POPC   C3B40557   3.275   1.645   7.023
 2969POPC   C4B40558   3.250   1.634   7.480
 2970POPC   NC340559  21.160  27.748   5.153
 2970POPC   PO440560  21.640  27.445   5.534
 2970POPC   GL140561  21.443  27.597   5.853
 2970POPC   GL240562  21.628  27.877   5.978
 2970POPC   C1A40563  21.244  27.450   6.209
 2970POPC   D2A40564  21.052  27.531   6.601
 2970POPC   C3A40565  21.324  27.611   6.948
 2970POPC   C4A40566  21.383  27.315   7.283
 2970POPC   C1B40567  21.774  27.497   6.218
 2970POPC   C2B40568  21.605  27.350   6.596
 2970POPC   C3B40569  21.812  27.448   7.001
 2970POPC   C4B40570  21.705  27.722   7.298
 2971POPC   NC340571  32.021  11.663   5.548
 2971POPC   PO440572  32.317  11.029   5.351
 2971POPC   GL140573  32.099  11.188   5.724
 2971POPC   GL240574  32.422  11.339   5.813
 2971POPC   C1A40575  31.980  11.308   6.183
 2971POPC   D2A40576  32.143  11.468   6.618
 2971POPC   C3A40577  32.033  11.245   7.001
 2971POPC   C4A40578  32.240  11.122   7.386
 2971POPC   C1B40579  32.489  11.331   6.265
 2971POPC   C2B40580  32.651  11.299   6.711
 2971POPC   C3B40581  32.528  11.455   7.116
 2971POPC   C4B40582  32.659  11.416   7.557
 2972POPC   NC340583  37.225   3.890   5.378
 2972POPC   PO440584  37.527   3.246   5.499
 2972POPC   GL140585  37.776   3.353   5.814
 2972POPC   GL240586  37.699   3.721   5.811
 2972POPC   C1A40587  37.845   3.454   6.222
 2972POPC   D2A40588  37.933   3.779   6.511
 2972POPC   C3A40589  37.877   3.588   6.931
 2972POPC   C4A40590  38.088   3.787   7.250
 2972POPC   C1B40591  37.459   3.806   6.202
 2972POPC   C2B40592  37.447   3.679   6.631
 2972POPC   C3B40593  37.393   3.834   7.046
 2972POPC   C4B40594  37.146   3.643   7.367
 2973POPC   NC340595   2.373   9.410   4.968
 2973POPC   PO440596   2.711   9.949   5.310
 2973POPC   GL140597   2.788   9.683   5.740
 2973POPC   GL240598   3.168   9.548   5.805
 2973POPC   C1A40599   2.619   9.534   6.213
 2973POPC   D2A40600   2.341   9.472   6.627
 2973POPC   C3A40601   2.536   9.583   7.041
 2973POPC   C4A40602   2.746  10.006   7.106
 2973POPC   C1B40603   3.044   9.827   6.142
 2973POPC   C2B40604   2.916   9.913   6.563
 2973POPC   C3B40605   3.009   9.619   6.870
 2973POPC   C4B40606   3.049   9.608   7.282
 2974POPC   NC340607  29.273  42.219   5.429
 2974POPC   PO440608  28.596  42.244   5.473
 2974POPC   GL140609  28.931  42.345   5.809
 2974POPC   GL240610  29.018  42.688   5.927
 2974POPC   C1A40611  29.054  42.164   6.238
 2974POPC   D2A40612  28.859  41.915   6.606
 2974POPC   C3A40613  28.990  42.059   7.002
 2974POPC   C4A40614  29.122  42.424   7.179
 2974POPC   C1B40615  29.252  42.682   6.323
 2974POPC   C2B40616  29.286  42.379   6.663
 2974POPC   C3B40617  29.514  42.184   6.990
 2974POPC   C4B40618  29.645  42.422   7.360
 2975POPC   NC340619  23.751  19.691   5.187
 2975POPC   PO440620  23.729  20.099   5.542
 2975POPC   GL140621  23.789  19.671   5.739
 2975POPC   GL240622  24.140  19.672   5.811
 2975POPC   C1A40623  23.723  19.434   6.166
 2975POPC   D2A40624  23.835  19.494   6.637
 2975POPC   C3A40625  23.563  19.633   7.008
 2975POPC   C4A40626  23.623  19.664   7.475
 2975POPC   C1B40627  24.090  19.789   6.273
 2975POPC   C2B40628  24.026  19.988   6.692
 2975POPC   C3B40629  23.973  19.897   7.125
 2975POPC   C4B40630  24.189  19.862   7.503
 2976POPC   NC340631  28.992  22.964   5.436
 2976POPC   PO440632  29.638  22.885   5.281
 2976POPC   GL140633  29.408  22.801   5.719
 2976POPC   GL240634  29.090  22.691   5.903
 2976POPC   C1A40635  29.287  23.106   6.091
 2976POPC   D2A40636  29.033  22.945   6.450
 2976POPC   C3A40637  29.066  23.113   6.869
 2976POPC   C4A40638  29.147  23.082   7.301
 2976POPC   C1B40639  29.382  22.619   6.242
 2976POPC   C2B40640  29.440  22.732   6.703
 2976POPC   C3B40641  29.187  22.613   7.089
 2976POPC   C4B40642  29.231  22.632   7.558
 2977POPC   NC340643  34.183  16.067   5.456
 2977POPC   PO440644  33.615  15.634   5.344
 2977POPC   GL140645  33.712  15.732   5.761
 2977POPC   GL240646  33.522  16.007   5.965
 2977POPC   C1A40647  33.687  15.547   6.167
 2977POPC   D2A40648  33.596  15.804   6.505
 2977POPC   C3A40649  33.911  15.816   6.810
 2977POPC   C4A40650  33.813  15.723   7.209
 2977POPC   C1B40651  33.961  15.983   6.136
 2977POPC   C2B40652  34.112  16.179   6.470
 2977POPC   C3B40653  33.855  16.338   6.793
 2977POPC   C4B40654  33.885  16.288   7.241
 2978POPC   NC340655  31.111  16.138   5.443
 2978POPC   PO440656  31.725  16.060   5.432
 2978POPC   GL140657  31.471  16.021   5.808
 2978POPC   GL240658  31.208  15.732   5.777
 2978POPC   C1A40659  31.529  15.768   6.176
 2978POPC   D2A40660  31.675  15.550   6.513
 2978POPC   C3A40661  31.541  15.802   6.863
 2978POPC   C4A40662  31.197  15.765   7.158
 2978POPC   C1B40663  31.062  15.966   6.152
 2978POPC   C2B40664  31.184  16.106   6.583
 2978POPC   C3B40665  31.095  16.263   7.016
 2978POPC   C4B40666  31.153  16.380   7.462
 2979POPC   NC340667  43.065   4.119   5.416
 2979POPC   PO440668  42.992   4.749   5.257
 2979POPC   GL140669  42.981   4.580   5.695
 2979POPC   GL240670  43.317   4.416   5.730
 2979POPC   C1A40671  43.046   4.478   6.152
 2979POPC   D2A40672  42.912   4.551   6.588
 2979POPC   C3A40673  43.090   4.342   6.955
 2979POPC   C4A40674  42.841   4.130   7.268
 2979POPC   C1B40675  43.306   4.026   6.025
 2979POPC   C2B40676  43.359   3.888   6.459
 2979POPC   C3B40677  43.499   4.019   6.859
 2979POPC   C4B40678  43.345   3.946   7.243
 2980POPC   NC340679  38.738  30.387   5.491
 2980POPC   PO440680  38.280  30.883   5.407
 2980POPC   GL140681  38.503  30.781   5.745
 2980POPC   GL240682  38.774  30.981   5.822
 2980POPC   C1A40683  38.380  30.732   6.162
 2980POPC   D2A40684  38.171  30.517   6.497
 2980POPC   C3A40685  38.255  30.725   6.870
 2980POPC   C4A40686  38.356  30.642   7.283
 2980POPC   C1B40687  38.873  30.828   6.255
 2980POPC   C2B40688  38.790  30.731   6.712
 2980POPC   C3B40689  38.822  30.856   7.157
 2980POPC   C4B40690  38.846  30.589   7.522
 2981POPC   NC340691  38.982  40.356   5.364
 2981POPC   PO440692  39.500  39.847   5.250
 2981POPC   GL140693  39.376  39.792   5.716
 2981POPC   GL240694  39.331  40.143   5.813
 2981POPC   C1A40695  39.237  39.723   6.185
 2981POPC   D2A40696  38.983  39.933   6.550
 2981POPC   C3A40697  39.157  39.947   6.993
 2981POPC   C4A40698  39.596  39.747   7.064
 2981POPC   C1B40699  39.518  40.200   6.228
 2981POPC   C2B40700  39.366  40.315   6.651
 2981POPC   C3B40701  39.519  40.310   7.085
 2981POPC   C4B40702  39.350  40.465   7.477
 2982POPC   NC340703  33.077  25.629   5.559
 2982POPC   PO440704  32.876  25.137   5.138
 2982POPC   GL140705  32.855  25.142   5.635
 2982POPC   GL240706  33.119  25.235   5.872
 2982POPC   C1A40707  32.610  25.188   6.056
 2982POPC   D2A40708  32.558  25.314   6.507
 2982POPC   C3A40709  32.886  25.186   6.807
 2982POPC   C4A40710  33.137  25.219   7.179
 2982POPC   C1B40711  33.011  25.469   6.265
 2982POPC   C2B40712  33.194  25.576   6.681
 2982POPC   C3B40713  33.261  25.724   7.090
 2982POPC   C4B40714  33.326  25.563   7.503
 2983POPC   NC340715   8.505  29.726   5.159
 2983POPC   PO440716   7.971  29.583   5.452
 2983POPC   GL140717   7.985  29.728   5.862
 2983POPC   GL240718   8.369  29.692   5.905
 2983POPC   C1A40719   8.056  29.749   6.317
 2983POPC   D2A40720   7.918  29.557   6.685
 2983POPC   C3A40721   8.015  29.767   7.072
 2983POPC   C4A40722   8.027  29.738   7.514
 2983POPC   C1B40723   8.531  29.516   6.335
 2983POPC   C2B40724   8.457  29.555   6.815
 2983POPC   C3B40725   8.513  29.782   7.239
 2983POPC   C4B40726   8.485  29.978   7.662
 2984POPC   NC340727  23.258  34.122   5.369
 2984POPC   PO440728  22.584  33.872   5.532
 2984POPC   GL140729  22.999  33.835   5.737
 2984POPC   GL240730  23.084  33.460   5.747
 2984POPC   C1A40731  23.220  34.024   6.148
 2984POPC   D2A40732  23.380  34.097   6.599
 2984POPC   C3A40733  23.234  33.890   6.970
 2984POPC   C4A40734  23.135  33.605   7.287
 2984POPC   C1B40735  22.880  33.594   6.155
 2984POPC   C2B40736  23.013  33.693   6.563
 2984POPC   C3B40737  22.744  33.672   6.949
 2984POPC   C4B40738  22.654  33.408   7.330
 2985POPC   NC340739   3.160  20.119   5.414
 2985POPC   PO440740   3.504  20.687   5.384
 2985POPC   GL140741   3.452  20.416   5.754
 2985POPC   GL240742   3.739  20.288   5.894
 2985POPC   C1A40743   3.374  20.527   6.199
 2985POPC   D2A40744   3.577  20.590   6.611
 2985POPC   C3A40745   3.266  20.650   6.953
 2985POPC   C4A40746   3.350  20.711   7.387
 2985POPC   C1B40747   3.682  20.152   6.339
 2985POPC   C2B40748   3.651  20.110   6.788
 2985POPC   C3B40749   3.681  20.364   7.156
 2985POPC   C4B40750   3.803  20.312   7.606
 2986POPC   NC340751  41.540  42.903   5.463
 2986POPC   PO440752  41.195  43.496   5.330
 2986POPC   GL140753  41.528  43.398   5.720
 2986POPC   GL240754  41.507  43.094   5.958
 2986POPC   C1A40755  41.700  43.480   6.185
 2986POPC   D2A40756  41.737  43.178   6.526
 2986POPC   C3A40757  41.545  43.254   6.919
 2986POPC   C4A40758  41.640  43.120   7.328
 2986POPC   C1B40759  41.270  42.993   6.355
 2986POPC   C2B40760  41.142  42.975   6.757
 2986POPC   C3B40761  41.344  42.783   7.087
 2986POPC   C4B40762  41.245  42.824   7.521
 2987POPC   NC340763  35.216   6.469   5.510
 2987POPC   PO440764  35.657   6.821   5.227
 2987POPC   GL140765  35.689   6.615   5.663
 2987POPC   GL240766  35.400   6.743   5.895
 2987POPC   C1A40767  35.723   6.437   6.112
 2987POPC   D2A40768  35.452   6.599   6.475
 2987POPC   C3A40769  35.456   6.516   6.924
 2987POPC   C4A40770  35.418   6.701   7.377
 2987POPC   C1B40771  35.027   6.622   6.181
 2987POPC   C2B40772  34.932   6.490   6.619
 2987POPC   C3B40773  34.968   6.622   7.068
 2987POPC   C4B40774  34.986   6.438   7.521
 2988POPC   NC340775  40.509  30.774   5.484
 2988POPC   PO440776  40.987  30.335   5.500
 2988POPC   GL140777  41.121  30.674   5.761
 2988POPC   GL240778  40.830  30.837   5.898
 2988POPC   C1A40779  41.222  30.721   6.204
 2988POPC   D2A40780  40.972  30.752   6.550
 2988POPC   C3A40781  41.168  30.721   6.951
 2988POPC   C4A40782  40.888  30.757   7.273
 2988POPC   C1B40783  40.542  30.830   6.240
 2988POPC   C2B40784  40.317  30.820   6.593
 2988POPC   C3B40785  40.404  30.825   7.032
 2988POPC   C4B40786  40.558  31.157   7.288
 2989POPC   NC340787  24.799  34.215   5.672
 2989POPC   PO440788  24.478  34.736   5.378
 2989POPC   GL140789  24.417  34.850   5.817
 2989POPC   GL240790  24.429  34.496   5.886
 2989POPC   C1A40791  24.488  34.804   6.295
 2989POPC   D2A40792  24.781  34.591   6.591
 2989POPC   C3A40793  24.770  34.777   6.983
 2989POPC   C4A40794  24.480  34.797   7.338
 2989POPC   C1B40795  24.521  34.268   6.277
 2989POPC   C2B40796  24.394  34.238   6.697
 2989POPC   C3B40797  24.602  34.302   7.088
 2989POPC   C4B40798  24.408  34.305   7.488
 2990POPC   NC340799  11.863  36.699   5.383
 2990POPC   PO440800  12.360  36.946   5.329
 2990POPC   GL140801  12.202  36.844   5.774
 2990POPC   GL240802  11.852  36.904   5.871
 2990POPC   C1A40803  12.134  36.649   6.234
 2990POPC   D2A40804  11.973  36.569   6.696
 2990POPC   C3A40805  12.170  36.789   7.096
 2990POPC   C4A40806  12.144  36.942   7.552
 2990POPC   C1B40807  11.638  36.778   6.255
 2990POPC   C2B40808  11.477  36.697   6.687
 2990POPC   C3B40809  11.658  36.745   7.108
 2990POPC   C4B40810  11.634  36.962   7.523
 2991POPC   NC340811  40.079  23.509   5.471
 2991POPC   PO440812  39.474  23.328   5.507
 2991POPC   GL140813  39.713  23.547   5.795
 2991POPC   GL240814  39.858  23.915   5.733
 2991POPC   C1A40815  39.985  23.566   6.129
 2991POPC   D2A40816  39.774  23.476   6.478
 2991POPC   C3A40817  39.894  23.602   6.860
 2991POPC   C4A40818  40.172  23.487   7.159
 2991POPC   C1B40819  40.134  24.061   6.075
 2991POPC   C2B40820  40.126  23.929   6.500
 2991POPC   C3B40821  40.109  24.064   6.925
 2991POPC   C4B40822  39.885  23.911   7.283
 2992POPC   NC340823  15.542  30.853   5.485
 2992POPC   PO440824  15.015  30.559   5.172
 2992POPC   GL140825  15.099  30.633   5.705
 2992POPC   GL240826  15.360  30.828   5.944
 2992POPC   C1A40827  14.936  30.663   6.201
 2992POPC   D2A40828  14.830  30.569   6.663
 2992POPC   C3A40829  15.143  30.661   6.997
 2992POPC   C4A40830  15.106  30.449   7.429
 2992POPC   C1B40831  15.424  31.158   6.265
 2992POPC   C2B40832  15.496  31.005   6.663
 2992POPC   C3B40833  15.572  31.041   7.082
 2992POPC   C4B40834  15.321  30.952   7.429
 2993POPC   NC340835   8.062  20.289   5.343
 2993POPC   PO440836   8.289  19.731   5.098
 2993POPC   GL140837   8.305  19.713   5.603
 2993POPC   GL240838   8.377  20.041   5.682
 2993POPC   C1A40839   8.129  19.773   6.080
 2993POPC   D2A40840   7.936  19.642   6.505
 2993POPC   C3A40841   8.080  19.792   6.881
 2993POPC   C4A40842   7.947  19.904   7.302
 2993POPC   C1B40843   8.484  20.137   6.083
 2993POPC   C2B40844   8.352  20.074   6.496
 2993POPC   C3B40845   8.516  20.068   6.919
 2993POPC   C4B40846   8.614  20.260   7.323
 2994POPC   NC340847  14.986  26.227   5.324
 2994POPC   PO440848  15.693  26.038   5.253
 2994POPC   GL140849  15.408  26.126   5.656
 2994POPC   GL240850  15.136  26.364   5.793
 2994POPC   C1A40851  15.201  25.932   6.050
 2994POPC   D2A40852  15.284  25.693   6.446
 2994POPC   C3A40853  15.074  25.752   6.865
 2994POPC   C4A40854  14.942  25.837   7.292
 2994POPC   C1B40855  15.202  26.415   6.216
 2994POPC   C2B40856  15.136  26.179   6.554
 2994POPC   C3B40857  15.146  26.248   6.976
 2994POPC   C4B40858  15.224  26.451   7.326
 2995POPC   NC340859  13.670  33.203   5.304
 2995POPC   PO440860  14.164  32.781   5.224
 2995POPC   GL140861  14.039  32.914   5.694
 2995POPC   GL240862  13.726  33.115   5.798
 2995POPC   C1A40863  13.939  32.833   6.165
 2995POPC   D2A40864  13.851  33.062   6.588
 2995POPC   C3A40865  13.638  32.980   6.979
 2995POPC   C4A40866  13.361  33.262   7.169
 2995POPC   C1B40867  13.909  33.362   6.159
 2995POPC   C2B40868  13.816  33.567   6.594
 2995POPC   C3B40869  13.854  33.469   7.048
 2995POPC   C4B40870  14.114  33.139   7.212
 2996POPC   NC340871  22.332  20.196   5.624
 2996POPC   PO440872  21.808  20.454   5.345
 2996POPC   GL140873  21.938  20.498   5.794
 2996POPC   GL240874  21.845  20.804   5.895
 2996POPC   C1A40875  22.030  20.517   6.281
 2996POPC   D2A40876  22.236  20.437   6.716
 2996POPC   C3A40877  22.160  20.650   7.151
 2996POPC   C4A40878  22.227  20.450   7.591
 2996POPC   C1B40879  21.717  20.929   6.306
 2996POPC   C2B40880  21.835  20.774   6.704
 2996POPC   C3B40881  21.662  20.738   7.085
 2996POPC   C4B40882  21.832  20.941   7.456
 2997POPC   NC340883  16.492  12.503   5.412
 2997POPC   PO440884  17.176  12.565   5.336
 2997POPC   GL140885  16.892  12.683   5.703
 2997POPC   GL240886  16.670  13.015   5.737
 2997POPC   C1A40887  16.847  12.691   6.141
 2997POPC   D2A40888  17.023  12.909   6.462
 2997POPC   C3A40889  16.775  12.859   6.809
 2997POPC   C4A40890  16.733  12.578   7.137
 2997POPC   C1B40891  16.445  13.313   6.054
 2997POPC   C2B40892  16.341  13.297   6.501
 2997POPC   C3B40893  16.439  13.253   6.928
 2997POPC   C4B40894  16.626  13.080   7.255
 2998POPC   NC340895  44.902  41.029   5.341
 2998POPC   PO440896   0.117  40.504   5.582
 2998POPC   GL140897  44.846  40.793   5.798
 2998POPC   GL240898  44.523  40.902   5.679
 2998POPC   C1A40899  44.828  40.948   6.181
 2998POPC   D2A40900  44.776  40.706   6.528
 2998POPC   C3A40901  44.790  40.962   6.856
 2998POPC   C4A40902  44.928  40.766   7.164
 2998POPC   C1B40903  44.321  40.853   6.084
 2998POPC   C2B40904  44.346  40.969   6.521
 2998POPC   C3B40905  44.348  40.751   6.931
 2998POPC   C4B40906  44.436  41.023   7.248
 2999POPC   NC340907  23.219  40.648   5.542
 2999POPC   PO440908  23.788  40.832   5.270
 2999POPC   GL140909  23.652  40.903   5.694
 2999POPC   GL240910  23.432  41.205   5.632
 2999POPC   C1A40911  23.565  40.638   6.098
 2999POPC   D2A40912  23.617  40.388   6.492
 2999POPC   C3A40913  23.452  40.523   6.892
 2999POPC   C4A40914  23.672  40.658   7.255
 2999POPC   C1B40915  23.367  41.142   6.090
 2999POPC   C2B40916  23.413  40.922   6.523
 2999POPC   C3B40917  23.677  41.015   6.890
 2999POPC   C4B40918  23.550  41.320   7.215
 3000POPC   NC340919   7.476   3.815   5.341
 3000POPC   PO440920   7.194   3.144   5.369
 3000POPC   GL140921   7.369   3.429   5.662
 3000POPC   GL240922   7.147   3.740   5.717
 3000POPC   C1A40923   7.524   3.321   6.047
 3000POPC   D2A40924   7.408   3.188   6.481
 3000POPC   C3A40925   7.548   3.491   6.794
 3000POPC   C4A40926   7.466   3.598   7.200
 3000POPC   C1B40927   7.446   3.844   6.035
 3000POPC   C2B40928   7.444   3.873   6.477
 3000POPC   C3B40929   7.497   4.031   6.920
 3000POPC   C4B40930   7.767   4.010   7.309
 3001POPC   NC340931  31.665  30.351   5.498
 3001POPC   PO440932  32.282  30.546   5.236
 3001POPC   GL140933  32.244  30.628   5.662
 3001POPC   GL240934  32.505  30.860   5.753
 3001POPC   C1A40935  32.142  30.673   6.096
 3001POPC   D2A40936  32.084  30.851   6.505
 3001POPC   C3A40937  32.224  30.692   6.914
 3001POPC   C4A40938  31.949  30.522   7.236
 3001POPC   C1B40939  32.490  31.062   6.171
 3001POPC   C2B40940  32.476  31.145   6.627
 3001POPC   C3B40941  32.672  30.942   6.990
 3001POPC   C4B40942  32.596  30.813   7.428
 3002POPC   NC340943  21.535  12.849   5.487
 3002POPC   PO440944  22.155  13.044   5.476
 3002POPC   GL140945  21.876  13.090   5.817
 3002POPC   GL240946  21.911  12.742   5.913
 3002POPC   C1A40947  21.890  13.122   6.274
 3002POPC   D2A40948  22.144  12.873   6.564
 3002POPC   C3A40949  22.038  12.775   6.965
 3002POPC   C4A40950  22.073  13.060   7.287
 3002POPC   C1B40951  22.268  12.594   6.164
 3002POPC   C2B40952  22.592  12.562   6.523
 3002POPC   C3B40953  22.575  12.643   6.986
 3002POPC   C4B40954  22.337  12.647   7.368
 3003POPC   NC340955  34.443  20.047   5.393
 3003POPC   PO440956  34.820  19.459   5.360
 3003POPC   GL140957  34.604  19.659   5.747
 3003POPC   GL240958  34.484  19.964   5.894
 3003POPC   C1A40959  34.403  19.582   6.197
 3003POPC   D2A40960  34.525  19.669   6.624
 3003POPC   C3A40961  34.853  19.515   6.849
 3003POPC   C4A40962  34.919  19.541   7.278
 3003POPC   C1B40963  34.478  20.108   6.332
 3003POPC   C2B40964  34.597  20.177   6.778
 3003POPC   C3B40965  34.537  19.907   7.142
 3003POPC   C4B40966  34.347  20.055   7.533
 3004POPC   NC340967  35.418  17.522   5.384
 3004POPC   PO440968  35.221  16.988   5.441
 3004POPC   GL140969  35.255  17.348   5.836
 3004POPC   GL240970  35.490  17.658   5.870
 3004POPC   C1A40971  35.119  17.645   6.225
 3004POPC   D2A40972  35.240  17.836   6.638
 3004POPC   C3A40973  35.162  17.656   7.038
 3004POPC   C4A40974  35.405  17.787   7.395
 3004POPC   C1B40975  35.544  17.384   6.260
 3004POPC   C2B40976  35.364  17.329   6.677
 3004POPC   C3B40977  35.468  17.265   7.117
 3004POPC   C4B40978  35.462  16.920   7.414
 3005POPC   NC340979  37.066  31.285   5.357
 3005POPC   PO440980  37.299  31.884   5.250
 3005POPC   GL140981  37.214  31.646   5.706
 3005POPC   GL240982  37.157  31.286   5.871
 3005POPC   C1A40983  37.020  31.715   6.145
 3005POPC   D2A40984  36.890  31.470   6.551
 3005POPC   C3A40985  36.832  31.527   7.057
 3005POPC   C4A40986  36.862  31.721   7.503
 3005POPC   C1B40987  36.735  31.197   6.077
 3005POPC   C2B40988  36.532  31.118   6.472
 3005POPC   C3B40989  36.804  31.056   6.853
 3005POPC   C4B40990  36.805  31.072   7.304
 3006POPC   NC340991  42.854  35.738   5.138
 3006POPC   PO440992  43.395  35.392   5.416
 3006POPC   GL140993  43.254  35.586   5.747
 3006POPC   GL240994  42.929  35.448   5.747
 3006POPC   C1A40995  43.220  35.478   6.184
 3006POPC   D2A40996  43.311  35.223   6.537
 3006POPC   C3A40997  43.462  35.454   6.911
 3006POPC   C4A40998  43.415  35.451   7.375
 3006POPC   C1B40999  42.784  35.166   6.119
 3006POPC   C2B41000  42.801  35.038   6.575
 3006POPC   C3B41001  43.058  35.137   6.991
 3006POPC   C4B41002  42.979  35.069   7.458
 3007POPC   NC341003   3.481  37.536   5.564
 3007POPC   PO441004   4.037  37.602   5.201
 3007POPC   GL141005   3.961  37.587   5.697
 3007POPC   GL241006   3.927  37.917   5.847
 3007POPC   C1A41007   3.765  37.439   6.135
 3007POPC   D2A41008   3.421  37.411   6.477
 3007POPC   C3A41009   3.370  37.645   6.880
 3007POPC   C4A41010   3.357  37.467   7.312
 3007POPC   C1B41011   3.815  37.928   6.304
 3007POPC   C2B41012   3.878  37.617   6.661
 3007POPC   C3B41013   3.827  37.636   7.119
 3007POPC   C4B41014   3.894  38.013   7.362
 3008POPC   NC341015  43.689  15.143   5.204
 3008POPC   PO441016  44.303  15.205   5.470
 3008POPC   GL141017  44.173  15.349   5.844
 3008POPC   GL241018  43.859  15.159   5.785
 3008POPC   C1A41019  44.297  15.358   6.294
 3008POPC   D2A41020  44.053  15.465   6.648
 3008POPC   C3A41021  44.012  15.223   7.000
 3008POPC   C4A41022  43.872  15.514   7.254
 3008POPC   C1B41023  43.798  15.325   6.200
 3008POPC   C2B41024  43.651  15.164   6.585
 3008POPC   C3B41025  43.501  15.266   6.953
 3008POPC   C4B41026  43.549  15.101   7.323
 3009POPC   NC341027   0.264   6.861   5.449
 3009POPC   PO441028   0.705   6.470   5.500
 3009POPC   GL141029   0.380   6.506   5.813
 3009POPC   GL241030   0.562   6.778   5.936
 3009POPC   C1A41031   0.088   6.335   6.147
 3009POPC   D2A41032   0.230   6.236   6.606
 3009POPC   C3A41033   0.079   6.433   7.017
 3009POPC   C4A41034   0.167   6.789   7.340
 3009POPC   C1B41035   0.435   6.653   6.347
 3009POPC   C2B41036   0.361   6.756   6.752
 3009POPC   C3B41037   0.613   6.713   7.095
 3009POPC   C4B41038   0.977   6.593   7.306
 3010POPC   NC341039  19.178  10.136   5.167
 3010POPC   PO441040  19.609  10.570   5.512
 3010POPC   GL141041  19.816  10.406   5.815
 3010POPC   GL241042  20.082  10.621   5.844
 3010POPC   C1A41043  19.765  10.490   6.230
 3010POPC   D2A41044  19.866  10.284   6.584
 3010POPC   C3A41045  19.884  10.639   6.816
 3010POPC   C4A41046  19.789  10.637   7.233
 3010POPC   C1B41047  20.212  10.248   6.130
 3010POPC   C2B41048  20.361  10.341   6.566
 3010POPC   C3B41049  20.204  10.318   7.013
 3010POPC   C4B41050  20.293  10.427   7.424
 3011POPC   NC341051   9.486  27.007   5.440
 3011POPC   PO441052   9.911  26.507   5.320
 3011POPC   GL141053   9.832  26.694   5.756
 3011POPC   GL241054  10.082  26.930   5.855
 3011POPC   C1A41055   9.693  26.850   6.204
 3011POPC   D2A41056   9.662  26.668   6.669
 3011POPC   C3A41057   9.645  26.904   7.110
 3011POPC   C4A41058   9.633  27.026   7.589
 3011POPC   C1B41059  10.167  26.667   6.212
 3011POPC   C2B41060  10.183  26.674   6.652
 3011POPC   C3B41061  10.003  26.538   7.047
 3011POPC   C4B41062   9.946  26.613   7.471
 3012POPC   NC341063  28.174   0.256   5.436
 3012POPC   PO441064  27.534   0.520   5.428
 3012POPC   GL141065  27.688   0.326   5.805
 3012POPC   GL241066  27.986   0.539   5.841
 3012POPC   C1A41067  27.468   0.239   6.249
 3012POPC   D2A41068  27.344   0.436   6.684
 3012POPC   C3A41069  27.365   0.264   7.124
 3012POPC   C4A41070  27.392   0.536   7.468
 3012POPC   C1B41071  27.986   0.256   6.212
 3012POPC   C2B41072  27.801   0.205   6.636
 3012POPC   C3B41073  27.867   0.362   7.045
 3012POPC   C4B41074  27.809   0.220   7.456
 3013POPC   NC341075  33.654  37.462   5.435
 3013POPC   PO441076  33.279  36.838   5.327
 3013POPC   GL141077  33.177  36.892   5.760
 3013POPC   GL241078  32.870  37.111   5.752
 3013POPC   C1A41079  33.268  36.921   6.198
 3013POPC   D2A41080  33.074  36.989   6.557
 3013POPC   C3A41081  33.288  37.154   6.891
 3013POPC   C4A41082  33.319  37.317   7.293
 3013POPC   C1B41083  32.747  36.894   6.134
 3013POPC   C2B41084  32.552  36.963   6.544
 3013POPC   C3B41085  32.746  37.111   6.916
 3013POPC   C4B41086  32.979  36.887   7.200
 3014POPC   NC341087  15.285   1.662   5.441
 3014POPC   PO441088  15.027   1.170   5.371
 3014POPC   GL141089  15.300   1.215   5.773
 3014POPC   GL241090  15.456   0.896   5.861
 3014POPC   C1A41091  15.473   1.306   6.205
 3014POPC   D2A41092  15.249   1.373   6.629
 3014POPC   C3A41093  15.308   1.252   7.066
 3014POPC   C4A41094  15.515   1.262   7.435
 3014POPC   C1B41095  15.303   0.838   6.325
 3014POPC   C2B41096  15.196   0.842   6.794
 3014POPC   C3B41097  14.869   0.999   7.119
 3014POPC   C4B41098  14.658   1.013   7.548
 3015POPC   NC341099  24.352  26.685   5.433
 3015POPC   PO441100  24.590  27.249   5.466
 3015POPC   GL141101  24.737  26.962   5.768
 3015POPC   GL241102  24.440  26.904   5.954
 3015POPC   C1A41103  24.903  26.941   6.209
 3015POPC   D2A41104  24.737  27.000   6.644
 3015POPC   C3A41105  24.667  26.662   6.975
 3015POPC   C4A41106  24.432  26.330   7.245
 3015POPC   C1B41107  24.501  27.306   6.205
 3015POPC   C2B41108  24.428  27.449   6.641
 3015POPC   C3B41109  24.368  27.139   6.984
 3015POPC   C4B41110  24.229  26.813   7.249
 3016POPC   NC341111  20.015   5.666   5.062
 3016POPC   PO441112  19.416   5.432   5.356
 3016POPC   GL141113  19.633   5.722   5.661
 3016POPC   GL241114  19.607   6.110   5.623
 3016POPC   C1A41115  19.868   5.809   6.066
 3016POPC   D2A41116  19.974   5.675   6.504
 3016POPC   C3A41117  20.025   5.943   6.845
 3016POPC   C4A41118  19.810   5.736   7.156
 3016POPC   C1B41119  19.499   6.162   6.087
 3016POPC   C2B41120  19.705   6.125   6.483
 3016POPC   C3B41121  19.548   6.096   6.904
 3016POPC   C4B41122  19.362   6.212   7.306
 3017POPC   NC341123  29.771  43.577   5.110
 3017POPC   PO441124  29.997  44.024   5.554
 3017POPC   GL141125  29.942  43.670   5.832
 3017POPC   GL241126  29.661  43.426   5.688
 3017POPC   C1A41127  29.953  43.889   6.255
 3017POPC   D2A41128  30.244  44.175   6.528
 3017POPC   C3A41129  30.164  44.097   6.946
 3017POPC   C4A41130  29.951  43.756   7.147
 3017POPC   C1B41131  29.557  43.553   6.151
 3017POPC   C2B41132  29.630  43.657   6.604
 3017POPC   C3B41133  29.616  43.379   6.944
 3017POPC   C4B41134  29.405  43.319   7.301
 3018POPC   NC341135  36.999  30.317   5.375
 3018POPC   PO441136  36.772  30.970   5.198
 3018POPC   GL141137  36.866  30.829   5.687
 3018POPC   GL241138  36.763  30.480   5.811
 3018POPC   C1A41139  37.022  30.736   6.169
 3018POPC   D2A41140  37.172  30.740   6.620
 3018POPC   C3A41141  36.940  30.574   6.962
 3018POPC   C4A41142  36.945  30.560   7.389
 3018POPC   C1B41143  36.522  30.632   6.215
 3018POPC   C2B41144  36.509  30.660   6.686
 3018POPC   C3B41145  36.487  30.727   7.138
 3018POPC   C4B41146  36.515  30.780   7.600
 3019POPC   NC341147  20.069  26.691   5.383
 3019POPC   PO441148  19.466  26.924   5.462
 3019POPC   GL141149  19.822  26.896   5.775
 3019POPC   GL241150  19.928  26.530   5.852
 3019POPC   C1A41151  19.875  27.002   6.219
 3019POPC   D2A41152  19.514  26.853   6.510
 3019POPC   C3A41153  19.521  26.937   6.943
 3019POPC   C4A41154  19.924  27.052   7.078
 3019POPC   C1B41155  19.818  26.507   6.285
 3019POPC   C2B41156  19.996  26.714   6.655
 3019POPC   C3B41157  20.129  26.595   7.045
 3019POPC   C4B41158  19.704  26.487   7.151
 3020POPC   NC341159  40.541  31.768   5.383
 3020POPC   PO441160  40.813  31.146   5.477
 3020POPC   GL141161  40.771  31.358   5.861
 3020POPC   GL241162  40.622  31.701   5.884
 3020POPC   C1A41163  40.854  31.224   6.290
 3020POPC   D2A41164  40.690  31.154   6.698
 3020POPC   C3A41165  40.986  31.207   7.008
 3020POPC   C4A41166  41.021  31.218   7.470
 3020POPC   C1B41167  40.976  31.712   6.187
 3020POPC   C2B41168  40.771  31.659   6.588
 3020POPC   C3B41169  40.692  31.618   7.027
 3020POPC   C4B41170  41.083  31.685   7.295
 3021POPC   NC341171  14.943  31.653   5.506
 3021POPC   PO441172  15.627  31.304   5.437
 3021POPC   GL141173  15.348  31.403   5.787
 3021POPC   GL241174  15.115  31.174   5.650
 3021POPC   C1A41175  15.131  31.604   6.175
 3021POPC   D2A41176  15.194  31.519   6.616
 3021POPC   C3A41177  15.051  31.666   7.043
 3021POPC   C4A41178  15.185  31.808   7.465
 3021POPC   C1B41179  14.965  31.137   6.063
 3021POPC   C2B41180  14.962  31.062   6.530
 3021POPC   C3B41181  15.096  31.162   6.957
 3021POPC   C4B41182  14.920  31.238   7.333
 3022POPC   NC341183  34.550  18.010   5.294
 3022POPC   PO441184  34.947  18.565   5.362
 3022POPC   GL141185  34.714  18.368   5.780
 3022POPC   GL241186  34.360  18.280   5.739
 3022POPC   C1A41187  34.511  18.338   6.249
 3022POPC   D2A41188  34.526  18.336   6.732
 3022POPC   C3A41189  34.663  18.668   7.028
 3022POPC   C4A41190  34.908  18.691   7.467
 3022POPC   C1B41191  34.236  17.938   6.028
 3022POPC   C2B41192  34.292  17.866   6.461
 3022POPC   C3B41193  34.224  17.969   6.914
 3022POPC   C4B41194  34.257  18.350   7.189
 3023POPC   NC341195   8.690  19.874   5.278
 3023POPC   PO441196   9.378  20.068   5.357
 3023POPC   GL141197   9.182  19.944   5.753
 3023POPC   GL241198   8.850  19.815   5.748
 3023POPC   C1A41199   9.137  19.701   6.154
 3023POPC   D2A41200   8.897  19.846   6.508
 3023POPC   C3A41201   8.845  19.655   6.874
 3023POPC   C4A41202   8.932  19.890   7.203
 3023POPC   C1B41203   8.623  19.635   6.081
 3023POPC   C2B41204   8.471  19.584   6.498
 3023POPC   C3B41205   8.391  19.409   6.891
 3023POPC   C4B41206   8.443  19.677   7.257
 3024POPC   NC341207  19.856  24.115   5.443
 3024POPC   PO441208  20.095  24.687   5.181
 3024POPC   GL141209  19.946  24.666   5.644
 3024POPC   GL241210  19.601  24.751   5.767
 3024POPC   C1A41211  19.993  24.679   6.106
 3024POPC   D2A41212  19.973  24.383   6.452
 3024POPC   C3A41213  19.973  24.511   6.887
 3024POPC   C4A41214  20.208  24.739   7.259
 3024POPC   C1B41215  19.488  24.536   6.193
 3024POPC   C2B41216  19.499  24.354   6.662
 3024POPC   C3B41217  19.535  24.385   7.131
 3024POPC   C4B41218  19.576  24.282   7.591
 3025POPC   NC341219  21.842   6.577   5.175
 3025POPC   PO441220  22.381   6.026   5.381
 3025POPC   GL141221  22.278   5.916   5.824
 3025POPC   GL241222  22.068   6.157   5.867
 3025POPC   C1A41223  22.051   5.755   6.193
 3025POPC   D2A41224  21.982   5.928   6.597
 3025POPC   C3A41225  22.212   5.906   6.963
 3025POPC   C4A41226  22.080   6.098   7.330
 3025POPC   C1B41227  21.800   6.217   6.212
 3025POPC   C2B41228  21.672   6.337   6.626
 3025POPC   C3B41229  21.670   6.027   7.000
 3025POPC   C4B41230  21.836   5.637   7.181
 3026POPC   NC341231  21.789  40.217   5.343
 3026POPC   PO441232  22.024  40.869   5.107
 3026POPC   GL141233  21.922  40.677   5.586
 3026POPC   GL241234  22.232  40.751   5.877
 3026POPC   C1A41235  21.816  40.471   5.992
 3026POPC   D2A41236  21.819  40.506   6.456
 3026POPC   C3A41237  22.071  40.716   6.783
 3026POPC   C4A41238  22.101  40.541   7.200
 3026POPC   C1B41239  22.515  40.996   6.210
 3026POPC   C2B41240  22.467  41.061   6.697
 3026POPC   C3B41241  22.362  41.001   7.154
 3026POPC   C4B41242  22.357  40.791   7.589
 3027POPC   NC341243   6.803  13.807   5.557
 3027POPC   PO441244   6.194  13.775   5.470
 3027POPC   GL141245   6.383  13.697   5.868
 3027POPC   GL241246   6.643  13.424   5.896
 3027POPC   C1A41247   6.661  13.802   6.224
 3027POPC   D2A41248   6.820  13.591   6.580
 3027POPC   C3A41249   6.567  13.745   6.904
 3027POPC   C4A41250   6.392  13.497   7.238
 3027POPC   C1B41251   6.927  13.232   6.191
 3027POPC   C2B41252   7.105  13.134   6.585
 3027POPC   C3B41253   7.029  13.067   7.006
 3027POPC   C4B41254   6.721  13.086   7.351
 3028POPC   NC341255  38.090  32.342   5.434
 3028POPC   PO441256  37.412  32.439   5.452
 3028POPC   GL141257  37.676  32.308   5.747
 3028POPC   GL241258  37.570  32.013   5.723
 3028POPC   C1A41259  37.762  32.361   6.185
 3028POPC   D2A41260  37.653  32.259   6.590
 3028POPC   C3A41261  37.783  32.332   7.005
 3028POPC   C4A41262  37.520  32.479   7.388
 3028POPC   C1B41263  37.530  31.813   6.095
 3028POPC   C2B41264  37.385  31.744   6.492
 3028POPC   C3B41265  37.136  31.825   6.809
 3028POPC   C4B41266  37.251  31.798   7.208
 3029POPC   NC341267   5.166  16.228   5.517
 3029POPC   PO441268   5.656  15.741   5.343
 3029POPC   GL141269   5.295  15.750   5.749
 3029POPC   GL241270   5.270  16.037   5.950
 3029POPC   C1A41271   4.963  15.716   6.172
 3029POPC   D2A41272   4.755  15.626   6.599
 3029POPC   C3A41273   4.811  15.889   6.978
 3029POPC   C4A41274   5.175  15.940   7.223
 3029POPC   C1B41275   5.354  16.165   6.323
 3029POPC   C2B41276   5.218  16.164   6.732
 3029POPC   C3B41277   5.396  16.358   7.067
 3029POPC   C4B41278   5.445  16.244   7.547
 3030POPC   NC341279  30.786  21.755   5.049
 3030POPC   PO441280  31.000  22.360   5.325
 3030POPC   GL141281  30.706  22.307   5.746
 3030POPC   GL241282  30.563  21.975   5.873
 3030POPC   C1A41283  30.660  22.350   6.206
 3030POPC   D2A41284  30.605  22.390   6.649
 3030POPC   C3A41285  30.783  22.133   6.920
 3030POPC   C4A41286  30.997  22.255   7.280
 3030POPC   C1B41287  30.597  21.784   6.213
 3030POPC   C2B41288  30.406  21.936   6.538
 3030POPC   C3B41289  30.310  21.842   6.929
 3030POPC   C4B41290  30.532  21.867   7.278
 3031POPC   NC341291  32.862  37.471   5.370
 3031POPC   PO441292  33.453  37.787   5.189
 3031POPC   GL141293  33.298  37.766   5.681
 3031POPC   GL241294  33.286  37.423   5.799
 3031POPC   C1A41295  33.069  37.890   6.128
 3031POPC   D2A41296  32.903  38.064   6.553
 3031POPC   C3A41297  33.171  38.124   6.934
 3031POPC   C4A41298  33.205  37.884   7.331
 3031POPC   C1B41299  33.021  37.374   6.166
 3031POPC   C2B41300  33.044  37.546   6.564
 3031POPC   C3B41301  32.988  37.568   6.992
 3031POPC   C4B41302  32.815  37.364   7.357
 3032POPC   NC341303  17.624   1.702   5.523
 3032POPC   PO441304  17.542   1.107   5.272
 3032POPC   GL141305  17.607   1.060   5.729
 3032POPC   GL241306  17.266   1.160   5.787
 3032POPC   C1A41307  17.573   1.280   6.168
 3032POPC   D2A41308  17.268   1.228   6.500
 3032POPC   C3A41309  17.387   1.443   6.878
 3032POPC   C4A41310  17.530   1.297   7.283
 3032POPC   C1B41311  17.314   0.834   6.103
 3032POPC   C2B41312  17.572   0.822   6.437
 3032POPC   C3B41313  17.495   0.926   6.877
 3032POPC   C4B41314  17.402   0.809   7.288
 3033POPC   NC341315   6.511  44.791   5.494
 3033POPC   PO441316   7.120  44.470   5.497
 3033POPC   GL141317   6.854  44.693   5.874
 3033POPC   GL241318   6.477  44.806   5.995
 3033POPC   C1A41319   6.855  44.769   6.339
 3033POPC   D2A41320   7.038  44.892   6.735
 3033POPC   C3A41321   6.864  44.770   7.128
 3033POPC   C4A41322   6.711  44.854   7.538
 3033POPC   C1B41323   6.380  44.564   6.354
 3033POPC   C2B41324   6.524  44.648   6.746
 3033POPC   C3B41325   6.350  44.904   7.047
 3033POPC   C4B41326   6.214  44.904   7.439
 3034POPC   NC341327  12.592  14.407   5.168
 3034POPC   PO441328  13.131  14.219   5.573
 3034POPC   GL141329  13.018  14.589   5.785
 3034POPC   GL241330  12.697  14.488   5.790
 3034POPC   C1A41331  12.920  14.748   6.202
 3034POPC   D2A41332  12.799  14.583   6.611
 3034POPC   C3A41333  12.957  14.716   7.006
 3034POPC   C4A41334  13.052  14.536   7.426
 3034POPC   C1B41335  12.875  14.224   6.181
 3034POPC   C2B41336  12.729  14.075   6.606
 3034POPC   C3B41337  12.781  14.186   7.073
 3034POPC   C4B41338  12.561  13.969   7.448
 3035POPC   NC341339  25.585  32.284   5.317
 3035POPC   PO441340  26.235  32.041   5.245
 3035POPC   GL141341  26.145  32.231   5.671
 3035POPC   GL241342  26.133  31.928   5.852
 3035POPC   C1A41343  25.927  32.334   6.095
 3035POPC   D2A41344  25.834  32.591   6.480
 3035POPC   C3A41345  25.979  32.529   6.926
 3035POPC   C4A41346  25.960  32.752   7.358
 3035POPC   C1B41347  26.240  31.797   6.273
 3035POPC   C2B41348  26.365  31.863   6.705
 3035POPC   C3B41349  26.229  32.090   7.067
 3035POPC   C4B41350  25.951  32.235   7.397
 3036POPC   NC341351  34.904  16.098   5.227
 3036POPC   PO441352  34.434  15.644   5.558
 3036POPC   GL141353  34.715  15.833   5.814
 3036POPC   GL241354  34.684  16.198   5.789
 3036POPC   C1A41355  34.601  15.884   6.237
 3036POPC   D2A41356  34.397  15.758   6.597
 3036POPC   C3A41357  34.712  15.808   6.927
 3036POPC   C4A41358  34.760  16.126   7.237
 3036POPC   C1B41359  34.592  16.395   6.211
 3036POPC   C2B41360  34.599  16.235   6.638
 3036POPC   C3B41361  34.307  16.133   6.953
 3036POPC   C4B41362  34.252  15.978   7.358
 3037POPC   NC341363  21.593  43.481   5.072
 3037POPC   PO441364  21.156  43.929   5.395
 3037POPC   GL141365  21.167  43.765   5.831
 3037POPC   GL241366  21.490  43.923   5.963
 3037POPC   C1A41367  21.011  43.816   6.268
 3037POPC   D2A41368  21.301  43.791   6.583
 3037POPC   C3A41369  21.201  43.651   6.981
 3037POPC   C4A41370  21.529  43.644   7.285
 3037POPC   C1B41371  21.270  44.239   6.239
 3037POPC   C2B41372  21.151  44.258   6.686
 3037POPC   C3B41373  21.067  44.177   7.162
 3037POPC   C4B41374  21.196  44.204   7.617
 3038POPC   NC341375   8.434   1.467   5.347
 3038POPC   PO441376   9.031   1.318   5.307
 3038POPC   GL141377   8.837   1.325   5.753
 3038POPC   GL241378   9.045   1.070   5.894
 3038POPC   C1A41379   8.793   1.386   6.259
 3038POPC   D2A41380   8.589   1.422   6.716
 3038POPC   C3A41381   8.865   1.476   7.112
 3038POPC   C4A41382   8.822   1.327   7.553
 3038POPC   C1B41383   9.168   1.031   6.347
 3038POPC   C2B41384   9.074   1.106   6.809
 3038POPC   C3B41385   8.803   0.967   7.165
 3038POPC   C4B41386   8.899   0.802   7.573
 3039POPC   NC341387  22.163  24.214   5.224
 3039POPC   PO441388  21.993  24.907   5.373
 3039POPC   GL141389  22.067  24.736   5.819
 3039POPC   GL241390  22.151  24.388   5.780
 3039POPC   C1A41391  22.149  24.679   6.302
 3039POPC   D2A41392  22.404  24.468   6.652
 3039POPC   C3A41393  22.276  24.380   7.059
 3039POPC   C4A41394  22.003  24.598   7.281
 3039POPC   C1B41395  21.915  24.255   6.180
 3039POPC   C2B41396  21.866  24.381   6.627
 3039POPC   C3B41397  21.803  24.177   7.044
 3039POPC   C4B41398  21.858  24.146   7.496
 3040POPC   NC341399  42.619  20.133   5.244
 3040POPC   PO441400  42.622  19.458   5.420
 3040POPC   GL141401  42.388  19.737   5.738
 3040POPC   GL241402  42.410  20.089   5.727
 3040POPC   C1A41403  42.369  19.702   6.167
 3040POPC   D2A41404  42.211  19.503   6.508
 3040POPC   C3A41405  42.348  19.658   6.867
 3040POPC   C4A41406  42.253  19.696   7.267
 3040POPC   C1B41407  42.260  20.201   6.173
 3040POPC   C2B41408  42.201  20.118   6.601
 3040POPC   C3B41409  42.231  20.152   7.032
 3040POPC   C4B41410  42.060  20.123   7.472
 3041POPC   NC341411  22.547  17.656   5.707
 3041POPC   PO441412  23.151  17.393   5.462
 3041POPC   GL141413  23.065  17.583   5.855
 3041POPC   GL241414  22.856  17.301   5.905
 3041POPC   C1A41415  23.086  17.504   6.323
 3041POPC   D2A41416  23.281  17.407   6.750
 3041POPC   C3A41417  23.017  17.557   7.093
 3041POPC   C4A41418  22.579  17.690   7.072
 3041POPC   C1B41419  22.626  17.272   6.291
 3041POPC   C2B41420  22.758  17.326   6.713
 3041POPC   C3B41421  22.720  17.124   7.093
 3041POPC   C4B41422  22.665  17.231   7.508
 3042POPC   NC341423  42.194  24.338   5.127
 3042POPC   PO441424  42.549  24.749   5.536
 3042POPC   GL141425  42.300  24.684   5.852
 3042POPC   GL241426  42.185  24.363   5.805
 3042POPC   C1A41427  42.082  24.609   6.227
 3042POPC   D2A41428  42.287  24.500   6.577
 3042POPC   C3A41429  42.194  24.750   6.920
 3042POPC   C4A41430  42.323  24.643   7.303
 3042POPC   C1B41431  42.129  24.077   6.151
 3042POPC   C2B41432  42.203  23.947   6.574
 3042POPC   C3B41433  42.239  24.168   6.961
 3042POPC   C4B41434  41.961  24.319   7.259
 3043POPC   NC341435  30.244  14.385   5.356
 3043POPC   PO441436  29.610  14.254   5.363
 3043POPC   GL141437  29.758  14.429   5.770
 3043POPC   GL241438  30.080  14.262   5.841
 3043POPC   C1A41439  29.880  14.605   6.203
 3043POPC   D2A41440  30.167  14.480   6.568
 3043POPC   C3A41441  30.166  14.715   6.979
 3043POPC   C4A41442  29.847  14.621   7.281
 3043POPC   C1B41443  30.195  14.020   6.215
 3043POPC   C2B41444  30.146  13.942   6.673
 3043POPC   C3B41445  30.170  14.207   7.052
 3043POPC   C4B41446  29.964  14.174   7.469
 3044POPC   NC341447   9.987  15.655   5.268
 3044POPC   PO441448   9.476  16.115   5.391
 3044POPC   GL141449   9.667  16.085   5.826
 3044POPC   GL241450  10.015  16.045   5.795
 3044POPC   C1A41451   9.836  15.794   6.202
 3044POPC   D2A41452  10.107  15.885   6.577
 3044POPC   C3A41453   9.906  15.831   6.985
 3044POPC   C4A41454   9.647  16.113   7.235
 3044POPC   C1B41455  10.059  16.248   6.188
 3044POPC   C2B41456   9.781  16.315   6.525
 3044POPC   C3B41457   9.958  16.341   6.911
 3044POPC   C4B41458   9.954  16.552   7.298
 3045POPC   NC341459  20.911  13.227   5.450
 3045POPC   PO441460  21.139  12.605   5.416
 3045POPC   GL141461  21.165  12.782   5.811
 3045POPC   GL241462  21.412  12.517   5.870
 3045POPC   C1A41463  21.184  13.134   6.107
 3045POPC   D2A41464  21.411  13.249   6.501
 3045POPC   C3A41465  21.290  13.069   6.913
 3045POPC   C4A41466  21.582  13.063   7.239
 3045POPC   C1B41467  21.514  12.748   6.227
 3045POPC   C2B41468  21.629  12.788   6.638
 3045POPC   C3B41469  21.547  12.578   7.016
 3045POPC   C4B41470  21.827  12.467   7.324
 3046POPC   NC341471   2.853  32.567   5.501
 3046POPC   PO441472   3.105  31.920   5.379
 3046POPC   GL141473   2.770  32.073   5.638
 3046POPC   GL241474   3.010  32.225   5.831
 3046POPC   C1A41475   2.564  32.187   6.061
 3046POPC   D2A41476   2.648  32.342   6.471
 3046POPC   C3A41477   2.612  32.014   6.784
 3046POPC   C4A41478   2.564  32.049   7.205
 3046POPC   C1B41479   3.085  32.411   6.207
 3046POPC   C2B41480   3.108  32.165   6.589
 3046POPC   C3B41481   3.043  32.090   7.059
 3046POPC   C4B41482   2.956  32.312   7.455
 3047POPC   NC341483   3.562  32.008   5.436
 3047POPC   PO441484   3.375  32.692   5.491
 3047POPC   GL141485   3.496  32.381   5.782
 3047POPC   GL241486   3.839  32.314   5.857
 3047POPC   C1A41487   3.478  32.094   6.150
 3047POPC   D2A41488   3.567  31.878   6.515
 3047POPC   C3A41489   3.517  32.079   6.883
 3047POPC   C4A41490   3.480  32.296   7.247
 3047POPC   C1B41491   3.715  32.549   6.209
 3047POPC   C2B41492   3.509  32.479   6.551
 3047POPC   C3B41493   3.669  32.633   6.924
 3047POPC   C4B41494   3.728  32.731   7.350
 3048POPC   NC341495  44.019  32.596   5.363
 3048POPC   PO441496  44.010  31.871   5.256
 3048POPC   GL141497  43.859  32.107   5.710
 3048POPC   GL241498  44.027  32.464   5.836
 3048POPC   C1A41499  43.981  32.153   6.206
 3048POPC   D2A41500  43.960  31.991   6.641
 3048POPC   C3A41501  43.857  32.182   7.042
 3048POPC   C4A41502  44.030  32.118   7.461
 3048POPC   C1B41503  44.262  32.601   6.214
 3048POPC   C2B41504  44.264  32.454   6.685
 3048POPC   C3B41505  44.271  32.459   7.150
 3048POPC   C4B41506  43.995  32.620   7.502
 3049POPC   NC341507   9.720  12.845   5.283
 3049POPC   PO441508  10.158  13.204   5.672
 3049POPC   GL141509   9.851  12.892   5.825
 3049POPC   GL241510   9.484  12.853   5.745
 3049POPC   C1A41511   9.801  12.834   6.281
 3049POPC   D2A41512   9.950  12.745   6.711
 3049POPC   C3A41513   9.953  13.005   7.108
 3049POPC   C4A41514  10.136  12.783   7.494
 3049POPC   C1B41515   9.302  12.721   6.131
 3049POPC   C2B41516   9.415  12.529   6.533
 3049POPC   C3B41517   9.443  12.750   6.916
 3049POPC   C4B41518   9.620  12.652   7.298
 3050POPC   NC341519  12.124  17.050   5.389
 3050POPC   PO441520  11.714  17.571   5.228
 3050POPC   GL141521  12.050  17.524   5.639
 3050POPC   GL241522  12.068  17.219   5.861
 3050POPC   C1A41523  12.196  17.630   6.115
 3050POPC   D2A41524  12.264  17.385   6.507
 3050POPC   C3A41525  12.177  17.511   6.893
 3050POPC   C4A41526  12.279  17.671   7.261
 3050POPC   C1B41527  11.825  17.259   6.246
 3050POPC   C2B41528  11.621  17.246   6.650
 3050POPC   C3B41529  11.776  17.206   7.040
 3050POPC   C4B41530  11.957  17.307   7.414
 3051POPC   NC341531  42.275  34.134   5.445
 3051POPC   PO441532  42.019  34.775   5.422
 3051POPC   GL141533  42.356  34.607   5.723
 3051POPC   GL241534  42.646  34.361   5.705
 3051POPC   C1A41535  42.476  34.696   6.182
 3051POPC   D2A41536  42.277  34.896   6.553
 3051POPC   C3A41537  42.387  34.791   6.989
 3051POPC   C4A41538  42.315  34.438   7.230
 3051POPC   C1B41539  42.884  34.410   6.063
 3051POPC   C2B41540  42.824  34.419   6.484
 3051POPC   C3B41541  42.582  34.268   6.837
 3051POPC   C4B41542  42.723  34.117   7.233
 3052POPC   NC341543  37.888  43.433   5.558
 3052POPC   PO441544  37.770  42.823   5.474
 3052POPC   GL141545  37.699  43.081   5.902
 3052POPC   GL241546  37.573  43.417   5.943
 3052POPC   C1A41547  37.653  43.081   6.375
 3052POPC   D2A41548  37.535  42.832   6.764
 3052POPC   C3A41549  37.665  43.081   7.093
 3052POPC   C4A41550  37.561  43.237   7.501
 3052POPC   C1B41551  37.971  43.430   6.189
 3052POPC   C2B41552  37.997  43.480   6.615
 3052POPC   C3B41553  38.127  43.247   6.960
 3052POPC   C4B41554  38.065  43.204   7.399
 3053POPC   NC341555   2.824   6.496   5.380
 3053POPC   PO441556   2.376   7.023   5.418
 3053POPC   GL141557   2.614   6.779   5.767
 3053POPC   GL241558   2.616   6.370   5.820
 3053POPC   C1A41559   2.773   6.704   6.193
 3053POPC   D2A41560   2.914   7.000   6.499
 3053POPC   C3A41561   2.970   6.889   6.927
 3053POPC   C4A41562   2.801   6.939   7.320
 3053POPC   C1B41563   2.561   6.178   6.229
 3053POPC   C2B41564   2.592   6.414   6.611
 3053POPC   C3B41565   2.670   6.344   7.034
 3053POPC   C4B41566   2.550   6.509   7.411
 3054POPC   NC341567  22.277  38.038   5.305
 3054POPC   PO441568  21.790  38.445   5.442
 3054POPC   GL141569  21.976  38.713   5.791
 3054POPC   GL241570  22.312  38.531   5.915
 3054POPC   C1A41571  21.928  38.673   6.249
 3054POPC   D2A41572  22.238  38.432   6.498
 3054POPC   C3A41573  22.205  38.375   6.942
 3054POPC   C4A41574  22.065  38.120   7.293
 3054POPC   C1B41575  22.662  38.596   6.255
 3054POPC   C2B41576  22.704  38.583   6.734
 3054POPC   C3B41577  22.603  38.682   7.161
 3054POPC   C4B41578  22.477  38.435   7.503
 3055POPC   NC341579  18.543  11.484   5.485
 3055POPC   PO441580  18.036  10.969   5.311
 3055POPC   GL141581  18.039  10.850   5.747
 3055POPC   GL241582  18.224  11.173   5.774
 3055POPC   C1A41583  17.915  11.017   6.175
 3055POPC   D2A41584  17.927  11.368   6.486
 3055POPC   C3A41585  18.173  11.311   6.855
 3055POPC   C4A41586  18.052  11.080   7.219
 3055POPC   C1B41587  18.363  11.383   6.170
 3055POPC   C2B41588  18.607  11.438   6.563
 3055POPC   C3B41589  18.689  11.523   6.935
 3055POPC   C4B41590  18.502  11.326   7.281
 3056POPC   NC341591  39.672  37.171   5.372
 3056POPC   PO441592  39.108  36.759   5.559
 3056POPC   GL141593  39.260  37.034   5.863
 3056POPC   GL241594  39.569  36.905   5.816
 3056POPC   C1A41595  39.444  37.214   6.273
 3056POPC   D2A41596  39.464  37.281   6.753
 3056POPC   C3A41597  39.178  36.990   6.979
 3056POPC   C4A41598  39.196  36.803   7.406
 3056POPC   C1B41599  39.649  36.733   6.238
 3056POPC   C2B41600  39.420  36.674   6.642
 3056POPC   C3B41601  39.522  36.626   7.077
 3056POPC   C4B41602  39.693  36.992   7.344
 3057POPC   NC341603   0.742   3.604   5.491
 3057POPC   PO441604   1.342   3.891   5.566
 3057POPC   GL141605   1.154   3.687   5.873
 3057POPC   GL241606   0.847   3.805   5.956
 3057POPC   C1A41607   1.351   3.622   6.244
 3057POPC   D2A41608   1.432   3.829   6.635
 3057POPC   C3A41609   1.338   3.667   7.033
 3057POPC   C4A41610   1.547   3.563   7.372
 3057POPC   C1B41611   0.889   3.411   6.211
 3057POPC   C2B41612   1.146   3.345   6.614
 3057POPC   C3B41613   1.015   3.276   7.038
 3057POPC   C4B41614   1.145   3.296   7.504
 3058POPC   NC341615  12.115   6.112   5.566
 3058POPC   PO441616  11.642   5.783   5.260
 3058POPC   GL141617  11.899   5.666   5.685
 3058POPC   GL241618  11.699   5.658   5.982
 3058POPC   C1A41619  12.191   5.669   6.106
 3058POPC   D2A41620  12.129   5.801   6.558
 3058POPC   C3A41621  12.269   5.670   6.971
 3058POPC   C4A41622  12.363   5.945   7.337
 3058POPC   C1B41623  11.851   6.052   6.208
 3058POPC   C2B41624  11.902   6.236   6.634
 3058POPC   C3B41625  11.893   6.020   7.044
 3058POPC   C4B41626  11.746   5.575   7.029
 3059POPC   NC341627  18.336  43.027   5.518
 3059POPC   PO441628  18.661  43.502   5.206
 3059POPC   GL141629  18.562  43.457   5.708
 3059POPC   GL241630  18.228  43.268   5.942
 3059POPC   C1A41631  18.575  43.523   6.172
 3059POPC   D2A41632  18.398  43.200   6.460
 3059POPC   C3A41633  18.517  43.206   6.908
 3059POPC   C4A41634  18.640  42.839   7.163
 3059POPC   C1B41635  17.897  43.288   6.308
 3059POPC   C2B41636  17.955  43.240   6.770
 3059POPC   C3B41637  18.129  42.942   7.123
 3059POPC   C4B41638  18.117  42.828   7.599
 3060POPC   NC341639  11.813  39.455   5.438
 3060POPC   PO441640  11.232  39.166   5.258
 3060POPC   GL141641  11.143  39.138   5.726
 3060POPC   GL241642  11.400  39.389   5.834
 3060POPC   C1A41643  10.980  39.283   6.144
 3060POPC   D2A41644  11.051  39.539   6.541
 3060POPC   C3A41645  11.085  39.276   6.898
 3060POPC   C4A41646  11.298  39.243   7.287
 3060POPC   C1B41647  11.489  39.412   6.290
 3060POPC   C2B41648  11.691  39.394   6.703
 3060POPC   C3B41649  11.766  39.388   7.151
 3060POPC   C4B41650  11.778  39.725   7.462
 3061POPC   NC341651  37.516   9.792   5.345
 3061POPC   PO441652  38.072   9.898   5.466
 3061POPC   GL141653  37.795   9.658   5.765
 3061POPC   GL241654  37.592   9.364   5.650
 3061POPC   C1A41655  37.758   9.758   6.198
 3061POPC   D2A41656  37.858   9.956   6.585
 3061POPC   C3A41657  37.673   9.967   6.982
 3061POPC   C4A41658  37.744   9.715   7.358
 3061POPC   C1B41659  37.464   9.338   6.085
 3061POPC   C2B41660  37.571   9.410   6.533
 3061POPC   C3B41661  37.425   9.507   6.945
 3061POPC   C4B41662  37.261   9.789   7.218
 3062POPC   NC341663  14.442   6.072   5.244
 3062POPC   PO441664  13.959   5.589   5.415
 3062POPC   GL141665  14.218   5.681   5.810
 3062POPC   GL241666  14.575   5.773   5.719
 3062POPC   C1A41667  14.191   5.822   6.278
 3062POPC   D2A41668  13.986   5.985   6.694
 3062POPC   C3A41669  14.034   5.809   7.129
 3062POPC   C4A41670  14.394   5.595   7.229
 3062POPC   C1B41671  14.575   6.138   6.038
 3062POPC   C2B41672  14.561   6.174   6.522
 3062POPC   C3B41673  14.459   6.057   6.987
 3062POPC   C4B41674  14.714   5.947   7.386
 3063POPC   NC341675   8.858  41.007   5.397
 3063POPC   PO441676   9.189  40.414   5.433
 3063POPC   GL141677   9.033  40.672   5.773
 3063POPC   GL241678   9.281  40.931   5.701
 3063POPC   C1A41679   8.931  40.560   6.226
 3063POPC   D2A41680   8.710  40.523   6.643
 3063POPC   C3A41681   8.871  40.661   7.061
 3063POPC   C4A41682   8.940  40.708   7.515
 3063POPC   C1B41683   9.454  40.709   6.072
 3063POPC   C2B41684   9.387  40.572   6.490
 3063POPC   C3B41685   9.354  40.704   6.906
 3063POPC   C4B41686   9.409  40.874   7.333
 3064POPC   NC341687  19.746  27.308   5.387
 3064POPC   PO441688  20.001  27.900   5.418
 3064POPC   GL141689  19.730  27.674   5.778
 3064POPC   GL241690  19.535  27.322   5.828
 3064POPC   C1A41691  19.893  27.563   6.204
 3064POPC   D2A41692  20.246  27.644   6.519
 3064POPC   C3A41693  20.189  27.513   6.964
 3064POPC   C4A41694  19.981  27.786   7.269
 3064POPC   C1B41695  19.459  27.279   6.235
 3064POPC   C2B41696  19.686  27.341   6.649
 3064POPC   C3B41697  19.615  27.428   7.101
 3064POPC   C4B41698  19.375  27.290   7.458
 3065POPC   NC341699   1.355   2.543   5.485
 3065POPC   PO441700   1.034   3.204   5.391
 3065POPC   GL141701   1.146   2.945   5.763
 3065POPC   GL241702   0.986   2.576   5.826
 3065POPC   C1A41703   1.275   3.059   6.174
 3065POPC   D2A41704   1.393   2.834   6.514
 3065POPC   C3A41705   1.437   3.007   6.907
 3065POPC   C4A41706   1.224   2.858   7.267
 3065POPC   C1B41707   1.339   2.467   6.134
 3065POPC   C2B41708   1.492   2.332   6.547
 3065POPC   C3B41709   1.255   2.504   6.892
 3065POPC   C4B41710   0.980   2.334   7.169
 3066POPC   NC341711  17.758  14.040   5.404
 3066POPC   PO441712  17.370  13.440   5.343
 3066POPC   GL141713  17.517  13.432   5.763
 3066POPC   GL241714  17.481  13.793   5.783
 3066POPC   C1A41715  17.697  13.546   6.186
 3066POPC   D2A41716  17.815  13.752   6.567
 3066POPC   C3A41717  17.618  13.606   6.918
 3066POPC   C4A41718  17.410  13.508   7.285
 3066POPC   C1B41719  17.434  14.003   6.169
 3066POPC   C2B41720  17.460  14.141   6.584
 3066POPC   C3B41721  17.305  14.001   6.988
 3066POPC   C4B41722  17.385  14.197   7.373
 3067POPC   NC341723   9.861   9.420   5.311
 3067POPC   PO441724  10.130   8.742   5.382
 3067POPC   GL141725   9.849   9.006   5.619
 3067POPC   GL241726  10.093   9.215   5.742
 3067POPC   C1A41727   9.626   8.948   6.026
 3067POPC   D2A41728   9.791   8.684   6.398
 3067POPC   C3A41729   9.629   8.777   6.819
 3067POPC   C4A41730   9.754   8.814   7.254
 3067POPC   C1B41731  10.101   9.066   6.175
 3067POPC   C2B41732  10.011   9.074   6.633
 3067POPC   C3B41733  10.158   9.079   7.065
 3067POPC   C4B41734  10.198   9.229   7.506
 3068POPC   NC341735  41.436   3.718   5.407
 3068POPC   PO441736  42.127   3.556   5.354
 3068POPC   GL141737  41.920   3.738   5.721
 3068POPC   GL241738  41.676   3.537   5.808
 3068POPC   C1A41739  41.840   3.866   6.153
 3068POPC   D2A41740  41.708   3.647   6.507
 3068POPC   C3A41741  41.814   3.754   6.899
 3068POPC   C4A41742  41.487   3.838   7.180
 3068POPC   C1B41743  41.443   3.415   6.134
 3068POPC   C2B41744  41.544   3.153   6.474
 3068POPC   C3B41745  41.749   3.237   6.846
 3068POPC   C4B41746  41.715   3.398   7.265
 3069POPC   NC341747  32.454  25.122   5.326
 3069POPC   PO441748  32.048  25.691   5.222
 3069POPC   GL141749  32.133  25.453   5.702
 3069POPC   GL241750  32.150  25.086   5.824
 3069POPC   C1A41751  32.157  25.481   6.188
 3069POPC   D2A41752  31.889  25.498   6.583
 3069POPC   C3A41753  32.065  25.585   7.003
 3069POPC   C4A41754  32.507  25.455   7.052
 3069POPC   C1B41755  32.203  24.960   6.321
 3069POPC   C2B41756  32.180  25.106   6.796
 3069POPC   C3B41757  32.200  25.125   7.286
 3069POPC   C4B41758  32.262  24.985   7.717
 3070POPC   NC341759   5.376  12.970   5.309
 3070POPC   PO441760   4.901  12.537   5.593
 3070POPC   GL141761   5.247  12.704   5.772
 3070POPC   GL241762   5.139  13.035   5.768
 3070POPC   C1A41763   5.184  12.787   6.202
 3070POPC   D2A41764   4.939  12.881   6.512
 3070POPC   C3A41765   5.094  12.871   6.877
 3070POPC   C4A41766   4.856  12.747   7.217
 3070POPC   C1B41767   4.830  13.168   6.099
 3070POPC   C2B41768   4.899  13.406   6.504
 3070POPC   C3B41769   4.930  13.338   6.952
 3070POPC   C4B41770   4.698  13.212   7.330
 3071POPC   NC341771  30.465  35.789   5.587
 3071POPC   PO441772  30.793  36.254   5.313
 3071POPC   GL141773  30.889  36.066   5.719
 3071POPC   GL241774  30.921  36.394   5.852
 3071POPC   C1A41775  30.754  35.994   6.191
 3071POPC   D2A41776  30.552  36.071   6.628
 3071POPC   C3A41777  30.655  35.952   7.066
 3071POPC   C4A41778  30.405  35.774   7.414
 3071POPC   C1B41779  30.499  36.432   6.003
 3071POPC   C2B41780  30.376  36.538   6.476
 3071POPC   C3B41781  30.511  36.475   6.943
 3071POPC   C4B41782  30.861  36.418   7.230
 3072POPC   NC341783  10.793  39.196   5.356
 3072POPC   PO441784  10.126  39.393   5.241
 3072POPC   GL141785  10.363  39.384   5.675
 3072POPC   GL241786  10.571  39.099   5.812
 3072POPC   C1A41787  10.465  39.457   6.153
 3072POPC   D2A41788  10.628  39.253   6.546
 3072POPC   C3A41789  10.625  39.501   6.914
 3072POPC   C4A41790  10.896  39.556   7.270
 3072POPC   C1B41791  10.334  38.963   6.221
 3072POPC   C2B41792  10.139  39.105   6.597
 3072POPC   C3B41793  10.377  39.040   6.995
 3072POPC   C4B41794  10.350  38.881   7.440
 3073POPC   NC341795  24.648   3.992   5.451
 3073POPC   PO441796  24.132   4.544   5.528
 3073POPC   GL141797  24.319   4.232   5.803
 3073POPC   GL241798  24.684   4.299   5.842
 3073POPC   C1A41799  24.384   4.157   6.232
 3073POPC   D2A41800  24.349   4.363   6.612
 3073POPC   C3A41801  24.404   4.122   6.966
 3073POPC   C4A41802  24.177   4.119   7.337
 3073POPC   C1B41803  24.750   4.527   6.210
 3073POPC   C2B41804  24.881   4.640   6.597
 3073POPC   C3B41805  24.759   4.482   6.999
 3073POPC   C4B41806  24.568   4.463   7.418
 3074POPC   NC341807  31.322  27.554   5.209
 3074POPC   PO441808  30.727  27.659   5.343
 3074POPC   GL141809  30.735  27.819   5.760
 3074POPC   GL241810  31.101  27.747   5.781
 3074POPC   C1A41811  30.721  27.670   6.193
 3074POPC   D2A41812  30.788  27.398   6.563
 3074POPC   C3A41813  30.669  27.554   6.977
 3074POPC   C4A41814  30.741  27.490   7.419
 3074POPC   C1B41815  31.211  27.885   6.197
 3074POPC   C2B41816  31.108  27.980   6.628
 3074POPC   C3B41817  30.989  28.021   7.053
 3074POPC   C4B41818  31.148  27.815   7.403
 3075POPC   NC341819   3.863  20.380   5.396
 3075POPC   PO441820   4.499  20.443   5.475
 3075POPC   GL141821   4.216  20.534   5.781
 3075POPC   GL241822   4.184  20.883   5.699
 3075POPC   C1A41823   4.036  20.578   6.190
 3075POPC   D2A41824   4.065  20.401   6.587
 3075POPC   C3A41825   4.352  20.471   6.928
 3075POPC   C4A41826   4.238  20.382   7.339
 3075POPC   C1B41827   4.397  20.935   6.102
 3075POPC   C2B41828   4.440  20.784   6.520
 3075POPC   C3B41829   4.573  20.921   6.930
 3075POPC   C4B41830   4.399  20.914   7.345
 3076POPC   NC341831  22.266   1.257   5.348
 3076POPC   PO441832  21.728   1.419   5.668
 3076POPC   GL141833  22.039   1.206   5.813
 3076POPC   GL241834  22.277   1.484   5.808
 3076POPC   C1A41835  22.131   1.031   6.194
 3076POPC   D2A41836  22.391   0.921   6.521
 3076POPC   C3A41837  22.219   1.012   6.934
 3076POPC   C4A41838  21.987   1.062   7.327
 3076POPC   C1B41839  22.080   1.551   6.204
 3076POPC   C2B41840  22.084   1.389   6.616
 3076POPC   C3B41841  22.082   1.489   7.058
 3076POPC   C4B41842  22.307   1.504   7.455
 3077POPC   NC341843  42.022  27.033   5.586
 3077POPC   PO441844  41.375  26.991   5.370
 3077POPC   GL141845  41.551  26.943   5.784
 3077POPC   GL241846  41.612  26.625   5.860
 3077POPC   C1A41847  41.613  27.094   6.217
 3077POPC   D2A41848  41.343  27.179   6.579
 3077POPC   C3A41849  41.510  27.073   6.986
 3077POPC   C4A41850  41.544  26.698   7.265
 3077POPC   C1B41851  41.811  26.607   6.239
 3077POPC   C2B41852  41.810  26.787   6.651
 3077POPC   C3B41853  41.913  26.510   6.992
 3077POPC   C4B41854  41.982  26.490   7.446
 3078POPC   NC341855  32.644  27.968   5.421
 3078POPC   PO441856  32.324  27.361   5.503
 3078POPC   GL141857  32.235  27.551   5.886
 3078POPC   GL241858  32.437  27.846   5.876
 3078POPC   C1A41859  32.093  27.404   6.291
 3078POPC   D2A41860  31.841  27.381   6.649
 3078POPC   C3A41861  32.053  27.676   6.849
 3078POPC   C4A41862  32.101  27.860   7.222
 3078POPC   C1B41863  32.527  27.721   6.314
 3078POPC   C2B41864  32.501  27.427   6.685
 3078POPC   C3B41865  32.408  27.455   7.147
 3078POPC   C4B41866  32.484  27.421   7.604
 3079POPC   NC341867  42.241  40.172   5.629
 3079POPC   PO441868  42.520  39.579   5.537
 3079POPC   GL141869  42.311  39.734   5.874
 3079POPC   GL241870  41.946  39.763   5.760
 3079POPC   C1A41871  42.337  40.022   6.238
 3079POPC   D2A41872  42.188  40.136   6.627
 3079POPC   C3A41873  42.342  39.951   6.999
 3079POPC   C4A41874  42.514  40.051   7.410
 3079POPC   C1B41875  41.929  39.634   6.188
 3079POPC   C2B41876  41.815  39.746   6.585
 3079POPC   C3B41877  41.929  39.626   6.981
 3079POPC   C4B41878  42.009  39.799   7.388
 3080POPC   NC341879   8.184   3.742   5.211
 3080POPC   PO441880   8.124   4.402   5.308
 3080POPC   GL141881   8.240   4.392   5.728
 3080POPC   GL241882   8.335   4.051   5.666
 3080POPC   C1A41883   8.082   4.226   6.137
 3080POPC   D2A41884   7.920   4.169   6.572
 3080POPC   C3A41885   8.059   4.528   6.836
 3080POPC   C4A41886   8.163   4.481   7.238
 3080POPC   C1B41887   8.581   4.130   6.046
 3080POPC   C2B41888   8.457   4.129   6.471
 3080POPC   C3B41889   8.424   4.208   6.885
 3080POPC   C4B41890   8.614   4.266   7.311
 3081POPC   NC341891   8.281  16.233   5.489
 3081POPC   PO441892   8.136  15.554   5.400
 3081POPC   GL141893   8.173  15.756   5.831
 3081POPC   GL241894   8.461  15.978   5.886
 3081POPC   C1A41895   8.255  15.752   6.300
 3081POPC   D2A41896   8.091  15.587   6.686
 3081POPC   C3A41897   8.253  15.825   7.002
 3081POPC   C4A41898   8.261  15.804   7.434
 3081POPC   C1B41899   8.154  16.220   6.152
 3081POPC   C2B41900   8.009  16.124   6.595
 3081POPC   C3B41901   7.963  16.256   7.032
 3081POPC   C4B41902   8.212  16.298   7.395
 3082POPC   NC341903  20.367  39.442   5.385
 3082POPC   PO441904  20.960  39.000   5.396
 3082POPC   GL141905  20.738  39.214   5.741
 3082POPC   GL241906  20.384  39.085   5.778
 3082POPC   C1A41907  20.755  39.149   6.206
 3082POPC   D2A41908  20.902  38.832   6.521
 3082POPC   C3A41909  20.889  38.965   6.958
 3082POPC   C4A41910  20.746  39.364   7.145
 3082POPC   C1B41911  20.247  39.080   6.224
 3082POPC   C2B41912  20.415  39.303   6.588
 3082POPC   C3B41913  20.246  39.440   6.977
 3082POPC   C4B41914  20.290  39.204   7.348
 3083POPC   NC341915  43.203  32.719   5.432
 3083POPC   PO441916  43.235  33.441   5.424
 3083POPC   GL141917  43.086  33.181   5.793
 3083POPC   GL241918  43.271  32.868   5.905
 3083POPC   C1A41919  42.838  32.983   6.139
 3083POPC   D2A41920  42.686  32.965   6.554
 3083POPC   C3A41921  42.898  32.785   6.910
 3083POPC   C4A41922  42.834  32.875   7.344
 3083POPC   C1B41923  43.254  32.692   6.323
 3083POPC   C2B41924  43.389  32.838   6.721
 3083POPC   C3B41925  43.294  33.001   7.132
 3083POPC   C4B41926  43.353  32.785   7.531
 3084POPC   NC341927  29.608  44.532   5.358
 3084POPC   PO441928  30.163  44.357   5.141
 3084POPC   GL141929  30.071  44.541   5.629
 3084POPC   GL241930  29.783  44.668   5.805
 3084POPC   C1A41931  30.081  44.391   6.094
 3084POPC   D2A41932  29.820  44.503   6.459
 3084POPC   C3A41933  29.984  44.555   6.864
 3084POPC   C4A41934  29.676  44.369   7.129
 3084POPC   C1B41935  29.949  44.886   6.153
 3084POPC   C2B41936  30.119  44.935   6.528
 3084POPC   C3B41937  30.002   0.052   6.950
 3084POPC   C4B41938  30.059  44.903   7.369
 3085POPC   NC341939  38.911  31.985   5.528
 3085POPC   PO441940  38.974  31.336   5.507
 3085POPC   GL141941  39.218  31.535   5.824
 3085POPC   GL241942  39.601  31.523   5.765
 3085POPC   C1A41943  39.210  31.399   6.254
 3085POPC   D2A41944  39.035  31.197   6.626
 3085POPC   C3A41945  39.091  31.391   7.052
 3085POPC   C4A41946  38.886  31.309   7.456
 3085POPC   C1B41947  39.708  31.284   6.142
 3085POPC   C2B41948  39.565  31.211   6.596
 3085POPC   C3B41949  39.616  31.319   7.049
 3085POPC   C4B41950  39.393  31.216   7.449
 3086POPC   NC341951   8.412  15.334   5.072
 3086POPC   PO441952   7.911  15.087   5.453
 3086POPC   GL141953   7.982  15.263   5.863
 3086POPC   GL241954   8.069  14.890   5.892
 3086POPC   C1A41955   8.288  15.261   6.231
 3086POPC   D2A41956   8.559  15.414   6.609
 3086POPC   C3A41957   8.382  15.296   7.031
 3086POPC   C4A41958   8.437  15.335   7.475
 3086POPC   C1B41959   8.120  14.781   6.266
 3086POPC   C2B41960   8.156  14.987   6.655
 3086POPC   C3B41961   8.132  14.756   7.024
 3086POPC   C4B41962   8.165  14.907   7.443
 3087POPC   NC341963  43.322  16.960   5.634
 3087POPC   PO441964  43.158  16.386   5.246
 3087POPC   GL141965  43.037  16.439   5.690
 3087POPC   GL241966  43.333  16.458   5.818
 3087POPC   C1A41967  42.980  16.578   6.175
 3087POPC   D2A41968  42.886  16.564   6.666
 3087POPC   C3A41969  42.931  16.772   7.091
 3087POPC   C4A41970  42.857  16.617   7.533
 3087POPC   C1B41971  43.462  16.425   6.227
 3087POPC   C2B41972  43.375  16.665   6.584
 3087POPC   C3B41973  43.355  16.487   6.987
 3087POPC   C4B41974  43.350  16.582   7.422
 3088POPC   NC341975   8.523  44.193   5.337
 3088POPC   PO441976   8.057  43.669   5.390
 3088POPC   GL141977   8.189  43.826   5.758
 3088POPC   GL241978   8.335  43.543   5.842
 3088POPC   C1A41979   8.348  43.924   6.175
 3088POPC   D2A41980   8.224  44.052   6.559
 3088POPC   C3A41981   8.463  43.864   6.876
 3088POPC   C4A41982   8.315  43.780   7.250
 3088POPC   C1B41983   8.076  43.495   6.179
 3088POPC   C2B41984   8.255  43.532   6.532
 3088POPC   C3B41985   8.141  43.464   6.901
 3088POPC   C4B41986   8.132  43.239   7.256
 3089POPC   NC341987  20.905  34.570   5.341
 3089POPC   PO441988  20.231  34.334   5.375
 3089POPC   GL141989  20.465  34.569   5.758
 3089POPC   GL241990  20.796  34.684   5.811
 3089POPC   C1A41991  20.662  34.412   6.188
 3089POPC   D2A41992  20.646  34.091   6.499
 3089POPC   C3A41993  20.743  34.261   6.867
 3089POPC   C4A41994  20.691  34.432   7.253
 3089POPC   C1B41995  20.930  34.904   6.172
 3089POPC   C2B41996  20.833  34.740   6.565
 3089POPC   C3B41997  20.946  34.792   6.990
 3089POPC   C4B41998  20.649  35.014   7.228
 3090POPC   NC341999  19.918  21.253   5.512
 3090POPC   PO442000  19.505  21.798   5.744
 3090POPC   GL142001  19.871  21.676   5.922
 3090POPC   GL242002  19.708  21.360   5.959
 3090POPC   C1A42003  19.951  21.584   6.349
 3090POPC   D2A42004  19.658  21.325   6.569
 3090POPC   C3A42005  19.631  21.292   6.977
 3090POPC   C4A42006  20.063  21.224   7.168
 3090POPC   C1B42007  19.932  21.079   6.197
 3090POPC   C2B42008  19.857  20.832   6.567
 3090POPC   C3B42009  19.742  20.808   6.989
 3090POPC   C4B42010  19.696  20.989   7.402
 3091POPC   NC342011  41.390  32.057   5.222
 3091POPC   PO442012  41.704  32.666   5.429
 3091POPC   GL142013  41.468  32.467   5.774
 3091POPC   GL242014  41.367  32.088   5.728
 3091POPC   C1A42015  41.614  32.563   6.203
 3091POPC   D2A42016  41.827  32.441   6.595
 3091POPC   C3A42017  41.582  32.405   6.979
 3091POPC   C4A42018  41.713  32.135   7.322
 3091POPC   C1B42019  41.320  32.159   6.157
 3091POPC   C2B42020  41.427  32.098   6.557
 3091POPC   C3B42021  41.140  32.037   6.859
 3091POPC   C4B42022  41.189  32.173   7.234
 3092POPC   NC342023   1.295  38.311   5.206
 3092POPC   PO442024   0.665  38.060   5.388
 3092POPC   GL142025   0.961  38.314   5.700
 3092POPC   GL242026   1.342  38.268   5.732
 3092POPC   C1A42027   1.046  38.543   6.103
 3092POPC   D2A42028   1.293  38.577   6.490
 3092POPC   C3A42029   1.137  38.356   6.848
 3092POPC   C4A42030   0.964  38.544   7.214
 3092POPC   C1B42031   1.351  38.125   6.170
 3092POPC   C2B42032   1.328  37.952   6.570
 3092POPC   C3B42033   1.524  37.956   6.961
 3092POPC   C4B42034   1.502  38.308   7.214
 3093POPC   NC342035  41.837  11.560   5.630
 3093POPC   PO442036  41.245  11.463   5.478
 3093POPC   GL142037  41.401  11.462   5.915
 3093POPC   GL242038  41.660  11.200   5.983
 3093POPC   C1A42039  41.413  11.504   6.367
 3093POPC   D2A42040  41.593  11.735   6.705
 3093POPC   C3A42041  41.460  11.547   7.100
 3093POPC   C4A42042  41.534  11.453   7.542
 3093POPC   C1B42043  41.553  11.014   6.389
 3093POPC   C2B42044  41.692  11.211   6.766
 3093POPC   C3B42045  41.890  11.250   7.175
 3093POPC   C4B42046  41.969  11.169   7.633
 3094POPC   NC342047  40.521  23.121   5.008
 3094POPC   PO442048  40.759  22.566   5.323
 3094POPC   GL142049  40.711  22.816   5.698
 3094POPC   GL242050  41.008  23.080   5.699
 3094POPC   C1A42051  40.472  22.774   6.078
 3094POPC   D2A42052  40.394  22.717   6.528
 3094POPC   C3A42053  40.650  22.826   6.880
 3094POPC   C4A42054  40.800  22.753   7.314
 3094POPC   C1B42055  41.012  22.915   6.132
 3094POPC   C2B42056  41.054  22.802   6.580
 3094POPC   C3B42057  41.103  23.056   6.963
 3094POPC   C4B42058  41.077  23.403   7.233
 3095POPC   NC342059  39.256  16.061   5.031
 3095POPC   PO442060  38.918  15.937   5.451
 3095POPC   GL142061  39.072  15.853   5.876
 3095POPC   GL242062  39.342  15.618   5.901
 3095POPC   C1A42063  39.170  15.981   6.299
 3095POPC   D2A42064  39.513  15.931   6.569
 3095POPC   C3A42065  39.456  16.022   7.009
 3095POPC   C4A42066  39.621  15.933   7.425
 3095POPC   C1B42067  39.216  15.480   6.334
 3095POPC   C2B42068  39.161  15.641   6.750
 3095POPC   C3B42069  39.256  15.567   7.163
 3095POPC   C4B42070  38.955  15.469   7.513
 3096POPC   NC342071  32.667  30.406   5.423
 3096POPC   PO442072  32.953  31.004   5.256
 3096POPC   GL142073  33.013  30.891   5.736
 3096POPC   GL242074  33.040  30.522   5.777
 3096POPC   C1A42075  33.211  30.803   6.163
 3096POPC   D2A42076  33.145  30.525   6.530
 3096POPC   C3A42077  33.166  30.724   6.937
 3096POPC   C4A42078  33.042  30.592   7.346
 3096POPC   C1B42079  32.745  30.570   6.135
 3096POPC   C2B42080  32.634  30.652   6.566
 3096POPC   C3B42081  32.716  30.443   6.975
 3096POPC   C4B42082  32.506  30.293   7.363
 3097POPC   NC342083   4.102  33.430   5.334
 3097POPC   PO442084   4.613  33.814   5.397
 3097POPC   GL142085   4.324  33.669   5.740
 3097POPC   GL242086   4.021  33.851   5.785
 3097POPC   C1A42087   4.322  33.633   6.210
 3097POPC   D2A42088   4.398  33.892   6.585
 3097POPC   C3A42089   4.289  33.687   6.954
 3097POPC   C4A42090   4.323  33.597   7.370
 3097POPC   C1B42091   3.838  33.773   6.192
 3097POPC   C2B42092   3.910  33.610   6.595
 3097POPC   C3B42093   3.755  33.703   7.005
 3097POPC   C4B42094   3.866  33.944   7.362
 3098POPC   NC342095  33.905  29.037   5.167
 3098POPC   PO442096  33.418  29.397   5.556
 3098POPC   GL142097  33.669  29.215   5.832
 3098POPC   GL242098  33.921  28.998   5.699
 3098POPC   C1A42099  33.706  29.298   6.256
 3098POPC   D2A42100  33.544  29.080   6.597
 3098POPC   C3A42101  33.575  29.311   6.958
 3098POPC   C4A42102  33.654  29.250   7.377
 3098POPC   C1B42103  33.984  28.880   6.155
 3098POPC   C2B42104  34.078  29.086   6.588
 3098POPC   C3B42105  33.951  28.969   7.018
 3098POPC   C4B42106  33.925  28.849   7.474
 3099POPC   NC342107  27.291  15.517   5.179
 3099POPC   PO442108  27.798  15.926   5.377
 3099POPC   GL142109  27.538  15.925   5.749
 3099POPC   GL242110  27.533  15.582   5.873
 3099POPC   C1A42111  27.435  16.149   6.118
 3099POPC   D2A42112  27.604  16.342   6.502
 3099POPC   C3A42113  27.346  16.329   6.882
 3099POPC   C4A42114  27.304  16.110   7.271
 3099POPC   C1B42115  27.406  15.667   6.312
 3099POPC   C2B42116  27.382  15.790   6.758
 3099POPC   C3B42117  27.425  15.642   7.176
 3099POPC   C4B42118  27.368  15.744   7.650
 3100POPC   NC342119  10.509   4.183   5.420
 3100POPC   PO442120  10.238   4.680   5.750
 3100POPC   GL142121  10.582   4.459   5.860
 3100POPC   GL242122  10.465   4.116   5.937
 3100POPC   C1A42123  10.712   4.427   6.284
 3100POPC   D2A42124  10.465   4.426   6.670
 3100POPC   C3A42125  10.678   4.416   7.065
 3100POPC   C4A42126  10.580   4.305   7.512
 3100POPC   C1B42127  10.685   3.924   6.319
 3100POPC   C2B42128  10.839   4.009   6.764
 3100POPC   C3B42129  10.830   3.956   7.231
 3100POPC   C4B42130  10.921   3.940   7.678
 3101POPC   NC342131  18.865  24.172   5.323
 3101POPC   PO442132  19.332  24.557   5.392
 3101POPC   GL142133  19.029  24.499   5.686
 3101POPC   GL242134  18.878  24.821   5.705
 3101POPC   C1A42135  18.856  24.302   6.028
 3101POPC   D2A42136  19.045  24.299   6.430
 3101POPC   C3A42137  18.883  24.244   6.833
 3101POPC   C4A42138  19.039  24.403   7.238
 3101POPC   C1B42139  19.018  24.771   6.144
 3101POPC   C2B42140  18.728  24.698   6.507
 3101POPC   C3B42141  18.810  24.760   6.948
 3101POPC   C4B42142  18.699  24.785   7.391
 3102POPC   NC342143   0.737  43.242   5.596
 3102POPC   PO442144   0.526  42.652   5.470
 3102POPC   GL142145   0.457  42.837   5.814
 3102POPC   GL242146   0.117  42.982   5.784
 3102POPC   C1A42147   0.430  43.007   6.213
 3102POPC   D2A42148   0.188  43.095   6.572
 3102POPC   C3A42149   0.442  43.152   6.942
 3102POPC   C4A42150   0.594  43.541   7.142
 3102POPC   C1B42151  44.988  42.695   6.106
 3102POPC   C2B42152  44.997  42.605   6.551
 3102POPC   C3B42153   0.087  42.768   6.967
 3102POPC   C4B42154   0.395  42.684   7.242
 3103POPC   NC342155  14.506  29.316   5.079
 3103POPC   PO442156  14.129  29.484   5.593
 3103POPC   GL142157  14.497  29.209   5.716
 3103POPC   GL242158  14.416  28.852   5.605
 3103POPC   C1A42159  14.605  29.056   6.155
 3103POPC   D2A42160  14.711  29.083   6.605
 3103POPC   C3A42161  14.459  29.318   6.896
 3103POPC   C4A42162  14.346  29.207   7.299
 3103POPC   C1B42163  14.286  28.676   6.014
 3103POPC   C2B42164  14.378  28.673   6.483
 3103POPC   C3B42165  14.358  28.764   6.925
 3103POPC   C4B42166  14.061  28.526   7.178
 3104POPC   NC342167  36.370  15.128   5.568
 3104POPC   PO442168  35.870  15.351   5.130
 3104POPC   GL142169  35.822  15.292   5.616
 3104POPC   GL242170  35.896  14.984   5.755
 3104POPC   C1A42171  35.725  15.308   6.105
 3104POPC   D2A42172  35.945  15.410   6.514
 3104POPC   C3A42173  35.973  15.218   6.932
 3104POPC   C4A42174  36.252  15.323   7.291
 3104POPC   C1B42175  36.139  15.034   6.174
 3104POPC   C2B42176  36.209  14.866   6.563
 3104POPC   C3B42177  36.332  14.830   6.979
 3104POPC   C4B42178  36.185  14.822   7.392
 3105POPC   NC342179  20.536   7.749   5.415
 3105POPC   PO442180  20.421   8.416   5.377
 3105POPC   GL142181  20.521   8.193   5.755
 3105POPC   GL242182  20.856   8.113   5.694
 3105POPC   C1A42183  20.469   8.246   6.220
 3105POPC   D2A42184  20.218   8.522   6.491
 3105POPC   C3A42185  20.201   8.341   6.886
 3105POPC   C4A42186  20.571   8.181   7.094
 3105POPC   C1B42187  20.909   8.434   6.033
 3105POPC   C2B42188  20.971   8.456   6.453
 3105POPC   C3B42189  21.121   8.478   6.846
 3105POPC   C4B42190  20.964   8.423   7.253
 3106POPC   NC342191  42.232  25.036   5.307
 3106POPC   PO442192  42.437  25.718   5.314
 3106POPC   GL142193  42.507  25.372   5.635
 3106POPC   GL242194  42.166  25.304   5.728
 3106POPC   C1A42195  42.493  25.141   6.067
 3106POPC   D2A42196  42.225  25.059   6.430
 3106POPC   C3A42197  42.373  25.225   6.799
 3106POPC   C4A42198  42.489  25.186   7.213
 3106POPC   C1B42199  42.040  25.483   6.133
 3106POPC   C2B42200  41.929  25.456   6.583
 3106POPC   C3B42201  41.888  25.222   6.988
 3106POPC   C4B42202  42.000  25.014   7.346
 3107POPC   NC342203  29.299  16.493   5.269
 3107POPC   PO442204  29.174  17.179   5.304
 3107POPC   GL142205  29.031  17.060   5.739
 3107POPC   GL242206  28.972  16.712   5.728
 3107POPC   C1A42207  29.251  16.878   6.128
 3107POPC   D2A42208  29.239  16.550   6.453
 3107POPC   C3A42209  29.289  16.745   6.862
 3107POPC   C4A42210  29.217  16.691   7.287
 3107POPC   C1B42211  28.725  16.856   6.112
 3107POPC   C2B42212  28.870  16.876   6.541
 3107POPC   C3B42213  28.796  16.885   6.975
 3107POPC   C4B42214  28.831  16.959   7.444
 3108POPC   NC342215  21.794  19.420   5.298
 3108POPC   PO442216  21.369  18.950   5.324
 3108POPC   GL142217  21.266  19.106   5.719
 3108POPC   GL242218  21.494  19.369   5.709
 3108POPC   C1A42219  21.220  18.968   6.166
 3108POPC   D2A42220  21.316  18.937   6.625
 3108POPC   C3A42221  21.075  18.762   6.970
 3108POPC   C4A42222  21.155  18.636   7.429
 3108POPC   C1B42223  21.341  19.503   6.099
 3108POPC   C2B42224  21.392  19.435   6.528
 3108POPC   C3B42225  21.131  19.361   6.900
 3108POPC   C4B42226  21.215  19.147   7.286
 3109POPC   NC342227   2.024  39.685   5.477
 3109POPC   PO442228   1.666  40.315   5.360
 3109POPC   GL142229   1.879  40.130   5.727
 3109POPC   GL242230   2.110  40.368   5.830
 3109POPC   C1A42231   1.982  39.999   6.174
 3109POPC   D2A42232   1.960  40.173   6.599
 3109POPC   C3A42233   1.989  39.909   6.945
 3109POPC   C4A42234   1.696  40.075   7.233
 3109POPC   C1B42235   2.422  40.290   6.112
 3109POPC   C2B42236   2.451  40.135   6.500
 3109POPC   C3B42237   2.392  40.329   6.875
 3109POPC   C4B42238   2.184  40.261   7.238
 3110POPC   NC342239  39.093  38.732   5.366
 3110POPC   PO442240  39.559  38.240   5.422
 3110POPC   GL142241  39.293  38.405   5.744
 3110POPC   GL242242  39.409  38.748   5.772
 3110POPC   C1A42243  39.130  38.254   6.160
 3110POPC   D2A42244  39.313  38.256   6.590
 3110POPC   C3A42245  39.096  38.237   6.960
 3110POPC   C4A42246  39.168  38.459   7.334
 3110POPC   C1B42247  39.062  38.774   6.076
 3110POPC   C2B42248  38.993  38.649   6.493
 3110POPC   C3B42249  39.191  38.731   6.834
 3110POPC   C4B42250  39.154  38.950   7.166
 3111POPC   NC342251  41.019   6.963   5.374
 3111POPC   PO442252  40.527   6.513   5.478
 3111POPC   GL142253  40.636   6.498   5.895
 3111POPC   GL242254  40.818   6.822   5.856
 3111POPC   C1A42255  40.483   6.526   6.330
 3111POPC   D2A42256  40.578   6.781   6.672
 3111POPC   C3A42257  40.734   6.457   6.922
 3111POPC   C4A42258  40.657   6.350   7.301
 3111POPC   C1B42259  40.967   6.723   6.282
 3111POPC   C2B42260  41.093   6.758   6.727
 3111POPC   C3B42261  40.992   6.844   7.187
 3111POPC   C4B42262  40.783   6.984   7.600
 3112POPC   NC342263  38.304  42.580   5.303
 3112POPC   PO442264  38.242  41.986   5.685
 3112POPC   GL142265  38.536  42.302   5.726
 3112POPC   GL242266  38.368  42.589   5.829
 3112POPC   C1A42267  38.747  42.388   6.125
 3112POPC   D2A42268  38.652  42.254   6.556
 3112POPC   C3A42269  38.569  42.495   6.937
 3112POPC   C4A42270  38.535  42.328   7.350
 3112POPC   C1B42271  38.229  42.359   6.222
 3112POPC   C2B42272  38.160  42.059   6.583
 3112POPC   C3B42273  38.140  42.167   7.039
 3112POPC   C4B42274  38.052  42.306   7.446
 3113POPC   NC342275  31.680  40.248   5.260
 3113POPC   PO442276  31.317  39.758   5.446
 3113POPC   GL142277  31.360  40.118   5.725
 3113POPC   GL242278  31.729  40.200   5.765
 3113POPC   C1A42279  31.437  39.990   6.163
 3113POPC   D2A42280  31.424  39.670   6.502
 3113POPC   C3A42281  31.325  39.897   6.872
 3113POPC   C4A42282  31.631  39.859   7.196
 3113POPC   C1B42283  31.780  40.369   6.173
 3113POPC   C2B42284  31.709  40.159   6.584
 3113POPC   C3B42285  31.609  40.322   6.992
 3113POPC   C4B42286  31.753  40.424   7.394
 3114POPC   NC342287  29.100   3.179   5.399
 3114POPC   PO442288  28.798   3.777   5.297
 3114POPC   GL142289  28.926   3.640   5.761
 3114POPC   GL242290  29.184   3.370   5.868
 3114POPC   C1A42291  29.125   3.773   6.205
 3114POPC   D2A42292  29.075   3.751   6.669
 3114POPC   C3A42293  29.183   3.515   7.088
 3114POPC   C4A42294  29.110   3.598   7.534
 3114POPC   C1B42295  28.880   3.326   6.245
 3114POPC   C2B42296  28.834   3.302   6.716
 3114POPC   C3B42297  29.000   3.007   7.014
 3114POPC   C4B42298  29.155   3.090   7.429
 3115POPC   NC342299   3.760   1.197   5.121
 3115POPC   PO442300   3.215   1.420   5.512
 3115POPC   GL142301   3.498   1.242   5.818
 3115POPC   GL242302   3.817   1.216   5.653
 3115POPC   C1A42303   3.577   1.114   6.251
 3115POPC   D2A42304   3.612   0.998   6.685
 3115POPC   C3A42305   3.567   1.246   7.045
 3115POPC   C4A42306   3.469   1.172   7.469
 3115POPC   C1B42307   3.943   1.407   6.056
 3115POPC   C2B42308   3.991   1.327   6.510
 3115POPC   C3B42309   3.933   1.601   6.866
 3115POPC   C4B42310   3.959   1.484   7.260
 3116POPC   NC342311  11.527  13.759   5.517
 3116POPC   PO442312  11.134  13.226   5.454
 3116POPC   GL142313  11.140  13.514   5.786
 3116POPC   GL242314  11.069  13.897   5.765
 3116POPC   C1A42315  10.965  13.449   6.168
 3116POPC   D2A42316  11.018  13.610   6.559
 3116POPC   C3A42317  11.316  13.406   6.772
 3116POPC   C4A42318  11.290  13.359   7.169
 3116POPC   C1B42319  11.263  13.865   6.192
 3116POPC   C2B42320  11.406  13.910   6.658
 3116POPC   C3B42321  11.245  13.891   7.109
 3116POPC   C4B42322  11.190  14.155   7.527
 3117POPC   NC342323  29.746  19.574   5.447
 3117POPC   PO442324  30.268  19.936   5.448
 3117POPC   GL142325  30.016  19.905   5.788
 3117POPC   GL242326  29.719  20.001   5.789
 3117POPC   C1A42327  29.844  19.632   6.113
 3117POPC   D2A42328  29.939  19.576   6.533
 3117POPC   C3A42329  29.715  19.718   6.878
 3117POPC   C4A42330  29.847  19.574   7.277
 3117POPC   C1B42331  29.786  20.173   6.174
 3117POPC   C2B42332  29.594  20.165   6.542
 3117POPC   C3B42333  29.759  20.253   6.921
 3117POPC   C4B42334  29.710  20.078   7.287
 3118POPC   NC342335  16.356  15.172   5.370
 3118POPC   PO442336  15.688  15.426   5.444
 3118POPC   GL142337  15.689  15.292   5.823
 3118POPC   GL242338  15.949  15.070   5.830
 3118POPC   C1A42339  15.572  15.162   6.203
 3118POPC   D2A42340  15.836  15.142   6.522
 3118POPC   C3A42341  15.737  15.079   6.924
 3118POPC   C4A42342  16.048  15.044   7.247
 3118POPC   C1B42343  16.158  15.429   6.005
 3118POPC   C2B42344  16.263  15.529   6.416
 3118POPC   C3B42345  16.128  15.456   6.815
 3118POPC   C4B42346  16.355  15.428   7.175
 3119POPC   NC342347  35.272   0.173   5.052
 3119POPC   PO442348  35.303   0.720   5.525
 3119POPC   GL142349  35.481   0.471   5.913
 3119POPC   GL242350  35.668   0.214   5.775
 3119POPC   C1A42351  35.539   0.431   6.387
 3119POPC   D2A42352  35.684   0.666   6.763
 3119POPC   C3A42353  35.442   0.593   7.092
 3119POPC   C4A42354  35.209   0.251   7.243
 3119POPC   C1B42355  35.392  44.997   6.096
 3119POPC   C2B42356  35.380  44.934   6.533
 3119POPC   C3B42357  35.597   0.169   6.843
 3119POPC   C4B42358  35.882   0.363   7.163
 3120POPC   NC342359   5.630   1.470   5.138
 3120POPC   PO442360   5.747   1.312   5.691
 3120POPC   GL142361   5.798   0.916   5.872
 3120POPC   GL242362   6.140   0.869   5.837
 3120POPC   C1A42363   5.795   0.797   6.308
 3120POPC   D2A42364   5.545   0.870   6.671
 3120POPC   C3A42365   5.652   1.091   7.041
 3120POPC   C4A42366   5.858   1.460   7.211
 3120POPC   C1B42367   6.139   1.151   6.191
 3120POPC   C2B42368   5.955   1.203   6.612
 3120POPC   C3B42369   6.162   1.089   6.996
 3120POPC   C4B42370   6.321   1.280   7.350
 3121POPC   NC342371   3.668  30.329   5.549
 3121POPC   PO442372   4.073  30.831   5.327
 3121POPC   GL142373   3.796  30.838   5.773
 3121POPC   GL242374   3.636  30.546   5.979
 3121POPC   C1A42375   3.900  30.870   6.243
 3121POPC   D2A42376   3.814  30.485   6.479
 3121POPC   C3A42377   3.716  30.488   6.900
 3121POPC   C4A42378   3.780  30.820   7.154
 3121POPC   C1B42379   3.378  30.766   6.250
 3121POPC   C2B42380   3.469  30.887   6.664
 3121POPC   C3B42381   3.283  30.759   7.039
 3121POPC   C4B42382   3.286  30.812   7.478
 3122POPC   NC342383  38.944  22.094   5.478
 3122POPC   PO442384  38.227  22.128   5.436
 3122POPC   GL142385  38.551  22.344   5.708
 3122POPC   GL242386  38.649  22.025   5.866
 3122POPC   C1A42387  38.752  22.543   6.108
 3122POPC   D2A42388  38.916  22.487   6.570
 3122POPC   C3A42389  38.582  22.444   6.893
 3122POPC   C4A42390  38.687  22.056   7.081
 3122POPC   C1B42391  38.272  22.103   6.098
 3122POPC   C2B42392  38.339  22.200   6.518
 3122POPC   C3B42393  38.169  22.083   6.908
 3122POPC   C4B42394  38.162  22.316   7.250
 3123POPC   NC342395  33.872  25.024   5.597
 3123POPC   PO442396  34.488  25.067   5.690
 3123POPC   GL142397  34.373  25.404   5.962
 3123POPC   GL242398  34.639  25.675   6.059
 3123POPC   C1A42399  34.369  25.289   6.375
 3123POPC   D2A42400  34.549  25.065   6.692
 3123POPC   C3A42401  34.549  25.193   7.116
 3123POPC   C4A42402  34.916  25.030   7.268
 3123POPC   C1B42403  34.873  25.411   6.352
 3123POPC   C2B42404  34.973  25.363   6.797
 3123POPC   C3B42405  34.935  25.549   7.190
 3123POPC   C4B42406  35.018  25.410   7.619
 3124POPC   NC342407  38.949   7.829   5.802
 3124POPC   PO442408  38.484   8.161   5.414
 3124POPC   GL142409  38.365   8.323   5.801
 3124POPC   GL242410  38.640   8.573   5.789
 3124POPC   C1A42411  38.434   8.102   6.214
 3124POPC   D2A42412  38.609   7.886   6.574
 3124POPC   C3A42413  38.417   8.034   6.949
 3124POPC   C4A42414  38.253   8.192   7.338
 3124POPC   C1B42415  38.478   8.606   6.215
 3124POPC   C2B42416  38.295   8.498   6.606
 3124POPC   C3B42417  38.452   8.561   7.025
 3124POPC   C4B42418  38.768   8.298   7.237
 3125POPC   NC342419  28.778  35.687   5.324
 3125POPC   PO442420  29.070  35.069   5.470
 3125POPC   GL142421  29.185  35.450   5.746
 3125POPC   GL242422  29.505  35.437   5.970
 3125POPC   C1A42423  29.021  35.512   6.154
 3125POPC   D2A42424  29.078  35.235   6.500
 3125POPC   C3A42425  29.297  35.429   6.838
 3125POPC   C4A42426  29.158  35.666   7.176
 3125POPC   C1B42427  29.527  35.008   6.176
 3125POPC   C2B42428  29.420  34.808   6.595
 3125POPC   C3B42429  29.184  34.937   6.974
 3125POPC   C4B42430  29.182  35.187   7.343
 3126POPC   NC342431   0.330  41.886   5.558
 3126POPC   PO442432  44.824  41.465   5.204
 3126POPC   GL142433  44.683  41.395   5.649
 3126POPC   GL242434  44.962  41.292   5.784
 3126POPC   C1A42435  44.506  41.353   6.082
 3126POPC   D2A42436  44.716  41.338   6.501
 3126POPC   C3A42437  44.483  41.397   6.892
 3126POPC   C4A42438  44.493  41.741   7.204
 3126POPC   C1B42439  44.935  41.653   6.034
 3126POPC   C2B42440  44.961  41.780   6.434
 3126POPC   C3B42441  44.906  41.740   6.864
 3126POPC   C4B42442   0.174  41.789   7.204
 3127POPC   NC342443  20.798  20.617   5.310
 3127POPC   PO442444  20.299  20.967   5.502
 3127POPC   GL142445  20.503  20.607   5.783
 3127POPC   GL242446  20.888  20.498   5.811
 3127POPC   C1A42447  20.638  20.699   6.231
 3127POPC   D2A42448  20.777  20.914   6.635
 3127POPC   C3A42449  20.540  20.778   7.024
 3127POPC   C4A42450  20.606  20.714   7.484
 3127POPC   C1B42451  21.039  20.401   6.240
 3127POPC   C2B42452  21.085  20.469   6.694
 3127POPC   C3B42453  20.826  20.344   7.046
 3127POPC   C4B42454  20.865  20.264   7.495
 3128POPC   NC342455   2.477  13.607   5.520
 3128POPC   PO442456   1.973  13.207   5.465
 3128POPC   GL142457   1.997  13.600   5.705
 3128POPC   GL242458   1.698  13.825   5.704
 3128POPC   C1A42459   2.126  13.631   6.151
 3128POPC   D2A42460   2.060  13.379   6.532
 3128POPC   C3A42461   2.150  13.594   6.922
 3128POPC   C4A42462   2.304  13.371   7.257
 3128POPC   C1B42463   1.666  13.874   6.151
 3128POPC   C2B42464   1.824  13.834   6.577
 3128POPC   C3B42465   1.681  13.847   7.004
 3128POPC   C4B42466   1.510  13.621   7.361
 3129POPC   NC342467  17.222   0.787   5.430
 3129POPC   PO442468  17.693   0.282   5.509
 3129POPC   GL142469  17.630   0.510   5.840
 3129POPC   GL242470  17.272   0.414   5.801
 3129POPC   C1A42471  17.795   0.340   6.221
 3129POPC   D2A42472  17.589   0.256   6.624
 3129POPC   C3A42473  17.694   0.458   6.983
 3129POPC   C4A42474  17.653   0.152   7.268
 3129POPC   C1B42475  17.294   0.343   6.235
 3129POPC   C2B42476  17.181   0.577   6.630
 3129POPC   C3B42477  17.023   0.593   7.023
 3129POPC   C4B42478  17.179   0.365   7.375
 3130POPC   NC342479  13.172  31.345   5.457
 3130POPC   PO442480  13.856  31.310   5.237
 3130POPC   GL142481  13.706  31.369   5.689
 3130POPC   GL242482  13.441  31.574   5.840
 3130POPC   C1A42483  13.843  31.468   6.150
 3130POPC   D2A42484  13.885  31.729   6.547
 3130POPC   C3A42485  13.752  31.536   6.936
 3130POPC   C4A42486  13.887  31.289   7.297
 3130POPC   C1B42487  13.462  31.813   6.251
 3130POPC   C2B42488  13.425  31.930   6.705
 3130POPC   C3B42489  13.613  31.990   7.110
 3130POPC   C4B42490  13.641  31.709   7.444
 3131POPC   NC342491  10.708  21.697   5.214
 3131POPC   PO442492  10.348  22.193   5.310
 3131POPC   GL142493  10.611  22.022   5.644
 3131POPC   GL242494  10.761  22.335   5.758
 3131POPC   C1A42495  10.560  21.932   6.095
 3131POPC   D2A42496  10.444  22.151   6.497
 3131POPC   C3A42497  10.499  21.991   6.916
 3131POPC   C4A42498  10.626  22.032   7.346
 3131POPC   C1B42499  10.748  22.428   6.192
 3131POPC   C2B42500  10.901  22.366   6.603
 3131POPC   C3B42501  10.893  22.318   7.032
 3131POPC   C4B42502  10.962  22.443   7.472
 3132POPC   NC342503  23.948  29.453   5.469
 3132POPC   PO442504  23.368  29.155   5.572
 3132POPC   GL142505  23.590  29.026   5.918
 3132POPC   GL242506  23.914  29.162   5.887
 3132POPC   C1A42507  23.681  29.148   6.347
 3132POPC   D2A42508  23.475  29.297   6.705
 3132POPC   C3A42509  23.677  29.161   7.076
 3132POPC   C4A42510  24.037  28.909   7.182
 3132POPC   C1B42511  23.975  29.539   6.154
 3132POPC   C2B42512  23.989  29.740   6.552
 3132POPC   C3B42513  23.903  29.588   6.914
 3132POPC   C4B42514  24.086  29.443   7.273
 3133POPC   NC342515  20.495  35.960   5.036
 3133POPC   PO442516  20.761  36.254   5.600
 3133POPC   GL142517  20.678  35.988   5.898
 3133POPC   GL242518  20.486  36.279   6.018
 3133POPC   C1A42519  20.398  35.830   6.204
 3133POPC   D2A42520  20.469  35.832   6.630
 3133POPC   C3A42521  20.329  36.129   6.939
 3133POPC   C4A42522  20.553  36.044   7.329
 3133POPC   C1B42523  20.755  36.195   6.369
 3133POPC   C2B42524  20.818  36.251   6.795
 3133POPC   C3B42525  21.051  36.289   7.176
 3133POPC   C4B42526  20.953  36.245   7.614
 3134POPC   NC342527  30.449  22.038   5.405
 3134POPC   PO442528  29.778  21.924   5.492
 3134POPC   GL142529  29.789  22.140   5.901
 3134POPC   GL242530  30.064  21.960   6.040
 3134POPC   C1A42531  29.687  22.208   6.345
 3134POPC   D2A42532  29.903  21.971   6.649
 3134POPC   C3A42533  29.868  22.083   7.087
 3134POPC   C4A42534  29.530  22.273   7.315
 3134POPC   C1B42535  30.166  22.319   6.295
 3134POPC   C2B42536  30.103  22.457   6.734
 3134POPC   C3B42537  30.329  22.323   7.116
 3134POPC   C4B42538  30.157  22.111   7.527
 3135POPC   NC342539  44.401  16.449   5.383
 3135POPC   PO442540  43.712  16.607   5.539
 3135POPC   GL142541  43.873  16.679   5.914
 3135POPC   GL242542  44.194  16.753   5.790
 3135POPC   C1A42543  43.842  16.747   6.359
 3135POPC   D2A42544  43.823  16.474   6.723
 3135POPC   C3A42545  43.956  16.709   7.082
 3135POPC   C4A42546  44.288  16.464   7.265
 3135POPC   C1B42547  44.319  16.830   6.211
 3135POPC   C2B42548  44.279  16.821   6.679
 3135POPC   C3B42549  44.418  16.974   7.111
 3135POPC   C4B42550  44.192  16.890   7.515
 3136POPC   NC342551  20.139  33.224   5.105
 3136POPC   PO442552  19.649  32.980   5.220
 3136POPC   GL142553  19.913  33.125   5.591
 3136POPC   GL242554  19.949  32.796   5.751
 3136POPC   C1A42555  19.859  33.219   6.060
 3136POPC   D2A42556  19.694  33.019   6.452
 3136POPC   C3A42557  19.801  33.144   6.878
 3136POPC   C4A42558  19.953  33.257   7.260
 3136POPC   C1B42559  19.922  32.606   6.156
 3136POPC   C2B42560  20.057  32.660   6.549
 3136POPC   C3B42561  19.841  32.622   6.891
 3136POPC   C4B42562  19.753  32.754   7.255
 3137POPC   NC342563  38.077  28.298   5.592
 3137POPC   PO442564  37.388  28.350   5.423
 3137POPC   GL142565  37.567  28.239   5.806
 3137POPC   GL242566  37.705  28.575   5.834
 3137POPC   C1A42567  37.718  28.243   6.248
 3137POPC   D2A42568  37.751  28.500   6.636
 3137POPC   C3A42569  37.803  28.272   7.020
 3137POPC   C4A42570  37.528  28.420   7.298
 3137POPC   C1B42571  37.961  28.694   6.158
 3137POPC   C2B42572  38.220  28.611   6.495
 3137POPC   C3B42573  38.204  28.612   6.926
 3137POPC   C4B42574  37.991  28.655   7.309
 3138POPC   NC342575  34.387  32.036   5.310
 3138POPC   PO442576  34.887  32.407   5.264
 3138POPC   GL142577  34.698  32.252   5.662
 3138POPC   GL242578  34.766  31.896   5.666
 3138POPC   C1A42579  34.455  32.090   6.055
 3138POPC   D2A42580  34.145  32.145   6.414
 3138POPC   C3A42581  34.343  32.150   6.817
 3138POPC   C4A42582  34.158  32.077   7.220
 3138POPC   C1B42583  35.058  32.062   5.993
 3138POPC   C2B42584  35.003  32.195   6.421
 3138POPC   C3B42585  34.908  31.975   6.790
 3138POPC   C4B42586  34.751  32.126   7.161
 3139POPC   NC342587  40.842  20.541   5.229
 3139POPC   PO442588  40.882  21.201   5.207
 3139POPC   GL142589  41.041  21.060   5.660
 3139POPC   GL242590  41.052  20.675   5.720
 3139POPC   C1A42591  40.944  20.992   6.146
 3139POPC   D2A42592  41.046  20.797   6.584
 3139POPC   C3A42593  40.928  20.875   7.015
 3139POPC   C4A42594  40.547  21.110   7.160
 3139POPC   C1B42595  40.975  20.311   6.060
 3139POPC   C2B42596  41.123  20.289   6.542
 3139POPC   C3B42597  40.924  20.348   6.963
 3139POPC   C4B42598  40.799  20.144   7.387
 3140POPC   NC342599  37.832  30.809   5.502
 3140POPC   PO442600  37.471  30.264   5.309
 3140POPC   GL142601  37.538  30.442   5.713
 3140POPC   GL242602  37.367  30.746   5.781
 3140POPC   C1A42603  37.565  30.343   6.161
 3140POPC   D2A42604  37.333  30.260   6.540
 3140POPC   C3A42605  37.441  30.409   6.969
 3140POPC   C4A42606  37.871  30.476   7.130
 3140POPC   C1B42607  37.531  30.850   6.211
 3140POPC   C2B42608  37.707  30.713   6.632
 3140POPC   C3B42609  37.656  30.926   7.034
 3140POPC   C4B42610  37.252  30.930   7.157
 3141POPC   NC342611   0.024  17.191   5.134
 3141POPC   PO442612  44.431  17.532   5.400
 3141POPC   GL142613  44.415  17.281   5.836
 3141POPC   GL242614  44.340  17.572   5.976
 3141POPC   C1A42615  44.679  17.178   6.212
 3141POPC   D2A42616  44.617  17.206   6.656
 3141POPC   C3A42617  44.860  17.488   6.888
 3141POPC   C4A42618  44.808  17.390   7.315
 3141POPC   C1B42619  44.699  17.696   6.226
 3141POPC   C2B42620  44.822  17.922   6.573
 3141POPC   C3B42621  44.674  17.968   6.978
 3141POPC   C4B42622  44.635  17.849   7.437
 3142POPC   NC342623  21.091  13.973   5.204
 3142POPC   PO442624  21.409  13.361   5.432
 3142POPC   GL142625  21.209  13.603   5.760
 3142POPC   GL242626  21.311  13.963   5.732
 3142POPC   C1A42627  21.276  13.661   6.207
 3142POPC   D2A42628  21.399  13.762   6.618
 3142POPC   C3A42629  21.275  13.582   7.021
 3142POPC   C4A42630  21.553  13.853   7.217
 3142POPC   C1B42631  21.042  14.096   6.088
 3142POPC   C2B42632  21.007  14.133   6.540
 3142POPC   C3B42633  21.171  14.089   6.963
 3142POPC   C4B42634  21.079  13.968   7.419
 3143POPC   NC342635  30.007   0.483   5.434
 3143POPC   PO442636  29.844  44.916   5.346
 3143POPC   GL142637  30.084   0.072   5.707
 3143POPC   GL242638  29.761   0.211   5.813
 3143POPC   C1A42639  30.144   0.345   6.136
 3143POPC   D2A42640  29.913   0.414   6.566
 3143POPC   C3A42641  30.082   0.541   7.013
 3143POPC   C4A42642  29.889   0.374   7.397
 3143POPC   C1B42643  29.499   0.337   6.169
 3143POPC   C2B42644  29.386   0.434   6.606
 3143POPC   C3B42645  29.578   0.419   7.006
 3143POPC   C4B42646  29.569   0.775   7.332
 3144POPC   NC342647  17.465  42.585   5.304
 3144POPC   PO442648  17.772  42.029   5.125
 3144POPC   GL142649  17.663  42.106   5.625
 3144POPC   GL242650  17.292  41.936   5.708
 3144POPC   C1A42651  17.857  42.307   6.088
 3144POPC   D2A42652  17.798  42.317   6.608
 3144POPC   C3A42653  17.472  42.376   6.980
 3144POPC   C4A42654  17.162  42.608   7.197
 3144POPC   C1B42655  17.422  42.059   6.105
 3144POPC   C2B42656  17.642  41.857   6.438
 3144POPC   C3B42657  17.534  41.891   6.874
 3144POPC   C4B42658  17.610  41.991   7.301
 3145POPC   NC342659  28.039  15.481   5.391
 3145POPC   PO442660  28.662  15.119   5.237
 3145POPC   GL142661  28.534  15.114   5.675
 3145POPC   GL242662  28.187  15.096   5.716
 3145POPC   C1A42663  28.608  15.266   6.101
 3145POPC   D2A42664  28.701  15.442   6.520
 3145POPC   C3A42665  28.532  15.255   6.880
 3145POPC   C4A42666  28.552  15.333   7.321
 3145POPC   C1B42667  28.064  15.343   6.086
 3145POPC   C2B42668  28.055  15.211   6.529
 3145POPC   C3B42669  28.037  15.334   6.963
 3145POPC   C4B42670  28.102  15.114   7.335
 3146POPC   NC342671  10.411  22.616   5.476
 3146POPC   PO442672  10.662  23.142   5.159
 3146POPC   GL142673  10.390  23.083   5.714
 3146POPC   GL242674  10.534  22.788   5.922
 3146POPC   C1A42675  10.227  22.908   6.253
 3146POPC   D2A42676  10.192  22.640   6.672
 3146POPC   C3A42677  10.361  22.779   7.123
 3146POPC   C4A42678  10.196  22.945   7.542
 3146POPC   C1B42679  10.755  22.930   6.304
 3146POPC   C2B42680  10.686  22.836   6.726
 3146POPC   C3B42681  10.884  22.823   7.129
 3146POPC   C4B42682  10.717  23.001   7.514
 3147POPC   NC342683  44.490  18.017   5.310
 3147POPC   PO442684   0.063  17.782   5.450
 3147POPC   GL142685  44.764  17.940   5.779
 3147POPC   GL242686  44.400  18.056   5.811
 3147POPC   C1A42687  44.764  18.232   6.139
 3147POPC   D2A42688   0.037  18.487   6.390
 3147POPC   C3A42689  44.935  18.396   6.826
 3147POPC   C4A42690  44.890  18.321   7.262
 3147POPC   C1B42691  44.310  18.023   6.254
 3147POPC   C2B42692  44.469  18.286   6.567
 3147POPC   C3B42693  44.397  18.451   6.936
 3147POPC   C4B42694  44.320  18.204   7.259
 3148POPC   NC342695  10.102  42.019   5.622
 3148POPC   PO442696  10.758  42.234   5.720
 3148POPC   GL142697  10.555  42.502   5.946
 3148POPC   GL242698  10.225  42.513   5.796
 3148POPC   C1A42699  10.596  42.558   6.391
 3148POPC   D2A42700  10.417  42.771   6.754
 3148POPC   C3A42701  10.707  42.688   7.073
 3148POPC   C4A42702  10.850  42.288   7.173
 3148POPC   C1B42703  10.177  42.314   6.230
 3148POPC   C2B42704  10.252  42.297   6.698
 3148POPC   C3B42705  10.332  42.328   7.176
 3148POPC   C4B42706  10.300  42.077   7.588
 3149POPC   NC342707  22.678  11.682   5.393
 3149POPC   PO442708  23.074  11.151   5.513
 3149POPC   GL142709  22.850  11.289   5.846
 3149POPC   GL242710  22.507  11.364   5.835
 3149POPC   C1A42711  22.841  11.208   6.265
 3149POPC   D2A42712  23.136  11.142   6.550
 3149POPC   C3A42713  23.045  11.190   6.926
 3149POPC   C4A42714  23.119  11.304   7.311
 3149POPC   C1B42715  22.489  11.594   6.242
 3149POPC   C2B42716  22.667  11.510   6.665
 3149POPC   C3B42717  22.605  11.375   7.096
 3149POPC   C4B42718  22.460  11.358   7.526
 3150POPC   NC342719  35.777   0.957   5.414
 3150POPC   PO442720  36.217   1.423   5.348
 3150POPC   GL142721  36.199   1.215   5.737
 3150POPC   GL242722  36.561   1.276   5.816
 3150POPC   C1A42723  35.961   1.162   6.159
 3150POPC   D2A42724  36.081   0.879   6.526
 3150POPC   C3A42725  36.004   1.030   6.963
 3150POPC   C4A42726  35.802   0.868   7.359
 3150POPC   C1B42727  36.448   1.144   6.258
 3150POPC   C2B42728  36.299   1.341   6.644
 3150POPC   C3B42729  36.487   1.386   7.052
 3150POPC   C4B42730  36.472   1.354   7.484
 3151POPC   NC342731  27.172  37.629   5.386
 3151POPC   PO442732  26.604  38.056   5.396
 3151POPC   GL142733  26.819  37.875   5.735
 3151POPC   GL242734  27.074  38.115   5.755
 3151POPC   C1A42735  26.851  37.727   6.185
 3151POPC   D2A42736  26.729  37.881   6.606
 3151POPC   C3A42737  26.597  37.626   6.956
 3151POPC   C4A42738  26.969  37.408   7.014
 3151POPC   C1B42739  27.278  38.056   6.155
 3151POPC   C2B42740  27.256  37.855   6.578
 3151POPC   C3B42741  27.257  37.856   7.034
 3151POPC   C4B42742  26.897  37.845   7.313
 3152POPC   NC342743  22.838   6.175   5.321
 3152POPC   PO442744  22.842   5.518   5.383
 3152POPC   GL142745  22.793   5.855   5.734
 3152POPC   GL242746  22.663   6.230   5.780
 3152POPC   C1A42747  22.852   5.857   6.182
 3152POPC   D2A42748  23.097   5.755   6.551
 3152POPC   C3A42749  22.836   5.791   6.897
 3152POPC   C4A42750  22.987   5.746   7.296
 3152POPC   C1B42751  22.465   6.243   6.161
 3152POPC   C2B42752  22.526   6.101   6.540
 3152POPC   C3B42753  22.565   6.257   6.909
 3152POPC   C4B42754  22.587   6.088   7.280
 3153POPC   NC342755  35.111   0.311   5.605
 3153POPC   PO442756  34.612   0.685   5.409
 3153POPC   GL142757  34.805   0.751   5.873
 3153POPC   GL242758  34.920   1.099   5.965
 3153POPC   C1A42759  34.721   0.800   6.353
 3153POPC   D2A42760  34.677   1.017   6.784
 3153POPC   C3A42761  34.505   0.787   7.180
 3153POPC   C4A42762  34.280   0.840   7.595
 3153POPC   C1B42763  34.973   1.243   6.399
 3153POPC   C2B42764  35.095   1.344   6.814
 3153POPC   C3B42765  35.028   1.319   7.262
 3153POPC   C4B42766  34.774   1.052   7.549
 3154POPC   NC342767  41.913  33.485   5.380
 3154POPC   PO442768  42.503  32.964   5.399
 3154POPC   GL142769  42.432  33.089   5.822
 3154POPC   GL242770  42.597  33.397   5.936
 3154POPC   C1A42771  42.334  32.818   6.186
 3154POPC   D2A42772  42.335  32.561   6.571
 3154POPC   C3A42773  42.393  32.800   6.952
 3154POPC   C4A42774  42.288  32.915   7.356
 3154POPC   C1B42775  42.252  33.351   6.232
 3154POPC   C2B42776  42.181  33.101   6.597
 3154POPC   C3B42777  42.160  33.278   7.001
 3154POPC   C4B42778  41.887  33.238   7.385
 3155POPC   NC342779   3.860  21.380   5.430
 3155POPC   PO442780   3.206  21.405   5.426
 3155POPC   GL142781   3.467  21.332   5.794
 3155POPC   GL242782   3.457  20.995   5.778
 3155POPC   C1A42783   3.560  21.509   6.229
 3155POPC   D2A42784   3.809  21.452   6.624
 3155POPC   C3A42785   3.634  21.551   7.031
 3155POPC   C4A42786   3.279  21.621   7.297
 3155POPC   C1B42787   3.594  20.988   6.176
 3155POPC   C2B42788   3.462  21.071   6.583
 3155POPC   C3B42789   3.622  21.015   6.973
 3155POPC   C4B42790   3.558  21.177   7.364
 3156POPC   NC342791  21.969   7.533   5.440
 3156POPC   PO442792  22.576   7.427   5.541
 3156POPC   GL142793  22.451   7.546   5.928
 3156POPC   GL242794  22.128   7.403   5.904
 3156POPC   C1A42795  22.301   7.587   6.370
 3156POPC   D2A42796  21.903   7.385   6.537
 3156POPC   C3A42797  21.908   7.366   6.977
 3156POPC   C4A42798  22.319   7.411   7.088
 3156POPC   C1B42799  22.180   7.102   6.199
 3156POPC   C2B42800  22.327   7.044   6.604
 3156POPC   C3B42801  22.169   6.922   6.955
 3156POPC   C4B42802  21.908   6.947   7.330
 3157POPC   NC342803   3.347   5.016   5.400
 3157POPC   PO442804   3.937   4.668   5.586
 3157POPC   GL142805   3.607   4.857   5.873
 3157POPC   GL242806   3.393   5.197   5.867
 3157POPC   C1A42807   3.630   5.051   6.291
 3157POPC   D2A42808   3.447   5.236   6.653
 3157POPC   C3A42809   3.571   5.005   7.029
 3157POPC   C4A42810   3.433   5.285   7.316
 3157POPC   C1B42811   3.083   5.318   6.176
 3157POPC   C2B42812   3.009   5.533   6.545
 3157POPC   C3B42813   3.016   5.433   6.957
 3157POPC   C4B42814   3.032   5.599   7.374
 3158POPC   NC342815  18.730   6.784   5.393
 3158POPC   PO442816  19.246   6.369   5.319
 3158POPC   GL142817  19.016   6.474   5.714
 3158POPC   GL242818  19.020   6.855   5.815
 3158POPC   C1A42819  19.109   6.490   6.182
 3158POPC   D2A42820  19.393   6.517   6.554
 3158POPC   C3A42821  19.133   6.416   6.909
 3158POPC   C4A42822  18.849   6.481   7.216
 3158POPC   C1B42823  18.931   6.993   6.243
 3158POPC   C2B42824  18.976   6.796   6.613
 3158POPC   C3B42825  19.272   6.902   6.924
 3158POPC   C4B42826  19.241   6.773   7.304
 3159POPC   NC342827  22.041   4.563   5.345
 3159POPC   PO442828  22.352   4.003   5.085
 3159POPC   GL142829  22.120   4.117   5.544
 3159POPC   GL242830  22.345   4.398   5.724
 3159POPC   C1A42831  21.960   4.229   6.008
 3159POPC   D2A42832  22.092   4.261   6.460
 3159POPC   C3A42833  21.991   4.388   6.904
 3159POPC   C4A42834  22.040   4.031   7.205
 3159POPC   C1B42835  22.292   4.617   6.126
 3159POPC   C2B42836  22.191   4.752   6.565
 3159POPC   C3B42837  22.444   4.748   6.956
 3159POPC   C4B42838  22.342   4.553   7.372
 3160POPC   NC342839   9.082  21.502   5.593
 3160POPC   PO442840   8.986  20.840   5.664
 3160POPC   GL142841   9.126  21.114   5.955
 3160POPC   GL242842   8.908  21.325   6.023
 3160POPC   C1A42843   9.142  21.177   6.422
 3160POPC   D2A42844   8.805  21.101   6.652
 3160POPC   C3A42845   8.889  21.332   6.998
 3160POPC   C4A42846   9.224  21.529   7.212
 3160POPC   C1B42847   8.575  21.434   6.271
 3160POPC   C2B42848   8.471  21.518   6.693
 3160POPC   C3B42849   8.442  21.567   7.117
 3160POPC   C4B42850   8.778  21.775   7.261
 3161POPC   NC342851  41.107  22.193   5.494
 3161POPC   PO442852  40.373  21.986   5.525
 3161POPC   GL142853  40.698  22.244   5.794
 3161POPC   GL242854  40.977  22.051   5.948
 3161POPC   C1A42855  40.817  22.433   6.223
 3161POPC   D2A42856  40.824  22.235   6.612
 3161POPC   C3A42857  40.933  22.415   6.961
 3161POPC   C4A42858  40.710  22.232   7.335
 3161POPC   C1B42859  41.066  21.893   6.312
 3161POPC   C2B42860  41.079  21.721   6.671
 3161POPC   C3B42861  40.976  21.903   7.016
 3161POPC   C4B42862  41.011  21.787   7.396
 3162POPC   NC342863  27.425  36.284   5.457
 3162POPC   PO442864  27.302  35.667   5.368
 3162POPC   GL142865  27.426  35.804   5.810
 3162POPC   GL242866  27.778  35.750   5.965
 3162POPC   C1A42867  27.434  36.148   6.125
 3162POPC   D2A42868  27.445  36.445   6.487
 3162POPC   C3A42869  27.723  36.395   6.845
 3162POPC   C4A42870  27.507  36.277   7.228
 3162POPC   C1B42871  27.796  35.906   6.392
 3162POPC   C2B42872  27.506  35.956   6.753
 3162POPC   C3B42873  27.622  35.765   7.145
 3162POPC   C4B42874  27.334  35.440   7.192
 3163POPC   NC342875   2.254  28.036   5.322
 3163POPC   PO442876   1.620  28.076   5.167
 3163POPC   GL142877   1.680  28.249   5.618
 3163POPC   GL242878   1.654  27.957   5.828
 3163POPC   C1A42879   1.855  28.420   6.065
 3163POPC   D2A42880   1.991  28.329   6.546
 3163POPC   C3A42881   1.872  28.509   6.976
 3163POPC   C4A42882   1.936  28.776   7.374
 3163POPC   C1B42883   1.682  27.989   6.292
 3163POPC   C2B42884   1.607  27.916   6.721
 3163POPC   C3B42885   1.890  27.970   7.041
 3163POPC   C4B42886   2.287  28.090   7.150
 3164POPC   NC342887  33.670  36.565   5.401
 3164POPC   PO442888  34.091  37.073   5.477
 3164POPC   GL142889  33.938  36.804   5.787
 3164POPC   GL242890  34.117  36.992   6.030
 3164POPC   C1A42891  33.728  36.670   6.182
 3164POPC   D2A42892  33.684  36.834   6.617
 3164POPC   C3A42893  33.974  36.656   6.958
 3164POPC   C4A42894  33.757  36.542   7.347
 3164POPC   C1B42895  33.675  37.179   6.063
 3164POPC   C2B42896  33.518  37.316   6.466
 3164POPC   C3B42897  33.776  37.302   6.837
 3164POPC   C4B42898  33.710  37.022   7.187
 3165POPC   NC342899  16.620  24.069   5.426
 3165POPC   PO442900  16.521  23.559   5.579
 3165POPC   GL142901  16.718  23.842   5.897
 3165POPC   GL242902  16.465  24.079   5.979
 3165POPC   C1A42903  16.793  23.960   6.354
 3165POPC   D2A42904  16.675  23.963   6.792
 3165POPC   C3A42905  16.844  23.903   7.192
 3165POPC   C4A42906  16.883  23.491   7.420
 3165POPC   C1B42907  16.379  23.687   6.252
 3165POPC   C2B42908  16.520  23.495   6.652
 3165POPC   C3B42909  16.431  23.597   7.105
 3165POPC   C4B42910  16.105  23.543   7.445
 3166POPC   NC342911   3.018  38.039   5.560
 3166POPC   PO442912   2.688  38.556   5.241
 3166POPC   GL142913   2.786  38.550   5.703
 3166POPC   GL242914   2.642  38.248   5.838
 3166POPC   C1A42915   2.699  38.663   6.160
 3166POPC   D2A42916   2.678  38.428   6.541
 3166POPC   C3A42917   2.872  38.551   6.910
 3166POPC   C4A42918   2.859  38.723   7.298
 3166POPC   C1B42919   2.985  38.235   6.178
 3166POPC   C2B42920   3.188  38.266   6.591
 3166POPC   C3B42921   3.169  38.148   7.030
 3166POPC   C4B42922   2.982  38.243   7.440
 3167POPC   NC342923   2.355  35.777   5.673
 3167POPC   PO442924   2.825  36.291   5.455
 3167POPC   GL142925   2.550  36.284   5.798
 3167POPC   GL242926   2.201  36.424   5.794
 3167POPC   C1A42927   2.771  36.222   6.153
 3167POPC   D2A42928   3.006  36.280   6.530
 3167POPC   C3A42929   2.878  35.912   6.734
 3167POPC   C4A42930   2.849  35.915   7.189
 3167POPC   C1B42931   2.205  36.166   6.184
 3167POPC   C2B42932   2.450  36.176   6.538
 3167POPC   C3B42933   2.491  36.197   6.956
 3167POPC   C4B42934   2.499  36.285   7.383
 3168POPC   NC342935  11.187  30.101   5.111
 3168POPC   PO442936  11.705  29.808   5.308
 3168POPC   GL142937  11.715  29.837   5.762
 3168POPC   GL242938  11.492  30.134   5.831
 3168POPC   C1A42939  11.546  29.784   6.197
 3168POPC   D2A42940  11.323  29.668   6.577
 3168POPC   C3A42941  11.561  29.743   6.949
 3168POPC   C4A42942  11.695  29.632   7.329
 3168POPC   C1B42943  11.404  30.262   6.294
 3168POPC   C2B42944  11.305  30.152   6.752
 3168POPC   C3B42945  11.077  29.880   7.070
 3168POPC   C4B42946  10.785  29.891   7.456
 3169POPC   NC342947  35.878  25.850   5.425
 3169POPC   PO442948  36.509  26.152   5.525
 3169POPC   GL142949  36.179  26.026   5.840
 3169POPC   GL242950  36.175  25.656   5.840
 3169POPC   C1A42951  36.134  26.117   6.301
 3169POPC   D2A42952  36.353  26.233   6.696
 3169POPC   C3A42953  36.161  26.057   7.057
 3169POPC   C4A42954  36.309  25.755   7.336
 3169POPC   C1B42955  35.853  25.724   6.178
 3169POPC   C2B42956  35.816  25.878   6.651
 3169POPC   C3B42957  35.779  25.720   7.103
 3169POPC   C4B42958  35.915  25.403   7.393
 3170POPC   NC342959   3.677  14.740   5.535
 3170POPC   PO442960   3.830  14.063   5.401
 3170POPC   GL142961   3.567  14.300   5.753
 3170POPC   GL242962   3.856  14.404   5.873
 3170POPC   C1A42963   3.398  14.540   6.158
 3170POPC   D2A42964   3.355  14.392   6.617
 3170POPC   C3A42965   3.397  14.539   7.089
 3170POPC   C4A42966   3.431  14.417   7.557
 3170POPC   C1B42967   3.925  14.537   6.267
 3170POPC   C2B42968   3.754  14.737   6.616
 3170POPC   C3B42969   3.925  14.553   6.980
 3170POPC   C4B42970   3.840  14.670   7.391
 3171POPC   NC342971   4.497  41.862   5.533
 3171POPC   PO442972   5.202  41.874   5.483
 3171POPC   GL142973   5.059  41.535   5.780
 3171POPC   GL242974   5.386  41.370   5.747
 3171POPC   C1A42975   4.989  41.379   6.244
 3171POPC   D2A42976   4.824  41.606   6.637
 3171POPC   C3A42977   4.856  41.617   7.101
 3171POPC   C4A42978   5.235  41.390   7.302
 3171POPC   C1B42979   5.419  41.629   6.123
 3171POPC   C2B42980   5.395  41.526   6.545
 3171POPC   C3B42981   5.306  41.734   6.898
 3171POPC   C4B42982   5.229  41.903   7.291
 3172POPC   NC342983   3.794  42.563   5.427
 3172POPC   PO442984   4.547  42.365   5.450
 3172POPC   GL142985   4.424  42.498   5.822
 3172POPC   GL242986   4.061  42.535   5.882
 3172POPC   C1A42987   4.547  42.338   6.194
 3172POPC   D2A42988   4.330  42.339   6.589
 3172POPC   C3A42989   4.524  42.406   6.970
 3172POPC   C4A42990   4.339  42.413   7.380
 3172POPC   C1B42991   4.051  42.170   6.175
 3172POPC   C2B42992   3.985  41.954   6.606
 3172POPC   C3B42993   4.055  42.159   7.024
 3172POPC   C4B42994   3.999  42.055   7.490
 3173POPC   NC342995  18.365  25.339   4.872
 3173POPC   PO442996  18.439  25.000   5.462
 3173POPC   GL142997  18.120  25.163   5.744
 3173POPC   GL242998  18.359  25.401   5.868
 3173POPC   C1A42999  18.105  25.166   6.212
 3173POPC   D2A43000  18.346  25.182   6.577
 3173POPC   C3A43001  18.160  25.239   6.981
 3173POPC   C4A43002  18.252  25.057   7.380
 3173POPC   C1B43003  18.501  25.610   6.295
 3173POPC   C2B43004  18.437  25.672   6.752
 3173POPC   C3B43005  18.425  25.669   7.205
 3173POPC   C4B43006  18.219  25.534   7.607
 3174POPC   NC343007  40.746  14.042   5.256
 3174POPC   PO443008  41.049  14.571   5.521
 3174POPC   GL143009  40.966  14.493   5.941
 3174POPC   GL243010  40.827  14.178   5.913
 3174POPC   C1A43011  41.042  14.540   6.373
 3174POPC   D2A43012  40.747  14.455   6.699
 3174POPC   C3A43013  40.827  14.374   7.122
 3174POPC   C4A43014  40.952  14.533   7.532
 3174POPC   C1B43015  41.021  14.041   6.300
 3174POPC   C2B43016  41.190  14.167   6.748
 3174POPC   C3B43017  41.261  14.141   7.213
 3174POPC   C4B43018  40.929  14.035   7.561
 3175POPC   NC343019  24.739  40.070   5.503
 3175POPC   PO443020  24.025  40.203   5.412
 3175POPC   GL143021  24.276  40.073   5.744
 3175POPC   GL243022  24.340  39.725   5.744
 3175POPC   C1A43023  24.495  40.107   6.144
 3175POPC   D2A43024  24.627  39.839   6.486
 3175POPC   C3A43025  24.470  39.985   6.879
 3175POPC   C4A43026  24.400  40.280   7.177
 3175POPC   C1B43027  24.126  39.759   6.146
 3175POPC   C2B43028  24.148  39.666   6.577
 3175POPC   C3B43029  24.208  39.563   7.001
 3175POPC   C4B43030  24.270  39.813   7.376
 3176POPC   NC343031  32.733  42.436   5.541
 3176POPC   PO443032  33.201  41.926   5.549
 3176POPC   GL143033  33.066  42.212   5.850
 3176POPC   GL243034  32.755  42.052   5.921
 3176POPC   C1A43035  33.085  42.530   6.180
 3176POPC   D2A43036  32.832  42.586   6.540
 3176POPC   C3A43037  32.918  42.500   6.962
 3176POPC   C4A43038  33.170  42.604   7.300
 3176POPC   C1B43039  32.908  42.078   6.341
 3176POPC   C2B43040  32.670  42.114   6.716
 3176POPC   C3B43041  32.736  42.021   7.147
 3176POPC   C4B43042  32.725  41.868   7.560
 3177POPC   NC343043  38.359  29.460   5.522
 3177POPC   PO443044  38.134  28.755   5.520
 3177POPC   GL143045  38.179  29.048   5.840
 3177POPC   GL243046  38.518  29.071   5.857
 3177POPC   C1A43047  38.275  29.091   6.288
 3177POPC   D2A43048  38.493  29.006   6.626
 3177POPC   C3A43049  38.474  29.183   6.992
 3177POPC   C4A43050  38.408  28.923   7.326
 3177POPC   C1B43051  38.752  29.262   6.165
 3177POPC   C2B43052  38.771  29.448   6.565
 3177POPC   C3B43053  38.926  29.463   6.970
 3177POPC   C4B43054  38.851  29.223   7.340
 3178POPC   NC343055   2.365  27.237   5.406
 3178POPC   PO443056   2.024  26.706   5.247
 3178POPC   GL143057   1.917  26.655   5.690
 3178POPC   GL243058   1.994  27.020   5.730
 3178POPC   C1A43059   1.748  26.496   6.098
 3178POPC   D2A43060   1.891  26.598   6.519
 3178POPC   C3A43061   1.737  26.585   6.951
 3178POPC   C4A43062   2.086  26.676   7.221
 3178POPC   C1B43063   2.228  27.178   6.091
 3178POPC   C2B43064   2.132  27.076   6.506
 3178POPC   C3B43065   1.952  27.049   6.889
 3178POPC   C4B43066   2.143  27.162   7.257
 3179POPC   NC343067   5.358  30.512   5.406
 3179POPC   PO443068   5.975  30.870   5.440
 3179POPC   GL143069   5.778  30.651   5.746
 3179POPC   GL243070   5.463  30.785   5.871
 3179POPC   C1A43071   5.903  30.651   6.155
 3179POPC   D2A43072   5.875  30.916   6.498
 3179POPC   C3A43073   5.832  30.784   6.870
 3179POPC   C4A43074   5.928  30.664   7.240
 3179POPC   C1B43075   5.419  30.746   6.325
 3179POPC   C2B43076   5.357  30.596   6.757
 3179POPC   C3B43077   5.411  30.760   7.188
 3179POPC   C4B43078   5.339  30.663   7.642
 3180POPC   NC343079  13.713  12.299   5.240
 3180POPC   PO443080  13.291  11.839   5.477
 3180POPC   GL143081  13.488  12.161   5.730
 3180POPC   GL243082  13.305  12.432   5.926
 3180POPC   C1A43083  13.595  12.067   6.158
 3180POPC   D2A43084  13.649  12.250   6.571
 3180POPC   C3A43085  13.843  11.949   6.822
 3180POPC   C4A43086  13.864  11.793   7.229
 3180POPC   C1B43087  13.723  12.568   6.149
 3180POPC   C2B43088  13.999  12.630   6.554
 3180POPC   C3B43089  13.906  12.447   6.974
 3180POPC   C4B43090  13.555  12.198   7.156
 3181POPC   NC343091  23.850  12.124   5.330
 3181POPC   PO443092  23.133  11.922   5.467
 3181POPC   GL143093  23.252  12.129   5.831
 3181POPC   GL243094  23.596  12.095   5.789
 3181POPC   C1A43095  23.362  12.040   6.257
 3181POPC   D2A43096  23.612  11.894   6.583
 3181POPC   C3A43097  23.418  12.091   6.923
 3181POPC   C4A43098  23.600  12.221   7.312
 3181POPC   C1B43099  23.888  12.028   6.141
 3181POPC   C2B43100  24.072  12.130   6.526
 3181POPC   C3B43101  23.941  12.198   6.920
 3181POPC   C4B43102  23.994  11.918   7.256
 3182POPC   NC343103  12.730  23.739   5.202
 3182POPC   PO443104  12.312  23.266   5.382
 3182POPC   GL143105  12.460  23.707   5.651
 3182POPC   GL243106  12.856  23.821   5.696
 3182POPC   C1A43107  12.552  23.974   6.051
 3182POPC   D2A43108  12.708  24.017   6.501
 3182POPC   C3A43109  12.497  23.813   6.873
 3182POPC   C4A43110  12.572  23.808   7.331
 3182POPC   C1B43111  13.004  23.749   6.158
 3182POPC   C2B43112  12.917  23.564   6.611
 3182POPC   C3B43113  12.923  23.530   7.088
 3182POPC   C4B43114  13.053  23.718   7.509
 3183POPC   NC343115  15.538  35.504   5.437
 3183POPC   PO443116  15.950  35.153   5.485
 3183POPC   GL143117  15.994  35.285   5.916
 3183POPC   GL243118  15.745  35.541   5.956
 3183POPC   C1A43119  15.895  35.241   6.379
 3183POPC   D2A43120  15.897  35.047   6.796
 3183POPC   C3A43121  16.112  35.354   7.052
 3183POPC   C4A43122  16.259  35.287   7.491
 3183POPC   C1B43123  15.626  35.682   6.386
 3183POPC   C2B43124  15.638  35.499   6.829
 3183POPC   C3B43125  15.413  35.433   7.239
 3183POPC   C4B43126  15.464  35.285   7.690
 3184POPC   NC343127  28.933  40.175   5.682
 3184POPC   PO443128  28.330  39.851   5.490
 3184POPC   GL143129  28.123  39.739   5.845
 3184POPC   GL243130  28.066  40.034   5.985
 3184POPC   C1A43131  28.381  39.671   6.211
 3184POPC   D2A43132  28.645  39.829   6.519
 3184POPC   C3A43133  28.373  39.783   6.844
 3184POPC   C4A43134  28.441  39.625   7.255
 3184POPC   C1B43135  28.309  40.199   6.296
 3184POPC   C2B43136  28.167  40.524   6.578
 3184POPC   C3B43137  28.138  40.435   7.006
 3184POPC   C4B43138  28.426  40.145   7.193
 3185POPC   NC343139  16.964  33.016   5.145
 3185POPC   PO443140  16.396  32.944   5.487
 3185POPC   GL143141  16.588  33.153   5.840
 3185POPC   GL243142  16.961  33.152   5.866
 3185POPC   C1A43143  16.697  32.963   6.254
 3185POPC   D2A43144  16.727  32.767   6.643
 3185POPC   C3A43145  16.692  33.071   7.000
 3185POPC   C4A43146  16.747  33.006   7.431
 3185POPC   C1B43147  17.199  32.848   6.192
 3185POPC   C2B43148  17.218  32.819   6.680
 3185POPC   C3B43149  17.185  32.929   7.131
 3185POPC   C4B43150  17.191  33.259   7.482
 3186POPC   NC343151  40.701  34.241   5.444
 3186POPC   PO443152  41.209  34.518   5.153
 3186POPC   GL143153  40.920  34.712   5.594
 3186POPC   GL243154  40.565  34.663   5.711
 3186POPC   C1A43155  40.978  34.757   6.081
 3186POPC   D2A43156  41.075  34.448   6.460
 3186POPC   C3A43157  40.864  34.331   6.888
 3186POPC   C4A43158  40.786  34.537   7.291
 3186POPC   C1B43159  40.627  34.356   6.078
 3186POPC   C2B43160  40.534  34.286   6.497
 3186POPC   C3B43161  40.393  34.543   6.860
 3186POPC   C4B43162  40.228  34.686   7.250
 3187POPC   NC343163  18.662  33.352   5.397
 3187POPC   PO443164  18.177  32.846   5.300
 3187POPC   GL143165  18.274  32.998   5.718
 3187POPC   GL243166  18.229  33.363   5.695
 3187POPC   C1A43167  18.326  32.817   6.140
 3187POPC   D2A43168  18.144  32.841   6.551
 3187POPC   C3A43169  18.322  32.732   6.929
 3187POPC   C4A43170  18.593  32.922   7.210
 3187POPC   C1B43171  18.100  33.302   6.125
 3187POPC   C2B43172  18.268  33.342   6.550
 3187POPC   C3B43173  18.101  33.220   6.953
 3187POPC   C4B43174  17.994  33.514   7.276
 3188POPC   NC343175  42.603  26.851   5.400
 3188POPC   PO443176  41.962  26.583   5.472
 3188POPC   GL143177  42.168  26.659   5.882
 3188POPC   GL243178  42.457  26.939   5.872
 3188POPC   C1A43179  42.142  26.976   6.270
 3188POPC   D2A43180  42.373  27.047   6.664
 3188POPC   C3A43181  42.152  26.953   7.036
 3188POPC   C4A43182  41.879  27.069   7.349
 3188POPC   C1B43183  42.529  26.650   6.219
 3188POPC   C2B43184  42.259  26.532   6.557
 3188POPC   C3B43185  42.429  26.546   6.953
 3188POPC   C4B43186  42.673  26.898   7.140
 3189POPC   NC343187  15.414  27.172   5.431
 3189POPC   PO443188  15.069  26.692   5.427
 3189POPC   GL143189  15.173  26.903   5.801
 3189POPC   GL243190  14.930  27.139   5.854
 3189POPC   C1A43191  15.325  26.899   6.228
 3189POPC   D2A43192  15.003  26.794   6.543
 3189POPC   C3A43193  15.179  26.756   6.912
 3189POPC   C4A43194  15.571  26.870   7.032
 3189POPC   C1B43195  15.054  27.310   6.204
 3189POPC   C2B43196  15.218  27.252   6.626
 3189POPC   C3B43197  15.183  27.237   7.089
 3189POPC   C4B43198  15.106  26.937   7.429
 3190POPC   NC343199   6.005  17.461   5.116
 3190POPC   PO443200   5.464  17.294   5.216
 3190POPC   GL143201   5.882  17.349   5.596
 3190POPC   GL243202   5.963  17.690   5.720
 3190POPC   C1A43203   5.929  17.166   6.057
 3190POPC   D2A43204   5.614  17.178   6.432
 3190POPC   C3A43205   5.752  17.391   6.825
 3190POPC   C4A43206   5.710  17.277   7.240
 3190POPC   C1B43207   6.041  17.963   6.088
 3190POPC   C2B43208   5.829  17.771   6.462
 3190POPC   C3B43209   5.620  17.918   6.849
 3190POPC   C4B43210   5.783  17.811   7.254
 3191POPC   NC343211  32.952  35.187   5.391
 3191POPC   PO443212  33.133  35.859   5.469
 3191POPC   GL143213  33.093  35.477   5.812
 3191POPC   GL243214  33.257  35.100   5.786
 3191POPC   C1A43215  32.761  35.284   6.126
 3191POPC   D2A43216  32.532  35.445   6.529
 3191POPC   C3A43217  32.819  35.417   6.890
 3191POPC   C4A43218  32.905  35.068   7.170
 3191POPC   C1B43219  33.270  35.161   6.214
 3191POPC   C2B43220  33.115  35.083   6.605
 3191POPC   C3B43221  33.344  35.193   6.964
 3191POPC   C4B43222  33.267  35.441   7.350
 3192POPC   NC343223  17.862  19.580   5.342
 3192POPC   PO443224  18.316  19.958   5.275
 3192POPC   GL143225  18.442  19.840   5.740
 3192POPC   GL243226  18.695  19.563   5.740
 3192POPC   C1A43227  18.394  19.998   6.195
 3192POPC   D2A43228  18.416  20.142   6.660
 3192POPC   C3A43229  18.233  20.019   7.070
 3192POPC   C4A43230  18.296  20.075   7.534
 3192POPC   C1B43231  18.470  19.482   6.127
 3192POPC   C2B43232  18.411  19.614   6.555
 3192POPC   C3B43233  18.417  19.510   6.981
 3192POPC   C4B43234  18.228  19.594   7.383
 3193POPC   NC343235  29.701   6.487   5.488
 3193POPC   PO443236  30.208   6.947   5.366
 3193POPC   GL143237  30.175   6.791   5.808
 3193POPC   GL243238  29.960   6.488   5.912
 3193POPC   C1A43239  30.073   6.829   6.257
 3193POPC   D2A43240  29.881   6.514   6.511
 3193POPC   C3A43241  29.947   6.676   6.916
 3193POPC   C4A43242  29.991   6.573   7.333
 3193POPC   C1B43243  29.574   6.308   6.134
 3193POPC   C2B43244  29.340   6.386   6.526
 3193POPC   C3B43245  29.376   6.412   6.992
 3193POPC   C4B43246  29.498   6.560   7.444
 3194POPC   NC343247  43.846  44.082   5.446
 3194POPC   PO443248  44.323  43.621   5.408
 3194POPC   GL143249  43.993  43.666   5.744
 3194POPC   GL243250  43.649  43.641   5.708
 3194POPC   C1A43251  44.006  43.859   6.140
 3194POPC   D2A43252  44.251  43.871   6.505
 3194POPC   C3A43253  44.127  43.733   6.886
 3194POPC   C4A43254  43.924  44.080   7.082
 3194POPC   C1B43255  43.551  43.637   6.146
 3194POPC   C2B43256  43.725  43.614   6.569
 3194POPC   C3B43257  43.628  43.669   7.032
 3194POPC   C4B43258  43.689  43.833   7.468
 3195POPC   NC343259  36.627   4.011   5.665
 3195POPC   PO443260  37.109   4.371   5.431
 3195POPC   GL143261  36.941   4.438   5.843
 3195POPC   GL243262  36.923   4.130   6.063
 3195POPC   C1A43263  36.885   4.643   6.236
 3195POPC   D2A43264  36.966   4.418   6.594
 3195POPC   C3A43265  36.802   4.474   7.001
 3195POPC   C4A43266  36.934   4.093   7.203
 3195POPC   C1B43267  36.584   4.221   6.285
 3195POPC   C2B43268  36.423   4.319   6.664
 3195POPC   C3B43269  36.419   4.129   7.058
 3195POPC   C4B43270  36.488   4.188   7.471
 3196POPC   NC343271  44.986  27.528   5.471
 3196POPC   PO443272  44.439  27.158   5.359
 3196POPC   GL143273  44.489  27.559   5.679
 3196POPC   GL243274  44.651  27.928   5.638
 3196POPC   C1A43275  44.558  27.603   6.158
 3196POPC   D2A43276  44.381  27.513   6.604
 3196POPC   C3A43277  44.553  27.481   7.037
 3196POPC   C4A43278  44.861  27.236   7.234
 3196POPC   C1B43279  44.872  28.007   6.053
 3196POPC   C2B43280  44.699  27.978   6.485
 3196POPC   C3B43281  44.752  27.958   6.930
 3196POPC   C4B43282  44.975  27.720   7.237
 3197POPC   NC343283  11.167  10.576   5.405
 3197POPC   PO443284  11.668  10.988   5.623
 3197POPC   GL143285  11.445  10.752   5.909
 3197POPC   GL243286  11.388  10.399   5.836
 3197POPC   C1A43287  11.187  10.734   6.281
 3197POPC   D2A43288  11.011  10.612   6.668
 3197POPC   C3A43289  11.322  10.393   6.857
 3197POPC   C4A43290  11.571  10.624   7.086
 3197POPC   C1B43291  11.715  10.361   6.144
 3197POPC   C2B43292  11.719  10.202   6.551
 3197POPC   C3B43293  11.875  10.261   6.946
 3197POPC   C4B43294  11.681  10.177   7.369
 3198POPC   NC343295  32.570  33.733   5.500
 3198POPC   PO443296  32.189  34.269   5.371
 3198POPC   GL143297  32.152  34.103   5.789
 3198POPC   GL243298  32.192  33.748   5.836
 3198POPC   C1A43299  32.025  34.039   6.216
 3198POPC   D2A43300  32.287  33.870   6.487
 3198POPC   C3A43301  32.217  34.025   6.872
 3198POPC   C4A43302  32.391  34.217   7.245
 3198POPC   C1B43303  32.526  33.599   6.122
 3198POPC   C2B43304  32.579  33.420   6.501
 3198POPC   C3B43305  32.327  33.485   6.827
 3198POPC   C4B43306  32.447  33.714   7.193
 3199POPC   NC343307  26.237  27.025   5.439
 3199POPC   PO443308  25.603  26.695   5.482
 3199POPC   GL143309  25.736  26.851   5.878
 3199POPC   GL243310  26.090  26.910   5.908
 3199POPC   C1A43311  25.812  26.904   6.329
 3199POPC   D2A43312  25.711  26.735   6.722
 3199POPC   C3A43313  25.897  26.864   7.094
 3199POPC   C4A43314  26.059  26.592   7.454
 3199POPC   C1B43315  26.348  26.730   6.221
 3199POPC   C2B43316  26.261  26.764   6.666
 3199POPC   C3B43317  26.397  26.745   7.086
 3199POPC   C4B43318  26.279  27.088   7.361
 3200POPC   NC343319  17.043  27.911   5.456
 3200POPC   PO443320  16.691  27.257   5.330
 3200POPC   GL143321  16.628  27.543   5.677
 3200POPC   GL243322  16.801  27.271   5.838
 3200POPC   C1A43323  16.760  27.734   6.097
 3200POPC   D2A43324  16.931  27.706   6.558
 3200POPC   C3A43325  16.578  27.636   6.821
 3200POPC   C4A43326  16.392  27.581   7.188
 3200POPC   C1B43327  16.984  27.288   6.217
 3200POPC   C2B43328  16.749  27.214   6.551
 3200POPC   C3B43329  16.901  27.253   6.942
 3200POPC   C4B43330  16.963  27.605   7.206
 3201POPC   NC343331  19.603  15.819   5.453
 3201POPC   PO443332  20.058  16.340   5.548
 3201POPC   GL143333  19.910  16.070   5.828
 3201POPC   GL243334  19.979  15.695   5.808
 3201POPC   C1A43335  19.928  16.256   6.233
 3201POPC   D2A43336  19.622  16.228   6.541
 3201POPC   C3A43337  19.654  16.369   6.977
 3201POPC   C4A43338  19.600  16.180   7.398
 3201POPC   C1B43339  19.745  15.747   6.210
 3201POPC   C2B43340  19.569  15.719   6.621
 3201POPC   C3B43341  19.697  15.838   7.025
 3201POPC   C4B43342  19.950  15.533   7.242
 3202POPC   NC343343  27.363  18.847   5.204
 3202POPC   PO443344  28.015  18.932   5.205
 3202POPC   GL143345  27.600  18.872   5.637
 3202POPC   GL243346  27.296  18.735   5.787
 3202POPC   C1A43347  27.517  19.110   6.102
 3202POPC   D2A43348  27.668  19.182   6.539
 3202POPC   C3A43349  27.430  18.995   6.855
 3202POPC   C4A43350  27.282  18.884   7.274
 3202POPC   C1B43351  27.647  18.622   6.105
 3202POPC   C2B43352  27.835  18.701   6.515
 3202POPC   C3B43353  27.936  18.875   6.913
 3202POPC   C4B43354  27.774  18.759   7.338
 3203POPC   NC343355  37.579  14.237   5.400
 3203POPC   PO443356  37.876  14.770   5.373
 3203POPC   GL143357  37.716  14.513   5.798
 3203POPC   GL243358  37.374  14.311   5.857
 3203POPC   C1A43359  37.741  14.253   6.206
 3203POPC   D2A43360  37.482  14.273   6.570
 3203POPC   C3A43361  37.610  14.495   6.949
 3203POPC   C4A43362  37.950  14.498   7.266
 3203POPC   C1B43363  37.258  13.990   6.195
 3203POPC   C2B43364  37.302  13.806   6.648
 3203POPC   C3B43365  37.395  14.024   7.063
 3203POPC   C4B43366  37.511  14.300   7.419
 3204POPC   NC343367  13.702  29.890   4.925
 3204POPC   PO443368  13.377  29.674   5.421
 3204POPC   GL143369  13.608  29.830   5.758
 3204POPC   GL243370  13.525  30.201   5.739
 3204POPC   C1A43371  13.701  29.652   6.172
 3204POPC   D2A43372  13.541  29.630   6.601
 3204POPC   C3A43373  13.616  29.849   6.998
 3204POPC   C4A43374  13.683  29.806   7.436
 3204POPC   C1B43375  13.422  30.076   6.190
 3204POPC   C2B43376  13.354  30.102   6.636
 3204POPC   C3B43377  13.196  30.132   7.075
 3204POPC   C4B43378  13.207  30.052   7.514
 3205POPC   NC343379  42.221  21.000   4.945
 3205POPC   PO443380  42.174  20.345   5.308
 3205POPC   GL143381  42.399  20.593   5.657
 3205POPC   GL243382  42.147  20.555   5.833
 3205POPC   C1A43383  42.553  20.605   6.161
 3205POPC   D2A43384  42.616  20.400   6.583
 3205POPC   C3A43385  42.440  20.627   6.967
 3205POPC   C4A43386  42.470  20.880   7.383
 3205POPC   C1B43387  42.081  20.815   6.183
 3205POPC   C2B43388  42.076  20.632   6.572
 3205POPC   C3B43389  41.923  20.772   6.938
 3205POPC   C4B43390  42.062  20.591   7.313
 3206POPC   NC343391  30.416  42.860   5.456
 3206POPC   PO443392  30.859  42.290   5.345
 3206POPC   GL143393  30.716  42.431   5.753
 3206POPC   GL243394  30.911  42.710   5.815
 3206POPC   C1A43395  30.868  42.345   6.208
 3206POPC   D2A43396  30.891  42.314   6.684
 3206POPC   C3A43397  30.685  42.090   7.031
 3206POPC   C4A43398  30.434  42.312   7.325
 3206POPC   C1B43399  31.085  42.852   6.225
 3206POPC   C2B43400  30.915  42.881   6.679
 3206POPC   C3B43401  30.822  42.623   7.092
 3206POPC   C4B43402  30.905  42.372   7.458
 3207POPC   NC343403  42.112   5.519   5.357
 3207POPC   PO443404  42.644   5.402   5.708
 3207POPC   GL143405  42.220   5.491   5.904
 3207POPC   GL243406  41.935   5.723   5.801
 3207POPC   C1A43407  42.204   5.781   6.263
 3207POPC   D2A43408  42.456   5.902   6.602
 3207POPC   C3A43409  42.211   5.965   6.955
 3207POPC   C4A43410  42.349   5.750   7.284
 3207POPC   C1B43411  41.754   5.569   6.188
 3207POPC   C2B43412  41.877   5.560   6.629
 3207POPC   C3B43413  41.899   5.586   7.086
 3207POPC   C4B43414  41.865   5.898   7.403
 3208POPC   NC343415  28.054  12.970   5.015
 3208POPC   PO443416  28.481  12.823   5.458
 3208POPC   GL143417  28.235  12.847   5.798
 3208POPC   GL243418  28.479  12.679   6.008
 3208POPC   C1A43419  28.079  12.996   6.198
 3208POPC   D2A43420  28.170  12.877   6.596
 3208POPC   C3A43421  28.280  13.140   6.912
 3208POPC   C4A43422  28.124  12.926   7.257
 3208POPC   C1B43423  28.637  12.951   6.357
 3208POPC   C2B43424  28.746  12.960   6.813
 3208POPC   C3B43425  28.652  12.851   7.261
 3208POPC   C4B43426  28.758  12.531   7.599
 3209POPC   NC343427  19.336   8.573   5.562
 3209POPC   PO443428  18.812   8.883   5.393
 3209POPC   GL143429  19.073   9.065   5.734
 3209POPC   GL243430  19.078   8.797   5.913
 3209POPC   C1A43431  19.071   9.266   6.179
 3209POPC   D2A43432  19.277   9.206   6.620
 3209POPC   C3A43433  19.075   9.189   7.034
 3209POPC   C4A43434  18.999   9.174   7.503
 3209POPC   C1B43435  18.962   8.765   6.273
 3209POPC   C2B43436  19.123   8.698   6.638
 3209POPC   C3B43437  19.257   8.700   7.004
 3209POPC   C4B43438  18.972   8.725   7.290
 3210POPC   NC343439  40.274  42.144   5.393
 3210POPC   PO443440  39.642  42.429   5.401
 3210POPC   GL143441  39.942  42.328   5.749
 3210POPC   GL243442  40.220  42.612   5.715
 3210POPC   C1A43443  40.195  42.132   6.124
 3210POPC   D2A43444  40.412  42.285   6.531
 3210POPC   C3A43445  40.256  42.104   6.932
 3210POPC   C4A43446  39.943  42.224   7.226
 3210POPC   C1B43447  40.059  42.618   6.159
 3210POPC   C2B43448  39.934  42.453   6.562
 3210POPC   C3B43449  40.163  42.600   6.898
 3210POPC   C4B43450  40.042  42.743   7.272
 3211POPC   NC343451  42.576  43.265   5.240
 3211POPC   PO443452  41.943  43.141   5.348
 3211POPC   GL143453  42.248  43.245   5.646
 3211POPC   GL243454  41.992  43.205   5.868
 3211POPC   C1A43455  42.448  43.190   6.068
 3211POPC   D2A43456  42.258  43.299   6.464
 3211POPC   C3A43457  42.431  43.102   6.832
 3211POPC   C4A43458  42.383  43.009   7.243
 3211POPC   C1B43459  41.970  42.870   6.166
 3211POPC   C2B43460  42.117  42.791   6.565
 3211POPC   C3B43461  41.946  42.918   6.948
 3211POPC   C4B43462  41.960  42.743   7.344
 3212POPC   NC343463  40.216  27.646   5.522
 3212POPC   PO443464  40.887  27.801   5.379
 3212POPC   GL143465  40.947  27.495   5.722
 3212POPC   GL243466  40.619  27.559   5.846
 3212POPC   C1A43467  40.843  27.186   6.100
 3212POPC   D2A43468  40.520  27.282   6.424
 3212POPC   C3A43469  40.689  27.304   6.852
 3212POPC   C4A43470  40.596  27.187   7.273
 3212POPC   C1B43471  40.490  27.778   6.228
 3212POPC   C2B43472  40.481  27.783   6.688
 3212POPC   C3B43473  40.564  27.721   7.123
 3212POPC   C4B43474  40.969  27.810   7.308
 3213POPC   NC343475   5.249   8.327   5.498
 3213POPC   PO443476   4.598   8.033   5.365
 3213POPC   GL143477   4.840   8.056   5.779
 3213POPC   GL243478   4.909   8.408   5.894
 3213POPC   C1A43479   4.905   8.055   6.268
 3213POPC   D2A43480   4.727   8.102   6.708
 3213POPC   C3A43481   5.076   8.023   7.023
 3213POPC   C4A43482   5.420   8.323   7.202
 3213POPC   C1B43483   4.807   8.602   6.280
 3213POPC   C2B43484   5.042   8.506   6.643
 3213POPC   C3B43485   4.965   8.525   7.064
 3213POPC   C4B43486   4.740   8.556   7.383
 3214POPC   NC343487  13.823  41.067   5.430
 3214POPC   PO443488  13.639  41.727   5.345
 3214POPC   GL143489  13.535  41.794   5.784
 3214POPC   GL243490  13.609  41.435   5.837
 3214POPC   C1A43491  13.679  41.892   6.224
 3214POPC   D2A43492  13.755  41.653   6.618
 3214POPC   C3A43493  13.514  41.651   7.015
 3214POPC   C4A43494  13.589  41.816   7.428
 3214POPC   C1B43495  13.403  41.467   6.244
 3214POPC   C2B43496  13.389  41.280   6.664
 3214POPC   C3B43497  13.375  41.163   7.094
 3214POPC   C4B43498  13.338  41.388   7.455
 3215POPC   NC343499  42.107  29.292   5.396
 3215POPC   PO443500  42.385  28.707   5.348
 3215POPC   GL143501  42.253  28.909   5.763
 3215POPC   GL243502  42.255  29.267   5.864
 3215POPC   C1A43503  42.348  28.924   6.229
 3215POPC   D2A43504  42.127  28.828   6.617
 3215POPC   C3A43505  42.394  28.739   6.953
 3215POPC   C4A43506  42.339  28.749   7.365
 3215POPC   C1B43507  42.138  29.446   6.236
 3215POPC   C2B43508  42.264  29.324   6.635
 3215POPC   C3B43509  42.178  29.175   7.062
 3215POPC   C4B43510  42.247  29.262   7.499
 3216POPC   NC343511  23.938  36.646   5.548
 3216POPC   PO443512  24.206  36.142   5.154
 3216POPC   GL143513  24.008  36.137   5.623
 3216POPC   GL243514  23.754  36.304   5.876
 3216POPC   C1A43515  23.956  35.889   6.021
 3216POPC   D2A43516  23.976  36.062   6.440
 3216POPC   C3A43517  23.847  35.898   6.847
 3216POPC   C4A43518  23.870  36.035   7.265
 3216POPC   C1B43519  23.438  36.367   6.207
 3216POPC   C2B43520  23.404  36.104   6.572
 3216POPC   C3B43521  23.435  36.190   7.006
 3216POPC   C4B43522  23.150  36.441   7.235
 3217POPC   NC343523  30.883  28.904   5.413
 3217POPC   PO443524  30.522  29.459   5.291
 3217POPC   GL143525  30.456  29.221   5.691
 3217POPC   GL243526  30.792  29.189   5.809
 3217POPC   C1A43527  30.454  29.314   6.161
 3217POPC   D2A43528  30.559  29.545   6.528
 3217POPC   C3A43529  30.397  29.303   6.834
 3217POPC   C4A43530  30.280  29.104   7.213
 3217POPC   C1B43531  30.966  29.045   6.175
 3217POPC   C2B43532  30.883  29.124   6.590
 3217POPC   C3B43533  31.029  29.040   6.987
 3217POPC   C4B43534  30.999  29.241   7.373
 3218POPC   NC343535  13.528   4.310   5.398
 3218POPC   PO443536  13.943   4.835   5.327
 3218POPC   GL143537  13.823   4.586   5.750
 3218POPC   GL243538  13.475   4.462   5.877
 3218POPC   C1A43539  13.863   4.387   6.193
 3218POPC   D2A43540  13.724   4.230   6.636
 3218POPC   C3A43541  13.583   4.540   6.967
 3218POPC   C4A43542  13.864   4.484   7.301
 3218POPC   C1B43543  13.372   4.218   6.263
 3218POPC   C2B43544  13.220   4.296   6.702
 3218POPC   C3B43545  13.113   4.167   7.134
 3218POPC   C4B43546  13.261   3.960   7.523
 3219POPC   NC343547  39.773  30.767   5.171
 3219POPC   PO443548  40.245  30.342   5.388
 3219POPC   GL143549  40.098  30.599   5.725
 3219POPC   GL243550  40.376  30.495   5.915
 3219POPC   C1A43551  40.019  30.868   6.089
 3219POPC   D2A43552  39.791  30.767   6.462
 3219POPC   C3A43553  39.893  30.901   6.866
 3219POPC   C4A43554  39.758  30.859   7.253
 3219POPC   C1B43555  40.088  30.393   6.275
 3219POPC   C2B43556  40.074  30.408   6.729
 3219POPC   C3B43557  40.061  30.461   7.146
 3219POPC   C4B43558  40.011  30.329   7.553
 3220POPC   NC343559   0.730  36.803   5.393
 3220POPC   PO443560   0.121  36.881   5.682
 3220POPC   GL143561   0.492  36.720   5.841
 3220POPC   GL243562   0.664  37.040   5.837
 3220POPC   C1A43563   0.526  36.754   6.270
 3220POPC   D2A43564   0.228  36.684   6.583
 3220POPC   C3A43565   0.437  36.798   6.952
 3220POPC   C4A43566   0.263  36.858   7.350
 3220POPC   C1B43567   0.646  37.249   6.207
 3220POPC   C2B43568   0.785  37.089   6.621
 3220POPC   C3B43569   0.872  37.273   7.021
 3220POPC   C4B43570   0.488  37.281   7.203
 3221POPC   NC343571  41.325  39.923   5.314
 3221POPC   PO443572  41.861  40.296   5.380
 3221POPC   GL143573  41.755  40.279   5.794
 3221POPC   GL243574  41.420  40.156   5.773
 3221POPC   C1A43575  41.869  40.274   6.235
 3221POPC   D2A43576  41.625  40.242   6.621
 3221POPC   C3A43577  41.836  40.118   6.989
 3221POPC   C4A43578  42.076  40.305   7.311
 3221POPC   C1B43579  41.498  39.931   6.174
 3221POPC   C2B43580  41.299  39.817   6.584
 3221POPC   C3B43581  41.248  40.008   6.960
 3221POPC   C4B43582  41.518  39.842   7.253
 3222POPC   NC343583  28.565  14.690   5.323
 3222POPC   PO443584  28.041  14.360   5.357
 3222POPC   GL143585  28.201  14.380   5.785
 3222POPC   GL243586  28.518  14.555   5.821
 3222POPC   C1A43587  28.116  14.262   6.229
 3222POPC   D2A43588  27.916  14.105   6.626
 3222POPC   C3A43589  28.128  14.260   7.001
 3222POPC   C4A43590  28.263  14.613   7.265
 3222POPC   C1B43591  28.636  14.265   6.174
 3222POPC   C2B43592  28.486  14.278   6.623
 3222POPC   C3B43593  28.681  14.537   6.955
 3222POPC   C4B43594  28.872  14.581   7.380
 3223POPC   NC343595   3.519  43.300   5.435
 3223POPC   PO443596   3.321  42.624   5.440
 3223POPC   GL143597   3.345  42.937   5.729
 3223POPC   GL243598   3.641  42.855   5.856
 3223POPC   C1A43599   3.253  43.080   6.161
 3223POPC   D2A43600   3.120  42.982   6.603
 3223POPC   C3A43601   3.212  43.227   6.978
 3223POPC   C4A43602   3.409  43.306   7.375
 3223POPC   C1B43603   3.775  43.042   6.232
 3223POPC   C2B43604   3.618  43.129   6.659
 3223POPC   C3B43605   3.700  42.979   7.085
 3223POPC   C4B43606   4.098  42.874   7.339
 3224POPC   NC343607  25.437  14.707   5.240
 3224POPC   PO443608  25.007  14.238   5.468
 3224POPC   GL143609  25.142  14.389   5.855
 3224POPC   GL243610  25.421  14.220   5.886
 3224POPC   C1A43611  25.143  14.205   6.296
 3224POPC   D2A43612  25.388  14.326   6.653
 3224POPC   C3A43613  25.231  14.486   7.078
 3224POPC   C4A43614  24.913  14.379   7.390
 3224POPC   C1B43615  25.504  14.556   6.192
 3224POPC   C2B43616  25.665  14.800   6.537
 3224POPC   C3B43617  25.697  14.619   6.918
 3224POPC   C4B43618  25.774  14.689   7.344
 3225POPC   NC343619  41.889  12.417   5.414
 3225POPC   PO443620  41.334  12.765   5.342
 3225POPC   GL143621  41.592  12.774   5.714
 3225POPC   GL243622  41.810  13.072   5.702
 3225POPC   C1A43623  41.563  12.520   6.133
 3225POPC   D2A43624  41.310  12.538   6.514
 3225POPC   C3A43625  41.268  12.844   6.853
 3225POPC   C4A43626  41.356  12.809   7.275
 3225POPC   C1B43627  41.924  12.864   6.088
 3225POPC   C2B43628  41.724  12.890   6.475
 3225POPC   C3B43629  41.768  12.792   6.884
 3225POPC   C4B43630  41.862  12.911   7.281
 3226POPC   NC343631   9.524  14.145   5.362
 3226POPC   PO443632   9.687  14.748   5.388
 3226POPC   GL143633   9.830  14.433   5.685
 3226POPC   GL243634   9.632  14.145   5.843
 3226POPC   C1A43635   9.987  14.368   6.112
 3226POPC   D2A43636   9.840  14.182   6.483
 3226POPC   C3A43637   9.994  14.409   6.798
 3226POPC   C4A43638  10.094  14.419   7.200
 3226POPC   C1B43639   9.415  14.287   6.195
 3226POPC   C2B43640   9.324  14.132   6.596
 3226POPC   C3B43641   9.613  14.092   6.959
 3226POPC   C4B43642   9.506  14.493   7.163
 3227POPC   NC343643  29.261  14.558   5.411
 3227POPC   PO443644  29.447  15.235   5.468
 3227POPC   GL143645  29.100  15.160   5.761
 3227POPC   GL243646  28.949  14.833   5.712
 3227POPC   C1A43647  29.242  15.069   6.198
 3227POPC   D2A43648  29.395  14.825   6.567
 3227POPC   C3A43649  29.347  15.153   6.871
 3227POPC   C4A43650  29.366  15.295   7.267
 3227POPC   C1B43651  28.852  14.749   6.172
 3227POPC   C2B43652  28.893  14.940   6.613
 3227POPC   C3B43653  28.920  14.995   7.084
 3227POPC   C4B43654  28.966  15.094   7.517
 3228POPC   NC343655  39.853  42.938   5.372
 3228POPC   PO443656  40.132  43.591   5.393
 3228POPC   GL143657  40.206  43.238   5.634
 3228POPC   GL243658  39.870  43.277   5.761
 3228POPC   C1A43659  40.242  43.091   6.062
 3228POPC   D2A43660  40.241  43.263   6.480
 3228POPC   C3A43661  40.123  43.111   6.882
 3228POPC   C4A43662  40.389  43.105   7.254
 3228POPC   C1B43663  39.719  42.989   6.046
 3228POPC   C2B43664  39.799  42.949   6.473
 3228POPC   C3B43665  39.674  42.829   6.875
 3228POPC   C4B43666  39.704  43.129   7.208
 3229POPC   NC343667  34.139  24.300   5.397
 3229POPC   PO443668  33.661  24.813   5.235
 3229POPC   GL143669  33.742  24.510   5.667
 3229POPC   GL243670  33.778  24.107   5.763
 3229POPC   C1A43671  33.923  24.434   6.116
 3229POPC   D2A43672  34.050  24.442   6.554
 3229POPC   C3A43673  33.886  24.551   6.965
 3229POPC   C4A43674  34.033  24.416   7.358
 3229POPC   C1B43675  33.541  24.120   6.207
 3229POPC   C2B43676  33.514  24.356   6.644
 3229POPC   C3B43677  33.423  24.353   7.104
 3229POPC   C4B43678  33.580  24.226   7.509
 3230POPC   NC343679  30.128  17.046   5.347
 3230POPC   PO443680  29.768  16.455   5.310
 3230POPC   GL143681  30.025  16.636   5.676
 3230POPC   GL243682  30.312  16.397   5.689
 3230POPC   C1A43683  29.905  16.892   6.089
 3230POPC   D2A43684  29.678  16.819   6.515
 3230POPC   C3A43685  29.797  16.870   6.975
 3230POPC   C4A43686  29.701  16.562   7.333
 3230POPC   C1B43687  30.263  16.517   6.138
 3230POPC   C2B43688  30.245  16.309   6.557
 3230POPC   C3B43689  30.101  16.449   6.975
 3230POPC   C4B43690  30.172  16.731   7.344
 3231POPC   NC343691  10.648  14.179   5.287
 3231POPC   PO443692  10.006  14.016   5.466
 3231POPC   GL143693  10.337  14.310   5.686
 3231POPC   GL243694  10.639  14.573   5.695
 3231POPC   C1A43695  10.500  14.330   6.114
 3231POPC   D2A43696  10.378  14.139   6.504
 3231POPC   C3A43697  10.509  14.338   6.885
 3231POPC   C4A43698  10.514  14.149   7.288
 3231POPC   C1B43699  10.849  14.764   6.081
 3231POPC   C2B43700  10.956  14.733   6.552
 3231POPC   C3B43701  10.822  14.829   7.001
 3231POPC   C4B43702  10.560  14.653   7.330
 3232POPC   NC343703  32.825  24.201   5.440
 3232POPC   PO443704  33.056  23.480   5.417
 3232POPC   GL143705  32.934  23.617   5.850
 3232POPC   GL243706  32.711  23.884   5.812
 3232POPC   C1A43707  33.065  23.575   6.301
 3232POPC   D2A43708  33.266  23.894   6.587
 3232POPC   C3A43709  33.225  23.847   7.033
 3232POPC   C4A43710  33.224  23.448   7.259
 3232POPC   C1B43711  32.774  23.989   6.209
 3232POPC   C2B43712  32.691  23.811   6.584
 3232POPC   C3B43713  32.687  23.888   6.977
 3232POPC   C4B43714  32.796  23.707   7.324
 3233POPC   NC343715  42.071   4.178   5.518
 3233POPC   PO443716  42.683   3.967   5.627
 3233POPC   GL143717  42.478   4.358   5.817
 3233POPC   GL243718  42.132   4.286   6.013
 3233POPC   C1A43719  42.540   4.527   6.228
 3233POPC   D2A43720  42.402   4.302   6.558
 3233POPC   C3A43721  42.550   4.402   6.929
 3233POPC   C4A43722  42.308   4.267   7.225
 3233POPC   C1B43723  42.058   4.643   6.304
 3233POPC   C2B43724  42.225   4.822   6.683
 3233POPC   C3B43725  42.212   4.756   7.110
 3233POPC   C4B43726  42.336   4.772   7.525
 3234POPC   NC343727  19.887   8.078   5.418
 3234POPC   PO443728  19.471   8.426   5.147
 3234POPC   GL143729  19.800   8.488   5.674
 3234POPC   GL243730  19.835   8.134   5.911
 3234POPC   C1A43731  19.784   8.534   6.185
 3234POPC   D2A43732  19.717   8.181   6.517
 3234POPC   C3A43733  19.748   8.105   6.977
 3234POPC   C4A43734  19.684   8.484   7.236
 3234POPC   C1B43735  19.987   7.837   6.223
 3234POPC   C2B43736  20.259   7.791   6.592
 3234POPC   C3B43737  20.298   7.785   7.044
 3234POPC   C4B43738  20.127   8.105   7.328
 3235POPC   NC343739  18.026   0.651   5.486
 3235POPC   PO443740  18.618   0.526   5.218
 3235POPC   GL143741  18.443   0.492   5.717
 3235POPC   GL243742  18.145   0.260   5.814
 3235POPC   C1A43743  18.236   0.615   6.162
 3235POPC   D2A43744  17.997   0.626   6.577
 3235POPC   C3A43745  18.200   0.724   6.922
 3235POPC   C4A43746  18.356   0.839   7.292
 3235POPC   C1B43747  18.356   0.131   6.216
 3235POPC   C2B43748  18.387   0.329   6.604
 3235POPC   C3B43749  18.225   0.216   6.990
 3235POPC   C4B43750  18.080   0.409   7.340
 3236POPC   NC343751  30.601   7.179   5.441
 3236POPC   PO443752  30.912   7.778   5.543
 3236POPC   GL143753  30.735   7.476   5.859
 3236POPC   GL243754  30.846   7.126   5.893
 3236POPC   C1A43755  30.698   7.398   6.313
 3236POPC   D2A43756  30.969   7.323   6.656
 3236POPC   C3A43757  30.795   7.310   7.080
 3236POPC   C4A43758  30.807   7.272   7.522
 3236POPC   C1B43759  30.587   6.913   6.229
 3236POPC   C2B43760  30.406   7.094   6.626
 3236POPC   C3B43761  30.357   7.030   7.074
 3236POPC   C4B43762  30.286   7.300   7.460
 3237POPC   NC343763   2.188  29.850   5.481
 3237POPC   PO443764   1.620  30.305   5.457
 3237POPC   GL143765   1.660  29.953   5.761
 3237POPC   GL243766   1.716  29.597   5.645
 3237POPC   C1A43767   1.947  29.888   6.105
 3237POPC   D2A43768   2.130  30.044   6.486
 3237POPC   C3A43769   1.939  29.951   6.874
 3237POPC   C4A43770   2.283  30.022   7.137
 3237POPC   C1B43771   1.693  29.442   6.075
 3237POPC   C2B43772   1.839  29.568   6.484
 3237POPC   C3B43773   1.968  29.426   6.862
 3237POPC   C4B43774   2.032  29.606   7.240
 3238POPC   NC343775  16.726  41.929   5.418
 3238POPC   PO443776  16.455  41.242   5.383
 3238POPC   GL143777  16.565  41.477   5.765
 3238POPC   GL243778  16.890  41.595   5.801
 3238POPC   C1A43779  16.606  41.526   6.237
 3238POPC   D2A43780  16.756  41.696   6.657
 3238POPC   C3A43781  16.656  41.442   7.041
 3238POPC   C4A43782  16.336  41.208   7.275
 3238POPC   C1B43783  16.951  41.885   6.165
 3238POPC   C2B43784  17.146  42.025   6.551
 3238POPC   C3B43785  17.026  42.105   6.968
 3238POPC   C4B43786  16.784  41.876   7.251
 3239POPC   NC343787  29.368  13.857   5.364
 3239POPC   PO443788  28.846  14.366   5.459
 3239POPC   GL143789  29.038  14.340   5.836
 3239POPC   GL243790  29.306  14.169   5.761
 3239POPC   C1A43791  29.274  14.422   6.220
 3239POPC   D2A43792  28.992  14.361   6.558
 3239POPC   C3A43793  29.159  14.305   6.951
 3239POPC   C4A43794  29.349  14.661   7.147
 3239POPC   C1B43795  29.601  13.983   6.038
 3239POPC   C2B43796  29.753  14.165   6.415
 3239POPC   C3B43797  29.687  14.383   6.798
 3239POPC   C4B43798  29.613  14.089   7.112
 3240POPC   NC343799  25.454  15.125   4.693
 3240POPC   PO443800  25.401  15.153   5.382
 3240POPC   GL143801  25.371  14.910   5.781
 3240POPC   GL243802  25.487  15.231   5.935
 3240POPC   C1A43803  25.214  14.952   6.235
 3240POPC   D2A43804  25.165  14.786   6.643
 3240POPC   C3A43805  25.346  14.983   7.016
 3240POPC   C4A43806  25.065  14.934   7.351
 3240POPC   C1B43807  25.420  15.432   6.322
 3240POPC   C2B43808  25.559  15.366   6.734
 3240POPC   C3B43809  25.567  15.455   7.176
 3240POPC   C4B43810  25.730  15.534   7.591
 3241POPC   NC343811  43.298  33.984   5.400
 3241POPC   PO443812  42.675  33.902   5.439
 3241POPC   GL143813  42.932  33.829   5.833
 3241POPC   GL243814  43.270  33.678   5.873
 3241POPC   C1A43815  43.056  33.966   6.271
 3241POPC   D2A43816  42.869  33.888   6.677
 3241POPC   C3A43817  43.092  33.820   7.025
 3241POPC   C4A43818  43.362  33.535   7.206
 3241POPC   C1B43819  43.048  33.456   6.246
 3241POPC   C2B43820  43.068  33.318   6.705
 3241POPC   C3B43821  42.879  33.348   7.119
 3241POPC   C4B43822  42.872  33.686   7.480
 3242POPC   NC343823   3.824  12.909   5.404
 3242POPC   PO443824   3.338  12.453   5.451
 3242POPC   GL143825   3.581  12.653   5.795
 3242POPC   GL243826   3.457  12.996   5.826
 3242POPC   C1A43827   3.463  12.594   6.241
 3242POPC   D2A43828   3.276  12.894   6.508
 3242POPC   C3A43829   3.467  12.996   6.879
 3242POPC   C4A43830   3.528  12.759   7.243
 3242POPC   C1B43831   3.660  13.077   6.235
 3242POPC   C2B43832   3.945  12.973   6.589
 3242POPC   C3B43833   3.964  13.047   7.029
 3242POPC   C4B43834   3.819  13.105   7.469
 3243POPC   NC343835  39.058  37.959   5.407
 3243POPC   PO443836  39.221  37.306   5.389
 3243POPC   GL143837  39.383  37.542   5.804
 3243POPC   GL243838  39.494  37.922   5.827
 3243POPC   C1A43839  39.225  37.718   6.231
 3243POPC   D2A43840  39.002  37.812   6.666
 3243POPC   C3A43841  39.006  37.499   7.035
 3243POPC   C4A43842  39.280  37.309   7.358
 3243POPC   C1B43843  39.633  38.060   6.252
 3243POPC   C2B43844  39.532  37.798   6.630
 3243POPC   C3B43845  39.407  37.822   7.048
 3243POPC   C4B43846  39.471  37.749   7.490
 3244POPC   NC343847  42.083  26.056   5.379
 3244POPC   PO443848  42.659  26.385   5.498
 3244POPC   GL143849  42.409  26.173   5.793
 3244POPC   GL243850  42.282  25.824   5.793
 3244POPC   C1A43851  42.427  26.153   6.235
 3244POPC   D2A43852  42.686  26.229   6.590
 3244POPC   C3A43853  42.571  26.037   6.982
 3244POPC   C4A43854  42.385  26.217   7.344
 3244POPC   C1B43855  42.517  25.664   6.126
 3244POPC   C2B43856  42.386  25.713   6.565
 3244POPC   C3B43857  42.184  25.652   6.988
 3244POPC   C4B43858  42.294  25.724   7.382
 3245POPC   NC343859  33.502  21.447   5.523
 3245POPC   PO443860  34.041  21.407   5.116
 3245POPC   GL143861  34.048  21.364   5.601
 3245POPC   GL243862  33.891  21.048   5.749
 3245POPC   C1A43863  33.869  21.498   6.049
 3245POPC   D2A43864  33.795  21.688   6.461
 3245POPC   C3A43865  33.942  21.462   6.802
 3245POPC   C4A43866  33.742  21.333   7.140
 3245POPC   C1B43867  33.560  21.073   6.111
 3245POPC   C2B43868  33.506  21.229   6.525
 3245POPC   C3B43869  33.372  21.009   6.868
 3245POPC   C4B43870  33.590  20.860   7.187
 3246POPC   NC343871  35.271  21.580   5.446
 3246POPC   PO443872  35.259  20.916   5.496
 3246POPC   GL143873  35.514  21.157   5.820
 3246POPC   GL243874  35.510  21.506   5.875
 3246POPC   C1A43875  35.653  21.203   6.273
 3246POPC   D2A43876  35.623  21.166   6.745
 3246POPC   C3A43877  35.271  21.259   7.076
 3246POPC   C4A43878  35.359  21.248   7.563
 3246POPC   C1B43879  35.306  21.697   6.209
 3246POPC   C2B43880  35.326  21.595   6.641
 3246POPC   C3B43881  35.596  21.647   6.986
 3246POPC   C4B43882  35.322  21.703   7.332
 3247POPC   NC343883  31.836  18.174   5.324
 3247POPC   PO443884  31.154  18.352   5.515
 3247POPC   GL143885  31.318  18.177   5.868
 3247POPC   GL243886  31.642  18.209   5.805
 3247POPC   C1A43887  31.430  18.129   6.306
 3247POPC   D2A43888  31.762  18.071   6.617
 3247POPC   C3A43889  31.486  18.015   6.960
 3247POPC   C4A43890  31.303  18.244   7.254
 3247POPC   C1B43891  31.781  18.482   6.184
 3247POPC   C2B43892  31.684  18.614   6.611
 3247POPC   C3B43893  31.770  18.446   7.029
 3247POPC   C4B43894  31.957  18.042   7.190
 3248POPC   NC343895  29.737  16.025   5.156
 3248POPC   PO443896  30.207  15.643   5.229
 3248POPC   GL143897  30.062  15.924   5.577
 3248POPC   GL243898  29.752  15.753   5.648
 3248POPC   C1A43899  30.035  15.968   6.057
 3248POPC   D2A43900  30.179  15.770   6.477
 3248POPC   C3A43901  30.083  15.923   6.907
 3248POPC   C4A43902  29.894  16.081   7.295
 3248POPC   C1B43903  29.613  15.637   6.093
 3248POPC   C2B43904  29.666  15.763   6.547
 3248POPC   C3B43905  29.633  15.622   6.979
 3248POPC   C4B43906  29.489  15.769   7.413
 3249POPC   NC343907  42.811  28.520   5.351
 3249POPC   PO443908  43.161  27.954   5.465
 3249POPC   GL143909  43.256  28.321   5.763
 3249POPC   GL243910  43.109  28.656   5.755
 3249POPC   C1A43911  43.284  28.478   6.213
 3249POPC   D2A43912  43.050  28.402   6.609
 3249POPC   C3A43913  43.267  28.306   7.033
 3249POPC   C4A43914  43.626  28.329   7.394
 3249POPC   C1B43915  42.814  28.715   6.111
 3249POPC   C2B43916  42.728  28.814   6.557
 3249POPC   C3B43917  42.929  28.755   6.962
 3249POPC   C4B43918  42.833  28.551   7.328
 3250POPC   NC343919  22.707   7.832   5.365
 3250POPC   PO443920  22.744   8.500   5.294
 3250POPC   GL143921  22.591   8.253   5.693
 3250POPC   GL243922  22.837   8.411   5.932
 3250POPC   C1A43923  22.616   7.990   6.112
 3250POPC   D2A43924  22.732   7.894   6.594
 3250POPC   C3A43925  22.651   8.191   6.944
 3250POPC   C4A43926  22.909   8.269   7.339
 3250POPC   C1B43927  23.041   8.196   6.307
 3250POPC   C2B43928  23.129   8.251   6.756
 3250POPC   C3B43929  23.333   8.079   7.127
 3250POPC   C4B43930  23.397   8.303   7.522
 3251POPC   NC343931   9.890  26.038   5.345
 3251POPC   PO443932   9.467  25.627   5.485
 3251POPC   GL143933   9.645  26.022   5.803
 3251POPC   GL243934  10.001  26.149   5.836
 3251POPC   C1A43935   9.728  26.329   6.202
 3251POPC   D2A43936   9.945  26.237   6.595
 3251POPC   C3A43937   9.733  26.078   6.961
 3251POPC   C4A43938   9.881  26.087   7.366
 3251POPC   C1B43939   9.954  25.866   6.242
 3251POPC   C2B43940  10.082  25.731   6.700
 3251POPC   C3B43941  10.169  25.644   7.181
 3251POPC   C4B43942  10.077  25.717   7.642
 3252POPC   NC343943  12.680   9.837   5.624
 3252POPC   PO443944  13.290   9.549   5.426
 3252POPC   GL143945  13.149   9.718   5.815
 3252POPC   GL243946  12.953   9.422   5.869
 3252POPC   C1A43947  12.959   9.785   6.240
 3252POPC   D2A43948  12.893   9.548   6.616
 3252POPC   C3A43949  13.056   9.665   7.011
 3252POPC   C4A43950  13.288  10.009   7.226
 3252POPC   C1B43951  12.588   9.407   6.181
 3252POPC   C2B43952  12.377   9.448   6.585
 3252POPC   C3B43953  12.523   9.443   7.021
 3252POPC   C4B43954  12.809   9.417   7.394
 3253POPC   NC343955  13.204  13.770   5.513
 3253POPC   PO443956  12.672  13.360   5.349
 3253POPC   GL143957  12.877  13.443   5.754
 3253POPC   GL243958  12.793  13.819   5.788
 3253POPC   C1A43959  13.078  13.585   6.170
 3253POPC   D2A43960  13.138  13.736   6.623
 3253POPC   C3A43961  13.110  13.401   6.927
 3253POPC   C4A43962  12.720  13.201   6.945
 3253POPC   C1B43963  12.567  13.645   6.134
 3253POPC   C2B43964  12.605  13.513   6.558
 3253POPC   C3B43965  12.661  13.700   6.977
 3253POPC   C4B43966  12.925  13.636   7.344
 3254POPC   NC343967  11.643  25.020   5.565
 3254POPC   PO443968  12.290  25.126   5.416
 3254POPC   GL143969  12.081  25.298   5.771
 3254POPC   GL243970  12.323  25.579   5.768
 3254POPC   C1A43971  12.008  25.185   6.197
 3254POPC   D2A43972  12.254  25.199   6.581
 3254POPC   C3A43973  12.051  25.273   6.966
 3254POPC   C4A43974  12.020  24.975   7.274
 3254POPC   C1B43975  12.428  25.506   6.210
 3254POPC   C2B43976  12.292  25.702   6.631
 3254POPC   C3B43977  12.361  25.684   7.105
 3254POPC   C4B43978  12.315  25.812   7.607
 3255POPC   NC343979  31.771  21.104   5.232
 3255POPC   PO443980  31.254  21.506   5.089
 3255POPC   GL143981  31.397  21.436   5.551
 3255POPC   GL243982  31.267  21.663   5.801
 3255POPC   C1A43983  31.497  21.254   6.017
 3255POPC   D2A43984  31.408  21.339   6.504
 3255POPC   C3A43985  31.501  21.184   6.939
 3255POPC   C4A43986  31.834  21.295   7.236
 3255POPC   C1B43987  31.065  21.535   6.205
 3255POPC   C2B43988  30.938  21.707   6.610
 3255POPC   C3B43989  30.965  21.661   7.058
 3255POPC   C4B43990  31.259  21.437   7.341
 3256POPC   NC343991   2.863   0.829   5.020
 3256POPC   PO443992   2.900   0.253   5.410
 3256POPC   GL143993   2.833   0.363   5.835
 3256POPC   GL243994   2.766   0.704   5.785
 3256POPC   C1A43995   2.916   0.453   6.276
 3256POPC   D2A43996   3.242   0.672   6.544
 3256POPC   C3A43997   3.077   0.551   6.962
 3256POPC   C4A43998   2.785   0.444   7.368
 3256POPC   C1B43999   2.632   0.894   6.182
 3256POPC   C2B44000   2.777   0.838   6.603
 3256POPC   C3B44001   2.679   0.824   7.043
 3256POPC   C4B44002   2.580   0.958   7.454
 3257POPC   NC344003  18.018  13.202   5.553
 3257POPC   PO444004  18.623  12.947   5.345
 3257POPC   GL144005  18.452  13.042   5.757
 3257POPC   GL244006  18.308  12.758   5.931
 3257POPC   C1A44007  18.256  13.188   6.188
 3257POPC   D2A44008  17.896  13.192   6.516
 3257POPC   C3A44009  18.049  13.147   6.943
 3257POPC   C4A44010  17.906  12.949   7.328
 3257POPC   C1B44011  17.945  12.749   6.239
 3257POPC   C2B44012  17.972  12.664   6.689
 3257POPC   C3B44013  18.335  12.709   6.938
 3257POPC   C4B44014  18.543  13.055   7.103
 3258POPC   NC344015  21.363  40.988   5.432
 3258POPC   PO444016  21.249  40.342   5.454
 3258POPC   GL144017  21.142  40.649   5.811
 3258POPC   GL244018  20.986  41.001   5.773
 3258POPC   C1A44019  21.418  40.767   6.188
 3258POPC   D2A44020  21.638  40.998   6.546
 3258POPC   C3A44021  21.577  40.774   6.941
 3258POPC   C4A44022  21.248  40.515   7.078
 3258POPC   C1B44023  21.060  41.122   6.218
 3258POPC   C2B44024  21.162  41.142   6.680
 3258POPC   C3B44025  21.133  41.002   7.128
 3258POPC   C4B44026  20.910  41.115   7.552
 3259POPC   NC344027  20.915  18.941   5.307
 3259POPC   PO444028  20.411  19.280   5.346
 3259POPC   GL144029  20.703  19.200   5.712
 3259POPC   GL244030  20.821  18.861   5.809
 3259POPC   C1A44031  20.787  19.238   6.164
 3259POPC   D2A44032  20.532  19.236   6.540
 3259POPC   C3A44033  20.612  18.992   6.898
 3259POPC   C4A44034  20.732  18.947   7.297
 3259POPC   C1B44035  20.449  18.850   6.066
 3259POPC   C2B44036  20.385  18.736   6.486
 3259POPC   C3B44037  20.213  18.662   6.874
 3259POPC   C4B44038  20.322  18.655   7.258
 3260POPC   NC344039  32.942  41.020   5.479
 3260POPC   PO444040  32.984  40.384   5.304
 3260POPC   GL144041  33.210  40.591   5.719
 3260POPC   GL244042  33.464  40.878   5.816
 3260POPC   C1A44043  33.257  40.621   6.209
 3260POPC   D2A44044  33.474  40.477   6.611
 3260POPC   C3A44045  33.208  40.517   6.993
 3260POPC   C4A44046  32.761  40.654   7.109
 3260POPC   C1B44047  33.416  41.156   6.212
 3260POPC   C2B44048  33.035  41.191   6.454
 3260POPC   C3B44049  33.043  41.000   6.852
 3260POPC   C4B44050  32.960  41.079   7.280
 3261POPC   NC344051   2.905  43.868   5.298
 3261POPC   PO444052   2.235  43.986   5.293
 3261POPC   GL144053   2.537  43.977   5.728
 3261POPC   GL244054   2.904  44.049   5.767
 3261POPC   C1A44055   2.653  43.809   6.157
 3261POPC   D2A44056   2.601  43.913   6.623
 3261POPC   C3A44057   2.763  43.744   7.050
 3261POPC   C4A44058   2.600  43.791   7.492
 3261POPC   C1B44059   3.122  44.061   6.157
 3261POPC   C2B44060   3.013  44.236   6.543
 3261POPC   C3B44061   3.124  44.181   6.956
 3261POPC   C4B44062   2.995  44.102   7.365
 3262POPC   NC344063  31.471  25.007   5.179
 3262POPC   PO444064  31.315  25.638   5.088
 3262POPC   GL144065  31.346  25.354   5.540
 3262POPC   GL244066  31.624  25.128   5.691
 3262POPC   C1A44067  31.256  25.273   6.037
 3262POPC   D2A44068  31.413  25.338   6.494
 3262POPC   C3A44069  31.296  25.356   6.957
 3262POPC   C4A44070  31.168  25.606   7.329
 3262POPC   C1B44071  31.743  25.112   6.156
 3262POPC   C2B44072  31.729  24.932   6.601
 3262POPC   C3B44073  31.764  24.931   7.074
 3262POPC   C4B44074  31.789  24.865   7.543
 3263POPC   NC344075   0.966  14.077   5.148
 3263POPC   PO444076   0.446  13.633   5.311
 3263POPC   GL144077   0.629  13.749   5.714
 3263POPC   GL244078   0.544  14.087   5.727
 3263POPC   C1A44079   0.588  13.670   6.173
 3263POPC   D2A44080   0.268  13.781   6.506
 3263POPC   C3A44081   0.416  13.640   6.906
 3263POPC   C4A44082   0.334  13.461   7.300
 3263POPC   C1B44083   0.473  14.164   6.186
 3263POPC   C2B44084   0.746  14.015   6.548
 3263POPC   C3B44085   0.744  14.027   7.003
 3263POPC   C4B44086   0.720  13.779   7.342
 3264POPC   NC344087  23.341  42.211   5.177
 3264POPC   PO444088  22.966  42.669   5.374
 3264POPC   GL144089  22.831  42.668   5.797
 3264POPC   GL244090  22.840  42.332   5.899
 3264POPC   C1A44091  22.840  42.728   6.228
 3264POPC   D2A44092  22.922  42.433   6.558
 3264POPC   C3A44093  22.790  42.601   6.954
 3264POPC   C4A44094  22.778  42.499   7.420
 3264POPC   C1B44095  22.693  42.046   6.237
 3264POPC   C2B44096  22.744  41.963   6.700
 3264POPC   C3B44097  22.956  42.127   7.094
 3264POPC   C4B44098  22.936  42.059   7.572
 3265POPC   NC344099  37.387  42.726   5.203
 3265POPC   PO444100  37.912  42.311   5.231
 3265POPC   GL144101  37.858  42.325   5.711
 3265POPC   GL244102  37.868  42.589   5.918
 3265POPC   C1A44103  37.774  42.113   6.158
 3265POPC   D2A44104  37.614  41.955   6.578
 3265POPC   C3A44105  37.651  42.004   7.025
 3265POPC   C4A44106  37.345  41.979   7.346
 3265POPC   C1B44107  37.753  42.584   6.346
 3265POPC   C2B44108  37.807  42.406   6.733
 3265POPC   C3B44109  37.692  42.510   7.142
 3265POPC   C4B44110  37.835  42.768   7.472
 3266POPC   NC344111  35.285   5.594   5.454
 3266POPC   PO444112  35.395   5.037   5.547
 3266POPC   GL144113  35.598   5.361   5.836
 3266POPC   GL244114  35.396   5.621   5.979
 3266POPC   C1A44115  35.608   5.237   6.278
 3266POPC   D2A44116  35.713   5.004   6.664
 3266POPC   C3A44117  35.467   5.064   7.054
 3266POPC   C4A44118  35.290   5.067   7.499
 3266POPC   C1B44119  35.476   5.684   6.453
 3266POPC   C2B44120  35.594   5.537   6.882
 3266POPC   C3B44121  35.342   5.531   7.278
 3266POPC   C4B44122  35.400   5.495   7.773
 3267POPC   NC344123  37.335  35.399   4.960
 3267POPC   PO444124  37.844  35.318   5.374
 3267POPC   GL144125  37.639  35.323   5.758
 3267POPC   GL244126  37.785  34.997   5.802
 3267POPC   C1A44127  37.685  35.434   6.203
 3267POPC   D2A44128  37.777  35.521   6.641
 3267POPC   C3A44129  37.483  35.522   6.954
 3267POPC   C4A44130  37.187  35.338   7.237
 3267POPC   C1B44131  37.997  35.003   6.150
 3267POPC   C2B44132  38.099  35.123   6.541
 3267POPC   C3B44133  37.907  35.027   6.933
 3267POPC   C4B44134  37.710  35.234   7.318
 3268POPC   NC344135  27.263  40.843   5.567
 3268POPC   PO444136  27.924  40.611   5.461
 3268POPC   GL144137  27.846  40.768   5.869
 3268POPC   GL244138  28.042  40.548   6.036
 3268POPC   C1A44139  27.923  40.987   6.278
 3268POPC   D2A44140  27.858  40.922   6.698
 3268POPC   C3A44141  27.452  40.928   6.872
 3268POPC   C4A44142  27.545  40.852   7.283
 3268POPC   C1B44143  27.697  40.509   6.327
 3268POPC   C2B44144  27.652  40.431   6.771
 3268POPC   C3B44145  27.595  40.366   7.201
 3268POPC   C4B44146  27.218  40.490   7.490
 3269POPC   NC344147  39.333  42.144   5.144
 3269POPC   PO444148  39.130  41.574   5.482
 3269POPC   GL144149  39.343  41.608   5.862
 3269POPC   GL244150  39.356  41.262   5.914
 3269POPC   C1A44151  39.350  41.611   6.307
 3269POPC   D2A44152  39.107  41.406   6.624
 3269POPC   C3A44153  38.988  41.613   6.985
 3269POPC   C4A44154  39.288  41.872   7.198
 3269POPC   C1B44155  39.681  41.225   6.228
 3269POPC   C2B44156  39.653  41.352   6.666
 3269POPC   C3B44157  39.415  41.349   7.057
 3269POPC   C4B44158  39.391  41.479   7.512
 3270POPC   NC344159  13.617  34.877   4.877
 3270POPC   PO444160  13.847  34.510   5.439
 3270POPC   GL144161  13.915  34.574   5.899
 3270POPC   GL244162  13.587  34.507   6.019
 3270POPC   C1A44163  13.907  34.788   6.320
 3270POPC   D2A44164  13.669  34.714   6.712
 3270POPC   C3A44165  13.852  34.604   7.114
 3270POPC   C4A44166  13.928  34.421   7.528
 3270POPC   C1B44167  13.769  34.292   6.387
 3270POPC   C2B44168  13.695  34.201   6.841
 3270POPC   C3B44169  13.449  34.266   7.229
 3270POPC   C4B44170  13.290  33.932   7.531
 3271POPC   NC344171  39.346  26.341   5.306
 3271POPC   PO444172  39.112  25.736   5.261
 3271POPC   GL144173  39.347  25.875   5.688
 3271POPC   GL244174  39.363  26.256   5.807
 3271POPC   C1A44175  39.165  25.858   6.154
 3271POPC   D2A44176  38.808  25.872   6.507
 3271POPC   C3A44177  38.852  25.697   6.936
 3271POPC   C4A44178  39.084  25.849   7.314
 3271POPC   C1B44179  39.531  26.289   6.221
 3271POPC   C2B44180  39.185  26.242   6.507
 3271POPC   C3B44181  39.193  26.084   6.881
 3271POPC   C4B44182  39.417  26.262   7.194
 3272POPC   NC344183  31.815  36.111   5.465
 3272POPC   PO444184  32.428  36.389   5.411
 3272POPC   GL144185  32.234  36.250   5.840
 3272POPC   GL244186  31.891  36.390   5.904
 3272POPC   C1A44187  32.388  36.078   6.292
 3272POPC   D2A44188  32.699  35.993   6.661
 3272POPC   C3A44189  32.475  35.823   7.012
 3272POPC   C4A44190  32.010  35.906   7.137
 3272POPC   C1B44191  31.861  36.139   6.283
 3272POPC   C2B44192  31.877  36.209   6.735
 3272POPC   C3B44193  32.273  36.298   6.950
 3272POPC   C4B44194  32.565  36.625   6.965
 3273POPC   NC344195  21.580  14.754   5.357
 3273POPC   PO444196  21.042  14.360   5.502
 3273POPC   GL144197  21.309  14.505   5.840
 3273POPC   GL244198  21.640  14.395   5.774
 3273POPC   C1A44199  21.195  14.542   6.279
 3273POPC   D2A44200  21.134  14.801   6.628
 3273POPC   C3A44201  21.237  14.620   6.973
 3273POPC   C4A44202  21.280  14.414   7.357
 3273POPC   C1B44203  21.557  14.160   6.159
 3273POPC   C2B44204  21.505  14.265   6.586
 3273POPC   C3B44205  21.673  14.331   6.966
 3273POPC   C4B44206  21.755  14.301   7.368
 3274POPC   NC344207  19.442  31.215   5.483
 3274POPC   PO444208  19.026  30.696   5.194
 3274POPC   GL144209  19.103  30.616   5.658
 3274POPC   GL244210  19.443  30.742   5.762
 3274POPC   C1A44211  18.872  30.487   6.051
 3274POPC   D2A44212  18.700  30.616   6.456
 3274POPC   C3A44213  18.621  30.419   6.823
 3274POPC   C4A44214  18.830  30.515   7.183
 3274POPC   C1B44215  19.173  30.948   6.071
 3274POPC   C2B44216  19.167  30.927   6.507
 3274POPC   C3B44217  19.098  30.881   6.944
 3274POPC   C4B44218  19.031  30.918   7.402
 3275POPC   NC344219   9.945  39.692   5.544
 3275POPC   PO444220   9.442  39.184   5.501
 3275POPC   GL144221   9.792  39.251   5.812
 3275POPC   GL244222  10.059  38.980   5.804
 3275POPC   C1A44223   9.833  39.380   6.250
 3275POPC   D2A44224   9.643  39.672   6.564
 3275POPC   C3A44225   9.440  39.640   6.979
 3275POPC   C4A44226   9.578  39.489   7.368
 3275POPC   C1B44227   9.824  38.871   6.175
 3275POPC   C2B44228   9.618  39.018   6.545
 3275POPC   C3B44229   9.681  39.192   6.918
 3275POPC   C4B44230   9.735  39.010   7.292
 3276POPC   NC344231  33.106  22.339   5.522
 3276POPC   PO444232  32.732  21.890   5.236
 3276POPC   GL144233  32.800  22.024   5.726
 3276POPC   GL244234  32.770  22.382   5.888
 3276POPC   C1A44235  32.958  22.037   6.181
 3276POPC   D2A44236  33.149  22.180   6.551
 3276POPC   C3A44237  33.027  21.972   6.906
 3276POPC   C4A44238  32.788  22.108   7.210
 3276POPC   C1B44239  33.199  22.507   6.142
 3276POPC   C2B44240  33.405  22.625   6.559
 3276POPC   C3B44241  33.276  22.464   6.972
 3276POPC   C4B44242  33.334  22.168   7.277
 3277POPC   NC344243  39.546  34.753   5.516
 3277POPC   PO444244  40.231  34.479   5.361
 3277POPC   GL144245  40.031  34.683   5.696
 3277POPC   GL244246  39.858  34.395   5.744
 3277POPC   C1A44247  39.878  34.856   6.098
 3277POPC   D2A44248  40.114  34.802   6.486
 3277POPC   C3A44249  39.911  34.789   6.869
 3277POPC   C4A44250  39.738  34.869   7.259
 3277POPC   C1B44251  40.106  34.404   6.148
 3277POPC   C2B44252  40.024  34.275   6.580
 3277POPC   C3B44253  39.971  34.287   7.033
 3277POPC   C4B44254  39.979  34.278   7.500
 3278POPC   NC344255  10.623  24.695   5.370
 3278POPC   PO444256  10.653  23.919   5.350
 3278POPC   GL144257  10.783  24.175   5.762
 3278POPC   GL244258  10.554  24.465   5.825
 3278POPC   C1A44259  10.787  24.294   6.243
 3278POPC   D2A44260  10.566  24.360   6.671
 3278POPC   C3A44261  10.805  24.515   7.072
 3278POPC   C4A44262  10.704  24.418   7.514
 3278POPC   C1B44263  10.281  24.392   6.190
 3278POPC   C2B44264  10.107  24.593   6.560
 3278POPC   C3B44265  10.072  24.579   6.989
 3278POPC   C4B44266  10.270  24.306   7.275
 3279POPC   NC344267  32.595  14.872   5.089
 3279POPC   PO444268  32.366  15.312   5.601
 3279POPC   GL144269  32.057  15.308   5.891
 3279POPC   GL244270  32.162  14.989   5.968
 3279POPC   C1A44271  32.163  15.386   6.302
 3279POPC   D2A44272  32.322  15.139   6.578
 3279POPC   C3A44273  32.239  15.339   6.947
 3279POPC   C4A44274  32.406  15.516   7.304
 3279POPC   C1B44275  32.376  14.740   6.239
 3279POPC   C2B44276  32.276  14.612   6.627
 3279POPC   C3B44277  32.320  14.834   7.002
 3279POPC   C4B44278  32.608  14.933   7.350
 3280POPC   NC344279  10.882  15.803   5.366
 3280POPC   PO444280  10.246  16.062   5.339
 3280POPC   GL144281  10.489  15.916   5.683
 3280POPC   GL244282  10.421  15.587   5.605
 3280POPC   C1A44283  10.518  16.003   6.132
 3280POPC   D2A44284  10.806  16.099   6.471
 3280POPC   C3A44285  10.622  16.075   6.884
 3280POPC   C4A44286  10.739  16.218   7.281
 3280POPC   C1B44287  10.295  15.564   6.070
 3280POPC   C2B44288  10.543  15.623   6.515
 3280POPC   C3B44289  10.387  15.632   6.983
 3280POPC   C4B44290  10.268  15.610   7.444
 3281POPC   NC344291  41.969  44.376   5.394
 3281POPC   PO444292  42.577  44.496   5.697
 3281POPC   GL144293  42.214  44.516   5.904
 3281POPC   GL244294  42.003  44.744   5.785
 3281POPC   C1A44295  42.261  44.610   6.346
 3281POPC   D2A44296  42.211  44.477   6.761
 3281POPC   C3A44297  42.479  44.642   7.085
 3281POPC   C4A44298  42.475  44.566   7.529
 3281POPC   C1B44299  41.903  44.918   6.197
 3281POPC   C2B44300  41.854  44.813   6.638
 3281POPC   C3B44301  41.996  44.838   7.063
 3281POPC   C4B44302  42.048  44.843   7.530
 3282POPC   NC344303  11.517  37.841   5.438
 3282POPC   PO444304  10.972  37.582   5.592
 3282POPC   GL144305  11.250  37.714   5.862
 3282POPC   GL244306  11.550  37.475   5.798
 3282POPC   C1A44307  11.121  37.883   6.261
 3282POPC   D2A44308  11.352  38.034   6.590
 3282POPC   C3A44309  11.135  37.847   6.930
 3282POPC   C4A44310  10.974  37.510   7.170
 3282POPC   C1B44311  11.590  37.664   6.241
 3282POPC   C2B44312  11.517  37.564   6.699
 3282POPC   C3B44313  11.623  37.704   7.122
 3282POPC   C4B44314  11.599  37.506   7.532
 3283POPC   NC344315  39.820  13.919   5.126
 3283POPC   PO444316  40.033  13.450   5.546
 3283POPC   GL144317  40.013  13.677   5.883
 3283POPC   GL244318  39.796  13.942   5.798
 3283POPC   C1A44319  40.043  13.605   6.318
 3283POPC   D2A44320  40.219  13.685   6.688
 3283POPC   C3A44321  40.063  13.390   6.973
 3283POPC   C4A44322  40.220  13.556   7.314
 3283POPC   C1B44323  39.593  13.816   6.230
 3283POPC   C2B44324  39.688  13.663   6.699
 3283POPC   C3B44325  39.754  13.761   7.164
 3283POPC   C4B44326  39.587  14.022   7.553
 3284POPC   NC344327   8.840  18.308   5.449
 3284POPC   PO444328   9.205  17.801   5.469
 3284POPC   GL144329   9.105  18.026   5.809
 3284POPC   GL244330   8.748  18.043   5.874
 3284POPC   C1A44331   9.109  18.234   6.213
 3284POPC   D2A44332   8.867  18.091   6.592
 3284POPC   C3A44333   8.978  18.194   7.035
 3284POPC   C4A44334   9.226  18.194   7.457
 3284POPC   C1B44335   8.657  18.436   6.163
 3284POPC   C2B44336   8.575  18.533   6.614
 3284POPC   C3B44337   8.746  18.658   7.036
 3284POPC   C4B44338   8.781  18.425   7.463
 3285POPC   NC344339  20.382   4.842   5.426
 3285POPC   PO444340  20.970   5.102   5.354
 3285POPC   GL144341  20.654   5.184   5.734
 3285POPC   GL244342  20.473   4.897   5.917
 3285POPC   C1A44343  20.731   5.264   6.210
 3285POPC   D2A44344  20.685   5.101   6.643
 3285POPC   C3A44345  20.775   5.359   7.003
 3285POPC   C4A44346  20.581   5.359   7.443
 3285POPC   C1B44347  20.248   5.074   6.278
 3285POPC   C2B44348  20.196   5.230   6.679
 3285POPC   C3B44349  20.336   5.070   7.094
 3285POPC   C4B44350  20.365   4.893   7.548
 3286POPC   NC344351  20.829  11.429   5.328
 3286POPC   PO444352  20.401  10.880   5.416
 3286POPC   GL144353  20.657  11.067   5.759
 3286POPC   GL244354  20.670  11.448   5.806
 3286POPC   C1A44355  20.602  11.154   6.210
 3286POPC   D2A44356  20.851  11.241   6.556
 3286POPC   C3A44357  20.660  11.197   6.941
 3286POPC   C4A44358  20.845  11.107   7.352
 3286POPC   C1B44359  20.584  11.663   6.197
 3286POPC   C2B44360  20.404  11.532   6.559
 3286POPC   C3B44361  20.283  11.586   6.958
 3286POPC   C4B44362  20.513  11.492   7.332
 3287POPC   NC344363  25.353  38.740   5.311
 3287POPC   PO444364  25.039  38.037   5.438
 3287POPC   GL144365  25.079  38.199   5.869
 3287POPC   GL244366  25.196  38.523   5.750
 3287POPC   C1A44367  25.136  38.269   6.375
 3287POPC   D2A44368  24.897  38.435   6.760
 3287POPC   C3A44369  24.974  38.262   7.187
 3287POPC   C4A44370  25.369  38.210   7.319
 3287POPC   C1B44371  25.510  38.422   6.060
 3287POPC   C2B44372  25.621  38.490   6.475
 3287POPC   C3B44373  25.416  38.399   6.852
 3287POPC   C4B44374  25.275  38.695   7.167
 3288POPC   NC344375   6.714  29.527   5.301
 3288POPC   PO444376   6.441  30.149   5.347
 3288POPC   GL144377   6.491  29.819   5.710
 3288POPC   GL244378   6.859  29.816   5.777
 3288POPC   C1A44379   6.354  29.740   6.179
 3288POPC   D2A44380   6.304  29.739   6.660
 3288POPC   C3A44381   6.405  30.026   6.975
 3288POPC   C4A44382   6.321  30.351   7.240
 3288POPC   C1B44383   7.068  29.787   6.180
 3288POPC   C2B44384   6.841  29.808   6.539
 3288POPC   C3B44385   6.883  29.859   6.946
 3288POPC   C4B44386   6.732  29.619   7.283
 3289POPC   NC344387  16.858  11.018   5.099
 3289POPC   PO444388  16.932  10.375   5.457
 3289POPC   GL144389  16.980  10.431   5.851
 3289POPC   GL244390  16.660  10.493   5.949
 3289POPC   C1A44391  17.122  10.548   6.237
 3289POPC   D2A44392  16.940  10.817   6.444
 3289POPC   C3A44393  16.955  10.716   6.848
 3289POPC   C4A44394  16.671  10.788   7.161
 3289POPC   C1B44395  16.453  10.510   6.342
 3289POPC   C2B44396  16.437  10.524   6.794
 3289POPC   C3B44397  16.481  10.296   7.197
 3289POPC   C4B44398  16.375  10.261   7.667
 3290POPC   NC344399  30.927  30.553   5.406
 3290POPC   PO444400  31.605  30.831   5.442
 3290POPC   GL144401  31.618  30.722   5.853
 3290POPC   GL244402  31.285  30.578   5.790
 3290POPC   C1A44403  31.621  30.630   6.295
 3290POPC   D2A44404  31.731  30.382   6.663
 3290POPC   C3A44405  31.490  30.503   7.006
 3290POPC   C4A44406  31.163  30.548   7.298
 3290POPC   C1B44407  31.100  30.673   6.158
 3290POPC   C2B44408  31.158  30.642   6.589
 3290POPC   C3B44409  31.203  30.919   6.897
 3290POPC   C4B44410  31.515  30.975   7.198
 3291POPC   NC344411   5.332   9.134   5.328
 3291POPC   PO444412   4.871   8.699   5.497
 3291POPC   GL144413   5.064   8.937   5.748
 3291POPC   GL244414   4.795   9.019   5.935
 3291POPC   C1A44415   5.270   8.825   6.132
 3291POPC   D2A44416   5.109   8.994   6.493
 3291POPC   C3A44417   5.249   8.921   6.907
 3291POPC   C4A44418   5.316   9.019   7.326
 3291POPC   C1B44419   4.657   9.170   6.364
 3291POPC   C2B44420   4.670   8.905   6.768
 3291POPC   C3B44421   4.752   9.073   7.194
 3291POPC   C4B44422   4.662   9.378   7.588
 3292POPC   NC344423  40.571  28.356   5.580
 3292POPC   PO444424  41.291  28.198   5.568
 3292POPC   GL144425  41.017  28.345   5.872
 3292POPC   GL244426  40.856  28.017   5.858
 3292POPC   C1A44427  40.731  28.522   6.229
 3292POPC   D2A44428  40.373  28.485   6.540
 3292POPC   C3A44429  40.508  28.639   6.956
 3292POPC   C4A44430  40.974  28.689   7.117
 3292POPC   C1B44431  40.969  28.021   6.292
 3292POPC   C2B44432  40.817  28.231   6.680
 3292POPC   C3B44433  40.708  28.210   7.114
 3292POPC   C4B44434  40.592  28.081   7.530
 3293POPC   NC344435  28.667   2.425   5.174
 3293POPC   PO444436  28.628   3.094   5.453
 3293POPC   GL144437  28.246   2.959   5.765
 3293POPC   GL244438  28.126   2.612   5.789
 3293POPC   C1A44439  28.325   2.876   6.247
 3293POPC   D2A44440  28.449   2.939   6.716
 3293POPC   C3A44441  28.485   2.671   7.095
 3293POPC   C4A44442  28.815   2.721   7.408
 3293POPC   C1B44443  27.904   2.579   6.165
 3293POPC   C2B44444  27.791   2.405   6.562
 3293POPC   C3B44445  28.035   2.478   6.922
 3293POPC   C4B44446  28.024   2.633   7.339
 3294POPC   NC344447  24.796  34.443   5.184
 3294POPC   PO444448  25.397  34.371   5.527
 3294POPC   GL144449  25.275  34.666   5.861
 3294POPC   GL244450  24.914  34.704   5.830
 3294POPC   C1A44451  25.295  34.524   6.305
 3294POPC   D2A44452  25.232  34.335   6.668
 3294POPC   C3A44453  25.390  34.508   6.999
 3294POPC   C4A44454  25.144  34.716   7.302
 3294POPC   C1B44455  25.001  34.914   6.242
 3294POPC   C2B44456  25.213  34.901   6.679
 3294POPC   C3B44457  25.508  34.996   7.053
 3294POPC   C4B44458  25.502  34.968   7.537
 3295POPC   NC344459  17.297  34.858   5.495
 3295POPC   PO444460  17.622  34.263   5.367
 3295POPC   GL144461  17.711  34.516   5.763
 3295POPC   GL244462  17.373  34.515   5.863
 3295POPC   C1A44463  17.669  34.679   6.224
 3295POPC   D2A44464  17.892  34.567   6.571
 3295POPC   C3A44465  17.706  34.539   6.965
 3295POPC   C4A44466  17.767  34.395   7.380
 3295POPC   C1B44467  17.175  34.802   6.153
 3295POPC   C2B44468  17.264  34.876   6.585
 3295POPC   C3B44469  17.083  34.849   6.990
 3295POPC   C4B44470  17.295  34.620   7.298
 3296POPC   NC344471  24.136  32.703   5.403
 3296POPC   PO444472  24.785  32.974   5.291
 3296POPC   GL144473  24.618  33.133   5.701
 3296POPC   GL244474  24.403  32.925   5.797
 3296POPC   C1A44475  24.586  33.227   6.172
 3296POPC   D2A44476  24.378  33.091   6.558
 3296POPC   C3A44477  24.489  33.240   6.963
 3296POPC   C4A44478  24.624  32.997   7.294
 3296POPC   C1B44479  24.730  32.742   6.030
 3296POPC   C2B44480  24.735  32.685   6.488
 3296POPC   C3B44481  24.505  32.699   6.903
 3296POPC   C4B44482  24.673  32.498   7.274
 3297POPC   NC344483   3.796  34.303   5.633
 3297POPC   PO444484   3.320  34.782   5.387
 3297POPC   GL144485   3.506  34.723   5.785
 3297POPC   GL244486   3.168  34.711   5.876
 3297POPC   C1A44487   3.771  34.641   6.188
 3297POPC   D2A44488   3.673  34.531   6.612
 3297POPC   C3A44489   3.842  34.707   6.978
 3297POPC   C4A44490   3.717  34.785   7.365
 3297POPC   C1B44491   3.259  34.600   6.268
 3297POPC   C2B44492   3.181  34.428   6.642
 3297POPC   C3B44493   3.305  34.629   7.023
 3297POPC   C4B44494   3.082  34.622   7.392
 3298POPC   NC344495  10.787  13.199   5.143
 3298POPC   PO444496  10.294  12.793   5.373
 3298POPC   GL144497  10.474  12.626   5.781
 3298POPC   GL244498  10.322  12.846   6.036
 3298POPC   C1A44499  10.755  12.561   6.133
 3298POPC   D2A44500  10.566  12.607   6.525
 3298POPC   C3A44501  10.710  12.799   6.861
 3298POPC   C4A44502  10.472  12.989   7.169
 3298POPC   C1B44503  10.647  13.052   6.258
 3298POPC   C2B44504  10.963  13.089   6.536
 3298POPC   C3B44505  10.826  13.292   6.918
 3298POPC   C4B44506  10.818  13.309   7.355
 3299POPC   NC344507  21.508   1.745   5.443
 3299POPC   PO444508  21.461   2.400   5.522
 3299POPC   GL144509  21.366   2.058   5.835
 3299POPC   GL244510  21.093   1.776   5.772
 3299POPC   C1A44511  21.360   2.062   6.281
 3299POPC   D2A44512  21.473   2.256   6.690
 3299POPC   C3A44513  21.253   2.061   7.044
 3299POPC   C4A44514  21.507   1.782   7.279
 3299POPC   C1B44515  21.042   1.649   6.224
 3299POPC   C2B44516  21.246   1.702   6.637
 3299POPC   C3B44517  21.124   1.566   7.030
 3299POPC   C4B44518  21.059   1.626   7.452
 3300POPC   NC344519  18.385  26.897   5.358
 3300POPC   PO444520  18.093  26.293   5.444
 3300POPC   GL144521  18.198  26.654   5.777
 3300POPC   GL244522  18.274  27.070   5.820
 3300POPC   C1A44523  18.339  26.748   6.199
 3300POPC   D2A44524  18.227  26.938   6.579
 3300POPC   C3A44525  18.395  26.723   6.913
 3300POPC   C4A44526  18.197  26.641   7.296
 3300POPC   C1B44527  18.450  27.274   6.223
 3300POPC   C2B44528  18.646  27.219   6.666
 3300POPC   C3B44529  18.481  27.182   7.102
 3300POPC   C4B44530  18.425  27.024   7.548
 3301POPC   NC344531   6.696  15.582   5.269
 3301POPC   PO444532   6.366  16.253   5.232
 3301POPC   GL144533   6.694  16.289   5.619
 3301POPC   GL244534   6.704  15.965   5.683
 3301POPC   C1A44535   6.939  16.155   6.096
 3301POPC   D2A44536   6.987  16.267   6.576
 3301POPC   C3A44537   6.985  16.012   6.982
 3301POPC   C4A44538   6.683  16.218   7.286
 3301POPC   C1B44539   6.444  16.122   6.044
 3301POPC   C2B44540   6.569  15.952   6.440
 3301POPC   C3B44541   6.496  15.979   6.859
 3301POPC   C4B44542   6.580  15.731   7.250
 3302POPC   NC344543  26.259  30.106   5.481
 3302POPC   PO444544  26.030  29.419   5.304
 3302POPC   GL144545  26.147  29.640   5.693
 3302POPC   GL244546  25.914  29.899   5.793
 3302POPC   C1A44547  26.279  29.819   6.129
 3302POPC   D2A44548  26.051  29.666   6.473
 3302POPC   C3A44549  26.172  29.775   6.866
 3302POPC   C4A44550  26.043  29.905   7.258
 3302POPC   C1B44551  25.793  30.031   6.215
 3302POPC   C2B44552  25.860  30.147   6.636
 3302POPC   C3B44553  25.655  30.176   7.018
 3302POPC   C4B44554  25.815  30.392   7.393
 3303POPC   NC344555  14.494  32.544   5.436
 3303POPC   PO444556  14.503  31.884   5.506
 3303POPC   GL144557  14.338  32.133   5.824
 3303POPC   GL244558  14.607  32.290   5.876
 3303POPC   C1A44559  14.175  32.236   6.263
 3303POPC   D2A44560  14.331  32.320   6.692
 3303POPC   C3A44561  14.087  32.207   7.093
 3303POPC   C4A44562  13.887  32.151   7.540
 3303POPC   C1B44563  14.684  32.135   6.289
 3303POPC   C2B44564  14.865  31.972   6.672
 3303POPC   C3B44565  14.610  32.057   7.028
 3303POPC   C4B44566  14.514  32.494   7.154
 3304POPC   NC344567  29.522  37.988   5.625
 3304POPC   PO444568  30.053  37.619   5.296
 3304POPC   GL144569  29.864  37.486   5.707
 3304POPC   GL244570  30.184  37.340   5.807
 3304POPC   C1A44571  29.729  37.626   6.156
 3304POPC   D2A44572  29.848  37.844   6.547
 3304POPC   C3A44573  29.705  37.712   6.949
 3304POPC   C4A44574  29.614  37.926   7.327
 3304POPC   C1B44575  30.237  37.526   6.205
 3304POPC   C2B44576  30.246  37.518   6.647
 3304POPC   C3B44577  30.221  37.651   7.057
 3304POPC   C4B44578  30.132  38.056   7.222
 3305POPC   NC344579  44.155  22.792   5.458
 3305POPC   PO444580  43.588  23.166   5.342
 3305POPC   GL144581  43.750  22.999   5.789
 3305POPC   GL244582  43.949  22.688   5.909
 3305POPC   C1A44583  43.927  23.042   6.253
 3305POPC   D2A44584  43.939  23.229   6.668
 3305POPC   C3A44585  44.127  22.971   7.000
 3305POPC   C4A44586  43.990  22.974   7.429
 3305POPC   C1B44587  43.890  22.491   6.314
 3305POPC   C2B44588  43.828  22.565   6.781
 3305POPC   C3B44589  43.925  22.519   7.214
 3305POPC   C4B44590  43.970  22.552   7.695
 3306POPC   NC344591  38.309  39.129   5.301
 3306POPC   PO444592  37.962  39.638   5.473
 3306POPC   GL144593  38.165  39.379   5.794
 3306POPC   GL244594  38.527  39.344   5.731
 3306POPC   C1A44595  38.288  39.367   6.234
 3306POPC   D2A44596  38.168  39.172   6.642
 3306POPC   C3A44597  38.293  39.405   7.014
 3306POPC   C4A44598  38.316  39.472   7.473
 3306POPC   C1B44599  38.548  38.970   5.989
 3306POPC   C2B44600  38.612  38.986   6.421
 3306POPC   C3B44601  38.735  39.074   6.847
 3306POPC   C4B44602  38.717  39.212   7.266
 3307POPC   NC344603   0.513  13.060   5.361
 3307POPC   PO444604   1.007  12.605   5.507
 3307POPC   GL144605   0.616  12.695   5.770
 3307POPC   GL244606   0.334  12.425   5.772
 3307POPC   C1A44607   0.525  12.985   6.141
 3307POPC   D2A44608   0.436  13.274   6.494
 3307POPC   C3A44609   0.370  13.119   6.938
 3307POPC   C4A44610   0.277  12.977   7.392
 3307POPC   C1B44611   0.220  12.577   6.188
 3307POPC   C2B44612   0.242  12.775   6.596
 3307POPC   C3B44613   0.213  12.610   7.048
 3307POPC   C4B44614   0.187  12.330   7.449
 3308POPC   NC344615  23.096  37.464   5.326
 3308POPC   PO444616  22.700  37.917   5.442
 3308POPC   GL144617  22.981  37.752   5.737
 3308POPC   GL244618  22.782  37.466   5.748
 3308POPC   C1A44619  22.931  37.742   6.187
 3308POPC   D2A44620  22.652  37.602   6.527
 3308POPC   C3A44621  22.858  37.663   6.922
 3308POPC   C4A44622  23.002  37.876   7.272
 3308POPC   C1B44623  22.822  37.242   6.160
 3308POPC   C2B44624  23.113  37.366   6.520
 3308POPC   C3B44625  23.272  37.243   6.905
 3308POPC   C4B44626  23.154  37.397   7.295
 3309POPC   NC344627   5.569  18.357   5.033
 3309POPC   PO444628   6.143  18.021   5.325
 3309POPC   GL144629   6.006  18.292   5.665
 3309POPC   GL244630   6.338  18.332   5.789
 3309POPC   C1A44631   5.827  18.429   6.086
 3309POPC   D2A44632   5.843  18.272   6.492
 3309POPC   C3A44633   5.768  18.466   6.866
 3309POPC   C4A44634   5.796  18.322   7.247
 3309POPC   C1B44635   6.333  18.408   6.234
 3309POPC   C2B44636   6.195  18.638   6.608
 3309POPC   C3B44637   6.171  18.716   7.061
 3309POPC   C4B44638   6.184  18.556   7.472
 3310POPC   NC344639  38.024  24.265   5.664
 3310POPC   PO444640  38.689  24.177   5.484
 3310POPC   GL144641  38.550  24.395   5.846
 3310POPC   GL244642  38.719  24.728   5.825
 3310POPC   C1A44643  38.377  24.528   6.273
 3310POPC   D2A44644  38.444  24.842   6.627
 3310POPC   C3A44645  38.237  24.735   7.028
 3310POPC   C4A44646  38.117  24.325   7.230
 3310POPC   C1B44647  38.876  24.559   6.234
 3310POPC   C2B44648  38.826  24.491   6.702
 3310POPC   C3B44649  38.719  24.552   7.171
 3310POPC   C4B44650  38.774  24.625   7.657
 3311POPC   NC344651  32.150  32.832   5.390
 3311POPC   PO444652  32.604  33.285   5.453
 3311POPC   GL144653  32.304  33.233   5.785
 3311POPC   GL244654  32.176  32.892   5.880
 3311POPC   C1A44655  32.171  33.249   6.234
 3311POPC   D2A44656  32.273  32.990   6.583
 3311POPC   C3A44657  32.099  33.055   6.981
 3311POPC   C4A44658  32.364  33.212   7.263
 3311POPC   C1B44659  32.365  32.642   6.188
 3311POPC   C2B44660  32.180  32.484   6.560
 3311POPC   C3B44661  32.228  32.560   6.978
 3311POPC   C4B44662  31.941  32.648   7.265
 3312POPC   NC344663  35.297  11.716   5.381
 3312POPC   PO444664  35.018  11.039   5.281
 3312POPC   GL144665  35.132  11.181   5.731
 3312POPC   GL244666  35.436  11.053   5.929
 3312POPC   C1A44667  35.262  11.539   6.053
 3312POPC   D2A44668  35.520  11.628   6.453
 3312POPC   C3A44669  35.589  11.363   6.813
 3312POPC   C4A44670  35.765  11.519   7.205
 3312POPC   C1B44671  35.218  11.150   6.374
 3312POPC   C2B44672  35.073  11.452   6.711
 3312POPC   C3B44673  35.217  11.371   7.152
 3312POPC   C4B44674  35.421  10.985   7.208
 3313POPC   NC344675  22.896  13.387   5.293
 3313POPC   PO444676  23.369  13.841   5.489
 3313POPC   GL144677  23.077  13.623   5.753
 3313POPC   GL244678  23.188  13.281   5.731
 3313POPC   C1A44679  22.780  13.734   6.127
 3313POPC   D2A44680  22.746  13.592   6.566
 3313POPC   C3A44681  23.086  13.676   6.874
 3313POPC   C4A44682  22.809  13.665   7.216
 3313POPC   C1B44683  22.983  13.262   6.125
 3313POPC   C2B44684  23.083  13.208   6.535
 3313POPC   C3B44685  22.922  13.211   6.934
 3313POPC   C4B44686  23.166  13.330   7.306
 3314POPC   NC344687  24.706  37.285   5.440
 3314POPC   PO444688  24.243  37.755   5.399
 3314POPC   GL144689  24.505  37.725   5.753
 3314POPC   GL244690  24.382  38.060   5.826
 3314POPC   C1A44691  24.806  37.816   6.114
 3314POPC   D2A44692  24.775  37.947   6.565
 3314POPC   C3A44693  24.717  37.622   6.895
 3314POPC   C4A44694  24.385  37.259   6.950
 3314POPC   C1B44695  24.318  37.934   6.219
 3314POPC   C2B44696  24.387  37.601   6.455
 3314POPC   C3B44697  24.258  37.781   6.782
 3314POPC   C4B44698  24.208  37.785   7.214
 3315POPC   NC344699  39.876  13.020   5.560
 3315POPC   PO444700  39.623  12.398   5.366
 3315POPC   GL144701  39.637  12.581   5.800
 3315POPC   GL244702  39.972  12.602   5.866
 3315POPC   C1A44703  39.694  12.800   6.249
 3315POPC   D2A44704  39.919  12.646   6.658
 3315POPC   C3A44705  39.965  12.888   7.086
 3315POPC   C4A44706  40.000  13.066   7.530
 3315POPC   C1B44707  40.215  12.871   6.159
 3315POPC   C2B44708  40.427  12.735   6.526
 3315POPC   C3B44709  40.363  12.576   6.944
 3315POPC   C4B44710  40.353  12.669   7.335
 3316POPC   NC344711  14.538  24.744   5.506
 3316POPC   PO444712  14.579  24.129   5.543
 3316POPC   GL144713  14.361  24.410   5.881
 3316POPC   GL244714  14.103  24.659   5.795
 3316POPC   C1A44715  14.375  24.652   6.304
 3316POPC   D2A44716  14.352  24.632   6.770
 3316POPC   C3A44717  14.598  24.832   7.064
 3316POPC   C4A44718  14.635  24.808   7.520
 3316POPC   C1B44719  13.917  24.473   6.175
 3316POPC   C2B44720  14.017  24.294   6.573
 3316POPC   C3B44721  14.150  24.201   6.997
 3316POPC   C4B44722  14.298  24.472   7.315
 3317POPC   NC344723  26.962  30.232   5.270
 3317POPC   PO444724  26.596  29.790   5.530
 3317POPC   GL144725  26.824  30.073   5.744
 3317POPC   GL244726  27.171  29.922   5.665
 3317POPC   C1A44727  26.693  30.184   6.158
 3317POPC   D2A44728  26.487  30.088   6.553
 3317POPC   C3A44729  26.748  30.136   6.910
 3317POPC   C4A44730  26.570  29.861   7.179
 3317POPC   C1B44731  27.056  29.752   6.078
 3317POPC   C2B44732  26.960  29.847   6.493
 3317POPC   C3B44733  26.961  29.626   6.893
 3317POPC   C4B44734  27.079  29.728   7.300
 3318POPC   NC344735   7.368  42.495   5.309
 3318POPC   PO444736   6.898  41.969   5.435
 3318POPC   GL144737   7.167  42.252   5.786
 3318POPC   GL244738   7.090  42.621   5.797
 3318POPC   C1A44739   7.411  42.094   6.177
 3318POPC   D2A44740   7.624  41.956   6.585
 3318POPC   C3A44741   7.433  42.133   6.952
 3318POPC   C4A44742   7.228  42.003   7.360
 3318POPC   C1B44743   7.456  42.610   6.087
 3318POPC   C2B44744   7.534  42.461   6.519
 3318POPC   C3B44745   7.529  42.645   6.953
 3318POPC   C4B44746   7.246  42.523   7.278
 3319POPC   NC344747  38.467   2.646   5.258
 3319POPC   PO444748  38.171   3.167   5.494
 3319POPC   GL144749  38.284   2.789   5.735
 3319POPC   GL244750  38.627   2.657   5.759
 3319POPC   C1A44751  38.215   2.644   6.125
 3319POPC   D2A44752  38.448   2.626   6.481
 3319POPC   C3A44753  38.276   2.748   6.849
 3319POPC   C4A44754  38.339   2.452   7.146
 3319POPC   C1B44755  38.826   2.376   6.080
 3319POPC   C2B44756  38.828   2.263   6.527
 3319POPC   C3B44757  38.782   2.565   6.878
 3319POPC   C4B44758  38.807   2.544   7.316
 3320POPC   NC344759  20.466  19.736   5.338
 3320POPC   PO444760  20.908  20.183   5.393
 3320POPC   GL144761  20.622  20.063   5.715
 3320POPC   GL244762  20.611  19.714   5.839
 3320POPC   C1A44763  20.551  20.187   6.143
 3320POPC   D2A44764  20.660  20.184   6.581
 3320POPC   C3A44765  20.421  20.028   6.944
 3320POPC   C4A44766  20.390  20.284   7.304
 3320POPC   C1B44767  20.662  19.711   6.300
 3320POPC   C2B44768  20.729  19.675   6.735
 3320POPC   C3B44769  20.545  19.500   7.098
 3320POPC   C4B44770  20.777  19.413   7.485
 3321POPC   NC344771  25.625  30.779   5.691
 3321POPC   PO444772  25.139  30.861   5.396
 3321POPC   GL144773  25.154  30.696   5.820
 3321POPC   GL244774  25.087  30.349   5.858
 3321POPC   C1A44775  25.287  30.855   6.231
 3321POPC   D2A44776  25.104  31.011   6.578
 3321POPC   C3A44777  25.332  30.965   6.949
 3321POPC   C4A44778  25.136  31.014   7.360
 3321POPC   C1B44779  25.365  30.341   6.172
 3321POPC   C2B44780  25.437  30.499   6.589
 3321POPC   C3B44781  25.196  30.409   6.943
 3321POPC   C4B44782  25.327  30.533   7.320
 3322POPC   NC344783  21.045  31.647   5.580
 3322POPC   PO444784  20.648  31.214   5.206
 3322POPC   GL144785  20.619  31.376   5.638
 3322POPC   GL244786  20.510  31.738   5.680
 3322POPC   C1A44787  20.723  31.429   6.111
 3322POPC   D2A44788  20.535  31.468   6.520
 3322POPC   C3A44789  20.757  31.563   6.894
 3322POPC   C4A44790  20.561  31.451   7.252
 3322POPC   C1B44791  20.329  31.776   6.113
 3322POPC   C2B44792  20.159  31.795   6.575
 3322POPC   C3B44793  20.185  31.800   7.045
 3322POPC   C4B44794  20.403  31.962   7.412
 3323POPC   NC344795  35.782   8.784   5.383
 3323POPC   PO444796  36.324   9.011   5.146
 3323POPC   GL144797  36.208   8.997   5.599
 3323POPC   GL244798  35.889   9.224   5.642
 3323POPC   C1A44799  36.135   8.801   6.017
 3323POPC   D2A44800  36.254   8.771   6.436
 3323POPC   C3A44801  36.267   8.962   6.846
 3323POPC   C4A44802  36.280   8.831   7.286
 3323POPC   C1B44803  35.795   9.150   6.082
 3323POPC   C2B44804  35.826   9.049   6.515
 3323POPC   C3B44805  35.805   9.182   6.932
 3323POPC   C4B44806  35.779   9.042   7.339
 3324POPC   NC344807  27.630  14.572   5.317
 3324POPC   PO444808  27.574  13.873   5.382
 3324POPC   GL144809  27.601  14.192   5.745
 3324POPC   GL244810  27.305  14.433   5.727
 3324POPC   C1A44811  27.596  14.309   6.231
 3324POPC   D2A44812  27.426  14.319   6.689
 3324POPC   C3A44813  27.613  14.352   7.120
 3324POPC   C4A44814  27.919  14.243   7.473
 3324POPC   C1B44815  27.386  14.750   6.074
 3324POPC   C2B44816  27.264  14.859   6.511
 3324POPC   C3B44817  27.421  14.788   6.914
 3324POPC   C4B44818  27.285  14.820   7.318
 3325POPC   NC344819  18.559   7.431   5.326
 3325POPC   PO444820  17.966   7.699   5.516
 3325POPC   GL144821  18.181   7.554   5.880
 3325POPC   GL244822  18.530   7.648   5.835
 3325POPC   C1A44823  18.041   7.600   6.317
 3325POPC   D2A44824  17.682   7.573   6.632
 3325POPC   C3A44825  17.887   7.392   7.017
 3325POPC   C4A44826  18.239   7.075   7.030
 3325POPC   C1B44827  18.605   7.438   6.240
 3325POPC   C2B44828  18.469   7.436   6.682
 3325POPC   C3B44829  18.592   7.445   7.115
 3325POPC   C4B44830  18.699   7.580   7.511
 3326POPC   NC344831  24.821  16.438   5.352
 3326POPC   PO444832  24.272  16.832   5.089
 3326POPC   GL144833  24.449  16.746   5.567
 3326POPC   GL244834  24.179  16.698   5.808
 3326POPC   C1A44835  24.593  16.612   6.063
 3326POPC   D2A44836  24.802  16.734   6.496
 3326POPC   C3A44837  24.932  16.584   6.919
 3326POPC   C4A44838  24.744  16.708   7.312
 3326POPC   C1B44839  24.183  16.940   6.211
 3326POPC   C2B44840  24.292  16.651   6.516
 3326POPC   C3B44841  24.427  16.634   6.902
 3326POPC   C4B44842  24.243  16.941   7.183
 3327POPC   NC344843   1.934   6.943   5.293
 3327POPC   PO444844   1.689   6.298   5.447
 3327POPC   GL144845   1.851   6.592   5.778
 3327POPC   GL244846   2.166   6.558   5.639
 3327POPC   C1A44847   1.824   6.805   6.219
 3327POPC   D2A44848   1.709   6.614   6.612
 3327POPC   C3A44849   1.890   6.764   6.968
 3327POPC   C4A44850   2.079   6.552   7.241
 3327POPC   C1B44851   2.267   6.595   6.106
 3327POPC   C2B44852   2.223   6.761   6.547
 3327POPC   C3B44853   2.428   6.824   6.937
 3327POPC   C4B44854   2.302   6.998   7.324
 3328POPC   NC344855   8.907  11.166   5.410
 3328POPC   PO444856   9.357  11.625   5.446
 3328POPC   GL144857   9.106  11.561   5.803
 3328POPC   GL244858   8.759  11.539   5.732
 3328POPC   C1A44859   9.092  11.197   6.087
 3328POPC   D2A44860   8.908  11.052   6.482
 3328POPC   C3A44861   9.042  11.260   6.839
 3328POPC   C4A44862   8.980  11.415   7.233
 3328POPC   C1B44863   8.592  11.358   6.120
 3328POPC   C2B44864   8.494  11.429   6.547
 3328POPC   C3B44865   8.537  11.443   6.965
 3328POPC   C4B44866   8.544  11.187   7.293
 3329POPC   NC344867  28.384  28.803   5.211
 3329POPC   PO444868  27.866  29.228   5.358
 3329POPC   GL144869  28.157  28.981   5.623
 3329POPC   GL244870  28.449  29.157   5.721
 3329POPC   C1A44871  28.193  28.868   6.083
 3329POPC   D2A44872  28.116  28.935   6.535
 3329POPC   C3A44873  28.336  29.172   6.890
 3329POPC   C4A44874  28.230  29.029   7.305
 3329POPC   C1B44875  28.481  29.294   6.180
 3329POPC   C2B44876  28.659  29.468   6.592
 3329POPC   C3B44877  28.741  29.474   7.075
 3329POPC   C4B44878  28.470  29.405   7.489
 3330POPC   NC344879   9.436  22.672   5.262
 3330POPC   PO444880   9.968  22.551   5.571
 3330POPC   GL144881   9.841  22.812   5.927
 3330POPC   GL244882   9.925  23.182   5.923
 3330POPC   C1A44883   9.746  22.811   6.390
 3330POPC   D2A44884   9.754  23.027   6.788
 3330POPC   C3A44885   9.847  22.782   7.148
 3330POPC   C4A44886   9.594  22.719   7.509
 3330POPC   C1B44887   9.957  23.310   6.368
 3330POPC   C2B44888  10.231  23.155   6.714
 3330POPC   C3B44889  10.126  23.240   7.122
 3330POPC   C4B44890   9.874  23.416   7.471
 3331POPC   NC344891  21.768  34.740   5.677
 3331POPC   PO444892  21.360  34.571   5.168
 3331POPC   GL144893  21.288  34.581   5.664
 3331POPC   GL244894  21.295  34.866   5.821
 3331POPC   C1A44895  21.179  34.443   6.098
 3331POPC   D2A44896  21.285  34.533   6.533
 3331POPC   C3A44897  21.247  34.328   6.901
 3331POPC   C4A44898  21.312  34.471   7.291
 3331POPC   C1B44899  21.453  34.897   6.225
 3331POPC   C2B44900  21.692  34.865   6.585
 3331POPC   C3B44901  21.453  34.825   6.938
 3331POPC   C4B44902  21.508  34.939   7.352
 3332POPC   NC344903  21.319  34.164   5.401
 3332POPC   PO444904  21.528  33.536   5.236
 3332POPC   GL144905  21.595  33.759   5.656
 3332POPC   GL244906  21.422  33.544   5.898
 3332POPC   C1A44907  21.465  34.015   6.063
 3332POPC   D2A44908  21.164  34.013   6.444
 3332POPC   C3A44909  21.332  33.824   6.849
 3332POPC   C4A44910  21.492  34.003   7.253
 3332POPC   C1B44911  21.790  33.590   6.142
 3332POPC   C2B44912  21.812  33.438   6.558
 3332POPC   C3B44913  21.780  33.556   6.997
 3332POPC   C4B44914  21.438  33.505   7.249
 3333POPC   NC344915  33.402   8.453   5.366
 3333POPC   PO444916  33.962   8.146   5.271
 3333POPC   GL144917  33.828   8.276   5.690
 3333POPC   GL244918  33.941   8.621   5.745
 3333POPC   C1A44919  33.876   8.052   6.104
 3333POPC   D2A44920  33.675   7.941   6.518
 3333POPC   C3A44921  33.755   8.179   6.904
 3333POPC   C4A44922  33.739   8.016   7.308
 3333POPC   C1B44923  34.085   8.526   6.148
 3333POPC   C2B44924  34.126   8.251   6.510
 3333POPC   C3B44925  34.251   8.316   6.924
 3333POPC   C4B44926  34.106   8.480   7.291
 3334POPC   NC344927  21.377   4.923   5.479
 3334POPC   PO444928  21.619   5.517   5.652
 3334POPC   GL144929  21.698   5.097   5.860
 3334POPC   GL244930  21.926   4.796   5.799
 3334POPC   C1A44931  21.387   4.969   6.173
 3334POPC   D2A44932  21.179   5.183   6.510
 3334POPC   C3A44933  21.238   5.109   6.937
 3334POPC   C4A44934  21.580   5.207   7.178
 3334POPC   C1B44935  21.805   4.698   6.223
 3334POPC   C2B44936  21.651   4.870   6.624
 3334POPC   C3B44937  21.583   4.720   7.035
 3334POPC   C4B44938  21.818   4.739   7.410
 3335POPC   NC344939   8.386   8.114   5.500
 3335POPC   PO444940   7.745   8.513   5.585
 3335POPC   GL144941   8.059   8.337   5.806
 3335POPC   GL244942   8.025   8.584   6.014
 3335POPC   C1A44943   8.234   8.012   6.105
 3335POPC   D2A44944   8.431   7.795   6.453
 3335POPC   C3A44945   8.346   8.021   6.836
 3335POPC   C4A44946   8.375   8.110   7.268
 3335POPC   C1B44947   7.798   8.247   6.244
 3335POPC   C2B44948   7.831   8.195   6.685
 3335POPC   C3B44949   7.886   8.196   7.120
 3335POPC   C4B44950   7.760   8.178   7.550
 3336POPC   NC344951  36.077  36.611   5.287
 3336POPC   PO444952  36.602  36.934   5.643
 3336POPC   GL144953  36.310  37.146   5.884
 3336POPC   GL244954  36.019  37.148   5.644
 3336POPC   C1A44955  36.280  37.068   6.340
 3336POPC   D2A44956  36.598  37.150   6.648
 3336POPC   C3A44957  36.496  37.015   7.047
 3336POPC   C4A44958  36.183  36.888   7.327
 3336POPC   C1B44959  35.851  36.994   6.026
 3336POPC   C2B44960  35.771  37.040   6.469
 3336POPC   C3B44961  35.952  37.127   6.857
 3336POPC   C4B44962  35.741  37.138   7.242
 3337POPC   NC344963  27.133  12.957   5.404
 3337POPC   PO444964  26.520  12.773   5.212
 3337POPC   GL144965  26.705  12.872   5.667
 3337POPC   GL244966  26.704  13.242   5.640
 3337POPC   C1A44967  26.957  12.819   6.126
 3337POPC   D2A44968  27.111  12.960   6.575
 3337POPC   C3A44969  26.971  12.800   7.018
 3337POPC   C4A44970  26.811  12.711   7.461
 3337POPC   C1B44971  26.622  13.185   6.094
 3337POPC   C2B44972  26.581  13.008   6.535
 3337POPC   C3B44973  26.506  12.994   6.971
 3337POPC   C4B44974  26.670  13.185   7.312
 3338POPC   NC344975  19.336  22.579   5.572
 3338POPC   PO444976  18.782  22.929   5.291
 3338POPC   GL144977  18.921  23.032   5.733
 3338POPC   GL244978  19.028  22.748   5.921
 3338POPC   C1A44979  19.001  23.190   6.173
 3338POPC   D2A44980  18.931  23.051   6.610
 3338POPC   C3A44981  19.076  23.049   7.051
 3338POPC   C4A44982  18.824  23.096   7.466
 3338POPC   C1B44983  19.293  22.798   6.314
 3338POPC   C2B44984  19.466  22.820   6.740
 3338POPC   C3B44985  19.315  22.589   7.098
 3338POPC   C4B44986  19.157  22.697   7.476
 3339POPC   NC344987  30.278  31.989   5.406
 3339POPC   PO444988  29.633  32.351   5.466
 3339POPC   GL144989  29.949  32.236   5.732
 3339POPC   GL244990  29.924  31.863   5.759
 3339POPC   C1A44991  29.988  32.436   6.131
 3339POPC   D2A44992  29.781  32.369   6.523
 3339POPC   C3A44993  29.968  32.454   6.913
 3339POPC   C4A44994  29.891  32.707   7.282
 3339POPC   C1B44995  29.684  31.994   6.118
 3339POPC   C2B44996  29.694  31.880   6.530
 3339POPC   C3B44997  29.595  32.072   6.925
 3339POPC   C4B44998  29.886  32.081   7.273
 3340POPC   NC344999  31.940  27.710   5.444
 3340POPC   PO445000  31.514  27.134   5.246
 3340POPC   GL145001  31.540  27.287   5.711
 3340POPC   GL245002  31.612  27.614   5.810
 3340POPC   C1A45003  31.560  27.335   6.217
 3340POPC   D2A45004  31.298  27.496   6.554
 3340POPC   C3A45005  31.170  27.518   6.980
 3340POPC   C4A45006  31.215  27.315   7.378
 3340POPC   C1B45007  31.822  27.796   6.140
 3340POPC   C2B45008  31.623  27.896   6.520
 3340POPC   C3B45009  31.570  27.814   6.927
 3340POPC   C4B45010  31.630  27.603   7.270
 3341POPC   NC345011  38.211   9.463   5.524
 3341POPC   PO445012  38.916   9.431   5.517
 3341POPC   GL145013  38.620   9.587   5.814
 3341POPC   GL245014  38.544   9.948   5.818
 3341POPC   C1A45015  38.389   9.685   6.203
 3341POPC   D2A45016  38.375   9.912   6.603
 3341POPC   C3A45017  38.448   9.635   6.972
 3341POPC   C4A45018  38.225   9.852   7.296
 3341POPC   C1B45019  38.758  10.080   6.218
 3341POPC   C2B45020  38.884   9.956   6.658
 3341POPC   C3B45021  38.682  10.071   7.085
 3341POPC   C4B45022  38.684   9.943   7.547
 3342POPC   NC345023  23.056  12.410   5.436
 3342POPC   PO445024  22.447  12.091   5.399
 3342POPC   GL145025  22.734  12.115   5.738
 3342POPC   GL245026  22.828  11.802   5.868
 3342POPC   C1A45027  22.845  12.217   6.168
 3342POPC   D2A45028  22.761  12.022   6.577
 3342POPC   C3A45029  22.899  12.231   6.942
 3342POPC   C4A45030  23.111  12.317   7.323
 3342POPC   C1B45031  23.003  11.685   6.249
 3342POPC   C2B45032  23.168  11.657   6.660
 3342POPC   C3B45033  23.019  11.741   7.053
 3342POPC   C4B45034  22.840  11.708   7.453
 3343POPC   NC345035  22.008   5.699   5.475
 3343POPC   PO445036  22.120   5.019   5.274
 3343POPC   GL145037  22.270   5.146   5.700
 3343POPC   GL245038  22.426   5.453   5.683
 3343POPC   C1A45039  22.129   5.127   6.161
 3343POPC   D2A45040  21.990   5.268   6.583
 3343POPC   C3A45041  22.014   5.018   6.993
 3343POPC   C4A45042  22.051   5.196   7.435
 3343POPC   C1B45043  22.488   5.505   6.124
 3343POPC   C2B45044  22.401   5.614   6.558
 3343POPC   C3B45045  22.321   5.417   6.952
 3343POPC   C4B45046  22.545   5.527   7.274
 3344POPC   NC345047  28.622  33.991   5.490
 3344POPC   PO445048  28.109  33.484   5.446
 3344POPC   GL145049  28.173  33.802   5.752
 3344POPC   GL245050  28.493  33.693   5.921
 3344POPC   C1A45051  28.098  33.908   6.201
 3344POPC   D2A45052  28.190  33.620   6.558
 3344POPC   C3A45053  28.355  33.831   6.913
 3344POPC   C4A45054  28.252  34.238   7.103
 3344POPC   C1B45055  28.844  33.490   6.182
 3344POPC   C2B45056  28.976  33.628   6.592
 3344POPC   C3B45057  28.825  33.608   7.019
 3344POPC   C4B45058  28.565  33.759   7.378
 3345POPC   NC345059  22.322   3.653   5.395
 3345POPC   PO445060  21.898   3.201   5.474
 3345POPC   GL145061  22.299   3.276   5.784
 3345POPC   GL245062  22.484   3.592   5.875
 3345POPC   C1A45063  22.477   3.306   6.265
 3345POPC   D2A45064  22.429   3.298   6.725
 3345POPC   C3A45065  22.109   3.575   6.903
 3345POPC   C4A45066  21.813   3.568   7.245
 3345POPC   C1B45067  22.380   3.846   6.254
 3345POPC   C2B45068  22.513   3.851   6.692
 3345POPC   C3B45069  22.533   3.738   7.148
 3345POPC   C4B45070  22.426   3.321   7.238
 3346POPC   NC345071   0.037   5.321   5.042
 3346POPC   PO445072  44.475   5.051   5.380
 3346POPC   GL145073  44.587   5.032   5.808
 3346POPC   GL245074  44.929   5.099   5.799
 3346POPC   C1A45075  44.405   4.950   6.226
 3346POPC   D2A45076  44.577   5.015   6.644
 3346POPC   C3A45077  44.518   4.771   7.004
 3346POPC   C4A45078  44.287   4.791   7.399
 3346POPC   C1B45079  44.939   4.962   6.238
 3346POPC   C2B45080   0.072   4.907   6.680
 3346POPC   C3B45081  44.991   4.897   7.129
 3346POPC   C4B45082  44.666   5.125   7.376
 3347POPC   NC345083  37.511  38.527   5.244
 3347POPC   PO445084  38.005  38.111   5.554
 3347POPC   GL145085  37.661  38.289   5.703
 3347POPC   GL245086  37.639  38.623   5.736
 3347POPC   C1A45087  37.667  38.224   6.125
 3347POPC   D2A45088  37.603  38.291   6.566
 3347POPC   C3A45089  37.845  38.558   6.854
 3347POPC   C4A45090  37.798  38.387   7.258
 3347POPC   C1B45091  37.535  38.727   6.164
 3347POPC   C2B45092  37.365  38.738   6.582
 3347POPC   C3B45093  37.475  38.889   6.994
 3347POPC   C4B45094  37.571  38.823   7.394
 3348POPC   NC345095  33.880  31.539   5.405
 3348POPC   PO445096  33.446  31.106   5.581
 3348POPC   GL145097  33.567  31.435   5.820
 3348POPC   GL245098  33.625  31.774   5.783
 3348POPC   C1A45099  33.699  31.418   6.230
 3348POPC   D2A45100  33.847  31.665   6.547
 3348POPC   C3A45101  33.750  31.477   6.971
 3348POPC   C4A45102  33.474  31.372   7.307
 3348POPC   C1B45103  34.056  31.742   6.062
 3348POPC   C2B45104  34.346  31.670   6.466
 3348POPC   C3B45105  34.216  31.667   6.922
 3348POPC   C4B45106  34.065  31.605   7.386
 3349POPC   NC345107  12.145  29.957   5.348
 3349POPC   PO445108  12.418  29.406   5.462
 3349POPC   GL145109  12.186  29.612   5.798
 3349POPC   GL245110  12.230  29.983   5.844
 3349POPC   C1A45111  12.049  29.722   6.231
 3349POPC   D2A45112  11.849  29.567   6.567
 3349POPC   C3A45113  12.083  29.713   6.917
 3349POPC   C4A45114  12.200  29.750   7.348
 3349POPC   C1B45115  11.902  30.176   6.140
 3349POPC   C2B45116  11.791  30.071   6.601
 3349POPC   C3B45117  11.879  30.138   7.086
 3349POPC   C4B45118  12.280  30.245   7.356
 3350POPC   NC345119  44.370  28.362   5.450
 3350POPC   PO445120   0.096  28.222   5.441
 3350POPC   GL145121  44.913  28.466   5.776
 3350POPC   GL245122  44.577  28.397   5.910
 3350POPC   C1A45123  44.989  28.518   6.219
 3350POPC   D2A45124  44.877  28.422   6.664
 3350POPC   C3A45125  44.846  28.719   6.996
 3350POPC   C4A45126   0.032  28.656   7.382
 3350POPC   C1B45127  44.327  28.092   6.123
 3350POPC   C2B45128  44.172  28.071   6.539
 3350POPC   C3B45129  44.363  28.293   6.822
 3350POPC   C4B45130  44.523  28.362   7.178
 3351POPC   NC345131  38.791   4.239   5.477
 3351POPC   PO445132  38.343   4.677   5.647
 3351POPC   GL145133  38.426   4.293   5.916
 3351POPC   GL245134  38.757   4.191   6.079
 3351POPC   C1A45135  38.298   4.232   6.356
 3351POPC   D2A45136  38.488   4.408   6.745
 3351POPC   C3A45137  38.347   4.221   7.124
 3351POPC   C4A45138  38.519   4.007   7.461
 3351POPC   C1B45139  38.640   4.623   6.282
 3351POPC   C2B45140  38.426   4.908   6.606
 3351POPC   C3B45141  38.455   4.851   7.067
 3351POPC   C4B45142  38.722   4.552   7.289
 3352POPC   NC345143  16.734  29.586   5.487
 3352POPC   PO445144  16.538  28.934   5.285
 3352POPC   GL145145  16.724  29.101   5.725
 3352POPC   GL245146  16.979  29.372   5.867
 3352POPC   C1A45147  16.639  29.171   6.189
 3352POPC   D2A45148  16.656  29.393   6.589
 3352POPC   C3A45149  16.786  29.100   6.885
 3352POPC   C4A45150  16.596  28.944   7.244
 3352POPC   C1B45151  17.058  29.553   6.289
 3352POPC   C2B45152  17.169  29.424   6.715
 3352POPC   C3B45153  16.927  29.546   7.055
 3352POPC   C4B45154  16.480  29.459   7.102
 3353POPC   NC345155   9.885   6.645   5.342
 3353POPC   PO445156   9.455   7.148   5.288
 3353POPC   GL145157   9.538   6.901   5.706
 3353POPC   GL245158   9.906   6.823   5.818
 3353POPC   C1A45159   9.540   6.817   6.171
 3353POPC   D2A45160   9.651   6.607   6.573
 3353POPC   C3A45161   9.464   6.690   6.955
 3353POPC   C4A45162   9.497   6.574   7.366
 3353POPC   C1B45163   9.956   6.487   6.160
 3353POPC   C2B45164  10.032   6.265   6.581
 3353POPC   C3B45165  10.008   6.508   6.960
 3353POPC   C4B45166  10.290   6.725   7.210
 3354POPC   NC345167  35.675  41.058   5.529
 3354POPC   PO445168  35.407  40.380   5.392
 3354POPC   GL145169  35.322  40.608   5.771
 3354POPC   GL245170  35.147  40.946   5.717
 3354POPC   C1A45171  35.428  40.528   6.175
 3354POPC   D2A45172  35.433  40.891   6.408
 3354POPC   C3A45173  35.449  40.879   6.843
 3354POPC   C4A45174  35.248  40.691   7.184
 3354POPC   C1B45175  34.966  40.867   6.144
 3354POPC   C2B45176  34.923  41.014   6.585
 3354POPC   C3B45177  35.064  41.176   7.046
 3354POPC   C4B45178  35.083  41.049   7.535
 3355POPC   NC345179  20.760   8.756   5.458
 3355POPC   PO445180  20.265   9.277   5.340
 3355POPC   GL145181  20.316   9.060   5.737
 3355POPC   GL245182  20.621   9.180   5.807
 3355POPC   C1A45183  20.488   8.776   6.098
 3355POPC   D2A45184  20.676   8.850   6.517
 3355POPC   C3A45185  20.623   8.625   6.852
 3355POPC   C4A45186  20.478   8.648   7.263
 3355POPC   C1B45187  20.584   9.274   6.256
 3355POPC   C2B45188  20.632   9.314   6.722
 3355POPC   C3B45189  20.559   9.130   7.134
 3355POPC   C4B45190  20.790   9.208   7.519
 3356POPC   NC345191  43.616  16.285   5.209
 3356POPC   PO445192  43.291  15.702   5.479
 3356POPC   GL145193  43.023  15.706   5.865
 3356POPC   GL245194  43.154  16.020   6.012
 3356POPC   C1A45195  42.898  15.736   6.334
 3356POPC   D2A45196  43.072  16.087   6.584
 3356POPC   C3A45197  42.962  16.148   7.039
 3356POPC   C4A45198  43.225  16.095   7.408
 3356POPC   C1B45199  43.386  15.643   6.195
 3356POPC   C2B45200  43.259  15.482   6.559
 3356POPC   C3B45201  43.230  15.723   6.922
 3356POPC   C4B45202  43.375  15.623   7.294
 3357POPC   NC345203  42.605   3.579   5.395
 3357POPC   PO445204  42.427   2.981   5.564
 3357POPC   GL145205  42.264   3.325   5.804
 3357POPC   GL245206  41.972   3.157   5.935
 3357POPC   C1A45207  42.316   3.667   6.110
 3357POPC   D2A45208  42.205   3.762   6.553
 3357POPC   C3A45209  42.458   3.865   6.929
 3357POPC   C4A45210  42.477   3.799   7.397
 3357POPC   C1B45211  42.046   3.301   6.350
 3357POPC   C2B45212  42.230   3.279   6.759
 3357POPC   C3B45213  42.191   3.471   7.145
 3357POPC   C4B45214  42.104   3.443   7.611
 3358POPC   NC345215  14.000  42.048   5.361
 3358POPC   PO445216  13.613  42.581   5.405
 3358POPC   GL145217  13.508  42.358   5.807
 3358POPC   GL245218  13.842  42.290   5.826
 3358POPC   C1A45219  13.389  42.292   6.281
 3358POPC   D2A45220  13.575  42.313   6.705
 3358POPC   C3A45221  13.379  42.153   7.092
 3358POPC   C4A45222  13.373  42.257   7.545
 3358POPC   C1B45223  13.878  42.388   6.255
 3358POPC   C2B45224  14.042  42.150   6.598
 3358POPC   C3B45225  13.877  42.006   6.988
 3358POPC   C4B45226  13.835  42.243   7.334
 3359POPC   NC345227   2.092   8.859   5.369
 3359POPC   PO445228   1.709   8.389   5.458
 3359POPC   GL145229   1.771   8.766   5.774
 3359POPC   GL245230   2.111   8.928   5.868
 3359POPC   C1A45231   1.761   8.953   6.219
 3359POPC   D2A45232   1.950   8.786   6.608
 3359POPC   C3A45233   2.034   9.069   6.941
 3359POPC   C4A45234   1.693   9.125   7.253
 3359POPC   C1B45235   2.137   8.567   6.176
 3359POPC   C2B45236   2.339   8.420   6.596
 3359POPC   C3B45237   2.229   8.596   7.003
 3359POPC   C4B45238   1.854   8.654   7.218
 3360POPC   NC345239  28.690  13.197   5.306
 3360POPC   PO445240  28.884  13.822   5.388
 3360POPC   GL145241  29.054  13.722   5.769
 3360POPC   GL245242  29.109  13.393   5.631
 3360POPC   C1A45243  29.091  13.943   6.161
 3360POPC   D2A45244  29.312  13.945   6.535
 3360POPC   C3A45245  29.162  13.680   6.826
 3360POPC   C4A45246  29.220  13.760   7.222
 3360POPC   C1B45247  28.871  13.304   6.030
 3360POPC   C2B45248  28.904  13.381   6.472
 3360POPC   C3B45249  28.706  13.459   6.889
 3360POPC   C4B45250  28.923  13.309   7.233
 3361POPC   NC345251   1.485  40.745   5.293
 3361POPC   PO445252   2.000  40.872   5.076
 3361POPC   GL145253   1.876  40.784   5.640
 3361POPC   GL245254   1.634  40.580   5.793
 3361POPC   C1A45255   2.036  40.859   6.102
 3361POPC   D2A45256   2.192  40.621   6.497
 3361POPC   C3A45257   2.075  40.731   6.965
 3361POPC   C4A45258   2.140  40.734   7.428
 3361POPC   C1B45259   1.748  40.463   6.219
 3361POPC   C2B45260   1.699  40.611   6.641
 3361POPC   C3B45261   1.558  40.590   7.069
 3361POPC   C4B45262   1.667  40.888   7.370
 3362POPC   NC345263  27.814   0.891   5.462
 3362POPC   PO445264  27.586   1.514   5.520
 3362POPC   GL145265  27.581   1.290   5.869
 3362POPC   GL245266  27.847   1.062   5.931
 3362POPC   C1A45267  27.607   1.350   6.291
 3362POPC   D2A45268  27.930   1.366   6.564
 3362POPC   C3A45269  27.689   1.445   6.885
 3362POPC   C4A45270  27.492   1.358   7.235
 3362POPC   C1B45271  27.882   0.790   6.280
 3362POPC   C2B45272  27.792   0.736   6.697
 3362POPC   C3B45273  27.630   0.841   7.095
 3362POPC   C4B45274  27.866   0.723   7.424
 3363POPC   NC345275   3.574   6.264   5.389
 3363POPC   PO445276   3.653   5.537   5.306
 3363POPC   GL145277   3.637   5.661   5.758
 3363POPC   GL245278   3.415   5.951   5.813
 3363POPC   C1A45279   3.510   5.601   6.212
 3363POPC   D2A45280   3.423   5.854   6.582
 3363POPC   C3A45281   3.472   5.675   6.990
 3363POPC   C4A45282   3.767   5.726   7.325
 3363POPC   C1B45283   3.763   6.058   6.111
 3363POPC   C2B45284   3.853   6.163   6.554
 3363POPC   C3B45285   3.728   6.136   6.996
 3363POPC   C4B45286   3.757   6.406   7.369
 3364POPC   NC345287   7.674   8.058   5.535
 3364POPC   PO445288   7.123   8.378   5.218
 3364POPC   GL145289   7.247   8.358   5.644
 3364POPC   GL245290   7.176   7.997   5.633
 3364POPC   C1A45291   7.325   8.439   6.106
 3364POPC   D2A45292   7.105   8.603   6.479
 3364POPC   C3A45293   7.275   8.466   6.855
 3364POPC   C4A45294   7.385   8.251   7.208
 3364POPC   C1B45295   7.003   8.057   6.036
 3364POPC   C2B45296   6.847   8.135   6.453
 3364POPC   C3B45297   6.990   8.025   6.853
 3364POPC   C4B45298   7.070   7.811   7.225
 3365POPC   NC345299  34.047  14.565   5.309
 3365POPC   PO445300  33.432  14.123   5.385
 3365POPC   GL145301  33.748  14.330   5.649
 3365POPC   GL245302  34.042  14.116   5.723
 3365POPC   C1A45303  33.868  14.538   6.046
 3365POPC   D2A45304  33.663  14.475   6.456
 3365POPC   C3A45305  33.783  14.683   6.848
 3365POPC   C4A45306  33.604  14.658   7.259
 3365POPC   C1B45307  33.918  14.022   6.147
 3365POPC   C2B45308  33.786  13.983   6.562
 3365POPC   C3B45309  33.736  14.161   6.934
 3365POPC   C4B45310  34.020  14.338   7.222
 3366POPC   NC345311  27.903  41.242   5.662
 3366POPC   PO445312  28.041  41.751   5.254
 3366POPC   GL145313  28.118  41.753   5.744
 3366POPC   GL245314  28.302  42.061   5.871
 3366POPC   C1A45315  28.322  41.526   6.150
 3366POPC   D2A45316  28.278  41.273   6.545
 3366POPC   C3A45317  28.398  41.451   6.943
 3366POPC   C4A45318  28.512  41.422   7.376
 3366POPC   C1B45319  28.078  41.961   6.257
 3366POPC   C2B45320  28.148  41.853   6.706
 3366POPC   C3B45321  27.988  41.810   7.147
 3366POPC   C4B45322  28.042  41.980   7.565
 3367POPC   NC345323  37.773   7.040   5.551
 3367POPC   PO445324  37.359   7.545   5.311
 3367POPC   GL145325  37.535   7.619   5.720
 3367POPC   GL245326  37.880   7.511   5.749
 3367POPC   C1A45327  37.446   7.496   6.148
 3367POPC   D2A45328  37.381   7.304   6.573
 3367POPC   C3A45329  37.489   7.526   6.966
 3367POPC   C4A45330  37.675   7.464   7.406
 3367POPC   C1B45331  38.032   7.296   6.126
 3367POPC   C2B45332  38.209   7.197   6.525
 3367POPC   C3B45333  38.007   7.334   6.882
 3367POPC   C4B45334  38.119   7.246   7.262
 3368POPC   NC345335  43.506   2.609   5.147
 3368POPC   PO445336  43.102   2.646   5.635
 3368POPC   GL145337  43.331   2.753   5.981
 3368POPC   GL245338  43.106   3.031   6.041
 3368POPC   C1A45339  43.301   2.812   6.419
 3368POPC   D2A45340  43.212   2.529   6.706
 3368POPC   C3A45341  43.394   2.685   7.067
 3368POPC   C4A45342  43.274   3.119   7.077
 3368POPC   C1B45343  42.810   2.794   6.313
 3368POPC   C2B45344  42.611   2.992   6.627
 3368POPC   C3B45345  42.542   2.906   7.051
 3368POPC   C4B45346  42.903   2.732   7.209
 3369POPC   NC345347   4.550  28.153   5.234
 3369POPC   PO445348   4.669  28.750   5.572
 3369POPC   GL145349   4.284  28.565   5.772
 3369POPC   GL245350   4.349  28.209   5.860
 3369POPC   C1A45351   4.027  28.571   6.169
 3369POPC   D2A45352   4.236  28.614   6.551
 3369POPC   C3A45353   4.153  28.529   6.982
 3369POPC   C4A45354   4.512  28.619   7.269
 3369POPC   C1B45355   4.125  28.081   6.262
 3369POPC   C2B45356   4.114  28.081   6.735
 3369POPC   C3B45357   4.431  28.100   7.101
 3369POPC   C4B45358   4.705  27.804   7.333
 3370POPC   NC345359  35.833  15.762   5.384
 3370POPC   PO445360  36.303  15.540   5.749
 3370POPC   GL145361  35.934  15.709   5.896
 3370POPC   GL245362  35.991  16.039   5.885
 3370POPC   C1A45363  35.699  15.784   6.269
 3370POPC   D2A45364  35.761  15.872   6.704
 3370POPC   C3A45365  36.040  15.742   7.034
 3370POPC   C4A45366  36.067  15.786   7.491
 3370POPC   C1B45367  36.170  15.958   6.314
 3370POPC   C2B45368  36.191  16.149   6.734
 3370POPC   C3B45369  36.028  16.265   7.158
 3370POPC   C4B45370  36.166  16.306   7.590
 3371POPC   NC345371  10.835  18.319   5.549
 3371POPC   PO445372  10.129  18.184   5.480
 3371POPC   GL145373  10.314  18.040   5.827
 3371POPC   GL245374  10.429  18.370   5.932
 3371POPC   C1A45375  10.289  18.009   6.273
 3371POPC   D2A45376  10.433  17.918   6.668
 3371POPC   C3A45377  10.400  18.296   6.861
 3371POPC   C4A45378  10.370  18.317   7.257
 3371POPC   C1B45379  10.550  18.485   6.363
 3371POPC   C2B45380  10.833  18.522   6.705
 3371POPC   C3B45381  10.805  18.616   7.142
 3371POPC   C4B45382  10.694  18.538   7.590
 3372POPC   NC345383  35.562  10.881   5.402
 3372POPC   PO445384  35.634  10.155   5.412
 3372POPC   GL145385  35.571  10.483   5.758
 3372POPC   GL245386  35.225  10.635   5.698
 3372POPC   C1A45387  35.474  10.384   6.212
 3372POPC   D2A45388  35.529  10.027   6.536
 3372POPC   C3A45389  35.612  10.176   6.975
 3372POPC   C4A45390  35.529  10.464   7.285
 3372POPC   C1B45391  35.062  10.734   6.108
 3372POPC   C2B45392  34.957  10.618   6.548
 3372POPC   C3B45393  35.123  10.559   6.984
 3372POPC   C4B45394  35.067  10.694   7.425
 3373POPC   NC345395   6.105  15.895   5.427
 3373POPC   PO445396   5.620  16.359   5.534
 3373POPC   GL145397   5.747  15.984   5.789
 3373POPC   GL245398   6.054  15.840   5.901
 3373POPC   C1A45399   5.659  15.753   6.187
 3373POPC   D2A45400   5.607  15.537   6.575
 3373POPC   C3A45401   5.599  15.832   6.919
 3373POPC   C4A45402   5.680  15.843   7.348
 3373POPC   C1B45403   6.191  15.660   6.248
 3373POPC   C2B45404   6.088  15.727   6.629
 3373POPC   C3B45405   6.091  15.701   7.030
 3373POPC   C4B45406   6.190  16.046   7.249
 3374POPC   NC345407   9.158  21.790   5.158
 3374POPC   PO445408   8.641  21.695   5.610
 3374POPC   GL145409   8.856  21.823   5.960
 3374POPC   GL245410   9.154  21.934   5.846
 3374POPC   C1A45411   9.018  21.685   6.355
 3374POPC   D2A45412   8.919  21.786   6.758
 3374POPC   C3A45413   9.225  21.988   7.006
 3374POPC   C4A45414   9.174  22.026   7.431
 3374POPC   C1B45415   9.335  22.073   6.273
 3374POPC   C2B45416   9.422  22.349   6.676
 3374POPC   C3B45417   9.257  22.494   7.133
 3374POPC   C4B45418   9.116  22.502   7.591
 3375POPC   NC345419  28.913  15.493   5.349
 3375POPC   PO445420  29.293  16.040   5.130
 3375POPC   GL145421  29.082  15.965   5.557
 3375POPC   GL245422  29.241  15.671   5.703
 3375POPC   C1A45423  28.830  16.024   5.988
 3375POPC   D2A45424  28.832  15.931   6.468
 3375POPC   C3A45425  28.858  16.189   6.868
 3375POPC   C4A45426  29.166  16.170   7.227
 3375POPC   C1B45427  29.054  15.557   6.102
 3375POPC   C2B45428  29.211  15.506   6.514
 3375POPC   C3B45429  29.117  15.687   6.910
 3375POPC   C4B45430  28.982  15.608   7.309
 3376POPC   NC345431   1.189  41.893   5.327
 3376POPC   PO445432   1.313  41.217   5.342
 3376POPC   GL145433   1.241  41.484   5.690
 3376POPC   GL245434   1.530  41.687   5.645
 3376POPC   C1A45435   1.246  41.440   6.163
 3376POPC   D2A45436   1.003  41.642   6.524
 3376POPC   C3A45437   0.937  41.404   6.911
 3376POPC   C4A45438   1.099  41.509   7.326
 3376POPC   C1B45439   1.596  41.829   6.092
 3376POPC   C2B45440   1.565  41.734   6.549
 3376POPC   C3B45441   1.358  41.729   6.941
 3376POPC   C4B45442   1.315  41.970   7.342
 3377POPC   NC345443  23.205  25.488   5.343
 3377POPC   PO445444  23.810  25.476   5.215
 3377POPC   GL145445  23.621  25.343   5.672
 3377POPC   GL245446  23.765  25.025   5.823
 3377POPC   C1A45447  23.625  25.401   6.166
 3377POPC   D2A45448  23.886  25.394   6.598
 3377POPC   C3A45449  23.709  25.317   7.031
 3377POPC   C4A45450  23.435  24.998   7.235
 3377POPC   C1B45451  23.901  24.982   6.258
 3377POPC   C2B45452  23.969  24.824   6.658
 3377POPC   C3B45453  24.018  24.901   7.106
 3377POPC   C4B45454  23.868  25.066   7.507
 3378POPC   NC345455  38.183  33.337   5.484
 3378POPC   PO445456  38.641  32.973   5.202
 3378POPC   GL145457  38.568  32.857   5.683
 3378POPC   GL245458  38.322  33.040   5.865
 3378POPC   C1A45459  38.592  32.768   6.172
 3378POPC   D2A45460  38.776  32.952   6.560
 3378POPC   C3A45461  38.623  32.818   6.984
 3378POPC   C4A45462  38.705  33.006   7.384
 3378POPC   C1B45463  38.157  33.278   6.238
 3378POPC   C2B45464  38.288  33.112   6.657
 3378POPC   C3B45465  38.198  33.085   7.106
 3378POPC   C4B45466  37.828  33.301   7.231
 3379POPC   NC345467  11.380  35.935   5.409
 3379POPC   PO445468  11.448  36.536   5.320
 3379POPC   GL145469  11.432  36.495   5.797
 3379POPC   GL245470  11.462  36.137   5.871
 3379POPC   C1A45471  11.257  36.448   6.259
 3379POPC   D2A45472  11.091  36.276   6.674
 3379POPC   C3A45473  11.269  36.404   7.081
 3379POPC   C4A45474  11.430  36.494   7.507
 3379POPC   C1B45475  11.332  35.955   6.276
 3379POPC   C2B45476  11.227  35.784   6.674
 3379POPC   C3B45477  11.215  35.888   7.098
 3379POPC   C4B45478  10.970  35.641   7.405
 3380POPC   NC345479  35.562  24.757   5.445
 3380POPC   PO445480  36.198  24.427   5.364
 3380POPC   GL145481  36.123  24.295   5.776
 3380POPC   GL245482  35.786  24.386   5.777
 3380POPC   C1A45483  36.227  24.425   6.191
 3380POPC   D2A45484  36.446  24.498   6.571
 3380POPC   C3A45485  36.277  24.393   6.967
 3380POPC   C4A45486  36.157  24.745   7.213
 3380POPC   C1B45487  35.762  24.160   6.188
 3380POPC   C2B45488  36.015  24.149   6.575
 3380POPC   C3B45489  35.802  24.154   6.942
 3380POPC   C4B45490  35.903  24.329   7.334
 3381POPC   NC345491   9.273  36.875   5.401
 3381POPC   PO445492   8.589  37.158   5.390
 3381POPC   GL145493   8.840  37.146   5.723
 3381POPC   GL245494   8.899  36.815   5.767
 3381POPC   C1A45495   8.856  37.184   6.182
 3381POPC   D2A45496   8.746  37.408   6.583
 3381POPC   C3A45497   8.798  37.171   6.984
 3381POPC   C4A45498   9.030  37.158   7.368
 3381POPC   C1B45499   9.075  36.698   6.189
 3381POPC   C2B45500   9.001  36.837   6.634
 3381POPC   C3B45501   9.150  36.746   7.074
 3381POPC   C4B45502   9.206  36.392   7.372
 3382POPC   NC345503   0.802  21.674   5.366
 3382POPC   PO445504   0.365  22.216   5.313
 3382POPC   GL145505   0.413  22.341   5.753
 3382POPC   GL245506   0.769  22.373   5.820
 3382POPC   C1A45507   0.451  22.081   6.159
 3382POPC   D2A45508   0.482  21.870   6.568
 3382POPC   C3A45509   0.473  22.137   6.936
 3382POPC   C4A45510   0.175  22.198   7.253
 3382POPC   C1B45511   0.535  22.583   6.184
 3382POPC   C2B45512   0.387  22.592   6.622
 3382POPC   C3B45513   0.604  22.651   7.027
 3382POPC   C4B45514   0.769  22.467   7.409
 3383POPC   NC345515  16.845  41.100   5.559
 3383POPC   PO445516  17.205  40.601   5.546
 3383POPC   GL145517  16.986  40.774   5.946
 3383POPC   GL245518  16.730  41.051   6.036
 3383POPC   C1A45519  16.931  40.708   6.379
 3383POPC   D2A45520  17.125  40.452   6.670
 3383POPC   C3A45521  17.163  40.609   7.070
 3383POPC   C4A45522  16.888  40.554   7.437
 3383POPC   C1B45523  17.029  41.211   6.320
 3383POPC   C2B45524  17.002  41.118   6.766
 3383POPC   C3B45525  16.785  40.961   7.135
 3383POPC   C4B45526  16.877  41.078   7.553
 3384POPC   NC345527  36.632  27.409   5.574
 3384POPC   PO445528  36.818  26.772   5.355
 3384POPC   GL145529  36.701  26.910   5.777
 3384POPC   GL245530  37.043  26.979   5.856
 3384POPC   C1A45531  36.718  26.683   6.193
 3384POPC   D2A45532  36.964  26.679   6.587
 3384POPC   C3A45533  36.756  26.623   6.996
 3384POPC   C4A45534  36.880  26.491   7.454
 3384POPC   C1B45535  37.014  27.100   6.278
 3384POPC   C2B45536  36.758  27.130   6.674
 3384POPC   C3B45537  36.957  27.086   7.049
 3384POPC   C4B45538  36.904  27.002   7.514
 3385POPC   NC345539   6.858  15.458   5.759
 3385POPC   PO445540   6.436  15.118   5.304
 3385POPC   GL145541   6.606  14.994   5.759
 3385POPC   GL245542   6.488  15.222   6.022
 3385POPC   C1A45543   6.864  14.932   6.204
 3385POPC   D2A45544   6.939  14.983   6.695
 3385POPC   C3A45545   6.553  14.962   6.984
 3385POPC   C4A45546   6.344  15.285   7.244
 3385POPC   C1B45547   6.655  15.423   6.390
 3385POPC   C2B45548   6.575  15.464   6.808
 3385POPC   C3B45549   6.864  15.333   7.129
 3385POPC   C4B45550   7.035  15.405   7.515
 3386POPC   NC345551  13.042  13.031   5.355
 3386POPC   PO445552  12.608  12.564   5.562
 3386POPC   GL145553  12.661  12.955   5.752
 3386POPC   GL245554  12.995  12.915   5.832
 3386POPC   C1A45555  12.695  13.156   6.171
 3386POPC   D2A45556  13.026  13.157   6.484
 3386POPC   C3A45557  13.035  12.838   6.803
 3386POPC   C4A45558  12.746  12.718   7.131
 3386POPC   C1B45559  12.952  12.713   6.195
 3386POPC   C2B45560  13.256  12.542   6.439
 3386POPC   C3B45561  13.203  12.345   6.831
 3386POPC   C4B45562  13.209  12.565   7.237
 3387POPC   NC345563  34.877  44.529   5.497
 3387POPC   PO445564  34.288  44.297   5.325
 3387POPC   GL145565  34.334  44.295   5.758
 3387POPC   GL245566  34.112  44.555   5.848
 3387POPC   C1A45567  34.466  44.229   6.209
 3387POPC   D2A45568  34.374  44.242   6.673
 3387POPC   C3A45569  34.566  44.519   6.952
 3387POPC   C4A45570  34.781  44.406   7.329
 3387POPC   C1B45571  34.272  44.705   6.264
 3387POPC   C2B45572  34.397  44.908   6.665
 3387POPC   C3B45573  34.428  44.974   7.138
 3387POPC   C4B45574  34.395  44.681   7.502
 3388POPC   NC345575  21.478   3.261   5.286
 3388POPC   PO445576  20.870   3.644   5.375
 3388POPC   GL145577  21.147   3.584   5.748
 3388POPC   GL245578  21.406   3.326   5.785
 3388POPC   C1A45579  21.284   3.597   6.215
 3388POPC   D2A45580  21.090   3.609   6.649
 3388POPC   C3A45581  21.338   3.519   7.047
 3388POPC   C4A45582  21.307   3.507   7.527
 3388POPC   C1B45583  21.768   3.331   6.110
 3388POPC   C2B45584  21.968   3.174   6.507
 3388POPC   C3B45585  21.896   3.108   6.965
 3388POPC   C4B45586  21.601   3.122   7.307
 3389POPC   NC345587  39.613  24.392   5.423
 3389POPC   PO445588  40.231  24.760   5.447
 3389POPC   GL145589  40.053  24.562   5.790
 3389POPC   GL245590  39.751  24.696   5.865
 3389POPC   C1A45591  40.177  24.594   6.227
 3389POPC   D2A45592  40.399  24.567   6.617
 3389POPC   C3A45593  40.163  24.586   6.998
 3389POPC   C4A45594  40.146  24.334   7.372
 3389POPC   C1B45595  39.727  24.358   6.193
 3389POPC   C2B45596  39.862  24.400   6.634
 3389POPC   C3B45597  39.692  24.368   7.092
 3389POPC   C4B45598  39.660  24.444   7.585
 3390POPC   NC345599  38.045  21.678   5.491
 3390POPC   PO445600  37.443  21.490   5.342
 3390POPC   GL145601  37.599  21.551   5.768
 3390POPC   GL245602  37.349  21.792   5.812
 3390POPC   C1A45603  37.712  21.434   6.237
 3390POPC   D2A45604  37.588  21.372   6.706
 3390POPC   C3A45605  37.834  21.299   7.119
 3390POPC   C4A45606  38.016  21.380   7.548
 3390POPC   C1B45607  37.255  21.678   6.282
 3390POPC   C2B45608  37.190  21.704   6.767
 3390POPC   C3B45609  37.324  21.433   7.140
 3390POPC   C4B45610  37.514  21.520   7.542
 3391POPC   NC345611  29.520  12.671   5.116
 3391POPC   PO445612  28.919  12.874   5.073
 3391POPC   GL145613  29.130  12.872   5.514
 3391POPC   GL245614  29.439  12.677   5.637
 3391POPC   C1A45615  29.285  13.027   5.950
 3391POPC   D2A45616  29.279  12.985   6.404
 3391POPC   C3A45617  29.220  13.157   6.822
 3391POPC   C4A45618  29.328  12.994   7.208
 3391POPC   C1B45619  29.503  12.584   6.129
 3391POPC   C2B45620  29.541  12.449   6.637
 3391POPC   C3B45621  29.608  12.539   7.126
 3391POPC   C4B45622  29.758  12.591   7.609
 3392POPC   NC345623   9.635  40.582   5.426
 3392POPC   PO445624  10.196  40.840   5.425
 3392POPC   GL145625   9.897  40.834   5.792
 3392POPC   GL245626   9.877  40.452   5.865
 3392POPC   C1A45627   9.797  41.098   6.157
 3392POPC   D2A45628   9.941  41.182   6.569
 3392POPC   C3A45629   9.748  41.085   6.973
 3392POPC   C4A45630   9.942  40.881   7.317
 3392POPC   C1B45631   9.933  40.621   6.283
 3392POPC   C2B45632   9.849  40.676   6.709
 3392POPC   C3B45633   9.754  40.457   7.080
 3392POPC   C4B45634   9.738  40.441   7.532
 3393POPC   NC345635  26.217  27.750   5.557
 3393POPC   PO445636  25.814  27.326   5.206
 3393POPC   GL145637  25.891  27.347   5.711
 3393POPC   GL245638  26.245  27.393   5.919
 3393POPC   C1A45639  25.819  27.449   6.187
 3393POPC   D2A45640  25.853  27.869   6.410
 3393POPC   C3A45641  25.909  27.908   6.901
 3393POPC   C4A45642  26.080  27.874   7.337
 3393POPC   C1B45643  26.249  27.212   6.343
 3393POPC   C2B45644  25.991  27.227   6.697
 3393POPC   C3B45645  26.023  27.428   7.077
 3393POPC   C4B45646  25.843  27.323   7.456
 3394POPC   NC345647  44.072   5.351   5.230
 3394POPC   PO445648  43.441   5.400   5.469
 3394POPC   GL145649  43.732   5.133   5.703
 3394POPC   GL245650  44.100   5.195   5.718
 3394POPC   C1A45651  43.882   4.892   6.080
 3394POPC   D2A45652  43.965   4.761   6.515
 3394POPC   C3A45653  43.776   5.019   6.844
 3394POPC   C4A45654  43.800   4.885   7.258
 3394POPC   C1B45655  44.089   5.370   6.136
 3394POPC   C2B45656  44.153   5.285   6.577
 3394POPC   C3B45657  44.235   5.181   7.020
 3394POPC   C4B45658  44.116   5.308   7.426
 3395POPC   NC345659  30.411  42.049   5.364
 3395POPC   PO445660  30.017  42.600   5.494
 3395POPC   GL145661  29.949  42.601   5.913
 3395POPC   GL245662  30.287  42.718   5.951
 3395POPC   C1A45663  29.717  42.383   6.286
 3395POPC   D2A45664  29.859  42.093   6.624
 3395POPC   C3A45665  30.011  42.220   7.056
 3395POPC   C4A45666  30.023  42.123   7.538
 3395POPC   C1B45667  30.359  42.484   6.339
 3395POPC   C2B45668  30.393  42.470   6.794
 3395POPC   C3B45669  30.183  42.706   7.110
 3395POPC   C4B45670  30.071  42.633   7.548
 3396POPC   NC345671  30.756  22.733   5.464
 3396POPC   PO445672  30.700  23.433   5.364
 3396POPC   GL145673  30.490  23.160   5.705
 3396POPC   GL245674  30.719  22.949   5.919
 3396POPC   C1A45675  30.274  23.061   6.114
 3396POPC   D2A45676  30.390  22.770   6.406
 3396POPC   C3A45677  30.440  22.848   6.856
 3396POPC   C4A45678  30.429  23.161   7.197
 3396POPC   C1B45679  31.000  22.743   6.210
 3396POPC   C2B45680  31.036  22.672   6.644
 3396POPC   C3B45681  30.876  22.697   7.041
 3396POPC   C4B45682  30.894  22.995   7.383
 3397POPC   NC345683   9.081   7.124   5.591
 3397POPC   PO445684   8.698   7.774   5.552
 3397POPC   GL145685   8.717   7.420   5.745
 3397POPC   GL245686   8.996   7.466   5.964
 3397POPC   C1A45687   8.596   7.198   6.106
 3397POPC   D2A45688   8.824   7.139   6.497
 3397POPC   C3A45689   8.769   7.474   6.775
 3397POPC   C4A45690   8.649   7.706   7.135
 3397POPC   C1B45691   9.365   7.319   6.203
 3397POPC   C2B45692   9.435   7.108   6.588
 3397POPC   C3B45693   9.148   7.091   6.908
 3397POPC   C4B45694   9.003   7.338   7.225
 3398POPC   NC345695  31.421  10.183   5.352
 3398POPC   PO445696  31.376  10.868   5.055
 3398POPC   GL145697  31.343  10.663   5.561
 3398POPC   GL245698  31.599  10.427   5.749
 3398POPC   C1A45699  31.221  10.537   6.055
 3398POPC   D2A45700  31.269  10.721   6.497
 3398POPC   C3A45701  31.216  10.479   6.907
 3398POPC   C4A45702  31.222  10.480   7.388
 3398POPC   C1B45703  31.696  10.774   6.039
 3398POPC   C2B45704  31.815  10.813   6.483
 3398POPC   C3B45705  31.605  10.848   6.884
 3398POPC   C4B45706  31.666  10.513   7.187
 3399POPC   NC345707   2.059  16.269   5.043
 3399POPC   PO445708   2.043  15.729   5.371
 3399POPC   GL145709   2.001  16.012   5.722
 3399POPC   GL245710   1.659  16.119   5.830
 3399POPC   C1A45711   2.083  16.139   6.179
 3399POPC   D2A45712   1.900  16.232   6.595
 3399POPC   C3A45713   2.147  16.215   7.008
 3399POPC   C4A45714   2.112  15.908   7.358
 3399POPC   C1B45715   1.470  16.106   6.258
 3399POPC   C2B45716   1.386  16.162   6.701
 3399POPC   C3B45717   1.685  15.950   6.986
 3399POPC   C4B45718   1.692  15.548   7.178
 3400POPC   NC345719  20.304  28.451   5.372
 3400POPC   PO445720  20.787  27.974   5.341
 3400POPC   GL145721  20.751  28.286   5.681
 3400POPC   GL245722  20.417  28.190   5.801
 3400POPC   C1A45723  20.758  28.450   6.140
 3400POPC   D2A45724  20.737  28.705   6.553
 3400POPC   C3A45725  21.004  28.574   6.903
 3400POPC   C4A45726  20.907  28.259   7.187
 3400POPC   C1B45727  20.244  28.544   6.023
 3400POPC   C2B45728  20.233  28.709   6.415
 3400POPC   C3B45729  20.187  28.702   6.844
 3400POPC   C4B45730  20.476  28.501   7.076
 3401POPC   NC345731  39.169  44.366   4.980
 3401POPC   PO445732  39.440  44.993   5.296
 3401POPC   GL145733  39.448  44.702   5.689
 3401POPC   GL245734  39.085  44.603   5.757
 3401POPC   C1A45735  39.388  44.759   6.148
 3401POPC   D2A45736  39.111  44.748   6.501
 3401POPC   C3A45737  39.328  44.726   6.889
 3401POPC   C4A45738  39.317  44.732   7.316
 3401POPC   C1B45739  39.014  44.349   6.142
 3401POPC   C2B45740  38.779  44.356   6.525
 3401POPC   C3B45741  38.920  44.436   6.894
 3401POPC   C4B45742  38.915  44.378   7.289
 3402POPC   NC345743  35.348  22.044   5.146
 3402POPC   PO445744  34.956  22.451   5.463
 3402POPC   GL145745  35.274  22.342   5.787
 3402POPC   GL245746  35.385  22.002   5.719
 3402POPC   C1A45747  35.338  22.331   6.250
 3402POPC   D2A45748  35.119  22.069   6.539
 3402POPC   C3A45749  35.245  22.055   6.949
 3402POPC   C4A45750  35.406  22.394   7.222
 3402POPC   C1B45751  35.671  22.007   6.064
 3402POPC   C2B45752  35.647  21.979   6.526
 3402POPC   C3B45753  35.747  22.134   6.942
 3402POPC   C4B45754  35.720  21.997   7.394
 3403POPC   NC345755  25.103  28.630   5.319
 3403POPC   PO445756  25.754  28.451   5.313
 3403POPC   GL145757  25.460  28.561   5.693
 3403POPC   GL245758  25.202  28.334   5.830
 3403POPC   C1A45759  25.379  28.729   6.132
 3403POPC   D2A45760  25.420  28.601   6.580
 3403POPC   C3A45761  25.043  28.393   6.751
 3403POPC   C4A45762  24.908  28.377   7.181
 3403POPC   C1B45763  25.304  28.180   6.260
 3403POPC   C2B45764  25.484  28.107   6.678
 3403POPC   C3B45765  25.370  28.186   7.104
 3403POPC   C4B45766  25.150  27.985   7.441
 3404POPC   NC345767   3.071  35.179   5.311
 3404POPC   PO445768   2.446  35.366   5.470
 3404POPC   GL145769   2.859  35.475   5.711
 3404POPC   GL245770   3.140  35.223   5.822
 3404POPC   C1A45771   2.880  35.583   6.163
 3404POPC   D2A45772   2.709  35.374   6.532
 3404POPC   C3A45773   2.779  35.473   6.959
 3404POPC   C4A45774   2.637  35.344   7.358
 3404POPC   C1B45775   3.053  35.078   6.249
 3404POPC   C2B45776   3.040  34.946   6.687
 3404POPC   C3B45777   3.014  35.057   7.130
 3404POPC   C4B45778   2.966  35.071   7.620
 3405POPC   NC345779  31.660  25.936   5.036
 3405POPC   PO445780  31.324  25.857   5.596
 3405POPC   GL145781  31.318  25.793   5.965
 3405POPC   GL245782  31.420  26.160   5.981
 3405POPC   C1A45783  31.515  25.817   6.336
 3405POPC   D2A45784  31.498  26.145   6.601
 3405POPC   C3A45785  31.518  25.859   6.925
 3405POPC   C4A45786  31.627  25.839   7.313
 3405POPC   C1B45787  31.302  26.453   6.237
 3405POPC   C2B45788  31.102  26.449   6.605
 3405POPC   C3B45789  31.389  26.538   6.922
 3405POPC   C4B45790  31.422  26.319   7.294
 3406POPC   NC345791  17.783  25.562   5.462
 3406POPC   PO445792  17.439  25.015   5.458
 3406POPC   GL145793  17.473  25.318   5.785
 3406POPC   GL245794  17.159  25.465   5.880
 3406POPC   C1A45795  17.678  25.468   6.158
 3406POPC   D2A45796  17.915  25.506   6.554
 3406POPC   C3A45797  17.699  25.439   6.965
 3406POPC   C4A45798  17.753  25.136   7.301
 3406POPC   C1B45799  17.233  25.220   6.218
 3406POPC   C2B45800  17.396  25.314   6.573
 3406POPC   C3B45801  17.192  25.428   6.916
 3406POPC   C4B45802  17.277  25.390   7.309
 3407POPC   NC345803  21.103  26.186   5.384
 3407POPC   PO445804  21.529  25.681   5.381
 3407POPC   GL145805  21.396  25.859   5.743
 3407POPC   GL245806  21.034  25.803   5.763
 3407POPC   C1A45807  21.604  25.981   6.135
 3407POPC   D2A45808  21.698  26.123   6.571
 3407POPC   C3A45809  21.657  26.108   7.047
 3407POPC   C4A45810  21.680  25.932   7.445
 3407POPC   C1B45811  21.120  26.139   6.083
 3407POPC   C2B45812  21.197  26.306   6.483
 3407POPC   C3B45813  21.176  26.131   6.915
 3407POPC   C4B45814  21.033  26.251   7.344
 3408POPC   NC345815   2.792  23.223   5.289
 3408POPC   PO445816   2.533  22.558   5.368
 3408POPC   GL145817   2.519  22.869   5.653
 3408POPC   GL245818   2.327  22.610   5.864
 3408POPC   C1A45819   2.443  23.088   6.029
 3408POPC   D2A45820   2.389  23.092   6.470
 3408POPC   C3A45821   2.642  23.069   6.828
 3408POPC   C4A45822   2.489  23.033   7.252
 3408POPC   C1B45823   2.640  22.682   6.235
 3408POPC   C2B45824   2.870  22.639   6.656
 3408POPC   C3B45825   2.856  22.684   7.136
 3408POPC   C4B45826   3.088  22.578   7.530
 3409POPC   NC345827   8.475  36.705   5.363
 3409POPC   PO445828   7.770  36.859   5.428
 3409POPC   GL145829   8.010  36.922   5.836
 3409POPC   GL245830   8.369  36.914   5.823
 3409POPC   C1A45831   7.982  36.733   6.243
 3409POPC   D2A45832   8.057  36.594   6.649
 3409POPC   C3A45833   7.821  36.673   7.009
 3409POPC   C4A45834   7.816  37.069   7.172
 3409POPC   C1B45835   8.344  37.114   6.248
 3409POPC   C2B45836   8.131  37.133   6.656
 3409POPC   C3B45837   8.294  36.942   7.030
 3409POPC   C4B45838   8.531  37.003   7.403
 3410POPC   NC345839  17.828   6.405   5.598
 3410POPC   PO445840  17.382   6.958   5.373
 3410POPC   GL145841  17.472   6.753   5.801
 3410POPC   GL245842  17.587   6.466   6.027
 3410POPC   C1A45843  17.280   6.812   6.238
 3410POPC   D2A45844  17.141   6.716   6.696
 3410POPC   C3A45845  17.462   6.719   7.061
 3410POPC   C4A45846  17.428   6.836   7.520
 3410POPC   C1B45847  17.827   6.158   6.254
 3410POPC   C2B45848  17.753   6.048   6.674
 3410POPC   C3B45849  17.516   6.189   7.008
 3410POPC   C4B45850  17.556   6.360   7.418
 3411POPC   NC345851  29.547  27.052   5.611
 3411POPC   PO445852  30.142  26.957   5.488
 3411POPC   GL145853  29.960  26.755   5.861
 3411POPC   GL245854  29.649  26.546   5.830
 3411POPC   C1A45855  29.999  26.881   6.306
 3411POPC   D2A45856  30.240  26.703   6.657
 3411POPC   C3A45857  30.096  26.860   7.057
 3411POPC   C4A45858  30.150  26.825   7.493
 3411POPC   C1B45859  29.482  26.731   6.215
 3411POPC   C2B45860  29.537  27.031   6.568
 3411POPC   C3B45861  29.590  26.896   7.006
 3411POPC   C4B45862  29.697  26.639   7.387
 3412POPC   NC345863   5.398  39.080   5.321
 3412POPC   PO445864   4.766  39.437   5.257
 3412POPC   GL145865   5.048  39.361   5.590
 3412POPC   GL245866   4.933  39.047   5.628
 3412POPC   C1A45867   5.286  39.239   5.957
 3412POPC   D2A45868   5.220  39.214   6.404
 3412POPC   C3A45869   5.326  39.271   6.845
 3412POPC   C4A45870   5.122  39.331   7.249
 3412POPC   C1B45871   4.844  38.993   6.084
 3412POPC   C2B45872   4.898  38.825   6.501
 3412POPC   C3B45873   4.879  38.977   6.915
 3412POPC   C4B45874   4.852  38.841   7.333
 3413POPC   NC345875   4.713  21.743   5.459
 3413POPC   PO445876   4.313  21.225   5.277
 3413POPC   GL145877   4.290  21.385   5.718
 3413POPC   GL245878   4.606  21.268   5.755
 3413POPC   C1A45879   4.044  21.298   6.138
 3413POPC   D2A45880   3.977  20.984   6.500
 3413POPC   C3A45881   4.107  21.097   6.900
 3413POPC   C4A45882   4.041  21.286   7.269
 3413POPC   C1B45883   4.613  21.414   6.173
 3413POPC   C2B45884   4.451  21.299   6.578
 3413POPC   C3B45885   4.491  21.436   7.032
 3413POPC   C4B45886   4.463  21.464   7.497
 3414POPC   NC345887   8.442  11.822   5.437
 3414POPC   PO445888   7.790  11.843   5.427
 3414POPC   GL145889   7.973  12.154   5.749
 3414POPC   GL245890   8.280  12.351   5.603
 3414POPC   C1A45891   8.124  12.168   6.213
 3414POPC   D2A45892   8.479  11.961   6.478
 3414POPC   C3A45893   8.435  11.946   6.920
 3414POPC   C4A45894   8.141  12.065   7.219
 3414POPC   C1B45895   8.538  12.344   5.987
 3414POPC   C2B45896   8.463  12.482   6.439
 3414POPC   C3B45897   8.375  12.483   6.905
 3414POPC   C4B45898   8.681  12.306   7.217
 3415POPC   NC345899   1.018  18.520   5.394
 3415POPC   PO445900   0.887  17.952   5.670
 3415POPC   GL145901   0.968  18.309   5.944
 3415POPC   GL245902   1.288  18.247   5.898
 3415POPC   C1A45903   1.209  18.477   6.350
 3415POPC   D2A45904   1.348  18.623   6.784
 3415POPC   C3A45905   1.034  18.546   7.159
 3415POPC   C4A45906   0.944  18.163   7.450
 3415POPC   C1B45907   1.245  17.964   6.233
 3415POPC   C2B45908   1.151  18.024   6.621
 3415POPC   C3B45909   1.305  18.167   6.988
 3415POPC   C4B45910   1.549  18.323   7.304
 3416POPC   NC345911  33.374  40.133   5.316
 3416POPC   PO445912  32.976  39.644   5.380
 3416POPC   GL145913  32.912  39.823   5.800
 3416POPC   GL245914  33.171  40.074   5.813
 3416POPC   C1A45915  32.726  39.790   6.234
 3416POPC   D2A45916  32.931  39.653   6.634
 3416POPC   C3A45917  33.096  39.992   6.866
 3416POPC   C4A45918  33.176  40.082   7.296
 3416POPC   C1B45919  33.114  40.123   6.299
 3416POPC   C2B45920  32.880  40.372   6.600
 3416POPC   C3B45921  32.616  40.209   6.933
 3416POPC   C4B45922  32.648  40.240   7.392
 3417POPC   NC345923   9.465  24.612   5.496
 3417POPC   PO445924   8.911  24.550   5.530
 3417POPC   GL145925   9.169  24.524   5.912
 3417POPC   GL245926   9.411  24.266   5.878
 3417POPC   C1A45927   9.286  24.639   6.341
 3417POPC   D2A45928   9.133  24.459   6.726
 3417POPC   C3A45929   9.066  24.632   7.141
 3417POPC   C4A45930   9.069  24.729   7.582
 3417POPC   C1B45931   9.265  24.131   6.292
 3417POPC   C2B45932   9.196  23.956   6.713
 3417POPC   C3B45933   9.202  24.130   7.119
 3417POPC   C4B45934   9.082  24.063   7.546
 3418POPC   NC345935  38.812  27.183   5.093
 3418POPC   PO445936  39.151  26.729   5.170
 3418POPC   GL145937  39.260  26.761   5.638
 3418POPC   GL245938  39.151  27.096   5.703
 3418POPC   C1A45939  39.217  26.689   6.118
 3418POPC   D2A45940  39.395  26.693   6.557
 3418POPC   C3A45941  39.202  26.670   6.952
 3418POPC   C4A45942  39.506  26.815   7.234
 3418POPC   C1B45943  39.204  27.197   6.119
 3418POPC   C2B45944  39.146  27.135   6.556
 3418POPC   C3B45945  39.249  27.203   6.962
 3418POPC   C4B45946  39.060  27.085   7.317
 3419POPC   NC345947  15.371  17.339   5.321
 3419POPC   PO445948  14.828  17.665   5.211
 3419POPC   GL145949  14.820  17.482   5.669
 3419POPC   GL245950  15.077  17.215   5.783
 3419POPC   C1A45951  14.737  17.524   6.126
 3419POPC   D2A45952  15.072  17.552   6.457
 3419POPC   C3A45953  14.974  17.549   6.899
 3419POPC   C4A45954  15.044  17.821   7.262
 3419POPC   C1B45955  14.974  17.098   6.230
 3419POPC   C2B45956  15.158  17.093   6.663
 3419POPC   C3B45957  15.237  17.170   7.111
 3419POPC   C4B45958  15.314  17.221   7.558
 3420POPC   NC345959  24.804  31.958   5.440
 3420POPC   PO445960  25.194  32.469   5.127
 3420POPC   GL145961  25.113  32.438   5.628
 3420POPC   GL245962  25.448  32.354   5.819
 3420POPC   C1A45963  24.991  32.306   6.059
 3420POPC   D2A45964  24.988  32.094   6.470
 3420POPC   C3A45965  24.895  32.319   6.843
 3420POPC   C4A45966  25.152  32.334   7.239
 3420POPC   C1B45967  25.447  32.294   6.302
 3420POPC   C2B45968  25.456  32.324   6.772
 3420POPC   C3B45969  25.514  32.666   7.082
 3420POPC   C4B45970  25.517  32.584   7.524
 3421POPC   NC345971  13.992  12.787   5.546
 3421POPC   PO445972  13.375  12.626   5.333
 3421POPC   GL145973  13.497  12.867   5.713
 3421POPC   GL245974  13.750  13.144   5.777
 3421POPC   C1A45975  13.397  12.982   6.140
 3421POPC   D2A45976  13.590  12.919   6.529
 3421POPC   C3A45977  13.528  12.780   6.905
 3421POPC   C4A45978  13.397  13.052   7.211
 3421POPC   C1B45979  13.948  13.035   6.172
 3421POPC   C2B45980  14.007  13.202   6.580
 3421POPC   C3B45981  14.008  12.970   6.957
 3421POPC   C4B45982  13.894  13.064   7.354
 3422POPC   NC345983   1.936  42.275   5.251
 3422POPC   PO445984   2.102  42.762   5.712
 3422POPC   GL145985   2.119  42.285   5.765
 3422POPC   GL245986   1.802  42.113   5.714
 3422POPC   C1A45987   2.108  42.067   6.181
 3422POPC   D2A45988   2.184  42.337   6.571
 3422POPC   C3A45989   2.176  42.187   6.993
 3422POPC   C4A45990   2.293  42.292   7.407
 3422POPC   C1B45991   1.672  42.355   6.064
 3422POPC   C2B45992   1.626  42.267   6.508
 3422POPC   C3B45993   1.655  42.159   6.946
 3422POPC   C4B45994   1.807  42.109   7.353
 3423POPC   NC345995  13.731   5.257   5.166
 3423POPC   PO445996  13.401   4.748   5.439
 3423POPC   GL145997  13.465   4.963   5.805
 3423POPC   GL245998  13.627   5.218   5.672
 3423POPC   C1A45999  13.532   4.844   6.230
 3423POPC   D2A46000  13.612   5.123   6.563
 3423POPC   C3A46001  13.455   5.104   6.968
 3423POPC   C4A46002  13.591   4.924   7.339
 3423POPC   C1B46003  13.770   5.321   6.100
 3423POPC   C2B46004  14.062   5.365   6.467
 3423POPC   C3B46005  13.927   5.372   6.893
 3423POPC   C4B46006  13.995   5.285   7.312
 3424POPC   NC346007   4.381  39.721   5.513
 3424POPC   PO446008   4.133  40.401   5.546
 3424POPC   GL146009   4.225  40.091   5.870
 3424POPC   GL246010   4.016  39.761   5.888
 3424POPC   C1A46011   4.414  39.845   6.207
 3424POPC   D2A46012   4.634  39.868   6.589
 3424POPC   C3A46013   4.368  39.828   6.963
 3424POPC   C4A46014   4.564  39.869   7.333
 3424POPC   C1B46015   3.848  39.942   6.282
 3424POPC   C2B46016   3.760  40.021   6.731
 3424POPC   C3B46017   4.007  40.160   7.092
 3424POPC   C4B46018   4.086  40.038   7.523
 3425POPC   NC346019  28.742  25.355   5.444
 3425POPC   PO446020  28.081  25.643   5.398
 3425POPC   GL146021  28.143  25.477   5.813
 3425POPC   GL246022  28.468  25.563   5.814
 3425POPC   C1A46023  28.263  25.462   6.283
 3425POPC   D2A46024  28.331  25.522   6.729
 3425POPC   C3A46025  28.416  25.144   7.012
 3425POPC   C4A46026  28.191  25.040   7.415
 3425POPC   C1B46027  28.759  25.487   6.132
 3425POPC   C2B46028  28.814  25.645   6.543
 3425POPC   C3B46029  28.782  25.516   6.955
 3425POPC   C4B46030  28.531  25.551   7.302
 3426POPC   NC346031  37.228  44.752   5.480
 3426POPC   PO446032  37.939  44.525   5.473
 3426POPC   GL146033  37.660  44.552   5.768
 3426POPC   GL246034  37.651  44.873   5.812
 3426POPC   C1A46035  37.767  44.381   6.166
 3426POPC   D2A46036  37.895  44.561   6.552
 3426POPC   C3A46037  37.735  44.400   6.919
 3426POPC   C4A46038  37.860  44.422   7.333
 3426POPC   C1B46039  37.701  44.894   6.204
 3426POPC   C2B46040  37.441  44.874   6.512
 3426POPC   C3B46041  37.561  44.902   6.885
 3426POPC   C4B46042  37.444   0.130   7.190
 3427POPC   NC346043  34.151  10.401   5.452
 3427POPC   PO446044  33.527  10.540   5.352
 3427POPC   GL146045  33.653  10.460   5.803
 3427POPC   GL246046  33.956  10.283   5.891
 3427POPC   C1A46047  33.534  10.586   6.242
 3427POPC   D2A46048  33.744  10.863   6.575
 3427POPC   C3A46049  33.751  10.753   6.996
 3427POPC   C4A46050  33.611  10.389   7.204
 3427POPC   C1B46051  34.002  10.467   6.270
 3427POPC   C2B46052  33.803  10.356   6.643
 3427POPC   C3B46053  34.052  10.348   6.969
 3427POPC   C4B46054  34.203  10.426   7.362
 3428POPC   NC346055  25.808  42.242   5.232
 3428POPC   PO446056  26.429  42.221   5.283
 3428POPC   GL146057  26.128  42.406   5.572
 3428POPC   GL246058  26.003  42.114   5.713
 3428POPC   C1A46059  26.039  42.562   5.974
 3428POPC   D2A46060  25.952  42.474   6.387
 3428POPC   C3A46061  26.270  42.593   6.660
 3428POPC   C4A46062  26.098  42.608   7.062
 3428POPC   C1B46063  25.890  42.005   6.135
 3428POPC   C2B46064  25.741  41.865   6.542
 3428POPC   C3B46065  25.673  42.096   6.922
 3428POPC   C4B46066  25.976  42.149   7.250
 3429POPC   NC346067  14.807  11.097   5.517
 3429POPC   PO446068  14.128  11.403   5.329
 3429POPC   GL146069  14.335  11.274   5.738
 3429POPC   GL246070  14.620  11.463   5.845
 3429POPC   C1A46071  14.272  11.157   6.210
 3429POPC   D2A46072  14.080  11.030   6.644
 3429POPC   C3A46073  14.310  11.055   6.997
 3429POPC   C4A46074  14.359  11.123   7.406
 3429POPC   C1B46075  14.500  11.635   6.253
 3429POPC   C2B46076  14.382  11.466   6.663
 3429POPC   C3B46077  14.364  11.578   7.108
 3429POPC   C4B46078  14.653  11.554   7.471
 3430POPC   NC346079  38.805   5.989   5.535
 3430POPC   PO446080  39.464   5.704   5.388
 3430POPC   GL146081  39.277   5.880   5.748
 3430POPC   GL246082  39.163   5.573   5.813
 3430POPC   C1A46083  39.099   5.987   6.188
 3430POPC   D2A46084  39.288   6.039   6.614
 3430POPC   C3A46085  39.152   5.915   7.025
 3430POPC   C4A46086  38.900   6.164   7.267
 3430POPC   C1B46087  39.047   5.485   6.238
 3430POPC   C2B46088  39.225   5.496   6.652
 3430POPC   C3B46089  39.090   5.409   7.067
 3430POPC   C4B46090  39.172   5.557   7.472
 3431POPC   NC346091   1.777  36.240   5.001
 3431POPC   PO446092   2.012  36.817   5.329
 3431POPC   GL146093   2.043  36.963   5.748
 3431POPC   GL246094   1.785  36.749   5.797
 3431POPC   C1A46095   2.206  37.044   6.179
 3431POPC   D2A46096   2.398  37.046   6.586
 3431POPC   C3A46097   2.189  37.014   6.972
 3431POPC   C4A46098   2.210  37.064   7.410
 3431POPC   C1B46099   1.701  37.039   6.145
 3431POPC   C2B46100   1.850  37.062   6.557
 3431POPC   C3B46101   1.660  37.001   6.932
 3431POPC   C4B46102   1.769  36.840   7.305
 3432POPC   NC346103  17.923   1.361   5.093
 3432POPC   PO446104  18.364   0.968   5.478
 3432POPC   GL146105  18.422   1.021   5.917
 3432POPC   GL246106  18.744   1.221   5.839
 3432POPC   C1A46107  18.068   1.076   6.286
 3432POPC   D2A46108  17.822   1.255   6.658
 3432POPC   C3A46109  18.045   1.202   7.069
 3432POPC   C4A46110  18.467   1.347   7.214
 3432POPC   C1B46111  18.835   1.005   6.229
 3432POPC   C2B46112  18.589   0.799   6.539
 3432POPC   C3B46113  18.728   0.690   6.926
 3432POPC   C4B46114  18.858   0.962   7.242
 3433POPC   NC346115  25.788   2.921   5.451
 3433POPC   PO446116  26.167   2.376   5.269
 3433POPC   GL146117  26.051   2.502   5.742
 3433POPC   GL246118  25.729   2.577   5.879
 3433POPC   C1A46119  26.188   2.455   6.170
 3433POPC   D2A46120  26.078   2.523   6.605
 3433POPC   C3A46121  26.283   2.734   6.945
 3433POPC   C4A46122  26.249   2.424   7.252
 3433POPC   C1B46123  25.916   2.885   6.197
 3433POPC   C2B46124  25.932   3.005   6.649
 3433POPC   C3B46125  25.747   2.874   7.053
 3433POPC   C4B46126  25.605   3.040   7.470
 3434POPC   NC346127  16.123  30.981   5.372
 3434POPC   PO446128  15.720  30.443   5.583
 3434POPC   GL146129  15.973  30.697   5.787
 3434POPC   GL246130  15.856  31.045   5.836
 3434POPC   C1A46131  16.222  30.558   6.145
 3434POPC   D2A46132  16.437  30.375   6.498
 3434POPC   C3A46133  16.263  30.576   6.864
 3434POPC   C4A46134  16.031  30.807   7.176
 3434POPC   C1B46135  15.803  30.831   6.238
 3434POPC   C2B46136  15.851  30.478   6.508
 3434POPC   C3B46137  15.589  30.421   6.845
 3434POPC   C4B46138  15.583  30.563   7.245
 3435POPC   NC346139  22.888  41.401   5.431
 3435POPC   PO446140  22.517  41.942   5.236
 3435POPC   GL146141  22.767  41.865   5.664
 3435POPC   GL246142  23.147  41.962   5.717
 3435POPC   C1A46143  22.960  41.619   6.043
 3435POPC   D2A46144  23.051  41.588   6.479
 3435POPC   C3A46145  22.763  41.451   6.794
 3435POPC   C4A46146  22.838  41.287   7.215
 3435POPC   C1B46147  23.211  42.049   6.199
 3435POPC   C2B46148  23.268  42.009   6.672
 3435POPC   C3B46149  23.162  41.681   6.992
 3435POPC   C4B46150  23.181  41.656   7.424
 3436POPC   NC346151   7.025  28.981   5.414
 3436POPC   PO446152   6.346  29.230   5.355
 3436POPC   GL146153   6.614  29.267   5.714
 3436POPC   GL246154   6.708  28.955   5.816
 3436POPC   C1A46155   6.739  29.419   6.091
 3436POPC   D2A46156   6.604  29.365   6.487
 3436POPC   C3A46157   6.538  29.327   6.911
 3436POPC   C4A46158   6.788  29.095   7.197
 3436POPC   C1B46159   6.822  28.945   6.258
 3436POPC   C2B46160   6.903  28.960   6.699
 3436POPC   C3B46161   7.222  28.904   7.033
 3436POPC   C4B46162   7.082  28.730   7.437
 3437POPC   NC346163  19.434  10.134   5.598
 3437POPC   PO446164  19.127  10.615   5.207
 3437POPC   GL146165  18.996  10.619   5.668
 3437POPC   GL246166  19.282  10.550   5.877
 3437POPC   C1A46167  18.906  10.664   6.167
 3437POPC   D2A46168  19.021  10.821   6.593
 3437POPC   C3A46169  19.014  10.638   7.000
 3437POPC   C4A46170  19.085  10.853   7.391
 3437POPC   C1B46171  19.290  10.301   6.240
 3437POPC   C2B46172  19.398  10.476   6.618
 3437POPC   C3B46173  19.445  10.275   6.975
 3437POPC   C4B46174  19.345  10.405   7.347
 3438POPC   NC346175  17.004  17.715   5.532
 3438POPC   PO446176  16.593  17.272   5.594
 3438POPC   GL146177  16.691  17.522   5.893
 3438POPC   GL246178  17.024  17.361   5.923
 3438POPC   C1A46179  16.530  17.542   6.290
 3438POPC   D2A46180  16.756  17.414   6.641
 3438POPC   C3A46181  16.610  17.571   7.004
 3438POPC   C4A46182  16.899  17.370   7.262
 3438POPC   C1B46183  17.036  17.642   6.258
 3438POPC   C2B46184  17.182  17.756   6.650
 3438POPC   C3B46185  17.082  17.786   7.070
 3438POPC   C4B46186  17.100  17.803   7.551
 3439POPC   NC346187  21.991  27.794   5.588
 3439POPC   PO446188  22.395  27.221   5.507
 3439POPC   GL146189  22.515  27.481   5.870
 3439POPC   GL246190  22.455  27.836   5.948
 3439POPC   C1A46191  22.510  27.512   6.335
 3439POPC   D2A46192  22.173  27.504   6.624
 3439POPC   C3A46193  22.222  27.755   7.000
 3439POPC   C4A46194  22.166  27.580   7.421
 3439POPC   C1B46195  22.113  27.874   6.261
 3439POPC   C2B46196  21.788  27.851   6.624
 3439POPC   C3B46197  21.814  28.095   7.004
 3439POPC   C4B46198  22.105  28.076   7.399
 3440POPC   NC346199   3.714   8.616   5.446
 3440POPC   PO446200   3.413   9.249   5.437
 3440POPC   GL146201   3.477   9.098   5.831
 3440POPC   GL246202   3.840   9.049   5.744
 3440POPC   C1A46203   3.328   8.853   6.219
 3440POPC   D2A46204   3.367   8.670   6.645
 3440POPC   C3A46205   3.537   8.912   6.989
 3440POPC   C4A46206   3.429   8.865   7.431
 3440POPC   C1B46207   3.833   8.908   6.152
 3440POPC   C2B46208   3.705   9.130   6.536
 3440POPC   C3B46209   3.883   9.286   6.935
 3440POPC   C4B46210   3.877   9.093   7.358
 3441POPC   NC346211  39.511  36.528   5.487
 3441POPC   PO446212  39.101  36.023   5.323
 3441POPC   GL146213  39.034  35.951   5.745
 3441POPC   GL246214  39.286  36.198   5.811
 3441POPC   C1A46215  39.086  35.886   6.180
 3441POPC   D2A46216  39.273  35.894   6.568
 3441POPC   C3A46217  39.043  35.985   6.971
 3441POPC   C4A46218  38.988  35.714   7.321
 3441POPC   C1B46219  39.239  36.389   6.220
 3441POPC   C2B46220  38.987  36.362   6.601
 3441POPC   C3B46221  38.945  36.499   7.041
 3441POPC   C4B46222  39.183  36.291   7.381
 3442POPC   NC346223  14.122  29.891   5.361
 3442POPC   PO446224  14.775  29.784   5.230
 3442POPC   GL146225  14.591  29.748   5.668
 3442POPC   GL246226  14.331  29.977   5.821
 3442POPC   C1A46227  14.710  29.773   6.130
 3442POPC   D2A46228  14.785  30.055   6.496
 3442POPC   C3A46229  14.633  29.969   6.923
 3442POPC   C4A46230  14.564  29.698   7.283
 3442POPC   C1B46231  13.951  30.119   6.074
 3442POPC   C2B46232  13.858  30.027   6.519
 3442POPC   C3B46233  14.109  29.934   6.892
 3442POPC   C4B46234  14.135  30.051   7.314
 3443POPC   NC346235  33.315  28.212   5.090
 3443POPC   PO446236  32.925  28.735   5.226
 3443POPC   GL146237  32.876  28.457   5.617
 3443POPC   GL246238  33.215  28.458   5.808
 3443POPC   C1A46239  32.810  28.227   6.037
 3443POPC   D2A46240  33.067  28.243   6.434
 3443POPC   C3A46241  32.864  28.394   6.828
 3443POPC   C4A46242  32.812  28.183   7.230
 3443POPC   C1B46243  33.424  28.583   6.237
 3443POPC   C2B46244  33.327  28.629   6.693
 3443POPC   C3B46245  33.330  28.711   7.112
 3443POPC   C4B46246  32.875  28.746   7.232
 3444POPC   NC346247  36.289   3.539   5.359
 3444POPC   PO446248  35.775   3.352   5.681
 3444POPC   GL146249  36.229   3.248   5.796
 3444POPC   GL246250  36.468   3.542   5.837
 3444POPC   C1A46251  36.386   3.227   6.225
 3444POPC   D2A46252  36.150   3.393   6.571
 3444POPC   C3A46253  36.102   3.159   6.959
 3444POPC   C4A46254  35.897   3.314   7.333
 3444POPC   C1B46255  36.345   3.758   6.216
 3444POPC   C2B46256  36.503   3.812   6.628
 3444POPC   C3B46257  36.284   3.645   6.992
 3444POPC   C4B46258  36.172   3.719   7.384
 3445POPC   NC346259  43.542  31.811   5.280
 3445POPC   PO446260  43.028  31.359   5.135
 3445POPC   GL146261  43.226  31.441   5.608
 3445POPC   GL246262  43.399  31.133   5.784
 3445POPC   C1A46263  43.247  31.669   6.062
 3445POPC   D2A46264  43.041  31.874   6.478
 3445POPC   C3A46265  43.085  31.758   6.925
 3445POPC   C4A46266  42.970  31.373   7.093
 3445POPC   C1B46267  43.527  31.264   6.231
 3445POPC   C2B46268  43.357  31.440   6.616
 3445POPC   C3B46269  43.467  31.263   7.039
 3445POPC   C4B46270  43.330  31.332   7.476
 3446POPC   NC346271  20.935  22.389   5.622
 3446POPC   PO446272  20.982  21.769   5.326
 3446POPC   GL146273  20.641  21.943   5.604
 3446POPC   GL246274  20.862  21.951   5.868
 3446POPC   C1A46275  20.409  22.115   6.010
 3446POPC   D2A46276  20.360  21.873   6.433
 3446POPC   C3A46277  20.348  22.011   6.872
 3446POPC   C4A46278  20.069  22.128   7.235
 3446POPC   C1B46279  20.824  22.050   6.305
 3446POPC   C2B46280  20.913  21.823   6.674
 3446POPC   C3B46281  20.784  21.808   7.081
 3446POPC   C4B46282  20.606  22.137   7.291
 3447POPC   NC346283  17.856  35.738   5.198
 3447POPC   PO446284  17.691  35.118   5.450
 3447POPC   GL146285  17.661  35.028   5.854
 3447POPC   GL246286  17.989  34.986   5.913
 3447POPC   C1A46287  17.530  35.182   6.251
 3447POPC   D2A46288  17.608  35.551   6.524
 3447POPC   C3A46289  17.514  35.565   6.971
 3447POPC   C4A46290  17.177  35.620   7.282
 3447POPC   C1B46291  18.030  35.011   6.353
 3447POPC   C2B46292  17.759  35.059   6.690
 3447POPC   C3B46293  17.558  35.032   7.059
 3447POPC   C4B46294  17.710  34.885   7.442
 3448POPC   NC346295   6.654  16.712   5.252
 3448POPC   PO446296   7.059  16.728   5.774
 3448POPC   GL146297   6.739  16.628   6.004
 3448POPC   GL246298   6.490  16.751   5.768
 3448POPC   C1A46299   6.699  16.703   6.446
 3448POPC   D2A46300   6.604  17.087   6.689
 3448POPC   C3A46301   6.572  16.989   7.136
 3448POPC   C4A46302   6.750  16.702   7.440
 3448POPC   C1B46303   6.264  16.627   6.164
 3448POPC   C2B46304   6.294  16.372   6.562
 3448POPC   C3B46305   6.342  16.515   7.010
 3448POPC   C4B46306   6.073  16.843   7.251
 3449POPC   NC346307  36.582  23.083   5.557
 3449POPC   PO446308  36.075  23.438   5.277
 3449POPC   GL146309  36.100  23.099   5.708
 3449POPC   GL246310  36.350  22.909   5.942
 3449POPC   C1A46311  35.932  23.004   6.164
 3449POPC   D2A46312  36.081  22.819   6.559
 3449POPC   C3A46313  35.974  22.929   6.983
 3449POPC   C4A46314  36.307  22.891   7.244
 3449POPC   C1B46315  36.367  22.579   6.202
 3449POPC   C2B46316  36.538  22.415   6.566
 3449POPC   C3B46317  36.689  22.533   6.951
 3449POPC   C4B46318  36.459  22.422   7.307
 3450POPC   NC346319  17.426  16.454   5.389
 3450POPC   PO446320  17.859  16.891   5.538
 3450POPC   GL146321  17.578  16.729   5.863
 3450POPC   GL246322  17.213  16.666   5.802
 3450POPC   C1A46323  17.567  16.874   6.296
 3450POPC   D2A46324  17.417  16.844   6.732
 3450POPC   C3A46325  17.640  16.720   7.147
 3450POPC   C4A46326  17.618  16.888   7.609
 3450POPC   C1B46327  17.089  16.697   6.208
 3450POPC   C2B46328  17.075  16.469   6.563
 3450POPC   C3B46329  17.079  16.577   6.976
 3450POPC   C4B46330  17.194  16.630   7.387
 3451POPC   NC346331   9.316  14.989   5.325
 3451POPC   PO446332   9.835  15.313   5.533
 3451POPC   GL146333   9.537  15.081   5.770
 3451POPC   GL246334   9.701  14.836   5.952
 3451POPC   C1A46335   9.400  15.224   6.153
 3451POPC   D2A46336   9.601  15.404   6.516
 3451POPC   C3A46337   9.459  15.254   6.902
 3451POPC   C4A46338   9.498  15.570   7.166
 3451POPC   C1B46339   9.955  15.174   6.171
 3451POPC   C2B46340  10.121  15.339   6.571
 3451POPC   C3B46341   9.972  15.321   7.002
 3451POPC   C4B46342   9.904  15.249   7.439
 3452POPC   NC346343   5.639   7.373   5.452
 3452POPC   PO446344   6.238   7.532   5.799
 3452POPC   GL146345   5.775   7.530   5.922
 3452POPC   GL246346   5.679   7.187   5.907
 3452POPC   C1A46347   5.632   7.492   6.349
 3452POPC   D2A46348   6.048   7.461   6.574
 3452POPC   C3A46349   6.102   7.692   6.949
 3452POPC   C4A46350   5.787   7.573   7.236
 3452POPC   C1B46351   5.860   7.052   6.265
 3452POPC   C2B46352   5.697   7.086   6.685
 3452POPC   C3B46353   5.672   7.092   7.113
 3452POPC   C4B46354   5.933   7.024   7.466
 3453POPC   NC346355  13.676  18.203   5.498
 3453POPC   PO446356  13.125  18.700   5.484
 3453POPC   GL146357  13.362  18.427   5.852
 3453POPC   GL246358  13.744  18.368   5.962
 3453POPC   C1A46359  13.403  18.184   6.278
 3453POPC   D2A46360  13.518  18.340   6.701
 3453POPC   C3A46361  13.566  18.136   7.081
 3453POPC   C4A46362  13.804  18.292   7.437
 3453POPC   C1B46363  13.856  17.987   6.186
 3453POPC   C2B46364  13.707  17.863   6.602
 3453POPC   C3B46365  13.897  17.724   6.995
 3453POPC   C4B46366  14.097  17.867   7.387
 3454POPC   NC346367  44.940  12.337   5.351
 3454POPC   PO446368  44.406  12.540   5.433
 3454POPC   GL146369  44.687  12.359   5.802
 3454POPC   GL246370  44.709  12.010   5.743
 3454POPC   C1A46371  44.896  12.183   6.201
 3454POPC   D2A46372  44.795  12.028   6.620
 3454POPC   C3A46373  44.890  12.188   7.053
 3454POPC   C4A46374  44.664  12.221   7.444
 3454POPC   C1B46375  44.448  11.958   6.144
 3454POPC   C2B46376  44.347  11.801   6.570
 3454POPC   C3B46377  44.464  11.908   7.016
 3454POPC   C4B46378  44.511  11.741   7.461
 3455POPC   NC346379   3.940   9.402   5.376
 3455POPC   PO446380   4.585   9.621   5.506
 3455POPC   GL146381   4.257   9.735   5.763
 3455POPC   GL246382   4.144  10.087   5.803
 3455POPC   C1A46383   4.442   9.802   6.170
 3455POPC   D2A46384   4.636   9.679   6.534
 3455POPC   C3A46385   4.384   9.838   6.845
 3455POPC   C4A46386   4.637   9.694   7.151
 3455POPC   C1B46387   3.941   9.861   6.145
 3455POPC   C2B46388   3.814   9.902   6.567
 3455POPC   C3B46389   3.893  10.073   6.944
 3455POPC   C4B46390   4.110   9.906   7.273
 3456POPC   NC346391  36.327  30.862   5.048
 3456POPC   PO446392  36.475  30.238   5.390
 3456POPC   GL146393  36.259  30.465   5.750
 3456POPC   GL246394  36.009  30.698   5.604
 3456POPC   C1A46395  36.014  30.393   6.132
 3456POPC   D2A46396  35.857  30.332   6.572
 3456POPC   C3A46397  36.101  30.467   6.933
 3456POPC   C4A46398  36.226  30.364   7.372
 3456POPC   C1B46399  36.115  30.890   6.014
 3456POPC   C2B46400  36.072  30.818   6.447
 3456POPC   C3B46401  35.852  30.888   6.816
 3456POPC   C4B46402  36.022  30.955   7.209
 3457POPC   NC346403  20.488  37.916   5.443
 3457POPC   PO446404  20.284  37.259   5.520
 3457POPC   GL146405  20.593  37.478   5.814
 3457POPC   GL246406  20.721  37.795   5.891
 3457POPC   C1A46407  20.710  37.521   6.303
 3457POPC   D2A46408  20.458  37.795   6.560
 3457POPC   C3A46409  20.566  37.752   6.999
 3457POPC   C4A46410  20.517  37.373   7.203
 3457POPC   C1B46411  20.931  37.965   6.292
 3457POPC   C2B46412  20.954  37.891   6.732
 3457POPC   C3B46413  20.975  38.005   7.176
 3457POPC   C4B46414  20.723  37.988   7.537
 3458POPC   NC346415  43.010   5.571   5.476
 3458POPC   PO446416  43.360   6.107   5.441
 3458POPC   GL146417  43.322   5.796   5.838
 3458POPC   GL246418  42.940   5.763   5.976
 3458POPC   C1A46419  43.301   5.755   6.333
 3458POPC   D2A46420  43.038   5.823   6.721
 3458POPC   C3A46421  43.227   5.930   7.131
 3458POPC   C4A46422  43.118   6.111   7.564
 3458POPC   C1B46423  42.816   5.490   6.377
 3458POPC   C2B46424  42.776   5.423   6.871
 3458POPC   C3B46425  42.828   5.630   7.276
 3458POPC   C4B46426  42.728   5.545   7.706
 3459POPC   NC346427  37.348  25.512   5.277
 3459POPC   PO446428  36.905  25.019   5.408
 3459POPC   GL146429  36.899  25.159   5.825
 3459POPC   GL246430  36.553  25.183   5.783
 3459POPC   C1A46431  36.723  25.372   6.227
 3459POPC   D2A46432  36.532  25.270   6.649
 3459POPC   C3A46433  36.878  25.264   6.961
 3459POPC   C4A46434  37.071  25.630   7.124
 3459POPC   C1B46435  36.570  24.872   6.138
 3459POPC   C2B46436  36.792  24.860   6.557
 3459POPC   C3B46437  36.585  24.841   6.973
 3459POPC   C4B46438  36.566  24.938   7.462
 3460POPC   NC346439   9.565  19.662   5.571
 3460POPC   PO446440  10.152  19.962   5.479
 3460POPC   GL146441  10.036  20.191   5.806
 3460POPC   GL246442   9.677  20.156   5.757
 3460POPC   C1A46443   9.972  20.017   6.220
 3460POPC   D2A46444   9.777  20.077   6.642
 3460POPC   C3A46445   9.805  19.797   7.018
 3460POPC   C4A46446  10.146  19.603   7.310
 3460POPC   C1B46447   9.475  20.117   6.164
 3460POPC   C2B46448   9.291  20.225   6.541
 3460POPC   C3B46449   9.301  19.964   6.865
 3460POPC   C4B46450   9.412  20.093   7.254
 3461POPC   NC346451  19.604  38.120   5.350
 3461POPC   PO446452  20.250  38.531   5.428
 3461POPC   GL146453  20.031  38.342   5.825
 3461POPC   GL246454  20.280  38.098   5.899
 3461POPC   C1A46455  19.785  38.402   6.253
 3461POPC   D2A46456  19.487  38.583   6.597
 3461POPC   C3A46457  19.593  38.667   7.023
 3461POPC   C4A46458  19.927  38.433   7.227
 3461POPC   C1B46459  20.002  37.932   6.207
 3461POPC   C2B46460  19.937  37.962   6.637
 3461POPC   C3B46461  19.640  38.172   6.851
 3461POPC   C4B46462  19.460  38.189   7.240
 3462POPC   NC346463   0.039  24.915   5.285
 3462POPC   PO446464   0.573  24.571   5.168
 3462POPC   GL146465   0.365  24.437   5.642
 3462POPC   GL246466   0.115  24.701   5.763
 3462POPC   C1A46467   0.245  24.145   6.050
 3462POPC   D2A46468   0.392  24.070   6.495
 3462POPC   C3A46469   0.479  24.343   6.836
 3462POPC   C4A46470   0.436  24.220   7.264
 3462POPC   C1B46471   0.212  24.635   6.209
 3462POPC   C2B46472   0.341  24.864   6.579
 3462POPC   C3B46473   0.583  24.838   6.951
 3462POPC   C4B46474   0.515  24.718   7.375
 3463POPC   NC346475  14.112  26.212   5.239
 3463POPC   PO446476  14.715  25.832   5.272
 3463POPC   GL146477  14.668  26.016   5.695
 3463POPC   GL246478  14.331  26.140   5.760
 3463POPC   C1A46479  14.737  26.193   6.107
 3463POPC   D2A46480  14.682  26.400   6.506
 3463POPC   C3A46481  14.674  26.105   6.838
 3463POPC   C4A46482  14.468  25.847   7.130
 3463POPC   C1B46483  14.255  26.391   6.151
 3463POPC   C2B46484  14.206  26.254   6.593
 3463POPC   C3B46485  14.248  26.318   7.034
 3463POPC   C4B46486  14.065  26.061   7.339
 3464POPC   NC346487  22.965  35.851   5.517
 3464POPC   PO446488  23.492  36.277   5.445
 3464POPC   GL146489  23.227  36.230   5.768
 3464POPC   GL246490  22.889  36.363   5.716
 3464POPC   C1A46491  23.031  36.079   6.140
 3464POPC   D2A46492  22.910  36.317   6.486
 3464POPC   C3A46493  22.953  36.113   6.858
 3464POPC   C4A46494  23.034  35.940   7.243
 3464POPC   C1B46495  22.568  36.319   6.087
 3464POPC   C2B46496  22.376  36.155   6.495
 3464POPC   C3B46497  22.446  36.019   6.923
 3464POPC   C4B46498  22.647  36.275   7.240
 3465POPC   NC346499  44.877   2.207   5.135
 3465POPC   PO446500  44.579   1.627   5.464
 3465POPC   GL146501  44.601   2.027   5.715
 3465POPC   GL246502  44.329   2.274   5.780
 3465POPC   C1A46503  44.823   2.082   6.141
 3465POPC   D2A46504  44.923   1.846   6.542
 3465POPC   C3A46505  44.869   2.069   6.958
 3465POPC   C4A46506  44.673   1.994   7.370
 3465POPC   C1B46507  44.298   2.081   6.190
 3465POPC   C2B46508  44.541   2.211   6.569
 3465POPC   C3B46509  44.422   2.332   7.001
 3465POPC   C4B46510  44.178   2.158   7.336
 3466POPC   NC346511  31.347   6.518   5.415
 3466POPC   PO446512  31.832   7.005   5.421
 3466POPC   GL146513  31.610   6.779   5.794
 3466POPC   GL246514  31.242   6.806   5.847
 3466POPC   C1A46515  31.621   6.822   6.275
 3466POPC   D2A46516  31.832   6.988   6.657
 3466POPC   C3A46517  31.678   6.790   7.032
 3466POPC   C4A46518  31.323   6.549   7.210
 3466POPC   C1B46519  31.120   6.946   6.298
 3466POPC   C2B46520  31.302   6.958   6.735
 3466POPC   C3B46521  31.220   7.048   7.189
 3466POPC   C4B46522  31.097   6.881   7.640
 3467POPC   NC346523  38.610   6.963   5.434
 3467POPC   PO446524  37.950   6.741   5.244
 3467POPC   GL146525  38.239   6.678   5.661
 3467POPC   GL246526  38.207   6.945   5.822
 3467POPC   C1A46527  38.516   6.509   6.065
 3467POPC   D2A46528  38.594   6.270   6.483
 3467POPC   C3A46529  38.620   6.439   6.915
 3467POPC   C4A46530  38.865   6.694   7.214
 3467POPC   C1B46531  38.509   7.018   6.130
 3467POPC   C2B46532  38.598   6.820   6.518
 3467POPC   C3B46533  38.500   6.948   6.935
 3467POPC   C4B46534  38.386   6.824   7.374
 3468POPC   NC346535  39.188  41.109   5.387
 3468POPC   PO446536  39.484  40.512   5.484
 3468POPC   GL146537  39.216  40.689   5.810
 3468POPC   GL246538  38.964  40.954   5.817
 3468POPC   C1A46539  39.125  40.580   6.250
 3468POPC   D2A46540  38.834  40.437   6.562
 3468POPC   C3A46541  39.008  40.471   7.000
 3468POPC   C4A46542  39.323  40.788   7.090
 3468POPC   C1B46543  38.971  41.073   6.254
 3468POPC   C2B46544  39.000  40.911   6.694
 3468POPC   C3B46545  38.940  41.109   7.117
 3468POPC   C4B46546  38.923  41.219   7.568
 3469POPC   NC346547  31.752  34.308   5.521
 3469POPC   PO446548  31.366  33.798   5.443
 3469POPC   GL146549  31.351  33.853   5.898
 3469POPC   GL246550  31.667  33.952   5.883
 3469POPC   C1A46551  31.447  33.818   6.349
 3469POPC   D2A46552  31.772  33.830   6.646
 3469POPC   C3A46553  31.502  33.831   6.980
 3469POPC   C4A46554  31.410  33.956   7.387
 3469POPC   C1B46555  31.792  33.561   6.085
 3469POPC   C2B46556  31.688  33.317   6.448
 3469POPC   C3B46557  31.694  33.355   6.887
 3469POPC   C4B46558  31.951  33.609   7.149
 3470POPC   NC346559  39.750   6.072   5.437
 3470POPC   PO446560  40.234   5.576   5.397
 3470POPC   GL146561  40.071   5.777   5.755
 3470POPC   GL246562  39.753   5.619   5.789
 3470POPC   C1A46563  39.930   5.960   6.154
 3470POPC   D2A46564  39.771   5.900   6.568
 3470POPC   C3A46565  39.931   6.043   6.957
 3470POPC   C4A46566  40.096   5.971   7.378
 3470POPC   C1B46567  39.550   5.622   6.183
 3470POPC   C2B46568  39.703   5.371   6.526
 3470POPC   C3B46569  39.679   5.534   6.929
 3470POPC   C4B46570  39.617   5.780   7.284
 3471POPC   NC346571  29.442  17.460   5.055
 3471POPC   PO446572  28.911  17.676   5.454
 3471POPC   GL146573  28.837  17.558   5.859
 3471POPC   GL246574  28.939  17.899   5.911
 3471POPC   C1A46575  28.991  17.310   6.217
 3471POPC   D2A46576  29.275  17.177   6.560
 3471POPC   C3A46577  29.144  17.247   6.993
 3471POPC   C4A46578  29.524  17.288   7.204
 3471POPC   C1B46579  28.790  17.789   6.319
 3471POPC   C2B46580  29.121  17.661   6.577
 3471POPC   C3B46581  29.307  17.721   6.937
 3471POPC   C4B46582  28.914  17.770   7.142
 3472POPC   NC346583   4.614  42.854   5.478
 3472POPC   PO446584   3.915  43.028   5.472
 3472POPC   GL146585   4.175  43.045   5.871
 3472POPC   GL246586   4.505  43.220   5.837
 3472POPC   C1A46587   4.295  43.266   6.299
 3472POPC   D2A46588   4.620  43.298   6.668
 3472POPC   C3A46589   4.437  43.272   7.117
 3472POPC   C4A46590   4.370  43.275   7.600
 3472POPC   C1B46591   4.583  42.860   6.143
 3472POPC   C2B46592   4.767  42.676   6.518
 3472POPC   C3B46593   4.811  42.847   6.912
 3472POPC   C4B46594   4.609  42.827   7.275
 3473POPC   NC346595  30.496  12.603   5.323
 3473POPC   PO446596  30.694  13.240   5.213
 3473POPC   GL146597  30.791  12.945   5.617
 3473POPC   GL246598  30.792  12.579   5.730
 3473POPC   C1A46599  30.964  12.996   6.039
 3473POPC   D2A46600  30.749  13.029   6.451
 3473POPC   C3A46601  30.984  12.892   6.824
 3473POPC   C4A46602  30.968  12.944   7.253
 3473POPC   C1B46603  30.694  12.562   6.153
 3473POPC   C2B46604  30.751  12.519   6.584
 3473POPC   C3B46605  30.583  12.604   6.992
 3473POPC   C4B46606  30.367  12.979   7.133
 3474POPC   NC346607  42.046  36.604   5.495
 3474POPC   PO446608  42.120  35.790   5.488
 3474POPC   GL146609  42.063  36.129   5.755
 3474POPC   GL246610  42.160  35.907   5.998
 3474POPC   C1A46611  42.164  36.425   6.118
 3474POPC   D2A46612  42.241  36.579   6.557
 3474POPC   C3A46613  42.283  36.256   6.897
 3474POPC   C4A46614  42.023  36.092   7.226
 3474POPC   C1B46615  42.303  36.021   6.406
 3474POPC   C2B46616  42.649  35.971   6.680
 3474POPC   C3B46617  42.595  35.742   7.030
 3474POPC   C4B46618  42.255  35.644   7.231
 3475POPC   NC346619  41.838  20.654   5.419
 3475POPC   PO446620  41.286  20.305   5.339
 3475POPC   GL146621  41.475  20.393   5.780
 3475POPC   GL246622  41.672  20.705   5.876
 3475POPC   C1A46623  41.334  20.608   6.202
 3475POPC   D2A46624  41.554  20.753   6.537
 3475POPC   C3A46625  41.390  20.603   6.928
 3475POPC   C4A46626  41.574  20.744   7.312
 3475POPC   C1B46627  41.794  20.400   6.205
 3475POPC   C2B46628  41.679  20.263   6.613
 3475POPC   C3B46629  41.757  20.282   7.048
 3475POPC   C4B46630  41.566  20.233   7.445
 3476POPC   NC346631  27.794  35.604   5.482
 3476POPC   PO446632  28.415  35.419   5.342
 3476POPC   GL146633  28.308  35.372   5.772
 3476POPC   GL246634  28.678  35.396   5.794
 3476POPC   C1A46635  28.124  35.406   6.221
 3476POPC   D2A46636  28.206  35.661   6.617
 3476POPC   C3A46637  28.306  35.433   7.005
 3476POPC   C4A46638  28.228  35.150   7.358
 3476POPC   C1B46639  28.619  35.157   6.164
 3476POPC   C2B46640  28.500  35.186   6.580
 3476POPC   C3B46641  28.778  35.259   6.907
 3476POPC   C4B46642  28.704  35.077   7.239
 3477POPC   NC346643  37.099  43.534   5.391
 3477POPC   PO446644  37.082  44.290   5.432
 3477POPC   GL146645  36.881  43.952   5.735
 3477POPC   GL246646  37.118  43.657   5.866
 3477POPC   C1A46647  36.691  44.050   6.166
 3477POPC   D2A46648  36.882  44.127   6.588
 3477POPC   C3A46649  36.679  44.093   6.993
 3477POPC   C4A46650  36.939  44.340   7.246
 3477POPC   C1B46651  36.756  43.531   6.076
 3477POPC   C2B46652  36.682  43.630   6.491
 3477POPC   C3B46653  36.882  43.635   6.886
 3477POPC   C4B46654  37.039  43.832   7.285
 3478POPC   NC346655   1.435   7.356   5.080
 3478POPC   PO446656   1.555   7.526   5.690
 3478POPC   GL146657   1.386   7.317   6.097
 3478POPC   GL246658   1.175   6.993   6.028
 3478POPC   C1A46659   1.293   7.421   6.528
 3478POPC   D2A46660   1.229   7.735   6.862
 3478POPC   C3A46661   1.071   7.580   7.243
 3478POPC   C4A46662   1.211   7.538   7.657
 3478POPC   C1B46663   1.339   6.906   6.442
 3478POPC   C2B46664   1.525   7.088   6.837
 3478POPC   C3B46665   1.437   7.213   7.272
 3478POPC   C4B46666   1.378   7.036   7.714
 3479POPC   NC346667  42.859  44.161   5.583
 3479POPC   PO446668  43.343  43.797   5.312
 3479POPC   GL146669  43.120  43.628   5.670
 3479POPC   GL246670  43.233  43.926   5.849
 3479POPC   C1A46671  43.038  43.556   6.136
 3479POPC   D2A46672  43.189  43.858   6.470
 3479POPC   C3A46673  42.952  43.846   6.895
 3479POPC   C4A46674  42.827  43.868   7.348
 3479POPC   C1B46675  43.570  44.147   6.067
 3479POPC   C2B46676  43.732  44.146   6.492
 3479POPC   C3B46677  43.462  44.119   6.843
 3479POPC   C4B46678  43.300  44.064   7.225
 3480POPC   NC346679  31.280  44.414   5.236
 3480POPC   PO446680  31.615  43.761   5.388
 3480POPC   GL146681  31.668  43.715   5.814
 3480POPC   GL246682  31.275  43.658   5.860
 3480POPC   C1A46683  31.698  43.773   6.244
 3480POPC   D2A46684  31.690  43.540   6.623
 3480POPC   C3A46685  31.765  43.834   6.964
 3480POPC   C4A46686  31.584  44.059   7.306
 3480POPC   C1B46687  31.155  43.832   6.259
 3480POPC   C2B46688  31.245  43.824   6.704
 3480POPC   C3B46689  30.999  43.890   7.074
 3480POPC   C4B46690  31.077  44.091   7.458
 3481POPC   NC346691  23.052  38.221   5.329
 3481POPC   PO446692  22.428  38.484   5.387
 3481POPC   GL146693  22.809  38.551   5.681
 3481POPC   GL246694  22.810  38.232   5.833
 3481POPC   C1A46695  23.129  38.542   6.055
 3481POPC   D2A46696  23.038  38.214   6.360
 3481POPC   C3A46697  23.102  38.212   6.825
 3481POPC   C4A46698  23.077  38.509   7.180
 3481POPC   C1B46699  22.553  38.107   6.182
 3481POPC   C2B46700  22.627  38.101   6.639
 3481POPC   C3B46701  22.646  38.171   7.094
 3481POPC   C4B46702  22.507  37.936   7.484
 3482POPC   NC346703   3.418  17.835   5.297
 3482POPC   PO446704   3.771  17.295   5.196
 3482POPC   GL146705   3.828  17.457   5.650
 3482POPC   GL246706   3.785  17.124   5.815
 3482POPC   C1A46707   3.737  17.552   6.110
 3482POPC   D2A46708   3.339  17.577   6.415
 3482POPC   C3A46709   3.303  17.832   6.830
 3482POPC   C4A46710   3.508  17.829   7.264
 3482POPC   C1B46711   3.602  17.075   6.254
 3482POPC   C2B46712   3.592  17.220   6.683
 3482POPC   C3B46713   3.452  17.375   7.053
 3482POPC   C4B46714   3.793  17.430   7.335
 3483POPC   NC346715  20.374  34.068   5.715
 3483POPC   PO446716  20.000  33.614   5.318
 3483POPC   GL146717  19.851  33.743   5.713
 3483POPC   GL246718  19.809  34.108   5.720
 3483POPC   C1A46719  19.967  33.735   6.156
 3483POPC   D2A46720  19.815  33.519   6.513
 3483POPC   C3A46721  19.946  33.653   6.925
 3483POPC   C4A46722  19.862  33.951   7.240
 3483POPC   C1B46723  19.700  34.185   6.176
 3483POPC   C2B46724  19.957  34.122   6.579
 3483POPC   C3B46725  20.209  34.231   6.970
 3483POPC   C4B46726  20.233  34.251   7.440
 3484POPC   NC346727  37.118   3.046   5.579
 3484POPC   PO446728  36.761   3.645   5.426
 3484POPC   GL146729  36.987   3.679   5.822
 3484POPC   GL246730  37.250   3.465   5.877
 3484POPC   C1A46731  36.838   3.570   6.246
 3484POPC   D2A46732  36.695   3.352   6.633
 3484POPC   C3A46733  36.797   3.586   7.009
 3484POPC   C4A46734  36.661   3.724   7.428
 3484POPC   C1B46735  37.295   3.294   6.305
 3484POPC   C2B46736  37.189   3.258   6.775
 3484POPC   C3B46737  37.449   3.310   7.150
 3484POPC   C4B46738  37.369   3.268   7.631
 3485POPC   NC346739  36.489  23.370   5.049
 3485POPC   PO446740  37.005  22.999   5.388
 3485POPC   GL146741  36.988  22.921   5.820
 3485POPC   GL246742  36.776  22.628   5.855
 3485POPC   C1A46743  36.808  23.123   6.190
 3485POPC   D2A46744  36.640  22.897   6.519
 3485POPC   C3A46745  36.681  23.055   6.889
 3485POPC   C4A46746  36.830  22.949   7.216
 3485POPC   C1B46747  36.997  22.618   6.273
 3485POPC   C2B46748  37.098  22.762   6.712
 3485POPC   C3B46749  37.244  22.673   7.127
 3485POPC   C4B46750  36.973  22.451   7.383
 3486POPC   NC346751  18.345  40.271   5.364
 3486POPC   PO446752  18.226  39.681   5.334
 3486POPC   GL146753  18.351  39.860   5.783
 3486POPC   GL246754  18.341  40.220   5.872
 3486POPC   C1A46755  18.307  39.887   6.276
 3486POPC   D2A46756  18.008  40.036   6.636
 3486POPC   C3A46757  18.053  39.754   6.996
 3486POPC   C4A46758  18.395  39.660   7.263
 3486POPC   C1B46759  18.181  40.385   6.284
 3486POPC   C2B46760  18.458  40.273   6.649
 3486POPC   C3B46761  18.340  40.182   7.081
 3486POPC   C4B46762  18.389  40.276   7.539
 3487POPC   NC346763  39.250  12.241   5.609
 3487POPC   PO446764  38.713  11.789   5.411
 3487POPC   GL146765  38.923  11.898   5.807
 3487POPC   GL246766  38.894  12.224   5.955
 3487POPC   C1A46767  39.166  11.774   6.181
 3487POPC   D2A46768  39.383  11.660   6.580
 3487POPC   C3A46769  39.373  12.004   6.899
 3487POPC   C4A46770  39.232  12.061   7.318
 3487POPC   C1B46771  38.886  12.226   6.368
 3487POPC   C2B46772  39.012  12.367   6.760
 3487POPC   C3B46773  39.060  12.513   7.170
 3487POPC   C4B46774  39.022  12.441   7.614
 3488POPC   NC346775  13.299  10.630   5.588
 3488POPC   PO446776  12.709  10.297   5.586
 3488POPC   GL146777  12.861  10.374   5.943
 3488POPC   GL246778  12.861  10.735   5.854
 3488POPC   C1A46779  12.822  10.249   6.375
 3488POPC   D2A46780  12.756  10.477   6.722
 3488POPC   C3A46781  12.912  10.361   7.110
 3488POPC   C4A46782  12.677  10.535   7.435
 3488POPC   C1B46783  12.896  10.749   6.286
 3488POPC   C2B46784  13.113  10.824   6.646
 3488POPC   C3B46785  12.940  10.874   7.052
 3488POPC   C4B46786  13.149  10.765   7.408
 3489POPC   NC346787   4.412  27.223   5.573
 3489POPC   PO446788   3.943  26.876   5.596
 3489POPC   GL146789   4.199  26.969   5.986
 3489POPC   GL246790   4.559  26.879   5.969
 3489POPC   C1A46791   4.314  26.940   6.442
 3489POPC   D2A46792   4.219  26.764   6.866
 3489POPC   C3A46793   4.183  27.045   7.217
 3489POPC   C4A46794   4.116  26.989   7.657
 3489POPC   C1B46795   4.811  26.802   6.365
 3489POPC   C2B46796   4.759  26.860   6.817
 3489POPC   C3B46797   4.710  27.050   7.220
 3489POPC   C4B46798   4.671  26.946   7.656
 3490POPC   NC346799  20.710  38.576   5.372
 3490POPC   PO446800  20.909  38.001   5.277
 3490POPC   GL146801  20.744  38.271   5.751
 3490POPC   GL246802  20.501  38.576   5.854
 3490POPC   C1A46803  20.818  38.438   6.197
 3490POPC   D2A46804  20.611  38.295   6.610
 3490POPC   C3A46805  20.786  38.453   7.010
 3490POPC   C4A46806  20.767  38.479   7.483
 3490POPC   C1B46807  20.319  38.583   6.293
 3490POPC   C2B46808  20.435  38.776   6.733
 3490POPC   C3B46809  20.380  38.691   7.197
 3490POPC   C4B46810  20.280  38.752   7.631
 3491POPC   NC346811  13.239  24.507   5.488
 3491POPC   PO446812  12.649  24.178   5.349
 3491POPC   GL146813  12.751  24.463   5.730
 3491POPC   GL246814  12.954  24.268   5.963
 3491POPC   C1A46815  12.956  24.753   6.069
 3491POPC   D2A46816  13.126  24.767   6.453
 3491POPC   C3A46817  12.954  24.496   6.761
 3491POPC   C4A46818  12.871  24.616   7.173
 3491POPC   C1B46819  12.599  24.449   6.258
 3491POPC   C2B46820  12.445  24.405   6.706
 3491POPC   C3B46821  12.495  24.281   7.145
 3491POPC   C4B46822  12.864  24.213   7.465
 3492POPC   NC346823  11.592  26.013   5.461
 3492POPC   PO446824  11.085  25.510   5.419
 3492POPC   GL146825  11.219  25.838   5.755
 3492POPC   GL246826  11.034  26.147   5.705
 3492POPC   C1A46827  11.450  26.014   6.121
 3492POPC   D2A46828  11.389  26.350   6.438
 3492POPC   C3A46829  11.422  26.240   6.882
 3492POPC   C4A46830  11.453  25.907   7.192
 3492POPC   C1B46831  10.940  26.187   6.146
 3492POPC   C2B46832  10.961  26.088   6.577
 3492POPC   C3B46833  10.920  26.276   6.956
 3492POPC   C4B46834  11.146  26.416   7.313
 3493POPC   NC346835  10.102   8.226   5.495
 3493POPC   PO446836  10.811   8.431   5.566
 3493POPC   GL146837  10.666   8.296   5.938
 3493POPC   GL246838  10.516   7.940   5.891
 3493POPC   C1A46839  10.745   8.460   6.346
 3493POPC   D2A46840  10.951   8.355   6.701
 3493POPC   C3A46841  10.698   8.540   6.990
 3493POPC   C4A46842  10.547   8.338   7.350
 3493POPC   C1B46843  10.392   8.096   6.326
 3493POPC   C2B46844  10.466   8.141   6.771
 3493POPC   C3B46845  10.655   7.877   7.089
 3493POPC   C4B46846  10.725   7.880   7.550
 3494POPC   NC346847   9.414  44.008   5.683
 3494POPC   PO446848   8.926  43.837   5.314
 3494POPC   GL146849   8.916  44.153   5.651
 3494POPC   GL246850   8.692  43.937   5.806
 3494POPC   C1A46851   8.936  44.267   6.091
 3494POPC   D2A46852   8.767  44.008   6.466
 3494POPC   C3A46853   8.952  44.038   6.876
 3494POPC   C4A46854   8.830  43.845   7.261
 3494POPC   C1B46855   9.011  43.748   6.108
 3494POPC   C2B46856   9.091  43.613   6.541
 3494POPC   C3B46857   9.095  43.470   6.992
 3494POPC   C4B46858   9.051  43.425   7.466
 3495POPC   NC346859  34.434  41.381   5.466
 3495POPC   PO446860  34.872  41.826   5.296
 3495POPC   GL146861  34.651  41.757   5.708
 3495POPC   GL246862  34.781  41.417   5.834
 3495POPC   C1A46863  34.631  41.863   6.156
 3495POPC   D2A46864  34.389  41.865   6.560
 3495POPC   C3A46865  34.592  41.681   6.922
 3495POPC   C4A46866  34.705  41.502   7.325
 3495POPC   C1B46867  34.711  41.374   6.290
 3495POPC   C2B46868  34.384  41.277   6.609
 3495POPC   C3B46869  34.198  41.131   7.001
 3495POPC   C4B46870  34.201  41.217   7.451
 3496POPC   NC346871  10.113  18.666   5.577
 3496POPC   PO446872   9.684  19.222   5.513
 3496POPC   GL146873   9.468  19.090   5.871
 3496POPC   GL246874   9.679  18.814   5.869
 3496POPC   C1A46875   9.355  19.217   6.280
 3496POPC   D2A46876   9.186  19.095   6.692
 3496POPC   C3A46877   9.299  19.443   7.000
 3496POPC   C4A46878   9.602  19.440   7.339
 3496POPC   C1B46879   9.811  18.951   6.279
 3496POPC   C2B46880   9.704  19.145   6.677
 3496POPC   C3B46881   9.731  18.980   7.081
 3496POPC   C4B46882  10.009  19.130   7.391
 3497POPC   NC346883  42.907  24.910   5.268
 3497POPC   PO446884  43.160  25.529   5.369
 3497POPC   GL146885  43.026  25.267   5.659
 3497POPC   GL246886  43.236  25.018   5.774
 3497POPC   C1A46887  42.955  25.380   6.077
 3497POPC   D2A46888  42.755  25.347   6.478
 3497POPC   C3A46889  42.882  25.076   6.827
 3497POPC   C4A46890  43.020  25.228   7.213
 3497POPC   C1B46891  43.413  25.197   6.185
 3497POPC   C2B46892  43.330  25.259   6.620
 3497POPC   C3B46893  43.539  25.095   6.995
 3497POPC   C4B46894  43.316  24.779   7.205
 3498POPC   NC346895  34.285  39.725   5.369
 3498POPC   PO446896  33.824  40.204   5.299
 3498POPC   GL146897  33.704  39.998   5.694
 3498POPC   GL246898  33.786  39.661   5.767
 3498POPC   C1A46899  33.565  40.002   6.124
 3498POPC   D2A46900  33.724  40.011   6.551
 3498POPC   C3A46901  33.593  40.074   6.969
 3498POPC   C4A46902  33.700  39.958   7.394
 3498POPC   C1B46903  33.838  39.605   6.247
 3498POPC   C2B46904  33.970  39.562   6.690
 3498POPC   C3B46905  33.900  39.589   7.133
 3498POPC   C4B46906  33.940  39.587   7.639
 3499POPC   NC346907  12.489  28.940   5.412
 3499POPC   PO446908  11.837  28.850   5.404
 3499POPC   GL146909  12.070  29.093   5.743
 3499POPC   GL246910  12.397  29.105   5.877
 3499POPC   C1A46911  12.039  29.240   6.190
 3499POPC   D2A46912  12.227  29.243   6.621
 3499POPC   C3A46913  11.962  29.234   6.962
 3499POPC   C4A46914  12.017  29.246   7.376
 3499POPC   C1B46915  12.457  28.920   6.259
 3499POPC   C2B46916  12.404  28.760   6.668
 3499POPC   C3B46917  12.314  28.888   7.100
 3499POPC   C4B46918  12.321  28.913   7.570
 3500POPC   NC346919  44.293   4.576   5.377
 3500POPC   PO446920  43.855   4.022   5.300
 3500POPC   GL146921  44.068   4.215   5.680
 3500POPC   GL246922  43.766   4.165   5.839
 3500POPC   C1A46923  44.118   4.387   6.134
 3500POPC   D2A46924  43.862   4.197   6.494
 3500POPC   C3A46925  43.998   4.139   6.921
 3500POPC   C4A46926  44.071   4.539   7.019
 3500POPC   C1B46927  43.594   4.456   6.145
 3500POPC   C2B46928  43.402   4.423   6.520
 3500POPC   C3B46929  43.578   4.550   6.858
 3500POPC   C4B46930  43.583   4.416   7.236
 3501POPC   NC346931  17.831  18.009   5.335
 3501POPC   PO446932  17.312  18.464   5.312
 3501POPC   GL146933  17.436  18.230   5.641
 3501POPC   GL246934  17.771  18.228   5.791
 3501POPC   C1A46935  17.342  18.296   6.076
 3501POPC   D2A46936  17.436  18.196   6.520
 3501POPC   C3A46937  17.115  18.247   6.821
 3501POPC   C4A46938  17.149  18.244   7.258
 3501POPC   C1B46939  17.810  18.424   6.208
 3501POPC   C2B46940  17.756  18.587   6.643
 3501POPC   C3B46941  17.577  18.443   7.030
 3501POPC   C4B46942  17.484  18.602   7.478
 3502POPC   NC346943  15.228  10.236   5.585
 3502POPC   PO446944  15.022   9.571   5.349
 3502POPC   GL146945  15.272   9.719   5.708
 3502POPC   GL246946  15.265   9.395   5.841
 3502POPC   C1A46947  15.204   9.852   6.153
 3502POPC   D2A46948  14.952   9.797   6.525
 3502POPC   C3A46949  15.025   9.941   6.929
 3502POPC   C4A46950  15.192  10.237   7.221
 3502POPC   C1B46951  15.538   9.464   6.132
 3502POPC   C2B46952  15.361   9.454   6.519
 3502POPC   C3B46953  15.398   9.601   6.919
 3502POPC   C4B46954  15.230   9.693   7.323
 3503POPC   NC346955  22.829  43.117   5.415
 3503POPC   PO446956  23.437  43.435   5.395
 3503POPC   GL146957  23.187  43.312   5.738
 3503POPC   GL246958  23.229  42.971   5.721
 3503POPC   C1A46959  22.841  43.207   6.049
 3503POPC   D2A46960  22.757  43.293   6.473
 3503POPC   C3A46961  22.769  43.140   6.882
 3503POPC   C4A46962  22.934  43.360   7.228
 3503POPC   C1B46963  23.305  43.030   6.171
 3503POPC   C2B46964  23.153  42.931   6.576
 3503POPC   C3B46965  23.283  43.074   6.957
 3503POPC   C4B46966  23.068  42.879   7.280
 3504POPC   NC346967  21.722   2.772   5.445
 3504POPC   PO446968  21.095   2.998   5.367
 3504POPC   GL146969  21.280   2.829   5.748
 3504POPC   GL246970  21.185   2.532   5.948
 3504POPC   C1A46971  21.418   2.962   6.151
 3504POPC   D2A46972  21.288   3.152   6.525
 3504POPC   C3A46973  21.383   2.925   6.892
 3504POPC   C4A46974  21.355   2.683   7.291
 3504POPC   C1B46975  21.602   2.493   6.173
 3504POPC   C2B46976  21.726   2.715   6.545
 3504POPC   C3B46977  21.768   2.606   6.985
 3504POPC   C4B46978  21.669   2.280   7.238
 3505POPC   NC346979   7.689   9.570   5.362
 3505POPC   PO446980   7.085   9.830   5.256
 3505POPC   GL146981   7.285   9.761   5.644
 3505POPC   GL246982   7.370   9.428   5.742
 3505POPC   C1A46983   7.329   9.857   6.080
 3505POPC   D2A46984   7.301   9.709   6.510
 3505POPC   C3A46985   7.453   9.922   6.878
 3505POPC   C4A46986   7.299  10.009   7.307
 3505POPC   C1B46987   7.556   9.406   6.171
 3505POPC   C2B46988   7.717   9.390   6.622
 3505POPC   C3B46989   7.569   9.445   7.074
 3505POPC   C4B46990   7.821   9.363   7.482
 3506POPC   NC346991  16.042  19.059   5.348
 3506POPC   PO446992  15.767  19.432   5.471
 3506POPC   GL146993  15.877  19.123   5.837
 3506POPC   GL246994  15.897  18.746   5.769
 3506POPC   C1A46995  16.082  19.142   6.261
 3506POPC   D2A46996  15.919  19.247   6.687
 3506POPC   C3A46997  15.992  19.022   7.084
 3506POPC   C4A46998  16.300  18.857   7.411
 3506POPC   C1B46999  15.853  18.696   6.254
 3506POPC   C2B47000  16.134  18.732   6.647
 3506POPC   C3B47001  16.077  18.519   7.079
 3506POPC   C4B47002  15.797  18.674   7.424
 3507POPC   NC347003  24.480  24.527   4.985
 3507POPC   PO447004  24.597  24.347   5.423
 3507POPC   GL147005  24.364  24.378   5.869
 3507POPC   GL247006  24.224  24.720   5.961
 3507POPC   C1A47007  24.347  24.410   6.357
 3507POPC   D2A47008  24.423  24.615   6.768
 3507POPC   C3A47009  24.447  24.393   7.168
 3507POPC   C4A47010  24.728  24.085   7.425
 3507POPC   C1B47011  24.404  24.944   6.355
 3507POPC   C2B47012  24.370  25.124   6.781
 3507POPC   C3B47013  24.528  24.929   7.175
 3507POPC   C4B47014  24.299  24.738   7.529
 3508POPC   NC347015  17.664  26.464   5.534
 3508POPC   PO447016  17.913  26.948   5.165
 3508POPC   GL147017  17.783  26.969   5.667
 3508POPC   GL247018  17.515  26.771   5.884
 3508POPC   C1A47019  17.883  26.950   6.158
 3508POPC   D2A47020  17.682  26.933   6.580
 3508POPC   C3A47021  17.891  26.995   6.984
 3508POPC   C4A47022  17.710  26.758   7.313
 3508POPC   C1B47023  17.264  26.848   6.241
 3508POPC   C2B47024  17.081  26.846   6.646
 3508POPC   C3B47025  17.247  26.826   7.052
 3508POPC   C4B47026  17.366  26.406   7.137
 3509POPC   NC347027  21.391  12.229   5.432
 3509POPC   PO447028  21.570  11.612   5.373
 3509POPC   GL147029  21.475  11.872   5.776
 3509POPC   GL247030  21.702  12.078   5.824
 3509POPC   C1A47031  21.320  12.135   6.183
 3509POPC   D2A47032  21.112  12.205   6.593
 3509POPC   C3A47033  21.217  11.989   6.970
 3509POPC   C4A47034  21.357  12.167   7.348
 3509POPC   C1B47035  21.815  12.303   6.194
 3509POPC   C2B47036  21.617  12.272   6.597
 3509POPC   C3B47037  21.746  12.078   6.970
 3509POPC   C4B47038  21.851  11.975   7.398
 3510POPC   NC347039  31.565   7.382   5.393
 3510POPC   PO447040  31.457   7.989   5.210
 3510POPC   GL147041  31.428   7.796   5.682
 3510POPC   GL247042  31.250   7.450   5.781
 3510POPC   C1A47043  31.632   7.622   6.096
 3510POPC   D2A47044  31.499   7.315   6.409
 3510POPC   C3A47045  31.676   7.444   6.802
 3510POPC   C4A47046  31.666   7.302   7.224
 3510POPC   C1B47047  31.135   7.623   6.188
 3510POPC   C2B47048  31.299   7.740   6.609
 3510POPC   C3B47049  31.250   7.560   7.036
 3510POPC   C4B47050  31.086   7.743   7.378
 3511POPC   NC347051  36.554  40.657   5.650
 3511POPC   PO447052  37.135  41.019   5.527
 3511POPC   GL147053  36.995  40.801   5.897
 3511POPC   GL247054  36.664  40.738   6.119
 3511POPC   C1A47055  37.101  40.880   6.304
 3511POPC   D2A47056  36.871  40.803   6.670
 3511POPC   C3A47057  37.044  40.596   7.028
 3511POPC   C4A47058  37.160  40.789   7.416
 3511POPC   C1B47059  36.810  40.376   6.342
 3511POPC   C2B47060  36.685  40.213   6.739
 3511POPC   C3B47061  36.390  40.330   7.077
 3511POPC   C4B47062  36.629  40.578   7.383
 3512POPC   NC347063  28.938  24.002   5.568
 3512POPC   PO447064  28.785  23.394   5.401
 3512POPC   GL147065  28.975  23.582   5.848
 3512POPC   GL247066  29.311  23.806   5.857
 3512POPC   C1A47067  28.981  23.815   6.284
 3512POPC   D2A47068  29.066  23.636   6.717
 3512POPC   C3A47069  29.146  23.901   7.101
 3512POPC   C4A47070  29.054  23.841   7.575
 3512POPC   C1B47071  29.462  23.658   6.271
 3512POPC   C2B47072  29.520  23.855   6.676
 3512POPC   C3B47073  29.606  23.666   7.074
 3512POPC   C4B47074  29.433  23.491   7.471
 3513POPC   NC347075  36.310  12.972   5.401
 3513POPC   PO447076  35.877  12.607   5.586
 3513POPC   GL147077  36.066  12.928   5.864
 3513POPC   GL247078  36.448  13.038   5.895
 3513POPC   C1A47079  36.140  13.121   6.274
 3513POPC   D2A47080  36.360  12.902   6.596
 3513POPC   C3A47081  35.995  12.670   6.773
 3513POPC   C4A47082  35.690  12.776   7.099
 3513POPC   C1B47083  36.362  12.607   6.115
 3513POPC   C2B47084  36.375  12.386   6.520
 3513POPC   C3B47085  36.458  12.536   6.958
 3513POPC   C4B47086  36.282  12.918   7.138
 3514POPC   NC347087   1.993  32.075   5.424
 3514POPC   PO447088   2.380  32.600   5.485
 3514POPC   GL147089   2.155  32.350   5.817
 3514POPC   GL247090   1.779  32.293   5.828
 3514POPC   C1A47091   2.032  32.396   6.251
 3514POPC   D2A47092   2.179  32.236   6.612
 3514POPC   C3A47093   2.221  32.350   7.020
 3514POPC   C4A47094   2.101  32.125   7.409
 3514POPC   C1B47095   1.643  32.001   6.180
 3514POPC   C2B47096   1.753  31.974   6.583
 3514POPC   C3B47097   1.749  32.173   6.967
 3514POPC   C4B47098   1.509  31.863   7.124
 3515POPC   NC347099   6.854   7.976   5.197
 3515POPC   PO447100   6.263   7.687   5.263
 3515POPC   GL147101   6.535   7.930   5.619
 3515POPC   GL247102   6.730   8.248   5.649
 3515POPC   C1A47103   6.487   8.084   6.074
 3515POPC   D2A47104   6.316   7.910   6.455
 3515POPC   C3A47105   6.460   8.083   6.823
 3515POPC   C4A47106   6.412   8.016   7.266
 3515POPC   C1B47107   6.770   8.527   6.051
 3515POPC   C2B47108   6.569   8.580   6.478
 3515POPC   C3B47109   6.732   8.506   6.884
 3515POPC   C4B47110   6.877   8.296   7.266
 3516POPC   NC347111  20.761  17.961   5.431
 3516POPC   PO447112  20.624  18.607   5.394
 3516POPC   GL147113  20.678  18.366   5.784
 3516POPC   GL247114  20.940  18.123   5.877
 3516POPC   C1A47115  20.724  18.435   6.226
 3516POPC   D2A47116  20.515  18.265   6.590
 3516POPC   C3A47117  20.690  18.422   6.985
 3516POPC   C4A47118  20.919  18.181   7.315
 3516POPC   C1B47119  20.574  17.954   6.116
 3516POPC   C2B47120  20.540  17.763   6.511
 3516POPC   C3B47121  20.695  17.889   6.922
 3516POPC   C4B47122  20.678  17.723   7.339
 3517POPC   NC347123  37.540   4.686   5.390
 3517POPC   PO447124  37.697   3.983   5.329
 3517POPC   GL147125  37.648   4.225   5.693
 3517POPC   GL247126  37.358   4.117   5.811
 3517POPC   C1A47127  37.823   4.176   6.124
 3517POPC   D2A47128  37.853   4.493   6.459
 3517POPC   C3A47129  37.885   4.390   6.894
 3517POPC   C4A47130  38.058   4.617   7.257
 3517POPC   C1B47131  37.353   4.361   6.191
 3517POPC   C2B47132  37.438   4.207   6.600
 3517POPC   C3B47133  37.325   4.386   6.989
 3517POPC   C4B47134  37.589   4.455   7.310
 3518POPC   NC347135   0.752   2.158   4.946
 3518POPC   PO447136   0.195   1.873   5.201
 3518POPC   GL147137   0.422   1.865   5.669
 3518POPC   GL247138   0.720   2.090   5.745
 3518POPC   C1A47139   0.359   2.030   6.118
 3518POPC   D2A47140   0.297   2.184   6.555
 3518POPC   C3A47141   0.332   1.866   6.912
 3518POPC   C4A47142   0.597   1.571   7.137
 3518POPC   C1B47143   0.856   2.216   6.189
 3518POPC   C2B47144   0.804   2.358   6.638
 3518POPC   C3B47145   0.505   2.343   6.992
 3518POPC   C4B47146   0.544   2.224   7.416
 3519POPC   NC347147  21.525  15.668   5.348
 3519POPC   PO447148  21.055  16.183   5.459
 3519POPC   GL147149  21.215  16.046   5.848
 3519POPC   GL247150  21.556  15.906   5.848
 3519POPC   C1A47151  21.291  16.174   6.259
 3519POPC   D2A47152  21.539  16.221   6.629
 3519POPC   C3A47153  21.297  16.048   6.961
 3519POPC   C4A47154  21.077  16.164   7.295
 3519POPC   C1B47155  21.528  15.715   6.306
 3519POPC   C2B47156  21.594  15.675   6.774
 3519POPC   C3B47157  21.425  15.601   7.213
 3519POPC   C4B47158  21.626  15.602   7.639
 3520POPC   NC347159   7.658  43.422   5.304
 3520POPC   PO447160   7.184  42.911   5.402
 3520POPC   GL147161   7.398  43.058   5.743
 3520POPC   GL247162   7.347  43.393   5.740
 3520POPC   C1A47163   7.274  43.094   6.165
 3520POPC   D2A47164   7.401  42.941   6.523
 3520POPC   C3A47165   7.138  42.991   6.822
 3520POPC   C4A47166   7.199  43.068   7.244
 3520POPC   C1B47167   7.537  43.526   6.138
 3520POPC   C2B47168   7.363  43.467   6.552
 3520POPC   C3B47169   7.166  43.487   6.941
 3520POPC   C4B47170   7.331  43.565   7.316
 3521POPC   NC347171  22.343  16.194   5.442
 3521POPC   PO447172  22.354  16.881   5.539
 3521POPC   GL147173  22.251  16.583   5.830
 3521POPC   GL247174  21.947  16.398   5.740
 3521POPC   C1A47175  22.344  16.706   6.253
 3521POPC   D2A47176  22.388  16.949   6.631
 3521POPC   C3A47177  21.977  16.996   6.788
 3521POPC   C4A47178  21.933  16.874   7.205
 3521POPC   C1B47179  22.048  16.248   6.167
 3521POPC   C2B47180  21.998  16.486   6.562
 3521POPC   C3B47181  22.187  16.497   6.952
 3521POPC   C4B47182  21.973  16.331   7.285
 3522POPC   NC347183  34.275  27.997   5.269
 3522POPC   PO447184  34.468  27.392   5.450
 3522POPC   GL147185  34.615  27.588   5.808
 3522POPC   GL247186  34.612  27.955   5.782
 3522POPC   C1A47187  34.739  27.660   6.242
 3522POPC   D2A47188  34.878  27.452   6.609
 3522POPC   C3A47189  34.526  27.288   6.858
 3522POPC   C4A47190  34.430  27.226   7.331
 3522POPC   C1B47191  34.547  28.160   6.202
 3522POPC   C2B47192  34.763  28.205   6.614
 3522POPC   C3B47193  34.938  27.885   6.886
 3522POPC   C4B47194  34.723  27.619   7.177
 3523POPC   NC347195   5.479   4.384   5.189
 3523POPC   PO447196   6.164   4.279   5.245
 3523POPC   GL147197   6.267   4.172   5.730
 3523POPC   GL247198   6.013   3.994   5.897
 3523POPC   C1A47199   6.314   4.258   6.196
 3523POPC   D2A47200   6.110   4.477   6.556
 3523POPC   C3A47201   6.098   4.291   6.968
 3523POPC   C4A47202   5.884   4.418   7.345
 3523POPC   C1B47203   5.801   4.242   6.202
 3523POPC   C2B47204   5.693   4.181   6.627
 3523POPC   C3B47205   5.494   4.340   6.996
 3523POPC   C4B47206   5.213   4.036   7.167
 3524POPC   NC347207  19.801   0.944   5.411
 3524POPC   PO447208  19.755   1.637   5.511
 3524POPC   GL147209  19.671   1.348   5.828
 3524POPC   GL247210  19.587   1.646   6.010
 3524POPC   C1A47211  19.708   1.193   6.252
 3524POPC   D2A47212  20.056   1.072   6.500
 3524POPC   C3A47213  19.894   1.069   6.953
 3524POPC   C4A47214  19.957   0.732   7.234
 3524POPC   C1B47215  19.979   1.652   6.278
 3524POPC   C2B47216  20.009   1.532   6.715
 3524POPC   C3B47217  19.872   1.564   7.129
 3524POPC   C4B47218  19.484   1.420   7.274
 3525POPC   NC347219  14.690  33.817   5.412
 3525POPC   PO447220  13.948  33.820   5.374
 3525POPC   GL147221  14.254  33.899   5.727
 3525POPC   GL247222  14.454  33.601   5.866
 3525POPC   C1A47223  14.244  34.051   6.187
 3525POPC   D2A47224  14.112  33.969   6.640
 3525POPC   C3A47225  14.296  33.883   7.059
 3525POPC   C4A47226  14.305  34.044   7.508
 3525POPC   C1B47227  14.338  33.572   6.353
 3525POPC   C2B47228  14.294  33.408   6.786
 3525POPC   C3B47229  14.520  33.447   7.205
 3525POPC   C4B47230  14.591  33.383   7.680
 3526POPC   NC347231   6.136  43.492   5.474
 3526POPC   PO447232   5.713  43.167   5.127
 3526POPC   GL147233   5.820  43.178   5.671
 3526POPC   GL247234   5.771  42.883   5.855
 3526POPC   C1A47235   5.985  43.293   6.113
 3526POPC   D2A47236   6.119  43.057   6.505
 3526POPC   C3A47237   6.179  43.308   6.860
 3526POPC   C4A47238   6.071  43.173   7.237
 3526POPC   C1B47239   5.532  42.672   6.162
 3526POPC   C2B47240   5.668  42.583   6.572
 3526POPC   C3B47241   5.820  42.804   6.944
 3526POPC   C4B47242   5.597  42.708   7.312
 3527POPC   NC347243  24.207  40.761   5.439
 3527POPC   PO447244  24.787  40.527   5.654
 3527POPC   GL147245  24.414  40.562   5.871
 3527POPC   GL247246  24.386  40.920   5.905
 3527POPC   C1A47247  24.322  40.578   6.302
 3527POPC   D2A47248  24.454  40.547   6.723
 3527POPC   C3A47249  24.225  40.884   6.883
 3527POPC   C4A47250  24.077  40.959   7.257
 3527POPC   C1B47251  24.623  41.031   6.301
 3527POPC   C2B47252  24.728  41.012   6.748
 3527POPC   C3B47253  24.612  41.075   7.163
 3527POPC   C4B47254  24.842  41.015   7.528
 3528POPC   NC347255  31.131   8.210   5.447
 3528POPC   PO447256  31.839   8.556   5.500
 3528POPC   GL147257  31.562   8.287   5.745
 3528POPC   GL247258  31.634   8.484   5.995
 3528POPC   C1A47259  31.402   8.078   6.180
 3528POPC   D2A47260  31.466   8.236   6.656
 3528POPC   C3A47261  31.497   8.021   7.076
 3528POPC   C4A47262  31.352   8.168   7.526
 3528POPC   C1B47263  31.330   8.579   6.307
 3528POPC   C2B47264  31.363   8.760   6.718
 3528POPC   C3B47265  31.308   8.521   7.119
 3528POPC   C4B47266  30.955   8.474   7.448
 3529POPC   NC347267  39.279  39.435   5.328
 3529POPC   PO447268  38.760  39.058   5.349
 3529POPC   GL147269  39.015  39.130   5.701
 3529POPC   GL247270  39.339  39.251   5.799
 3529POPC   C1A47271  38.940  39.285   6.109
 3529POPC   D2A47272  39.091  39.162   6.492
 3529POPC   C3A47273  39.211  39.485   6.758
 3529POPC   C4A47274  39.171  39.470   7.205
 3529POPC   C1B47275  39.504  39.068   6.218
 3529POPC   C2B47276  39.544  39.105   6.723
 3529POPC   C3B47277  39.613  39.165   7.165
 3529POPC   C4B47278  39.555  39.460   7.538
 3530POPC   NC347279  36.560  24.720   5.387
 3530POPC   PO447280  37.192  24.366   5.457
 3530POPC   GL147281  36.949  24.604   5.749
 3530POPC   GL247282  36.624  24.447   5.833
 3530POPC   C1A47283  37.045  24.617   6.183
 3530POPC   D2A47284  37.255  24.633   6.603
 3530POPC   C3A47285  37.000  24.530   6.925
 3530POPC   C4A47286  37.021  24.825   7.240
 3530POPC   C1B47287  36.705  24.192   6.228
 3530POPC   C2B47288  36.550  24.009   6.626
 3530POPC   C3B47289  36.722  24.086   7.039
 3530POPC   C4B47290  36.678  24.446   7.312
 3531POPC   NC347291  26.340  34.155   5.405
 3531POPC   PO447292  25.957  33.649   5.276
 3531POPC   GL147293  25.993  33.808   5.700
 3531POPC   GL247294  25.723  34.024   5.824
 3531POPC   C1A47295  25.999  33.697   6.155
 3531POPC   D2A47296  25.876  33.714   6.574
 3531POPC   C3A47297  26.106  33.802   6.982
 3531POPC   C4A47298  25.984  33.734   7.444
 3531POPC   C1B47299  25.668  34.170   6.264
 3531POPC   C2B47300  25.706  34.171   6.711
 3531POPC   C3B47301  25.711  34.096   7.149
 3531POPC   C4B47302  25.670  34.105   7.603
 3532POPC   NC347303   9.132   7.977   5.475
 3532POPC   PO447304   8.664   8.469   5.339
 3532POPC   GL147305   8.856   8.328   5.752
 3532POPC   GL247306   8.747   8.034   5.966
 3532POPC   C1A47307   8.988   8.410   6.198
 3532POPC   D2A47308   9.127   8.520   6.597
 3532POPC   C3A47309   8.793   8.353   6.845
 3532POPC   C4A47310   8.663   8.519   7.231
 3532POPC   C1B47311   9.161   7.908   6.150
 3532POPC   C2B47312   9.280   7.695   6.552
 3532POPC   C3B47313   9.152   7.789   6.990
 3532POPC   C4B47314   8.975   8.114   7.243
 3533POPC   NC347315  30.164  18.659   5.161
 3533POPC   PO447316  29.772  19.075   5.420
 3533POPC   GL147317  29.937  19.186   5.806
 3533POPC   GL247318  30.185  19.423   5.763
 3533POPC   C1A47319  29.870  19.123   6.222
 3533POPC   D2A47320  29.708  18.945   6.574
 3533POPC   C3A47321  29.734  19.164   6.952
 3533POPC   C4A47322  29.797  18.954   7.344
 3533POPC   C1B47323  30.311  19.395   6.208
 3533POPC   C2B47324  30.187  19.152   6.616
 3533POPC   C3B47325  30.231  19.224   7.040
 3533POPC   C4B47326  30.195  19.268   7.495
 3534POPC   NC347327  10.377  38.215   5.395
 3534POPC   PO447328  10.707  38.759   5.443
 3534POPC   GL147329  10.715  38.479   5.730
 3534POPC   GL247330  10.438  38.607   5.864
 3534POPC   C1A47331  10.737  38.280   6.158
 3534POPC   D2A47332  10.778  38.120   6.579
 3534POPC   C3A47333  10.594  38.366   6.904
 3534POPC   C4A47334  10.325  38.303   7.231
 3534POPC   C1B47335  10.803  38.783   6.133
 3534POPC   C2B47336  10.715  38.746   6.555
 3534POPC   C3B47337  10.859  38.806   6.947
 3534POPC   C4B47338  10.804  38.579   7.359
 3535POPC   NC347339   6.909  10.926   5.017
 3535POPC   PO447340   6.540  11.449   5.161
 3535POPC   GL147341   6.512  11.502   5.641
 3535POPC   GL247342   6.844  11.513   5.807
 3535POPC   C1A47343   6.427  11.410   6.088
 3535POPC   D2A47344   6.338  11.569   6.501
 3535POPC   C3A47345   6.505  11.372   6.850
 3535POPC   C4A47346   6.398  11.311   7.246
 3535POPC   C1B47347   6.900  11.208   6.180
 3535POPC   C2B47348   6.847  11.046   6.636
 3535POPC   C3B47349   6.744  10.936   7.102
 3535POPC   C4B47350   6.574  10.978   7.582
 3536POPC   NC347351  13.632   7.731   5.464
 3536POPC   PO447352  13.404   7.093   5.316
 3536POPC   GL147353  13.482   7.304   5.741
 3536POPC   GL247354  13.280   7.597   5.825
 3536POPC   C1A47355  13.641   7.174   6.179
 3536POPC   D2A47356  13.600   7.337   6.632
 3536POPC   C3A47357  13.690   7.193   7.062
 3536POPC   C4A47358  13.930   7.534   7.280
 3536POPC   C1B47359  13.285   7.539   6.247
 3536POPC   C2B47360  13.182   7.637   6.650
 3536POPC   C3B47361  13.275   7.520   7.068
 3536POPC   C4B47362  13.254   7.840   7.367
 3537POPC   NC347363  15.238   7.397   5.340
 3537POPC   PO447364  14.566   7.313   5.382
 3537POPC   GL147365  14.909   7.443   5.738
 3537POPC   GL247366  15.205   7.204   5.806
 3537POPC   C1A47367  15.135   7.609   6.138
 3537POPC   D2A47368  15.177   7.466   6.581
 3537POPC   C3A47369  15.274   7.693   7.008
 3537POPC   C4A47370  15.191   7.717   7.498
 3537POPC   C1B47371  15.075   7.062   6.210
 3537POPC   C2B47372  15.174   6.960   6.643
 3537POPC   C3B47373  15.339   7.151   7.051
 3537POPC   C4B47374  15.172   7.203   7.509
 3538POPC   NC347375  29.310  18.868   5.498
 3538POPC   PO447376  28.859  19.329   5.383
 3538POPC   GL147377  29.136  19.304   5.728
 3538POPC   GL247378  29.046  19.013   5.935
 3538POPC   C1A47379  29.404  19.311   6.110
 3538POPC   D2A47380  29.178  19.082   6.440
 3538POPC   C3A47381  29.222  19.105   6.879
 3538POPC   C4A47382  29.343  19.190   7.302
 3538POPC   C1B47383  28.901  18.699   6.225
 3538POPC   C2B47384  28.859  18.521   6.598
 3538POPC   C3B47385  28.975  18.659   6.998
 3538POPC   C4B47386  28.849  18.992   7.238
 3539POPC   NC347387  10.473   5.836   5.331
 3539POPC   PO447388  10.842   6.116   5.760
 3539POPC   GL147389  10.626   5.761   5.889
 3539POPC   GL247390  10.243   5.762   5.793
 3539POPC   C1A47391  10.750   5.759   6.338
 3539POPC   D2A47392  10.983   6.043   6.605
 3539POPC   C3A47393  10.764   6.000   6.993
 3539POPC   C4A47394  10.332   6.134   7.165
 3539POPC   C1B47395  10.268   5.564   6.184
 3539POPC   C2B47396  10.283   5.791   6.566
 3539POPC   C3B47397  10.365   5.666   6.966
 3539POPC   C4B47398  10.353   5.527   7.370
 3540POPC   NC347399   6.421  12.650   5.470
 3540POPC   PO447400   5.822  12.852   5.372
 3540POPC   GL147401   5.787  12.774   5.811
 3540POPC   GL247402   6.112  12.913   5.824
 3540POPC   C1A47403   5.673  12.769   6.291
 3540POPC   D2A47404   5.547  12.677   6.726
 3540POPC   C3A47405   5.759  12.872   7.085
 3540POPC   C4A47406   5.751  12.898   7.539
 3540POPC   C1B47407   6.159  12.690   6.215
 3540POPC   C2B47408   6.061  12.767   6.662
 3540POPC   C3B47409   6.067  12.460   6.998
 3540POPC   C4B47410   6.068  12.523   7.443
 3541POPC   NC347411   1.066  39.398   5.452
 3541POPC   PO447412   1.225  38.751   5.286
 3541POPC   GL147413   1.313  38.793   5.749
 3541POPC   GL247414   1.057  39.010   5.828
 3541POPC   C1A47415   1.434  39.005   6.180
 3541POPC   D2A47416   1.371  39.348   6.539
 3541POPC   C3A47417   1.282  39.230   6.975
 3541POPC   C4A47418   1.388  38.778   7.035
 3541POPC   C1B47419   1.019  39.340   6.139
 3541POPC   C2B47420   0.872  39.261   6.575
 3541POPC   C3B47421   0.903  38.897   6.840
 3541POPC   C4B47422   0.807  39.031   7.257
 3542POPC   NC347423   2.428  20.699   5.059
 3542POPC   PO447424   1.852  20.533   5.366
 3542POPC   GL147425   1.848  20.711   5.813
 3542POPC   GL247426   1.549  20.850   5.896
 3542POPC   C1A47427   2.057  20.706   6.243
 3542POPC   D2A47428   1.997  20.311   6.536
 3542POPC   C3A47429   1.925  20.353   7.002
 3542POPC   C4A47430   2.260  20.487   7.263
 3542POPC   C1B47431   1.570  20.611   6.298
 3542POPC   C2B47432   1.748  20.731   6.704
 3542POPC   C3B47433   1.849  20.859   7.139
 3542POPC   C4B47434   1.839  20.649   7.546
 3543POPC   NC347435   5.369  34.185   5.108
 3543POPC   PO447436   5.406  33.507   5.400
 3543POPC   GL147437   5.181  33.625   5.859
 3543POPC   GL247438   4.824  33.676   5.851
 3543POPC   C1A47439   5.263  33.812   6.328
 3543POPC   D2A47440   5.319  33.848   6.844
 3543POPC   C3A47441   5.174  33.564   7.222
 3543POPC   C4A47442   5.323  33.351   7.636
 3543POPC   C1B47443   4.772  33.867   6.237
 3543POPC   C2B47444   4.870  33.720   6.657
 3543POPC   C3B47445   4.783  33.900   7.030
 3543POPC   C4B47446   4.614  34.280   7.205
 3544POPC   NC347447  18.412  28.697   5.107
 3544POPC   PO447448  18.174  27.987   5.275
 3544POPC   GL147449  18.273  28.219   5.668
 3544POPC   GL247450  18.554  28.473   5.607
 3544POPC   C1A47451  18.184  28.412   6.118
 3544POPC   D2A47452  18.122  28.231   6.555
 3544POPC   C3A47453  18.104  28.350   7.010
 3544POPC   C4A47454  17.754  28.336   7.296
 3544POPC   C1B47455  18.663  28.225   5.990
 3544POPC   C2B47456  18.635  28.386   6.410
 3544POPC   C3B47457  18.594  28.383   6.843
 3544POPC   C4B47458  18.491  28.668   7.156
 3545POPC   NC347459  34.448  23.435   5.487
 3545POPC   PO447460  34.579  24.107   5.460
 3545POPC   GL147461  34.605  23.846   5.798
 3545POPC   GL247462  34.256  23.806   5.794
 3545POPC   C1A47463  34.630  23.687   6.227
 3545POPC   D2A47464  34.779  23.382   6.515
 3545POPC   C3A47465  34.639  23.449   6.917
 3545POPC   C4A47466  34.773  23.777   7.175
 3545POPC   C1B47467  34.160  23.957   6.181
 3545POPC   C2B47468  34.363  24.051   6.563
 3545POPC   C3B47469  34.281  23.897   6.949
 3545POPC   C4B47470  34.269  23.573   7.252
 3546POPC   NC347471   1.167   1.524   5.235
 3546POPC   PO447472   1.189   2.125   5.520
 3546POPC   GL147473   1.180   1.819   5.797
 3546POPC   GL247474   0.925   1.616   5.686
 3546POPC   C1A47475   1.300   1.925   6.197
 3546POPC   D2A47476   1.430   1.777   6.562
 3546POPC   C3A47477   1.242   1.994   6.867
 3546POPC   C4A47478   1.419   2.076   7.246
 3546POPC   C1B47479   0.764   1.692   6.093
 3546POPC   C2B47480   0.888   1.789   6.510
 3546POPC   C3B47481   1.023   1.528   6.842
 3546POPC   C4B47482   1.080   1.697   7.263
 3547POPC   NC347483  16.759  10.802   5.549
 3547POPC   PO447484  16.682  11.443   5.231
 3547POPC   GL147485  16.555  11.368   5.703
 3547POPC   GL247486  16.835  11.502   5.856
 3547POPC   C1A47487  16.515  11.273   6.201
 3547POPC   D2A47488  16.531  11.020   6.633
 3547POPC   C3A47489  16.601  11.276   7.024
 3547POPC   C4A47490  16.469  11.156   7.456
 3547POPC   C1B47491  17.037  11.608   6.203
 3547POPC   C2B47492  16.915  11.364   6.575
 3547POPC   C3B47493  17.080  11.191   6.949
 3547POPC   C4B47494  17.009  11.495   7.316
 3548POPC   NC347495   1.245  14.748   5.705
 3548POPC   PO447496   0.818  14.537   5.150
 3548POPC   GL147497   0.990  14.312   5.603
 3548POPC   GL247498   1.363  14.272   5.756
 3548POPC   C1A47499   0.965  14.256   6.088
 3548POPC   D2A47500   1.121  14.418   6.526
 3548POPC   C3A47501   1.199  14.270   6.957
 3548POPC   C4A47502   0.910  14.451   7.262
 3548POPC   C1B47503   1.476  14.339   6.184
 3548POPC   C2B47504   1.690  14.331   6.565
 3548POPC   C3B47505   1.695  14.485   6.962
 3548POPC   C4B47506   1.627  14.254   7.327
 3549POPC   NC347507  18.496  35.825   5.363
 3549POPC   PO447508  18.640  35.215   5.552
 3549POPC   GL147509  18.357  35.376   5.831
 3549POPC   GL247510  18.014  35.472   5.686
 3549POPC   C1A47511  18.447  35.505   6.251
 3549POPC   D2A47512  18.584  35.641   6.661
 3549POPC   C3A47513  18.412  35.615   7.078
 3549POPC   C4A47514  18.464  35.528   7.536
 3549POPC   C1B47515  17.949  35.457   6.137
 3549POPC   C2B47516  18.095  35.456   6.615
 3549POPC   C3B47517  17.971  35.366   7.055
 3549POPC   C4B47518  17.999  35.655   7.396
 3550POPC   NC347519  41.069   4.477   5.224
 3550POPC   PO447520  41.624   4.250   5.414
 3550POPC   GL147521  41.615   4.229   5.840
 3550POPC   GL247522  41.394   3.964   5.856
 3550POPC   C1A47523  41.648   4.335   6.279
 3550POPC   D2A47524  41.911   4.164   6.578
 3550POPC   C3A47525  41.855   4.265   6.989
 3550POPC   C4A47526  41.707   4.653   7.082
 3550POPC   C1B47527  41.323   3.914   6.276
 3550POPC   C2B47528  41.422   4.046   6.689
 3550POPC   C3B47529  41.345   4.295   7.038
 3550POPC   C4B47530  41.066   4.161   7.296
 3551POPC   NC347531  16.517  10.187   5.534
 3551POPC   PO447532  16.509   9.571   5.400
 3551POPC   GL147533  16.594   9.719   5.802
 3551POPC   GL247534  16.905   9.921   5.785
 3551POPC   C1A47535  16.609   9.646   6.247
 3551POPC   D2A47536  16.870   9.764   6.579
 3551POPC   C3A47537  16.672   9.866   6.927
 3551POPC   C4A47538  16.829   9.789   7.291
 3551POPC   C1B47539  16.839  10.099   6.203
 3551POPC   C2B47540  16.836  10.277   6.620
 3551POPC   C3B47541  16.999  10.233   7.053
 3551POPC   C4B47542  16.882  10.241   7.514
 3552POPC   NC347543  13.438  19.032   5.483
 3552POPC   PO447544  13.868  18.631   5.524
 3552POPC   GL147545  13.684  18.864   5.903
 3552POPC   GL247546  13.702  19.241   5.896
 3552POPC   C1A47547  13.556  18.696   6.322
 3552POPC   D2A47548  13.411  18.837   6.751
 3552POPC   C3A47549  13.652  18.696   7.139
 3552POPC   C4A47550  13.806  18.793   7.602
 3552POPC   C1B47551  13.784  19.156   6.350
 3552POPC   C2B47552  13.908  18.989   6.766
 3552POPC   C3B47553  14.001  19.071   7.213
 3552POPC   C4B47554  14.240  19.191   7.587
 3553POPC   NC347555  15.051  43.576   5.448
 3553POPC   PO447556  15.337  44.178   5.446
 3553POPC   GL147557  15.117  43.953   5.775
 3553POPC   GL247558  15.393  43.761   5.800
 3553POPC   C1A47559  14.997  43.745   6.152
 3553POPC   D2A47560  15.184  43.758   6.561
 3553POPC   C3A47561  15.063  43.557   6.913
 3553POPC   C4A47562  15.047  43.927   7.157
 3553POPC   C1B47563  15.500  43.603   6.195
 3553POPC   C2B47564  15.702  43.692   6.610
 3553POPC   C3B47565  15.541  43.759   7.019
 3553POPC   C4B47566  15.347  43.521   7.341
 3554POPC   NC347567  15.856   7.741   5.403
 3554POPC   PO447568  16.069   8.374   5.255
 3554POPC   GL147569  15.939   8.292   5.693
 3554POPC   GL247570  16.246   8.397   5.848
 3554POPC   C1A47571  15.693   8.090   6.072
 3554POPC   D2A47572  15.848   7.985   6.502
 3554POPC   C3A47573  15.677   8.059   6.923
 3554POPC   C4A47574  15.794   8.057   7.333
 3554POPC   C1B47575  16.037   8.435   6.256
 3554POPC   C2B47576  16.158   8.352   6.669
 3554POPC   C3B47577  16.161   8.324   7.091
 3554POPC   C4B47578  16.012   8.498   7.474
 3555POPC   NC347579   1.758  30.681   5.233
 3555POPC   PO447580   2.391  30.941   5.435
 3555POPC   GL147581   2.075  30.746   5.700
 3555POPC   GL247582   2.061  30.361   5.723
 3555POPC   C1A47583   2.015  30.810   6.154
 3555POPC   D2A47584   2.058  30.598   6.555
 3555POPC   C3A47585   1.910  30.864   6.899
 3555POPC   C4A47586   2.014  30.908   7.347
 3555POPC   C1B47587   1.747  30.365   6.098
 3555POPC   C2B47588   1.630  30.185   6.488
 3555POPC   C3B47589   1.698  30.398   6.855
 3555POPC   C4B47590   2.011  30.438   7.157
 3556POPC   NC347591   0.580  34.875   5.436
 3556POPC   PO447592   0.254  34.237   5.490
 3556POPC   GL147593   0.386  34.567   5.799
 3556POPC   GL247594   0.677  34.803   5.913
 3556POPC   C1A47595   0.255  34.720   6.181
 3556POPC   D2A47596   0.258  34.421   6.480
 3556POPC   C3A47597   0.186  34.590   6.839
 3556POPC   C4A47598   0.174  34.426   7.211
 3556POPC   C1B47599   0.744  34.483   6.211
 3556POPC   C2B47600   0.844  34.457   6.643
 3556POPC   C3B47601   0.660  34.377   7.040
 3556POPC   C4B47602   0.605  34.432   7.496
 3557POPC   NC347603   8.323   3.130   5.377
 3557POPC   PO447604   7.803   3.476   5.353
 3557POPC   GL147605   7.861   3.625   5.791
 3557POPC   GL247606   8.201   3.557   5.730
 3557POPC   C1A47607   7.832   3.591   6.301
 3557POPC   D2A47608   7.912   3.221   6.575
 3557POPC   C3A47609   8.065   3.385   6.941
 3557POPC   C4A47610   8.328   3.398   7.276
 3557POPC   C1B47611   8.261   3.757   6.116
 3557POPC   C2B47612   8.284   3.622   6.540
 3557POPC   C3B47613   8.500   3.710   6.920
 3557POPC   C4B47614   8.271   3.897   7.252
 3558POPC   NC347615  13.721   6.002   5.459
 3558POPC   PO447616  13.352   5.511   5.317
 3558POPC   GL147617  13.431   5.686   5.756
 3558POPC   GL247618  13.366   6.033   5.817
 3558POPC   C1A47619  13.654   5.822   6.160
 3558POPC   D2A47620  13.639   5.628   6.532
 3558POPC   C3A47621  13.564   5.761   6.920
 3558POPC   C4A47622  13.533   5.502   7.281
 3558POPC   C1B47623  13.337   6.238   6.188
 3558POPC   C2B47624  13.499   6.171   6.598
 3558POPC   C3B47625  13.612   6.263   7.030
 3558POPC   C4B47626  13.615   5.995   7.366
 3559POPC   NC347627  22.415  31.877   5.356
 3559POPC   PO447628  22.085  31.293   5.284
 3559POPC   GL147629  22.127  31.444   5.732
 3559POPC   GL247630  22.065  31.808   5.734
 3559POPC   C1A47631  22.457  31.295   6.109
 3559POPC   D2A47632  22.645  31.319   6.538
 3559POPC   C3A47633  22.389  31.243   6.874
 3559POPC   C4A47634  22.282  31.468   7.257
 3559POPC   C1B47635  22.218  31.748   6.126
 3559POPC   C2B47636  22.170  31.520   6.498
 3559POPC   C3B47637  22.026  31.670   6.875
 3559POPC   C4B47638  21.783  31.681   7.240
 3560POPC   NC347639  29.342  25.609   5.374
 3560POPC   PO447640  29.065  25.007   5.404
 3560POPC   GL147641  29.136  25.056   5.807
 3560POPC   GL247642  29.180  25.364   5.853
 3560POPC   C1A47643  29.070  25.034   6.252
 3560POPC   D2A47644  28.773  25.131   6.605
 3560POPC   C3A47645  28.952  25.049   7.027
 3560POPC   C4A47646  29.389  25.025   7.129
 3560POPC   C1B47647  29.249  25.514   6.275
 3560POPC   C2B47648  29.236  25.382   6.718
 3560POPC   C3B47649  29.227  25.476   7.159
 3560POPC   C4B47650  28.984  25.515   7.542
 3561POPC   NC347651  35.937  35.835   5.449
 3561POPC   PO447652  36.026  35.162   5.581
 3561POPC   GL147653  36.234  35.447   5.823
 3561POPC   GL247654  36.352  35.205   6.073
 3561POPC   C1A47655  35.979  35.574   6.173
 3561POPC   D2A47656  36.029  35.419   6.586
 3561POPC   C3A47657  35.880  35.596   7.002
 3561POPC   C4A47658  35.877  35.554   7.478
 3561POPC   C1B47659  36.501  35.594   6.272
 3561POPC   C2B47660  36.476  35.688   6.713
 3561POPC   C3B47661  36.354  35.345   6.964
 3561POPC   C4B47662  36.106  35.156   7.277
 3562POPC   NC347663  39.246  12.492   5.112
 3562POPC   PO447664  39.138  13.029   5.395
 3562POPC   GL147665  39.131  12.740   5.746
 3562POPC   GL247666  39.359  12.996   5.874
 3562POPC   C1A47667  39.229  12.573   6.184
 3562POPC   D2A47668  39.296  12.783   6.597
 3562POPC   C3A47669  39.499  12.671   6.982
 3562POPC   C4A47670  39.624  12.673   7.436
 3562POPC   C1B47671  39.077  13.057   6.192
 3562POPC   C2B47672  38.967  13.163   6.613
 3562POPC   C3B47673  39.115  13.054   7.016
 3562POPC   C4B47674  39.064  13.355   7.335
 3563POPC   NC347675  23.867  43.503   5.542
 3563POPC   PO447676  23.951  42.747   5.583
 3563POPC   GL147677  23.690  42.806   5.857
 3563POPC   GL247678  23.699  43.167   5.888
 3563POPC   C1A47679  23.772  42.761   6.252
 3563POPC   D2A47680  23.663  42.974   6.565
 3563POPC   C3A47681  23.730  42.790   6.919
 3563POPC   C4A47682  23.563  42.829   7.297
 3563POPC   C1B47683  23.794  43.406   6.296
 3563POPC   C2B47684  23.818  43.402   6.773
 3563POPC   C3B47685  23.691  43.377   7.202
 3563POPC   C4B47686  23.699  43.564   7.667
 3564POPC   NC347687  22.582  29.941   5.123
 3564POPC   PO447688  21.959  29.877   5.449
 3564POPC   GL147689  21.937  29.916   5.855
 3564POPC   GL247690  21.932  30.252   5.845
 3564POPC   C1A47691  21.937  29.698   6.245
 3564POPC   D2A47692  22.157  29.797   6.613
 3564POPC   C3A47693  22.105  29.694   7.022
 3564POPC   C4A47694  22.535  29.762   7.153
 3564POPC   C1B47695  22.176  30.164   6.227
 3564POPC   C2B47696  22.278  30.311   6.631
 3564POPC   C3B47697  22.245  30.191   7.055
 3564POPC   C4B47698  21.956  30.308   7.302
 3565POPC   NC347699  35.794   1.727   5.185
 3565POPC   PO447700  36.384   2.165   5.379
 3565POPC   GL147701  36.234   2.085   5.774
 3565POPC   GL247702  36.262   1.720   5.842
 3565POPC   C1A47703  36.261   2.095   6.228
 3565POPC   D2A47704  35.989   2.155   6.592
 3565POPC   C3A47705  36.005   2.265   7.031
 3565POPC   C4A47706  35.720   1.968   7.245
 3565POPC   C1B47707  36.552   1.648   6.196
 3565POPC   C2B47708  36.506   1.837   6.603
 3565POPC   C3B47709  36.309   1.862   7.001
 3565POPC   C4B47710  36.212   2.026   7.416
 3566POPC   NC347711  19.142   4.310   5.317
 3566POPC   PO447712  18.598   4.649   5.492
 3566POPC   GL147713  18.996   4.589   5.703
 3566POPC   GL247714  19.122   4.233   5.819
 3566POPC   C1A47715  19.130   4.667   6.091
 3566POPC   D2A47716  18.954   4.398   6.388
 3566POPC   C3A47717  18.984   4.471   6.813
 3566POPC   C4A47718  18.958   4.452   7.238
 3566POPC   C1B47719  18.981   3.940   6.132
 3566POPC   C2B47720  19.065   3.901   6.561
 3566POPC   C3B47721  18.880   3.958   6.961
 3566POPC   C4B47722  19.075   3.977   7.346
 3567POPC   NC347723  21.247  22.134   5.219
 3567POPC   PO447724  21.639  22.285   5.692
 3567POPC   GL147725  21.336  22.111   5.912
 3567POPC   GL247726  21.151  22.370   6.072
 3567POPC   C1A47727  21.298  21.879   6.304
 3567POPC   D2A47728  21.428  21.981   6.719
 3567POPC   C3A47729  21.151  22.161   7.042
 3567POPC   C4A47730  21.067  22.016   7.468
 3567POPC   C1B47731  21.489  22.388   6.370
 3567POPC   C2B47732  21.561  22.478   6.816
 3567POPC   C3B47733  21.595  22.317   7.251
 3567POPC   C4B47734  21.327  22.402   7.668
 3568POPC   NC347735   6.922  10.205   5.447
 3568POPC   PO447736   6.691  10.811   5.409
 3568POPC   GL147737   6.743  10.593   5.800
 3568POPC   GL247738   6.479  10.358   5.892
 3568POPC   C1A47739   6.669  10.716   6.240
 3568POPC   D2A47740   6.592  10.611   6.683
 3568POPC   C3A47741   6.416  10.314   6.936
 3568POPC   C4A47742   6.427  10.580   7.295
 3568POPC   C1B47743   6.531  10.229   6.333
 3568POPC   C2B47744   6.838  10.019   6.601
 3568POPC   C3B47745   6.850  10.005   7.053
 3568POPC   C4B47746   6.575  10.109   7.392
 3569POPC   NC347747  18.982  13.216   5.287
 3569POPC   PO447748  19.069  12.491   5.452
 3569POPC   GL147749  18.974  12.866   5.707
 3569POPC   GL247750  19.288  13.040   5.686
 3569POPC   C1A47751  18.762  12.986   6.132
 3569POPC   D2A47752  18.624  13.054   6.570
 3569POPC   C3A47753  18.957  12.883   6.841
 3569POPC   C4A47754  19.154  12.965   7.237
 3569POPC   C1B47755  19.271  12.801   6.098
 3569POPC   C2B47756  19.453  12.867   6.506
 3569POPC   C3B47757  19.411  12.641   6.882
 3569POPC   C4B47758  19.209  12.349   7.121
 3570POPC   NC347759  16.729   5.487   5.178
 3570POPC   PO447760  16.747   6.205   5.202
 3570POPC   GL147761  16.862   5.954   5.610
 3570POPC   GL247762  16.562   5.840   5.798
 3570POPC   C1A47763  16.927   6.004   6.095
 3570POPC   D2A47764  16.698   5.896   6.478
 3570POPC   C3A47765  16.748   5.798   6.918
 3570POPC   C4A47766  16.911   6.013   7.264
 3570POPC   C1B47767  16.369   5.661   6.163
 3570POPC   C2B47768  16.347   5.546   6.618
 3570POPC   C3B47769  16.294   5.561   7.061
 3570POPC   C4B47770  16.463   5.455   7.484
 3571POPC   NC347771  16.244  17.567   5.554
 3571POPC   PO447772  15.634  17.693   5.422
 3571POPC   GL147773  15.786  17.427   5.796
 3571POPC   GL247774  15.598  17.135   5.817
 3571POPC   C1A47775  16.002  17.317   6.216
 3571POPC   D2A47776  16.238  17.271   6.641
 3571POPC   C3A47777  16.088  17.503   7.035
 3571POPC   C4A47778  16.072  17.628   7.487
 3571POPC   C1B47779  15.485  17.235   6.279
 3571POPC   C2B47780  15.578  17.376   6.753
 3571POPC   C3B47781  15.515  17.629   7.153
 3571POPC   C4B47782  15.586  17.642   7.614
 3572POPC   NC347783   4.664  20.895   5.411
 3572POPC   PO447784   5.217  20.398   5.310
 3572POPC   GL147785   5.220  20.581   5.739
 3572POPC   GL247786   4.875  20.584   5.776
 3572POPC   C1A47787   5.141  20.549   6.225
 3572POPC   D2A47788   5.269  20.530   6.680
 3572POPC   C3A47789   5.339  20.651   7.111
 3572POPC   C4A47790   5.539  20.504   7.454
 3572POPC   C1B47791   4.626  20.462   6.146
 3572POPC   C2B47792   4.777  20.400   6.573
 3572POPC   C3B47793   4.876  20.394   6.991
 3572POPC   C4B47794   4.866  20.690   7.291
 3573POPC   NC347795   3.725  44.279   5.410
 3573POPC   PO447796   3.365  43.720   5.291
 3573POPC   GL147797   3.293  43.704   5.719
 3573POPC   GL247798   3.428  44.027   5.736
 3573POPC   C1A47799   3.513  43.711   6.147
 3573POPC   D2A47800   3.621  43.873   6.586
 3573POPC   C3A47801   3.694  43.579   6.947
 3573POPC   C4A47802   3.642  43.753   7.340
 3573POPC   C1B47803   3.612  44.238   6.082
 3573POPC   C2B47804   3.514  44.363   6.468
 3573POPC   C3B47805   3.587  44.428   6.883
 3573POPC   C4B47806   3.494  44.249   7.306
 3574POPC   NC347807  25.675  36.465   5.330
 3574POPC   PO447808  25.156  35.892   5.339
 3574POPC   GL147809  25.080  36.121   5.689
 3574POPC   GL247810  25.397  36.271   5.709
 3574POPC   C1A47811  25.088  36.286   6.124
 3574POPC   D2A47812  25.104  36.609   6.431
 3574POPC   C3A47813  25.103  36.415   6.843
 3574POPC   C4A47814  24.857  36.165   7.141
 3574POPC   C1B47815  25.608  36.295   6.120
 3574POPC   C2B47816  25.540  36.386   6.555
 3574POPC   C3B47817  25.617  36.397   6.979
 3574POPC   C4B47818  25.373  36.146   7.200
 3575POPC   NC347819  34.119  38.999   5.142
 3575POPC   PO447820  34.649  39.394   5.398
 3575POPC   GL147821  34.518  39.194   5.754
 3575POPC   GL247822  34.207  39.358   5.786
 3575POPC   C1A47823  34.500  39.023   6.167
 3575POPC   D2A47824  34.658  38.996   6.573
 3575POPC   C3A47825  34.442  39.039   6.949
 3575POPC   C4A47826  34.525  38.885   7.360
 3575POPC   C1B47827  34.337  39.485   6.209
 3575POPC   C2B47828  34.527  39.513   6.597
 3575POPC   C3B47829  34.416  39.547   7.008
 3575POPC   C4B47830  34.240  39.296   7.348
 3576POPC   NC347831   5.400  35.727   5.355
 3576POPC   PO447832   4.816  35.353   5.552
 3576POPC   GL147833   4.971  35.121   5.861
 3576POPC   GL247834   5.274  35.331   5.901
 3576POPC   C1A47835   5.102  35.010   6.279
 3576POPC   D2A47836   5.282  35.236   6.603
 3576POPC   C3A47837   5.101  35.107   7.016
 3576POPC   C4A47838   4.998  35.134   7.475
 3576POPC   C1B47839   4.966  35.502   6.250
 3576POPC   C2B47840   4.814  35.446   6.716
 3576POPC   C3B47841   4.787  35.515   7.186
 3576POPC   C4B47842   4.750  35.758   7.595
 3577POPC   NC347843  29.967  38.064   5.026
 3577POPC   PO447844  29.570  38.418   5.478
 3577POPC   GL147845  29.768  38.410   5.860
 3577POPC   GL247846  30.088  38.529   5.751
 3577POPC   C1A47847  29.795  38.313   6.294
 3577POPC   D2A47848  29.687  38.541   6.654
 3577POPC   C3A47849  29.741  38.297   7.000
 3577POPC   C4A47850  29.777  38.395   7.449
 3577POPC   C1B47851  30.198  38.633   6.176
 3577POPC   C2B47852  30.190  38.633   6.641
 3577POPC   C3B47853  30.173  38.554   7.097
 3577POPC   C4B47854  30.317  38.617   7.519
 3578POPC   NC347855  27.540  17.843   5.366
 3578POPC   PO447856  27.220  18.428   5.350
 3578POPC   GL147857  27.426  18.232   5.726
 3578POPC   GL247858  27.352  17.875   5.834
 3578POPC   C1A47859  27.356  18.226   6.181
 3578POPC   D2A47860  27.583  18.257   6.550
 3578POPC   C3A47861  27.528  18.513   6.937
 3578POPC   C4A47862  27.259  18.366   7.301
 3578POPC   C1B47863  27.536  17.721   6.242
 3578POPC   C2B47864  27.414  17.788   6.689
 3578POPC   C3B47865  27.643  18.042   7.014
 3578POPC   C4B47866  27.616  18.044   7.471
 3579POPC   NC347867  38.262  27.523   5.426
 3579POPC   PO447868  38.983  27.477   5.402
 3579POPC   GL147869  38.677  27.628   5.706
 3579POPC   GL247870  38.710  27.342   5.894
 3579POPC   C1A47871  38.448  27.728   6.112
 3579POPC   D2A47872  38.592  27.889   6.531
 3579POPC   C3A47873  38.446  27.698   6.928
 3579POPC   C4A47874  38.247  27.913   7.285
 3579POPC   C1B47875  38.840  27.480   6.328
 3579POPC   C2B47876  38.984  27.604   6.748
 3579POPC   C3B47877  38.869  27.532   7.154
 3579POPC   C4B47878  38.565  27.230   7.227
 3580POPC   NC347879   3.144  42.198   5.519
 3580POPC   PO447880   2.734  42.530   5.157
 3580POPC   GL147881   2.630  42.402   5.646
 3580POPC   GL247882   2.816  42.166   5.891
 3580POPC   C1A47883   2.482  42.438   6.124
 3580POPC   D2A47884   2.684  42.223   6.459
 3580POPC   C3A47885   2.665  42.315   6.898
 3580POPC   C4A47886   2.810  42.423   7.299
 3580POPC   C1B47887   2.607  41.838   6.129
 3580POPC   C2B47888   2.628  41.709   6.563
 3580POPC   C3B47889   2.547  41.825   7.008
 3580POPC   C4B47890   2.652  41.929   7.450
 3581POPC   NC347891  36.094  10.288   5.362
 3581POPC   PO447892  36.009  10.902   5.286
 3581POPC   GL147893  36.069  10.698   5.711
 3581POPC   GL247894  36.219  10.374   5.829
 3581POPC   C1A47895  35.945  10.624   6.157
 3581POPC   D2A47896  35.931  10.364   6.530
 3581POPC   C3A47897  36.032  10.511   6.957
 3581POPC   C4A47898  36.081  10.368   7.368
 3581POPC   C1B47899  36.429  10.384   6.230
 3581POPC   C2B47900  36.442  10.289   6.671
 3581POPC   C3B47901  36.473  10.207   7.099
 3581POPC   C4B47902  36.582  10.467   7.480
 3582POPC   NC347903  17.825   3.615   5.285
 3582POPC   PO447904  17.211   3.509   5.576
 3582POPC   GL147905  17.576   3.672   5.751
 3582POPC   GL247906  17.850   3.398   5.741
 3582POPC   C1A47907  17.470   3.840   6.163
 3582POPC   D2A47908  17.375   3.615   6.567
 3582POPC   C3A47909  17.309   3.874   6.946
 3582POPC   C4A47910  17.350   3.760   7.379
 3582POPC   C1B47911  17.674   3.354   6.169
 3582POPC   C2B47912  17.862   3.310   6.570
 3582POPC   C3B47913  17.733   3.191   6.978
 3582POPC   C4B47914  17.361   3.370   7.043
 3583POPC   NC347915  44.495  31.809   5.273
 3583POPC   PO447916  44.327  31.221   5.623
 3583POPC   GL147917  44.682  31.465   5.716
 3583POPC   GL247918  44.656  31.802   5.840
 3583POPC   C1A47919  44.836  31.341   6.116
 3583POPC   D2A47920   0.042  31.228   6.507
 3583POPC   C3A47921  44.756  31.258   6.825
 3583POPC   C4A47922  44.548  31.483   7.138
 3583POPC   C1B47923  44.439  31.642   6.253
 3583POPC   C2B47924  44.349  31.656   6.694
 3583POPC   C3B47925  44.131  31.753   7.098
 3583POPC   C4B47926  44.190  31.644   7.559
 3584POPC   NC347927  34.145  38.854   5.641
 3584POPC   PO447928  33.944  39.400   5.315
 3584POPC   GL147929  33.735  39.151   5.689
 3584POPC   GL247930  33.436  38.911   5.661
 3584POPC   C1A47931  33.917  39.125   6.155
 3584POPC   D2A47932  34.149  39.113   6.534
 3584POPC   C3A47933  33.933  39.102   6.936
 3584POPC   C4A47934  33.789  38.863   7.280
 3584POPC   C1B47935  33.416  39.037   6.096
 3584POPC   C2B47936  33.573  39.020   6.529
 3584POPC   C3B47937  33.411  39.125   6.927
 3584POPC   C4B47938  33.284  38.907   7.275
 3585POPC   NC347939  31.554  29.567   5.641
 3585POPC   PO447940  31.221  30.140   5.509
 3585POPC   GL147941  31.092  30.051   5.947
 3585POPC   GL247942  31.370  29.809   6.064
 3585POPC   C1A47943  31.183  30.114   6.421
 3585POPC   D2A47944  31.502  29.848   6.662
 3585POPC   C3A47945  31.622  30.006   7.031
 3585POPC   C4A47946  31.488  30.161   7.406
 3585POPC   C1B47947  31.791  29.684   6.259
 3585POPC   C2B47948  31.969  29.487   6.630
 3585POPC   C3B47949  31.893  29.580   7.067
 3585POPC   C4B47950  31.713  29.697   7.444
 3586POPC   NC347951  43.640   5.783   5.278
 3586POPC   PO447952  44.347   5.739   5.294
 3586POPC   GL147953  44.218   5.711   5.738
 3586POPC   GL247954  43.842   5.645   5.734
 3586POPC   C1A47955  44.337   5.826   6.202
 3586POPC   D2A47956  44.400   5.733   6.665
 3586POPC   C3A47957  44.050   5.652   6.983
 3586POPC   C4A47958  44.109   5.866   7.410
 3586POPC   C1B47959  43.799   5.802   6.164
 3586POPC   C2B47960  43.859   5.929   6.605
 3586POPC   C3B47961  43.742   6.049   7.048
 3586POPC   C4B47962  43.607   5.995   7.480
 3587POPC   NC347963   7.760   1.381   5.559
 3587POPC   PO447964   7.147   1.065   5.360
 3587POPC   GL147965   7.383   1.103   5.751
 3587POPC   GL247966   7.124   0.996   5.901
 3587POPC   C1A47967   7.452   1.313   6.194
 3587POPC   D2A47968   7.488   1.149   6.649
 3587POPC   C3A47969   7.548   1.383   7.034
 3587POPC   C4A47970   7.263   1.711   7.182
 3587POPC   C1B47971   7.161   0.915   6.304
 3587POPC   C2B47972   7.004   1.235   6.516
 3587POPC   C3B47973   7.066   1.383   6.855
 3587POPC   C4B47974   7.134   1.146   7.218
 3588POPC   NC347975   0.575   3.092   5.185
 3588POPC   PO447976   0.431   2.512   4.996
 3588POPC   GL147977   0.353   2.750   5.500
 3588POPC   GL247978   0.636   2.950   5.687
 3588POPC   C1A47979   0.251   2.832   6.010
 3588POPC   D2A47980   0.403   2.698   6.461
 3588POPC   C3A47981   0.304   2.802   6.906
 3588POPC   C4A47982   0.380   2.695   7.342
 3588POPC   C1B47983   0.767   2.909   6.135
 3588POPC   C2B47984   0.878   2.897   6.580
 3588POPC   C3B47985   0.797   2.794   7.007
 3588POPC   C4B47986   0.743   3.034   7.388
 3589POPC   NC347987   8.703  27.604   5.267
 3589POPC   PO447988   9.201  27.368   5.452
 3589POPC   GL147989   8.977  27.657   5.721
 3589POPC   GL247990   9.097  28.004   5.732
 3589POPC   C1A47991   8.800  27.647   6.151
 3589POPC   D2A47992   8.975  27.755   6.564
 3589POPC   C3A47993   8.826  27.636   6.996
 3589POPC   C4A47994   8.849  27.414   7.410
 3589POPC   C1B47995   9.291  27.799   6.128
 3589POPC   C2B47996   9.469  27.638   6.518
 3589POPC   C3B47997   9.323  27.812   6.935
 3589POPC   C4B47998   9.137  27.828   7.356
 3590POPC   NC347999  35.382  18.486   5.251
 3590POPC   PO448000  35.681  17.883   5.313
 3590POPC   GL148001  35.483  18.116   5.615
 3590POPC   GL248002  35.155  18.050   5.757
 3590POPC   C1A48003  35.597  18.252   6.021
 3590POPC   D2A48004  35.585  18.159   6.451
 3590POPC   C3A48005  35.616  18.234   6.861
 3590POPC   C4A48006  35.629  18.225   7.294
 3590POPC   C1B48007  35.120  18.194   6.216
 3590POPC   C2B48008  35.089  18.330   6.669
 3590POPC   C3B48009  35.173  18.166   7.084
 3590POPC   C4B48010  35.168  18.236   7.541
 3591POPC   NC348011   3.417  22.267   5.536
 3591POPC   PO448012   3.958  21.833   5.523
 3591POPC   GL148013   3.592  21.841   5.807
 3591POPC   GL248014   3.233  21.783   5.779
 3591POPC   C1A48015   3.470  22.023   6.205
 3591POPC   D2A48016   3.474  21.867   6.633
 3591POPC   C3A48017   3.626  22.073   7.020
 3591POPC   C4A48018   3.730  22.049   7.467
 3591POPC   C1B48019   3.036  21.750   6.179
 3591POPC   C2B48020   2.937  21.963   6.552
 3591POPC   C3B48021   3.099  21.991   6.968
 3591POPC   C4B48022   3.238  22.129   7.365
 3592POPC   NC348023  13.445  17.416   5.416
 3592POPC   PO448024  13.996  17.788   5.469
 3592POPC   GL148025  13.753  17.651   5.787
 3592POPC   GL248026  13.865  17.319   5.715
 3592POPC   C1A48027  13.473  17.638   6.161
 3592POPC   D2A48028  13.342  17.431   6.552
 3592POPC   C3A48029  13.398  17.640   6.948
 3592POPC   C4A48030  13.585  17.728   7.400
 3592POPC   C1B48031  13.867  17.265   6.110
 3592POPC   C2B48032  13.883  17.401   6.488
 3592POPC   C3B48033  13.936  17.219   6.841
 3592POPC   C4B48034  13.687  17.284   7.179
 3593POPC   NC348035  30.143  17.822   5.318
 3593POPC   PO448036  29.548  18.106   5.309
 3593POPC   GL148037  29.908  18.189   5.609
 3593POPC   GL248038  30.032  18.535   5.642
 3593POPC   C1A48039  29.929  18.122   6.071
 3593POPC   D2A48040  29.761  18.365   6.428
 3593POPC   C3A48041  29.780  18.257   6.874
 3593POPC   C4A48042  29.577  18.214   7.283
 3593POPC   C1B48043  30.005  18.651   6.074
 3593POPC   C2B48044  30.153  18.665   6.515
 3593POPC   C3B48045  30.054  18.739   6.939
 3593POPC   C4B48046  30.009  18.480   7.295
 3594POPC   NC348047  31.824  25.846   5.593
 3594POPC   PO448048  32.591  25.668   5.621
 3594POPC   GL148049  32.349  25.891   5.905
 3594POPC   GL248050  32.156  26.168   5.842
 3594POPC   C1A48051  32.374  25.975   6.314
 3594POPC   D2A48052  32.406  25.778   6.668
 3594POPC   C3A48053  32.321  26.049   7.002
 3594POPC   C4A48054  32.377  25.889   7.367
 3594POPC   C1B48055  31.897  26.124   6.207
 3594POPC   C2B48056  31.961  26.009   6.630
 3594POPC   C3B48057  31.837  26.255   6.979
 3594POPC   C4B48058  31.948  26.222   7.390
 3595POPC   NC348059  18.724  38.584   5.449
 3595POPC   PO448060  19.379  38.530   5.378
 3595POPC   GL148061  19.278  38.341   5.759
 3595POPC   GL248062  18.915  38.267   5.819
 3595POPC   C1A48063  19.250  38.419   6.188
 3595POPC   D2A48064  18.963  38.415   6.524
 3595POPC   C3A48065  19.137  38.354   6.887
 3595POPC   C4A48066  19.142  38.568   7.251
 3595POPC   C1B48067  18.814  38.665   6.092
 3595POPC   C2B48068  18.653  38.814   6.514
 3595POPC   C3B48069  18.720  38.660   6.938
 3595POPC   C4B48070  18.780  38.915   7.291
 3596POPC   NC348071  37.108  23.931   5.599
 3596POPC   PO448072  36.617  23.537   5.449
 3596POPC   GL148073  36.843  23.508   5.820
 3596POPC   GL248074  36.641  23.830   5.879
 3596POPC   C1A48075  37.152  23.627   6.169
 3596POPC   D2A48076  37.053  23.899   6.538
 3596POPC   C3A48077  37.106  23.705   6.950
 3596POPC   C4A48078  37.099  23.875   7.377
 3596POPC   C1B48079  36.655  23.645   6.287
 3596POPC   C2B48080  36.703  23.518   6.696
 3596POPC   C3B48081  36.628  23.589   7.151
 3596POPC   C4B48082  36.680  23.707   7.615
 3597POPC   NC348083   5.427  40.834   5.308
 3597POPC   PO448084   5.963  40.533   5.533
 3597POPC   GL148085   5.971  40.834   5.874
 3597POPC   GL248086   5.587  40.861   5.825
 3597POPC   C1A48087   6.252  41.090   6.188
 3597POPC   D2A48088   6.346  41.236   6.636
 3597POPC   C3A48089   6.339  40.860   6.961
 3597POPC   C4A48090   6.151  40.441   7.171
 3597POPC   C1B48091   5.646  40.528   6.180
 3597POPC   C2B48092   5.525  40.615   6.625
 3597POPC   C3B48093   5.446  41.018   6.870
 3597POPC   C4B48094   5.637  41.085   7.225
 3598POPC   NC348095   9.883  11.612   5.490
 3598POPC   PO448096   9.698  12.296   5.258
 3598POPC   GL148097   9.646  12.362   5.677
 3598POPC   GL248098   9.652  12.005   5.759
 3598POPC   C1A48099   9.679  12.366   6.117
 3598POPC   D2A48100   9.763  12.140   6.485
 3598POPC   C3A48101   9.740  12.315   6.900
 3598POPC   C4A48102  10.030  12.087   7.130
 3598POPC   C1B48103   9.328  11.970   6.086
 3598POPC   C2B48104   9.278  12.002   6.540
 3598POPC   C3B48105   9.447  11.910   6.954
 3598POPC   C4B48106   9.449  12.158   7.340
 3599POPC   NC348107  42.136  27.886   5.415
 3599POPC   PO448108  42.608  27.346   5.487
 3599POPC   GL148109  42.435  27.486   5.901
 3599POPC   GL248110  42.339  27.851   5.870
 3599POPC   C1A48111  42.184  27.484   6.296
 3599POPC   D2A48112  41.871  27.327   6.627
 3599POPC   C3A48113  42.062  27.438   7.011
 3599POPC   C4A48114  42.506  27.369   7.084
 3599POPC   C1B48115  42.146  28.007   6.185
 3599POPC   C2B48116  42.338  27.921   6.558
 3599POPC   C3B48117  42.364  27.850   6.951
 3599POPC   C4B48118  42.017  27.878   7.268
 3600POPC   NC348119  22.750  39.779   5.384
 3600POPC   PO448120  23.240  40.206   5.432
 3600POPC   GL148121  22.995  40.257   5.780
 3600POPC   GL248122  22.642  40.183   5.701
 3600POPC   C1A48123  23.140  40.232   6.191
 3600POPC   D2A48124  23.154  39.901   6.495
 3600POPC   C3A48125  23.305  40.017   6.895
 3600POPC   C4A48126  23.099  39.870   7.256
 3600POPC   C1B48127  22.696  39.964   6.085
 3600POPC   C2B48128  22.678  40.103   6.493
 3600POPC   C3B48129  22.783  40.110   6.905
 3600POPC   C4B48130  23.007  40.401   7.136
 3601POPC   NC348131   0.029  22.028   5.619
 3601POPC   PO448132  44.536  22.500   5.420
 3601POPC   GL148133  44.840  22.460   5.803
 3601POPC   GL248134  44.754  22.185   6.028
 3601POPC   C1A48135   0.009  22.559   6.249
 3601POPC   D2A48136  44.809  22.660   6.660
 3601POPC   C3A48137  44.877  22.578   7.117
 3601POPC   C4A48138  44.795  22.378   7.548
 3601POPC   C1B48139  44.972  21.956   6.348
 3601POPC   C2B48140  44.979  22.124   6.775
 3601POPC   C3B48141  44.678  22.081   7.126
 3601POPC   C4B48142  44.464  21.689   7.199
 3602POPC   NC348143   8.790  35.999   5.371
 3602POPC   PO448144   9.150  36.442   5.448
 3602POPC   GL148145   8.877  36.299   5.799
 3602POPC   GL248146   8.559  36.435   5.810
 3602POPC   C1A48147   8.814  36.234   6.265
 3602POPC   D2A48148   9.028  36.323   6.674
 3602POPC   C3A48149   8.894  36.119   7.056
 3602POPC   C4A48150   9.018  35.911   7.453
 3602POPC   C1B48151   8.575  36.675   6.221
 3602POPC   C2B48152   8.565  36.544   6.670
 3602POPC   C3B48153   8.679  36.576   7.118
 3602POPC   C4B48154   8.676  36.297   7.509
 3603POPC   NC348155  42.210  32.599   5.406
 3603POPC   PO448156  42.407  31.972   5.276
 3603POPC   GL148157  42.180  32.022   5.682
 3603POPC   GL248158  41.858  32.166   5.577
 3603POPC   C1A48159  42.297  32.197   6.137
 3603POPC   D2A48160  42.534  32.028   6.506
 3603POPC   C3A48161  42.424  32.171   6.903
 3603POPC   C4A48162  42.101  32.395   7.053
 3603POPC   C1B48163  41.805  32.113   6.026
 3603POPC   C2B48164  41.914  31.957   6.432
 3603POPC   C3B48165  41.926  31.957   6.869
 3603POPC   C4B48166  42.164  31.862   7.245
 3604POPC   NC348167  18.733  14.950   5.430
 3604POPC   PO448168  18.171  15.209   5.172
 3604POPC   GL148169  18.241  15.281   5.635
 3604POPC   GL248170  18.584  15.352   5.729
 3604POPC   C1A48171  18.118  15.201   6.088
 3604POPC   D2A48172  18.289  14.955   6.458
 3604POPC   C3A48173  18.114  14.865   6.884
 3604POPC   C4A48174  18.249  15.003   7.308
 3604POPC   C1B48175  18.622  15.150   6.105
 3604POPC   C2B48176  18.628  15.328   6.503
 3604POPC   C3B48177  18.470  15.243   6.891
 3604POPC   C4B48178  18.555  15.423   7.282
 3605POPC   NC348179  38.225   0.919   5.360
 3605POPC   PO448180  38.669   1.431   5.405
 3605POPC   GL148181  38.643   1.244   5.802
 3605POPC   GL248182  38.333   1.068   5.823
 3605POPC   C1A48183  38.512   1.301   6.243
 3605POPC   D2A48184  38.678   1.265   6.638
 3605POPC   C3A48185  38.448   1.238   6.994
 3605POPC   C4A48186  38.540   1.390   7.371
 3605POPC   C1B48187  38.254   0.834   6.182
 3605POPC   C2B48188  38.253   0.932   6.608
 3605POPC   C3B48189  38.146   0.775   7.012
 3605POPC   C4B48190  38.259   0.896   7.422
 3606POPC   NC348191  44.858  33.975   5.444
 3606POPC   PO448192  44.404  33.415   5.595
 3606POPC   GL148193  44.512  33.801   5.803
 3606POPC   GL248194  44.230  34.061   5.732
 3606POPC   C1A48195  44.822  33.887   6.137
 3606POPC   D2A48196   0.071  33.864   6.494
 3606POPC   C3A48197  44.864  33.822   6.854
 3606POPC   C4A48198  44.838  34.058   7.216
 3606POPC   C1B48199  44.385  34.163   6.147
 3606POPC   C2B48200  44.457  33.890   6.512
 3606POPC   C3B48201  44.399  33.993   6.939
 3606POPC   C4B48202  44.503  33.693   7.255
 3607POPC   NC348203  10.465  23.552   5.129
 3607POPC   PO448204  10.143  23.669   5.683
 3607POPC   GL148205  10.548  23.713   5.850
 3607POPC   GL248206  10.722  23.412   5.960
 3607POPC   C1A48207  10.468  23.876   6.257
 3607POPC   D2A48208  10.250  23.658   6.620
 3607POPC   C3A48209  10.398  23.711   7.022
 3607POPC   C4A48210  10.656  24.033   7.084
 3607POPC   C1B48211  10.464  23.357   6.261
 3607POPC   C2B48212  10.677  23.361   6.637
 3607POPC   C3B48213  10.653  23.268   7.052
 3607POPC   C4B48214  10.885  23.563   7.305
 3608POPC   NC348215  33.653  42.004   5.543
 3608POPC   PO448216  34.014  42.584   5.534
 3608POPC   GL148217  33.840  42.620   5.950
 3608POPC   GL248218  33.535  42.429   5.892
 3608POPC   C1A48219  33.766  42.531   6.413
 3608POPC   D2A48220  34.020  42.241   6.689
 3608POPC   C3A48221  33.854  42.053   7.078
 3608POPC   C4A48222  33.989  42.062   7.512
 3608POPC   C1B48223  33.424  42.139   6.218
 3608POPC   C2B48224  33.306  42.279   6.620
 3608POPC   C3B48225  33.563  42.463   6.950
 3608POPC   C4B48226  33.609  42.372   7.416
 3609POPC   NC348227  20.479  12.325   5.418
 3609POPC   PO448228  20.426  13.081   5.483
 3609POPC   GL148229  20.626  12.885   5.875
 3609POPC   GL248230  20.719  12.541   5.855
 3609POPC   C1A48231  20.509  12.675   6.307
 3609POPC   D2A48232  20.425  12.586   6.769
 3609POPC   C3A48233  20.622  12.823   7.128
 3609POPC   C4A48234  20.747  13.274   7.097
 3609POPC   C1B48235  21.014  12.599   6.253
 3609POPC   C2B48236  20.989  12.684   6.728
 3609POPC   C3B48237  21.066  12.604   7.191
 3609POPC   C4B48238  20.905  12.676   7.637
 3610POPC   NC348239  27.216  26.912   5.460
 3610POPC   PO448240  26.571  26.696   5.377
 3610POPC   GL148241  26.810  26.734   5.740
 3610POPC   GL248242  26.600  27.005   5.843
 3610POPC   C1A48243  26.885  26.736   6.183
 3610POPC   D2A48244  26.739  26.926   6.538
 3610POPC   C3A48245  26.890  26.728   6.867
 3610POPC   C4A48246  26.880  26.543   7.253
 3610POPC   C1B48247  26.721  27.270   6.172
 3610POPC   C2B48248  26.669  27.453   6.553
 3610POPC   C3B48249  26.515  27.219   6.895
 3610POPC   C4B48250  26.765  27.047   7.244
 3611POPC   NC348251  22.531   5.228   5.221
 3611POPC   PO448252  23.061   4.828   5.370
 3611POPC   GL148253  22.777   5.065   5.667
 3611POPC   GL248254  22.906   5.362   5.866
 3611POPC   C1A48255  22.624   5.000   6.090
 3611POPC   D2A48256  22.514   5.129   6.532
 3611POPC   C3A48257  22.777   5.184   6.914
 3611POPC   C4A48258  23.087   4.895   7.091
 3611POPC   C1B48259  22.953   5.328   6.309
 3611POPC   C2B48260  23.213   5.190   6.647
 3611POPC   C3B48261  23.271   5.401   7.021
 3611POPC   C4B48262  23.179   5.278   7.427
 3612POPC   NC348263  27.693  28.806   5.479
 3612POPC   PO448264  27.287  28.236   5.438
 3612POPC   GL148265  27.386  28.544   5.808
 3612POPC   GL248266  27.743  28.634   5.930
 3612POPC   C1A48267  27.334  28.537   6.261
 3612POPC   D2A48268  27.322  28.242   6.635
 3612POPC   C3A48269  27.407  28.415   7.032
 3612POPC   C4A48270  27.126  28.684   7.217
 3612POPC   C1B48271  27.875  28.501   6.290
 3612POPC   C2B48272  27.800  28.525   6.689
 3612POPC   C3B48273  27.970  28.741   6.991
 3612POPC   C4B48274  27.934  28.592   7.394
 3613POPC   NC348275  12.163  12.681   5.590
 3613POPC   PO448276  11.830  13.321   5.514
 3613POPC   GL148277  11.844  13.068   5.892
 3613POPC   GL248278  12.193  13.022   5.965
 3613POPC   C1A48279  11.829  12.739   6.219
 3613POPC   D2A48280  12.041  12.700   6.623
 3613POPC   C3A48281  11.838  12.709   7.030
 3613POPC   C4A48282  12.001  12.959   7.417
 3613POPC   C1B48283  12.404  12.732   6.233
 3613POPC   C2B48284  12.541  12.867   6.620
 3613POPC   C3B48285  12.305  12.911   7.009
 3613POPC   C4B48286  12.257  12.545   7.292
 3614POPC   NC348287  14.293   7.777   5.417
 3614POPC   PO448288  14.589   8.413   5.349
 3614POPC   GL148289  14.323   8.261   5.706
 3614POPC   GL248290  14.327   8.600   5.863
 3614POPC   C1A48291  14.125   8.178   6.116
 3614POPC   D2A48292  14.027   8.292   6.561
 3614POPC   C3A48293  14.312   8.127   6.893
 3614POPC   C4A48294  14.226   8.003   7.332
 3614POPC   C1B48295  14.510   8.518   6.268
 3614POPC   C2B48296  14.779   8.349   6.602
 3614POPC   C3B48297  14.749   8.389   7.055
 3614POPC   C4B48298  14.353   8.497   7.254
 3615POPC   NC348299  38.979  20.352   4.974
 3615POPC   PO448300  38.556  20.018   5.195
 3615POPC   GL148301  38.569  19.895   5.700
 3615POPC   GL248302  38.404  19.580   5.838
 3615POPC   C1A48303  38.593  19.904   6.208
 3615POPC   D2A48304  38.297  19.952   6.587
 3615POPC   C3A48305  38.402  19.895   7.037
 3615POPC   C4A48306  38.184  19.867   7.430
 3615POPC   C1B48307  38.181  19.565   6.254
 3615POPC   C2B48308  38.119  19.465   6.698
 3615POPC   C3B48309  38.143  19.384   7.157
 3615POPC   C4B48310  38.268  19.366   7.598
 3616POPC   NC348311   1.120   6.362   5.317
 3616POPC   PO448312   1.456   6.941   5.272
 3616POPC   GL148313   1.355   6.616   5.689
 3616POPC   GL248314   1.057   6.498   5.840
 3616POPC   C1A48315   1.453   6.466   6.147
 3616POPC   D2A48316   1.274   6.330   6.550
 3616POPC   C3A48317   1.280   6.612   6.896
 3616POPC   C4A48318   1.467   6.725   7.290
 3616POPC   C1B48319   0.945   6.590   6.243
 3616POPC   C2B48320   0.871   6.788   6.644
 3616POPC   C3B48321   1.014   7.048   7.004
 3616POPC   C4B48322   0.958   7.105   7.445
 3617POPC   NC348323  42.430  17.236   5.644
 3617POPC   PO448324  42.704  17.841   5.270
 3617POPC   GL148325  42.674  17.683   5.712
 3617POPC   GL248326  42.471  17.943   5.863
 3617POPC   C1A48327  42.605  17.569   6.190
 3617POPC   D2A48328  42.232  17.551   6.486
 3617POPC   C3A48329  42.269  17.461   6.955
 3617POPC   C4A48330  42.453  17.083   7.199
 3617POPC   C1B48331  42.391  18.033   6.329
 3617POPC   C2B48332  42.341  17.955   6.786
 3617POPC   C3B48333  42.257  17.955   7.238
 3617POPC   C4B48334  42.277  17.930   7.694
 3618POPC   NC348335   7.921   2.323   5.277
 3618POPC   PO448336   8.012   1.653   5.275
 3618POPC   GL148337   7.954   1.822   5.728
 3618POPC   GL248338   7.784   2.141   5.781
 3618POPC   C1A48339   8.020   1.902   6.202
 3618POPC   D2A48340   8.222   1.802   6.613
 3618POPC   C3A48341   8.360   1.824   7.030
 3618POPC   C4A48342   8.057   1.760   7.326
 3618POPC   C1B48343   7.707   2.334   6.193
 3618POPC   C2B48344   7.911   2.246   6.596
 3618POPC   C3B48345   8.059   2.263   7.018
 3618POPC   C4B48346   7.852   2.525   7.314
 3619POPC   NC348347  26.425  36.577   5.371
 3619POPC   PO448348  25.913  36.872   5.276
 3619POPC   GL148349  25.832  36.758   5.719
 3619POPC   GL248350  25.790  37.077   5.841
 3619POPC   C1A48351  26.153  36.732   6.073
 3619POPC   D2A48352  26.413  36.784   6.479
 3619POPC   C3A48353  26.146  36.759   6.892
 3619POPC   C4A48354  25.806  36.800   7.221
 3619POPC   C1B48355  26.017  37.220   6.199
 3619POPC   C2B48356  26.153  37.198   6.620
 3619POPC   C3B48357  26.034  37.253   7.026
 3619POPC   C4B48358  25.625  37.276   7.132
 3620POPC   NC348359   7.434  37.134   5.234
 3620POPC   PO448360   6.947  36.650   5.380
 3620POPC   GL148361   7.207  36.700   5.778
 3620POPC   GL248362   7.569  36.622   5.849
 3620POPC   C1A48363   7.341  37.037   6.082
 3620POPC   D2A48364   7.651  37.067   6.439
 3620POPC   C3A48365   7.464  37.243   6.824
 3620POPC   C4A48366   7.382  37.302   7.246
 3620POPC   C1B48367   7.432  36.594   6.300
 3620POPC   C2B48368   7.354  36.771   6.711
 3620POPC   C3B48369   7.295  36.764   7.131
 3620POPC   C4B48370   7.280  36.450   7.424
 3621POPC   NC348371  23.228  31.661   5.140
 3621POPC   PO448372  23.168  31.063   5.419
 3621POPC   GL148373  22.936  31.230   5.791
 3621POPC   GL248374  22.629  31.370   5.627
 3621POPC   C1A48375  23.015  31.408   6.206
 3621POPC   D2A48376  23.120  31.694   6.555
 3621POPC   C3A48377  23.031  31.501   6.941
 3621POPC   C4A48378  22.755  31.307   7.201
 3621POPC   C1B48379  22.696  31.719   5.938
 3621POPC   C2B48380  22.648  31.824   6.394
 3621POPC   C3B48381  22.544  31.756   6.834
 3621POPC   C4B48382  22.690  31.809   7.243
 3622POPC   NC348383   6.533  18.308   5.294
 3622POPC   PO448384   7.104  18.167   5.089
 3622POPC   GL148385   6.979  18.271   5.555
 3622POPC   GL248386   6.737  18.004   5.680
 3622POPC   C1A48387   6.820  18.382   6.009
 3622POPC   D2A48388   6.796  18.211   6.466
 3622POPC   C3A48389   6.580  18.357   6.846
 3622POPC   C4A48390   6.668  18.562   7.264
 3622POPC   C1B48391   6.563  17.925   6.104
 3622POPC   C2B48392   6.323  17.985   6.510
 3622POPC   C3B48393   6.126  18.085   6.895
 3622POPC   C4B48394   6.355  18.080   7.273
 3623POPC   NC348395  14.267  25.734   5.420
 3623POPC   PO448396  14.202  25.039   5.458
 3623POPC   GL148397  14.310  25.356   5.805
 3623POPC   GL248398  14.072  25.630   5.871
 3623POPC   C1A48399  14.446  25.379   6.270
 3623POPC   D2A48400  14.319  25.163   6.668
 3623POPC   C3A48401  14.439  25.333   7.080
 3623POPC   C4A48402  14.587  25.496   7.490
 3623POPC   C1B48403  14.249  25.864   6.217
 3623POPC   C2B48404  14.257  25.734   6.657
 3623POPC   C3B48405  14.012  25.649   7.021
 3623POPC   C4B48406  14.080  25.462   7.449
 3624POPC   NC348407  40.446  24.336   5.527
 3624POPC   PO448408  41.122  24.322   5.570
 3624POPC   GL148409  40.810  24.365   5.915
 3624POPC   GL248410  40.564  24.683   5.883
 3624POPC   C1A48411  40.864  24.212   6.357
 3624POPC   D2A48412  40.580  24.083   6.681
 3624POPC   C3A48413  40.611  24.324   7.041
 3624POPC   C4A48414  40.959  24.289   7.279
 3624POPC   C1B48415  40.779  24.743   6.281
 3624POPC   C2B48416  40.898  24.740   6.717
 3624POPC   C3B48417  40.612  24.838   7.019
 3624POPC   C4B48418  40.482  24.721   7.391
 3625POPC   NC348419  37.585  24.131   5.289
 3625POPC   PO448420  37.845  24.708   5.550
 3625POPC   GL148421  37.547  24.501   5.804
 3625POPC   GL248422  37.542  24.135   5.792
 3625POPC   C1A48423  37.587  24.629   6.216
 3625POPC   D2A48424  37.929  24.715   6.514
 3625POPC   C3A48425  37.795  24.497   6.870
 3625POPC   C4A48426  37.482  24.608   7.116
 3625POPC   C1B48427  37.323  24.168   6.166
 3625POPC   C2B48428  37.505  24.209   6.536
 3625POPC   C3B48429  37.347  24.150   6.915
 3625POPC   C4B48430  37.602  24.089   7.220
 3626POPC   NC348431   4.645  12.923   5.510
 3626POPC   PO448432   4.135  12.494   5.359
 3626POPC   GL148433   4.184  12.721   5.751
 3626POPC   GL248434   3.996  12.977   5.887
 3626POPC   C1A48435   4.449  12.784   6.129
 3626POPC   D2A48436   4.465  13.035   6.476
 3626POPC   C3A48437   4.487  12.915   6.891
 3626POPC   C4A48438   4.435  12.500   7.087
 3626POPC   C1B48439   3.971  12.628   6.211
 3626POPC   C2B48440   4.092  12.482   6.664
 3626POPC   C3B48441   3.933  12.517   7.087
 3626POPC   C4B48442   3.952  12.598   7.570
 3627POPC   NC348443  35.324  41.991   5.444
 3627POPC   PO448444  35.095  42.606   5.531
 3627POPC   GL148445  35.301  42.354   5.839
 3627POPC   GL248446  35.495  42.602   5.991
 3627POPC   C1A48447  35.220  42.313   6.301
 3627POPC   D2A48448  35.171  42.582   6.672
 3627POPC   C3A48449  35.008  42.326   7.028
 3627POPC   C4A48450  34.829  42.407   7.437
 3627POPC   C1B48451  35.772  42.813   6.336
 3627POPC   C2B48452  35.802  42.789   6.807
 3627POPC   C3B48453  35.522  42.499   7.042
 3627POPC   C4B48454  35.443  42.136   7.275
 3628POPC   NC348455  20.051   2.547   5.447
 3628POPC   PO448456  19.546   3.008   5.541
 3628POPC   GL148457  19.677   2.695   5.791
 3628POPC   GL248458  19.998   2.750   5.916
 3628POPC   C1A48459  19.566   2.541   6.161
 3628POPC   D2A48460  19.569   2.737   6.570
 3628POPC   C3A48461  19.589   2.436   6.880
 3628POPC   C4A48462  19.779   2.740   7.109
 3628POPC   C1B48463  20.018   2.674   6.336
 3628POPC   C2B48464  20.101   2.452   6.726
 3628POPC   C3B48465  20.252   2.584   7.123
 3628POPC   C4B48466  20.089   2.549   7.524
 3629POPC   NC348467  31.934  13.167   5.328
 3629POPC   PO448468  32.502  12.714   5.368
 3629POPC   GL148469  32.272  12.921   5.684
 3629POPC   GL248470  32.582  12.955   5.887
 3629POPC   C1A48471  31.986  12.997   6.009
 3629POPC   D2A48472  31.876  12.948   6.449
 3629POPC   C3A48473  32.022  13.179   6.820
 3629POPC   C4A48474  32.146  12.898   7.197
 3629POPC   C1B48475  32.400  13.048   6.301
 3629POPC   C2B48476  32.326  12.796   6.659
 3629POPC   C3B48477  32.582  12.721   7.009
 3629POPC   C4B48478  32.687  12.713   7.431
 3630POPC   NC348479  18.923  16.073   5.337
 3630POPC   PO448480  19.262  15.509   5.350
 3630POPC   GL148481  19.145  15.770   5.702
 3630POPC   GL248482  18.791  15.836   5.783
 3630POPC   C1A48483  19.278  15.922   6.103
 3630POPC   D2A48484  19.160  16.007   6.526
 3630POPC   C3A48485  18.867  16.130   6.809
 3630POPC   C4A48486  19.196  16.171   7.100
 3630POPC   C1B48487  18.905  15.569   6.133
 3630POPC   C2B48488  19.098  15.514   6.543
 3630POPC   C3B48489  19.081  15.689   6.969
 3630POPC   C4B48490  18.792  15.893   7.276
 3631POPC   NC348491  27.171  43.406   5.613
 3631POPC   PO448492  26.643  43.075   5.391
 3631POPC   GL148493  26.782  42.966   5.786
 3631POPC   GL248494  26.743  43.303   5.875
 3631POPC   C1A48495  27.075  42.946   6.147
 3631POPC   D2A48496  27.354  42.926   6.507
 3631POPC   C3A48497  27.116  42.874   6.888
 3631POPC   C4A48498  26.935  43.109   7.242
 3631POPC   C1B48499  26.734  43.326   6.323
 3631POPC   C2B48500  26.512  43.090   6.645
 3631POPC   C3B48501  26.496  43.244   7.053
 3631POPC   C4B48502  26.558  43.281   7.517
 3632POPC   NC348503  44.436  42.333   5.581
 3632POPC   PO448504  44.651  42.966   5.454
 3632POPC   GL148505  44.611  43.122   5.844
 3632POPC   GL248506  44.381  43.351   5.832
 3632POPC   C1A48507  44.746  43.147   6.262
 3632POPC   D2A48508  44.641  42.991   6.653
 3632POPC   C3A48509  44.864  43.217   6.957
 3632POPC   C4A48510  44.715  43.045   7.323
 3632POPC   C1B48511  44.323  43.450   6.226
 3632POPC   C2B48512  44.178  43.280   6.613
 3632POPC   C3B48513  44.341  43.269   7.032
 3632POPC   C4B48514  44.622  43.551   7.239
 3633POPC   NC348515  31.845  10.962   5.278
 3633POPC   PO448516  31.533  11.505   5.488
 3633POPC   GL148517  31.505  11.220   5.855
 3633POPC   GL248518  31.202  11.017   5.933
 3633POPC   C1A48519  31.509  11.166   6.315
 3633POPC   D2A48520  31.623  11.416   6.636
 3633POPC   C3A48521  31.515  11.337   7.043
 3633POPC   C4A48522  31.716  11.559   7.325
 3633POPC   C1B48523  31.024  11.216   6.283
 3633POPC   C2B48524  31.141  11.235   6.723
 3633POPC   C3B48525  31.130  10.945   7.091
 3633POPC   C4B48526  31.215  11.001   7.546
 3634POPC   NC348527  20.101  20.517   5.430
 3634POPC   PO448528  19.618  20.921   5.347
 3634POPC   GL148529  19.827  20.806   5.770
 3634POPC   GL248530  19.720  20.480   5.793
 3634POPC   C1A48531  20.111  20.607   6.133
 3634POPC   D2A48532  20.293  20.541   6.571
 3634POPC   C3A48533  20.067  20.434   6.949
 3634POPC   C4A48534  20.116  20.704   7.333
 3634POPC   C1B48535  19.607  20.560   6.212
 3634POPC   C2B48536  19.497  20.409   6.625
 3634POPC   C3B48537  19.366  20.457   7.055
 3634POPC   C4B48538  19.660  20.492   7.378
 3635POPC   NC348539   4.125  17.703   5.297
 3635POPC   PO448540   4.564  17.202   5.384
 3635POPC   GL148541   4.318  17.300   5.744
 3635POPC   GL248542   4.276  17.674   5.818
 3635POPC   C1A48543   4.215  17.205   6.168
 3635POPC   D2A48544   4.050  17.417   6.515
 3635POPC   C3A48545   4.298  17.709   6.772
 3635POPC   C4A48546   4.338  17.564   7.196
 3635POPC   C1B48547   4.158  17.868   6.228
 3635POPC   C2B48548   3.786  17.862   6.505
 3635POPC   C3B48549   3.800  17.693   6.875
 3635POPC   C4B48550   4.015  17.942   7.148
 3636POPC   NC348551   5.875  29.124   5.425
 3636POPC   PO448552   5.589  29.727   5.404
 3636POPC   GL148553   5.701  29.492   5.761
 3636POPC   GL248554   6.097  29.437   5.810
 3636POPC   C1A48555   5.712  29.410   6.206
 3636POPC   D2A48556   6.072  29.325   6.497
 3636POPC   C3A48557   6.024  29.299   6.939
 3636POPC   C4A48558   5.667  29.448   7.144
 3636POPC   C1B48559   6.320  29.111   6.114
 3636POPC   C2B48560   6.397  28.910   6.561
 3636POPC   C3B48561   6.350  28.847   7.011
 3636POPC   C4B48562   6.083  28.744   7.387
 3637POPC   NC348563  19.504  28.023   5.432
 3637POPC   PO448564  19.874  28.629   5.451
 3637POPC   GL148565  19.640  28.443   5.777
 3637POPC   GL248566  19.867  28.185   5.824
 3637POPC   C1A48567  19.569  28.260   6.232
 3637POPC   D2A48568  19.443  28.180   6.685
 3637POPC   C3A48569  19.499  28.405   7.071
 3637POPC   C4A48570  19.836  28.668   7.233
 3637POPC   C1B48571  20.099  28.067   6.199
 3637POPC   C2B48572  20.233  28.208   6.611
 3637POPC   C3B48573  20.003  28.239   7.006
 3637POPC   C4B48574  20.175  28.296   7.424
 3638POPC   NC348575  28.644  17.212   5.409
 3638POPC   PO448576  28.551  16.565   5.491
 3638POPC   GL148577  28.168  16.608   5.799
 3638POPC   GL248578  27.929  16.297   5.850
 3638POPC   C1A48579  28.179  16.932   6.118
 3638POPC   D2A48580  28.378  16.924   6.511
 3638POPC   C3A48581  28.213  16.996   6.888
 3638POPC   C4A48582  28.369  16.925   7.235
 3638POPC   C1B48583  28.333  16.243   6.114
 3638POPC   C2B48584  28.584  16.424   6.450
 3638POPC   C3B48585  28.438  16.528   6.861
 3638POPC   C4B48586  28.627  16.483   7.249
 3639POPC   NC348587  42.914  18.572   5.524
 3639POPC   PO448588  43.498  18.308   5.561
 3639POPC   GL148589  43.232  18.289   5.887
 3639POPC   GL248590  42.968  18.101   5.733
 3639POPC   C1A48591  43.099  18.451   6.290
 3639POPC   D2A48592  42.988  18.498   6.722
 3639POPC   C3A48593  43.212  18.256   6.997
 3639POPC   C4A48594  43.421  18.452   7.306
 3639POPC   C1B48595  42.883  17.991   6.160
 3639POPC   C2B48596  42.863  18.003   6.632
 3639POPC   C3B48597  42.707  18.172   7.061
 3639POPC   C4B48598  42.732  18.004   7.507
 3640POPC   NC348599  22.371  40.724   5.393
 3640POPC   PO448600  23.023  40.980   5.312
 3640POPC   GL148601  22.956  41.002   5.781
 3640POPC   GL248602  22.745  40.719   5.755
 3640POPC   C1A48603  23.051  40.751   6.180
 3640POPC   D2A48604  23.007  40.534   6.586
 3640POPC   C3A48605  22.963  40.876   6.855
 3640POPC   C4A48606  23.242  40.934   7.156
 3640POPC   C1B48607  22.637  40.485   6.112
 3640POPC   C2B48608  22.507  40.588   6.515
 3640POPC   C3B48609  22.565  40.583   6.957
 3640POPC   C4B48610  22.797  40.798   7.357
 3641POPC   NC348611  24.426  28.331   5.430
 3641POPC   PO448612  24.710  28.864   5.278
 3641POPC   GL148613  24.770  28.609   5.714
 3641POPC   GL248614  24.451  28.536   5.900
 3641POPC   C1A48615  24.846  28.408   6.178
 3641POPC   D2A48616  24.549  28.570   6.463
 3641POPC   C3A48617  24.518  28.403   6.851
 3641POPC   C4A48618  24.413  28.554   7.246
 3641POPC   C1B48619  24.373  28.180   6.166
 3641POPC   C2B48620  24.476  27.975   6.552
 3641POPC   C3B48621  24.256  27.989   6.947
 3641POPC   C4B48622  24.408  28.064   7.356
 3642POPC   NC348623  30.085  29.505   5.438
 3642POPC   PO448624  29.638  29.044   5.368
 3642POPC   GL148625  29.879  29.117   5.714
 3642POPC   GL248626  29.767  29.409   5.862
 3642POPC   C1A48627  30.027  29.022   6.118
 3642POPC   D2A48628  30.009  29.229   6.492
 3642POPC   C3A48629  30.042  28.930   6.810
 3642POPC   C4A48630  29.807  28.888   7.212
 3642POPC   C1B48631  29.678  29.612   6.275
 3642POPC   C2B48632  29.597  29.514   6.709
 3642POPC   C3B48633  29.861  29.365   7.043
 3642POPC   C4B48634  29.672  29.337   7.497
 3643POPC   NC348635  12.726  25.361   5.403
 3643POPC   PO448636  13.261  24.963   5.447
 3643POPC   GL148637  13.010  25.176   5.788
 3643POPC   GL248638  12.655  25.009   5.760
 3643POPC   C1A48639  12.944  25.261   6.248
 3643POPC   D2A48640  12.789  25.522   6.600
 3643POPC   C3A48641  12.960  25.511   7.030
 3643POPC   C4A48642  12.742  25.624   7.412
 3643POPC   C1B48643  12.502  24.990   6.160
 3643POPC   C2B48644  12.639  24.870   6.561
 3643POPC   C3B48645  12.912  25.024   6.876
 3643POPC   C4B48646  12.759  25.114   7.303
 3644POPC   NC348647  36.509  20.757   5.107
 3644POPC   PO448648  36.032  20.879   5.573
 3644POPC   GL148649  35.944  20.884   5.980
 3644POPC   GL248650  35.691  20.707   5.967
 3644POPC   C1A48651  36.085  20.884   6.391
 3644POPC   D2A48652  36.424  20.654   6.633
 3644POPC   C3A48653  36.372  20.509   7.063
 3644POPC   C4A48654  36.364  20.349   7.479
 3644POPC   C1B48655  35.847  20.391   6.209
 3644POPC   C2B48656  35.956  20.471   6.633
 3644POPC   C3B48657  35.975  20.784   6.904
 3644POPC   C4B48658  35.857  20.512   7.257
 3645POPC   NC348659  41.405  25.562   5.239
 3645POPC   PO448660  41.746  25.000   5.399
 3645POPC   GL148661  41.654  25.316   5.731
 3645POPC   GL248662  41.800  25.667   5.666
 3645POPC   C1A48663  41.588  25.238   6.201
 3645POPC   D2A48664  41.624  25.022   6.599
 3645POPC   C3A48665  41.350  25.183   6.944
 3645POPC   C4A48666  41.373  25.370   7.354
 3645POPC   C1B48667  41.571  25.729   6.063
 3645POPC   C2B48668  41.541  25.776   6.538
 3645POPC   C3B48669  41.629  25.667   6.993
 3645POPC   C4B48670  41.461  25.867   7.416
 3646POPC   NC348671  17.171  44.159   5.367
 3646POPC   PO448672  16.572  43.817   5.106
 3646POPC   GL148673  16.753  43.941   5.586
 3646POPC   GL248674  17.070  43.752   5.715
 3646POPC   C1A48675  16.865  44.042   6.075
 3646POPC   D2A48676  17.040  43.911   6.509
 3646POPC   C3A48677  16.917  44.059   6.968
 3646POPC   C4A48678  16.749  43.913   7.363
 3646POPC   C1B48679  16.958  43.541   6.103
 3646POPC   C2B48680  17.029  43.405   6.508
 3646POPC   C3B48681  16.928  43.545   6.905
 3646POPC   C4B48682  17.140  43.600   7.275
 3647POPC   NC348683   0.529  30.722   5.359
 3647POPC   PO448684   0.078  31.181   5.480
 3647POPC   GL148685   0.428  31.113   5.793
 3647POPC   GL248686   0.393  30.747   5.849
 3647POPC   C1A48687   0.497  31.032   6.269
 3647POPC   D2A48688   0.536  31.084   6.734
 3647POPC   C3A48689   0.596  30.742   7.087
 3647POPC   C4A48690   0.716  30.689   7.600
 3647POPC   C1B48691   0.348  30.429   6.165
 3647POPC   C2B48692   0.327  30.254   6.568
 3647POPC   C3B48693   0.304  30.301   6.983
 3647POPC   C4B48694   0.380  30.400   7.382
 3648POPC   NC348695  26.995   4.141   5.566
 3648POPC   PO448696  26.738   4.760   5.366
 3648POPC   GL148697  26.710   4.527   5.759
 3648POPC   GL248698  27.020   4.643   5.838
 3648POPC   C1A48699  26.608   4.310   6.161
 3648POPC   D2A48700  26.532   4.158   6.597
 3648POPC   C3A48701  26.727   4.280   6.972
 3648POPC   C4A48702  26.763   4.586   7.286
 3648POPC   C1B48703  27.106   4.356   6.181
 3648POPC   C2B48704  27.074   4.237   6.585
 3648POPC   C3B48705  27.240   4.154   7.008
 3648POPC   C4B48706  26.972   3.933   7.264
 3649POPC   NC348707  34.928  38.182   5.343
 3649POPC   PO448708  34.382  38.624   5.317
 3649POPC   GL148709  34.624  38.615   5.696
 3649POPC   GL248710  34.640  38.241   5.771
 3649POPC   C1A48711  34.711  38.578   6.152
 3649POPC   D2A48712  34.842  38.483   6.564
 3649POPC   C3A48713  34.730  38.624   6.963
 3649POPC   C4A48714  34.551  38.374   7.292
 3649POPC   C1B48715  34.915  38.098   6.150
 3649POPC   C2B48716  35.097  38.045   6.611
 3649POPC   C3B48717  35.034  38.224   7.074
 3649POPC   C4B48718  34.934  38.152   7.561
 3650POPC   NC348719  41.774   1.600   5.548
 3650POPC   PO448720  41.671   2.288   5.621
 3650POPC   GL148721  41.682   1.944   5.926
 3650POPC   GL248722  41.446   1.681   5.996
 3650POPC   C1A48723  41.740   1.873   6.363
 3650POPC   D2A48724  41.539   2.139   6.653
 3650POPC   C3A48725  41.612   2.000   7.052
 3650POPC   C4A48726  41.583   1.969   7.476
 3650POPC   C1B48727  41.242   1.951   6.280
 3650POPC   C2B48728  41.221   1.741   6.695
 3650POPC   C3B48729  41.107   1.923   7.081
 3650POPC   C4B48730  41.098   1.848   7.536
 3651POPC   NC348731   8.044   0.011   5.527
 3651POPC   PO448732   8.631  44.663   5.349
 3651POPC   GL148733   8.397  44.675   5.744
 3651POPC   GL248734   8.359  44.337   5.854
 3651POPC   C1A48735   8.201  44.788   6.185
 3651POPC   D2A48736   8.112  44.580   6.604
 3651POPC   C3A48737   7.965  44.763   6.993
 3651POPC   C4A48738   7.746  44.479   7.260
 3651POPC   C1B48739   8.500  44.400   6.304
 3651POPC   C2B48740   8.553  44.362   6.776
 3651POPC   C3B48741   8.235  44.323   7.077
 3651POPC   C4B48742   8.210  44.586   7.459
 3652POPC   NC348743  35.980  41.818   5.469
 3652POPC   PO448744  35.570  41.348   5.200
 3652POPC   GL148745  35.979  41.390   5.710
 3652POPC   GL248746  35.935  41.752   5.960
 3652POPC   C1A48747  36.197  41.388   6.146
 3652POPC   D2A48748  36.037  41.714   6.484
 3652POPC   C3A48749  36.131  41.635   6.926
 3652POPC   C4A48750  36.445  41.358   7.163
 3652POPC   C1B48751  35.693  41.428   6.218
 3652POPC   C2B48752  35.832  41.184   6.552
 3652POPC   C3B48753  35.946  41.149   6.971
 3652POPC   C4B48754  35.965  41.410   7.348
 3653POPC   NC348755   9.182  43.449   5.227
 3653POPC   PO448756   8.766  43.003   5.430
 3653POPC   GL148757   9.073  43.217   5.685
 3653POPC   GL248758   8.830  43.444   5.751
 3653POPC   C1A48759   9.185  43.246   6.127
 3653POPC   D2A48760   9.245  43.130   6.572
 3653POPC   C3A48761   8.978  42.860   6.793
 3653POPC   C4A48762   8.961  42.989   7.195
 3653POPC   C1B48763   8.659  43.392   6.220
 3653POPC   C2B48764   8.688  43.311   6.706
 3653POPC   C3B48765   8.614  43.373   7.170
 3653POPC   C4B48766   8.583  43.560   7.620
 3654POPC   NC348767  39.875  14.441   5.541
 3654POPC   PO448768  40.278  13.997   5.246
 3654POPC   GL148769  40.319  14.075   5.708
 3654POPC   GL248770  40.414  14.422   5.733
 3654POPC   C1A48771  40.166  14.081   6.166
 3654POPC   D2A48772  39.878  14.106   6.546
 3654POPC   C3A48773  39.976  14.208   7.000
 3654POPC   C4A48774  39.945  14.488   7.400
 3654POPC   C1B48775  40.502  14.465   6.198
 3654POPC   C2B48776  40.253  14.449   6.597
 3654POPC   C3B48777  40.323  14.583   7.036
 3654POPC   C4B48778  40.571  14.832   7.325
 3655POPC   NC348779  15.711   3.746   5.493
 3655POPC   PO448780  16.045   3.237   5.200
 3655POPC   GL148781  15.972   3.377   5.701
 3655POPC   GL248782  16.244   3.601   5.879
 3655POPC   C1A48783  15.872   3.467   6.165
 3655POPC   D2A48784  15.961   3.635   6.587
 3655POPC   C3A48785  15.771   3.301   6.885
 3655POPC   C4A48786  15.639   3.307   7.315
 3655POPC   C1B48787  16.378   3.395   6.317
 3655POPC   C2B48788  16.250   3.278   6.775
 3655POPC   C3B48789  16.175   3.399   7.215
 3655POPC   C4B48790  16.456   3.499   7.588
 3656POPC   NC348791  21.840  16.956   5.603
 3656POPC   PO448792  22.171  17.591   5.425
 3656POPC   GL148793  22.025  17.447   5.827
 3656POPC   GL248794  22.065  17.780   5.909
 3656POPC   C1A48795  22.105  17.302   6.278
 3656POPC   D2A48796  22.280  17.480   6.673
 3656POPC   C3A48797  22.244  17.301   7.083
 3656POPC   C4A48798  21.877  17.385   7.284
 3656POPC   C1B48799  22.284  17.821   6.285
 3656POPC   C2B48800  22.125  17.993   6.649
 3656POPC   C3B48801  22.077  17.803   7.048
 3656POPC   C4B48802  21.909  17.879   7.434
 3657POPC   NC348803  31.239  41.922   5.326
 3657POPC   PO448804  31.673  41.421   5.490
 3657POPC   GL148805  31.564  41.772   5.720
 3657POPC   GL248806  31.286  41.606   5.876
 3657POPC   C1A48807  31.719  41.754   6.130
 3657POPC   D2A48808  31.431  41.606   6.493
 3657POPC   C3A48809  31.650  41.610   6.906
 3657POPC   C4A48810  31.598  41.379   7.289
 3657POPC   C1B48811  31.074  41.304   6.195
 3657POPC   C2B48812  31.140  41.025   6.554
 3657POPC   C3B48813  31.270  41.251   6.913
 3657POPC   C4B48814  31.191  41.652   7.105
 3658POPC   NC348815  36.906  41.442   5.460
 3658POPC   PO448816  36.431  41.924   5.531
 3658POPC   GL148817  36.573  41.583   5.845
 3658POPC   GL248818  36.572  41.189   5.819
 3658POPC   C1A48819  36.938  41.635   6.138
 3658POPC   D2A48820  37.102  41.929   6.469
 3658POPC   C3A48821  37.190  41.771   6.880
 3658POPC   C4A48822  36.817  41.712   7.132
 3658POPC   C1B48823  36.686  41.213   6.281
 3658POPC   C2B48824  36.875  41.328   6.703
 3658POPC   C3B48825  36.898  41.110   7.109
 3658POPC   C4B48826  36.701  41.039   7.523
 3659POPC   NC348827  43.773  36.920   5.327
 3659POPC   PO448828  44.320  37.305   5.508
 3659POPC   GL148829  43.943  37.152   5.767
 3659POPC   GL248830  43.879  36.768   5.790
 3659POPC   C1A48831  43.846  37.078   6.208
 3659POPC   D2A48832  43.608  37.015   6.572
 3659POPC   C3A48833  43.903  37.067   6.872
 3659POPC   C4A48834  43.995  36.940   7.257
 3659POPC   C1B48835  44.024  36.558   6.162
 3659POPC   C2B48836  44.074  36.639   6.597
 3659POPC   C3B48837  44.230  36.527   7.013
 3659POPC   C4B48838  44.180  36.511   7.476
 3660POPC   NC348839   0.065  42.596   5.430
 3660POPC   PO448840   0.552  42.084   5.190
 3660POPC   GL148841   0.664  42.219   5.679
 3660POPC   GL248842   0.298  42.334   5.809
 3660POPC   C1A48843   0.656  42.289   6.146
 3660POPC   D2A48844   0.784  42.131   6.550
 3660POPC   C3A48845   0.641  42.353   6.919
 3660POPC   C4A48846   0.542  42.178   7.329
 3660POPC   C1B48847   0.138  42.209   6.221
 3660POPC   C2B48848   0.247  42.133   6.665
 3660POPC   C3B48849   0.104  42.267   7.072
 3660POPC   C4B48850   0.070  42.197   7.551
 3661POPC   NC348851  13.303   9.083   5.415
 3661POPC   PO448852  12.726   8.734   5.317
 3661POPC   GL148853  12.943   8.842   5.719
 3661POPC   GL248854  12.736   8.643   5.912
 3661POPC   C1A48855  12.972   9.020   6.173
 3661POPC   D2A48856  12.750   9.070   6.579
 3661POPC   C3A48857  12.944   9.129   6.964
 3661POPC   C4A48858  13.253   9.148   7.263
 3661POPC   C1B48859  12.469   8.880   6.189
 3661POPC   C2B48860  12.355   8.763   6.610
 3661POPC   C3B48861  12.525   8.821   7.010
 3661POPC   C4B48862  12.529   8.490   7.289
 3662POPC   NC348863  19.519  13.897   5.587
 3662POPC   PO448864  18.920  13.831   5.371
 3662POPC   GL148865  19.089  13.640   5.764
 3662POPC   GL248866  18.887  13.358   5.778
 3662POPC   C1A48867  19.333  13.754   6.169
 3662POPC   D2A48868  19.297  14.011   6.506
 3662POPC   C3A48869  19.186  13.780   6.857
 3662POPC   C4A48870  19.366  13.576   7.206
 3662POPC   C1B48871  19.160  13.291   6.150
 3662POPC   C2B48872  19.068  13.335   6.597
 3662POPC   C3B48873  18.941  13.364   7.046
 3662POPC   C4B48874  19.012  13.382   7.540
 3663POPC   NC348875   6.841  41.447   5.354
 3663POPC   PO448876   6.190  41.692   5.476
 3663POPC   GL148877   6.542  41.756   5.770
 3663POPC   GL248878   6.896  41.619   5.830
 3663POPC   C1A48879   6.531  41.537   6.162
 3663POPC   D2A48880   6.804  41.529   6.500
 3663POPC   C3A48881   6.638  41.603   6.879
 3663POPC   C4A48882   6.397  41.350   7.151
 3663POPC   C1B48883   6.910  41.920   6.159
 3663POPC   C2B48884   7.090  41.981   6.569
 3663POPC   C3B48885   7.123  41.721   6.914
 3663POPC   C4B48886   6.939  41.469   7.275
 3664POPC   NC348887  24.232   6.789   5.354
 3664POPC   PO448888  24.793   6.746   5.576
 3664POPC   GL148889  24.546   6.540   5.932
 3664POPC   GL248890  24.208   6.439   5.911
 3664POPC   C1A48891  24.388   6.591   6.389
 3664POPC   D2A48892  24.223   6.530   6.828
 3664POPC   C3A48893  24.353   6.695   7.227
 3664POPC   C4A48894  24.102   6.920   7.574
 3664POPC   C1B48895  24.374   6.107   6.202
 3664POPC   C2B48896  24.446   6.080   6.661
 3664POPC   C3B48897  24.722   6.250   6.997
 3664POPC   C4B48898  24.831   6.563   7.341
 3665POPC   NC348899  12.189  19.479   5.546
 3665POPC   PO448900  11.718  19.962   5.474
 3665POPC   GL148901  11.710  19.997   5.914
 3665POPC   GL248902  12.067  19.858   5.928
 3665POPC   C1A48903  11.816  19.936   6.368
 3665POPC   D2A48904  11.764  19.665   6.718
 3665POPC   C3A48905  11.849  19.863   7.122
 3665POPC   C4A48906  12.130  19.745   7.473
 3665POPC   C1B48907  12.312  19.976   6.323
 3665POPC   C2B48908  12.132  20.108   6.759
 3665POPC   C3B48909  12.234  20.212   7.211
 3665POPC   C4B48910  12.531  20.069   7.548
 3666POPC   NC348911   7.126  19.887   5.436
 3666POPC   PO448912   7.624  20.325   5.520
 3666POPC   GL148913   7.503  19.963   5.773
 3666POPC   GL248914   7.156  19.868   5.942
 3666POPC   C1A48915   7.621  19.801   6.150
 3666POPC   D2A48916   7.418  19.852   6.556
 3666POPC   C3A48917   7.602  19.959   6.937
 3666POPC   C4A48918   7.463  20.055   7.388
 3666POPC   C1B48919   7.248  19.480   6.215
 3666POPC   C2B48920   7.487  19.343   6.539
 3666POPC   C3B48921   7.526  19.454   6.915
 3666POPC   C4B48922   7.315  19.623   7.194
 3667POPC   NC348923  35.626  20.646   5.462
 3667POPC   PO448924  34.969  20.234   5.394
 3667POPC   GL148925  35.190  20.449   5.729
 3667POPC   GL248926  35.493  20.276   5.801
 3667POPC   C1A48927  35.229  20.679   6.130
 3667POPC   D2A48928  35.541  20.717   6.467
 3667POPC   C3A48929  35.464  20.701   6.910
 3667POPC   C4A48930  35.654  20.980   7.239
 3667POPC   C1B48931  35.384  20.151   6.223
 3667POPC   C2B48932  35.537  20.206   6.644
 3667POPC   C3B48933  35.567  20.081   7.060
 3667POPC   C4B48934  35.325  20.366   7.261
 3668POPC   NC348935  26.972  28.643   5.497
 3668POPC   PO448936  26.561  28.077   5.478
 3668POPC   GL148937  26.630  28.376   5.793
 3668POPC   GL248938  26.951  28.236   5.827
 3668POPC   C1A48939  26.790  28.618   6.174
 3668POPC   D2A48940  26.940  28.607   6.621
 3668POPC   C3A48941  26.665  28.669   6.978
 3668POPC   C4A48942  26.692  28.528   7.396
 3668POPC   C1B48943  26.991  28.142   6.235
 3668POPC   C2B48944  26.768  28.138   6.594
 3668POPC   C3B48945  26.904  28.213   7.009
 3668POPC   C4B48946  27.053  28.162   7.427
 3669POPC   NC348947  26.479  32.434   5.317
 3669POPC   PO448948  26.608  31.878   5.672
 3669POPC   GL148949  26.841  32.213   5.750
 3669POPC   GL248950  26.606  32.456   5.799
 3669POPC   C1A48951  26.941  32.272   6.172
 3669POPC   D2A48952  26.779  32.124   6.523
 3669POPC   C3A48953  26.975  32.284   6.846
 3669POPC   C4A48954  26.764  32.185   7.191
 3669POPC   C1B48955  26.431  32.261   6.149
 3669POPC   C2B48956  26.289  32.346   6.529
 3669POPC   C3B48957  26.492  32.483   6.874
 3669POPC   C4B48958  26.399  32.514   7.285
 3670POPC   NC348959  19.281   5.893   5.282
 3670POPC   PO448960  18.682   5.556   5.524
 3670POPC   GL148961  18.849   5.810   5.832
 3670POPC   GL248962  19.162   5.912   5.787
 3670POPC   C1A48963  18.916   5.905   6.266
 3670POPC   D2A48964  19.168   6.068   6.539
 3670POPC   C3A48965  19.078   5.908   6.951
 3670POPC   C4A48966  18.860   5.999   7.324
 3670POPC   C1B48967  19.361   5.658   6.130
 3670POPC   C2B48968  19.474   5.659   6.579
 3670POPC   C3B48969  19.374   5.505   7.001
 3670POPC   C4B48970  19.288   5.729   7.420
 3671POPC   NC348971  33.429  38.193   5.416
 3671POPC   PO448972  33.039  38.710   5.378
 3671POPC   GL148973  33.012  38.405   5.695
 3671POPC   GL248974  33.295  38.462   5.906
 3671POPC   C1A48975  32.816  38.348   6.112
 3671POPC   D2A48976  32.732  38.617   6.467
 3671POPC   C3A48977  32.716  38.452   6.869
 3671POPC   C4A48978  32.961  38.517   7.226
 3671POPC   C1B48979  33.255  38.585   6.364
 3671POPC   C2B48980  33.320  38.615   6.832
 3671POPC   C3B48981  33.481  38.435   7.248
 3671POPC   C4B48982  33.303  38.297   7.634
 3672POPC   NC348983  37.358   5.533   5.299
 3672POPC   PO448984  37.835   5.026   5.222
 3672POPC   GL148985  37.773   5.064   5.718
 3672POPC   GL248986  37.635   5.413   5.791
 3672POPC   C1A48987  37.612   4.814   6.123
 3672POPC   D2A48988  37.404   4.740   6.572
 3672POPC   C3A48989  37.597   4.859   7.005
 3672POPC   C4A48990  37.465   4.887   7.500
 3672POPC   C1B48991  37.609   5.302   6.230
 3672POPC   C2B48992  37.458   5.253   6.663
 3672POPC   C3B48993  37.608   5.378   7.046
 3672POPC   C4B48994  37.501   5.378   7.454
 3673POPC   NC348995   1.527   5.023   5.229
 3673POPC   PO448996   1.188   5.524   5.584
 3673POPC   GL148997   1.072   5.244   5.944
 3673POPC   GL248998   0.903   4.988   5.772
 3673POPC   C1A48999   1.340   5.126   6.328
 3673POPC   D2A49000   1.661   5.415   6.557
 3673POPC   C3A49001   1.482   5.510   6.955
 3673POPC   C4A49002   1.110   5.316   7.190
 3673POPC   C1B49003   0.888   4.640   6.084
 3673POPC   C2B49004   0.985   4.492   6.505
 3673POPC   C3B49005   1.134   4.726   6.859
 3673POPC   C4B49006   0.986   4.815   7.261
 3674POPC   NC349007   5.371  22.517   5.488
 3674POPC   PO449008   5.108  21.985   5.427
 3674POPC   GL149009   4.969  22.059   5.824
 3674POPC   GL249010   4.988  22.424   5.833
 3674POPC   C1A49011   4.914  21.891   6.251
 3674POPC   D2A49012   5.200  21.917   6.606
 3674POPC   C3A49013   5.108  22.017   7.041
 3674POPC   C4A49014   5.319  22.024   7.435
 3674POPC   C1B49015   5.113  22.381   6.276
 3674POPC   C2B49016   5.164  22.437   6.741
 3674POPC   C3B49017   5.229  22.509   7.206
 3674POPC   C4B49018   5.187  22.559   7.663
 3675POPC   NC349019  23.803  14.001   5.573
 3675POPC   PO449020  23.541  14.501   5.143
 3675POPC   GL149021  23.528  14.496   5.617
 3675POPC   GL249022  23.711  14.765   5.823
 3675POPC   C1A49023  23.503  14.357   6.069
 3675POPC   D2A49024  23.507  14.299   6.543
 3675POPC   C3A49025  23.639  14.634   6.841
 3675POPC   C4A49026  23.534  14.582   7.259
 3675POPC   C1B49027  23.934  14.613   6.216
 3675POPC   C2B49028  24.017  14.394   6.590
 3675POPC   C3B49029  24.149  14.508   6.969
 3675POPC   C4B49030  23.972  14.809   7.240
 3676POPC   NC349031   6.090  13.312   5.460
 3676POPC   PO449032   5.501  13.761   5.303
 3676POPC   GL149033   5.720  13.622   5.677
 3676POPC   GL249034   5.617  13.259   5.661
 3676POPC   C1A49035   5.907  13.725   6.099
 3676POPC   D2A49036   5.810  13.990   6.469
 3676POPC   C3A49037   5.864  13.782   6.895
 3676POPC   C4A49038   5.741  13.979   7.286
 3676POPC   C1B49039   5.770  13.224   6.069
 3676POPC   C2B49040   5.929  13.225   6.479
 3676POPC   C3B49041   6.074  13.258   6.902
 3676POPC   C4B49042   5.841  13.362   7.288
 3677POPC   NC349043  44.118  25.170   5.579
 3677POPC   PO449044  44.649  24.996   5.508
 3677POPC   GL149045  44.574  25.190   5.821
 3677POPC   GL249046  44.876  25.358   5.787
 3677POPC   C1A49047  44.654  25.162   6.227
 3677POPC   D2A49048  44.841  25.025   6.546
 3677POPC   C3A49049  44.596  25.204   6.860
 3677POPC   C4A49050  44.696  25.138   7.218
 3677POPC   C1B49051  44.929  25.599   6.148
 3677POPC   C2B49052  44.804  25.571   6.584
 3677POPC   C3B49053  44.858  25.631   7.032
 3677POPC   C4B49054  44.990  25.491   7.395
 3678POPC   NC349055  32.372  31.022   5.279
 3678POPC   PO449056  31.906  31.471   5.132
 3678POPC   GL149057  31.910  31.414   5.664
 3678POPC   GL249058  32.012  31.082   5.743
 3678POPC   C1A49059  32.137  31.471   6.105
 3678POPC   D2A49060  32.351  31.699   6.470
 3678POPC   C3A49061  32.492  31.568   6.895
 3678POPC   C4A49062  32.449  31.696   7.306
 3678POPC   C1B49063  31.775  31.105   6.155
 3678POPC   C2B49064  31.629  31.056   6.613
 3678POPC   C3B49065  31.939  31.126   6.942
 3678POPC   C4B49066  32.306  31.184   7.224
 3679POPC   NC349067  34.872  14.329   5.488
 3679POPC   PO449068  35.322  14.829   5.175
 3679POPC   GL149069  35.371  14.565   5.630
 3679POPC   GL249070  35.700  14.522   5.823
 3679POPC   C1A49071  35.281  14.518   6.100
 3679POPC   D2A49072  35.090  14.646   6.507
 3679POPC   C3A49073  35.333  14.626   6.858
 3679POPC   C4A49074  35.403  14.406   7.250
 3679POPC   C1B49075  35.782  14.657   6.245
 3679POPC   C2B49076  35.814  14.556   6.679
 3679POPC   C3B49077  35.795  14.705   7.106
 3679POPC   C4B49078  35.725  14.666   7.579
 3680POPC   NC349079  25.464  28.070   5.492
 3680POPC   PO449080  25.292  27.485   5.069
 3680POPC   GL149081  25.348  27.539   5.586
 3680POPC   GL249082  25.076  27.753   5.677
 3680POPC   C1A49083  25.354  27.689   6.100
 3680POPC   D2A49084  25.454  27.587   6.552
 3680POPC   C3A49085  25.309  27.700   6.971
 3680POPC   C4A49086  25.580  27.743   7.302
 3680POPC   C1B49087  24.958  27.412   5.971
 3680POPC   C2B49088  24.978  27.411   6.425
 3680POPC   C3B49089  24.903  27.418   6.872
 3680POPC   C4B49090  24.882  27.087   7.163
 3681POPC   NC349091  32.285   7.127   5.466
 3681POPC   PO449092  31.905   7.662   5.523
 3681POPC   GL149093  32.143   7.596   5.911
 3681POPC   GL249094  32.476   7.422   5.881
 3681POPC   C1A49095  32.244   7.766   6.332
 3681POPC   D2A49096  32.183   7.554   6.736
 3681POPC   C3A49097  32.004   7.674   7.131
 3681POPC   C4A49098  32.060   7.486   7.575
 3681POPC   C1B49099  32.405   7.273   6.329
 3681POPC   C2B49100  32.532   7.202   6.789
 3681POPC   C3B49101  32.445   7.370   7.221
 3681POPC   C4B49102  32.489   7.106   7.624
 3682POPC   NC349103  25.717  40.292   5.324
 3682POPC   PO449104  25.126  40.058   5.241
 3682POPC   GL149105  25.237  40.142   5.680
 3682POPC   GL249106  25.436  39.867   5.784
 3682POPC   C1A49107  25.148  40.108   6.159
 3682POPC   D2A49108  25.226  39.892   6.600
 3682POPC   C3A49109  25.061  40.068   7.030
 3682POPC   C4A49110  24.868  40.509   7.154
 3682POPC   C1B49111  25.632  39.941   6.213
 3682POPC   C2B49112  25.745  39.971   6.659
 3682POPC   C3B49113  25.820  39.745   7.042
 3682POPC   C4B49114  25.527  39.926   7.347
 3683POPC   NC349115   3.350  32.928   5.107
 3683POPC   PO449116   2.789  33.021   5.404
 3683POPC   GL149117   2.610  32.980   5.829
 3683POPC   GL249118   2.601  32.661   5.938
 3683POPC   C1A49119   2.742  33.111   6.256
 3683POPC   D2A49120   2.916  33.331   6.614
 3683POPC   C3A49121   2.870  33.139   7.012
 3683POPC   C4A49122   3.132  33.238   7.358
 3683POPC   C1B49123   2.390  32.755   6.298
 3683POPC   C2B49124   2.559  32.800   6.710
 3683POPC   C3B49125   2.688  32.636   7.087
 3683POPC   C4B49126   2.654  32.915   7.431
 3684POPC   NC349127   2.152  34.047   5.107
 3684POPC   PO449128   2.118  33.564   5.521
 3684POPC   GL149129   1.956  33.667   5.907
 3684POPC   GL249130   1.845  33.982   5.896
 3684POPC   C1A49131   1.941  33.640   6.334
 3684POPC   D2A49132   2.126  33.664   6.722
 3684POPC   C3A49133   1.865  33.674   7.053
 3684POPC   C4A49134   1.762  34.065   7.256
 3684POPC   C1B49135   2.010  34.181   6.289
 3684POPC   C2B49136   2.070  34.177   6.771
 3684POPC   C3B49137   2.273  33.999   7.155
 3684POPC   C4B49138   2.311  33.785   7.535
 3685POPC   NC349139  39.725  40.253   5.183
 3685POPC   PO449140  40.355  40.297   5.493
 3685POPC   GL149141  40.212  40.100   5.852
 3685POPC   GL249142  39.850  39.987   5.845
 3685POPC   C1A49143  40.078  40.287   6.252
 3685POPC   D2A49144  39.867  40.189   6.642
 3685POPC   C3A49145  40.021  40.405   7.009
 3685POPC   C4A49146  40.100  40.246   7.434
 3685POPC   C1B49147  40.065  39.782   6.229
 3685POPC   C2B49148  40.309  39.896   6.581
 3685POPC   C3B49149  40.179  39.913   7.004
 3685POPC   C4B49150  40.412  39.830   7.361
 3686POPC   NC349151   6.855  31.544   5.491
 3686POPC   PO449152   6.200  31.674   5.460
 3686POPC   GL149153   6.274  31.493   5.832
 3686POPC   GL249154   6.340  31.152   5.701
 3686POPC   C1A49155   6.447  31.518   6.272
 3686POPC   D2A49156   6.415  31.618   6.738
 3686POPC   C3A49157   6.428  31.894   7.131
 3686POPC   C4A49158   6.484  31.752   7.584
 3686POPC   C1B49159   6.156  31.102   6.114
 3686POPC   C2B49160   6.350  31.059   6.521
 3686POPC   C3B49161   6.218  31.180   6.936
 3686POPC   C4B49162   6.527  31.387   7.202
 3687POPC   NC349163  41.483  38.946   5.580
 3687POPC   PO449164  41.131  39.529   5.444
 3687POPC   GL149165  41.416  39.562   5.825
 3687POPC   GL249166  41.695  39.310   5.847
 3687POPC   C1A49167  41.465  39.425   6.285
 3687POPC   D2A49168  41.307  39.252   6.669
 3687POPC   C3A49169  41.407  39.373   7.090
 3687POPC   C4A49170  41.483  39.039   7.343
 3687POPC   C1B49171  41.912  39.054   6.169
 3687POPC   C2B49172  42.003  39.206   6.559
 3687POPC   C3B49173  41.807  39.137   6.912
 3687POPC   C4B49174  41.957  39.226   7.285
 3688POPC   NC349175   8.842  28.936   5.221
 3688POPC   PO449176   9.404  29.048   5.558
 3688POPC   GL149177   9.101  28.958   5.913
 3688POPC   GL249178   8.764  29.004   5.762
 3688POPC   C1A49179   8.997  29.017   6.369
 3688POPC   D2A49180   8.722  29.097   6.727
 3688POPC   C3A49181   9.002  29.229   7.046
 3688POPC   C4A49182   9.152  29.621   7.230
 3688POPC   C1B49183   8.544  28.909   6.148
 3688POPC   C2B49184   8.504  28.674   6.532
 3688POPC   C3B49185   8.373  28.710   6.955
 3688POPC   C4B49186   8.607  28.950   7.226
 3689POPC   NC349187   6.862  22.408   5.102
 3689POPC   PO449188   7.148  21.946   5.246
 3689POPC   GL149189   7.320  21.916   5.716
 3689POPC   GL249190   7.581  21.657   5.812
 3689POPC   C1A49191   7.490  22.029   6.155
 3689POPC   D2A49192   7.540  21.806   6.555
 3689POPC   C3A49193   7.590  22.101   6.891
 3689POPC   C4A49194   7.568  22.271   7.335
 3689POPC   C1B49195   7.223  21.602   6.145
 3689POPC   C2B49196   7.041  21.826   6.513
 3689POPC   C3B49197   7.080  21.986   6.950
 3689POPC   C4B49198   6.817  22.093   7.323
 3690POPC   NC349199   3.570  23.153   5.065
 3690POPC   PO449200   3.414  22.719   5.493
 3690POPC   GL149201   3.058  22.795   5.797
 3690POPC   GL249202   2.853  22.513   5.788
 3690POPC   C1A49203   3.112  22.867   6.266
 3690POPC   D2A49204   3.375  22.858   6.669
 3690POPC   C3A49205   3.280  22.974   7.136
 3690POPC   C4A49206   3.397  23.012   7.591
 3690POPC   C1B49207   3.059  22.343   6.163
 3690POPC   C2B49208   3.281  22.347   6.570
 3690POPC   C3B49209   3.300  22.473   7.001
 3690POPC   C4B49210   3.570  22.541   7.372
 3691POPC   NC349211  11.463  27.749   5.379
 3691POPC   PO449212  11.565  27.092   5.300
 3691POPC   GL149213  11.349  27.319   5.679
 3691POPC   GL249214  10.967  27.341   5.647
 3691POPC   C1A49215  11.444  27.470   6.123
 3691POPC   D2A49216  11.560  27.326   6.573
 3691POPC   C3A49217  11.477  27.681   6.911
 3691POPC   C4A49218  11.422  27.910   7.322
 3691POPC   C1B49219  10.995  27.215   6.098
 3691POPC   C2B49220  11.081  27.431   6.500
 3691POPC   C3B49221  11.152  27.273   6.929
 3691POPC   C4B49222  10.965  27.369   7.346
 3692POPC   NC349223  12.849  15.278   5.587
 3692POPC   PO449224  12.374  14.862   5.459
 3692POPC   GL149225  12.495  14.962   5.861
 3692POPC   GL249226  12.414  15.303   5.849
 3692POPC   C1A49227  12.483  15.006   6.312
 3692POPC   D2A49228  12.830  15.102   6.578
 3692POPC   C3A49229  12.862  15.242   6.978
 3692POPC   C4A49230  12.896  15.052   7.399
 3692POPC   C1B49231  12.673  15.446   6.186
 3692POPC   C2B49232  12.620  15.587   6.584
 3692POPC   C3B49233  12.574  15.674   6.980
 3692POPC   C4B49234  12.494  15.380   7.291
 3693POPC   NC349235  23.958   1.185   5.203
 3693POPC   PO449236  23.456   0.739   5.296
 3693POPC   GL149237  23.605   1.015   5.675
 3693POPC   GL249238  23.971   1.120   5.719
 3693POPC   C1A49239  23.416   1.195   6.102
 3693POPC   D2A49240  23.587   1.150   6.528
 3693POPC   C3A49241  23.497   1.206   6.977
 3693POPC   C4A49242  23.865   1.138   7.228
 3693POPC   C1B49243  23.947   1.247   6.154
 3693POPC   C2B49244  23.778   1.616   6.421
 3693POPC   C3B49245  23.720   1.677   6.879
 3693POPC   C4B49246  23.532   1.642   7.296
 3694POPC   NC349247  36.927  13.057   5.494
 3694POPC   PO449248  36.532  12.555   5.274
 3694POPC   GL149249  36.725  12.646   5.751
 3694POPC   GL249250  37.083  12.729   5.842
 3694POPC   C1A49251  36.798  12.825   6.233
 3694POPC   D2A49252  37.076  12.958   6.581
 3694POPC   C3A49253  36.803  12.949   6.917
 3694POPC   C4A49254  36.844  12.697   7.259
 3694POPC   C1B49255  37.181  13.135   6.093
 3694POPC   C2B49256  37.484  13.259   6.407
 3694POPC   C3B49257  37.430  13.312   6.846
 3694POPC   C4B49258  37.258  13.024   7.156
 3695POPC   NC349259  20.939  26.987   5.586
 3695POPC   PO449260  20.244  27.139   5.437
 3695POPC   GL149261  20.358  26.837   5.802
 3695POPC   GL249262  20.668  26.616   5.862
 3695POPC   C1A49263  20.319  26.720   6.251
 3695POPC   D2A49264  20.500  26.762   6.691
 3695POPC   C3A49265  20.426  27.021   7.080
 3695POPC   C4A49266  20.180  26.946   7.498
 3695POPC   C1B49267  20.822  26.885   6.238
 3695POPC   C2B49268  21.025  26.866   6.638
 3695POPC   C3B49269  20.902  26.542   6.881
 3695POPC   C4B49270  20.634  26.577   7.199
 3696POPC   NC349271  39.193   2.158   5.345
 3696POPC   PO449272  39.402   1.619   5.179
 3696POPC   GL149273  39.460   1.767   5.646
 3696POPC   GL249274  39.769   1.624   5.852
 3696POPC   C1A49275  39.128   1.840   6.003
 3696POPC   D2A49276  38.844   1.739   6.388
 3696POPC   C3A49277  39.068   1.835   6.779
 3696POPC   C4A49278  39.124   2.185   7.084
 3696POPC   C1B49279  39.612   1.978   6.124
 3696POPC   C2B49280  39.429   2.133   6.531
 3696POPC   C3B49281  39.578   2.019   6.920
 3696POPC   C4B49282  39.879   1.892   7.216
 3697POPC   NC349283  22.014  11.819   5.435
 3697POPC   PO449284  21.809  12.458   5.509
 3697POPC   GL149285  22.186  12.215   5.819
 3697POPC   GL249286  22.312  11.841   5.827
 3697POPC   C1A49287  22.335  12.114   6.272
 3697POPC   D2A49288  22.127  12.354   6.634
 3697POPC   C3A49289  22.216  12.265   7.064
 3697POPC   C4A49290  22.566  12.183   7.324
 3697POPC   C1B49291  21.986  11.768   6.098
 3697POPC   C2B49292  21.939  11.886   6.499
 3697POPC   C3B49293  22.281  11.857   6.776
 3697POPC   C4B49294  22.283  11.756   7.206
 3698POPC   NC349295  17.243  15.617   5.655
 3698POPC   PO449296  17.715  16.065   5.408
 3698POPC   GL149297  17.538  16.203   5.824
 3698POPC   GL249298  17.464  15.913   6.006
 3698POPC   C1A49299  17.497  16.361   6.266
 3698POPC   D2A49300  17.529  16.179   6.691
 3698POPC   C3A49301  17.430  16.234   7.126
 3698POPC   C4A49302  17.301  15.971   7.476
 3698POPC   C1B49303  17.709  15.586   6.226
 3698POPC   C2B49304  17.687  15.686   6.659
 3698POPC   C3B49305  17.422  15.713   7.010
 3698POPC   C4B49306  17.592  15.551   7.356
 3699POPC   NC349307  41.364   5.517   5.211
 3699POPC   PO449308  41.889   5.943   5.297
 3699POPC   GL149309  41.512   5.913   5.590
 3699POPC   GL249310  41.418   5.606   5.707
 3699POPC   C1A49311  41.459   5.973   6.055
 3699POPC   D2A49312  41.282   5.911   6.473
 3699POPC   C3A49313  41.490   5.817   6.823
 3699POPC   C4A49314  41.425   5.885   7.187
 3699POPC   C1B49315  41.254   5.499   6.112
 3699POPC   C2B49316  41.383   5.402   6.525
 3699POPC   C3B49317  41.174   5.449   6.932
 3699POPC   C4B49318  41.470   5.394   7.248
 3700POPC   NC349319  41.338  28.612   5.394
 3700POPC   PO449320  41.636  29.223   5.326
 3700POPC   GL149321  41.768  29.095   5.720
 3700POPC   GL249322  41.471  28.981   5.769
 3700POPC   C1A49323  41.856  29.024   6.159
 3700POPC   D2A49324  41.747  29.251   6.552
 3700POPC   C3A49325  41.700  29.020   6.940
 3700POPC   C4A49326  41.850  28.876   7.329
 3700POPC   C1B49327  41.453  29.338   6.085
 3700POPC   C2B49328  41.285  29.501   6.501
 3700POPC   C3B49329  41.427  29.453   6.950
 3700POPC   C4B49330  41.764  29.425   7.296
 3701POPC   NC349331   4.539  34.966   5.530
 3701POPC   PO449332   4.076  35.441   5.433
 3701POPC   GL149333   4.096  35.237   5.817
 3701POPC   GL249334   4.440  35.208   5.972
 3701POPC   C1A49335   4.020  35.455   6.194
 3701POPC   D2A49336   4.337  35.502   6.495
 3701POPC   C3A49337   4.200  35.615   6.899
 3701POPC   C4A49338   4.351  35.804   7.268
 3701POPC   C1B49339   4.154  34.984   6.283
 3701POPC   C2B49340   4.084  35.103   6.723
 3701POPC   C3B49341   4.347  35.189   7.118
 3701POPC   C4B49342   4.161  34.985   7.455
 3702POPC   NC349343  18.366   8.714   5.365
 3702POPC   PO449344  18.230   9.357   5.448
 3702POPC   GL149345  18.220   8.999   5.768
 3702POPC   GL249346  18.562   8.809   5.828
 3702POPC   C1A49347  18.002   9.001   6.161
 3702POPC   D2A49348  18.163   9.147   6.531
 3702POPC   C3A49349  18.113   9.010   6.939
 3702POPC   C4A49350  18.281   8.709   7.170
 3702POPC   C1B49351  18.563   9.073   6.175
 3702POPC   C2B49352  18.756   9.113   6.570
 3702POPC   C3B49353  18.674   8.887   6.889
 3702POPC   C4B49354  18.585   9.147   7.206
 3703POPC   NC349355  41.946  42.001   5.610
 3703POPC   PO449356  41.558  42.484   5.217
 3703POPC   GL149357  41.631  42.424   5.673
 3703POPC   GL249358  41.308  42.274   5.677
 3703POPC   C1A49359  41.654  42.437   6.163
 3703POPC   D2A49360  41.605  42.653   6.606
 3703POPC   C3A49361  41.709  42.444   7.023
 3703POPC   C4A49362  41.595  42.429   7.501
 3703POPC   C1B49363  41.214  42.136   6.073
 3703POPC   C2B49364  41.222  42.287   6.490
 3703POPC   C3B49365  41.291  42.175   6.912
 3703POPC   C4B49366  41.133  42.361   7.286
 3704POPC   NC349367  20.195   8.818   5.280
 3704POPC   PO449368  19.598   8.954   5.559
 3704POPC   GL149369  19.820   9.069   5.906
 3704POPC   GL249370  19.556   9.310   5.987
 3704POPC   C1A49371  20.045   8.994   6.301
 3704POPC   D2A49372  20.234   8.992   6.714
 3704POPC   C3A49373  20.046   8.819   7.055
 3704POPC   C4A49374  19.955   9.054   7.409
 3704POPC   C1B49375  19.464   8.920   6.241
 3704POPC   C2B49376  19.654   8.819   6.651
 3704POPC   C3B49377  19.600   9.082   7.033
 3704POPC   C4B49378  19.440   8.936   7.419
 3705POPC   NC349379  40.925  26.959   5.378
 3705POPC   PO449380  40.394  27.153   5.586
 3705POPC   GL149381  40.658  26.790   5.793
 3705POPC   GL249382  41.059  26.748   5.832
 3705POPC   C1A49383  40.724  26.635   6.204
 3705POPC   D2A49384  40.867  26.888   6.563
 3705POPC   C3A49385  40.609  26.798   6.919
 3705POPC   C4A49386  40.649  26.659   7.359
 3705POPC   C1B49387  41.270  26.679   6.268
 3705POPC   C2B49388  41.293  26.647   6.749
 3705POPC   C3B49389  41.077  26.816   7.132
 3705POPC   C4B49390  41.114  26.684   7.588
 3706POPC   NC349391   9.155  15.774   5.330
 3706POPC   PO449392   8.746  16.283   5.536
 3706POPC   GL149393   8.971  16.079   5.890
 3706POPC   GL249394   9.219  15.832   5.844
 3706POPC   C1A49395   8.825  15.800   6.257
 3706POPC   D2A49396   8.992  15.681   6.691
 3706POPC   C3A49397   8.743  15.687   7.083
 3706POPC   C4A49398   8.697  16.054   7.338
 3706POPC   C1B49399   9.335  15.793   6.291
 3706POPC   C2B49400   9.469  15.908   6.721
 3706POPC   C3B49401   9.188  15.968   7.083
 3706POPC   C4B49402   9.122  15.747   7.460
 3707POPC   NC349403  38.668  28.743   5.488
 3707POPC   PO449404  38.467  28.069   5.519
 3707POPC   GL149405  38.513  28.227   5.920
 3707POPC   GL249406  38.389  28.560   5.909
 3707POPC   C1A49407  38.233  28.173   6.258
 3707POPC   D2A49408  38.157  28.106   6.694
 3707POPC   C3A49409  38.506  28.213   6.979
 3707POPC   C4A49410  38.463  28.406   7.414
 3707POPC   C1B49411  38.637  28.711   6.209
 3707POPC   C2B49412  38.724  28.503   6.589
 3707POPC   C3B49413  38.705  28.686   6.964
 3707POPC   C4B49414  38.883  28.722   7.310
 3708POPC   NC349415  44.230   1.331   5.543
 3708POPC   PO449416  44.291   0.669   5.449
 3708POPC   GL149417  44.605   0.976   5.623
 3708POPC   GL249418  44.415   0.905   5.898
 3708POPC   C1A49419  44.742   1.263   5.982
 3708POPC   D2A49420  44.568   1.194   6.373
 3708POPC   C3A49421  44.795   1.382   6.723
 3708POPC   C4A49422  44.664   1.551   7.121
 3708POPC   C1B49423  44.838   0.775   6.098
 3708POPC   C2B49424   0.062   0.998   6.406
 3708POPC   C3B49425   0.030   0.957   6.844
 3708POPC   C4B49426  44.853   0.873   7.225
 3709POPC   NC349427  37.839   7.136   5.034
 3709POPC   PO449428  37.387   6.653   5.377
 3709POPC   GL149429  37.474   6.426   5.744
 3709POPC   GL249430  37.761   6.608   5.878
 3709POPC   C1A49431  37.328   6.462   6.178
 3709POPC   D2A49432  37.276   6.741   6.556
 3709POPC   C3A49433  37.591   6.590   6.824
 3709POPC   C4A49434  37.660   6.544   7.251
 3709POPC   C1B49435  38.056   6.643   6.225
 3709POPC   C2B49436  38.163   6.556   6.657
 3709POPC   C3B49437  38.020   6.801   7.017
 3709POPC   C4B49438  37.625   7.041   7.128
 3710POPC   NC349439  14.974  10.393   5.112
 3710POPC   PO449440  15.289  10.855   5.532
 3710POPC   GL149441  15.211  10.667   5.854
 3710POPC   GL249442  14.896  10.566   5.809
 3710POPC   C1A49443  15.174  10.670   6.252
 3710POPC   D2A49444  15.537  10.606   6.490
 3710POPC   C3A49445  15.433  10.516   6.882
 3710POPC   C4A49446  15.211  10.754   7.207
 3710POPC   C1B49447  14.864  10.263   6.178
 3710POPC   C2B49448  15.001  10.321   6.587
 3710POPC   C3B49449  14.914  10.641   6.831
 3710POPC   C4B49450  14.699  10.780   7.196
 3711POPC   NC349451  19.699  40.013   5.400
 3711POPC   PO449452  20.342  40.242   5.416
 3711POPC   GL149453  19.985  40.222   5.752
 3711POPC   GL249454  19.965  39.827   5.794
 3711POPC   C1A49455  19.795  40.211   6.183
 3711POPC   D2A49456  19.537  40.290   6.560
 3711POPC   C3A49457  19.748  40.309   6.986
 3711POPC   C4A49458  20.065  40.055   7.087
 3711POPC   C1B49459  19.572  39.772   6.012
 3711POPC   C2B49460  19.553  39.766   6.478
 3711POPC   C3B49461  19.707  39.726   6.908
 3711POPC   C4B49462  19.617  39.880   7.332
 3712POPC   NC349463  26.311  14.205   5.147
 3712POPC   PO449464  25.891  14.676   5.392
 3712POPC   GL149465  25.806  14.584   5.805
 3712POPC   GL249466  25.918  14.231   5.891
 3712POPC   C1A49467  26.021  14.591   6.227
 3712POPC   D2A49468  26.216  14.790   6.583
 3712POPC   C3A49469  26.173  14.627   7.018
 3712POPC   C4A49470  26.295  14.785   7.401
 3712POPC   C1B49471  25.776  14.130   6.297
 3712POPC   C2B49472  26.050  14.258   6.619
 3712POPC   C3B49473  26.043  14.121   7.010
 3712POPC   C4B49474  25.658  14.182   7.214
 3713POPC   NC349475  36.133  23.959   5.381
 3713POPC   PO449476  35.505  23.979   5.562
 3713POPC   GL149477  35.868  23.856   5.805
 3713POPC   GL249478  36.077  23.610   5.746
 3713POPC   C1A49479  36.198  23.905   6.149
 3713POPC   D2A49480  36.129  23.680   6.523
 3713POPC   C3A49481  36.200  23.827   6.950
 3713POPC   C4A49482  35.916  23.811   7.296
 3713POPC   C1B49483  36.280  23.413   6.050
 3713POPC   C2B49484  36.321  23.244   6.407
 3713POPC   C3B49485  36.254  23.305   6.824
 3713POPC   C4B49486  36.170  23.384   7.216
 3714POPC   NC349487  21.992  39.567   5.407
 3714POPC   PO449488  22.243  40.255   5.379
 3714POPC   GL149489  22.127  40.101   5.796
 3714POPC   GL249490  21.966  39.766   5.873
 3714POPC   C1A49491  22.216  40.234   6.234
 3714POPC   D2A49492  22.221  40.226   6.691
 3714POPC   C3A49493  22.304  39.833   6.835
 3714POPC   C4A49494  22.451  39.887   7.223
 3714POPC   C1B49495  21.989  39.784   6.327
 3714POPC   C2B49496  21.769  40.022   6.647
 3714POPC   C3B49497  21.930  40.068   7.089
 3714POPC   C4B49498  22.046  39.641   7.350
 3715POPC   NC349499  17.289  37.621   5.378
 3715POPC   PO449500  16.751  37.621   5.461
 3715POPC   GL149501  16.996  37.635   5.827
 3715POPC   GL249502  17.216  37.368   5.825
 3715POPC   C1A49503  16.846  37.739   6.245
 3715POPC   D2A49504  16.601  37.806   6.631
 3715POPC   C3A49505  16.745  37.768   7.069
 3715POPC   C4A49506  16.532  37.782   7.460
 3715POPC   C1B49507  17.139  37.313   6.258
 3715POPC   C2B49508  16.865  37.338   6.610
 3715POPC   C3B49509  17.050  37.386   6.986
 3715POPC   C4B49510  16.978  37.451   7.425
 3716POPC   NC349511  37.882  41.884   5.419
 3716POPC   PO449512  37.315  41.573   5.307
 3716POPC   GL149513  37.362  41.538   5.753
 3716POPC   GL249514  37.748  41.516   5.810
 3716POPC   C1A49515  37.452  41.694   6.170
 3716POPC   D2A49516  37.803  41.527   6.399
 3716POPC   C3A49517  37.734  41.472   6.838
 3716POPC   C4A49518  37.725  41.550   7.272
 3716POPC   C1B49519  37.525  41.196   6.117
 3716POPC   C2B49520  37.386  41.200   6.578
 3716POPC   C3B49521  37.435  41.066   7.036
 3716POPC   C4B49522  37.573  41.103   7.489
 3717POPC   NC349523   7.305   2.890   5.001
 3717POPC   PO449524   7.577   2.518   5.526
 3717POPC   GL149525   7.303   2.572   5.870
 3717POPC   GL249526   7.248   2.936   5.862
 3717POPC   C1A49527   7.163   2.716   6.310
 3717POPC   D2A49528   7.174   2.783   6.737
 3717POPC   C3A49529   7.464   2.524   6.966
 3717POPC   C4A49530   7.378   2.732   7.337
 3717POPC   C1B49531   7.625   2.844   6.151
 3717POPC   C2B49532   7.691   2.754   6.581
 3717POPC   C3B49533   7.637   3.007   6.972
 3717POPC   C4B49534   7.822   3.199   7.339
 3718POPC   NC349535   2.102   2.918   5.001
 3718POPC   PO449536   1.810   2.489   5.408
 3718POPC   GL149537   1.816   2.746   5.786
 3718POPC   GL249538   2.187   2.766   5.804
 3718POPC   C1A49539   1.859   2.617   6.229
 3718POPC   D2A49540   2.222   2.693   6.543
 3718POPC   C3A49541   2.007   2.509   6.862
 3718POPC   C4A49542   1.683   2.570   7.152
 3718POPC   C1B49543   2.149   3.026   6.167
 3718POPC   C2B49544   1.857   3.024   6.544
 3718POPC   C3B49545   1.959   2.995   6.971
 3718POPC   C4B49546   1.686   3.078   7.358
 3719POPC   NC349547  10.134  39.824   5.004
 3719POPC   PO449548  10.658  40.046   5.356
 3719POPC   GL149549  10.542  40.153   5.775
 3719POPC   GL249550  10.806  40.382   5.808
 3719POPC   C1A49551  10.436  39.982   6.187
 3719POPC   D2A49552  10.632  39.929   6.588
 3719POPC   C3A49553  10.363  39.940   6.939
 3719POPC   C4A49554  10.508  39.869   7.297
 3719POPC   C1B49555  10.881  40.248   6.233
 3719POPC   C2B49556  10.754  40.444   6.629
 3719POPC   C3B49557  10.737  40.279   7.023
 3719POPC   C4B49558  11.003  40.038   7.279
 3720POPC   NC349559  26.172  35.625   5.546
 3720POPC   PO449560  26.098  36.228   5.349
 3720POPC   GL149561  25.911  36.132   5.707
 3720POPC   GL249562  25.700  35.840   5.639
 3720POPC   C1A49563  26.107  36.217   6.110
 3720POPC   D2A49564  26.029  36.452   6.488
 3720POPC   C3A49565  26.091  36.230   6.871
 3720POPC   C4A49566  26.098  36.391   7.284
 3720POPC   C1B49567  25.854  35.769   6.085
 3720POPC   C2B49568  25.835  35.964   6.478
 3720POPC   C3B49569  25.688  35.885   6.877
 3720POPC   C4B49570  25.839  35.960   7.293
 3721POPC   NC349571  25.582  34.803   5.471
 3721POPC   PO449572  26.267  34.611   5.322
 3721POPC   GL149573  26.158  34.558   5.782
 3721POPC   GL249574  25.799  34.526   5.839
 3721POPC   C1A49575  26.120  34.410   6.242
 3721POPC   D2A49576  26.214  34.182   6.629
 3721POPC   C3A49577  26.422  34.405   6.946
 3721POPC   C4A49578  26.313  34.715   7.234
 3721POPC   C1B49579  25.722  34.778   6.185
 3721POPC   C2B49580  25.700  34.698   6.615
 3721POPC   C3B49581  25.909  34.544   6.977
 3721POPC   C4B49582  25.759  34.566   7.367
 3722POPC   NC349583  28.463  20.393   5.359
 3722POPC   PO449584  28.341  20.937   5.482
 3722POPC   GL149585  28.678  20.705   5.755
 3722POPC   GL249586  28.729  20.313   5.791
 3722POPC   C1A49587  28.811  20.646   6.189
 3722POPC   D2A49588  28.639  20.538   6.601
 3722POPC   C3A49589  28.655  20.690   7.028
 3722POPC   C4A49590  28.346  20.865   7.316
 3722POPC   C1B49591  28.767  20.080   6.211
 3722POPC   C2B49592  28.685  20.036   6.680
 3722POPC   C3B49593  28.390  20.233   7.011
 3722POPC   C4B49594  28.192  20.366   7.404
 3723POPC   NC349595  41.272  43.964   5.312
 3723POPC   PO449596  41.807  44.011   5.613
 3723POPC   GL149597  41.583  43.897   5.926
 3723POPC   GL249598  41.232  43.807   5.803
 3723POPC   C1A49599  41.687  43.960   6.371
 3723POPC   D2A49600  41.680  43.717   6.756
 3723POPC   C3A49601  41.911  43.899   7.093
 3723POPC   C4A49602  41.913  43.937   7.543
 3723POPC   C1B49603  41.192  43.923   6.257
 3723POPC   C2B49604  41.271  44.024   6.684
 3723POPC   C3B49605  41.217  43.785   7.052
 3723POPC   C4B49606  41.527  43.608   7.319
 3724POPC   NC349607  31.993  41.773   5.425
 3724POPC   PO449608  32.425  41.246   5.085
 3724POPC   GL149609  32.177  41.334   5.563
 3724POPC   GL249610  32.321  41.634   5.783
 3724POPC   C1A49611  32.066  41.353   6.091
 3724POPC   D2A49612  31.975  41.558   6.523
 3724POPC   C3A49613  32.135  41.425   6.953
 3724POPC   C4A49614  32.417  41.611   7.240
 3724POPC   C1B49615  32.251  41.858   6.168
 3724POPC   C2B49616  32.180  42.031   6.583
 3724POPC   C3B49617  32.056  41.939   6.986
 3724POPC   C4B49618  31.940  41.741   7.360
 3725POPC   NC349619  21.122  33.260   5.020
 3725POPC   PO449620  21.283  32.819   5.474
 3725POPC   GL149621  21.359  32.846   5.847
 3725POPC   GL249622  21.679  32.779   5.820
 3725POPC   C1A49623  21.385  33.077   6.190
 3725POPC   D2A49624  21.144  32.992   6.527
 3725POPC   C3A49625  21.272  33.266   6.822
 3725POPC   C4A49626  21.396  33.011   7.147
 3725POPC   C1B49627  21.678  32.630   6.203
 3725POPC   C2B49628  21.663  32.849   6.557
 3725POPC   C3B49629  21.704  32.634   6.921
 3725POPC   C4B49630  21.817  32.788   7.290
 3726POPC   NC349631  40.055  39.310   5.148
 3726POPC   PO449632  39.488  39.006   5.339
 3726POPC   GL149633  39.809  39.141   5.603
 3726POPC   GL249634  39.779  39.505   5.553
 3726POPC   C1A49635  40.032  39.027   5.993
 3726POPC   D2A49636  39.971  39.054   6.444
 3726POPC   C3A49637  40.035  38.887   6.865
 3726POPC   C4A49638  40.263  39.028   7.213
 3726POPC   C1B49639  39.713  39.497   6.003
 3726POPC   C2B49640  39.663  39.529   6.453
 3726POPC   C3B49641  39.944  39.447   6.794
 3726POPC   C4B49642  40.018  39.468   7.211
 3727POPC   NC349643  42.289  13.209   5.225
 3727POPC   PO449644  42.310  12.562   5.263
 3727POPC   GL149645  42.238  12.778   5.669
 3727POPC   GL249646  42.351  13.116   5.722
 3727POPC   C1A49647  42.405  12.752   6.135
 3727POPC   D2A49648  42.184  12.680   6.551
 3727POPC   C3A49649  42.269  12.757   6.983
 3727POPC   C4A49650  42.227  12.627   7.470
 3727POPC   C1B49651  42.234  13.264   6.136
 3727POPC   C2B49652  42.180  13.182   6.554
 3727POPC   C3B49653  42.427  13.237   6.926
 3727POPC   C4B49654  42.326  13.106   7.341
 3728POPC   NC349655  39.752  44.617   5.293
 3728POPC   PO449656  40.422  44.706   5.345
 3728POPC   GL149657  40.105  44.700   5.691
 3728POPC   GL249658  39.886   0.006   5.624
 3728POPC   C1A49659  39.881  44.596   6.108
 3728POPC   D2A49660  39.709  44.587   6.556
 3728POPC   C3A49661  39.920  44.499   6.973
 3728POPC   C4A49662  39.825  44.650   7.409
 3728POPC   C1B49663  39.827   0.103   6.068
 3728POPC   C2B49664  40.018  44.982   6.447
 3728POPC   C3B49665  39.984  44.987   6.877
 3728POPC   C4B49666  40.279  44.797   7.210
 3729POPC   NC349667  40.283   6.917   5.389
 3729POPC   PO449668  39.828   6.477   5.248
 3729POPC   GL149669  40.026   6.512   5.601
 3729POPC   GL249670  39.920   6.823   5.738
 3729POPC   C1A49671  40.119   6.403   5.999
 3729POPC   D2A49672  39.961   6.418   6.417
 3729POPC   C3A49673  40.203   6.478   6.813
 3729POPC   C4A49674  40.144   6.454   7.250
 3729POPC   C1B49675  40.052   6.875   6.182
 3729POPC   C2B49676  39.947   6.916   6.630
 3729POPC   C3B49677  40.149   7.015   7.006
 3729POPC   C4B49678  40.486   6.821   7.201
 3730POPC   NC349679  32.166  23.468   5.367
 3730POPC   PO449680  32.396  23.998   5.411
 3730POPC   GL149681  32.223  23.730   5.809
 3730POPC   GL249682  31.928  23.470   5.829
 3730POPC   C1A49683  32.288  23.862   6.243
 3730POPC   D2A49684  32.062  24.046   6.587
 3730POPC   C3A49685  32.171  23.962   6.987
 3730POPC   C4A49686  32.131  23.749   7.377
 3730POPC   C1B49687  32.116  23.385   6.244
 3730POPC   C2B49688  32.217  23.544   6.676
 3730POPC   C3B49689  32.407  23.455   7.086
 3730POPC   C4B49690  32.452  23.394   7.564
 3731POPC   NC349691  34.990  22.929   5.442
 3731POPC   PO449692  34.332  22.991   5.402
 3731POPC   GL149693  34.468  23.034   5.838
 3731POPC   GL249694  34.650  22.729   5.792
 3731POPC   C1A49695  34.618  22.956   6.293
 3731POPC   D2A49696  34.691  22.931   6.791
 3731POPC   C3A49697  34.587  23.049   7.250
 3731POPC   C4A49698  34.407  23.231   7.666
 3731POPC   C1B49699  34.986  22.686   6.093
 3731POPC   C2B49700  34.905  22.537   6.500
 3731POPC   C3B49701  35.043  22.580   6.917
 3731POPC   C4B49702  34.806  22.595   7.294
 3732POPC   NC349703   7.236  16.377   5.544
 3732POPC   PO449704   7.169  15.751   5.551
 3732POPC   GL149705   7.363  15.767   5.956
 3732POPC   GL249706   7.697  15.956   5.957
 3732POPC   C1A49707   7.323  15.931   6.388
 3732POPC   D2A49708   7.507  16.213   6.714
 3732POPC   C3A49709   7.468  16.118   7.146
 3732POPC   C4A49710   7.159  16.395   7.323
 3732POPC   C1B49711   7.738  15.657   6.314
 3732POPC   C2B49712   7.604  15.719   6.778
 3732POPC   C3B49713   7.791  15.675   7.183
 3732POPC   C4B49714   7.934  15.427   7.548
 3733POPC   NC349715   4.352  16.006   4.980
 3733POPC   PO449716   4.860  15.856   5.495
 3733POPC   GL149717   4.608  15.895   5.846
 3733POPC   GL249718   4.292  16.087   5.803
 3733POPC   C1A49719   4.422  15.838   6.258
 3733POPC   D2A49720   4.126  16.134   6.424
 3733POPC   C3A49721   4.009  16.199   6.846
 3733POPC   C4A49722   3.979  16.035   7.240
 3733POPC   C1B49723   4.518  16.319   6.158
 3733POPC   C2B49724   4.660  16.189   6.558
 3733POPC   C3B49725   4.514  16.332   6.941
 3733POPC   C4B49726   4.496  16.177   7.353
 3734POPC   NC349727  39.926  25.849   5.342
 3734POPC   PO449728  39.783  26.452   5.456
 3734POPC   GL149729  39.847  26.137   5.805
 3734POPC   GL249730  40.116  25.949   5.852
 3734POPC   C1A49731  39.670  25.804   6.090
 3734POPC   D2A49732  39.517  25.855   6.526
 3734POPC   C3A49733  39.691  26.202   6.737
 3734POPC   C4A49734  39.899  26.177   7.134
 3734POPC   C1B49735  40.026  26.067   6.316
 3734POPC   C2B49736  40.177  25.973   6.709
 3734POPC   C3B49737  40.099  25.707   7.046
 3734POPC   C4B49738  40.310  25.953   7.303
 3735POPC   NC349739  15.702  31.763   5.353
 3735POPC   PO449740  16.321  31.397   5.366
 3735POPC   GL149741  16.208  31.425   5.814
 3735POPC   GL249742  15.861  31.579   5.818
 3735POPC   C1A49743  16.033  31.299   6.245
 3735POPC   D2A49744  16.013  31.050   6.651
 3735POPC   C3A49745  15.995  31.302   7.025
 3735POPC   C4A49746  16.266  31.288   7.328
 3735POPC   C1B49747  15.636  31.618   6.208
 3735POPC   C2B49748  15.711  31.492   6.629
 3735POPC   C3B49749  15.576  31.623   7.034
 3735POPC   C4B49750  15.519  31.426   7.425
 3736POPC   NC349751   2.436  20.031   5.431
 3736POPC   PO449752   3.012  19.650   5.392
 3736POPC   GL149753   2.663  19.624   5.689
 3736POPC   GL249754   2.780  19.325   5.850
 3736POPC   C1A49755   2.543  19.806   6.129
 3736POPC   D2A49756   2.568  19.681   6.592
 3736POPC   C3A49757   2.708  19.852   7.018
 3736POPC   C4A49758   2.540  20.087   7.417
 3736POPC   C1B49759   2.949  19.514   6.252
 3736POPC   C2B49760   3.074  19.749   6.647
 3736POPC   C3B49761   3.199  19.613   7.039
 3736POPC   C4B49762   2.842  19.353   7.142
 3737POPC   NC349763  27.973  40.143   5.493
 3737POPC   PO449764  27.397  39.765   5.381
 3737POPC   GL149765  27.603  39.900   5.768
 3737POPC   GL249766  27.628  40.287   5.829
 3737POPC   C1A49767  27.686  39.774   6.196
 3737POPC   D2A49768  27.878  40.051   6.488
 3737POPC   C3A49769  27.892  39.982   6.908
 3737POPC   C4A49770  27.668  39.840   7.217
 3737POPC   C1B49771  27.339  40.167   6.139
 3737POPC   C2B49772  27.364  40.005   6.549
 3737POPC   C3B49773  27.271  39.775   6.895
 3737POPC   C4B49774  27.210  40.044   7.205
 3738POPC   NC349775   2.312  33.054   5.414
 3738POPC   PO449776   1.701  33.284   5.314
 3738POPC   GL149777   1.896  33.167   5.761
 3738POPC   GL249778   2.078  32.851   5.841
 3738POPC   C1A49779   2.236  33.256   6.103
 3738POPC   D2A49780   2.292  33.212   6.552
 3738POPC   C3A49781   1.895  33.211   6.788
 3738POPC   C4A49782   1.817  33.127   7.219
 3738POPC   C1B49783   1.901  32.903   6.275
 3738POPC   C2B49784   2.040  32.735   6.696
 3738POPC   C3B49785   2.205  32.823   7.147
 3738POPC   C4B49786   2.004  32.628   7.524
 3739POPC   NC349787  15.371   6.215   5.584
 3739POPC   PO449788  15.199   6.859   5.406
 3739POPC   GL149789  15.203   6.684   5.824
 3739POPC   GL249790  14.968   6.410   5.828
 3739POPC   C1A49791  15.355   6.607   6.254
 3739POPC   D2A49792  15.311   6.378   6.651
 3739POPC   C3A49793  15.222   6.617   7.007
 3739POPC   C4A49794  14.897   6.900   7.169
 3739POPC   C1B49795  15.073   6.176   6.216
 3739POPC   C2B49796  15.032   5.930   6.583
 3739POPC   C3B49797  14.946   6.166   6.957
 3739POPC   C4B49798  14.980   6.363   7.366
 3740POPC   NC349799  19.206  19.160   5.126
 3740POPC   PO449800  18.860  18.681   5.421
 3740POPC   GL149801  19.042  18.903   5.766
 3740POPC   GL249802  19.105  19.239   5.651
 3740POPC   C1A49803  19.397  19.043   6.044
 3740POPC   D2A49804  19.438  19.303   6.408
 3740POPC   C3A49805  19.397  19.189   6.824
 3740POPC   C4A49806  19.185  19.039   7.174
 3740POPC   C1B49807  18.970  19.324   6.124
 3740POPC   C2B49808  18.966  19.386   6.607
 3740POPC   C3B49809  18.919  19.445   7.077
 3740POPC   C4B49810  18.628  19.262   7.396
 3741POPC   NC349811  22.504  34.361   5.585
 3741POPC   PO449812  23.034  34.492   5.136
 3741POPC   GL149813  22.921  34.661   5.600
 3741POPC   GL249814  22.972  34.344   5.809
 3741POPC   C1A49815  23.058  34.763   6.078
 3741POPC   D2A49816  23.047  34.483   6.482
 3741POPC   C3A49817  23.017  34.701   6.899
 3741POPC   C4A49818  22.766  35.028   7.098
 3741POPC   C1B49819  22.718  34.115   6.149
 3741POPC   C2B49820  22.625  34.021   6.562
 3741POPC   C3B49821  22.776  34.201   6.957
 3741POPC   C4B49822  23.134  34.310   7.224
 3742POPC   NC349823  33.886  23.092   5.377
 3742POPC   PO449824  33.405  22.627   5.306
 3742POPC   GL149825  33.645  22.749   5.709
 3742POPC   GL249826  34.031  22.749   5.759
 3742POPC   C1A49827  33.575  22.885   6.138
 3742POPC   D2A49828  33.724  23.111   6.511
 3742POPC   C3A49829  33.853  22.796   6.817
 3742POPC   C4A49830  33.689  22.671   7.199
 3742POPC   C1B49831  34.108  22.867   6.198
 3742POPC   C2B49832  34.230  23.068   6.580
 3742POPC   C3B49833  34.187  23.156   6.974
 3742POPC   C4B49834  34.087  22.959   7.354
 3743POPC   NC349835   9.550  37.752   5.337
 3743POPC   PO449836  10.169  37.822   5.526
 3743POPC   GL149837   9.816  37.837   5.791
 3743POPC   GL249838   9.549  38.091   5.726
 3743POPC   C1A49839   9.662  37.653   6.189
 3743POPC   D2A49840   9.535  37.496   6.615
 3743POPC   C3A49841   9.820  37.564   6.979
 3743POPC   C4A49842  10.117  37.833   7.207
 3743POPC   C1B49843   9.681  38.160   6.152
 3743POPC   C2B49844   9.582  38.016   6.580
 3743POPC   C3B49845   9.468  37.930   7.029
 3743POPC   C4B49846   9.666  37.795   7.440
 3744POPC   NC349847  29.560  36.212   5.606
 3744POPC   PO449848  28.853  36.186   5.341
 3744POPC   GL149849  28.935  36.084   5.795
 3744POPC   GL249850  29.188  36.305   5.958
 3744POPC   C1A49851  28.875  36.053   6.276
 3744POPC   D2A49852  29.146  35.907   6.647
 3744POPC   C3A49853  29.144  36.161   7.025
 3744POPC   C4A49854  28.749  36.215   7.221
 3744POPC   C1B49855  29.349  35.899   6.160
 3744POPC   C2B49856  29.627  35.782   6.525
 3744POPC   C3B49857  29.598  35.867   6.955
 3744POPC   C4B49858  29.502  35.985   7.384
 3745POPC   NC349859  39.515  42.027   5.612
 3745POPC   PO449860  38.899  42.169   5.302
 3745POPC   GL149861  39.050  42.187   5.748
 3745POPC   GL249862  39.306  42.466   5.796
 3745POPC   C1A49863  39.184  42.099   6.205
 3745POPC   D2A49864  39.184  41.949   6.651
 3745POPC   C3A49865  38.985  42.196   6.958
 3745POPC   C4A49866  39.042  42.326   7.391
 3745POPC   C1B49867  39.565  42.462   6.176
 3745POPC   C2B49868  39.405  42.424   6.606
 3745POPC   C3B49869  39.482  42.334   7.026
 3745POPC   C4B49870  39.543  42.648   7.333
 3746POPC   NC349871   1.476  27.694   5.398
 3746POPC   PO449872   2.211  27.642   5.546
 3746POPC   GL149873   1.978  27.558   5.871
 3746POPC   GL249874   1.679  27.425   5.790
 3746POPC   C1A49875   2.072  27.640   6.274
 3746POPC   D2A49876   2.164  27.848   6.626
 3746POPC   C3A49877   2.175  27.556   6.941
 3746POPC   C4A49878   2.187  27.646   7.383
 3746POPC   C1B49879   1.572  27.499   6.232
 3746POPC   C2B49880   1.762  27.443   6.646
 3746POPC   C3B49881   1.713  27.481   7.116
 3746POPC   C4B49882   1.690  27.781   7.469
 3747POPC   NC349883  41.377  13.269   5.327
 3747POPC   PO449884  41.022  13.844   5.559
 3747POPC   GL149885  41.352  13.679   5.795
 3747POPC   GL249886  41.373  13.334   5.835
 3747POPC   C1A49887  41.460  13.743   6.211
 3747POPC   D2A49888  41.269  13.700   6.576
 3747POPC   C3A49889  41.442  13.564   6.923
 3747POPC   C4A49890  41.674  13.825   7.159
 3747POPC   C1B49891  41.706  13.313   6.137
 3747POPC   C2B49892  41.775  13.475   6.547
 3747POPC   C3B49893  41.902  13.325   6.959
 3747POPC   C4B49894  42.012  13.509   7.331
 3748POPC   NC349895   9.860  42.778   5.327
 3748POPC   PO449896   9.661  42.157   5.484
 3748POPC   GL149897   9.703  42.469   5.787
 3748POPC   GL249898   9.360  42.485   5.843
 3748POPC   C1A49899   9.697  42.464   6.257
 3748POPC   D2A49900   9.790  42.097   6.518
 3748POPC   C3A49901   9.889  42.082   6.972
 3748POPC   C4A49902   9.839  42.442   7.223
 3748POPC   C1B49903   9.434  42.082   6.082
 3748POPC   C2B49904   9.287  42.010   6.493
 3748POPC   C3B49905   9.396  42.205   6.881
 3748POPC   C4B49906   9.495  42.036   7.292
 3749POPC   NC349907  38.061  44.985   5.437
 3749POPC   PO449908  38.653  44.662   5.438
 3749POPC   GL149909  38.476  44.751   5.820
 3749POPC   GL249910  38.147  44.658   5.926
 3749POPC   C1A49911  38.662  44.732   6.206
 3749POPC   D2A49912  38.638  44.941   6.600
 3749POPC   C3A49913  38.437  44.668   6.853
 3749POPC   C4A49914  38.387  44.511   7.245
 3749POPC   C1B49915  38.203  44.924   6.297
 3749POPC   C2B49916  38.062   0.024   6.700
 3749POPC   C3B49917  38.008  44.849   7.113
 3749POPC   C4B49918  37.771  44.922   7.522
 3750POPC   NC349919  33.424  26.495   5.193
 3750POPC   PO449920  32.953  26.657   5.635
 3750POPC   GL149921  32.999  26.917   5.917
 3750POPC   GL249922  33.217  27.168   5.770
 3750POPC   C1A49923  33.043  26.768   6.318
 3750POPC   D2A49924  32.995  26.816   6.729
 3750POPC   C3A49925  33.205  26.551   6.993
 3750POPC   C4A49926  32.955  26.705   7.305
 3750POPC   C1B49927  33.359  27.155   6.204
 3750POPC   C2B49928  33.488  27.017   6.632
 3750POPC   C3B49929  33.313  27.044   7.057
 3750POPC   C4B49930  33.364  26.907   7.499
 3751POPC   NC349931  28.424  36.328   5.457
 3751POPC   PO449932  27.830  36.086   5.569
 3751POPC   GL149933  28.196  36.034   5.837
 3751POPC   GL249934  28.471  35.866   5.697
 3751POPC   C1A49935  28.321  36.174   6.260
 3751POPC   D2A49936  28.517  36.134   6.666
 3751POPC   C3A49937  28.270  36.013   7.055
 3751POPC   C4A49938  28.308  36.114   7.507
 3751POPC   C1B49939  28.513  35.718   6.137
 3751POPC   C2B49940  28.712  35.639   6.533
 3751POPC   C3B49941  28.731  35.770   6.935
 3751POPC   C4B49942  28.612  35.728   7.332
 3752POPC   NC349943  20.489   9.697   5.255
 3752POPC   PO449944  20.919  10.051   5.631
 3752POPC   GL149945  20.699   9.720   5.798
 3752POPC   GL249946  20.973   9.522   5.933
 3752POPC   C1A49947  20.586   9.780   6.219
 3752POPC   D2A49948  20.756   9.809   6.622
 3752POPC   C3A49949  20.389   9.884   6.848
 3752POPC   C4A49950  20.243   9.887   7.278
 3752POPC   C1B49951  21.126   9.866   6.218
 3752POPC   C2B49952  21.245  10.023   6.629
 3752POPC   C3B49953  21.067   9.930   7.035
 3752POPC   C4B49954  20.697   9.622   7.138
 3753POPC   NC349955  23.936  44.479   5.335
 3753POPC   PO449956  23.290  44.471   5.152
 3753POPC   GL149957  23.501  44.527   5.635
 3753POPC   GL249958  23.775  44.804   5.711
 3753POPC   C1A49959  23.519  44.584   6.136
 3753POPC   D2A49960  23.611  44.821   6.561
 3753POPC   C3A49961  23.526  44.622   6.982
 3753POPC   C4A49962  23.440  44.217   7.183
 3753POPC   C1B49963  23.977  44.840   6.147
 3753POPC   C2B49964  24.039  44.562   6.538
 3753POPC   C3B49965  24.035  44.647   6.974
 3753POPC   C4B49966  24.253  44.979   7.175
 3754POPC   NC349967  44.470  18.826   5.455
 3754POPC   PO449968   0.024  19.087   5.531
 3754POPC   GL149969  44.706  18.998   5.883
 3754POPC   GL249970  44.555  18.613   5.896
 3754POPC   C1A49971  44.757  19.214   6.280
 3754POPC   D2A49972   0.080  19.317   6.582
 3754POPC   C3A49973  44.796  19.338   6.939
 3754POPC   C4A49974  44.562  19.176   7.326
 3754POPC   C1B49975  44.590  18.730   6.324
 3754POPC   C2B49976  44.819  18.875   6.665
 3754POPC   C3B49977  44.739  18.789   7.088
 3754POPC   C4B49978  44.389  18.694   7.389
 3755POPC   NC349979  42.941  31.030   5.446
 3755POPC   PO449980  43.314  30.503   5.678
 3755POPC   GL149981  42.903  30.510   5.794
 3755POPC   GL249982  42.950  30.836   5.896
 3755POPC   C1A49983  42.756  30.548   6.252
 3755POPC   D2A49984  42.976  30.569   6.638
 3755POPC   C3A49985  42.759  30.486   7.041
 3755POPC   C4A49986  42.828  30.575   7.471
 3755POPC   C1B49987  43.145  30.929   6.252
 3755POPC   C2B49988  43.334  30.933   6.638
 3755POPC   C3B49989  43.117  30.880   7.016
 3755POPC   C4B49990  43.268  30.831   7.374
 3756POPC   NC349991   1.423   3.450   5.507
 3756POPC   PO449992   2.008   3.736   5.324
 3756POPC   GL149993   1.896   3.612   5.713
 3756POPC   GL249994   2.015   3.264   5.712
 3756POPC   C1A49995   1.819   3.836   6.089
 3756POPC   D2A49996   1.976   3.980   6.482
 3756POPC   C3A49997   2.112   3.787   6.811
 3756POPC   C4A49998   1.791   3.909   7.092
 3756POPC   C1B49999   1.739   3.306   6.089
 3756POPC   C2B50000   1.783   3.507   6.479
 3756POPC   C3B50001   1.756   3.435   6.895
 3756POPC   C4B50002   2.087   3.451   7.207
 3757POPC   NC350003  39.676  10.801   5.353
 3757POPC   PO450004  39.527  10.204   5.146
 3757POPC   GL150005  39.298  10.211   5.595
 3757POPC   GL250006  38.953  10.332   5.735
 3757POPC   C1A50007  39.326  10.384   6.059
 3757POPC   D2A50008  39.108  10.409   6.486
 3757POPC   C3A50009  39.363  10.459   6.876
 3757POPC   C4A50010  39.444  10.764   7.215
 3757POPC   C1B50011  38.931  10.721   6.071
 3757POPC   C2B50012  38.826  10.874   6.512
 3757POPC   C3B50013  38.943  10.747   6.931
 3757POPC   C4B50014  38.803  10.751   7.376
 3758POPC   NC350015  38.009  37.570   5.437
 3758POPC   PO450016  37.711  38.112   5.144
 3758POPC   GL150017  37.647  37.786   5.685
 3758POPC   GL250018  37.961  37.742   5.898
 3758POPC   C1A50019  37.534  37.725   6.145
 3758POPC   D2A50020  37.428  37.592   6.561
 3758POPC   C3A50021  37.589  37.867   6.897
 3758POPC   C4A50022  37.445  37.831   7.307
 3758POPC   C1B50023  38.037  37.819   6.293
 3758POPC   C2B50024  37.953  37.592   6.654
 3758POPC   C3B50025  38.068  37.667   7.047
 3758POPC   C4B50026  37.972  37.802   7.430
 3759POPC   NC350027  12.552  21.766   5.470
 3759POPC   PO450028  11.931  21.598   5.487
 3759POPC   GL150029  11.627  21.458   5.849
 3759POPC   GL250030  11.614  21.072   5.912
 3759POPC   C1A50031  11.770  21.424   6.281
 3759POPC   D2A50032  12.140  21.539   6.499
 3759POPC   C3A50033  12.051  21.662   6.906
 3759POPC   C4A50034  11.828  21.542   7.264
 3759POPC   C1B50035  11.739  20.857   6.277
 3759POPC   C2B50036  11.975  21.041   6.612
 3759POPC   C3B50037  12.113  21.156   7.019
 3759POPC   C4B50038  12.067  21.114   7.442
 3760POPC   NC350039  22.753  30.854   5.492
 3760POPC   PO450040  23.445  30.603   5.598
 3760POPC   GL150041  23.035  30.621   5.842
 3760POPC   GL250042  22.751  30.396   5.723
 3760POPC   C1A50043  22.807  30.875   6.164
 3760POPC   D2A50044  22.999  30.966   6.544
 3760POPC   C3A50045  22.813  30.883   6.929
 3760POPC   C4A50046  23.024  30.627   7.229
 3760POPC   C1B50047  22.630  30.389   6.145
 3760POPC   C2B50048  22.812  30.459   6.535
 3760POPC   C3B50049  22.688  30.389   6.937
 3760POPC   C4B50050  22.745  30.184   7.356
 3761POPC   NC350051   8.690  13.418   5.595
 3761POPC   PO450052   9.092  12.932   5.301
 3761POPC   GL150053   8.991  13.008   5.750
 3761POPC   GL250054   8.724  12.744   5.699
 3761POPC   C1A50055   9.073  13.189   6.230
 3761POPC   D2A50056   8.926  13.217   6.711
 3761POPC   C3A50057   9.141  13.117   7.120
 3761POPC   C4A50058   9.206  13.012   7.570
 3761POPC   C1B50059   8.773  12.777   6.142
 3761POPC   C2B50060   8.962  12.740   6.538
 3761POPC   C3B50061   8.825  12.739   6.942
 3761POPC   C4B50062   8.678  12.853   7.335
 3762POPC   NC350063   6.188  37.804   5.524
 3762POPC   PO450064   5.631  37.582   5.323
 3762POPC   GL150065   5.816  37.489   5.718
 3762POPC   GL250066   5.535  37.539   5.929
 3762POPC   C1A50067   6.009  37.620   6.132
 3762POPC   D2A50068   5.807  37.708   6.538
 3762POPC   C3A50069   6.081  37.692   6.881
 3762POPC   C4A50070   6.138  37.511   7.264
 3762POPC   C1B50071   5.630  37.288   6.280
 3762POPC   C2B50072   5.513  37.311   6.697
 3762POPC   C3B50073   5.686  37.388   7.041
 3762POPC   C4B50074   5.689  37.749   7.233
 3763POPC   NC350075  27.174  16.926   5.209
 3763POPC   PO450076  26.704  16.466   5.432
 3763POPC   GL150077  26.873  16.749   5.752
 3763POPC   GL250078  27.152  17.013   5.722
 3763POPC   C1A50079  26.724  16.621   6.158
 3763POPC   D2A50080  26.874  16.374   6.501
 3763POPC   C3A50081  26.866  16.547   6.906
 3763POPC   C4A50082  26.786  16.827   7.237
 3763POPC   C1B50083  26.995  17.053   6.157
 3763POPC   C2B50084  26.856  16.922   6.550
 3763POPC   C3B50085  26.934  17.159   6.891
 3763POPC   C4B50086  27.268  17.348   7.070
 3764POPC   NC350087  16.424  44.499   5.402
 3764POPC   PO450088  17.032  44.616   5.430
 3764POPC   GL150089  16.795  44.460   5.770
 3764POPC   GL250090  16.570  44.721   5.878
 3764POPC   C1A50091  16.925  44.529   6.206
 3764POPC   D2A50092  16.693  44.694   6.511
 3764POPC   C3A50093  16.787  44.632   6.936
 3764POPC   C4A50094  16.481  44.754   7.246
 3764POPC   C1B50095  16.449  44.343   6.166
 3764POPC   C2B50096  16.585  44.185   6.599
 3764POPC   C3B50097  16.443  44.270   7.071
 3764POPC   C4B50098  16.124  44.364   7.423
 3765POPC   NC350099  18.146  37.399   5.390
 3765POPC   PO450100  18.514  37.986   5.478
 3765POPC   GL150101  18.418  37.789   5.881
 3765POPC   GL250102  18.407  37.436   5.849
 3765POPC   C1A50103  18.154  37.772   6.286
 3765POPC   D2A50104  17.940  37.801   6.716
 3765POPC   C3A50105  18.273  37.826   7.039
 3765POPC   C4A50106  18.597  37.560   7.198
 3765POPC   C1B50107  18.264  37.280   6.260
 3765POPC   C2B50108  18.111  37.324   6.699
 3765POPC   C3B50109  18.093  37.354   7.144
 3765POPC   C4B50110  18.388  37.147   7.451
 3766POPC   NC350111   6.304   2.204   5.356
 3766POPC   PO450112   6.492   2.860   5.127
 3766POPC   GL150113   6.418   2.831   5.623
 3766POPC   GL250114   6.529   2.495   5.755
 3766POPC   C1A50115   6.493   3.097   6.058
 3766POPC   D2A50116   6.800   3.094   6.434
 3766POPC   C3A50117   6.691   3.010   6.890
 3766POPC   C4A50118   6.890   2.719   7.192
 3766POPC   C1B50119   6.670   2.616   6.174
 3766POPC   C2B50120   6.440   2.701   6.557
 3766POPC   C3B50121   6.389   2.588   7.007
 3766POPC   C4B50122   6.621   2.284   7.247
 3767POPC   NC350123  30.872  29.747   5.426
 3767POPC   PO450124  30.241  29.945   5.494
 3767POPC   GL150125  30.554  30.026   5.794
 3767POPC   GL250126  30.575  29.692   5.849
 3767POPC   C1A50127  30.653  30.000   6.258
 3767POPC   D2A50128  30.421  30.077   6.653
 3767POPC   C3A50129  30.700  30.001   7.006
 3767POPC   C4A50130  31.130  30.130   6.972
 3767POPC   C1B50131  30.921  29.569   6.121
 3767POPC   C2B50132  31.074  29.609   6.531
 3767POPC   C3B50133  30.908  29.532   6.921
 3767POPC   C4B50134  30.606  29.516   7.231
 3768POPC   NC350135  22.628  44.649   5.407
 3768POPC   PO450136  22.060  44.339   5.514
 3768POPC   GL150137  22.390  44.471   5.827
 3768POPC   GL250138  22.418  44.854   5.857
 3768POPC   C1A50139  22.264  44.552   6.255
 3768POPC   D2A50140  22.140  44.325   6.599
 3768POPC   C3A50141  21.914  44.482   6.937
 3768POPC   C4A50142  22.117  44.386   7.292
 3768POPC   C1B50143  22.680  44.830   6.270
 3768POPC   C2B50144  22.646  44.567   6.640
 3768POPC   C3B50145  22.446  44.681   7.034
 3768POPC   C4B50146  22.096  44.938   7.203
 3769POPC   NC350147  25.062  18.032   5.477
 3769POPC   PO450148  25.538  18.449   5.293
 3769POPC   GL150149  25.360  18.313   5.763
 3769POPC   GL250150  24.995  18.339   5.909
 3769POPC   C1A50151  25.312  18.029   6.159
 3769POPC   D2A50152  25.012  18.035   6.527
 3769POPC   C3A50153  25.166  17.970   6.959
 3769POPC   C4A50154  25.558  17.864   7.170
 3769POPC   C1B50155  24.744  18.448   6.317
 3769POPC   C2B50156  24.757  18.412   6.788
 3769POPC   C3B50157  25.079  18.453   7.132
 3769POPC   C4B50158  25.191  18.192   7.484
 3770POPC   NC350159  26.188  33.229   5.282
 3770POPC   PO450160  25.737  32.709   5.442
 3770POPC   GL150161  25.938  32.967   5.767
 3770POPC   GL250162  26.271  32.832   5.665
 3770POPC   C1A50163  25.969  33.131   6.238
 3770POPC   D2A50164  25.864  33.050   6.696
 3770POPC   C3A50165  25.910  33.328   7.057
 3770POPC   C4A50166  26.007  33.234   7.503
 3770POPC   C1B50167  26.254  32.735   6.118
 3770POPC   C2B50168  26.341  32.869   6.554
 3770POPC   C3B50169  26.275  32.951   7.010
 3770POPC   C4B50170  26.460  32.994   7.439
 3771POPC   NC350171  19.372  39.352   5.417
 3771POPC   PO450172  18.780  39.041   5.441
 3771POPC   GL150173  19.003  39.196   5.804
 3771POPC   GL250174  19.318  38.999   5.896
 3771POPC   C1A50175  18.913  39.163   6.234
 3771POPC   D2A50176  19.156  38.909   6.442
 3771POPC   C3A50177  19.146  38.928   6.875
 3771POPC   C4A50178  19.259  39.079   7.280
 3771POPC   C1B50179  19.394  39.326   6.229
 3771POPC   C2B50180  19.203  39.426   6.642
 3771POPC   C3B50181  19.246  39.570   7.092
 3771POPC   C4B50182  19.260  39.547   7.583
 3772POPC   NC350183   2.369  41.508   5.421
 3772POPC   PO450184   2.954  41.775   5.567
 3772POPC   GL150185   2.983  41.420   5.843
 3772POPC   GL250186   3.282  41.365   6.059
 3772POPC   C1A50187   2.785  41.305   6.225
 3772POPC   D2A50188   2.932  41.304   6.651
 3772POPC   C3A50189   2.635  41.327   6.986
 3772POPC   C4A50190   2.574  41.431   7.435
 3772POPC   C1B50191   3.099  41.733   6.284
 3772POPC   C2B50192   3.064  41.970   6.689
 3772POPC   C3B50193   3.049  41.962   7.121
 3772POPC   C4B50194   3.061  41.601   7.390
 3773POPC   NC350195  39.035   9.201   5.109
 3773POPC   PO450196  39.326   8.642   5.436
 3773POPC   GL150197  39.550   8.743   5.820
 3773POPC   GL250198  39.321   8.943   6.036
 3773POPC   C1A50199  39.566   8.578   6.262
 3773POPC   D2A50200  39.281   8.643   6.582
 3773POPC   C3A50201  39.316   9.043   6.783
 3773POPC   C4A50202  39.593   9.180   7.162
 3773POPC   C1B50203  38.941   8.814   6.230
 3773POPC   C2B50204  38.698   8.887   6.604
 3773POPC   C3B50205  38.802   9.179   6.929
 3773POPC   C4B50206  39.109   9.116   7.235
 3774POPC   NC350207  43.572  25.448   5.143
 3774POPC   PO450208  43.837  24.809   5.486
 3774POPC   GL150209  43.747  25.046   5.861
 3774POPC   GL250210  43.615  25.375   5.696
 3774POPC   C1A50211  44.092  25.093   6.203
 3774POPC   D2A50212  44.307  24.910   6.527
 3774POPC   C3A50213  44.078  25.008   6.884
 3774POPC   C4A50214  43.935  24.767   7.238
 3774POPC   C1B50215  43.824  25.519   6.097
 3774POPC   C2B50216  43.803  25.393   6.534
 3774POPC   C3B50217  43.868  25.522   6.961
 3774POPC   C4B50218  43.728  25.455   7.395
 3775POPC   NC350219  35.580  23.538   5.430
 3775POPC   PO450220  34.914  23.445   5.564
 3775POPC   GL150221  35.063  23.638   5.943
 3775POPC   GL250222  35.409  23.657   5.926
 3775POPC   C1A50223  35.214  23.670   6.386
 3775POPC   D2A50224  35.599  23.809   6.568
 3775POPC   C3A50225  35.395  23.856   6.958
 3775POPC   C4A50226  35.259  23.611   7.276
 3775POPC   C1B50227  35.761  23.510   6.171
 3775POPC   C2B50228  35.782  23.288   6.555
 3775POPC   C3B50229  35.766  23.481   6.922
 3775POPC   C4B50230  35.659  23.317   7.280
 3776POPC   NC350231   9.851  39.023   5.353
 3776POPC   PO450232   9.847  38.446   5.041
 3776POPC   GL150233   9.690  38.549   5.503
 3776POPC   GL250234   9.948  38.447   5.769
 3776POPC   C1A50235   9.476  38.580   5.939
 3776POPC   D2A50236   9.498  38.540   6.422
 3776POPC   C3A50237   9.534  38.437   6.876
 3776POPC   C4A50238   9.754  38.277   7.239
 3776POPC   C1B50239  10.112  38.449   6.219
 3776POPC   C2B50240  10.200  38.600   6.648
 3776POPC   C3B50241  10.024  38.675   7.074
 3776POPC   C4B50242   9.924  38.638   7.574
 3777POPC   NC350243   2.137  31.331   5.564
 3777POPC   PO450244   1.511  31.295   5.368
 3777POPC   GL150245   1.625  31.552   5.757
 3777POPC   GL250246   1.871  31.775   5.803
 3777POPC   C1A50247   1.809  31.495   6.233
 3777POPC   D2A50248   2.092  31.245   6.569
 3777POPC   C3A50249   2.024  31.339   7.029
 3777POPC   C4A50250   1.626  31.214   7.216
 3777POPC   C1B50251   2.142  31.898   6.168
 3777POPC   C2B50252   2.207  31.736   6.574
 3777POPC   C3B50253   2.138  31.835   6.989
 3777POPC   C4B50254   2.286  31.650   7.383
 3778POPC   NC350255  16.792   2.234   5.361
 3778POPC   PO450256  16.516   1.574   5.323
 3778POPC   GL150257  16.713   1.793   5.673
 3778POPC   GL250258  16.970   1.571   5.719
 3778POPC   C1A50259  16.619   2.108   6.046
 3778POPC   D2A50260  16.617   2.330   6.479
 3778POPC   C3A50261  16.922   2.165   6.790
 3778POPC   C4A50262  16.915   2.156   7.240
 3778POPC   C1B50263  17.047   1.565   6.152
 3778POPC   C2B50264  16.808   1.448   6.523
 3778POPC   C3B50265  16.718   1.676   6.878
 3778POPC   C4B50266  16.602   1.751   7.284
 3779POPC   NC350267  23.460  13.069   5.352
 3779POPC   PO450268  23.852  12.595   5.352
 3779POPC   GL150269  23.535  12.614   5.665
 3779POPC   GL250270  23.677  12.918   5.791
 3779POPC   C1A50271  23.454  12.518   6.109
 3779POPC   D2A50272  23.640  12.398   6.530
 3779POPC   C3A50273  23.567  12.589   6.956
 3779POPC   C4A50274  23.892  12.628   7.279
 3779POPC   C1B50275  23.432  13.026   6.122
 3779POPC   C2B50276  23.445  12.865   6.524
 3779POPC   C3B50277  23.415  13.078   6.912
 3779POPC   C4B50278  23.665  13.082   7.243
 3780POPC   NC350279  42.129  31.605   5.341
 3780POPC   PO450280  42.711  31.415   5.607
 3780POPC   GL150281  42.284  31.413   5.815
 3780POPC   GL250282  42.085  31.096   5.926
 3780POPC   C1A50283  42.266  31.678   6.178
 3780POPC   D2A50284  42.241  31.620   6.636
 3780POPC   C3A50285  42.561  31.669   6.927
 3780POPC   C4A50286  42.509  31.470   7.315
 3780POPC   C1B50287  41.900  31.342   6.285
 3780POPC   C2B50288  41.774  31.432   6.709
 3780POPC   C3B50289  41.962  31.409   7.135
 3780POPC   C4B50290  42.070  31.454   7.600
 3781POPC   NC350291  16.417  16.873   5.436
 3781POPC   PO450292  16.970  16.457   5.392
 3781POPC   GL150293  16.682  16.490   5.788
 3781POPC   GL250294  16.658  16.839   5.888
 3781POPC   C1A50295  16.611  16.485   6.291
 3781POPC   D2A50296  16.611  16.341   6.770
 3781POPC   C3A50297  16.602  16.607   7.114
 3781POPC   C4A50298  16.773  16.904   7.448
 3781POPC   C1B50299  16.749  17.065   6.257
 3781POPC   C2B50300  16.778  16.892   6.666
 3781POPC   C3B50301  16.556  17.080   7.005
 3781POPC   C4B50302  16.399  17.258   7.393
 3782POPC   NC350303   2.278  44.381   5.532
 3782POPC   PO450304   1.880  44.876   5.427
 3782POPC   GL150305   1.962  44.666   5.856
 3782POPC   GL250306   2.292  44.594   5.983
 3782POPC   C1A50307   1.920  44.614   6.332
 3782POPC   D2A50308   1.721  44.930   6.643
 3782POPC   C3A50309   1.958  44.877   7.003
 3782POPC   C4A50310   2.144  44.449   7.034
 3782POPC   C1B50311   2.206   0.009   6.151
 3782POPC   C2B50312   2.242   0.018   6.582
 3782POPC   C3B50313   2.454  44.837   6.915
 3782POPC   C4B50314   2.435  44.813   7.318
 3783POPC   NC350315   1.543  13.301   5.335
 3783POPC   PO450316   1.378  13.994   5.338
 3783POPC   GL150317   1.146  13.819   5.738
 3783POPC   GL250318   1.075  13.463   5.816
 3783POPC   C1A50319   1.127  13.790   6.213
 3783POPC   D2A50320   1.314  13.928   6.588
 3783POPC   C3A50321   1.177  13.757   6.996
 3783POPC   C4A50322   1.165  13.986   7.403
 3783POPC   C1B50323   0.954  13.306   6.255
 3783POPC   C2B50324   0.862  13.495   6.668
 3783POPC   C3B50325   0.885  13.347   7.107
 3783POPC   C4B50326   1.300  13.163   7.261
 3784POPC   NC350327  28.763  21.066   5.379
 3784POPC   PO450328  29.176  21.576   5.343
 3784POPC   GL150329  28.980  21.490   5.712
 3784POPC   GL250330  29.276  21.281   5.831
 3784POPC   C1A50331  29.074  21.622   6.155
 3784POPC   D2A50332  29.349  21.323   6.380
 3784POPC   C3A50333  29.400  21.340   6.843
 3784POPC   C4A50334  29.094  21.439   7.174
 3784POPC   C1B50335  28.908  21.144   6.113
 3784POPC   C2B50336  28.737  21.086   6.561
 3784POPC   C3B50337  28.643  21.211   7.016
 3784POPC   C4B50338  28.808  21.063   7.419
 3785POPC   NC350339  13.024  12.329   5.499
 3785POPC   PO450340  12.574  11.897   5.315
 3785POPC   GL150341  12.645  12.064   5.747
 3785POPC   GL250342  12.973  11.974   5.873
 3785POPC   C1A50343  12.665  12.282   6.155
 3785POPC   D2A50344  12.767  12.423   6.571
 3785POPC   C3A50345  12.537  12.304   6.930
 3785POPC   C4A50346  12.840  12.218   7.200
 3785POPC   C1B50347  13.103  12.068   6.311
 3785POPC   C2B50348  13.361  11.836   6.613
 3785POPC   C3B50349  13.386  11.687   7.025
 3785POPC   C4B50350  13.101  11.815   7.326
 3786POPC   NC350351  29.625  30.984   5.517
 3786POPC   PO450352  30.081  31.545   5.365
 3786POPC   GL150353  30.038  31.338   5.753
 3786POPC   GL250354  30.290  31.152   5.882
 3786POPC   C1A50355  29.933  31.502   6.164
 3786POPC   D2A50356  29.784  31.394   6.588
 3786POPC   C3A50357  29.915  31.652   6.935
 3786POPC   C4A50358  30.045  31.586   7.365
 3786POPC   C1B50359  30.204  31.070   6.275
 3786POPC   C2B50360  30.123  31.001   6.678
 3786POPC   C3B50361  30.105  31.192   7.030
 3786POPC   C4B50362  30.416  31.230   7.334
 3787POPC   NC350363  27.936  34.714   5.412
 3787POPC   PO450364  27.504  34.193   5.261
 3787POPC   GL150365  27.494  34.464   5.637
 3787POPC   GL250366  27.832  34.354   5.786
 3787POPC   C1A50367  27.402  34.423   6.092
 3787POPC   D2A50368  27.643  34.214   6.436
 3787POPC   C3A50369  27.472  34.284   6.842
 3787POPC   C4A50370  27.428  34.535   7.202
 3787POPC   C1B50371  27.839  34.683   6.128
 3787POPC   C2B50372  27.744  34.723   6.588
 3787POPC   C3B50373  27.875  34.588   6.996
 3787POPC   C4B50374  27.879  34.734   7.410
 3788POPC   NC350375  42.543  12.184   5.295
 3788POPC   PO450376  42.001  11.976   5.521
 3788POPC   GL150377  42.213  12.272   5.795
 3788POPC   GL250378  42.564  12.390   5.770
 3788POPC   C1A50379  42.042  12.355   6.197
 3788POPC   D2A50380  41.785  12.338   6.588
 3788POPC   C3A50381  41.976  12.339   7.023
 3788POPC   C4A50382  42.122  12.130   7.421
 3788POPC   C1B50383  42.544  12.262   6.236
 3788POPC   C2B50384  42.327  12.200   6.650
 3788POPC   C3B50385  42.492  12.312   7.075
 3788POPC   C4B50386  42.695  12.700   7.260
 3789POPC   NC350387   9.534   5.742   5.498
 3789POPC   PO450388   9.970   6.194   5.357
 3789POPC   GL150389   9.784   6.146   5.763
 3789POPC   GL250390   9.560   6.410   5.791
 3789POPC   C1A50391   9.904   5.965   6.155
 3789POPC   D2A50392   9.821   5.622   6.410
 3789POPC   C3A50393   9.848   5.722   6.832
 3789POPC   C4A50394   9.919   5.807   7.242
 3789POPC   C1B50395   9.455   6.299   6.213
 3789POPC   C2B50396   9.569   6.046   6.557
 3789POPC   C3B50397   9.626   6.175   6.970
 3789POPC   C4B50398   9.487   6.080   7.360
 3790POPC   NC350399  31.227  43.429   5.395
 3790POPC   PO450400  31.649  42.904   5.365
 3790POPC   GL150401  31.459  42.907   5.756
 3790POPC   GL250402  31.546  43.226   5.786
 3790POPC   C1A50403  31.668  42.932   6.182
 3790POPC   D2A50404  31.485  42.909   6.536
 3790POPC   C3A50405  31.635  43.039   6.912
 3790POPC   C4A50406  31.590  43.075   7.322
 3790POPC   C1B50407  31.402  43.346   6.224
 3790POPC   C2B50408  31.236  43.320   6.648
 3790POPC   C3B50409  31.400  43.491   7.066
 3790POPC   C4B50410  31.719  43.555   7.405
 3791POPC   NC350411   7.000   1.429   5.624
 3791POPC   PO450412   6.758   1.942   5.295
 3791POPC   GL150413   6.638   1.972   5.737
 3791POPC   GL250414   6.296   2.035   5.867
 3791POPC   C1A50415   6.724   1.980   6.190
 3791POPC   D2A50416   6.814   1.727   6.564
 3791POPC   C3A50417   6.807   1.900   6.984
 3791POPC   C4A50418   6.858   1.899   7.463
 3791POPC   C1B50419   6.301   2.266   6.260
 3791POPC   C2B50420   6.502   2.193   6.652
 3791POPC   C3B50421   6.262   2.052   6.986
 3791POPC   C4B50422   6.374   1.807   7.313
 3792POPC   NC350423  44.231  22.001   5.427
 3792POPC   PO450424  43.750  22.452   5.509
 3792POPC   GL150425  43.945  22.172   5.855
 3792POPC   GL250426  44.290  22.292   5.844
 3792POPC   C1A50427  43.766  21.899   6.227
 3792POPC   D2A50428  43.561  21.723   6.656
 3792POPC   C3A50429  43.717  21.817   7.104
 3792POPC   C4A50430  43.724  22.125   7.463
 3792POPC   C1B50431  44.250  22.105   6.268
 3792POPC   C2B50432  44.000  22.080   6.664
 3792POPC   C3B50433  44.141  22.068   7.089
 3792POPC   C4B50434  44.278  22.210   7.475
 3793POPC   NC350435  26.531  16.165   5.117
 3793POPC   PO450436  26.129  15.628   5.368
 3793POPC   GL150437  26.010  15.808   5.743
 3793POPC   GL250438  25.752  16.078   5.744
 3793POPC   C1A50439  25.872  15.592   6.102
 3793POPC   D2A50440  25.812  15.752   6.503
 3793POPC   C3A50441  26.065  15.837   6.872
 3793POPC   C4A50442  26.167  15.694   7.294
 3793POPC   C1B50443  25.933  16.107   6.156
 3793POPC   C2B50444  25.799  16.284   6.533
 3793POPC   C3B50445  25.931  16.345   6.943
 3793POPC   C4B50446  26.160  16.245   7.312
 3794POPC   NC350447  35.720   6.094   5.180
 3794POPC   PO450448  35.117   6.017   5.448
 3794POPC   GL150449  35.372   6.103   5.815
 3794POPC   GL250450  35.681   6.079   5.697
 3794POPC   C1A50451  35.308   6.162   6.258
 3794POPC   D2A50452  35.257   6.075   6.705
 3794POPC   C3A50453  35.185   6.142   7.148
 3794POPC   C4A50454  35.242   5.967   7.563
 3794POPC   C1B50455  35.775   5.931   6.124
 3794POPC   C2B50456  35.765   6.101   6.555
 3794POPC   C3B50457  35.687   6.030   7.001
 3794POPC   C4B50458  35.665   6.256   7.364
 3795POPC   NC350459   6.354  30.604   5.382
 3795POPC   PO450460   6.952  31.027   5.461
 3795POPC   GL150461   6.673  30.746   5.760
 3795POPC   GL250462   6.684  30.349   5.787
 3795POPC   C1A50463   6.427  30.657   6.142
 3795POPC   D2A50464   6.235  30.480   6.522
 3795POPC   C3A50465   6.347  30.696   6.887
 3795POPC   C4A50466   6.382  30.883   7.316
 3795POPC   C1B50467   6.642  30.184   6.242
 3795POPC   C2B50468   6.713  30.307   6.698
 3795POPC   C3B50469   6.802  30.552   7.080
 3795POPC   C4B50470   6.895  30.973   7.214
 3796POPC   NC350471  13.168  42.484   5.427
 3796POPC   PO450472  12.662  42.136   5.413
 3796POPC   GL150473  12.673  42.236   5.837
 3796POPC   GL250474  13.001  42.345   5.896
 3796POPC   C1A50475  12.657  42.277   6.280
 3796POPC   D2A50476  12.811  42.057   6.641
 3796POPC   C3A50477  12.824  42.287   7.042
 3796POPC   C4A50478  12.423  42.446   7.145
 3796POPC   C1B50479  13.017  42.617   6.262
 3796POPC   C2B50480  13.092  42.482   6.658
 3796POPC   C3B50481  13.222  42.621   7.040
 3796POPC   C4B50482  13.026  42.598   7.453
 3797POPC   NC350483  18.290   2.956   5.394
 3797POPC   PO450484  18.157   2.281   5.522
 3797POPC   GL150485  18.427   2.490   5.804
 3797POPC   GL250486  18.418   2.871   5.878
 3797POPC   C1A50487  18.250   2.511   6.212
 3797POPC   D2A50488  18.293   2.751   6.551
 3797POPC   C3A50489  18.225   2.535   6.894
 3797POPC   C4A50490  18.267   2.555   7.341
 3797POPC   C1B50491  18.323   3.180   6.233
 3797POPC   C2B50492  18.339   3.228   6.697
 3797POPC   C3B50493  18.221   3.031   7.036
 3797POPC   C4B50494  18.457   3.019   7.441
 3798POPC   NC350495  13.784   6.922   5.518
 3798POPC   PO450496  13.326   6.311   5.408
 3798POPC   GL150497  13.389   6.576   5.775
 3798POPC   GL250498  13.204   6.884   5.734
 3798POPC   C1A50499  13.654   6.646   6.166
 3798POPC   D2A50500  13.774   6.853   6.573
 3798POPC   C3A50501  13.962   6.659   6.939
 3798POPC   C4A50502  13.960   6.775   7.362
 3798POPC   C1B50503  13.181   6.880   6.175
 3798POPC   C2B50504  13.298   6.644   6.544
 3798POPC   C3B50505  13.418   6.732   6.961
 3798POPC   C4B50506  13.170   6.574   7.289
 3799POPC   NC350507  14.613  30.758   5.268
 3799POPC   PO450508  14.030  30.415   5.262
 3799POPC   GL150509  14.376  30.466   5.642
 3799POPC   GL250510  14.606  30.763   5.773
 3799POPC   C1A50511  14.496  30.393   6.124
 3799POPC   D2A50512  14.325  30.285   6.558
 3799POPC   C3A50513  14.386  30.506   6.963
 3799POPC   C4A50514  14.166  30.835   7.213
 3799POPC   C1B50515  14.489  30.965   6.153
 3799POPC   C2B50516  14.438  30.889   6.579
 3799POPC   C3B50517  14.622  30.990   6.948
 3799POPC   C4B50518  14.737  30.753   7.277
 3800POPC   NC350519  10.671  11.440   5.325
 3800POPC   PO450520  10.134  11.050   5.193
 3800POPC   GL150521  10.483  11.188   5.703
 3800POPC   GL250522  10.733  11.481   5.808
 3800POPC   C1A50523  10.415  11.409   6.188
 3800POPC   D2A50524  10.587  11.574   6.622
 3800POPC   C3A50525  10.422  11.476   7.039
 3800POPC   C4A50526  10.510  11.297   7.425
 3800POPC   C1B50527  10.899  11.636   6.187
 3800POPC   C2B50528  11.095  11.571   6.579
 3800POPC   C3B50529  10.934  11.459   6.970
 3800POPC   C4B50530  10.840  11.693   7.333
 3801POPC   NC350531  17.001   6.623   5.337
 3801POPC   PO450532  17.412   6.204   5.625
 3801POPC   GL150533  17.058   6.426   5.825
 3801POPC   GL250534  16.685   6.421   5.722
 3801POPC   C1A50535  16.853   6.505   6.231
 3801POPC   D2A50536  16.565   6.396   6.558
 3801POPC   C3A50537  16.766   6.374   6.953
 3801POPC   C4A50538  17.067   6.504   7.306
 3801POPC   C1B50539  16.432   6.691   6.005
 3801POPC   C2B50540  16.399   6.867   6.423
 3801POPC   C3B50541  16.283   6.745   6.855
 3801POPC   C4B50542  16.574   6.750   7.232
 3802POPC   NC350543  31.696   5.623   5.138
 3802POPC   PO450544  31.473   6.085   5.324
 3802POPC   GL150545  31.604   6.230   5.747
 3802POPC   GL250546  31.911   6.016   5.744
 3802POPC   C1A50547  31.390   6.385   6.165
 3802POPC   D2A50548  31.404   6.462   6.647
 3802POPC   C3A50549  31.297   6.109   6.943
 3802POPC   C4A50550  31.467   5.744   7.206
 3802POPC   C1B50551  31.838   6.116   6.212
 3802POPC   C2B50552  31.702   6.008   6.646
 3802POPC   C3B50553  31.797   6.126   7.088
 3802POPC   C4B50554  31.675   6.090   7.543
 3803POPC   NC350555  18.761  20.017   5.387
 3803POPC   PO450556  19.246  19.589   5.258
 3803POPC   GL150557  19.207  19.733   5.748
 3803POPC   GL250558  18.953  19.980   5.890
 3803POPC   C1A50559  19.346  19.781   6.232
 3803POPC   D2A50560  19.341  19.710   6.735
 3803POPC   C3A50561  19.186  19.959   7.103
 3803POPC   C4A50562  19.106  19.853   7.537
 3803POPC   C1B50563  18.845  19.803   6.320
 3803POPC   C2B50564  18.807  19.844   6.784
 3803POPC   C3B50565  18.685  19.870   7.242
 3803POPC   C4B50566  18.639  19.717   7.689
 3804POPC   NC350567  27.926  22.013   5.213
 3804POPC   PO450568  27.357  22.160   5.270
 3804POPC   GL150569  27.489  22.183   5.734
 3804POPC   GL250570  27.838  22.034   5.751
 3804POPC   C1A50571  27.411  22.150   6.219
 3804POPC   D2A50572  27.377  22.110   6.711
 3804POPC   C3A50573  27.575  22.404   7.052
 3804POPC   C4A50574  27.408  22.590   7.475
 3804POPC   C1B50575  27.928  22.049   6.227
 3804POPC   C2B50576  27.911  22.009   6.713
 3804POPC   C3B50577  27.697  21.897   7.110
 3804POPC   C4B50578  27.748  21.576   7.439
 3805POPC   NC350579   9.271   0.931   5.436
 3805POPC   PO450580   9.922   0.998   5.477
 3805POPC   GL150581   9.606   1.123   5.813
 3805POPC   GL250582   9.486   0.807   5.922
 3805POPC   C1A50583   9.587   1.307   6.269
 3805POPC   D2A50584   9.588   1.058   6.669
 3805POPC   C3A50585   9.543   1.190   7.101
 3805POPC   C4A50586   9.250   1.109   7.379
 3805POPC   C1B50587   9.853   0.874   6.229
 3805POPC   C2B50588  10.098   0.982   6.630
 3805POPC   C3B50589  10.037   1.053   7.079
 3805POPC   C4B50590   9.988   1.422   7.326
 3806POPC   NC350591   4.599  40.440   5.498
 3806POPC   PO450592   4.094  40.748   5.124
 3806POPC   GL150593   4.211  40.926   5.600
 3806POPC   GL250594   4.390  40.712   5.861
 3806POPC   C1A50595   4.093  41.042   6.065
 3806POPC   D2A50596   4.251  40.800   6.421
 3806POPC   C3A50597   4.159  40.982   6.819
 3806POPC   C4A50598   3.947  41.159   7.186
 3806POPC   C1B50599   4.586  40.401   6.150
 3806POPC   C2B50600   4.748  40.467   6.540
 3806POPC   C3B50601   4.511  40.554   6.894
 3806POPC   C4B50602   4.524  40.860   7.181
 3807POPC   NC350603  25.306  31.324   5.340
 3807POPC   PO450604  25.264  31.978   5.476
 3807POPC   GL150605  25.205  31.575   5.793
 3807POPC   GL250606  25.034  31.208   5.767
 3807POPC   C1A50607  25.404  31.374   6.197
 3807POPC   D2A50608  25.584  31.339   6.650
 3807POPC   C3A50609  25.368  31.537   7.000
 3807POPC   C4A50610  25.063  31.861   6.996
 3807POPC   C1B50611  24.891  31.328   6.170
 3807POPC   C2B50612  25.003  31.509   6.574
 3807POPC   C3B50613  24.920  31.315   6.970
 3807POPC   C4B50614  24.959  31.522   7.376
 3808POPC   NC350615  19.656  17.832   5.364
 3808POPC   PO450616  19.810  18.482   5.381
 3808POPC   GL150617  19.858  18.178   5.728
 3808POPC   GL250618  20.224  18.102   5.760
 3808POPC   C1A50619  19.673  18.250   6.138
 3808POPC   D2A50620  19.460  18.325   6.531
 3808POPC   C3A50621  19.638  18.241   6.911
 3808POPC   C4A50622  19.846  18.483   7.220
 3808POPC   C1B50623  20.200  18.379   6.124
 3808POPC   C2B50624  20.000  18.360   6.532
 3808POPC   C3B50625  20.146  18.152   6.926
 3808POPC   C4B50626  20.398  18.128   7.273
 3809POPC   NC350627  43.515  22.052   5.610
 3809POPC   PO450628  42.977  22.376   5.386
 3809POPC   GL150629  43.006  22.021   5.771
 3809POPC   GL250630  42.834  21.677   5.746
 3809POPC   C1A50631  43.214  21.990   6.232
 3809POPC   D2A50632  43.503  22.224   6.541
 3809POPC   C3A50633  43.455  22.249   7.000
 3809POPC   C4A50634  43.162  22.441   7.276
 3809POPC   C1B50635  42.760  21.747   6.187
 3809POPC   C2B50636  42.698  22.042   6.534
 3809POPC   C3B50637  42.840  22.306   6.877
 3809POPC   C4B50638  42.840  22.052   7.225
 3810POPC   NC350639  24.886   0.541   5.408
 3810POPC   PO450640  24.470   0.145   5.675
 3810POPC   GL150641  24.489   0.527   5.845
 3810POPC   GL250642  24.131   0.638   5.881
 3810POPC   C1A50643  24.729   0.513   6.220
 3810POPC   D2A50644  24.625   0.168   6.498
 3810POPC   C3A50645  24.629   0.254   6.929
 3810POPC   C4A50646  24.665   0.681   7.104
 3810POPC   C1B50647  24.180   0.334   6.244
 3810POPC   C2B50648  24.132   0.146   6.662
 3810POPC   C3B50649  24.147   0.438   7.002
 3810POPC   C4B50650  24.160   0.723   7.317
 3811POPC   NC350651  16.516  42.637   5.277
 3811POPC   PO450652  17.089  42.280   5.405
 3811POPC   GL150653  16.817  42.248   5.814
 3811POPC   GL250654  16.541  41.977   5.882
 3811POPC   C1A50655  16.920  42.412   6.241
 3811POPC   D2A50656  17.070  42.537   6.660
 3811POPC   C3A50657  16.729  42.576   6.950
 3811POPC   C4A50658  16.711  42.365   7.319
 3811POPC   C1B50659  16.475  42.164   6.250
 3811POPC   C2B50660  16.627  42.203   6.639
 3811POPC   C3B50661  16.399  42.108   7.017
 3811POPC   C4B50662  16.270  41.751   7.260
 3812POPC   NC350663  18.532   5.099   5.395
 3812POPC   PO450664  17.959   4.793   5.524
 3812POPC   GL150665  18.330   4.934   5.843
 3812POPC   GL250666  18.727   5.010   5.852
 3812POPC   C1A50667  18.350   5.268   6.150
 3812POPC   D2A50668  18.107   5.303   6.527
 3812POPC   C3A50669  18.336   5.133   6.838
 3812POPC   C4A50670  18.438   5.163   7.240
 3812POPC   C1B50671  18.731   4.924   6.295
 3812POPC   C2B50672  18.550   4.662   6.597
 3812POPC   C3B50673  18.541   4.670   7.002
 3812POPC   C4B50674  18.492   4.672   7.423
 3813POPC   NC350675  19.279  43.346   5.604
 3813POPC   PO450676  19.116  43.950   5.305
 3813POPC   GL150677  19.285  43.866   5.723
 3813POPC   GL250678  18.968  43.759   5.844
 3813POPC   C1A50679  19.330  44.025   6.170
 3813POPC   D2A50680  19.180  44.182   6.604
 3813POPC   C3A50681  19.134  43.892   6.968
 3813POPC   C4A50682  19.084  43.948   7.403
 3813POPC   C1B50683  18.846  43.939   6.257
 3813POPC   C2B50684  18.693  43.929   6.677
 3813POPC   C3B50685  18.617  43.731   7.077
 3813POPC   C4B50686  18.817  43.522   7.428
 3814POPC   NC350687  20.771  32.601   5.462
 3814POPC   PO450688  20.607  33.256   5.141
 3814POPC   GL150689  20.783  33.106   5.576
 3814POPC   GL250690  20.466  32.980   5.728
 3814POPC   C1A50691  20.870  33.047   6.062
 3814POPC   D2A50692  20.684  33.191   6.484
 3814POPC   C3A50693  20.788  33.102   6.967
 3814POPC   C4A50694  20.655  33.043   7.443
 3814POPC   C1B50695  20.301  32.976   6.165
 3814POPC   C2B50696  20.196  33.153   6.574
 3814POPC   C3B50697  20.269  32.960   6.997
 3814POPC   C4B50698  20.219  32.798   7.421
 3815POPC   NC350699  36.597  36.398   5.569
 3815POPC   PO450700  35.831  36.304   5.538
 3815POPC   GL150701  36.163  36.268   5.790
 3815POPC   GL250702  36.193  36.638   5.803
 3815POPC   C1A50703  36.189  36.044   6.182
 3815POPC   D2A50704  35.875  35.951   6.517
 3815POPC   C3A50705  36.070  36.089   6.902
 3815POPC   C4A50706  36.340  35.948   7.262
 3815POPC   C1B50707  36.087  36.566   6.242
 3815POPC   C2B50708  36.316  36.483   6.635
 3815POPC   C3B50709  36.390  36.457   7.083
 3815POPC   C4B50710  36.079  36.399   7.402
 3816POPC   NC350711  23.886   4.159   5.481
 3816POPC   PO450712  23.231   3.913   5.293
 3816POPC   GL150713  23.426   4.023   5.744
 3816POPC   GL250714  23.614   4.361   5.848
 3816POPC   C1A50715  23.636   3.986   6.186
 3816POPC   D2A50716  23.588   4.217   6.583
 3816POPC   C3A50717  23.858   4.230   6.944
 3816POPC   C4A50718  23.677   4.071   7.330
 3816POPC   C1B50719  23.928   4.419   6.216
 3816POPC   C2B50720  23.904   4.664   6.623
 3816POPC   C3B50721  23.596   4.669   6.967
 3816POPC   C4B50722  23.803   4.558   7.356
 3817POPC   NC350723   6.157  36.250   5.369
 3817POPC   PO450724   6.590  35.718   5.439
 3817POPC   GL150725   6.446  36.015   5.745
 3817POPC   GL250726   6.679  36.327   5.822
 3817POPC   C1A50727   6.408  36.085   6.177
 3817POPC   D2A50728   6.499  36.338   6.493
 3817POPC   C3A50729   6.470  36.112   6.844
 3817POPC   C4A50730   6.602  35.987   7.241
 3817POPC   C1B50731   6.919  36.543   6.185
 3817POPC   C2B50732   6.997  36.431   6.622
 3817POPC   C3B50733   6.906  36.369   7.067
 3817POPC   C4B50734   6.780  36.378   7.522
 3818POPC   NC350735  34.036  17.599   5.345
 3818POPC   PO450736  33.549  17.221   5.419
 3818POPC   GL150737  33.662  17.521   5.756
 3818POPC   GL250738  33.994  17.548   5.840
 3818POPC   C1A50739  33.662  17.675   6.201
 3818POPC   D2A50740  33.894  17.582   6.592
 3818POPC   C3A50741  33.735  17.818   6.935
 3818POPC   C4A50742  33.685  17.866   7.374
 3818POPC   C1B50743  34.006  17.218   6.156
 3818POPC   C2B50744  34.070  17.095   6.590
 3818POPC   C3B50745  33.982  17.238   6.991
 3818POPC   C4B50746  34.117  17.561   7.210
 3819POPC   NC350747  20.993  40.104   5.147
 3819POPC   PO450748  21.574  39.783   5.295
 3819POPC   GL150749  21.511  39.992   5.726
 3819POPC   GL250750  21.182  39.862   5.823
 3819POPC   C1A50751  21.356  40.255   6.132
 3819POPC   D2A50752  21.362  40.345   6.608
 3819POPC   C3A50753  21.372  40.035   6.997
 3819POPC   C4A50754  21.221  40.157   7.448
 3819POPC   C1B50755  21.497  39.775   6.188
 3819POPC   C2B50756  21.584  39.525   6.556
 3819POPC   C3B50757  21.729  39.627   6.965
 3819POPC   C4B50758  21.618  39.872   7.423
 3820POPC   NC350759  40.254  26.724   5.478
 3820POPC   PO450760  39.960  27.307   5.273
 3820POPC   GL150761  39.904  27.023   5.709
 3820POPC   GL250762  39.746  26.692   5.903
 3820POPC   C1A50763  40.056  26.974   6.184
 3820POPC   D2A50764  39.881  26.627   6.475
 3820POPC   C3A50765  39.932  26.642   6.923
 3820POPC   C4A50766  40.162  26.976   7.126
 3820POPC   C1B50767  40.172  26.490   6.086
 3820POPC   C2B50768  40.366  26.442   6.541
 3820POPC   C3B50769  40.361  26.365   7.000
 3820POPC   C4B50770  40.159  26.527   7.385
 3821POPC   NC350771  26.756  18.462   5.426
 3821POPC   PO450772  26.358  17.922   5.305
 3821POPC   GL150773  26.582  18.058   5.724
 3821POPC   GL250774  26.599  18.425   5.897
 3821POPC   C1A50775  26.866  18.034   6.106
 3821POPC   D2A50776  27.013  18.159   6.546
 3821POPC   C3A50777  26.718  18.219   6.880
 3821POPC   C4A50778  26.792  18.071   7.284
 3821POPC   C1B50779  26.950  18.545   6.158
 3821POPC   C2B50780  27.240  18.649   6.494
 3821POPC   C3B50781  27.035  18.637   6.905
 3821POPC   C4B50782  26.784  18.566   7.285
 3822POPC   NC350783  10.290  26.502   5.587
 3822POPC   PO450784  10.634  27.014   5.273
 3822POPC   GL150785  10.575  26.971   5.736
 3822POPC   GL250786  10.643  26.633   5.929
 3822POPC   C1A50787  10.505  27.060   6.190
 3822POPC   D2A50788  10.768  27.059   6.553
 3822POPC   C3A50789  10.643  27.175   6.966
 3822POPC   C4A50790  10.312  26.960   7.204
 3822POPC   C1B50791  10.676  26.580   6.388
 3822POPC   C2B50792  10.641  26.667   6.831
 3822POPC   C3B50793  10.513  26.491   7.187
 3822POPC   C4B50794  10.446  26.629   7.586
 3823POPC   NC350795  36.478   7.442   5.150
 3823POPC   PO450796  35.839   7.570   5.423
 3823POPC   GL150797  35.870   7.397   5.861
 3823POPC   GL250798  36.197   7.396   6.008
 3823POPC   C1A50799  35.816   7.430   6.342
 3823POPC   D2A50800  36.210   7.444   6.587
 3823POPC   C3A50801  36.135   7.361   7.007
 3823POPC   C4A50802  35.759   7.315   7.216
 3823POPC   C1B50803  36.525   7.630   6.201
 3823POPC   C2B50804  36.560   7.829   6.562
 3823POPC   C3B50805  36.595   7.626   6.951
 3823POPC   C4B50806  36.455   7.761   7.339
 3824POPC   NC350807  36.255  11.293   5.322
 3824POPC   PO450808  35.579  11.333   5.486
 3824POPC   GL150809  35.916  11.188   5.731
 3824POPC   GL250810  36.119  11.456   5.786
 3824POPC   C1A50811  36.073  11.114   6.177
 3824POPC   D2A50812  36.122  10.867   6.587
 3824POPC   C3A50813  36.142  11.088   7.002
 3824POPC   C4A50814  36.132  11.232   7.436
 3824POPC   C1B50815  36.009  11.614   6.209
 3824POPC   C2B50816  36.058  11.506   6.685
 3824POPC   C3B50817  36.295  11.588   7.086
 3824POPC   C4B50818  36.328  11.672   7.555
 3825POPC   NC350819  12.543   7.481   5.113
 3825POPC   PO450820  11.918   7.330   5.388
 3825POPC   GL150821  12.091   7.503   5.751
 3825POPC   GL250822  12.358   7.289   5.848
 3825POPC   C1A50823  11.868   7.437   6.134
 3825POPC   D2A50824  11.801   7.421   6.536
 3825POPC   C3A50825  11.856   7.117   6.795
 3825POPC   C4A50826  11.966   7.332   7.139
 3825POPC   C1B50827  12.362   7.412   6.278
 3825POPC   C2B50828  12.312   7.352   6.739
 3825POPC   C3B50829  12.358   7.660   7.109
 3825POPC   C4B50830  12.362   7.642   7.597
 3826POPC   NC350831   7.354   5.456   5.150
 3826POPC   PO450832   7.460   6.038   5.533
 3826POPC   GL150833   7.374   5.992   5.919
 3826POPC   GL250834   7.697   5.858   5.965
 3826POPC   C1A50835   7.309   5.903   6.333
 3826POPC   D2A50836   7.276   6.142   6.670
 3826POPC   C3A50837   7.489   5.969   7.013
 3826POPC   C4A50838   7.355   5.957   7.412
 3826POPC   C1B50839   7.626   5.519   6.236
 3826POPC   C2B50840   7.583   5.591   6.652
 3826POPC   C3B50841   7.562   5.412   7.010
 3826POPC   C4B50842   7.754   5.567   7.311
 3827POPC   NC350843  32.045  24.300   5.389
 3827POPC   PO450844  32.688  24.661   5.409
 3827POPC   GL150845  32.309  24.600   5.712
 3827POPC   GL250846  32.249  24.240   5.848
 3827POPC   C1A50847  31.938  24.630   6.009
 3827POPC   D2A50848  31.832  24.463   6.428
 3827POPC   C3A50849  32.117  24.583   6.779
 3827POPC   C4A50850  32.154  24.607   7.255
 3827POPC   C1B50851  32.318  24.386   6.247
 3827POPC   C2B50852  32.533  24.289   6.580
 3827POPC   C3B50853  32.536  24.369   6.989
 3827POPC   C4B50854  32.445  24.179   7.351
 3828POPC   NC350855   6.046   1.656   5.634
 3828POPC   PO450856   5.785   2.158   5.215
 3828POPC   GL150857   5.675   2.034   5.699
 3828POPC   GL250858   5.576   1.741   5.863
 3828POPC   C1A50859   5.824   2.051   6.176
 3828POPC   D2A50860   6.038   1.840   6.543
 3828POPC   C3A50861   5.782   1.873   6.921
 3828POPC   C4A50862   5.900   1.950   7.373
 3828POPC   C1B50863   5.663   1.557   6.296
 3828POPC   C2B50864   5.490   1.436   6.697
 3828POPC   C3B50865   5.371   1.571   7.099
 3828POPC   C4B50866   5.405   1.971   7.262
 3829POPC   NC350867  11.332  22.837   5.263
 3829POPC   PO450868  10.868  22.982   5.639
 3829POPC   GL150869  11.160  22.668   5.829
 3829POPC   GL250870  11.537  22.751   5.857
 3829POPC   C1A50871  11.256  22.524   6.256
 3829POPC   D2A50872  11.195  22.774   6.651
 3829POPC   C3A50873  11.390  22.899   7.034
 3829POPC   C4A50874  11.379  23.309   7.262
 3829POPC   C1B50875  11.617  22.896   6.319
 3829POPC   C2B50876  11.678  23.167   6.706
 3829POPC   C3B50877  11.854  23.096   7.114
 3829POPC   C4B50878  11.710  22.821   7.455
 3830POPC   NC350879  34.195  40.473   5.364
 3830POPC   PO450880  34.119  41.073   5.593
 3830POPC   GL150881  33.990  40.792   5.882
 3830POPC   GL250882  33.811  40.503   5.740
 3830POPC   C1A50883  33.754  40.769   6.254
 3830POPC   D2A50884  33.911  40.876   6.639
 3830POPC   C3A50885  33.605  41.012   6.915
 3830POPC   C4A50886  33.742  41.305   7.233
 3830POPC   C1B50887  33.950  40.326   6.145
 3830POPC   C2B50888  34.055  40.398   6.582
 3830POPC   C3B50889  33.866  40.498   6.966
 3830POPC   C4B50890  33.897  40.810   7.287
 3831POPC   NC350891  41.728  23.876   5.357
 3831POPC   PO450892  41.183  23.472   5.320
 3831POPC   GL150893  41.344  23.502   5.747
 3831POPC   GL250894  41.684  23.665   5.850
 3831POPC   C1A50895  41.200  23.737   6.131
 3831POPC   D2A50896  41.390  23.958   6.487
 3831POPC   C3A50897  41.143  24.106   6.833
 3831POPC   C4A50898  41.264  23.886   7.221
 3831POPC   C1B50899  41.543  23.350   6.193
 3831POPC   C2B50900  41.234  23.293   6.492
 3831POPC   C3B50901  41.369  23.531   6.845
 3831POPC   C4B50902  41.584  23.470   7.242
 3832POPC   NC350903  43.298   5.084   5.147
 3832POPC   PO450904  42.708   5.382   5.173
 3832POPC   GL150905  43.054   5.102   5.617
 3832POPC   GL250906  43.140   5.311   5.902
 3832POPC   C1A50907  43.337   4.872   5.963
 3832POPC   D2A50908  43.479   4.919   6.412
 3832POPC   C3A50909  43.214   4.919   6.785
 3832POPC   C4A50910  43.182   4.773   7.219
 3832POPC   C1B50911  43.548   5.347   6.131
 3832POPC   C2B50912  43.675   5.455   6.564
 3832POPC   C3B50913  43.541   5.511   7.007
 3832POPC   C4B50914  43.176   5.283   7.161
 3833POPC   NC350915   6.060  44.208   5.567
 3833POPC   PO450916   5.711  43.660   5.549
 3833POPC   GL150917   5.817  43.835   5.910
 3833POPC   GL250918   5.684  44.194   5.951
 3833POPC   C1A50919   5.636  43.761   6.302
 3833POPC   D2A50920   5.687  43.926   6.710
 3833POPC   C3A50921   5.533  43.712   7.036
 3833POPC   C4A50922   5.887  43.631   7.183
 3833POPC   C1B50923   6.006  44.151   6.276
 3833POPC   C2B50924   6.078  44.292   6.674
 3833POPC   C3B50925   6.111  44.084   7.051
 3833POPC   C4B50926   5.715  44.136   7.253
 3834POPC   NC350927  23.612   7.456   5.293
 3834POPC   PO450928  23.340   6.831   5.448
 3834POPC   GL150929  23.332   7.203   5.681
 3834POPC   GL250930  23.663   7.309   5.778
 3834POPC   C1A50931  23.335   7.304   6.164
 3834POPC   D2A50932  23.529   7.307   6.614
 3834POPC   C3A50933  23.610   7.616   6.942
 3834POPC   C4A50934  23.481   7.637   7.364
 3834POPC   C1B50935  23.824   7.158   6.198
 3834POPC   C2B50936  24.022   6.982   6.601
 3834POPC   C3B50937  24.092   7.091   7.041
 3834POPC   C4B50938  23.780   7.230   7.306
 3835POPC   NC350939  28.928  19.772   5.291
 3835POPC   PO450940  29.536  20.005   5.326
 3835POPC   GL150941  29.297  19.778   5.665
 3835POPC   GL250942  28.968  19.842   5.798
 3835POPC   C1A50943  29.370  19.835   6.136
 3835POPC   D2A50944  29.148  19.858   6.526
 3835POPC   C3A50945  29.278  19.982   6.941
 3835POPC   C4A50946  29.350  19.710   7.298
 3835POPC   C1B50947  28.942  19.545   6.165
 3835POPC   C2B50948  28.788  19.512   6.637
 3835POPC   C3B50949  28.920  19.499   7.085
 3835POPC   C4B50950  28.813  19.522   7.532
 3836POPC   NC350951   1.136  43.643   5.295
 3836POPC   PO450952   1.416  44.140   4.935
 3836POPC   GL150953   1.346  44.137   5.465
 3836POPC   GL250954   1.428  43.815   5.666
 3836POPC   C1A50955   1.254  44.165   5.972
 3836POPC   D2A50956   1.145  44.039   6.414
 3836POPC   C3A50957   1.365  44.026   6.809
 3836POPC   C4A50958   1.268  44.218   7.236
 3836POPC   C1B50959   1.411  43.686   6.114
 3836POPC   C2B50960   1.337  43.460   6.476
 3836POPC   C3B50961   1.413  43.494   6.883
 3836POPC   C4B50962   1.150  43.717   7.166
 3837POPC   NC350963   8.741  12.648   5.184
 3837POPC   PO450964   8.368  13.153   5.399
 3837POPC   GL150965   8.227  12.899   5.722
 3837POPC   GL250966   7.897  12.705   5.660
 3837POPC   C1A50967   8.337  13.050   6.149
 3837POPC   D2A50968   8.511  12.971   6.551
 3837POPC   C3A50969   8.418  13.090   6.945
 3837POPC   C4A50970   8.176  12.909   7.249
 3837POPC   C1B50971   7.859  12.896   6.068
 3837POPC   C2B50972   8.013  12.762   6.450
 3837POPC   C3B50973   7.899  12.802   6.854
 3837POPC   C4B50974   7.864  12.489   7.172
 3838POPC   NC350975   3.329   0.181   5.622
 3838POPC   PO450976   3.582  44.695   5.243
 3838POPC   GL150977   3.490  44.657   5.706
 3838POPC   GL250978   3.226  44.479   5.881
 3838POPC   C1A50979   3.667  44.758   6.131
 3838POPC   D2A50980   3.578  44.855   6.565
 3838POPC   C3A50981   3.824  44.906   6.910
 3838POPC   C4A50982   3.858  44.635   7.272
 3838POPC   C1B50983   3.151  44.695   6.299
 3838POPC   C2B50984   3.142  44.679   6.778
 3838POPC   C3B50985   3.342  44.732   7.205
 3838POPC   C4B50986   3.483  44.897   7.590
 3839POPC   NC350987   1.451  22.406   5.525
 3839POPC   PO450988   1.265  21.780   5.339
 3839POPC   GL150989   1.196  21.995   5.735
 3839POPC   GL250990   1.505  21.878   5.833
 3839POPC   C1A50991   1.106  22.233   6.159
 3839POPC   D2A50992   0.807  22.281   6.520
 3839POPC   C3A50993   0.969  22.286   6.939
 3839POPC   C4A50994   1.069  22.064   7.318
 3839POPC   C1B50995   1.581  22.081   6.221
 3839POPC   C2B50996   1.384  22.165   6.611
 3839POPC   C3B50997   1.472  22.252   7.026
 3839POPC   C4B50998   1.483  22.385   7.469
 3840POPC   NC350999   3.977  16.852   5.273
 3840POPC   PO451000   3.367  16.666   5.175
 3840POPC   GL151001   3.512  16.728   5.585
 3840POPC   GL251002   3.248  16.905   5.745
 3840POPC   C1A51003   3.657  16.619   6.018
 3840POPC   D2A51004   3.737  16.461   6.453
 3840POPC   C3A51005   3.594  16.716   6.799
 3840POPC   C4A51006   3.644  16.932   7.197
 3840POPC   C1B51007   3.179  16.750   6.168
 3840POPC   C2B51008   3.176  16.954   6.557
 3840POPC   C3B51009   3.180  16.936   6.993
 3840POPC   C4B51010   3.217  16.556   7.170
 3841POPC   NC351011  38.109   8.612   5.412
 3841POPC   PO451012  38.772   8.853   5.306
 3841POPC   GL151013  38.527   9.065   5.674
 3841POPC   GL251014  38.211   8.878   5.877
 3841POPC   C1A51015  38.535   9.156   6.138
 3841POPC   D2A51016  38.228   8.991   6.442
 3841POPC   C3A51017  38.278   9.071   6.887
 3841POPC   C4A51018  38.489   9.003   7.299
 3841POPC   C1B51019  38.008   9.287   6.102
 3841POPC   C2B51020  38.070   9.475   6.523
 3841POPC   C3B51021  37.954   9.541   6.924
 3841POPC   C4B51022  38.047   9.293   7.287
 3842POPC   NC351023   6.818  37.789   5.186
 3842POPC   PO451024   6.334  37.375   5.385
 3842POPC   GL151025   6.538  37.557   5.818
 3842POPC   GL251026   6.907  37.601   5.765
 3842POPC   C1A51027   6.556  37.645   6.307
 3842POPC   D2A51028   6.571  37.591   6.780
 3842POPC   C3A51029   6.515  37.853   7.171
 3842POPC   C4A51030   6.431  38.067   7.600
 3842POPC   C1B51031   7.077  37.509   6.191
 3842POPC   C2B51032   7.047  37.498   6.644
 3842POPC   C3B51033   6.983  37.589   7.117
 3842POPC   C4B51034   6.956  37.336   7.519
 3843POPC   NC351035  22.106  29.467   5.290
 3843POPC   PO451036  22.408  28.926   5.462
 3843POPC   GL151037  22.077  29.131   5.729
 3843POPC   GL251038  22.148  29.469   5.794
 3843POPC   C1A51039  21.841  29.202   6.144
 3843POPC   D2A51040  21.776  29.004   6.539
 3843POPC   C3A51041  21.833  29.244   6.926
 3843POPC   C4A51042  21.772  28.958   7.273
 3843POPC   C1B51043  22.316  29.350   6.156
 3843POPC   C2B51044  22.220  29.277   6.552
 3843POPC   C3B51045  22.419  29.315   6.924
 3843POPC   C4B51046  22.212  29.277   7.322
 3844POPC   NC351047  20.616  24.748   5.294
 3844POPC   PO451048  20.274  24.273   5.574
 3844POPC   GL151049  20.452  24.592   5.876
 3844POPC   GL251050  20.760  24.776   5.804
 3844POPC   C1A51051  20.457  24.675   6.335
 3844POPC   D2A51052  20.350  24.803   6.737
 3844POPC   C3A51053  20.600  24.558   7.015
 3844POPC   C4A51054  20.806  24.145   7.020
 3844POPC   C1B51055  20.943  24.621   6.198
 3844POPC   C2B51056  20.917  24.438   6.606
 3844POPC   C3B51057  21.097  24.579   7.022
 3844POPC   C4B51058  21.010  24.428   7.471
 3845POPC   NC351059   0.695  15.845   5.534
 3845POPC   PO451060   0.026  15.957   5.571
 3845POPC   GL151061   0.301  15.859   5.881
 3845POPC   GL251062   0.591  16.133   5.932
 3845POPC   C1A51063   0.148  15.591   6.200
 3845POPC   D2A51064   0.230  15.783   6.552
 3845POPC   C3A51065   0.345  15.642   6.948
 3845POPC   C4A51066   0.712  15.709   7.195
 3845POPC   C1B51067   0.222  16.385   6.043
 3845POPC   C2B51068   0.119  16.293   6.450
 3845POPC   C3B51069   0.425  16.192   6.775
 3845POPC   C4B51070   0.371  16.102   7.197
 3846POPC   NC351071  44.257  30.049   5.381
 3846POPC   PO451072  44.754  29.604   5.482
 3846POPC   GL151073  44.685  29.905   5.752
 3846POPC   GL251074   0.035  30.005   5.803
 3846POPC   C1A51075  44.412  30.006   6.070
 3846POPC   D2A51076  44.416  30.085   6.501
 3846POPC   C3A51077  44.655  29.793   6.756
 3846POPC   C4A51078  44.453  29.674   7.111
 3846POPC   C1B51079  44.921  30.128   6.251
 3846POPC   C2B51080  44.844  30.284   6.711
 3846POPC   C3B51081  44.872  30.095   7.153
 3846POPC   C4B51082  44.934  30.280   7.594
 3847POPC   NC351083  14.552   9.547   5.439
 3847POPC   PO451084  14.711  10.242   5.459
 3847POPC   GL151085  14.696   9.950   5.818
 3847POPC   GL251086  14.800   9.605   5.866
 3847POPC   C1A51087  14.525   9.804   6.243
 3847POPC   D2A51088  14.292   9.515   6.538
 3847POPC   C3A51089  14.212   9.708   6.941
 3847POPC   C4A51090  14.213  10.109   7.116
 3847POPC   C1B51091  14.930   9.374   6.221
 3847POPC   C2B51092  14.760   9.330   6.620
 3847POPC   C3B51093  14.688   9.514   7.013
 3847POPC   C4B51094  14.508   9.295   7.374
 3848POPC   NC351095  25.473  35.534   5.279
 3848POPC   PO451096  25.117  34.918   5.393
 3848POPC   GL151097  25.131  35.185   5.796
 3848POPC   GL251098  25.294  35.516   5.745
 3848POPC   C1A51099  25.266  35.367   6.232
 3848POPC   D2A51100  25.453  35.408   6.661
 3848POPC   C3A51101  25.133  35.330   6.976
 3848POPC   C4A51102  25.101  35.245   7.410
 3848POPC   C1B51103  25.366  35.847   6.028
 3848POPC   C2B51104  25.318  35.925   6.459
 3848POPC   C3B51105  25.183  35.826   6.872
 3848POPC   C4B51106  25.130  35.734   7.329
 3849POPC   NC351107  12.658  16.721   5.383
 3849POPC   PO451108  13.172  16.315   5.391
 3849POPC   GL151109  12.919  16.484   5.747
 3849POPC   GL251110  13.033  16.819   5.825
 3849POPC   C1A51111  12.694  16.641   6.176
 3849POPC   D2A51112  12.946  16.785   6.584
 3849POPC   C3A51113  12.804  16.945   7.029
 3849POPC   C4A51114  12.854  17.017   7.518
 3849POPC   C1B51115  13.174  16.506   6.169
 3849POPC   C2B51116  13.229  16.351   6.564
 3849POPC   C3B51117  13.259  16.525   6.942
 3849POPC   C4B51118  13.026  16.585   7.305
 3850POPC   NC351119  20.696  44.564   5.276
 3850POPC   PO451120  19.984  44.631   5.315
 3850POPC   GL151121  20.355  44.588   5.649
 3850POPC   GL251122  20.681  44.769   5.742
 3850POPC   C1A51123  20.343  44.564   6.108
 3850POPC   D2A51124  20.291  44.774   6.496
 3850POPC   C3A51125  20.338  44.582   6.904
 3850POPC   C4A51126  20.169  44.851   7.243
 3850POPC   C1B51127  20.884  44.608   6.106
 3850POPC   C2B51128  20.756  44.525   6.515
 3850POPC   C3B51129  20.862  44.597   6.937
 3850POPC   C4B51130  20.682  44.779   7.266
 3851POPC   NC351131  38.212  26.525   5.378
 3851POPC   PO451132  38.358  27.134   5.182
 3851POPC   GL151133  38.377  26.989   5.650
 3851POPC   GL251134  38.703  26.836   5.785
 3851POPC   C1A51135  38.263  26.783   6.086
 3851POPC   D2A51136  38.360  26.738   6.554
 3851POPC   C3A51137  38.188  26.975   6.925
 3851POPC   C4A51138  38.229  26.853   7.359
 3851POPC   C1B51139  38.735  26.978   6.251
 3851POPC   C2B51140  38.661  27.130   6.706
 3851POPC   C3B51141  38.701  26.795   7.030
 3851POPC   C4B51142  38.725  26.766   7.495
 3852POPC   NC351143  23.426  17.758   5.328
 3852POPC   PO451144  23.582  18.410   5.398
 3852POPC   GL151145  23.645  18.388   5.814
 3852POPC   GL251146  23.750  18.045   5.785
 3852POPC   C1A51147  23.550  18.502   6.236
 3852POPC   D2A51148  23.652  18.281   6.596
 3852POPC   C3A51149  23.531  18.400   7.003
 3852POPC   C4A51150  23.944  18.324   7.139
 3852POPC   C1B51151  23.419  17.921   6.052
 3852POPC   C2B51152  23.404  17.848   6.494
 3852POPC   C3B51153  23.377  17.923   6.931
 3852POPC   C4B51154  23.604  18.022   7.329
 3853POPC   NC351155  40.094  12.335   5.399
 3853POPC   PO451156  39.554  11.890   5.542
 3853POPC   GL151157  39.804  12.099   5.835
 3853POPC   GL251158  40.147  12.107   5.837
 3853POPC   C1A51159  39.806  12.286   6.258
 3853POPC   D2A51160  39.861  12.102   6.685
 3853POPC   C3A51161  39.861  12.333   7.088
 3853POPC   C4A51162  39.728  12.147   7.480
 3853POPC   C1B51163  40.311  12.354   6.168
 3853POPC   C2B51164  40.351  12.229   6.589
 3853POPC   C3B51165  40.285  12.063   7.016
 3853POPC   C4B51166  40.231  12.199   7.438
 3854POPC   NC351167  31.960  43.313   5.377
 3854POPC   PO451168  32.416  42.820   5.486
 3854POPC   GL151169  32.054  42.971   5.745
 3854POPC   GL251170  31.898  42.655   5.858
 3854POPC   C1A51171  32.049  43.253   6.130
 3854POPC   D2A51172  31.997  43.106   6.562
 3854POPC   C3A51173  32.043  43.375   6.945
 3854POPC   C4A51174  32.186  43.243   7.323
 3854POPC   C1B51175  32.201  42.753   6.177
 3854POPC   C2B51176  32.476  42.939   6.472
 3854POPC   C3B51177  32.413  42.985   6.914
 3854POPC   C4B51178  32.510  42.766   7.292
 3855POPC   NC351179  33.652  29.773   5.441
 3855POPC   PO451180  34.030  30.244   5.509
 3855POPC   GL151181  33.740  30.149   5.834
 3855POPC   GL251182  33.388  30.124   5.763
 3855POPC   C1A51183  33.625  29.924   6.212
 3855POPC   D2A51184  33.645  29.682   6.583
 3855POPC   C3A51185  33.664  29.860   6.953
 3855POPC   C4A51186  33.920  29.787   7.269
 3855POPC   C1B51187  33.150  30.161   6.144
 3855POPC   C2B51188  33.217  30.008   6.569
 3855POPC   C3B51189  33.279  30.199   7.003
 3855POPC   C4B51190  33.514  30.102   7.419
 3856POPC   NC351191   2.220   4.937   5.527
 3856POPC   PO451192   2.891   5.102   5.458
 3856POPC   GL151193   2.692   5.175   5.840
 3856POPC   GL251194   2.673   4.833   5.864
 3856POPC   C1A51195   2.626   5.103   6.272
 3856POPC   D2A51196   2.879   5.037   6.596
 3856POPC   C3A51197   2.617   5.077   6.934
 3856POPC   C4A51198   2.553   5.419   7.216
 3856POPC   C1B51199   3.086   4.799   6.145
 3856POPC   C2B51200   3.319   4.741   6.574
 3856POPC   C3B51201   3.108   4.828   6.997
 3856POPC   C4B51202   2.928   5.089   7.320
 3857POPC   NC351203  20.053  32.012   5.440
 3857POPC   PO451204  19.517  32.270   5.425
 3857POPC   GL151205  19.637  32.094   5.796
 3857POPC   GL251206  19.996  32.144   5.942
 3857POPC   C1A51207  19.558  32.166   6.214
 3857POPC   D2A51208  19.834  32.187   6.554
 3857POPC   C3A51209  19.730  32.111   6.968
 3857POPC   C4A51210  19.564  32.224   7.353
 3857POPC   C1B51211  20.284  32.245   6.318
 3857POPC   C2B51212  20.307  32.269   6.791
 3857POPC   C3B51213  20.123  32.336   7.209
 3857POPC   C4B51214  20.123  32.338   7.662
 3858POPC   NC351215  33.319  30.713   5.363
 3858POPC   PO451216  33.949  31.058   5.360
 3858POPC   GL151217  33.806  30.993   5.882
 3858POPC   GL251218  33.572  30.668   5.828
 3858POPC   C1A51219  33.759  30.911   6.298
 3858POPC   D2A51220  33.923  30.715   6.646
 3858POPC   C3A51221  33.778  30.924   7.002
 3858POPC   C4A51222  34.018  30.756   7.307
 3858POPC   C1B51223  33.573  30.439   6.221
 3858POPC   C2B51224  33.661  30.259   6.621
 3858POPC   C3B51225  33.785  30.362   7.032
 3858POPC   C4B51226  33.543  30.586   7.319
 3859POPC   NC351227  37.666  35.891   5.441
 3859POPC   PO451228  37.379  36.451   5.396
 3859POPC   GL151229  37.469  36.242   5.789
 3859POPC   GL251230  37.566  35.875   5.920
 3859POPC   C1A51231  37.603  36.395   6.165
 3859POPC   D2A51232  37.501  36.294   6.537
 3859POPC   C3A51233  37.666  36.443   6.893
 3859POPC   C4A51234  37.760  36.338   7.324
 3859POPC   C1B51235  37.800  35.936   6.285
 3859POPC   C2B51236  38.001  36.156   6.591
 3859POPC   C3B51237  37.937  35.992   6.973
 3859POPC   C4B51238  38.138  35.966   7.360
 3860POPC   NC351239   3.919  13.615   5.423
 3860POPC   PO451240   4.231  13.120   5.445
 3860POPC   GL151241   4.405  13.291   5.823
 3860POPC   GL251242   4.298  13.636   5.784
 3860POPC   C1A51243   4.453  13.487   6.250
 3860POPC   D2A51244   4.220  13.435   6.638
 3860POPC   C3A51245   4.432  13.522   6.987
 3860POPC   C4A51246   4.223  13.377   7.322
 3860POPC   C1B51247   3.984  13.474   6.105
 3860POPC   C2B51248   3.934  13.790   6.449
 3860POPC   C3B51249   3.976  13.827   6.927
 3860POPC   C4B51250   4.240  13.887   7.330
 3861POPC   NC351251   5.143  39.755   5.278
 3861POPC   PO451252   4.721  40.014   5.624
 3861POPC   GL151253   5.096  39.848   5.803
 3861POPC   GL251254   5.217  40.186   5.868
 3861POPC   C1A51255   5.298  39.696   6.184
 3861POPC   D2A51256   5.118  39.679   6.607
 3861POPC   C3A51257   5.316  39.768   7.009
 3861POPC   C4A51258   5.130  39.872   7.405
 3861POPC   C1B51259   5.061  40.119   6.296
 3861POPC   C2B51260   5.381  40.125   6.631
 3861POPC   C3B51261   5.338  40.286   7.069
 3861POPC   C4B51262   4.902  40.314   7.212
 3862POPC   NC351263   1.522  24.959   5.617
 3862POPC   PO451264   1.096  25.412   5.306
 3862POPC   GL151265   1.071  25.176   5.720
 3862POPC   GL251266   1.038  25.486   5.867
 3862POPC   C1A51267   1.209  25.136   6.192
 3862POPC   D2A51268   1.316  25.187   6.624
 3862POPC   C3A51269   1.078  24.974   6.940
 3862POPC   C4A51270   0.877  25.082   7.325
 3862POPC   C1B51271   1.184  25.760   6.173
 3862POPC   C2B51272   1.141  25.912   6.573
 3862POPC   C3B51273   1.164  25.628   6.912
 3862POPC   C4B51274   1.198  25.487   7.332
 3863POPC   NC351275   5.116  31.790   5.413
 3863POPC   PO451276   5.414  31.226   5.612
 3863POPC   GL151277   5.235  31.563   5.880
 3863POPC   GL251278   4.879  31.709   5.857
 3863POPC   C1A51279   5.038  31.436   6.256
 3863POPC   D2A51280   5.222  31.554   6.610
 3863POPC   C3A51281   5.152  31.383   7.010
 3863POPC   C4A51282   4.804  31.310   7.204
 3863POPC   C1B51283   4.944  31.929   6.244
 3863POPC   C2B51284   5.174  32.080   6.576
 3863POPC   C3B51285   5.166  31.900   6.954
 3863POPC   C4B51286   4.810  31.821   7.149
 3864POPC   NC351287  35.716   9.698   5.315
 3864POPC   PO451288  36.338   9.572   5.005
 3864POPC   GL151289  36.232   9.750   5.448
 3864POPC   GL251290  36.330   9.495   5.662
 3864POPC   C1A51291  36.126   9.867   5.942
 3864POPC   D2A51292  36.258   9.849   6.421
 3864POPC   C3A51293  36.063   9.973   6.831
 3864POPC   C4A51294  36.112   9.866   7.264
 3864POPC   C1B51295  36.409   9.255   6.038
 3864POPC   C2B51296  36.268   9.313   6.460
 3864POPC   C3B51297  36.240   9.491   6.869
 3864POPC   C4B51298  36.178   9.357   7.277
 3865POPC   NC351299   7.754  10.410   5.373
 3865POPC   PO451300   7.303  10.806   5.207
 3865POPC   GL151301   7.245  10.623   5.627
 3865POPC   GL251302   7.338  10.263   5.721
 3865POPC   C1A51303   7.369  10.605   6.088
 3865POPC   D2A51304   7.494  10.249   6.383
 3865POPC   C3A51305   7.539  10.425   6.795
 3865POPC   C4A51306   7.666  10.351   7.210
 3865POPC   C1B51307   7.008  10.255   6.106
 3865POPC   C2B51308   7.053  10.480   6.518
 3865POPC   C3B51309   7.025  10.486   6.988
 3865POPC   C4B51310   6.973  10.386   7.442
 3866POPC   NC351311   3.333   3.467   5.260
 3866POPC   PO451312   3.998   3.708   5.316
 3866POPC   GL151313   3.867   3.623   5.759
 3866POPC   GL251314   3.507   3.518   5.746
 3866POPC   C1A51315   3.723   3.766   6.188
 3866POPC   D2A51316   3.836   3.789   6.630
 3866POPC   C3A51317   3.609   3.633   7.026
 3866POPC   C4A51318   3.607   3.618   7.514
 3866POPC   C1B51319   3.276   3.507   6.129
 3866POPC   C2B51320   3.330   3.652   6.544
 3866POPC   C3B51321   3.092   3.602   6.907
 3866POPC   C4B51322   3.253   3.316   7.216
 3867POPC   NC351323  33.323  15.226   5.111
 3867POPC   PO451324  32.925  14.865   5.436
 3867POPC   GL151325  32.889  15.149   5.758
 3867POPC   GL251326  33.208  15.248   5.638
 3867POPC   C1A51327  32.760  15.075   6.203
 3867POPC   D2A51328  32.749  14.880   6.627
 3867POPC   C3A51329  32.716  15.206   6.926
 3867POPC   C4A51330  32.869  15.364   7.322
 3867POPC   C1B51331  33.219  15.349   6.106
 3867POPC   C2B51332  33.110  15.241   6.542
 3867POPC   C3B51333  33.207  15.149   6.976
 3867POPC   C4B51334  33.319  15.551   7.209
 3868POPC   NC351335  29.135   0.006   5.323
 3868POPC   PO451336  29.255   0.662   5.318
 3868POPC   GL151337  29.181   0.606   5.801
 3868POPC   GL251338  29.022   0.316   5.754
 3868POPC   C1A51339  29.010   0.585   6.272
 3868POPC   D2A51340  28.867   0.503   6.721
 3868POPC   C3A51341  29.127   0.642   7.091
 3868POPC   C4A51342  29.088   0.744   7.554
 3868POPC   C1B51343  29.045   0.105   6.133
 3868POPC   C2B51344  29.096   0.022   6.566
 3868POPC   C3B51345  29.153   0.141   6.994
 3868POPC   C4B51346  29.033  44.952   7.371
 3869POPC   NC351347  40.198   0.923   5.611
 3869POPC   PO451348  40.366   1.419   5.235
 3869POPC   GL151349  40.237   1.384   5.788
 3869POPC   GL251350  39.954   1.132   5.987
 3869POPC   C1A51351  40.111   1.496   6.270
 3869POPC   D2A51352  40.290   1.336   6.652
 3869POPC   C3A51353  40.053   1.229   7.005
 3869POPC   C4A51354  39.803   1.399   7.319
 3869POPC   C1B51355  39.627   1.303   6.262
 3869POPC   C2B51356  39.603   1.443   6.697
 3869POPC   C3B51357  39.549   1.107   6.983
 3869POPC   C4B51358  39.774   0.886   7.316
 3870POPC   NC351359  24.588  38.098   5.361
 3870POPC   PO451360  24.250  38.642   5.550
 3870POPC   GL151361  24.643  38.487   5.727
 3870POPC   GL251362  24.762  38.797   5.688
 3870POPC   C1A51363  24.668  38.336   6.182
 3870POPC   D2A51364  24.393  38.292   6.572
 3870POPC   C3A51365  24.524  38.160   6.977
 3870POPC   C4A51366  24.277  38.329   7.254
 3870POPC   C1B51367  24.582  38.862   6.095
 3870POPC   C2B51368  24.571  38.768   6.516
 3870POPC   C3B51369  24.458  38.700   6.934
 3870POPC   C4B51370  24.766  38.720   7.226
 3871POPC   NC351371  20.783  29.279   5.005
 3871POPC   PO451372  20.658  28.755   5.392
 3871POPC   GL151373  20.578  29.107   5.736
 3871POPC   GL251374  20.274  29.369   5.797
 3871POPC   C1A51375  20.758  29.060   6.165
 3871POPC   D2A51376  20.954  29.280   6.504
 3871POPC   C3A51377  20.892  29.084   6.888
 3871POPC   C4A51378  20.924  29.316   7.238
 3871POPC   C1B51379  20.265  29.198   6.225
 3871POPC   C2B51380  20.417  29.130   6.660
 3871POPC   C3B51381  20.420  29.058   7.121
 3871POPC   C4B51382  20.273  28.807   7.488
 3872POPC   NC351383   1.880  10.730   5.478
 3872POPC   PO451384   1.725  10.106   5.371
 3872POPC   GL151385   1.836  10.269   5.804
 3872POPC   GL251386   1.796  10.637   5.964
 3872POPC   C1A51387   2.063  10.274   6.198
 3872POPC   D2A51388   1.991  10.531   6.556
 3872POPC   C3A51389   1.973  10.359   6.971
 3872POPC   C4A51390   1.713  10.461   7.290
 3872POPC   C1B51391   2.186  10.816   6.148
 3872POPC   C2B51392   2.339  10.932   6.578
 3872POPC   C3B51393   2.127  10.836   6.978
 3872POPC   C4B51394   2.056  10.835   7.436
 3873POPC   NC351395   1.738  17.759   5.447
 3873POPC   PO451396   2.165  17.254   5.496
 3873POPC   GL151397   1.990  17.514   5.838
 3873POPC   GL251398   2.229  17.748   5.954
 3873POPC   C1A51399   1.965  17.425   6.289
 3873POPC   D2A51400   2.077  17.619   6.667
 3873POPC   C3A51401   2.009  17.420   7.049
 3873POPC   C4A51402   1.628  17.435   7.211
 3873POPC   C1B51403   2.434  17.348   6.110
 3873POPC   C2B51404   2.355  17.186   6.535
 3873POPC   C3B51405   2.505  17.440   6.894
 3873POPC   C4B51406   2.433  17.496   7.346
 3874POPC   NC351407  23.153  18.450   5.617
 3874POPC   PO451408  22.727  17.974   5.445
 3874POPC   GL151409  22.818  18.152   5.853
 3874POPC   GL251410  22.710  18.549   5.841
 3874POPC   C1A51411  22.943  18.030   6.279
 3874POPC   D2A51412  22.902  17.853   6.695
 3874POPC   C3A51413  22.915  18.087   7.114
 3874POPC   C4A51414  23.203  18.286   7.425
 3874POPC   C1B51415  22.980  18.541   6.233
 3874POPC   C2B51416  23.140  18.369   6.650
 3874POPC   C3B51417  23.019  18.581   7.043
 3874POPC   C4B51418  22.590  18.668   7.101
 3875POPC   NC351419  11.735  14.441   5.252
 3875POPC   PO451420  11.062  14.354   5.400
 3875POPC   GL151421  11.152  14.451   5.806
 3875POPC   GL251422  11.504  14.505   5.742
 3875POPC   C1A51423  10.997  14.302   6.226
 3875POPC   D2A51424  10.930  14.130   6.647
 3875POPC   C3A51425  10.991  14.351   7.075
 3875POPC   C4A51426  11.135  14.658   7.413
 3875POPC   C1B51427  11.510  14.312   6.158
 3875POPC   C2B51428  11.369  14.419   6.560
 3875POPC   C3B51429  11.483  14.314   6.948
 3875POPC   C4B51430  11.579  14.417   7.309
 3876POPC   NC351431   4.127   0.364   5.535
 3876POPC   PO451432   4.632   0.749   5.452
 3876POPC   GL151433   4.506   0.519   5.843
 3876POPC   GL251434   4.577   0.164   5.913
 3876POPC   C1A51435   4.353   0.475   6.284
 3876POPC   D2A51436   4.580   0.630   6.644
 3876POPC   C3A51437   4.430   0.725   7.020
 3876POPC   C4A51438   4.048   0.580   7.171
 3876POPC   C1B51439   4.133   0.011   6.065
 3876POPC   C2B51440   3.959   0.166   6.439
 3876POPC   C3B51441   4.201   0.258   6.815
 3876POPC   C4B51442   4.216   0.012   7.218
 3877POPC   NC351443  14.161   4.414   5.380
 3877POPC   PO451444  14.814   4.376   5.356
 3877POPC   GL151445  14.534   4.454   5.757
 3877POPC   GL251446  14.325   4.751   5.767
 3877POPC   C1A51447  14.382   4.320   6.207
 3877POPC   D2A51448  14.353   4.462   6.678
 3877POPC   C3A51449  14.465   4.159   7.055
 3877POPC   C4A51450  14.204   3.923   7.383
 3877POPC   C1B51451  14.552   4.790   6.175
 3877POPC   C2B51452  14.828   4.818   6.551
 3877POPC   C3B51453  14.713   4.772   6.958
 3877POPC   C4B51454  14.548   4.585   7.315
 3878POPC   NC351455  27.441  44.947   5.476
 3878POPC   PO451456  27.400  44.193   5.430
 3878POPC   GL151457  27.448  44.525   5.776
 3878POPC   GL251458  27.714  44.404   5.857
 3878POPC   C1A51459  27.715  44.792   6.155
 3878POPC   D2A51460  27.686  44.662   6.616
 3878POPC   C3A51461  27.698  44.861   7.023
 3878POPC   C4A51462  27.643  44.712   7.426
 3878POPC   C1B51463  27.552  44.305   6.260
 3878POPC   C2B51464  27.317  44.304   6.626
 3878POPC   C3B51465  27.478  44.333   7.054
 3878POPC   C4B51466  27.257  44.186   7.433
 3879POPC   NC351467  40.136  36.355   5.027
 3879POPC   PO451468  39.949  36.446   5.643
 3879POPC   GL151469  39.932  36.025   5.774
 3879POPC   GL251470  39.616  35.788   5.737
 3879POPC   C1A51471  40.127  36.087   6.166
 3879POPC   D2A51472  40.329  36.201   6.548
 3879POPC   C3A51473  40.077  36.197   6.915
 3879POPC   C4A51474  40.181  36.012   7.316
 3879POPC   C1B51475  39.595  35.989   6.160
 3879POPC   C2B51476  39.660  36.240   6.519
 3879POPC   C3B51477  39.548  36.126   6.937
 3879POPC   C4B51478  39.709  36.203   7.321
 3880POPC   NC351479  19.002   8.467   5.162
 3880POPC   PO451480  19.446   8.097   5.589
 3880POPC   GL151481  19.169   8.251   5.889
 3880POPC   GL251482  18.871   8.380   5.670
 3880POPC   C1A51483  19.246   8.333   6.293
 3880POPC   D2A51484  19.085   8.144   6.647
 3880POPC   C3A51485  19.247   8.202   7.064
 3880POPC   C4A51486  19.265   8.362   7.508
 3880POPC   C1B51487  18.717   8.356   6.090
 3880POPC   C2B51488  18.647   8.460   6.527
 3880POPC   C3B51489  18.768   8.392   6.949
 3880POPC   C4B51490  18.605   8.395   7.341
 3881POPC   NC351491  21.599  30.085   5.241
 3881POPC   PO451492  21.010  29.644   5.236
 3881POPC   GL151493  21.176  29.762   5.672
 3881POPC   GL251494  21.447  29.992   5.716
 3881POPC   C1A51495  21.059  29.974   6.067
 3881POPC   D2A51496  21.226  29.903   6.485
 3881POPC   C3A51497  21.178  30.168   6.843
 3881POPC   C4A51498  21.107  29.937   7.243
 3881POPC   C1B51499  21.561  30.101   6.142
 3881POPC   C2B51500  21.745  30.099   6.517
 3881POPC   C3B51501  21.734  30.031   6.921
 3881POPC   C4B51502  21.669  29.844   7.294
 3882POPC   NC351503  39.863   1.662   5.317
 3882POPC   PO451504  39.623   2.293   5.476
 3882POPC   GL151505  39.964   2.068   5.712
 3882POPC   GL251506  40.271   1.865   5.640
 3882POPC   C1A51507  40.120   2.033   6.147
 3882POPC   D2A51508  39.947   1.906   6.555
 3882POPC   C3A51509  40.115   2.175   6.861
 3882POPC   C4A51510  40.219   2.322   7.271
 3882POPC   C1B51511  40.494   1.715   6.053
 3882POPC   C2B51512  40.470   1.801   6.542
 3882POPC   C3B51513  40.297   1.712   6.990
 3882POPC   C4B51514  40.331   1.871   7.447
 3883POPC   NC351515   3.053  15.023   5.287
 3883POPC   PO451516   2.468  15.352   5.436
 3883POPC   GL151517   2.686  15.460   5.853
 3883POPC   GL251518   3.068  15.430   5.865
 3883POPC   C1A51519   2.683  15.350   6.318
 3883POPC   D2A51520   2.357  15.249   6.658
 3883POPC   C3A51521   2.499  15.053   7.034
 3883POPC   C4A51522   2.726  15.320   7.336
 3883POPC   C1B51523   3.042  15.029   6.113
 3883POPC   C2B51524   3.094  14.940   6.543
 3883POPC   C3B51525   2.998  15.134   6.931
 3883POPC   C4B51526   2.908  14.817   7.241
 3884POPC   NC351527   6.100  11.525   5.328
 3884POPC   PO451528   5.832  10.909   5.578
 3884POPC   GL151529   6.009  11.297   5.796
 3884POPC   GL251530   5.978  11.685   5.797
 3884POPC   C1A51531   5.930  11.372   6.227
 3884POPC   D2A51532   5.732  11.204   6.575
 3884POPC   C3A51533   5.983  11.327   6.876
 3884POPC   C4A51534   5.887  11.430   7.263
 3884POPC   C1B51535   5.727  11.841   6.152
 3884POPC   C2B51536   5.818  11.758   6.582
 3884POPC   C3B51537   5.581  11.660   6.934
 3884POPC   C4B51538   5.400  11.562   7.359
 3885POPC   NC351539  31.027  33.678   5.160
 3885POPC   PO451540  30.540  34.119   5.244
 3885POPC   GL151541  30.548  34.040   5.690
 3885POPC   GL251542  30.853  33.807   5.750
 3885POPC   C1A51543  30.457  33.806   6.089
 3885POPC   D2A51544  30.477  33.596   6.479
 3885POPC   C3A51545  30.378  33.854   6.811
 3885POPC   C4A51546  30.565  33.965   7.173
 3885POPC   C1B51547  30.949  33.693   6.223
 3885POPC   C2B51548  30.922  33.853   6.690
 3885POPC   C3B51549  31.022  33.662   7.107
 3885POPC   C4B51550  30.825  33.526   7.478
 3886POPC   NC351551  23.608  28.783   5.429
 3886POPC   PO451552  23.985  28.146   5.456
 3886POPC   GL151553  23.697  28.203   5.819
 3886POPC   GL251554  23.456  28.494   5.868
 3886POPC   C1A51555  23.810  28.114   6.243
 3886POPC   D2A51556  24.064  28.313   6.559
 3886POPC   C3A51557  23.890  28.334   6.953
 3886POPC   C4A51558  23.955  28.355   7.366
 3886POPC   C1B51559  23.656  28.619   6.278
 3886POPC   C2B51560  23.694  28.758   6.726
 3886POPC   C3B51561  23.557  28.663   7.162
 3886POPC   C4B51562  23.376  28.857   7.539
 3887POPC   NC351563  13.728  24.965   5.391
 3887POPC   PO451564  13.817  25.672   5.292
 3887POPC   GL151565  13.661  25.367   5.677
 3887POPC   GL251566  13.859  25.117   5.850
 3887POPC   C1A51567  13.456  25.340   6.120
 3887POPC   D2A51568  13.347  25.195   6.579
 3887POPC   C3A51569  13.463  25.406   6.963
 3887POPC   C4A51570  13.580  25.266   7.335
 3887POPC   C1B51571  13.957  25.282   6.231
 3887POPC   C2B51572  13.840  25.370   6.619
 3887POPC   C3B51573  13.935  25.146   7.004
 3887POPC   C4B51574  14.179  24.965   7.331
 3888POPC   NC351575  32.836  32.488   5.342
 3888POPC   PO451576  33.237  31.945   5.444
 3888POPC   GL151577  33.243  32.144   5.860
 3888POPC   GL251578  33.152  32.492   5.851
 3888POPC   C1A51579  33.024  32.095   6.265
 3888POPC   D2A51580  32.870  31.782   6.576
 3888POPC   C3A51581  32.818  31.975   6.981
 3888POPC   C4A51582  33.165  32.176   7.216
 3888POPC   C1B51583  33.326  32.493   6.284
 3888POPC   C2B51584  33.173  32.491   6.745
 3888POPC   C3B51585  33.147  32.702   7.152
 3888POPC   C4B51586  33.074  32.541   7.584
 3889POPC   NC351587  10.036   5.031   5.530
 3889POPC   PO451588   9.474   5.321   5.681
 3889POPC   GL151589   9.839   5.292   5.945
 3889POPC   GL251590   9.794   4.931   5.949
 3889POPC   C1A51591   9.979   5.148   6.372
 3889POPC   D2A51592   9.729   5.224   6.731
 3889POPC   C3A51593  10.017   5.286   7.030
 3889POPC   C4A51594  10.123   5.010   7.293
 3889POPC   C1B51595   9.502   4.971   6.284
 3889POPC   C2B51596   9.556   4.754   6.662
 3889POPC   C3B51597   9.697   4.742   7.107
 3889POPC   C4B51598   9.564   5.135   7.237
 3890POPC   NC351599  40.884  12.764   5.272
 3890POPC   PO451600  40.255  12.766   5.474
 3890POPC   GL151601  40.626  12.963   5.705
 3890POPC   GL251602  41.037  12.940   5.723
 3890POPC   C1A51603  40.746  12.972   6.139
 3890POPC   D2A51604  40.921  12.867   6.494
 3890POPC   C3A51605  40.739  12.914   6.892
 3890POPC   C4A51606  40.854  12.762   7.279
 3890POPC   C1B51607  41.284  12.940   6.121
 3890POPC   C2B51608  41.327  13.201   6.465
 3890POPC   C3B51609  41.027  13.302   6.734
 3890POPC   C4B51610  41.057  13.244   7.124
 3891POPC   NC351611   8.617  20.866   5.383
 3891POPC   PO451612   8.007  20.731   5.232
 3891POPC   GL151613   8.129  20.841   5.632
 3891POPC   GL251614   8.348  20.574   5.768
 3891POPC   C1A51615   8.011  20.839   6.084
 3891POPC   D2A51616   8.154  20.597   6.451
 3891POPC   C3A51617   8.021  20.779   6.867
 3891POPC   C4A51618   7.891  20.800   7.279
 3891POPC   C1B51619   8.019  20.315   6.025
 3891POPC   C2B51620   7.853  20.162   6.418
 3891POPC   C3B51621   7.983  20.274   6.810
 3891POPC   C4B51622   8.117  20.356   7.205
 3892POPC   NC351623  22.000  28.634   5.527
 3892POPC   PO451624  22.407  28.046   5.486
 3892POPC   GL151625  22.287  28.304   5.818
 3892POPC   GL251626  22.445  28.617   5.841
 3892POPC   C1A51627  22.346  28.343   6.259
 3892POPC   D2A51628  22.111  28.258   6.608
 3892POPC   C3A51629  22.272  28.356   6.977
 3892POPC   C4A51630  21.956  28.510   7.246
 3892POPC   C1B51631  22.215  28.836   6.160
 3892POPC   C2B51632  22.277  28.764   6.581
 3892POPC   C3B51633  22.178  28.869   6.969
 3892POPC   C4B51634  22.399  28.718   7.330
 3893POPC   NC351635  42.411  30.193   5.235
 3893POPC   PO451636  42.441  29.577   5.488
 3893POPC   GL151637  42.399  29.780   5.888
 3893POPC   GL251638  42.387  30.153   5.825
 3893POPC   C1A51639  42.570  29.702   6.311
 3893POPC   D2A51640  42.337  29.831   6.665
 3893POPC   C3A51641  42.291  29.662   7.052
 3893POPC   C4A51642  42.559  29.654   7.360
 3893POPC   C1B51643  42.290  30.190   6.294
 3893POPC   C2B51644  42.053  30.231   6.744
 3893POPC   C3B51645  42.171  30.143   7.217
 3893POPC   C4B51646  42.084  30.229   7.720
 3894POPC   NC351647  35.643  31.575   5.217
 3894POPC   PO451648  35.184  31.248   5.568
 3894POPC   GL151649  35.397  31.568   5.818
 3894POPC   GL251650  35.746  31.533   5.918
 3894POPC   C1A51651  35.378  31.705   6.255
 3894POPC   D2A51652  35.571  31.605   6.663
 3894POPC   C3A51653  35.208  31.521   6.883
 3894POPC   C4A51654  35.075  31.145   7.033
 3894POPC   C1B51655  35.634  31.233   6.272
 3894POPC   C2B51656  35.429  31.106   6.661
 3894POPC   C3B51657  35.591  31.258   7.089
 3894POPC   C4B51658  35.635  31.128   7.525
 3895POPC   NC351659  24.136   2.136   5.456
 3895POPC   PO451660  24.472   2.811   5.342
 3895POPC   GL151661  24.336   2.832   5.732
 3895POPC   GL251662  24.221   2.508   5.816
 3895POPC   C1A51663  24.484   2.913   6.141
 3895POPC   D2A51664  24.294   2.877   6.546
 3895POPC   C3A51665  24.500   2.912   6.920
 3895POPC   C4A51666  24.693   3.149   7.258
 3895POPC   C1B51667  23.998   2.667   6.183
 3895POPC   C2B51668  23.862   2.617   6.616
 3895POPC   C3B51669  24.007   2.827   6.985
 3895POPC   C4B51670  24.265   2.826   7.372
 3896POPC   NC351671  20.776  40.333   5.583
 3896POPC   PO451672  20.792  39.704   5.297
 3896POPC   GL151673  20.662  39.739   5.759
 3896POPC   GL251674  20.447  40.017   5.854
 3896POPC   C1A51675  20.588  39.719   6.245
 3896POPC   D2A51676  20.383  39.977   6.602
 3896POPC   C3A51677  20.529  39.881   7.018
 3896POPC   C4A51678  20.896  39.844   7.209
 3896POPC   C1B51679  20.578  40.263   6.201
 3896POPC   C2B51680  20.906  40.146   6.436
 3896POPC   C3B51681  20.903  40.212   6.847
 3896POPC   C4B51682  20.779  40.336   7.243
 3897POPC   NC351683   4.297   3.390   5.514
 3897POPC   PO451684   4.661   3.967   5.497
 3897POPC   GL151685   4.402   3.760   5.839
 3897POPC   GL251686   4.652   3.517   5.944
 3897POPC   C1A51687   4.177   3.502   6.186
 3897POPC   D2A51688   4.346   3.357   6.595
 3897POPC   C3A51689   4.067   3.428   6.898
 3897POPC   C4A51690   3.986   3.392   7.298
 3897POPC   C1B51691   4.564   3.804   6.323
 3897POPC   C2B51692   4.353   3.839   6.731
 3897POPC   C3B51693   4.402   3.685   7.169
 3897POPC   C4B51694   4.414   3.445   7.558
 3898POPC   NC351695  27.879  25.167   5.464
 3898POPC   PO451696  27.363  25.639   5.421
 3898POPC   GL151697  27.629  25.499   5.781
 3898POPC   GL251698  27.575  25.130   5.884
 3898POPC   C1A51699  27.613  25.508   6.236
 3898POPC   D2A51700  27.600  25.186   6.570
 3898POPC   C3A51701  27.587  25.360   6.994
 3898POPC   C4A51702  28.011  25.444   7.141
 3898POPC   C1B51703  27.952  25.083   6.151
 3898POPC   C2B51704  28.094  25.034   6.617
 3898POPC   C3B51705  27.844  24.921   7.021
 3898POPC   C4B51706  27.458  24.905   7.335
 3899POPC   NC351707  43.528  20.423   5.103
 3899POPC   PO451708  43.320  20.880   5.564
 3899POPC   GL151709  43.025  20.647   5.815
 3899POPC   GL251710  42.783  20.882   5.835
 3899POPC   C1A51711  43.065  20.470   6.237
 3899POPC   D2A51712  43.441  20.472   6.516
 3899POPC   C3A51713  43.343  20.411   6.953
 3899POPC   C4A51714  42.938  20.426   7.158
 3899POPC   C1B51715  42.944  20.981   6.230
 3899POPC   C2B51716  42.740  20.885   6.608
 3899POPC   C3B51717  42.856  20.914   7.028
 3899POPC   C4B51718  42.976  21.007   7.436
 3900POPC   NC351719  20.234  17.111   5.424
 3900POPC   PO451720  19.609  17.237   5.368
 3900POPC   GL151721  19.860  17.265   5.762
 3900POPC   GL251722  19.937  17.642   5.805
 3900POPC   C1A51723  19.752  17.264   6.211
 3900POPC   D2A51724  19.654  17.409   6.650
 3900POPC   C3A51725  19.893  17.264   7.025
 3900POPC   C4A51726  19.864  17.426   7.449
 3900POPC   C1B51727  20.053  17.883   6.195
 3900POPC   C2B51728  19.877  17.867   6.592
 3900POPC   C3B51729  19.803  17.765   7.017
 3900POPC   C4B51730  19.911  17.995   7.370
 3901POPC   NC351731  22.422  15.604   5.211
 3901POPC   PO451732  21.831  16.044   5.374
 3901POPC   GL151733  22.067  15.892   5.756
 3901POPC   GL251734  22.421  15.906   5.837
 3901POPC   C1A51735  22.033  15.710   6.162
 3901POPC   D2A51736  22.162  15.717   6.584
 3901POPC   C3A51737  21.999  16.016   6.848
 3901POPC   C4A51738  21.870  15.826   7.212
 3901POPC   C1B51739  22.508  15.896   6.240
 3901POPC   C2B51740  22.421  16.183   6.540
 3901POPC   C3B51741  22.528  16.038   6.906
 3901POPC   C4B51742  22.355  15.945   7.302
 3902POPC   NC351743  39.526   7.569   5.424
 3902POPC   PO451744  38.868   7.468   5.525
 3902POPC   GL151745  39.194   7.327   5.771
 3902POPC   GL251746  39.378   7.579   5.925
 3902POPC   C1A51747  39.022   7.129   6.112
 3902POPC   D2A51748  39.073   6.998   6.501
 3902POPC   C3A51749  39.020   7.209   6.892
 3902POPC   C4A51750  39.307   7.156   7.220
 3902POPC   C1B51751  39.249   7.519   6.341
 3902POPC   C2B51752  39.116   7.714   6.708
 3902POPC   C3B51753  39.286   7.668   7.117
 3902POPC   C4B51754  39.579   7.644   7.462
 3903POPC   NC351755  29.613  35.325   5.489
 3903POPC   PO451756  30.134  35.682   5.282
 3903POPC   GL151757  30.095  35.457   5.721
 3903POPC   GL251758  30.001  35.101   5.760
 3903POPC   C1A51759  30.300  35.424   6.129
 3903POPC   D2A51760  30.253  35.666   6.515
 3903POPC   C3A51761  29.986  35.516   6.832
 3903POPC   C4A51762  29.946  35.634   7.245
 3903POPC   C1B51763  30.148  34.923   6.172
 3903POPC   C2B51764  29.954  34.925   6.617
 3903POPC   C3B51765  29.684  35.093   6.977
 3903POPC   C4B51766  29.686  35.233   7.415
 3904POPC   NC351767  23.194  43.832   5.515
 3904POPC   PO451768  23.847  43.952   5.306
 3904POPC   GL151769  23.697  43.978   5.733
 3904POPC   GL251770  23.517  43.687   5.894
 3904POPC   C1A51771  23.898  44.011   6.149
 3904POPC   D2A51772  23.924  43.870   6.574
 3904POPC   C3A51773  23.876  44.142   6.912
 3904POPC   C4A51774  23.842  43.884   7.288
 3904POPC   C1B51775  23.371  44.069   6.145
 3904POPC   C2B51776  23.456  44.151   6.594
 3904POPC   C3B51777  23.496  43.793   6.901
 3904POPC   C4B51778  23.346  43.734   7.324
 3905POPC   NC351779  27.917  27.054   5.418
 3905POPC   PO451780  27.911  26.374   5.468
 3905POPC   GL151781  27.926  26.690   5.797
 3905POPC   GL251782  27.609  26.838   5.762
 3905POPC   C1A51783  27.815  26.929   6.224
 3905POPC   D2A51784  27.645  27.133   6.623
 3905POPC   C3A51785  27.863  27.056   6.994
 3905POPC   C4A51786  27.872  26.636   7.149
 3905POPC   C1B51787  27.389  26.669   6.117
 3905POPC   C2B51788  27.303  26.736   6.540
 3905POPC   C3B51789  27.392  26.649   6.962
 3905POPC   C4B51790  27.253  26.958   7.193
 3906POPC   NC351791  11.974  23.587   5.421
 3906POPC   PO451792  11.909  24.213   5.562
 3906POPC   GL151793  12.070  23.994   5.936
 3906POPC   GL251794  12.000  23.648   5.946
 3906POPC   C1A51795  12.207  23.855   6.394
 3906POPC   D2A51796  11.980  23.773   6.796
 3906POPC   C3A51797  12.099  23.945   7.215
 3906POPC   C4A51798  11.923  23.979   7.646
 3906POPC   C1B51799  11.975  23.408   6.360
 3906POPC   C2B51800  12.200  23.317   6.764
 3906POPC   C3B51801  12.282  23.379   7.208
 3906POPC   C4B51802  12.100  23.139   7.578
 3907POPC   NC351803  12.721  32.905   5.415
 3907POPC   PO451804  13.240  33.115   5.413
 3907POPC   GL151805  13.224  32.950   5.855
 3907POPC   GL251806  12.958  32.698   5.833
 3907POPC   C1A51807  13.292  32.946   6.352
 3907POPC   D2A51808  13.146  32.854   6.818
 3907POPC   C3A51809  12.874  33.139   7.088
 3907POPC   C4A51810  13.000  33.274   7.524
 3907POPC   C1B51811  12.785  32.876   6.230
 3907POPC   C2B51812  12.646  32.867   6.689
 3907POPC   C3B51813  12.671  32.672   7.125
 3907POPC   C4B51814  12.764  32.544   7.563
 3908POPC   NC351815  43.681  39.378   5.498
 3908POPC   PO451816  43.041  39.105   5.360
 3908POPC   GL151817  43.104  39.291   5.798
 3908POPC   GL251818  42.776  39.241   5.914
 3908POPC   C1A51819  43.214  39.474   6.263
 3908POPC   D2A51820  43.215  39.621   6.732
 3908POPC   C3A51821  43.179  39.306   7.093
 3908POPC   C4A51822  43.328  39.332   7.532
 3908POPC   C1B51823  43.020  39.011   6.241
 3908POPC   C2B51824  43.010  39.108   6.661
 3908POPC   C3B51825  42.801  38.931   7.025
 3908POPC   C4B51826  43.054  38.871   7.363
 3909POPC   NC351827  16.255   8.755   5.465
 3909POPC   PO451828  15.911   9.316   5.466
 3909POPC   GL151829  15.760   9.117   5.843
 3909POPC   GL251830  15.926   8.798   5.881
 3909POPC   C1A51831  15.799   9.037   6.311
 3909POPC   D2A51832  15.971   8.823   6.683
 3909POPC   C3A51833  15.884   9.010   7.092
 3909POPC   C4A51834  15.527   9.240   7.254
 3909POPC   C1B51835  16.288   8.880   6.201
 3909POPC   C2B51836  16.456   9.015   6.628
 3909POPC   C3B51837  16.372   8.826   7.051
 3909POPC   C4B51838  16.281   8.945   7.480
 3910POPC   NC351839  26.983  44.275   5.615
 3910POPC   PO451840  26.923  44.953   5.495
 3910POPC   GL151841  26.960  44.714   5.913
 3910POPC   GL251842  27.057  44.374   6.100
 3910POPC   C1A51843  26.731  44.732   6.308
 3910POPC   D2A51844  26.837  44.696   6.757
 3910POPC   C3A51845  26.629  44.875   7.118
 3910POPC   C4A51846  26.666  44.660   7.523
 3910POPC   C1B51847  27.243  44.734   6.339
 3910POPC   C2B51848  27.278  44.928   6.745
 3910POPC   C3B51849  27.173  44.762   7.177
 3910POPC   C4B51850  27.165  44.633   7.636
 3911POPC   NC351851  21.067  37.655   5.541
 3911POPC   PO451852  21.765  37.560   5.549
 3911POPC   GL151853  21.423  37.475   5.860
 3911POPC   GL251854  21.057  37.352   5.943
 3911POPC   C1A51855  21.314  37.615   6.280
 3911POPC   D2A51856  21.412  37.953   6.546
 3911POPC   C3A51857  21.396  37.772   6.958
 3911POPC   C4A51858  21.550  38.016   7.264
 3911POPC   C1B51859  21.053  37.135   6.324
 3911POPC   C2B51860  21.082  37.382   6.709
 3911POPC   C3B51861  21.014  37.483   7.138
 3911POPC   C4B51862  21.158  37.238   7.469
 3912POPC   NC351863  23.021   4.366   5.347
 3912POPC   PO451864  22.591   3.970   5.579
 3912POPC   GL151865  22.897   4.218   5.811
 3912POPC   GL251866  22.835   4.573   5.794
 3912POPC   C1A51867  23.213   4.291   6.152
 3912POPC   D2A51868  23.219   4.580   6.526
 3912POPC   C3A51869  23.050   4.417   6.909
 3912POPC   C4A51870  23.278   4.375   7.291
 3912POPC   C1B51871  22.775   4.519   6.246
 3912POPC   C2B51872  22.568   4.375   6.600
 3912POPC   C3B51873  22.505   4.238   7.009
 3912POPC   C4B51874  22.797   4.212   7.308
 3913POPC   NC351875  35.166  35.578   5.004
 3913POPC   PO451876  35.207  35.005   5.477
 3913POPC   GL151877  35.358  35.211   5.824
 3913POPC   GL251878  35.150  35.497   5.778
 3913POPC   C1A51879  35.515  35.177   6.250
 3913POPC   D2A51880  35.519  35.409   6.643
 3913POPC   C3A51881  35.406  35.198   7.022
 3913POPC   C4A51882  35.591  35.131   7.408
 3913POPC   C1B51883  35.011  35.369   6.204
 3913POPC   C2B51884  34.992  35.323   6.651
 3913POPC   C3B51885  35.134  35.626   6.940
 3913POPC   C4B51886  35.404  35.651   7.273
 3914POPC   NC351887  38.203  40.938   5.369
 3914POPC   PO451888  38.857  40.793   5.266
 3914POPC   GL151889  38.616  40.633   5.661
 3914POPC   GL251890  38.248  40.624   5.759
 3914POPC   C1A51891  38.619  40.679   6.131
 3914POPC   D2A51892  38.487  40.920   6.497
 3914POPC   C3A51893  38.551  40.711   6.898
 3914POPC   C4A51894  38.505  40.896   7.274
 3914POPC   C1B51895  38.098  40.617   6.177
 3914POPC   C2B51896  38.299  40.443   6.532
 3914POPC   C3B51897  38.153  40.328   6.915
 3914POPC   C4B51898  38.114  40.578   7.258
 3915POPC   NC351899  16.865  26.229   5.389
 3915POPC   PO451900  16.294  26.523   5.715
 3915POPC   GL151901  16.638  26.218   5.857
 3915POPC   GL251902  16.953  25.963   5.812
 3915POPC   C1A51903  16.758  26.148   6.283
 3915POPC   D2A51904  16.597  25.944   6.648
 3915POPC   C3A51905  16.544  26.091   7.098
 3915POPC   C4A51906  16.543  26.070   7.564
 3915POPC   C1B51907  17.149  25.825   6.208
 3915POPC   C2B51908  17.229  25.829   6.610
 3915POPC   C3B51909  16.987  25.875   6.985
 3915POPC   C4B51910  16.823  25.657   7.368
 3916POPC   NC351911  37.063  21.773   5.325
 3916POPC   PO451912  36.682  21.174   5.272
 3916POPC   GL151913  36.745  21.469   5.623
 3916POPC   GL251914  37.070  21.385   5.717
 3916POPC   C1A51915  36.781  21.711   6.019
 3916POPC   D2A51916  36.774  21.591   6.454
 3916POPC   C3A51917  36.551  21.537   6.816
 3916POPC   C4A51918  36.826  21.530   7.146
 3916POPC   C1B51919  36.978  21.237   6.172
 3916POPC   C2B51920  37.042  21.220   6.678
 3916POPC   C3B51921  36.998  21.037   7.106
 3916POPC   C4B51922  37.150  21.131   7.545
 3917POPC   NC351923  44.216  13.874   5.342
 3917POPC   PO451924  43.572  13.783   5.378
 3917POPC   GL151925  43.835  13.799   5.749
 3917POPC   GL251926  44.078  14.059   5.805
 3917POPC   C1A51927  43.771  13.825   6.210
 3917POPC   D2A51928  43.597  13.655   6.603
 3917POPC   C3A51929  43.798  13.731   7.020
 3917POPC   C4A51930  43.536  13.434   7.264
 3917POPC   C1B51931  44.294  13.873   6.165
 3917POPC   C2B51932  44.201  13.896   6.621
 3917POPC   C3B51933  44.358  13.668   6.990
 3917POPC   C4B51934  44.220  13.856   7.344
 3918POPC   NC351935  18.304  14.783   5.022
 3918POPC   PO451936  18.085  14.365   5.509
 3918POPC   GL151937  18.339  14.394   5.854
 3918POPC   GL251938  18.433  14.760   5.807
 3918POPC   C1A51939  18.437  14.150   6.244
 3918POPC   D2A51940  18.282  13.995   6.646
 3918POPC   C3A51941  18.333  14.159   7.039
 3918POPC   C4A51942  18.216  14.497   7.242
 3918POPC   C1B51943  18.625  14.627   6.207
 3918POPC   C2B51944  18.433  14.503   6.630
 3918POPC   C3B51945  18.623  14.630   6.988
 3918POPC   C4B51946  18.737  14.949   7.248
 3919POPC   NC351947  12.889  29.567   5.410
 3919POPC   PO451948  12.560  30.173   5.330
 3919POPC   GL151949  12.738  30.029   5.744
 3919POPC   GL251950  13.078  29.926   5.768
 3919POPC   C1A51951  12.768  29.928   6.218
 3919POPC   D2A51952  12.854  30.065   6.668
 3919POPC   C3A51953  12.688  29.930   7.095
 3919POPC   C4A51954  12.685  29.864   7.534
 3919POPC   C1B51955  13.172  29.624   6.090
 3919POPC   C2B51956  13.035  29.587   6.515
 3919POPC   C3B51957  13.116  29.662   6.921
 3919POPC   C4B51958  13.050  29.589   7.350
 3920POPC   NC351959  30.639  21.176   5.424
 3920POPC   PO451960  30.868  21.824   5.500
 3920POPC   GL151961  30.773  21.492   5.802
 3920POPC   GL251962  30.999  21.199   5.798
 3920POPC   C1A51963  30.627  21.267   6.202
 3920POPC   D2A51964  30.501  21.444   6.625
 3920POPC   C3A51965  30.508  21.385   7.071
 3920POPC   C4A51966  30.745  21.377   7.442
 3920POPC   C1B51967  31.085  21.004   6.201
 3920POPC   C2B51968  30.936  21.120   6.601
 3920POPC   C3B51969  30.975  21.144   7.028
 3920POPC   C4B51970  31.051  20.940   7.412
 3921POPC   NC351971  40.628  39.884   5.402
 3921POPC   PO451972  41.092  40.343   5.323
 3921POPC   GL151973  40.855  40.245   5.716
 3921POPC   GL251974  40.973  39.896   5.770
 3921POPC   C1A51975  40.642  40.132   6.141
 3921POPC   D2A51976  40.810  40.205   6.577
 3921POPC   C3A51977  40.714  39.984   6.981
 3921POPC   C4A51978  40.841  40.083   7.435
 3921POPC   C1B51979  41.008  39.768   6.173
 3921POPC   C2B51980  40.789  39.694   6.554
 3921POPC   C3B51981  40.957  39.533   6.896
 3921POPC   C4B51982  41.026  39.657   7.261
 3922POPC   NC351983  33.130  29.543   5.220
 3922POPC   PO451984  33.070  30.205   5.364
 3922POPC   GL151985  32.854  30.002   5.723
 3922POPC   GL251986  33.034  29.717   5.719
 3922POPC   C1A51987  32.757  29.844   6.162
 3922POPC   D2A51988  32.730  30.148   6.514
 3922POPC   C3A51989  32.789  29.947   6.906
 3922POPC   C4A51990  32.945  29.979   7.317
 3922POPC   C1B51991  33.220  29.627   6.122
 3922POPC   C2B51992  33.206  29.456   6.505
 3922POPC   C3B51993  33.192  29.632   6.904
 3922POPC   C4B51994  33.342  29.642   7.297
 3923POPC   NC351995  27.763  37.822   5.225
 3923POPC   PO451996  28.095  37.494   5.670
 3923POPC   GL151997  27.800  37.772   5.852
 3923POPC   GL251998  27.459  37.767   5.776
 3923POPC   C1A51999  27.688  37.767   6.269
 3923POPC   D2A52000  27.816  37.534   6.595
 3923POPC   C3A52001  27.741  37.802   6.886
 3923POPC   C4A52002  27.794  37.666   7.275
 3923POPC   C1B52003  27.288  37.470   6.082
 3923POPC   C2B52004  27.332  37.355   6.532
 3923POPC   C3B52005  27.471  37.355   6.971
 3923POPC   C4B52006  27.318  37.494   7.384
 3924POPC   NC352007   4.810   2.616   5.523
 3924POPC   PO452008   4.191   2.938   5.600
 3924POPC   GL152009   4.580   2.994   5.798
 3924POPC   GL252010   4.625   2.653   5.983
 3924POPC   C1A52011   4.500   3.092   6.199
 3924POPC   D2A52012   4.097   2.959   6.369
 3924POPC   C3A52013   4.106   2.920   6.801
 3924POPC   C4A52014   4.358   3.071   7.127
 3924POPC   C1B52015   4.191   2.522   6.093
 3924POPC   C2B52016   4.067   2.382   6.468
 3924POPC   C3B52017   3.931   2.449   6.867
 3924POPC   C4B52018   4.158   2.569   7.222
 3925POPC   NC352019  40.976  39.076   5.459
 3925POPC   PO452020  40.463  39.479   5.248
 3925POPC   GL152021  40.645  39.463   5.688
 3925POPC   GL252022  40.933  39.351   5.882
 3925POPC   C1A52023  40.530  39.588   6.118
 3925POPC   D2A52024  40.373  39.373   6.503
 3925POPC   C3A52025  40.464  39.466   6.956
 3925POPC   C4A52026  40.699  39.267   7.328
 3925POPC   C1B52027  40.908  39.266   6.318
 3925POPC   C2B52028  40.772  39.087   6.718
 3925POPC   C3B52029  41.028  38.965   7.081
 3925POPC   C4B52030  41.002  38.864   7.525
 3926POPC   NC352031  30.436  16.097   5.266
 3926POPC   PO452032  30.941  15.703   5.349
 3926POPC   GL152033  30.636  15.828   5.655
 3926POPC   GL252034  30.741  16.129   5.777
 3926POPC   C1A52035  30.523  15.847   6.107
 3926POPC   D2A52036  30.682  15.933   6.513
 3926POPC   C3A52037  30.549  15.693   6.853
 3926POPC   C4A52038  30.424  15.776   7.273
 3926POPC   C1B52039  30.737  16.356   6.191
 3926POPC   C2B52040  30.736  16.424   6.647
 3926POPC   C3B52041  30.574  16.196   6.977
 3926POPC   C4B52042  30.383  16.264   7.350
 3927POPC   NC352043  20.427  35.180   5.329
 3927POPC   PO452044  20.882  35.668   5.128
 3927POPC   GL152045  20.699  35.521   5.620
 3927POPC   GL252046  20.587  35.159   5.807
 3927POPC   C1A52047  20.762  35.505   6.111
 3927POPC   D2A52048  20.772  35.263   6.528
 3927POPC   C3A52049  20.607  35.443   6.937
 3927POPC   C4A52050  20.726  35.540   7.382
 3927POPC   C1B52051  20.419  34.911   6.175
 3927POPC   C2B52052  20.188  35.001   6.567
 3927POPC   C3B52053  20.185  35.163   7.007
 3927POPC   C4B52054  20.223  35.119   7.488
 3928POPC   NC352055   0.239  41.670   5.097
 3928POPC   PO452056   0.785  41.679   5.473
 3928POPC   GL152057   0.714  41.714   5.879
 3928POPC   GL252058   0.457  41.457   5.839
 3928POPC   C1A52059   0.456  41.799   6.246
 3928POPC   D2A52060   0.395  41.622   6.649
 3928POPC   C3A52061   0.626  41.818   6.957
 3928POPC   C4A52062   0.608  41.551   7.303
 3928POPC   C1B52063   0.250  41.285   6.208
 3928POPC   C2B52064   0.202  41.113   6.611
 3928POPC   C3B52065   0.161  41.288   7.036
 3928POPC   C4B52066   0.206  41.327   7.489
 3929POPC   NC352067  19.629   6.487   5.069
 3929POPC   PO452068  20.146   6.713   5.544
 3929POPC   GL152069  19.852   6.523   5.828
 3929POPC   GL252070  19.489   6.598   5.841
 3929POPC   C1A52071  19.843   6.582   6.248
 3929POPC   D2A52072  20.143   6.731   6.527
 3929POPC   C3A52073  19.992   6.489   6.859
 3929POPC   C4A52074  19.629   6.575   7.051
 3929POPC   C1B52075  19.440   6.901   6.197
 3929POPC   C2B52076  19.673   6.932   6.606
 3929POPC   C3B52077  19.865   7.038   6.966
 3929POPC   C4B52078  19.656   7.071   7.361
 3930POPC   NC352079  17.772   2.332   5.280
 3930POPC   PO452080  17.228   1.833   5.328
 3930POPC   GL152081  17.325   2.038   5.755
 3930POPC   GL252082  17.689   2.174   5.766
 3930POPC   C1A52083  17.501   1.892   6.180
 3930POPC   D2A52084  17.694   1.800   6.599
 3930POPC   C3A52085  17.415   1.957   6.946
 3930POPC   C4A52086  17.385   1.792   7.349
 3930POPC   C1B52087  17.670   2.405   6.168
 3930POPC   C2B52088  17.655   2.313   6.614
 3930POPC   C3B52089  17.876   2.178   6.981
 3930POPC   C4B52090  17.832   2.045   7.392
 3931POPC   NC352091  26.378  16.762   5.578
 3931POPC   PO452092  26.019  16.247   5.253
 3931POPC   GL152093  25.938  16.520   5.619
 3931POPC   GL252094  26.210  16.337   5.800
 3931POPC   C1A52095  25.836  16.765   6.024
 3931POPC   D2A52096  25.657  16.804   6.473
 3931POPC   C3A52097  25.873  16.915   6.879
 3931POPC   C4A52098  25.895  16.711   7.291
 3931POPC   C1B52099  26.230  16.510   6.238
 3931POPC   C2B52100  26.386  16.501   6.652
 3931POPC   C3B52101  26.343  16.677   7.042
 3931POPC   C4B52102  26.366  16.703   7.480
 3932POPC   NC352103   0.228  20.976   5.588
 3932POPC   PO452104   0.272  20.485   5.070
 3932POPC   GL152105   0.303  20.451   5.550
 3932POPC   GL252106   0.568  20.637   5.737
 3932POPC   C1A52107   0.185  20.466   6.026
 3932POPC   D2A52108   0.278  20.653   6.444
 3932POPC   C3A52109   0.453  20.396   6.741
 3932POPC   C4A52110   0.419  20.263   7.146
 3932POPC   C1B52111   0.691  20.770   6.141
 3932POPC   C2B52112   0.754  20.842   6.575
 3932POPC   C3B52113   0.728  20.710   7.026
 3932POPC   C4B52114   1.016  20.695   7.407
 3933POPC   NC352115  11.853  32.455   5.209
 3933POPC   PO452116  12.321  32.733   5.314
 3933POPC   GL152117  12.327  32.869   5.777
 3933POPC   GL252118  12.062  33.140   5.810
 3933POPC   C1A52119  12.282  33.002   6.250
 3933POPC   D2A52120  12.129  32.882   6.668
 3933POPC   C3A52121  12.304  33.023   7.065
 3933POPC   C4A52122  12.169  32.735   7.384
 3933POPC   C1B52123  11.877  33.354   6.197
 3933POPC   C2B52124  11.844  33.302   6.653
 3933POPC   C3B52125  11.798  33.036   7.051
 3933POPC   C4B52126  11.614  33.135   7.443
 3934POPC   NC352127  34.409  30.329   5.268
 3934POPC   PO452128  34.855  29.780   5.187
 3934POPC   GL152129  34.793  30.001   5.592
 3934POPC   GL252130  34.602  29.731   5.746
 3934POPC   C1A52131  34.796  30.076   6.060
 3934POPC   D2A52132  34.590  30.038   6.460
 3934POPC   C3A52133  34.760  29.832   6.775
 3934POPC   C4A52134  34.912  29.742   7.143
 3934POPC   C1B52135  34.287  29.889   6.070
 3934POPC   C2B52136  34.079  29.976   6.492
 3934POPC   C3B52137  34.222  30.083   6.913
 3934POPC   C4B52138  34.414  29.884   7.261
 3935POPC   NC352139  39.526   6.819   5.198
 3935POPC   PO452140  38.920   6.512   5.238
 3935POPC   GL152141  39.116   6.640   5.664
 3935POPC   GL252142  39.484   6.535   5.641
 3935POPC   C1A52143  39.025   6.610   6.145
 3935POPC   D2A52144  39.033   6.502   6.594
 3935POPC   C3A52145  39.255   6.736   6.903
 3935POPC   C4A52146  39.343   6.423   7.209
 3935POPC   C1B52147  39.480   6.823   6.005
 3935POPC   C2B52148  39.510   6.703   6.443
 3935POPC   C3B52149  39.685   6.496   6.826
 3935POPC   C4B52150  39.726   6.773   7.157
 3936POPC   NC352151  44.375  29.331   5.527
 3936POPC   PO452152  44.660  28.732   5.390
 3936POPC   GL152153  44.569  28.885   5.762
 3936POPC   GL252154  44.233  28.784   5.805
 3936POPC   C1A52155  44.745  28.990   6.151
 3936POPC   D2A52156  44.556  29.232   6.490
 3936POPC   C3A52157  44.827  29.205   6.822
 3936POPC   C4A52158  44.925  29.487   7.137
 3936POPC   C1B52159  44.240  28.929   6.194
 3936POPC   C2B52160  44.446  28.719   6.527
 3936POPC   C3B52161  44.359  28.840   6.933
 3936POPC   C4B52162  44.468  29.168   7.185
 3937POPC   NC352163  44.871  23.343   5.371
 3937POPC   PO452164  44.412  23.713   5.043
 3937POPC   GL152165  44.511  23.669   5.580
 3937POPC   GL252166  44.446  23.974   5.774
 3937POPC   C1A52167  44.720  23.604   6.022
 3937POPC   D2A52168  44.580  23.566   6.474
 3937POPC   C3A52169  44.854  23.550   6.827
 3937POPC   C4A52170   0.094  23.781   7.173
 3937POPC   C1B52171  44.280  23.883   6.178
 3937POPC   C2B52172  44.362  24.053   6.588
 3937POPC   C3B52173  44.518  24.013   7.008
 3937POPC   C4B52174  44.558  23.628   7.214
 3938POPC   NC352175  18.331   5.800   5.268
 3938POPC   PO452176  18.276   6.469   5.473
 3938POPC   GL152177  18.196   6.241   5.889
 3938POPC   GL252178  18.347   5.932   5.796
 3938POPC   C1A52179  18.322   6.016   6.315
 3938POPC   D2A52180  18.219   5.767   6.711
 3938POPC   C3A52181  18.242   5.698   7.174
 3938POPC   C4A52182  17.929   6.023   7.303
 3938POPC   C1B52183  18.667   6.255   6.006
 3938POPC   C2B52184  18.684   6.384   6.448
 3938POPC   C3B52185  18.646   6.151   6.829
 3938POPC   C4B52186  18.397   6.195   7.195
 3939POPC   NC352187  41.736   2.642   5.337
 3939POPC   PO452188  41.514   3.269   5.405
 3939POPC   GL152189  41.472   3.048   5.773
 3939POPC   GL252190  41.634   2.777   5.819
 3939POPC   C1A52191  41.209   2.949   6.142
 3939POPC   D2A52192  41.032   3.068   6.544
 3939POPC   C3A52193  41.265   3.112   6.936
 3939POPC   C4A52194  41.598   2.922   7.210
 3939POPC   C1B52195  41.588   2.603   6.233
 3939POPC   C2B52196  41.380   2.672   6.618
 3939POPC   C3B52197  41.485   2.497   6.999
 3939POPC   C4B52198  41.800   2.468   7.313
 3940POPC   NC352199  15.400  11.120   5.150
 3940POPC   PO452200  14.995  11.563   5.487
 3940POPC   GL152201  15.183  11.303   5.825
 3940POPC   GL252202  14.944  11.082   5.990
 3940POPC   C1A52203  15.378  11.154   6.220
 3940POPC   D2A52204  15.222  11.005   6.620
 3940POPC   C3A52205  15.267  11.246   6.929
 3940POPC   C4A52206  15.475  11.176   7.280
 3940POPC   C1B52207  14.803  11.217   6.382
 3940POPC   C2B52208  14.778  11.191   6.865
 3940POPC   C3B52209  14.941  11.191   7.304
 3940POPC   C4B52210  14.764  11.034   7.694
 3941POPC   NC352211  41.189  14.996   5.427
 3941POPC   PO452212  41.832  15.093   5.427
 3941POPC   GL152213  41.591  15.294   5.702
 3941POPC   GL252214  41.820  15.550   5.807
 3941POPC   C1A52215  41.504  15.282   6.139
 3941POPC   D2A52216  41.362  15.136   6.553
 3941POPC   C3A52217  41.625  15.059   6.900
 3941POPC   C4A52218  41.631  15.260   7.334
 3941POPC   C1B52219  41.972  15.547   6.221
 3941POPC   C2B52220  41.797  15.533   6.662
 3941POPC   C3B52221  41.976  15.599   7.106
 3941POPC   C4B52222  41.810  15.729   7.524
 3942POPC   NC352223  28.166  37.155   5.360
 3942POPC   PO452224  27.519  37.380   5.166
 3942POPC   GL152225  27.598  37.293   5.665
 3942POPC   GL252226  27.454  36.983   5.822
 3942POPC   C1A52227  27.743  37.252   6.164
 3942POPC   D2A52228  27.807  37.019   6.591
 3942POPC   C3A52229  27.951  37.201   7.011
 3942POPC   C4A52230  27.716  37.186   7.418
 3942POPC   C1B52231  27.357  36.915   6.280
 3942POPC   C2B52232  27.339  36.887   6.751
 3942POPC   C3B52233  27.608  36.802   7.110
 3942POPC   C4B52234  27.570  36.708   7.556
 3943POPC   NC352235  35.848  38.298   5.432
 3943POPC   PO452236  35.203  38.562   5.373
 3943POPC   GL152237  35.111  38.474   5.806
 3943POPC   GL252238  35.110  38.817   5.859
 3943POPC   C1A52239  35.254  38.460   6.261
 3943POPC   D2A52240  35.535  38.609   6.583
 3943POPC   C3A52241  35.523  38.451   6.993
 3943POPC   C4A52242  35.406  38.387   7.415
 3943POPC   C1B52243  35.064  38.943   6.271
 3943POPC   C2B52244  35.133  38.882   6.720
 3943POPC   C3B52245  35.180  38.843   7.146
 3943POPC   C4B52246  34.963  38.635   7.457
 3944POPC   NC352247  30.232  31.202   5.095
 3944POPC   PO452248  30.773  31.419   5.247
 3944POPC   GL152249  30.545  31.546   5.643
 3944POPC   GL252250  30.828  31.411   5.799
 3944POPC   C1A52251  30.484  31.527   6.143
 3944POPC   D2A52252  30.276  31.532   6.552
 3944POPC   C3A52253  30.522  31.514   6.914
 3944POPC   C4A52254  30.651  31.680   7.325
 3944POPC   C1B52255  31.002  31.653   6.152
 3944POPC   C2B52256  30.888  31.798   6.570
 3944POPC   C3B52257  31.029  31.629   6.967
 3944POPC   C4B52258  31.079  31.282   7.210
 3945POPC   NC352259  22.519  26.776   5.447
 3945POPC   PO452260  21.863  26.541   5.459
 3945POPC   GL152261  22.081  26.774   5.826
 3945POPC   GL252262  22.044  27.171   5.855
 3945POPC   C1A52263  22.337  26.545   6.184
 3945POPC   D2A52264  22.495  26.545   6.623
 3945POPC   C3A52265  22.270  26.732   6.988
 3945POPC   C4A52266  22.340  26.708   7.424
 3945POPC   C1B52267  22.394  27.049   6.165
 3945POPC   C2B52268  22.471  27.061   6.627
 3945POPC   C3B52269  22.406  27.239   7.057
 3945POPC   C4B52270  22.440  27.185   7.536
 3946POPC   NC352271  41.187  36.613   5.555
 3946POPC   PO452272  41.770  37.051   5.500
 3946POPC   GL152273  41.565  37.006   5.906
 3946POPC   GL252274  41.192  37.019   5.863
 3946POPC   C1A52275  41.575  37.151   6.366
 3946POPC   D2A52276  41.756  37.282   6.817
 3946POPC   C3A52277  41.764  37.100   7.224
 3946POPC   C4A52278  41.888  37.282   7.661
 3946POPC   C1B52279  41.229  36.716   6.196
 3946POPC   C2B52280  41.221  36.814   6.610
 3946POPC   C3B52281  41.301  37.111   6.926
 3946POPC   C4B52282  41.266  36.934   7.313
 3947POPC   NC352283  32.243  40.845   5.318
 3947POPC   PO452284  32.615  41.200   5.742
 3947POPC   GL152285  32.225  40.922   5.848
 3947POPC   GL252286  32.082  40.590   5.772
 3947POPC   C1A52287  31.948  40.863   6.214
 3947POPC   D2A52288  32.135  41.068   6.563
 3947POPC   C3A52289  32.455  41.003   6.870
 3947POPC   C4A52290  32.398  41.084   7.295
 3947POPC   C1B52291  32.334  40.533   6.149
 3947POPC   C2B52292  32.136  40.471   6.534
 3947POPC   C3B52293  32.024  40.633   6.905
 3947POPC   C4B52294  32.269  40.573   7.255
 3948POPC   NC352295  24.848   6.294   5.558
 3948POPC   PO452296  24.139   6.319   5.432
 3948POPC   GL152297  24.370   5.993   5.698
 3948POPC   GL252298  24.121   5.762   5.846
 3948POPC   C1A52299  24.605   5.686   6.005
 3948POPC   D2A52300  24.574   5.593   6.469
 3948POPC   C3A52301  24.784   5.744   6.856
 3948POPC   C4A52302  24.804   5.806   7.299
 3948POPC   C1B52303  24.060   5.692   6.309
 3948POPC   C2B52304  24.119   5.687   6.764
 3948POPC   C3B52305  24.326   5.838   7.123
 3948POPC   C4B52306  24.402   6.207   7.378
 3949POPC   NC352307  29.661  42.886   5.550
 3949POPC   PO452308  30.111  43.381   5.354
 3949POPC   GL152309  30.092  43.158   5.780
 3949POPC   GL252310  29.787  43.077   6.023
 3949POPC   C1A52311  30.205  43.274   6.216
 3949POPC   D2A52312  29.961  43.270   6.577
 3949POPC   C3A52313  30.133  43.295   6.967
 3949POPC   C4A52314  29.968  43.280   7.346
 3949POPC   C1B52315  29.958  42.820   6.366
 3949POPC   C2B52316  29.803  42.633   6.751
 3949POPC   C3B52317  29.705  42.886   7.108
 3949POPC   C4B52318  29.595  42.910   7.516
 3950POPC   NC352319  37.232  13.661   5.379
 3950POPC   PO452320  36.550  13.370   5.493
 3950POPC   GL152321  36.792  13.438   5.857
 3950POPC   GL252322  36.989  13.750   5.813
 3950POPC   C1A52323  36.738  13.331   6.298
 3950POPC   D2A52324  36.909  13.490   6.666
 3950POPC   C3A52325  36.944  13.420   7.092
 3950POPC   C4A52326  37.289  13.539   7.297
 3950POPC   C1B52327  36.751  13.921   6.144
 3950POPC   C2B52328  36.869  14.076   6.555
 3950POPC   C3B52329  36.905  13.932   6.980
 3950POPC   C4B52330  36.704  13.979   7.361
 3951POPC   NC352331  30.284  44.798   5.240
 3951POPC   PO452332  30.857  44.410   5.444
 3951POPC   GL152333  30.636  44.737   5.595
 3951POPC   GL252334  30.921  44.948   5.562
 3951POPC   C1A52335  30.404  44.766   5.963
 3951POPC   D2A52336  30.483  44.587   6.368
 3951POPC   C3A52337  30.502  44.737   6.796
 3951POPC   C4A52338  30.388  44.567   7.210
 3951POPC   C1B52339  30.914  44.819   6.022
 3951POPC   C2B52340  30.948  44.768   6.465
 3951POPC   C3B52341  31.019  44.688   6.876
 3951POPC   C4B52342  30.836  44.805   7.198
 3952POPC   NC352343  22.489  14.207   5.422
 3952POPC   PO452344  22.000  14.647   5.510
 3952POPC   GL152345  22.183  14.397   5.803
 3952POPC   GL252346  22.260  14.641   6.029
 3952POPC   C1A52347  22.244  14.004   6.045
 3952POPC   D2A52348  22.353  13.906   6.471
 3952POPC   C3A52349  22.243  14.231   6.771
 3952POPC   C4A52350  22.217  14.380   7.181
 3952POPC   C1B52351  21.811  14.744   6.165
 3952POPC   C2B52352  21.649  14.779   6.605
 3952POPC   C3B52353  21.907  14.798   7.013
 3952POPC   C4B52354  22.000  14.746   7.457
 3953POPC   NC352355  17.907  30.661   5.031
 3953POPC   PO452356  17.292  30.839   5.293
 3953POPC   GL152357  17.349  30.734   5.720
 3953POPC   GL252358  17.512  31.036   5.782
 3953POPC   C1A52359  17.187  30.849   6.146
 3953POPC   D2A52360  17.329  30.982   6.542
 3953POPC   C3A52361  17.203  30.788   6.956
 3953POPC   C4A52362  17.304  30.818   7.415
 3953POPC   C1B52363  17.713  30.884   6.136
 3953POPC   C2B52364  17.767  30.701   6.519
 3953POPC   C3B52365  17.702  30.890   6.897
 3953POPC   C4B52366  17.787  30.724   7.267
 3954POPC   NC352367  19.357  11.019   5.137
 3954POPC   PO452368  18.765  11.079   5.540
 3954POPC   GL152369  18.857  11.347   5.885
 3954POPC   GL252370  19.232  11.396   6.040
 3954POPC   C1A52371  18.861  11.160   6.259
 3954POPC   D2A52372  19.117  11.347   6.587
 3954POPC   C3A52373  19.087  11.173   6.973
 3954POPC   C4A52374  19.015  11.379   7.308
 3954POPC   C1B52375  19.415  11.025   6.318
 3954POPC   C2B52376  19.536  11.010   6.786
 3954POPC   C3B52377  19.533  11.114   7.262
 3954POPC   C4B52378  19.301  11.216   7.690
 3955POPC   NC352379  40.215  27.610   5.017
 3955POPC   PO452380  39.856  27.940   5.559
 3955POPC   GL152381  40.019  27.773   5.988
 3955POPC   GL252382  40.141  27.425   5.963
 3955POPC   C1A52383  39.965  27.541   6.419
 3955POPC   D2A52384  40.148  27.389   6.802
 3955POPC   C3A52385  40.048  27.682   7.102
 3955POPC   C4A52386  40.150  27.866   7.488
 3955POPC   C1B52387  39.699  27.338   6.031
 3955POPC   C2B52388  39.624  27.125   6.403
 3955POPC   C3B52389  39.721  27.080   6.813
 3955POPC   C4B52390  39.745  27.284   7.205
 3956POPC   NC352391  36.423  32.896   5.544
 3956POPC   PO452392  35.806  32.648   5.454
 3956POPC   GL152393  36.004  32.858   5.821
 3956POPC   GL252394  36.343  32.712   5.986
 3956POPC   C1A52395  36.003  33.024   6.238
 3956POPC   D2A52396  35.774  32.895   6.603
 3956POPC   C3A52397  35.946  32.835   7.007
 3956POPC   C4A52398  36.217  33.167   7.172
 3956POPC   C1B52399  36.344  32.668   6.373
 3956POPC   C2B52400  36.313  32.933   6.666
 3956POPC   C3B52401  36.587  32.890   6.946
 3956POPC   C4B52402  36.599  32.616   7.265
 3957POPC   NC352403  11.806  18.035   5.227
 3957POPC   PO452404  12.420  18.141   5.519
 3957POPC   GL152405  12.088  18.021   5.790
 3957POPC   GL252406  11.797  18.208   5.725
 3957POPC   C1A52407  11.945  18.083   6.206
 3957POPC   D2A52408  11.982  18.277   6.584
 3957POPC   C3A52409  12.190  18.028   6.859
 3957POPC   C4A52410  11.967  18.090   7.205
 3957POPC   C1B52411  11.912  18.558   6.010
 3957POPC   C2B52412  11.756  18.716   6.416
 3957POPC   C3B52413  11.708  18.668   6.872
 3957POPC   C4B52414  11.987  18.600   7.258
 3958POPC   NC352415  43.579  14.213   5.553
 3958POPC   PO452416  44.147  14.391   5.402
 3958POPC   GL152417  43.892  14.539   5.807
 3958POPC   GL252418  43.560  14.728   5.761
 3958POPC   C1A52419  43.707  14.324   6.221
 3958POPC   D2A52420  43.728  14.134   6.657
 3958POPC   C3A52421  43.978  14.244   7.072
 3958POPC   C4A52422  44.009  14.245   7.554
 3958POPC   C1B52423  43.717  14.814   6.206
 3958POPC   C2B52424  43.716  14.673   6.642
 3958POPC   C3B52425  43.813  14.756   7.061
 3958POPC   C4B52426  43.715  14.645   7.511
 3959POPC   NC352427  12.225  13.606   5.395
 3959POPC   PO452428  11.803  14.119   5.583
 3959POPC   GL152429  11.952  13.752   5.828
 3959POPC   GL252430  11.642  13.554   5.955
 3959POPC   C1A52431  12.091  13.462   6.178
 3959POPC   D2A52432  12.155  13.193   6.529
 3959POPC   C3A52433  12.212  13.414   6.927
 3959POPC   C4A52434  12.425  13.372   7.309
 3959POPC   C1B52435  11.757  13.821   6.297
 3959POPC   C2B52436  11.792  13.562   6.654
 3959POPC   C3B52437  11.732  13.709   7.059
 3959POPC   C4B52438  11.939  14.112   7.101
 3960POPC   NC352439  32.845  19.482   5.499
 3960POPC   PO452440  33.115  20.103   5.444
 3960POPC   GL152441  32.948  19.887   5.824
 3960POPC   GL252442  33.133  19.605   5.913
 3960POPC   C1A52443  32.693  19.828   6.239
 3960POPC   D2A52444  32.519  19.647   6.588
 3960POPC   C3A52445  32.430  19.906   6.911
 3960POPC   C4A52446  32.735  19.801   7.125
 3960POPC   C1B52447  33.190  19.785   6.320
 3960POPC   C2B52448  33.077  19.909   6.749
 3960POPC   C3B52449  33.217  19.681   7.127
 3960POPC   C4B52450  33.398  19.778   7.547
 3961POPC   NC352451  24.150  33.662   5.459
 3961POPC   PO452452  23.473  33.630   5.386
 3961POPC   GL152453  23.507  33.765   5.802
 3961POPC   GL252454  23.854  33.786   5.874
 3961POPC   C1A52455  23.421  33.554   6.205
 3961POPC   D2A52456  23.650  33.618   6.578
 3961POPC   C3A52457  23.548  33.471   6.979
 3961POPC   C4A52458  23.625  33.755   7.286
 3961POPC   C1B52459  23.747  34.027   6.244
 3961POPC   C2B52460  23.903  34.102   6.687
 3961POPC   C3B52461  24.100  34.048   7.132
 3961POPC   C4B52462  23.881  34.090   7.564
 3962POPC   NC352463  19.239   2.655   5.495
 3962POPC   PO452464  18.738   3.095   5.527
 3962POPC   GL152465  18.986   2.953   5.844
 3962POPC   GL252466  18.922   2.589   5.898
 3962POPC   C1A52467  19.206   2.882   6.208
 3962POPC   D2A52468  19.127   2.533   6.494
 3962POPC   C3A52469  19.151   2.700   6.911
 3962POPC   C4A52470  19.071   3.091   7.098
 3962POPC   C1B52471  18.715   2.767   6.257
 3962POPC   C2B52472  18.765   2.940   6.644
 3962POPC   C3B52473  18.657   2.794   7.021
 3962POPC   C4B52474  18.860   2.638   7.360
 3963POPC   NC352475  40.470  29.088   5.383
 3963POPC   PO452476  39.815  28.798   5.298
 3963POPC   GL152477  40.052  28.925   5.650
 3963POPC   GL252478  40.042  29.265   5.605
 3963POPC   C1A52479  40.246  28.808   6.044
 3963POPC   D2A52480  40.199  28.962   6.463
 3963POPC   C3A52481  39.893  29.057   6.782
 3963POPC   C4A52482  39.988  28.904   7.177
 3963POPC   C1B52483  40.117  29.313   6.061
 3963POPC   C2B52484  40.200  29.474   6.490
 3963POPC   C3B52485  40.095  29.542   6.924
 3963POPC   C4B52486  39.818  29.385   7.238
 3964POPC   NC352487   5.220  19.017   5.384
 3964POPC   PO452488   4.548  18.868   5.421
 3964POPC   GL152489   4.841  19.036   5.744
 3964POPC   GL252490   5.105  18.828   5.831
 3964POPC   C1A52491   5.026  19.206   6.152
 3964POPC   D2A52492   5.149  18.972   6.544
 3964POPC   C3A52493   5.111  19.178   6.942
 3964POPC   C4A52494   4.769  19.378   7.159
 3964POPC   C1B52495   4.898  18.646   6.183
 3964POPC   C2B52496   4.709  18.666   6.596
 3964POPC   C3B52497   4.944  18.700   6.965
 3964POPC   C4B52498   4.904  18.886   7.341
 3965POPC   NC352499  18.122   9.852   5.346
 3965POPC   PO452500  18.802   9.881   5.336
 3965POPC   GL152501  18.480   9.919   5.758
 3965POPC   GL252502  18.099   9.834   5.835
 3965POPC   C1A52503  18.346   9.955   6.244
 3965POPC   D2A52504  18.486  10.044   6.686
 3965POPC   C3A52505  18.468   9.895   7.116
 3965POPC   C4A52506  18.380   9.561   7.406
 3965POPC   C1B52507  18.279   9.483   6.086
 3965POPC   C2B52508  18.474   9.534   6.505
 3965POPC   C3B52509  18.261   9.496   6.901
 3965POPC   C4B52510  17.935   9.766   7.093
 3966POPC   NC352511  41.360  24.741   5.502
 3966POPC   PO452512  41.737  24.291   5.172
 3966POPC   GL152513  41.685  24.327   5.636
 3966POPC   GL252514  41.757  24.654   5.824
 3966POPC   C1A52515  41.635  24.170   6.071
 3966POPC   D2A52516  41.811  24.274   6.512
 3966POPC   C3A52517  41.641  24.131   6.926
 3966POPC   C4A52518  41.463  24.338   7.335
 3966POPC   C1B52519  41.501  24.642   6.231
 3966POPC   C2B52520  41.420  24.554   6.687
 3966POPC   C3B52521  41.653  24.723   7.049
 3966POPC   C4B52522  41.382  24.846   7.382
 3967POPC   NC352523   2.506  15.846   5.440
 3967POPC   PO452524   3.137  16.091   5.519
 3967POPC   GL152525   2.869  15.943   5.857
 3967POPC   GL252526   2.519  16.110   5.880
 3967POPC   C1A52527   3.023  15.782   6.273
 3967POPC   D2A52528   3.198  15.887   6.676
 3967POPC   C3A52529   3.078  15.675   7.052
 3967POPC   C4A52530   2.970  15.851   7.461
 3967POPC   C1B52531   2.515  15.840   6.267
 3967POPC   C2B52532   2.648  15.686   6.711
 3967POPC   C3B52533   2.569  15.777   7.152
 3967POPC   C4B52534   2.487  15.666   7.619
 3968POPC   NC352535   6.827  35.298   5.447
 3968POPC   PO452536   6.201  35.040   5.558
 3968POPC   GL152537   6.488  35.361   5.830
 3968POPC   GL252538   6.791  35.615   5.877
 3968POPC   C1A52539   6.392  35.580   6.200
 3968POPC   D2A52540   6.160  35.467   6.546
 3968POPC   C3A52541   6.330  35.604   6.954
 3968POPC   C4A52542   6.484  35.254   7.227
 3968POPC   C1B52543   6.911  35.527   6.279
 3968POPC   C2B52544   6.708  35.454   6.658
 3968POPC   C3B52545   6.833  35.586   7.072
 3968POPC   C4B52546   6.847  35.479   7.522
 3969POPC   NC352547  23.122   0.807   5.601
 3969POPC   PO452548  22.711   1.378   5.487
 3969POPC   GL152549  22.840   1.178   5.844
 3969POPC   GL252550  22.531   1.026   5.877
 3969POPC   C1A52551  22.924   1.001   6.258
 3969POPC   D2A52552  23.086   1.127   6.659
 3969POPC   C3A52553  23.005   1.087   7.100
 3969POPC   C4A52554  23.132   1.270   7.481
 3969POPC   C1B52555  22.539   1.346   6.219
 3969POPC   C2B52556  22.634   1.387   6.625
 3969POPC   C3B52557  22.584   1.370   7.038
 3969POPC   C4B52558  22.534   1.060   7.362
 3970POPC   NC352559   6.756  43.040   5.506
 3970POPC   PO452560   6.546  43.680   5.449
 3970POPC   GL152561   6.514  43.379   5.818
 3970POPC   GL252562   6.867  43.283   5.937
 3970POPC   C1A52563   6.491  43.349   6.274
 3970POPC   D2A52564   6.819  43.365   6.582
 3970POPC   C3A52565   6.665  43.193   6.956
 3970POPC   C4A52566   6.333  42.813   7.031
 3970POPC   C1B52567   6.805  42.926   6.250
 3970POPC   C2B52568   6.678  42.769   6.668
 3970POPC   C3B52569   6.823  42.744   7.136
 3970POPC   C4B52570   6.920  42.819   7.604
 3971POPC   NC352571  28.455  14.027   5.469
 3971POPC   PO452572  28.130  13.412   5.175
 3971POPC   GL152573  28.210  13.568   5.583
 3971POPC   GL252574  28.568  13.545   5.685
 3971POPC   C1A52575  28.209  13.458   6.037
 3971POPC   D2A52576  28.371  13.403   6.468
 3971POPC   C3A52577  28.302  13.761   6.764
 3971POPC   C4A52578  28.283  13.786   7.202
 3971POPC   C1B52579  28.623  13.746   6.117
 3971POPC   C2B52580  28.768  13.865   6.545
 3971POPC   C3B52581  28.754  13.974   6.985
 3971POPC   C4B52582  28.547  14.193   7.308
 3972POPC   NC352583   0.007  15.522   5.414
 3972POPC   PO452584  44.610  16.036   5.239
 3972POPC   GL152585  44.540  16.033   5.681
 3972POPC   GL252586  44.549  15.675   5.648
 3972POPC   C1A52587  44.729  16.031   6.129
 3972POPC   D2A52588  44.644  16.170   6.541
 3972POPC   C3A52589  44.897  16.004   6.863
 3972POPC   C4A52590  44.667  16.103   7.187
 3972POPC   C1B52591  44.679  15.529   6.014
 3972POPC   C2B52592  44.688  15.639   6.480
 3972POPC   C3B52593  44.478  15.679   6.884
 3972POPC   C4B52594  44.519  15.589   7.316
 3973POPC   NC352595  33.450  32.395   5.445
 3973POPC   PO452596  33.946  31.991   5.410
 3973POPC   GL152597  33.909  32.191   5.831
 3973POPC   GL252598  33.679  32.472   5.900
 3973POPC   C1A52599  33.658  32.067   6.206
 3973POPC   D2A52600  33.452  32.066   6.590
 3973POPC   C3A52601  33.755  31.997   6.906
 3973POPC   C4A52602  33.653  31.912   7.323
 3973POPC   C1B52603  34.054  32.581   6.154
 3973POPC   C2B52604  34.139  32.703   6.590
 3973POPC   C3B52605  34.012  32.513   6.983
 3973POPC   C4B52606  33.598  32.401   7.141
 3974POPC   NC352607  41.495  26.551   5.362
 3974POPC   PO452608  41.604  25.974   5.280
 3974POPC   GL152609  41.588  26.139   5.710
 3974POPC   GL252610  41.905  26.179   5.873
 3974POPC   C1A52611  41.501  26.211   6.181
 3974POPC   D2A52612  41.644  26.290   6.593
 3974POPC   C3A52613  41.438  26.137   6.924
 3974POPC   C4A52614  41.218  26.320   7.219
 3974POPC   C1B52615  41.963  25.981   6.308
 3974POPC   C2B52616  42.080  26.086   6.758
 3974POPC   C3B52617  41.908  26.040   7.205
 3974POPC   C4B52618  41.944  25.983   7.673
 3975POPC   NC352619  18.662  29.377   5.378
 3975POPC   PO452620  18.100  28.935   5.410
 3975POPC   GL152621  18.235  29.109   5.812
 3975POPC   GL252622  18.596  29.077   5.797
 3975POPC   C1A52623  18.314  28.964   6.254
 3975POPC   D2A52624  18.252  28.732   6.651
 3975POPC   C3A52625  18.121  28.999   6.999
 3975POPC   C4A52626  18.075  28.890   7.400
 3975POPC   C1B52627  18.605  29.419   6.099
 3975POPC   C2B52628  18.679  29.395   6.564
 3975POPC   C3B52629  18.576  29.271   7.006
 3975POPC   C4B52630  18.578  29.563   7.376
 3976POPC   NC352631   8.409   9.864   5.439
 3976POPC   PO452632   7.764   9.988   5.551
 3976POPC   GL152633   7.794   9.719   5.862
 3976POPC   GL252634   8.081   9.513   5.735
 3976POPC   C1A52635   7.836   9.828   6.309
 3976POPC   D2A52636   8.280   9.867   6.409
 3976POPC   C3A52637   8.403   9.862   6.859
 3976POPC   C4A52638   8.285  10.037   7.255
 3976POPC   C1B52639   8.091   9.405   6.172
 3976POPC   C2B52640   8.246   9.402   6.600
 3976POPC   C3B52641   8.090   9.479   7.014
 3976POPC   C4B52642   8.437   9.498   7.257
 3977POPC   NC352643   0.132  40.064   5.467
 3977POPC   PO452644   0.814  39.801   5.443
 3977POPC   GL152645   0.510  39.933   5.754
 3977POPC   GL252646   0.242  39.667   5.788
 3977POPC   C1A52647   0.382  40.129   6.142
 3977POPC   D2A52648   0.611  40.020   6.522
 3977POPC   C3A52649   0.327  40.003   6.849
 3977POPC   C4A52650   0.124  39.885   7.186
 3977POPC   C1B52651   0.529  39.634   6.166
 3977POPC   C2B52652   0.422  39.531   6.604
 3977POPC   C3B52653   0.537  39.570   7.070
 3977POPC   C4B52654   0.405  39.583   7.528
 3978POPC   NC352655  17.807   9.143   5.466
 3978POPC   PO452656  17.236   9.452   5.391
 3978POPC   GL152657  17.364   9.227   5.806
 3978POPC   GL252658  17.464   8.850   5.779
 3978POPC   C1A52659  17.386   9.168   6.293
 3978POPC   D2A52660  17.308   9.158   6.785
 3978POPC   C3A52661  17.383   8.815   7.046
 3978POPC   C4A52662  17.334   8.937   7.445
 3978POPC   C1B52663  17.573   8.708   6.203
 3978POPC   C2B52664  17.695   8.843   6.618
 3978POPC   C3B52665  17.823   8.598   6.990
 3978POPC   C4B52666  17.804   8.743   7.424
 3979POPC   NC352667  40.492   5.070   5.407
 3979POPC   PO452668  41.120   4.760   5.577
 3979POPC   GL152669  40.825   4.993   5.811
 3979POPC   GL252670  40.922   5.311   5.703
 3979POPC   C1A52671  40.491   4.936   6.135
 3979POPC   D2A52672  40.437   5.179   6.532
 3979POPC   C3A52673  40.667   5.052   6.913
 3979POPC   C4A52674  40.576   4.858   7.307
 3979POPC   C1B52675  40.752   5.394   6.130
 3979POPC   C2B52676  40.862   5.561   6.530
 3979POPC   C3B52677  40.661   5.561   6.939
 3979POPC   C4B52678  40.563   5.354   7.334
 3980POPC   NC352679  28.808  33.072   5.549
 3980POPC   PO452680  29.374  32.963   5.263
 3980POPC   GL152681  29.324  32.853   5.724
 3980POPC   GL252682  29.015  32.680   5.810
 3980POPC   C1A52683  29.317  33.029   6.160
 3980POPC   D2A52684  29.116  33.128   6.573
 3980POPC   C3A52685  29.253  33.082   7.012
 3980POPC   C4A52686  29.176  33.409   7.334
 3980POPC   C1B52687  28.826  32.890   6.162
 3980POPC   C2B52688  28.804  32.723   6.533
 3980POPC   C3B52689  28.911  32.720   6.927
 3980POPC   C4B52690  28.772  33.020   7.209
 3981POPC   NC352691  18.479  31.839   5.280
 3981POPC   PO452692  18.165  31.204   5.224
 3981POPC   GL152693  18.204  31.501   5.637
 3981POPC   GL252694  18.484  31.764   5.781
 3981POPC   C1A52695  18.327  31.402   6.089
 3981POPC   D2A52696  18.363  31.550   6.483
 3981POPC   C3A52697  18.349  31.368   6.861
 3981POPC   C4A52698  18.446  31.534   7.259
 3981POPC   C1B52699  18.084  31.855   6.044
 3981POPC   C2B52700  17.923  31.806   6.487
 3981POPC   C3B52701  18.078  31.842   6.932
 3981POPC   C4B52702  17.961  31.655   7.356
 3982POPC   NC352703  15.759   0.088   5.461
 3982POPC   PO452704  15.823   0.727   5.390
 3982POPC   GL152705  15.945   0.448   5.784
 3982POPC   GL252706  16.257   0.212   5.818
 3982POPC   C1A52707  15.934   0.320   6.241
 3982POPC   D2A52708  16.106   0.473   6.667
 3982POPC   C3A52709  15.817   0.434   7.032
 3982POPC   C4A52710  15.367   0.489   7.168
 3982POPC   C1B52711  16.434   0.223   6.272
 3982POPC   C2B52712  16.364   0.028   6.717
 3982POPC   C3B52713  16.286   0.229   7.123
 3982POPC   C4B52714  16.133   0.532   7.434
 3983POPC   NC352715  24.217  31.809   5.142
 3983POPC   PO452716  24.808  31.414   5.339
 3983POPC   GL152717  24.650  31.560   5.753
 3983POPC   GL252718  24.474  31.268   5.803
 3983POPC   C1A52719  24.494  31.649   6.211
 3983POPC   D2A52720  24.596  31.821   6.636
 3983POPC   C3A52721  24.511  31.613   7.023
 3983POPC   C4A52722  24.165  31.425   7.190
 3983POPC   C1B52723  24.368  31.124   6.203
 3983POPC   C2B52724  24.568  31.205   6.571
 3983POPC   C3B52725  24.433  31.078   6.944
 3983POPC   C4B52726  24.612  31.156   7.350
 3984POPC   NC352727  23.771  39.816   5.486
 3984POPC   PO452728  23.953  39.215   5.270
 3984POPC   GL152729  23.759  39.345   5.696
 3984POPC   GL252730  23.448  39.202   5.830
 3984POPC   C1A52731  23.744  39.432   6.165
 3984POPC   D2A52732  23.833  39.267   6.574
 3984POPC   C3A52733  23.702  39.383   6.988
 3984POPC   C4A52734  23.909  39.447   7.397
 3984POPC   C1B52735  23.515  38.968   6.261
 3984POPC   C2B52736  23.505  38.931   6.748
 3984POPC   C3B52737  23.438  38.902   7.199
 3984POPC   C4B52738  23.367  38.880   7.656
 3985POPC   NC352739  43.181  34.976   5.495
 3985POPC   PO452740  43.510  34.402   5.453
 3985POPC   GL152741  43.363  34.557   5.828
 3985POPC   GL252742  43.304  34.208   5.888
 3985POPC   C1A52743  43.198  34.825   6.202
 3985POPC   D2A52744  43.224  34.741   6.667
 3985POPC   C3A52745  42.878  34.670   6.923
 3985POPC   C4A52746  42.781  34.614   7.331
 3985POPC   C1B52747  43.370  34.364   6.309
 3985POPC   C2B52748  43.242  34.237   6.704
 3985POPC   C3B52749  43.177  34.323   7.128
 3985POPC   C4B52750  43.215  34.083   7.475
 3986POPC   NC352751   1.017  24.690   5.231
 3986POPC   PO452752   1.322  24.582   5.818
 3986POPC   GL152753   1.041  24.678   6.085
 3986POPC   GL252754   0.716  24.753   5.897
 3986POPC   C1A52755   1.189  24.687   6.508
 3986POPC   D2A52756   1.536  24.756   6.807
 3986POPC   C3A52757   1.415  24.529   7.185
 3986POPC   C4A52758   1.381  24.610   7.623
 3986POPC   C1B52759   0.681  24.355   6.170
 3986POPC   C2B52760   0.922  24.204   6.530
 3986POPC   C3B52761   0.987  24.441   6.920
 3986POPC   C4B52762   0.935  24.414   7.361
 3987POPC   NC352763  20.421  27.627   5.409
 3987POPC   PO452764  21.016  27.318   5.285
 3987POPC   GL152765  20.940  27.499   5.741
 3987POPC   GL252766  20.727  27.781   5.817
 3987POPC   C1A52767  20.729  27.429   6.188
 3987POPC   D2A52768  20.590  27.256   6.608
 3987POPC   C3A52769  20.728  27.427   7.007
 3987POPC   C4A52770  20.910  27.760   7.195
 3987POPC   C1B52771  20.622  27.946   6.248
 3987POPC   C2B52772  20.677  27.874   6.698
 3987POPC   C3B52773  20.449  27.970   7.049
 3987POPC   C4B52774  20.470  27.886   7.455
 3988POPC   NC352775  32.939  13.063   5.385
 3988POPC   PO452776  33.181  12.398   5.523
 3988POPC   GL152777  33.186  12.644   5.918
 3988POPC   GL252778  33.146  13.009   5.871
 3988POPC   C1A52779  33.268  12.571   6.375
 3988POPC   D2A52780  33.004  12.598   6.745
 3988POPC   C3A52781  33.064  12.899   7.106
 3988POPC   C4A52782  33.154  12.808   7.570
 3988POPC   C1B52783  32.936  12.963   6.291
 3988POPC   C2B52784  32.754  13.098   6.693
 3988POPC   C3B52785  32.555  13.213   7.095
 3988POPC   C4B52786  32.832  13.210   7.457
 3989POPC   NC352787  41.923  42.201   5.121
 3989POPC   PO452788  42.427  42.176   5.604
 3989POPC   GL152789  42.138  42.402   5.885
 3989POPC   GL252790  42.223  42.732   5.751
 3989POPC   C1A52791  42.152  42.328   6.344
 3989POPC   D2A52792  42.513  42.241   6.657
 3989POPC   C3A52793  42.368  42.114   7.061
 3989POPC   C4A52794  42.071  42.250   7.361
 3989POPC   C1B52795  42.479  42.689   6.157
 3989POPC   C2B52796  42.658  42.732   6.574
 3989POPC   C3B52797  42.681  42.607   7.040
 3989POPC   C4B52798  42.842  42.599   7.494
 3990POPC   NC352799  28.424  30.418   5.064
 3990POPC   PO452800  28.191  30.917   5.408
 3990POPC   GL152801  28.354  30.598   5.696
 3990POPC   GL252802  28.679  30.630   5.815
 3990POPC   C1A52803  28.312  30.413   6.114
 3990POPC   D2A52804  28.200  30.624   6.473
 3990POPC   C3A52805  28.494  30.656   6.798
 3990POPC   C4A52806  28.506  30.413   7.184
 3990POPC   C1B52807  28.694  30.752   6.234
 3990POPC   C2B52808  28.614  31.104   6.488
 3990POPC   C3B52809  28.531  31.183   6.911
 3990POPC   C4B52810  28.563  30.916   7.248
 3991POPC   NC352811  33.334  44.768   5.388
 3991POPC   PO452812  32.628  44.523   5.403
 3991POPC   GL152813  32.879  44.452   5.828
 3991POPC   GL252814  33.094  44.746   5.878
 3991POPC   C1A52815  33.128  44.374   6.221
 3991POPC   D2A52816  33.202  44.574   6.578
 3991POPC   C3A52817  33.131  44.393   6.982
 3991POPC   C4A52818  33.038  44.562   7.365
 3991POPC   C1B52819  33.388  44.896   6.208
 3991POPC   C2B52820  33.437   0.032   6.665
 3991POPC   C3B52821  33.298  44.964   7.119
 3991POPC   C4B52822  33.394  44.836   7.605
 3992POPC   NC352823  30.895  38.396   5.198
 3992POPC   PO452824  30.294  38.588   5.252
 3992POPC   GL152825  30.587  38.660   5.666
 3992POPC   GL252826  30.899  38.418   5.727
 3992POPC   C1A52827  30.702  38.725   6.123
 3992POPC   D2A52828  30.600  38.355   6.386
 3992POPC   C3A52829  30.551  38.337   6.820
 3992POPC   C4A52830  30.592  38.275   7.251
 3992POPC   C1B52831  31.078  38.371   6.167
 3992POPC   C2B52832  31.056  38.452   6.615
 3992POPC   C3B52833  31.208  38.475   7.042
 3992POPC   C4B52834  31.070  38.596   7.441
 3993POPC   NC352835  28.603  35.015   5.465
 3993POPC   PO452836  28.302  34.430   5.440
 3993POPC   GL152837  28.319  34.669   5.806
 3993POPC   GL252838  28.682  34.702   5.886
 3993POPC   C1A52839  28.319  34.486   6.219
 3993POPC   D2A52840  28.247  34.488   6.654
 3993POPC   C3A52841  28.301  34.849   6.948
 3993POPC   C4A52842  28.404  34.686   7.379
 3993POPC   C1B52843  28.811  34.323   6.157
 3993POPC   C2B52844  28.655  34.136   6.580
 3993POPC   C3B52845  28.748  34.162   7.043
 3993POPC   C4B52846  28.596  34.241   7.496
 3994POPC   NC352847  33.468   9.391   5.541
 3994POPC   PO452848  33.885   9.945   5.409
 3994POPC   GL152849  33.615   9.931   5.764
 3994POPC   GL252850  33.786   9.664   5.839
 3994POPC   C1A52851  33.758   9.975   6.238
 3994POPC   D2A52852  33.751   9.716   6.606
 3994POPC   C3A52853  33.685   9.937   6.964
 3994POPC   C4A52854  33.951   9.973   7.296
 3994POPC   C1B52855  33.682   9.432   6.179
 3994POPC   C2B52856  33.504   9.262   6.533
 3994POPC   C3B52857  33.765   9.212   6.879
 3994POPC   C4B52858  33.758   9.493   7.215
 3995POPC   NC352859  28.411   5.164   5.371
 3995POPC   PO452860  28.933   4.675   5.441
 3995POPC   GL152861  28.567   4.844   5.727
 3995POPC   GL252862  28.271   4.625   5.718
 3995POPC   C1A52863  28.492   5.086   6.111
 3995POPC   D2A52864  28.528   5.264   6.525
 3995POPC   C3A52865  28.272   5.164   6.851
 3995POPC   C4A52866  28.369   5.191   7.245
 3995POPC   C1B52867  28.349   4.586   6.148
 3995POPC   C2B52868  28.391   4.756   6.543
 3995POPC   C3B52869  28.461   4.718   6.984
 3995POPC   C4B52870  28.521   4.731   7.402
 3996POPC   NC352871  24.808  12.484   5.261
 3996POPC   PO452872  24.285  12.108   5.189
 3996POPC   GL152873  24.233  12.134   5.702
 3996POPC   GL252874  24.019  12.374   5.780
 3996POPC   C1A52875  24.409  12.185   6.154
 3996POPC   D2A52876  24.552  12.257   6.621
 3996POPC   C3A52877  24.454  11.957   6.957
 3996POPC   C4A52878  24.649  11.999   7.377
 3996POPC   C1B52879  23.971  12.549   6.148
 3996POPC   C2B52880  24.244  12.626   6.460
 3996POPC   C3B52881  24.256  12.631   6.904
 3996POPC   C4B52882  24.306  12.340   7.250
 3997POPC   NC352883  18.514  14.078   5.483
 3997POPC   PO452884  17.953  13.657   5.560
 3997POPC   GL152885  18.196  13.869   5.851
 3997POPC   GL252886  18.544  13.734   5.850
 3997POPC   C1A52887  18.208  13.692   6.248
 3997POPC   D2A52888  18.314  13.479   6.629
 3997POPC   C3A52889  18.112  13.664   7.001
 3997POPC   C4A52890  17.939  13.489   7.342
 3997POPC   C1B52891  18.704  13.538   6.221
 3997POPC   C2B52892  18.751  13.765   6.575
 3997POPC   C3B52893  18.604  13.720   6.979
 3997POPC   C4B52894  18.812  13.776   7.329
 3998POPC   NC352895  44.256   2.896   5.512
 3998POPC   PO452896  43.622   3.050   5.260
 3998POPC   GL152897  43.773   2.968   5.733
 3998POPC   GL252898  43.910   2.612   5.776
 3998POPC   C1A52899  43.780   2.870   6.218
 3998POPC   D2A52900  43.712   2.727   6.662
 3998POPC   C3A52901  43.825   2.992   7.015
 3998POPC   C4A52902  44.028   3.206   7.337
 3998POPC   C1B52903  44.183   2.576   6.177
 3998POPC   C2B52904  44.079   2.401   6.607
 3998POPC   C3B52905  43.913   2.491   7.058
 3998POPC   C4B52906  44.052   2.693   7.444
 3999POPC   NC352907  16.076  25.757   5.215
 3999POPC   PO452908  16.430  26.307   5.247
 3999POPC   GL152909  16.213  26.023   5.639
 3999POPC   GL252910  15.895  26.183   5.867
 3999POPC   C1A52911  16.275  25.973   6.126
 3999POPC   D2A52912  16.185  26.265   6.489
 3999POPC   C3A52913  16.066  26.078   6.888
 3999POPC   C4A52914  16.056  26.105   7.335
 3999POPC   C1B52915  15.646  26.073   6.306
 3999POPC   C2B52916  15.557  25.980   6.785
 3999POPC   C3B52917  15.460  25.959   7.258
 3999POPC   C4B52918  15.650  26.145   7.647
 4000POPC   NC352919  27.399   3.259   5.322
 4000POPC   PO452920  27.341   3.846   5.631
 4000POPC   GL152921  27.506   3.498   5.862
 4000POPC   GL252922  27.240   3.235   5.818
 4000POPC   C1A52923  27.651   3.645   6.295
 4000POPC   D2A52924  27.986   3.807   6.637
 4000POPC   C3A52925  27.849   3.635   7.032
 4000POPC   C4A52926  27.426   3.702   7.211
 4000POPC   C1B52927  27.376   3.191   6.262
 4000POPC   C2B52928  27.594   3.275   6.657
 4000POPC   C3B52929  27.545   3.221   7.079
 4000POPC   C4B52930  27.399   3.230   7.485
 4001POPC   NC352931  29.725  37.109   5.194
 4001POPC   PO452932  30.155  36.611   5.295
 4001POPC   GL152933  29.918  36.612   5.663
 4001POPC   GL252934  29.831  36.961   5.712
 4001POPC   C1A52935  30.032  36.621   6.094
 4001POPC   D2A52936  29.859  36.676   6.484
 4001POPC   C3A52937  30.041  36.656   6.885
 4001POPC   C4A52938  30.125  36.610   7.322
 4001POPC   C1B52939  29.856  37.118   6.152
 4001POPC   C2B52940  29.782  37.295   6.556
 4001POPC   C3B52941  29.924  37.207   6.957
 4001POPC   C4B52942  30.104  37.241   7.346
 4002POPC   NC352943  20.497  16.265   5.487
 4002POPC   PO452944  20.804  15.776   5.199
 4002POPC   GL152945  20.626  15.836   5.724
 4002POPC   GL252946  20.410  16.103   5.940
 4002POPC   C1A52947  20.752  15.860   6.201
 4002POPC   D2A52948  20.552  16.112   6.560
 4002POPC   C3A52949  20.691  15.971   6.976
 4002POPC   C4A52950  20.593  16.097   7.396
 4002POPC   C1B52951  20.238  15.835   6.243
 4002POPC   C2B52952  20.060  15.953   6.637
 4002POPC   C3B52953  20.175  16.227   6.973
 4002POPC   C4B52954  20.096  16.038   7.363
 4003POPC   NC352955  23.205   5.255   5.462
 4003POPC   PO452956  23.850   5.438   5.438
 4003POPC   GL152957  23.740   5.405   5.852
 4003POPC   GL252958  23.401   5.533   5.853
 4003POPC   C1A52959  23.927   5.188   6.218
 4003POPC   D2A52960  24.219   5.237   6.549
 4003POPC   C3A52961  24.063   5.112   6.959
 4003POPC   C4A52962  23.756   5.061   7.254
 4003POPC   C1B52963  23.473   5.448   6.291
 4003POPC   C2B52964  23.707   5.370   6.689
 4003POPC   C3B52965  23.751   5.558   7.111
 4003POPC   C4B52966  23.634   5.412   7.587
 4004POPC   NC352967  35.877  39.640   5.557
 4004POPC   PO452968  36.308  40.008   5.168
 4004POPC   GL152969  36.299  40.114   5.673
 4004POPC   GL252970  35.930  40.125   5.803
 4004POPC   C1A52971  36.310  40.155   6.191
 4004POPC   D2A52972  36.087  40.212   6.636
 4004POPC   C3A52973  36.035  39.915   6.999
 4004POPC   C4A52974  36.231  39.826   7.422
 4004POPC   C1B52975  35.752  40.062   6.241
 4004POPC   C2B52976  35.538  40.255   6.618
 4004POPC   C3B52977  35.608  40.296   7.061
 4004POPC   C4B52978  35.937  40.220   7.398
 4005POPC   NC352979  23.514  33.156   5.414
 4005POPC   PO452980  24.181  33.177   5.415
 4005POPC   GL152981  23.893  32.984   5.792
 4005POPC   GL252982  23.510  32.946   5.876
 4005POPC   C1A52983  23.938  33.097   6.254
 4005POPC   D2A52984  23.898  33.173   6.720
 4005POPC   C3A52985  24.064  32.983   7.087
 4005POPC   C4A52986  23.774  33.188   7.367
 4005POPC   C1B52987  23.499  32.844   6.300
 4005POPC   C2B52988  23.403  33.131   6.613
 4005POPC   C3B52989  23.445  32.956   7.036
 4005POPC   C4B52990  23.705  32.665   7.256
 4006POPC   NC352991  18.953  16.794   5.557
 4006POPC   PO452992  19.383  16.264   5.390
 4006POPC   GL152993  19.346  16.544   5.786
 4006POPC   GL252994  19.404  16.958   5.786
 4006POPC   C1A52995  19.157  16.419   6.219
 4006POPC   D2A52996  19.222  16.503   6.672
 4006POPC   C3A52997  18.958  16.602   7.017
 4006POPC   C4A52998  19.269  16.677   7.308
 4006POPC   C1B52999  19.130  16.910   6.161
 4006POPC   C2B53000  18.939  16.901   6.543
 4006POPC   C3B53001  18.881  17.092   6.917
 4006POPC   C4B53002  18.847  17.014   7.299
 4007POPC   NC353003  38.232   5.068   5.440
 4007POPC   PO453004  38.763   5.540   5.416
 4007POPC   GL153005  38.585   5.264   5.744
 4007POPC   GL253006  38.246   5.422   5.814
 4007POPC   C1A53007  38.555   5.279   6.202
 4007POPC   D2A53008  38.345   5.427   6.561
 4007POPC   C3A53009  38.570   5.347   6.916
 4007POPC   C4A53010  38.367   5.324   7.291
 4007POPC   C1B53011  38.078   5.114   6.132
 4007POPC   C2B53012  37.912   5.018   6.541
 4007POPC   C3B53013  38.046   5.137   6.936
 4007POPC   C4B53014  37.915   5.090   7.373
 4008POPC   NC353015  14.782   6.953   5.573
 4008POPC   PO453016  14.295   6.521   5.282
 4008POPC   GL153017  14.277   6.807   5.656
 4008POPC   GL253018  14.520   6.656   5.901
 4008POPC   C1A53019  14.127   6.882   6.114
 4008POPC   D2A53020  14.290   6.692   6.522
 4008POPC   C3A53021  14.443   6.964   6.864
 4008POPC   C4A53022  14.366   7.148   7.275
 4008POPC   C1B53023  14.793   6.612   6.276
 4008POPC   C2B53024  14.786   6.602   6.733
 4008POPC   C3B53025  14.534   6.537   7.141
 4008POPC   C4B53026  14.479   6.381   7.569
 4009POPC   NC353027   4.227  37.964   5.402
 4009POPC   PO453028   4.201  38.619   5.370
 4009POPC   GL153029   4.339  38.422   5.747
 4009POPC   GL253030   4.573  38.695   5.782
 4009POPC   C1A53031   4.216  38.262   6.160
 4009POPC   D2A53032   4.063  38.473   6.545
 4009POPC   C3A53033   4.148  38.286   6.958
 4009POPC   C4A53034   4.374  38.180   7.336
 4009POPC   C1B53035   4.417  38.733   6.221
 4009POPC   C2B53036   4.419  38.853   6.663
 4009POPC   C3B53037   4.524  38.608   7.041
 4009POPC   C4B53038   4.392  38.648   7.496
 4010POPC   NC353039  20.690  21.431   5.436
 4010POPC   PO453040  20.139  21.668   5.470
 4010POPC   GL153041  20.299  21.392   5.814
 4010POPC   GL253042  20.488  21.619   5.993
 4010POPC   C1A53043  20.434  21.174   6.209
 4010POPC   D2A53044  20.594  21.430   6.536
 4010POPC   C3A53045  20.470  21.435   6.937
 4010POPC   C4A53046  20.619  21.221   7.298
 4010POPC   C1B53047  20.919  21.532   6.152
 4010POPC   C2B53048  21.089  21.344   6.514
 4010POPC   C3B53049  21.024  21.376   6.943
 4010POPC   C4B53050  21.097  21.376   7.388
 4011POPC   NC353051   1.657   0.142   5.116
 4011POPC   PO453052   1.160   0.501   5.465
 4011POPC   GL153053   1.079   0.601   5.842
 4011POPC   GL253054   0.800   0.367   5.859
 4011POPC   C1A53055   1.312   0.597   6.229
 4011POPC   D2A53056   1.503   0.410   6.593
 4011POPC   C3A53057   1.430   0.639   6.932
 4011POPC   C4A53058   1.318   0.542   7.343
 4011POPC   C1B53059   1.056   0.134   6.152
 4011POPC   C2B53060   1.189  44.995   6.560
 4011POPC   C3B53061   1.141   0.212   6.956
 4011POPC   C4B53062   0.974   0.161   7.372
 4012POPC   NC353063  33.061  23.035   5.262
 4012POPC   PO453064  32.713  22.541   5.399
 4012POPC   GL153065  32.712  22.858   5.721
 4012POPC   GL253066  32.990  23.093   5.785
 4012POPC   C1A53067  32.783  22.816   6.174
 4012POPC   D2A53068  33.076  23.032   6.442
 4012POPC   C3A53069  33.022  22.903   6.873
 4012POPC   C4A53070  33.271  22.936   7.235
 4012POPC   C1B53071  32.614  23.276   6.030
 4012POPC   C2B53072  32.624  23.313   6.476
 4012POPC   C3B53073  32.871  23.404   6.861
 4012POPC   C4B53074  32.803  23.179   7.262
 4013POPC   NC353075   5.477  32.471   5.506
 4013POPC   PO453076   4.854  32.149   5.463
 4013POPC   GL153077   4.912  32.246   5.846
 4013POPC   GL253078   5.223  32.089   5.826
 4013POPC   C1A53079   4.752  32.407   6.257
 4013POPC   D2A53080   4.895  32.516   6.647
 4013POPC   C3A53081   4.918  32.324   7.006
 4013POPC   C4A53082   4.862  32.455   7.377
 4013POPC   C1B53083   5.285  32.381   6.169
 4013POPC   C2B53084   5.398  32.563   6.546
 4013POPC   C3B53085   5.306  32.663   6.950
 4013POPC   C4B53086   5.670  32.643   7.170
 4014POPC   NC353087  39.175  29.970   5.259
 4014POPC   PO453088  39.621  29.550   5.605
 4014POPC   GL153089  39.300  29.784   5.824
 4014POPC   GL253090  39.111  30.101   5.780
 4014POPC   C1A53091  39.350  29.921   6.248
 4014POPC   D2A53092  39.183  29.754   6.612
 4014POPC   C3A53093  39.342  29.946   6.977
 4014POPC   C4A53094  39.554  29.816   7.337
 4014POPC   C1B53095  39.012  30.312   6.181
 4014POPC   C2B53096  39.111  30.273   6.625
 4014POPC   C3B53097  39.075  30.400   7.051
 4014POPC   C4B53098  39.135  30.158   7.429
 4015POPC   NC353099   8.753  40.269   5.608
 4015POPC   PO453100   8.896  39.764   5.166
 4015POPC   GL153101   9.056  39.826   5.637
 4015POPC   GL253102   8.749  39.751   5.826
 4015POPC   C1A53103   9.139  39.814   6.143
 4015POPC   D2A53104   9.128  40.131   6.496
 4015POPC   C3A53105   9.347  40.156   6.900
 4015POPC   C4A53106   9.286  40.372   7.295
 4015POPC   C1B53107   8.673  40.043   6.202
 4015POPC   C2B53108   8.654  40.008   6.619
 4015POPC   C3B53109   8.832  40.054   7.015
 4015POPC   C4B53110   8.930  39.639   7.199
 4016POPC   NC353111  33.462  33.308   5.656
 4016POPC   PO453112  33.044  33.760   5.469
 4016POPC   GL153113  32.941  33.772   5.890
 4016POPC   GL253114  32.915  33.401   5.840
 4016POPC   C1A53115  32.889  33.898   6.359
 4016POPC   D2A53116  32.716  33.829   6.775
 4016POPC   C3A53117  33.022  33.817   7.132
 4016POPC   C4A53118  33.462  33.969   7.217
 4016POPC   C1B53119  33.047  33.420   6.260
 4016POPC   C2B53120  33.064  33.461   6.692
 4016POPC   C3B53121  32.794  33.366   7.025
 4016POPC   C4B53122  32.784  33.435   7.474
 4017POPC   NC353123  14.135  24.064   5.538
 4017POPC   PO453124  13.692  24.495   5.431
 4017POPC   GL153125  13.594  24.628   5.824
 4017POPC   GL253126  13.411  24.880   5.907
 4017POPC   C1A53127  13.396  24.440   6.177
 4017POPC   D2A53128  13.542  24.484   6.595
 4017POPC   C3A53129  13.386  24.745   6.908
 4017POPC   C4A53130  13.330  24.437   7.261
 4017POPC   C1B53131  13.628  24.890   6.279
 4017POPC   C2B53132  13.924  24.834   6.576
 4017POPC   C3B53133  13.891  24.637   6.975
 4017POPC   C4B53134  13.714  24.785   7.312
 4018POPC   NC353135  13.677  43.012   5.288
 4018POPC   PO453136  13.474  43.604   5.442
 4018POPC   GL153137  13.701  43.307   5.759
 4018POPC   GL253138  13.718  42.919   5.784
 4018POPC   C1A53139  13.687  43.211   6.221
 4018POPC   D2A53140  13.461  43.308   6.602
 4018POPC   C3A53141  13.686  43.216   7.016
 4018POPC   C4A53142  13.551  43.345   7.453
 4018POPC   C1B53143  13.509  42.753   6.141
 4018POPC   C2B53144  13.481  42.803   6.610
 4018POPC   C3B53145  13.738  42.693   7.017
 4018POPC   C4B53146  14.154  42.614   7.199
 4019POPC   NC353147  18.805   0.949   5.321
 4019POPC   PO453148  18.907   1.655   5.309
 4019POPC   GL153149  19.179   1.444   5.653
 4019POPC   GL253150  19.239   1.094   5.671
 4019POPC   C1A53151  19.180   1.375   6.096
 4019POPC   D2A53152  19.247   1.230   6.504
 4019POPC   C3A53153  18.906   1.292   6.813
 4019POPC   C4A53154  18.991   1.449   7.221
 4019POPC   C1B53155  19.327   0.885   6.073
 4019POPC   C2B53156  19.200   0.718   6.474
 4019POPC   C3B53157  19.222   0.881   6.881
 4019POPC   C4B53158  19.473   0.871   7.215
 4020POPC   NC353159   7.802  16.990   5.256
 4020POPC   PO453160   7.139  16.724   5.249
 4020POPC   GL153161   7.525  16.812   5.637
 4020POPC   GL253162   7.678  16.511   5.819
 4020POPC   C1A53163   7.567  16.896   6.153
 4020POPC   D2A53164   7.318  16.782   6.561
 4020POPC   C3A53165   7.357  17.047   6.964
 4020POPC   C4A53166   7.641  17.099   7.313
 4020POPC   C1B53167   7.696  16.415   6.276
 4020POPC   C2B53168   7.802  16.624   6.686
 4020POPC   C3B53169   7.608  16.616   7.120
 4020POPC   C4B53170   7.764  16.567   7.566
 4021POPC   NC353171  42.561  44.927   5.538
 4021POPC   PO453172  43.079  44.513   5.316
 4021POPC   GL153173  43.270  44.655   5.741
 4021POPC   GL253174  43.267   0.023   5.738
 4021POPC   C1A53175  43.380  44.617   6.208
 4021POPC   D2A53176  43.491  44.600   6.669
 4021POPC   C3A53177  43.171  44.598   7.014
 4021POPC   C4A53178  42.879  44.370   7.286
 4021POPC   C1B53179  42.991  44.961   6.095
 4021POPC   C2B53180  42.746   0.007   6.497
 4021POPC   C3B53181  42.880   0.030   6.927
 4021POPC   C4B53182  42.857  44.883   7.334
 4022POPC   NC353183   1.480  29.159   5.436
 4022POPC   PO453184   2.160  29.376   5.428
 4022POPC   GL153185   2.114  29.293   5.834
 4022POPC   GL253186   1.841  29.048   5.784
 4022POPC   C1A53187   2.150  29.199   6.272
 4022POPC   D2A53188   2.209  28.835   6.550
 4022POPC   C3A53189   2.150  28.963   6.953
 4022POPC   C4A53190   2.255  29.175   7.312
 4022POPC   C1B53191   1.641  28.934   6.170
 4022POPC   C2B53192   1.732  29.043   6.548
 4022POPC   C3B53193   1.638  29.011   6.926
 4022POPC   C4B53194   1.676  29.237   7.267
 4023POPC   NC353195  36.018  30.141   5.451
 4023POPC   PO453196  36.061  29.481   5.241
 4023POPC   GL153197  35.988  29.759   5.746
 4023POPC   GL253198  36.305  29.934   5.796
 4023POPC   C1A53199  36.036  29.865   6.224
 4023POPC   D2A53200  36.173  29.757   6.658
 4023POPC   C3A53201  36.035  29.965   7.023
 4023POPC   C4A53202  36.157  29.827   7.422
 4023POPC   C1B53203  36.474  30.135   6.114
 4023POPC   C2B53204  36.341  30.215   6.510
 4023POPC   C3B53205  36.502  30.168   6.913
 4023POPC   C4B53206  36.672  30.129   7.305
 4024POPC   NC353207  21.804  26.077   5.459
 4024POPC   PO453208  22.342  25.666   5.390
 4024POPC   GL153209  22.118  25.837   5.800
 4024POPC   GL253210  22.119  26.238   5.816
 4024POPC   C1A53211  22.115  26.011   6.259
 4024POPC   D2A53212  22.461  26.049   6.546
 4024POPC   C3A53213  22.420  25.865   6.935
 4024POPC   C4A53214  22.028  25.736   7.095
 4024POPC   C1B53215  21.837  26.448   6.145
 4024POPC   C2B53216  21.971  26.553   6.561
 4024POPC   C3B53217  22.105  26.269   6.870
 4024POPC   C4B53218  22.100  26.205   7.309
 4025POPC   NC353219  38.321   1.707   5.541
 4025POPC   PO453220  38.082   2.419   5.409
 4025POPC   GL153221  38.290   2.246   5.777
 4025POPC   GL253222  38.065   1.998   5.898
 4025POPC   C1A53223  38.382   2.170   6.247
 4025POPC   D2A53224  38.270   2.194   6.697
 4025POPC   C3A53225  38.629   2.068   6.962
 4025POPC   C4A53226  38.842   1.769   7.237
 4025POPC   C1B53227  38.084   1.756   6.300
 4025POPC   C2B53228  38.328   1.670   6.684
 4025POPC   C3B53229  38.269   1.755   7.139
 4025POPC   C4B53230  38.220   1.718   7.602
 4026POPC   NC353231  33.472  16.775   5.409
 4026POPC   PO453232  33.788  16.261   5.565
 4026POPC   GL153233  33.754  16.563   5.909
 4026POPC   GL253234  33.652  16.947   5.864
 4026POPC   C1A53235  33.905  16.662   6.346
 4026POPC   D2A53236  34.267  16.631   6.662
 4026POPC   C3A53237  34.067  16.743   7.043
 4026POPC   C4A53238  33.975  16.769   7.488
 4026POPC   C1B53239  33.391  16.776   6.174
 4026POPC   C2B53240  33.390  16.603   6.562
 4026POPC   C3B53241  33.644  16.836   6.788
 4026POPC   C4B53242  33.586  16.948   7.195
 4027POPC   NC353243   7.592   8.468   5.147
 4027POPC   PO453244   7.493   9.133   5.259
 4027POPC   GL153245   7.502   8.943   5.696
 4027POPC   GL253246   7.846   9.031   5.760
 4027POPC   C1A53247   7.303   8.953   6.124
 4027POPC   D2A53248   7.261   9.171   6.529
 4027POPC   C3A53249   7.367   8.987   6.925
 4027POPC   C4A53250   7.394   9.070   7.390
 4027POPC   C1B53251   7.796   8.971   6.210
 4027POPC   C2B53252   7.633   8.670   6.500
 4027POPC   C3B53253   7.760   8.648   6.918
 4027POPC   C4B53254   7.853   9.015   7.116
 4028POPC   NC353255  38.613   6.087   4.951
 4028POPC   PO453256  38.363   6.184   5.527
 4028POPC   GL153257  38.406   5.969   5.879
 4028POPC   GL253258  38.679   5.718   5.923
 4028POPC   C1A53259  38.183   6.125   6.220
 4028POPC   D2A53260  38.187   5.969   6.632
 4028POPC   C3A53261  38.178   6.193   7.030
 4028POPC   C4A53262  38.323   5.990   7.414
 4028POPC   C1B53263  38.599   5.788   6.303
 4028POPC   C2B53264  38.795   5.788   6.641
 4028POPC   C3B53265  38.585   5.874   6.973
 4028POPC   C4B53266  38.718   5.678   7.306
 4029POPC   NC353267  17.041  11.667   5.431
 4029POPC   PO453268  16.463  12.042   5.436
 4029POPC   GL153269  16.732  12.026   5.788
 4029POPC   GL253270  16.523  11.873   6.015
 4029POPC   C1A53271  17.010  12.183   6.138
 4029POPC   D2A53272  17.004  12.409   6.559
 4029POPC   C3A53273  16.906  12.155   6.917
 4029POPC   C4A53274  17.042  11.990   7.296
 4029POPC   C1B53275  16.505  12.268   6.297
 4029POPC   C2B53276  16.410  12.302   6.755
 4029POPC   C3B53277  16.423  12.117   7.180
 4029POPC   C4B53278  16.548  11.828   7.510
 4030POPC   NC353279   5.398   0.567   5.491
 4030POPC   PO453280   5.988   0.437   5.270
 4030POPC   GL153281   5.987   0.262   5.673
 4030POPC   GL253282   5.724   0.405   5.866
 4030POPC   C1A53283   6.071   0.108   6.113
 4030POPC   D2A53284   5.855   0.295   6.472
 4030POPC   C3A53285   5.979   0.290   6.904
 4030POPC   C4A53286   5.905   0.645   7.198
 4030POPC   C1B53287   5.408   0.520   6.173
 4030POPC   C2B53288   5.354   0.391   6.574
 4030POPC   C3B53289   5.479   0.462   6.984
 4030POPC   C4B53290   5.391   0.741   7.310
 4031POPC   NC353291   5.941  16.470   5.230
 4031POPC   PO453292   6.243  17.114   5.330
 4031POPC   GL153293   5.985  16.791   5.669
 4031POPC   GL253294   6.099  16.393   5.735
 4031POPC   C1A53295   5.749  16.690   6.101
 4031POPC   D2A53296   5.499  16.638   6.498
 4031POPC   C3A53297   5.670  16.807   6.891
 4031POPC   C4A53298   5.532  16.778   7.314
 4031POPC   C1B53299   5.947  16.229   6.174
 4031POPC   C2B53300   5.797  16.145   6.553
 4031POPC   C3B53301   5.887  16.306   6.896
 4031POPC   C4B53302   5.846  16.384   7.270
 4032POPC   NC353303  33.477  19.822   5.523
 4032POPC   PO453304  34.105  19.775   5.601
 4032POPC   GL153305  33.789  19.989   5.900
 4032POPC   GL253306  33.417  20.166   5.899
 4032POPC   C1A53307  33.909  20.016   6.319
 4032POPC   D2A53308  34.137  19.986   6.688
 4032POPC   C3A53309  34.108  19.602   6.951
 4032POPC   C4A53310  33.737  19.572   7.225
 4032POPC   C1B53311  33.439  20.226   6.360
 4032POPC   C2B53312  33.590  20.006   6.726
 4032POPC   C3B53313  33.526  20.064   7.130
 4032POPC   C4B53314  33.642  20.387   7.317
 4033POPC   NC353315  31.851   8.827   5.129
 4033POPC   PO453316  31.681   9.304   5.554
 4033POPC   GL153317  31.527   8.944   5.792
 4033POPC   GL253318  31.219   8.984   5.762
 4033POPC   C1A53319  31.669   8.937   6.246
 4033POPC   D2A53320  31.969   9.042   6.583
 4033POPC   C3A53321  31.837   9.186   6.977
 4033POPC   C4A53322  31.555   8.975   7.215
 4033POPC   C1B53323  31.174   9.057   6.193
 4033POPC   C2B53324  31.386   9.268   6.540
 4033POPC   C3B53325  31.229   9.212   6.943
 4033POPC   C4B53326  31.057   8.953   7.284
 4034POPC   NC353327  39.103   9.021   5.594
 4034POPC   PO453328  39.286   9.595   5.137
 4034POPC   GL153329  39.322   9.681   5.661
 4034POPC   GL253330  39.070   9.837   5.886
 4034POPC   C1A53331  39.335   9.455   6.084
 4034POPC   D2A53332  39.153   9.474   6.518
 4034POPC   C3A53333  39.261   9.522   6.958
 4034POPC   C4A53334  38.910   9.585   7.258
 4034POPC   C1B53335  39.274   9.928   6.276
 4034POPC   C2B53336  39.429   9.937   6.688
 4034POPC   C3B53337  39.199  10.008   7.061
 4034POPC   C4B53338  39.064  10.328   7.328
 4035POPC   NC353339  15.657   6.804   5.341
 4035POPC   PO453340  16.378   6.643   5.314
 4035POPC   GL153341  16.051   6.829   5.702
 4035POPC   GL253342  15.687   6.951   5.825
 4035POPC   C1A53343  15.929   6.653   6.169
 4035POPC   D2A53344  15.768   6.286   6.432
 4035POPC   C3A53345  15.845   6.292   6.902
 4035POPC   C4A53346  16.143   6.434   7.260
 4035POPC   C1B53347  15.602   7.055   6.289
 4035POPC   C2B53348  15.676   6.779   6.674
 4035POPC   C3B53349  15.693   6.732   7.139
 4035POPC   C4B53350  15.659   7.079   7.448
 4036POPC   NC353351  20.090  13.399   5.599
 4036POPC   PO453352  20.665  13.550   5.214
 4036POPC   GL153353  20.677  13.639   5.708
 4036POPC   GL253354  20.505  13.387   5.892
 4036POPC   C1A53355  20.721  13.726   6.214
 4036POPC   D2A53356  20.899  13.637   6.651
 4036POPC   C3A53357  20.744  13.798   7.064
 4036POPC   C4A53358  20.724  13.616   7.491
 4036POPC   C1B53359  20.230  13.540   6.224
 4036POPC   C2B53360  20.389  13.535   6.610
 4036POPC   C3B53361  20.296  13.549   7.002
 4036POPC   C4B53362  20.227  13.734   7.343
 4037POPC   NC353363  12.019  28.237   5.456
 4037POPC   PO453364  12.633  28.504   5.264
 4037POPC   GL153365  12.303  28.601   5.727
 4037POPC   GL253366  11.930  28.559   5.819
 4037POPC   C1A53367  12.310  28.440   6.198
 4037POPC   D2A53368  12.026  28.433   6.578
 4037POPC   C3A53369  12.232  28.388   6.987
 4037POPC   C4A53370  12.151  28.137   7.361
 4037POPC   C1B53371  11.937  28.763   6.164
 4037POPC   C2B53372  11.860  28.910   6.544
 4037POPC   C3B53373  11.836  28.735   6.935
 4037POPC   C4B53374  11.923  28.628   7.328
 4038POPC   NC353375  11.320  18.559   4.699
 4038POPC   PO453376  11.446  18.304   5.359
 4038POPC   GL153377  11.318  18.398   5.765
 4038POPC   GL253378  11.198  18.060   5.842
 4038POPC   C1A53379  11.503  18.303   6.159
 4038POPC   D2A53380  11.468  18.113   6.560
 4038POPC   C3A53381  11.284  18.357   6.889
 4038POPC   C4A53382  11.543  18.359   7.235
 4038POPC   C1B53383  11.004  18.212   6.248
 4038POPC   C2B53384  10.941  18.016   6.651
 4038POPC   C3B53385  10.847  18.098   7.058
 4038POPC   C4B53386  11.081  18.241   7.383
 4039POPC   NC353387  22.306  12.604   5.491
 4039POPC   PO453388  23.008  12.912   5.402
 4039POPC   GL153389  23.055  12.778   5.814
 4039POPC   GL253390  22.723  12.614   5.831
 4039POPC   C1A53391  23.004  12.736   6.247
 4039POPC   D2A53392  23.129  12.440   6.534
 4039POPC   C3A53393  23.061  12.707   6.837
 4039POPC   C4A53394  23.069  12.827   7.228
 4039POPC   C1B53395  22.571  12.980   6.064
 4039POPC   C2B53396  22.588  13.105   6.498
 4039POPC   C3B53397  22.427  13.138   6.929
 4039POPC   C4B53398  22.630  13.070   7.333
 4040POPC   NC353399  43.937  35.208   5.377
 4040POPC   PO453400  44.020  35.813   5.440
 4040POPC   GL153401  43.800  35.533   5.798
 4040POPC   GL253402  44.010  35.212   5.884
 4040POPC   C1A53403  43.740  35.327   6.271
 4040POPC   D2A53404  44.102  35.075   6.452
 4040POPC   C3A53405  44.172  35.170   6.894
 4040POPC   C4A53406  43.858  35.254   7.191
 4040POPC   C1B53407  43.746  34.864   6.025
 4040POPC   C2B53408  43.685  34.762   6.444
 4040POPC   C3B53409  43.662  34.984   6.826
 4040POPC   C4B53410  43.460  34.930   7.258
 4041POPC   NC353411  16.615  16.237   5.193
 4041POPC   PO453412  16.434  15.623   5.261
 4041POPC   GL153413  16.674  15.785   5.627
 4041POPC   GL253414  16.932  16.038   5.664
 4041POPC   C1A53415  16.739  15.771   6.088
 4041POPC   D2A53416  16.554  15.970   6.445
 4041POPC   C3A53417  16.576  15.782   6.857
 4041POPC   C4A53418  16.849  15.685   7.196
 4041POPC   C1B53419  17.032  16.206   6.061
 4041POPC   C2B53420  17.118  15.975   6.427
 4041POPC   C3B53421  17.037  16.036   6.856
 4041POPC   C4B53422  16.888  16.192   7.237
 4042POPC   NC353423  34.172   0.537   5.347
 4042POPC   PO453424  33.730   0.044   5.333
 4042POPC   GL153425  33.626   0.289   5.722
 4042POPC   GL253426  33.882   0.543   5.806
 4042POPC   C1A53427  33.583   0.375   6.200
 4042POPC   D2A53428  33.747   0.523   6.607
 4042POPC   C3A53429  33.636   0.358   7.026
 4042POPC   C4A53430  33.764   0.034   7.323
 4042POPC   C1B53431  34.101   0.439   6.204
 4042POPC   C2B53432  34.244   0.409   6.642
 4042POPC   C3B53433  34.150   0.406   7.085
 4042POPC   C4B53434  34.368   0.356   7.477
 4043POPC   NC353435  31.532  31.314   5.354
 4043POPC   PO453436  30.987  30.984   5.553
 4043POPC   GL153437  31.295  31.117   5.816
 4043POPC   GL253438  31.343  31.464   5.807
 4043POPC   C1A53439  31.272  31.170   6.254
 4043POPC   D2A53440  31.318  31.493   6.553
 4043POPC   C3A53441  31.509  31.448   6.963
 4043POPC   C4A53442  31.525  31.811   7.254
 4043POPC   C1B53443  31.620  31.598   6.132
 4043POPC   C2B53444  31.841  31.521   6.527
 4043POPC   C3B53445  31.970  31.676   6.914
 4043POPC   C4B53446  31.927  31.502   7.280
 4044POPC   NC353447  25.882  19.751   5.399
 4044POPC   PO453448  25.815  20.251   5.610
 4044POPC   GL153449  25.968  19.873   5.896
 4044POPC   GL253450  26.228  19.619   5.763
 4044POPC   C1A53451  25.942  19.858   6.355
 4044POPC   D2A53452  26.240  19.889   6.713
 4044POPC   C3A53453  26.094  20.129   7.100
 4044POPC   C4A53454  25.905  19.978   7.505
 4044POPC   C1B53455  26.192  19.437   6.189
 4044POPC   C2B53456  25.968  19.424   6.612
 4044POPC   C3B53457  25.874  19.660   6.992
 4044POPC   C4B53458  26.244  19.674   7.245
 4045POPC   NC353459   9.541  27.672   5.532
 4045POPC   PO453460   9.982  27.148   5.399
 4045POPC   GL153461  10.007  27.435   5.772
 4045POPC   GL253462   9.702  27.484   5.972
 4045POPC   C1A53463  10.120  27.426   6.233
 4045POPC   D2A53464  10.003  27.711   6.588
 4045POPC   C3A53465   9.772  27.528   6.929
 4045POPC   C4A53466   9.925  27.298   7.268
 4045POPC   C1B53467   9.812  27.892   6.155
 4045POPC   C2B53468   9.648  28.102   6.514
 4045POPC   C3B53469   9.771  28.046   6.929
 4045POPC   C4B53470   9.654  27.830   7.333
 4046POPC   NC353471  12.964  27.055   5.317
 4046POPC   PO453472  13.005  26.385   5.385
 4046POPC   GL153473  12.802  26.603   5.731
 4046POPC   GL253474  12.598  26.365   5.932
 4046POPC   C1A53475  12.972  26.751   6.122
 4046POPC   D2A53476  13.038  27.046   6.453
 4046POPC   C3A53477  12.795  26.911   6.808
 4046POPC   C4A53478  13.002  26.784   7.155
 4046POPC   C1B53479  12.498  26.628   6.302
 4046POPC   C2B53480  12.247  26.614   6.693
 4046POPC   C3B53481  12.391  26.613   7.151
 4046POPC   C4B53482  12.595  27.017   7.319
 4047POPC   NC353483  17.195   4.035   5.501
 4047POPC   PO453484  17.814   4.083   5.289
 4047POPC   GL153485  17.695   4.176   5.712
 4047POPC   GL253486  17.457   4.430   5.766
 4047POPC   C1A53487  17.813   4.242   6.137
 4047POPC   D2A53488  17.673   4.374   6.511
 4047POPC   C3A53489  17.742   4.195   6.907
 4047POPC   C4A53490  17.540   4.245   7.298
 4047POPC   C1B53491  17.263   4.321   6.162
 4047POPC   C2B53492  17.154   4.222   6.584
 4047POPC   C3B53493  17.148   4.382   7.008
 4047POPC   C4B53494  17.009   4.129   7.378
 4048POPC   NC353495  21.533  42.141   5.577
 4048POPC   PO453496  21.364  41.445   5.460
 4048POPC   GL153497  21.168  41.493   5.848
 4048POPC   GL253498  21.301  41.813   5.869
 4048POPC   C1A53499  21.358  41.523   6.274
 4048POPC   D2A53500  21.553  41.551   6.635
 4048POPC   C3A53501  21.243  41.606   6.926
 4048POPC   C4A53502  21.116  41.470   7.285
 4048POPC   C1B53503  21.407  42.045   6.234
 4048POPC   C2B53504  21.211  42.010   6.612
 4048POPC   C3B53505  21.389  42.106   6.983
 4048POPC   C4B53506  21.402  41.893   7.336
 4049POPC   NC353507  15.408   6.084   4.956
 4049POPC   PO453508  15.072   5.869   5.457
 4049POPC   GL153509  15.326   5.766   5.827
 4049POPC   GL253510  15.013   5.747   5.983
 4049POPC   C1A53511  15.422   5.714   6.275
 4049POPC   D2A53512  15.448   5.552   6.697
 4049POPC   C3A53513  15.424   5.917   6.941
 4049POPC   C4A53514  15.211   5.899   7.295
 4049POPC   C1B53515  14.691   5.703   6.256
 4049POPC   C2B53516  14.544   5.664   6.669
 4049POPC   C3B53517  14.846   5.652   6.980
 4049POPC   C4B53518  14.897   5.459   7.364
 4050POPC   NC353519   9.691  10.910   5.209
 4050POPC   PO453520   9.993  11.195   5.719
 4050POPC   GL153521   9.679  11.226   6.026
 4050POPC   GL253522   9.597  11.546   5.971
 4050POPC   C1A53523   9.792  11.328   6.461
 4050POPC   D2A53524  10.207  11.233   6.644
 4050POPC   C3A53525  10.169  10.993   7.017
 4050POPC   C4A53526   9.732  10.987   7.170
 4050POPC   C1B53527   9.969  11.749   6.198
 4050POPC   C2B53528  10.104  11.761   6.659
 4050POPC   C3B53529   9.911  11.527   7.012
 4050POPC   C4B53530   9.477  11.436   7.126
 4051POPC   NC353531  26.391  19.043   5.338
 4051POPC   PO453532  27.052  19.184   5.294
 4051POPC   GL153533  26.866  19.010   5.675
 4051POPC   GL253534  26.583  19.218   5.792
 4051POPC   C1A53535  27.002  19.042   6.125
 4051POPC   D2A53536  26.853  18.980   6.552
 4051POPC   C3A53537  26.957  19.167   6.949
 4051POPC   C4A53538  26.802  19.060   7.344
 4051POPC   C1B53539  26.497  19.006   6.185
 4051POPC   C2B53540  26.349  19.099   6.586
 4051POPC   C3B53541  26.450  19.257   7.013
 4051POPC   C4B53542  26.335  19.240   7.479
 4052POPC   NC353543  28.429  25.821   5.105
 4052POPC   PO453544  28.826  26.218   5.495
 4052POPC   GL153545  28.538  26.068   5.812
 4052POPC   GL253546  28.186  26.016   5.746
 4052POPC   C1A53547  28.479  25.940   6.235
 4052POPC   D2A53548  28.663  26.132   6.591
 4052POPC   C3A53549  28.557  25.957   6.968
 4052POPC   C4A53550  28.592  26.054   7.408
 4052POPC   C1B53551  27.985  25.870   6.127
 4052POPC   C2B53552  28.056  25.998   6.564
 4052POPC   C3B53553  28.112  26.169   6.978
 4052POPC   C4B53554  28.134  25.887   7.343
 4053POPC   NC353555  17.272  24.585   5.429
 4053POPC   PO453556  17.801  24.231   5.513
 4053POPC   GL153557  17.602  24.490   5.846
 4053POPC   GL253558  17.683  24.840   5.871
 4053POPC   C1A53559  17.703  24.437   6.293
 4053POPC   D2A53560  17.830  24.448   6.747
 4053POPC   C3A53561  17.556  24.449   7.161
 4053POPC   C4A53562  17.529  24.254   7.611
 4053POPC   C1B53563  17.667  24.948   6.305
 4053POPC   C2B53564  17.786  24.974   6.720
 4053POPC   C3B53565  17.426  24.978   6.972
 4053POPC   C4B53566  17.280  24.876   7.350
 4054POPC   NC353567  29.681  21.465   5.414
 4054POPC   PO453568  30.412  21.572   5.314
 4054POPC   GL153569  30.258  21.501   5.784
 4054POPC   GL253570  29.969  21.235   5.833
 4054POPC   C1A53571  30.153  21.510   6.251
 4054POPC   D2A53572  29.825  21.456   6.552
 4054POPC   C3A53573  29.856  21.563   6.984
 4054POPC   C4A53574  30.079  21.642   7.355
 4054POPC   C1B53575  30.189  20.991   6.180
 4054POPC   C2B53576  30.294  20.980   6.623
 4054POPC   C3B53577  30.101  21.082   7.041
 4054POPC   C4B53578  30.037  20.827   7.418
 4055POPC   NC353579  41.303  33.901   5.415
 4055POPC   PO453580  41.895  34.050   5.179
 4055POPC   GL153581  41.728  34.089   5.647
 4055POPC   GL253582  41.623  33.741   5.779
 4055POPC   C1A53583  41.690  34.140   6.130
 4055POPC   D2A53584  41.758  33.976   6.589
 4055POPC   C3A53585  41.513  34.061   6.980
 4055POPC   C4A53586  41.147  34.125   7.276
 4055POPC   C1B53587  41.646  33.492   6.171
 4055POPC   C2B53588  41.806  33.439   6.605
 4055POPC   C3B53589  41.713  33.575   7.023
 4055POPC   C4B53590  41.272  33.629   7.133
 4056POPC   NC353591  19.098  40.410   5.319
 4056POPC   PO453592  19.297  39.808   5.358
 4056POPC   GL153593  19.251  40.121   5.723
 4056POPC   GL253594  18.872  40.260   5.779
 4056POPC   C1A53595  19.233  40.095   6.185
 4056POPC   D2A53596  19.075  39.969   6.586
 4056POPC   C3A53597  19.282  40.082   6.958
 4056POPC   C4A53598  19.139  40.023   7.366
 4056POPC   C1B53599  18.850  40.419   6.224
 4056POPC   C2B53600  18.931  40.484   6.688
 4056POPC   C3B53601  18.787  40.425   7.153
 4056POPC   C4B53602  18.889  40.384   7.629
 4057POPC   NC353603  29.345  40.447   5.294
 4057POPC   PO453604  29.154  39.808   5.531
 4057POPC   GL153605  29.450  40.013   5.818
 4057POPC   GL253606  29.383  40.391   5.834
 4057POPC   C1A53607  29.504  39.799   6.231
 4057POPC   D2A53608  29.217  39.586   6.564
 4057POPC   C3A53609  29.026  39.848   6.924
 4057POPC   C4A53610  29.258  40.003   7.306
 4057POPC   C1B53611  29.328  40.272   6.288
 4057POPC   C2B53612  29.380  40.201   6.746
 4057POPC   C3B53613  29.091  40.382   7.054
 4057POPC   C4B53614  28.855  40.259   7.450
 4058POPC   NC353615  15.445  41.198   5.288
 4058POPC   PO453616  15.269  41.771   5.063
 4058POPC   GL153617  15.270  41.784   5.609
 4058POPC   GL253618  15.305  41.471   5.822
 4058POPC   C1A53619  15.170  41.892   6.135
 4058POPC   D2A53620  15.173  41.827   6.665
 4058POPC   C3A53621  14.927  41.621   7.083
 4058POPC   C4A53622  14.957  41.621   7.560
 4058POPC   C1B53623  15.240  41.397   6.306
 4058POPC   C2B53624  15.095  41.289   6.738
 4058POPC   C3B53625  15.310  41.292   7.157
 4058POPC   C4B53626  15.393  41.335   7.614
 4059POPC   NC353627  27.919  43.146   5.247
 4059POPC   PO453628  27.289  42.977   5.524
 4059POPC   GL153629  27.611  43.185   5.782
 4059POPC   GL253630  27.872  42.953   5.756
 4059POPC   C1A53631  27.737  43.190   6.231
 4059POPC   D2A53632  27.933  43.108   6.631
 4059POPC   C3A53633  27.782  43.415   6.912
 4059POPC   C4A53634  27.393  43.297   7.101
 4059POPC   C1B53635  27.620  42.720   6.088
 4059POPC   C2B53636  27.772  42.624   6.514
 4059POPC   C3B53637  27.635  42.755   6.925
 4059POPC   C4B53638  27.684  42.666   7.345
 4060POPC   NC353639   3.370  14.013   5.383
 4060POPC   PO453640   3.563  13.312   5.422
 4060POPC   GL153641   3.531  13.635   5.776
 4060POPC   GL253642   3.810  13.872   5.870
 4060POPC   C1A53643   3.502  13.578   6.234
 4060POPC   D2A53644   3.681  13.400   6.634
 4060POPC   C3A53645   3.530  13.489   7.038
 4060POPC   C4A53646   3.776  13.620   7.382
 4060POPC   C1B53647   3.590  14.077   6.224
 4060POPC   C2B53648   3.463  13.887   6.649
 4060POPC   C3B53649   3.496  14.025   7.063
 4060POPC   C4B53650   3.822  14.171   7.325
 4061POPC   NC353651  20.886  30.781   5.321
 4061POPC   PO453652  20.444  30.266   5.453
 4061POPC   GL153653  20.591  30.542   5.708
 4061POPC   GL253654  20.380  30.796   5.573
 4061POPC   C1A53655  20.693  30.545   6.152
 4061POPC   D2A53656  20.455  30.515   6.546
 4061POPC   C3A53657  20.669  30.509   6.927
 4061POPC   C4A53658  20.511  30.463   7.290
 4061POPC   C1B53659  20.481  30.998   5.956
 4061POPC   C2B53660  20.603  30.983   6.400
 4061POPC   C3B53661  20.577  31.040   6.856
 4061POPC   C4B53662  20.711  30.929   7.274
 4062POPC   NC353663  21.331  35.449   5.127
 4062POPC   PO453664  20.956  35.015   5.478
 4062POPC   GL153665  21.145  35.344   5.777
 4062POPC   GL253666  21.375  35.585   5.659
 4062POPC   C1A53667  21.232  35.368   6.221
 4062POPC   D2A53668  21.368  35.263   6.629
 4062POPC   C3A53669  21.109  35.310   6.962
 4062POPC   C4A53670  21.101  35.212   7.375
 4062POPC   C1B53671  21.560  35.708   6.025
 4062POPC   C2B53672  21.516  35.751   6.461
 4062POPC   C3B53673  21.456  35.723   6.894
 4062POPC   C4B53674  21.520  35.507   7.274
 4063POPC   NC353675  18.678  27.852   5.384
 4063POPC   PO453676  19.340  27.566   5.417
 4063POPC   GL153677  19.040  27.696   5.711
 4063POPC   GL253678  19.241  27.687   5.999
 4063POPC   C1A53679  18.747  27.707   6.079
 4063POPC   D2A53680  18.925  27.608   6.467
 4063POPC   C3A53681  18.803  27.663   6.922
 4063POPC   C4A53682  19.039  27.683   7.341
 4063POPC   C1B53683  19.432  27.753   6.395
 4063POPC   C2B53684  19.305  27.710   6.811
 4063POPC   C3B53685  19.468  27.893   7.170
 4063POPC   C4B53686  19.533  27.747   7.609
 4064POPC   NC353687  44.628  25.429   5.292
 4064POPC   PO453688  44.521  26.163   5.292
 4064POPC   GL153689  44.485  26.018   5.699
 4064POPC   GL253690  44.534  25.705   5.706
 4064POPC   C1A53691  44.631  26.022   6.132
 4064POPC   D2A53692  44.466  25.975   6.538
 4064POPC   C3A53693  44.759  26.087   6.853
 4064POPC   C4A53694  44.701  26.077   7.292
 4064POPC   C1B53695  44.364  25.565   6.109
 4064POPC   C2B53696  44.298  25.476   6.548
 4064POPC   C3B53697  44.359  25.677   6.969
 4064POPC   C4B53698  44.390  25.689   7.434
 4065POPC   NC353699  31.617  14.929   5.118
 4065POPC   PO453700  31.369  14.335   5.402
 4065POPC   GL153701  31.499  14.422   5.794
 4065POPC   GL253702  31.244  14.662   5.826
 4065POPC   C1A53703  31.514  14.237   6.216
 4065POPC   D2A53704  31.256  14.283   6.587
 4065POPC   C3A53705  31.351  14.308   6.999
 4065POPC   C4A53706  31.391  14.071   7.378
 4065POPC   C1B53707  31.380  14.733   6.212
 4065POPC   C2B53708  31.586  14.667   6.586
 4065POPC   C3B53709  31.805  14.636   6.961
 4065POPC   C4B53710  31.541  14.744   7.303
 4066POPC   NC353711  43.216  23.467   5.366
 4066POPC   PO453712  42.597  23.794   5.256
 4066POPC   GL153713  42.801  23.550   5.670
 4066POPC   GL253714  43.112  23.738   5.818
 4066POPC   C1A53715  42.898  23.433   6.143
 4066POPC   D2A53716  42.879  23.660   6.559
 4066POPC   C3A53717  42.995  23.521   6.983
 4066POPC   C4A53718  43.214  23.866   7.164
 4066POPC   C1B53719  43.337  23.722   6.253
 4066POPC   C2B53720  43.474  23.508   6.670
 4066POPC   C3B53721  43.530  23.472   7.147
 4066POPC   C4B53722  43.233  23.522   7.535
 4067POPC   NC353723  26.498   2.325   5.593
 4067POPC   PO453724  27.071   1.951   5.320
 4067POPC   GL153725  26.909   2.066   5.718
 4067POPC   GL253726  26.978   2.447   5.693
 4067POPC   C1A53727  26.805   1.947   6.169
 4067POPC   D2A53728  26.602   1.704   6.520
 4067POPC   C3A53729  26.779   1.823   6.886
 4067POPC   C4A53730  26.604   2.062   7.180
 4067POPC   C1B53731  27.214   2.289   6.038
 4067POPC   C2B53732  27.255   2.175   6.453
 4067POPC   C3B53733  27.369   2.300   6.847
 4067POPC   C4B53734  27.170   2.260   7.231
 4068POPC   NC353735  35.050  23.899   5.495
 4068POPC   PO453736  35.209  24.529   5.254
 4068POPC   GL153737  35.268  24.414   5.706
 4068POPC   GL253738  34.954  24.277   5.802
 4068POPC   C1A53739  35.459  24.574   6.139
 4068POPC   D2A53740  35.747  24.549   6.521
 4068POPC   C3A53741  35.668  24.633   6.956
 4068POPC   C4A53742  35.408  24.549   7.344
 4068POPC   C1B53743  35.211  24.113   6.138
 4068POPC   C2B53744  35.342  24.239   6.541
 4068POPC   C3B53745  35.204  24.332   6.941
 4068POPC   C4B53746  35.027  24.189   7.337
 4069POPC   NC353747  15.381  27.833   5.156
 4069POPC   PO453748  14.968  27.403   5.416
 4069POPC   GL153749  15.243  27.573   5.722
 4069POPC   GL253750  15.599  27.593   5.643
 4069POPC   C1A53751  15.286  27.751   6.127
 4069POPC   D2A53752  15.025  27.716   6.491
 4069POPC   C3A53753  15.199  27.735   6.852
 4069POPC   C4A53754  15.072  27.738   7.233
 4069POPC   C1B53755  15.601  27.354   6.043
 4069POPC   C2B53756  15.744  27.453   6.457
 4069POPC   C3B53757  15.641  27.363   6.869
 4069POPC   C4B53758  15.556  27.592   7.198
 4070POPC   NC353759  13.947  13.444   5.333
 4070POPC   PO453760  13.353  13.334   5.516
 4070POPC   GL153761  13.661  13.638   5.713
 4070POPC   GL253762  13.621  13.991   5.729
 4070POPC   C1A53763  13.783  13.515   6.113
 4070POPC   D2A53764  13.485  13.400   6.441
 4070POPC   C3A53765  13.628  13.357   6.871
 4070POPC   C4A53766  13.667  13.526   7.286
 4070POPC   C1B53767  13.565  13.960   6.185
 4070POPC   C2B53768  13.805  13.767   6.550
 4070POPC   C3B53769  13.707  13.886   6.929
 4070POPC   C4B53770  13.721  14.058   7.296
 4071POPC   NC353771  34.419  35.922   5.449
 4071POPC   PO453772  34.847  36.472   5.481
 4071POPC   GL153773  34.726  36.202   5.779
 4071POPC   GL253774  34.977  35.984   5.687
 4071POPC   C1A53775  34.550  36.157   6.201
 4071POPC   D2A53776  34.370  36.011   6.587
 4071POPC   C3A53777  34.368  36.279   6.931
 4071POPC   C4A53778  34.387  35.993   7.286
 4071POPC   C1B53779  34.989  35.896   6.128
 4071POPC   C2B53780  34.823  35.804   6.541
 4071POPC   C3B53781  34.812  36.023   6.949
 4071POPC   C4B53782  34.896  35.832   7.345
 4072POPC   NC353783  36.334  13.800   5.542
 4072POPC   PO453784  35.709  13.927   5.362
 4072POPC   GL153785  35.840  13.666   5.742
 4072POPC   GL253786  36.106  13.424   5.792
 4072POPC   C1A53787  35.807  13.646   6.203
 4072POPC   D2A53788  35.901  13.847   6.616
 4072POPC   C3A53789  35.949  13.676   7.062
 4072POPC   C4A53790  36.029  13.350   7.362
 4072POPC   C1B53791  36.323  13.595   6.155
 4072POPC   C2B53792  36.438  13.794   6.533
 4072POPC   C3B53793  36.394  13.901   6.951
 4072POPC   C4B53794  36.469  13.551   7.222
 4073POPC   NC353795  13.020  43.473   5.433
 4073POPC   PO453796  12.899  42.859   5.380
 4073POPC   GL153797  13.085  42.861   5.792
 4073POPC   GL253798  12.735  42.776   5.876
 4073POPC   C1A53799  13.139  43.106   6.206
 4073POPC   D2A53800  12.991  42.987   6.634
 4073POPC   C3A53801  13.190  43.123   7.014
 4073POPC   C4A53802  13.040  43.123   7.431
 4073POPC   C1B53803  12.609  42.935   6.271
 4073POPC   C2B53804  12.539  43.263   6.573
 4073POPC   C3B53805  12.684  43.246   6.978
 4073POPC   C4B53806  12.767  42.836   7.092
 4074POPC   NC353807  41.632  20.002   5.334
 4074POPC   PO453808  41.795  19.454   5.558
 4074POPC   GL153809  41.655  19.847   5.819
 4074POPC   GL253810  41.904  20.083   5.822
 4074POPC   C1A53811  41.425  20.058   6.178
 4074POPC   D2A53812  41.374  19.840   6.572
 4074POPC   C3A53813  41.328  20.030   6.991
 4074POPC   C4A53814  41.248  19.845   7.416
 4074POPC   C1B53815  41.882  19.874   6.288
 4074POPC   C2B53816  41.851  19.805   6.777
 4074POPC   C3B53817  41.745  19.787   7.219
 4074POPC   C4B53818  41.747  19.775   7.677
 4075POPC   NC353819  43.763  40.206   5.443
 4075POPC   PO453820  43.902  39.649   5.179
 4075POPC   GL153821  43.948  39.839   5.707
 4075POPC   GL253822  44.181  40.074   5.748
 4075POPC   C1A53823  43.819  39.948   6.118
 4075POPC   D2A53824  43.695  40.224   6.458
 4075POPC   C3A53825  43.680  39.968   6.813
 4075POPC   C4A53826  43.761  40.103   7.189
 4075POPC   C1B53827  44.341  39.917   6.129
 4075POPC   C2B53828  44.137  39.945   6.535
 4075POPC   C3B53829  44.234  40.138   6.923
 4075POPC   C4B53830  44.249  39.992   7.336
 4076POPC   NC353831  23.896  25.925   5.256
 4076POPC   PO453832  23.242  25.958   5.474
 4076POPC   GL153833  23.647  26.071   5.692
 4076POPC   GL253834  23.821  25.796   5.803
 4076POPC   C1A53835  23.679  26.223   6.131
 4076POPC   D2A53836  23.371  26.343   6.460
 4076POPC   C3A53837  23.440  26.179   6.884
 4076POPC   C4A53838  23.634  25.948   7.216
 4076POPC   C1B53839  23.936  25.798   6.255
 4076POPC   C2B53840  23.850  25.916   6.680
 4076POPC   C3B53841  24.045  25.717   7.032
 4076POPC   C4B53842  23.943  25.566   7.445
 4077POPC   NC353843   6.081  34.588   5.473
 4077POPC   PO453844   5.335  34.502   5.472
 4077POPC   GL153845   5.669  34.531   5.756
 4077POPC   GL253846   5.727  34.884   5.859
 4077POPC   C1A53847   5.881  34.399   6.140
 4077POPC   D2A53848   5.862  34.507   6.600
 4077POPC   C3A53849   5.736  34.251   6.965
 4077POPC   C4A53850   5.908  34.361   7.387
 4077POPC   C1B53851   5.543  34.758   6.286
 4077POPC   C2B53852   5.409  34.745   6.747
 4077POPC   C3B53853   5.586  34.709   7.183
 4077POPC   C4B53854   5.852  34.869   7.559
 4078POPC   NC353855  41.431  30.393   5.413
 4078POPC   PO453856  41.741  30.991   5.532
 4078POPC   GL153857  41.596  30.848   5.873
 4078POPC   GL253858  41.624  30.493   5.874
 4078POPC   C1A53859  41.724  30.857   6.270
 4078POPC   D2A53860  41.760  30.625   6.603
 4078POPC   C3A53861  41.736  30.796   7.002
 4078POPC   C4A53862  41.846  30.554   7.334
 4078POPC   C1B53863  41.524  30.297   6.236
 4078POPC   C2B53864  41.318  30.358   6.608
 4078POPC   C3B53865  41.544  30.315   6.967
 4078POPC   C4B53866  41.353  30.415   7.313
 4079POPC   NC353867  23.873  14.788   5.323
 4079POPC   PO453868  23.453  15.238   5.447
 4079POPC   GL153869  23.481  15.228   5.872
 4079POPC   GL253870  23.782  15.432   5.880
 4079POPC   C1A53871  23.641  15.119   6.287
 4079POPC   D2A53872  23.996  15.046   6.573
 4079POPC   C3A53873  23.909  15.259   6.976
 4079POPC   C4A53874  23.554  15.178   7.218
 4079POPC   C1B53875  23.450  15.662   6.116
 4079POPC   C2B53876  23.209  15.543   6.460
 4079POPC   C3B53877  23.453  15.515   6.833
 4079POPC   C4B53878  23.378  15.671   7.226
 4080POPC   NC353879  42.844  14.689   5.325
 4080POPC   PO453880  43.136  14.163   5.508
 4080POPC   GL153881  42.907  14.215   5.850
 4080POPC   GL253882  42.912  14.564   5.811
 4080POPC   C1A53883  42.766  14.402   6.266
 4080POPC   D2A53884  42.808  14.564   6.691
 4080POPC   C3A53885  42.996  14.320   6.945
 4080POPC   C4A53886  43.070  14.234   7.348
 4080POPC   C1B53887  43.236  14.585   6.136
 4080POPC   C2B53888  43.297  14.430   6.558
 4080POPC   C3B53889  43.481  14.377   7.015
 4080POPC   C4B53890  43.551  14.150   7.393
 4081POPC   NC353891  27.050  34.265   5.296
 4081POPC   PO453892  26.799  34.916   5.315
 4081POPC   GL153893  26.943  34.634   5.671
 4081POPC   GL253894  27.014  34.267   5.787
 4081POPC   C1A53895  26.937  34.657   6.130
 4081POPC   D2A53896  26.649  34.550   6.465
 4081POPC   C3A53897  26.715  34.809   6.814
 4081POPC   C4A53898  26.856  34.816   7.214
 4081POPC   C1B53899  26.854  34.156   6.174
 4081POPC   C2B53900  27.048  34.233   6.560
 4081POPC   C3B53901  26.965  34.360   6.987
 4081POPC   C4B53902  26.706  34.255   7.347
 4082POPC   NC353903  34.042  30.682   5.605
 4082POPC   PO453904  34.634  30.715   5.128
 4082POPC   GL153905  34.600  30.678   5.625
 4082POPC   GL253906  34.463  30.381   5.809
 4082POPC   C1A53907  34.563  30.960   6.020
 4082POPC   D2A53908  34.597  31.154   6.458
 4082POPC   C3A53909  34.596  30.978   6.888
 4082POPC   C4A53910  34.496  30.672   7.204
 4082POPC   C1B53911  34.620  30.515   6.262
 4082POPC   C2B53912  34.571  30.477   6.728
 4082POPC   C3B53913  34.712  30.239   7.107
 4082POPC   C4B53914  34.572  30.270   7.571
 4083POPC   NC353915  18.845  25.172   5.313
 4083POPC   PO453916  19.557  25.194   5.477
 4083POPC   GL153917  19.214  25.212   5.765
 4083POPC   GL253918  18.873  25.395   5.785
 4083POPC   C1A53919  19.181  25.289   6.203
 4083POPC   D2A53920  19.422  25.294   6.577
 4083POPC   C3A53921  19.257  25.346   6.965
 4083POPC   C4A53922  19.078  25.094   7.266
 4083POPC   C1B53923  18.691  25.152   6.166
 4083POPC   C2B53924  18.857  25.190   6.617
 4083POPC   C3B53925  18.661  25.245   7.032
 4083POPC   C4B53926  18.663  25.287   7.509
 4084POPC   NC353927  37.982  40.074   5.315
 4084POPC   PO453928  38.598  40.252   5.100
 4084POPC   GL153929  38.436  40.170   5.572
 4084POPC   GL253930  38.363  39.850   5.711
 4084POPC   C1A53931  38.404  40.193   6.080
 4084POPC   D2A53932  38.382  39.933   6.508
 4084POPC   C3A53933  38.623  40.109   6.878
 4084POPC   C4A53934  38.568  40.334   7.259
 4084POPC   C1B53935  38.632  39.718   6.091
 4084POPC   C2B53936  38.695  39.504   6.509
 4084POPC   C3B53937  38.745  39.613   6.924
 4084POPC   C4B53938  38.741  39.723   7.340
 4085POPC   NC353939  43.515  42.444   5.374
 4085POPC   PO453940  44.085  42.035   5.428
 4085POPC   GL153941  44.009  42.142   5.828
 4085POPC   GL253942  43.671  42.085   5.811
 4085POPC   C1A53943  43.953  42.301   6.253
 4085POPC   D2A53944  43.656  42.415   6.589
 4085POPC   C3A53945  43.805  42.403   7.025
 4085POPC   C4A53946  43.806  42.463   7.477
 4085POPC   C1B53947  43.532  41.978   6.214
 4085POPC   C2B53948  43.705  41.890   6.628
 4085POPC   C3B53949  43.555  41.936   7.072
 4085POPC   C4B53950  43.491  42.014   7.538
 4086POPC   NC353951  32.755   8.410   5.036
 4086POPC   PO453952  33.172   8.043   5.399
 4086POPC   GL153953  33.287   8.262   5.829
 4086POPC   GL253954  33.445   8.593   5.861
 4086POPC   C1A53955  33.047   8.399   6.212
 4086POPC   D2A53956  32.789   8.162   6.521
 4086POPC   C3A53957  32.922   8.138   6.939
 4086POPC   C4A53958  33.236   7.987   7.212
 4086POPC   C1B53959  33.559   8.416   6.280
 4086POPC   C2B53960  33.319   8.289   6.652
 4086POPC   C3B53961  33.297   8.471   7.062
 4086POPC   C4B53962  33.529   8.503   7.431
 4087POPC   NC353963  17.145  13.834   5.397
 4087POPC   PO453964  16.424  13.850   5.331
 4087POPC   GL153965  16.720  13.738   5.696
 4087POPC   GL253966  16.986  13.463   5.728
 4087POPC   C1A53967  16.930  13.858   6.101
 4087POPC   D2A53968  17.139  13.741   6.506
 4087POPC   C3A53969  16.849  13.789   6.874
 4087POPC   C4A53970  16.746  13.603   7.224
 4087POPC   C1B53971  16.966  13.341   6.179
 4087POPC   C2B53972  16.846  13.346   6.631
 4087POPC   C3B53973  17.054  13.234   7.041
 4087POPC   C4B53974  17.031  13.284   7.542
 4088POPC   NC353975  34.948   1.024   5.463
 4088POPC   PO453976  35.523   1.332   5.300
 4088POPC   GL153977  35.383   1.201   5.726
 4088POPC   GL253978  35.588   0.957   5.892
 4088POPC   C1A53979  35.427   1.330   6.181
 4088POPC   D2A53980  35.597   1.117   6.558
 4088POPC   C3A53981  35.482   1.098   7.020
 4088POPC   C4A53982  35.542   1.331   7.413
 4088POPC   C1B53983  35.271   0.841   6.223
 4088POPC   C2B53984  35.165   0.830   6.678
 4088POPC   C3B53985  35.017   0.837   7.120
 4088POPC   C4B53986  35.268   0.886   7.501
 4089POPC   NC353987  18.602  26.135   5.429
 4089POPC   PO453988  18.077  25.719   5.133
 4089POPC   GL153989  18.216  25.817   5.610
 4089POPC   GL253990  18.547  25.869   5.840
 4089POPC   C1A53991  18.082  25.795   6.069
 4089POPC   D2A53992  18.141  26.010   6.463
 4089POPC   C3A53993  17.970  25.916   6.853
 4089POPC   C4A53994  17.943  25.773   7.256
 4089POPC   C1B53995  18.421  26.251   6.087
 4089POPC   C2B53996  18.490  26.369   6.553
 4089POPC   C3B53997  18.372  26.205   6.996
 4089POPC   C4B53998  18.292  26.112   7.456
 4090POPC   NC353999   5.182   1.964   5.234
 4090POPC   PO454000   5.149   2.431   5.766
 4090POPC   GL154001   4.927   2.139   5.917
 4090POPC   GL254002   5.103   1.887   5.760
 4090POPC   C1A54003   4.765   1.746   6.110
 4090POPC   D2A54004   4.597   1.677   6.519
 4090POPC   C3A54005   4.776   1.977   6.809
 4090POPC   C4A54006   4.895   1.947   7.237
 4090POPC   C1B54007   5.280   1.932   6.233
 4090POPC   C2B54008   5.292   1.949   6.708
 4090POPC   C3B54009   5.166   2.303   6.984
 4090POPC   C4B54010   5.354   2.474   7.348
 4091POPC   NC354011   9.308  10.252   5.363
 4091POPC   PO454012   9.917  10.516   5.327
 4091POPC   GL154013   9.633  10.570   5.664
 4091POPC   GL254014   9.525  10.242   5.819
 4091POPC   C1A54015   9.538  10.710   6.103
 4091POPC   D2A54016   9.455  10.807   6.573
 4091POPC   C3A54017   9.752  10.571   6.877
 4091POPC   C4A54018   9.969  10.540   7.297
 4091POPC   C1B54019   9.286  10.193   6.207
 4091POPC   C2B54020   9.326  10.051   6.644
 4091POPC   C3B54021   9.440  10.191   7.065
 4091POPC   C4B54022   9.399  10.587   7.263
 4092POPC   NC354023  27.501   1.788   5.149
 4092POPC   PO454024  27.888   2.343   5.397
 4092POPC   GL154025  27.657   2.295   5.763
 4092POPC   GL254026  27.432   1.986   5.706
 4092POPC   C1A54027  27.685   2.095   6.165
 4092POPC   D2A54028  27.645   1.830   6.534
 4092POPC   C3A54029  27.790   2.007   6.914
 4092POPC   C4A54030  27.686   2.270   7.263
 4092POPC   C1B54031  27.293   1.757   6.105
 4092POPC   C2B54032  27.149   1.666   6.547
 4092POPC   C3B54033  27.296   1.794   6.974
 4092POPC   C4B54034  27.458   1.840   7.396
 4093POPC   NC354035   5.879  31.328   5.516
 4093POPC   PO454036   5.564  31.970   5.435
 4093POPC   GL154037   5.793  31.746   5.788
 4093POPC   GL254038   5.728  31.418   5.980
 4093POPC   C1A54039   6.001  31.759   6.205
 4093POPC   D2A54040   5.988  31.434   6.514
 4093POPC   C3A54041   5.936  31.594   6.921
 4093POPC   C4A54042   5.580  31.675   7.132
 4093POPC   C1B54043   5.528  31.261   6.330
 4093POPC   C2B54044   5.581  31.227   6.786
 4093POPC   C3B54045   5.748  31.182   7.200
 4093POPC   C4B54046   5.753  30.969   7.587
 4094POPC   NC354047  23.669   6.489   5.513
 4094POPC   PO454048  23.909   7.098   5.270
 4094POPC   GL154049  23.909   6.859   5.753
 4094POPC   GL254050  23.557   6.813   5.903
 4094POPC   C1A54051  23.894   6.660   6.225
 4094POPC   D2A54052  23.529   6.816   6.489
 4094POPC   C3A54053  23.626   6.899   6.929
 4094POPC   C4A54054  23.863   6.636   7.194
 4094POPC   C1B54055  23.452   6.454   6.118
 4094POPC   C2B54056  23.480   6.316   6.493
 4094POPC   C3B54057  23.478   6.421   6.892
 4094POPC   C4B54058  23.484   6.338   7.309
 4095POPC   NC354059   1.219  31.675   5.381
 4095POPC   PO454060   0.767  31.158   5.368
 4095POPC   GL154061   0.996  31.373   5.730
 4095POPC   GL254062   1.276  31.178   5.824
 4095POPC   C1A54063   1.275  31.586   6.107
 4095POPC   D2A54064   1.278  31.775   6.505
 4095POPC   C3A54065   1.290  31.481   6.844
 4095POPC   C4A54066   1.195  31.483   7.265
 4095POPC   C1B54067   1.009  31.113   6.175
 4095POPC   C2B54068   1.045  30.966   6.593
 4095POPC   C3B54069   0.964  31.101   7.023
 4095POPC   C4B54070   0.889  31.148   7.487
 4096POPC   NC354071  27.563  41.665   5.362
 4096POPC   PO454072  27.472  41.160   5.825
 4096POPC   GL154073  27.419  41.518   6.051
 4096POPC   GL254074  27.647  41.760   5.962
 4096POPC   C1A54075  27.206  41.734   6.375
 4096POPC   D2A54076  27.150  41.949   6.762
 4096POPC   C3A54077  27.448  41.784   7.060
 4096POPC   C4A54078  27.492  41.355   7.187
 4096POPC   C1B54079  27.834  41.519   6.347
 4096POPC   C2B54080  27.850  41.437   6.808
 4096POPC   C3B54081  27.990  41.292   7.231
 4096POPC   C4B54082  27.771  41.147   7.623
 4097POPC   NC354083   0.880  29.081   5.284
 4097POPC   PO454084   1.410  28.740   5.608
 4097POPC   GL154085   1.180  29.057   5.832
 4097POPC   GL254086   0.900  28.812   5.804
 4097POPC   C1A54087   1.236  29.268   6.248
 4097POPC   D2A54088   1.392  29.415   6.676
 4097POPC   C3A54089   1.194  29.271   7.077
 4097POPC   C4A54090   1.215  29.362   7.533
 4097POPC   C1B54091   1.096  28.747   6.217
 4097POPC   C2B54092   1.216  28.916   6.614
 4097POPC   C3B54093   1.177  28.775   7.002
 4097POPC   C4B54094   1.469  28.683   7.256
 4098POPC   NC354095   0.513  28.029   5.364
 4098POPC   PO454096   0.607  28.664   5.327
 4098POPC   GL154097   0.446  28.580   5.742
 4098POPC   GL254098   0.398  28.261   5.843
 4098POPC   C1A54099   0.532  28.630   6.176
 4098POPC   D2A54100   0.405  28.432   6.542
 4098POPC   C3A54101   0.334  28.586   6.928
 4098POPC   C4A54102   0.545  28.518   7.311
 4098POPC   C1B54103   0.419  28.028   6.238
 4098POPC   C2B54104   0.210  27.981   6.680
 4098POPC   C3B54105   0.303  28.088   7.153
 4098POPC   C4B54106   0.269  27.895   7.617
 4099POPC   NC354107  22.475  24.989   5.455
 4099POPC   PO454108  22.574  24.359   5.417
 4099POPC   GL154109  22.620  24.623   5.808
 4099POPC   GL254110  22.995  24.625   5.875
 4099POPC   C1A54111  22.681  24.635   6.269
 4099POPC   D2A54112  22.902  24.657   6.681
 4099POPC   C3A54113  22.741  24.603   7.114
 4099POPC   C4A54114  22.910  24.633   7.549
 4099POPC   C1B54115  23.109  24.354   6.252
 4099POPC   C2B54116  23.106  24.186   6.689
 4099POPC   C3B54117  23.197  24.363   7.105
 4099POPC   C4B54118  23.419  24.522   7.480
 4100POPC   NC354119  14.225  17.051   5.394
 4100POPC   PO454120  14.460  16.413   5.304
 4100POPC   GL154121  14.314  16.620   5.734
 4100POPC   GL254122  14.001  16.815   5.815
 4100POPC   C1A54123  14.489  16.739   6.157
 4100POPC   D2A54124  14.759  16.736   6.522
 4100POPC   C3A54125  14.604  16.484   6.859
 4100POPC   C4A54126  14.546  16.557   7.275
 4100POPC   C1B54127  13.999  16.804   6.282
 4100POPC   C2B54128  14.228  16.819   6.686
 4100POPC   C3B54129  14.119  16.826   7.145
 4100POPC   C4B54130  13.948  17.016   7.521
 4101POPC   NC354131  25.589  43.181   5.500
 4101POPC   PO454132  24.920  42.846   5.357
 4101POPC   GL154133  24.914  43.005   5.759
 4101POPC   GL254134  25.090  42.715   5.849
 4101POPC   C1A54135  25.129  43.126   6.169
 4101POPC   D2A54136  25.154  43.280   6.583
 4101POPC   C3A54137  25.463  43.186   6.885
 4101POPC   C4A54138  25.275  43.421   7.231
 4101POPC   C1B54139  24.791  42.734   6.196
 4101POPC   C2B54140  25.045  42.768   6.567
 4101POPC   C3B54141  25.012  42.951   6.971
 4101POPC   C4B54142  25.319  42.904   7.285
 4102POPC   NC354143  33.402  16.029   5.474
 4102POPC   PO454144  32.805  16.203   5.489
 4102POPC   GL154145  32.967  16.018   5.850
 4102POPC   GL254146  33.113  15.722   5.756
 4102POPC   C1A54147  33.115  15.857   6.258
 4102POPC   D2A54148  33.023  15.955   6.674
 4102POPC   C3A54149  33.390  15.979   6.950
 4102POPC   C4A54150  33.382  16.055   7.396
 4102POPC   C1B54151  32.757  15.574   6.035
 4102POPC   C2B54152  32.651  15.524   6.479
 4102POPC   C3B54153  32.598  15.727   6.878
 4102POPC   C4B54154  32.891  15.863   7.186
 4103POPC   NC354155   8.361  15.166   5.567
 4103POPC   PO454156   8.893  15.325   5.197
 4103POPC   GL154157   8.905  15.159   5.638
 4103POPC   GL254158   8.888  14.802   5.647
 4103POPC   C1A54159   8.861  15.261   6.115
 4103POPC   D2A54160   9.065  15.201   6.537
 4103POPC   C3A54161   8.946  15.212   6.978
 4103POPC   C4A54162   9.192  14.931   7.268
 4103POPC   C1B54163   8.639  14.796   6.042
 4103POPC   C2B54164   8.621  14.937   6.455
 4103POPC   C3B54165   8.607  14.846   6.877
 4103POPC   C4B54166   8.669  14.891   7.292
 4104POPC   NC354167  12.361  35.843   5.243
 4104POPC   PO454168  11.786  35.720   5.475
 4104POPC   GL154169  11.973  36.032   5.787
 4104POPC   GL254170  11.928  36.391   5.825
 4104POPC   C1A54171  12.231  36.140   6.175
 4104POPC   D2A54172  12.076  36.060   6.616
 4104POPC   C3A54173  12.200  36.242   7.036
 4104POPC   C4A54174  12.176  36.017   7.445
 4104POPC   C1B54175  11.752  36.276   6.256
 4104POPC   C2B54176  11.588  36.197   6.672
 4104POPC   C3B54177  11.703  36.145   7.104
 4104POPC   C4B54178  11.667  36.031   7.539
 4105POPC   NC354179   8.080  38.289   5.518
 4105POPC   PO454180   8.591  38.772   5.406
 4105POPC   GL154181   8.492  38.610   5.818
 4105POPC   GL254182   8.530  38.236   5.830
 4105POPC   C1A54183   8.190  38.623   6.186
 4105POPC   D2A54184   7.908  38.587   6.555
 4105POPC   C3A54185   8.076  38.497   6.935
 4105POPC   C4A54186   8.080  38.653   7.334
 4105POPC   C1B54187   8.648  38.371   6.273
 4105POPC   C2B54188   8.598  38.532   6.735
 4105POPC   C3B54189   8.510  38.299   7.131
 4105POPC   C4B54190   8.427  38.278   7.573
 4106POPC   NC354191  22.532  42.452   5.431
 4106POPC   PO454192  21.910  42.088   5.271
 4106POPC   GL154193  22.042  42.235   5.730
 4106POPC   GL254194  22.333  42.441   5.893
 4106POPC   C1A54195  21.963  42.292   6.204
 4106POPC   D2A54196  21.966  42.544   6.589
 4106POPC   C3A54197  21.890  42.324   7.034
 4106POPC   C4A54198  22.066  42.282   7.493
 4106POPC   C1B54199  22.423  42.468   6.356
 4106POPC   C2B54200  22.376  42.322   6.797
 4106POPC   C3B54201  22.328  42.586   7.169
 4106POPC   C4B54202  22.565  42.946   7.309
 4107POPC   NC354203  16.234  43.517   5.386
 4107POPC   PO454204  15.516  43.443   5.408
 4107POPC   GL154205  15.790  43.402   5.791
 4107POPC   GL254206  16.120  43.221   5.796
 4107POPC   C1A54207  15.987  43.463   6.230
 4107POPC   D2A54208  16.028  43.254   6.635
 4107POPC   C3A54209  16.012  43.511   6.981
 4107POPC   C4A54210  15.850  43.449   7.390
 4107POPC   C1B54211  16.051  42.958   6.172
 4107POPC   C2B54212  15.815  42.801   6.529
 4107POPC   C3B54213  15.854  42.774   6.959
 4107POPC   C4B54214  16.067  43.042   7.204
 4108POPC   NC354215   3.097  44.845   5.195
 4108POPC   PO454216   2.694  44.299   5.361
 4108POPC   GL154217   2.740  44.531   5.725
 4108POPC   GL254218   2.924  44.841   5.708
 4108POPC   C1A54219   2.724  44.398   6.148
 4108POPC   D2A54220   2.466  44.517   6.505
 4108POPC   C3A54221   2.639  44.359   6.889
 4108POPC   C4A54222   2.871  44.574   7.212
 4108POPC   C1B54223   2.718  44.927   6.109
 4108POPC   C2B54224   2.768  44.965   6.555
 4108POPC   C3B54225   2.893   0.061   7.039
 4108POPC   C4B54226   2.957  44.984   7.528
 4109POPC   NC354227  22.836  27.288   5.414
 4109POPC   PO454228  23.196  27.820   5.502
 4109POPC   GL154229  22.967  27.771   5.884
 4109POPC   GL254230  23.046  27.451   5.847
 4109POPC   C1A54231  23.010  27.654   6.350
 4109POPC   D2A54232  23.098  27.880   6.749
 4109POPC   C3A54233  23.069  27.690   7.163
 4109POPC   C4A54234  22.659  27.628   7.322
 4109POPC   C1B54235  22.882  27.220   6.111
 4109POPC   C2B54236  22.948  27.146   6.490
 4109POPC   C3B54237  22.915  27.300   6.875
 4109POPC   C4B54238  22.879  27.173   7.291
 4110POPC   NC354239  36.615  43.072   5.375
 4110POPC   PO454240  37.301  43.106   5.481
 4110POPC   GL154241  36.958  43.062   5.756
 4110POPC   GL254242  37.189  43.102   6.003
 4110POPC   C1A54243  36.743  43.031   6.183
 4110POPC   D2A54244  36.729  43.138   6.586
 4110POPC   C3A54245  36.894  42.836   6.856
 4110POPC   C4A54246  36.781  43.081   7.196
 4110POPC   C1B54247  37.176  42.926   6.416
 4110POPC   C2B54248  37.233  43.247   6.743
 4110POPC   C3B54249  37.227  43.380   7.159
 4110POPC   C4B54250  37.051  43.314   7.577
 4111POPC   NC354251  30.427  44.228   5.491
 4111POPC   PO454252  30.970  43.834   5.425
 4111POPC   GL154253  30.865  44.012   5.789
 4111POPC   GL254254  30.747  43.692   5.890
 4111POPC   C1A54255  30.735  44.150   6.195
 4111POPC   D2A54256  30.723  43.932   6.595
 4111POPC   C3A54257  30.668  44.240   6.912
 4111POPC   C4A54258  30.545  44.100   7.323
 4111POPC   C1B54259  30.435  43.727   6.208
 4111POPC   C2B54260  30.242  43.684   6.628
 4111POPC   C3B54261  30.466  43.702   7.000
 4111POPC   C4B54262  30.546  43.487   7.346
 4112POPC   NC354263  12.906  11.552   5.416
 4112POPC   PO454264  12.560  10.977   5.365
 4112POPC   GL154265  12.644  11.202   5.767
 4112POPC   GL254266  12.566  11.556   5.825
 4112POPC   C1A54267  12.853  11.249   6.178
 4112POPC   D2A54268  12.706  11.119   6.615
 4112POPC   C3A54269  12.868  11.388   6.954
 4112POPC   C4A54270  13.113  11.296   7.316
 4112POPC   C1B54271  12.629  11.770   6.242
 4112POPC   C2B54272  12.757  11.905   6.682
 4112POPC   C3B54273  12.581  11.798   7.102
 4112POPC   C4B54274  12.674  11.520   7.444
 4113POPC   NC354275  18.773  37.588   5.515
 4113POPC   PO454276  19.420  37.591   5.330
 4113POPC   GL154277  19.290  37.828   5.696
 4113POPC   GL254278  18.992  37.763   5.929
 4113POPC   C1A54279  19.441  37.949   6.102
 4113POPC   D2A54280  19.134  37.944   6.452
 4113POPC   C3A54281  19.250  37.845   6.881
 4113POPC   C4A54282  19.109  37.542   7.158
 4113POPC   C1B54283  18.736  37.531   6.233
 4113POPC   C2B54284  18.548  37.639   6.636
 4113POPC   C3B54285  18.743  37.979   6.891
 4113POPC   C4B54286  18.961  38.048   7.265
 4114POPC   NC354287  38.935  24.539   5.355
 4114POPC   PO454288  39.461  24.821   5.449
 4114POPC   GL154289  39.241  24.640   5.799
 4114POPC   GL254290  39.072  24.332   5.791
 4114POPC   C1A54291  39.364  24.712   6.228
 4114POPC   D2A54292  39.356  24.464   6.603
 4114POPC   C3A54293  39.249  24.657   6.978
 4114POPC   C4A54294  39.188  24.497   7.396
 4114POPC   C1B54295  39.229  24.207   6.167
 4114POPC   C2B54296  39.076  24.033   6.548
 4114POPC   C3B54297  39.098  24.161   6.998
 4114POPC   C4B54298  39.401  24.045   7.347
 4115POPC   NC354299  44.567   6.153   5.339
 4115POPC   PO454300   0.067   6.539   5.207
 4115POPC   GL154301  44.894   6.546   5.656
 4115POPC   GL254302  44.641   6.332   5.815
 4115POPC   C1A54303  44.796   6.745   6.074
 4115POPC   D2A54304  44.904   6.637   6.522
 4115POPC   C3A54305  44.610   6.620   6.885
 4115POPC   C4A54306  44.663   6.818   7.297
 4115POPC   C1B54307  44.571   6.310   6.250
 4115POPC   C2B54308  44.267   6.231   6.560
 4115POPC   C3B54309  44.268   6.127   6.988
 4115POPC   C4B54310  44.444   6.349   7.312
 4116POPC   NC354311   7.682  39.865   5.446
 4116POPC   PO454312   7.208  40.366   5.599
 4116POPC   GL154313   7.486  40.105   5.851
 4116POPC   GL254314   7.398  39.762   5.951
 4116POPC   C1A54315   7.580  40.148   6.260
 4116POPC   D2A54316   7.459  40.010   6.650
 4116POPC   C3A54317   7.685  39.864   6.955
 4116POPC   C4A54318   7.519  40.092   7.325
 4116POPC   C1B54319   7.113  39.874   6.294
 4116POPC   C2B54320   6.953  39.879   6.714
 4116POPC   C3B54321   7.189  39.789   7.095
 4116POPC   C4B54322   7.192  39.765   7.610
 4117POPC   NC354323  18.294  21.546   5.259
 4117POPC   PO454324  18.297  22.198   5.405
 4117POPC   GL154325  18.531  21.807   5.659
 4117POPC   GL254326  18.354  21.461   5.752
 4117POPC   C1A54327  18.666  21.632   6.108
 4117POPC   D2A54328  18.633  21.447   6.547
 4117POPC   C3A54329  18.474  21.629   6.933
 4117POPC   C4A54330  18.489  21.410   7.356
 4117POPC   C1B54331  18.239  21.359   6.214
 4117POPC   C2B54332  18.124  21.349   6.689
 4117POPC   C3B54333  18.027  21.474   7.152
 4117POPC   C4B54334  18.043  21.455   7.629
 4118POPC   NC354335  25.393   3.840   5.432
 4118POPC   PO454336  24.782   3.473   5.443
 4118POPC   GL154337  24.901   3.322   5.876
 4118POPC   GL254338  25.252   3.355   5.792
 4118POPC   C1A54339  25.085   3.249   6.325
 4118POPC   D2A54340  25.389   3.106   6.703
 4118POPC   C3A54341  25.246   3.229   7.149
 4118POPC   C4A54342  25.033   3.613   7.323
 4118POPC   C1B54343  25.344   3.680   6.091
 4118POPC   C2B54344  25.313   3.687   6.499
 4118POPC   C3B54345  25.323   3.679   6.916
 4118POPC   C4B54346  25.438   3.947   7.260
 4119POPC   NC354347  41.529  40.650   5.369
 4119POPC   PO454348  41.995  41.114   5.655
 4119POPC   GL154349  41.726  40.809   5.840
 4119POPC   GL254350  41.399  40.676   5.868
 4119POPC   C1A54351  41.687  40.779   6.284
 4119POPC   D2A54352  42.003  40.926   6.563
 4119POPC   C3A54353  42.004  40.579   6.825
 4119POPC   C4A54354  41.638  40.563   7.106
 4119POPC   C1B54355  41.245  41.027   6.170
 4119POPC   C2B54356  41.197  41.067   6.647
 4119POPC   C3B54357  41.172  40.788   7.032
 4119POPC   C4B54358  41.306  40.771   7.474
 4120POPC   NC354359  18.671  23.371   5.396
 4120POPC   PO454360  19.238  23.871   5.329
 4120POPC   GL154361  19.094  23.918   5.782
 4120POPC   GL254362  19.052  23.549   5.825
 4120POPC   C1A54363  18.918  23.843   6.219
 4120POPC   D2A54364  18.947  23.545   6.532
 4120POPC   C3A54365  18.948  23.562   6.973
 4120POPC   C4A54366  18.877  23.934   7.243
 4120POPC   C1B54367  19.349  23.543   6.165
 4120POPC   C2B54368  19.403  23.325   6.580
 4120POPC   C3B54369  19.454  23.418   7.027
 4120POPC   C4B54370  19.237  23.618   7.393
 4121POPC   NC354371  18.017  15.658   5.255
 4121POPC   PO454372  18.475  16.116   5.462
 4121POPC   GL154373  18.283  15.802   5.706
 4121POPC   GL254374  17.955  15.846   5.810
 4121POPC   C1A54375  18.365  15.646   6.126
 4121POPC   D2A54376  18.186  15.586   6.546
 4121POPC   C3A54377  18.370  15.767   6.937
 4121POPC   C4A54378  18.282  15.826   7.384
 4121POPC   C1B54379  17.936  16.045   6.228
 4121POPC   C2B54380  18.036  16.077   6.677
 4121POPC   C3B54381  17.877  15.966   7.106
 4121POPC   C4B54382  17.838  15.925   7.582
 4122POPC   NC354383  25.761   5.270   5.440
 4122POPC   PO454384  26.090   4.729   5.292
 4122POPC   GL154385  26.112   4.891   5.682
 4122POPC   GL254386  25.762   4.866   5.760
 4122POPC   C1A54387  26.160   4.902   6.147
 4122POPC   D2A54388  26.381   5.058   6.526
 4122POPC   C3A54389  26.161   5.199   6.895
 4122POPC   C4A54390  26.041   5.025   7.321
 4122POPC   C1B54391  25.645   5.055   6.165
 4122POPC   C2B54392  25.810   4.948   6.572
 4122POPC   C3B54393  25.664   5.019   6.965
 4122POPC   C4B54394  25.546   5.124   7.371
 4123POPC   NC354395  12.181  15.327   5.382
 4123POPC   PO454396  11.693  14.879   5.430
 4123POPC   GL154397  11.789  15.190   5.737
 4123POPC   GL254398  11.993  15.022   5.984
 4123POPC   C1A54399  11.596  15.298   6.144
 4123POPC   D2A54400  11.760  15.449   6.526
 4123POPC   C3A54401  11.772  15.201   6.899
 4123POPC   C4A54402  12.036  15.155   7.244
 4123POPC   C1B54403  11.992  15.009   6.446
 4123POPC   C2B54404  12.298  15.167   6.776
 4123POPC   C3B54405  12.474  14.910   7.102
 4123POPC   C4B54406  12.380  14.950   7.548
 4124POPC   NC354407  25.696  41.276   5.498
 4124POPC   PO454408  26.317  41.397   5.240
 4124POPC   GL154409  26.175  41.609   5.657
 4124POPC   GL254410  25.972  41.402   5.896
 4124POPC   C1A54411  26.320  41.709   6.106
 4124POPC   D2A54412  26.304  41.546   6.536
 4124POPC   C3A54413  26.089  41.707   6.916
 4124POPC   C4A54414  26.344  41.765   7.270
 4124POPC   C1B54415  25.977  41.234   6.274
 4124POPC   C2B54416  25.845  41.330   6.646
 4124POPC   C3B54417  25.669  41.107   6.963
 4124POPC   C4B54418  25.814  41.291   7.311
 4125POPC   NC354419   3.197  33.504   5.560
 4125POPC   PO454420   3.728  33.175   5.193
 4125POPC   GL154421   3.718  33.213   5.688
 4125POPC   GL254422   3.640  32.901   5.867
 4125POPC   C1A54423   3.675  33.291   6.172
 4125POPC   D2A54424   3.623  32.979   6.509
 4125POPC   C3A54425   3.365  33.046   6.876
 4125POPC   C4A54426   3.659  33.188   7.123
 4125POPC   C1B54427   3.260  32.915   6.141
 4125POPC   C2B54428   3.059  32.799   6.539
 4125POPC   C3B54429   3.152  32.571   6.903
 4125POPC   C4B54430   3.185  32.732   7.287
 4126POPC   NC354431   2.100  12.878   5.144
 4126POPC   PO454432   2.606  13.111   5.629
 4126POPC   GL154433   2.313  13.120   6.059
 4126POPC   GL254434   1.941  13.171   5.977
 4126POPC   C1A54435   2.053  12.801   6.297
 4126POPC   D2A54436   1.825  12.922   6.625
 4126POPC   C3A54437   2.124  12.993   6.941
 4126POPC   C4A54438   2.100  12.779   7.304
 4126POPC   C1B54439   1.616  13.367   6.247
 4126POPC   C2B54440   1.512  13.449   6.688
 4126POPC   C3B54441   1.740  13.306   7.034
 4126POPC   C4B54442   1.847  13.221   7.468
 4127POPC   NC354443   2.032   4.163   5.160
 4127POPC   PO454444   1.772   4.716   5.505
 4127POPC   GL154445   2.018   4.468   5.790
 4127POPC   GL254446   2.089   4.105   5.706
 4127POPC   C1A54447   1.896   4.376   6.181
 4127POPC   D2A54448   2.014   4.468   6.606
 4127POPC   C3A54449   1.774   4.451   6.996
 4127POPC   C4A54450   1.884   4.278   7.407
 4127POPC   C1B54451   2.326   4.069   6.120
 4127POPC   C2B54452   2.453   4.201   6.560
 4127POPC   C3B54453   2.284   4.233   6.972
 4127POPC   C4B54454   2.265   3.960   7.303
 4128POPC   NC354455  44.093  19.643   5.374
 4128POPC   PO454456  43.491  19.897   5.496
 4128POPC   GL154457  43.744  19.640   5.815
 4128POPC   GL254458  44.087  19.781   5.860
 4128POPC   C1A54459  43.872  19.560   6.274
 4128POPC   D2A54460  44.044  19.864   6.574
 4128POPC   C3A54461  43.783  20.077   6.847
 4128POPC   C4A54462  43.681  19.826   7.154
 4128POPC   C1B54463  44.156  20.161   6.114
 4128POPC   C2B54464  44.403  20.203   6.508
 4128POPC   C3B54465  44.267  20.229   6.924
 4128POPC   C4B54466  44.185  19.934   7.248
 4129POPC   NC354467  18.371  22.656   5.382
 4129POPC   PO454468  18.202  23.320   5.419
 4129POPC   GL154469  18.432  23.164   5.804
 4129POPC   GL254470  18.151  23.065   5.971
 4129POPC   C1A54471  18.586  22.916   6.192
 4129POPC   D2A54472  18.517  22.750   6.622
 4129POPC   C3A54473  18.573  23.004   6.992
 4129POPC   C4A54474  18.375  22.870   7.357
 4129POPC   C1B54475  18.183  23.182   6.424
 4129POPC   C2B54476  18.095  23.139   6.896
 4129POPC   C3B54477  17.895  22.798   7.157
 4129POPC   C4B54478  17.512  22.776   7.429
 4130POPC   NC354479  11.099  28.617   5.365
 4130POPC   PO454480  11.526  28.174   5.532
 4130POPC   GL154481  11.397  28.465   5.868
 4130POPC   GL254482  11.104  28.736   5.853
 4130POPC   C1A54483  11.635  28.338   6.253
 4130POPC   D2A54484  11.706  28.026   6.591
 4130POPC   C3A54485  11.735  28.211   7.005
 4130POPC   C4A54486  11.453  28.447   7.222
 4130POPC   C1B54487  10.958  28.653   6.254
 4130POPC   C2B54488  11.149  28.302   6.438
 4130POPC   C3B54489  11.239  28.147   6.838
 4130POPC   C4B54490  10.996  28.137   7.197
 4131POPC   NC354491  12.130  11.980   5.221
 4131POPC   PO454492  11.714  12.508   5.485
 4131POPC   GL154493  11.943  12.174   5.710
 4131POPC   GL254494  12.166  11.865   5.697
 4131POPC   C1A54495  12.156  12.223   6.094
 4131POPC   D2A54496  12.283  12.282   6.499
 4131POPC   C3A54497  12.010  12.239   6.869
 4131POPC   C4A54498  12.150  12.046   7.251
 4131POPC   C1B54499  12.121  11.711   6.086
 4131POPC   C2B54500  12.056  11.830   6.480
 4131POPC   C3B54501  11.994  11.717   6.897
 4131POPC   C4B54502  11.667  11.920   7.133
 4132POPC   NC354503  41.562  29.684   5.379
 4132POPC   PO454504  41.884  30.251   5.436
 4132POPC   GL154505  41.892  29.990   5.830
 4132POPC   GL254506  41.831  29.613   5.830
 4132POPC   C1A54507  41.861  29.889   6.283
 4132POPC   D2A54508  41.578  29.904   6.631
 4132POPC   C3A54509  41.798  29.852   7.011
 4132POPC   C4A54510  41.719  30.041   7.414
 4132POPC   C1B54511  41.415  29.841   6.005
 4132POPC   C2B54512  41.117  29.976   6.335
 4132POPC   C3B54513  41.038  29.930   6.777
 4132POPC   C4B54514  41.305  29.901   7.143
 4133POPC   NC354515  38.226  32.690   5.012
 4133POPC   PO454516  38.565  32.266   5.419
 4133POPC   GL154517  38.402  32.149   5.805
 4133POPC   GL254518  38.260  32.491   5.881
 4133POPC   C1A54519  38.527  31.918   6.194
 4133POPC   D2A54520  38.685  32.198   6.523
 4133POPC   C3A54521  38.638  32.110   6.933
 4133POPC   C4A54522  38.905  32.343   7.179
 4133POPC   C1B54523  38.260  32.333   6.283
 4133POPC   C2B54524  38.188  32.229   6.689
 4133POPC   C3B54525  38.260  32.443   7.083
 4133POPC   C4B54526  38.011  32.348   7.468
 4134POPC   NC354527  41.360  27.759   5.439
 4134POPC   PO454528  42.000  27.493   5.612
 4134POPC   GL154529  41.749  27.760   5.851
 4134POPC   GL254530  41.359  27.841   5.926
 4134POPC   C1A54531  41.709  27.680   6.265
 4134POPC   D2A54532  41.444  27.831   6.541
 4134POPC   C3A54533  41.665  27.777   6.905
 4134POPC   C4A54534  41.614  27.499   7.264
 4134POPC   C1B54535  41.223  27.523   6.164
 4134POPC   C2B54536  40.979  27.555   6.511
 4134POPC   C3B54537  41.172  27.574   6.902
 4134POPC   C4B54538  41.085  27.321   7.219
 4135POPC   NC354539   8.300  39.817   5.249
 4135POPC   PO454540   7.875  40.292   5.474
 4135POPC   GL154541   7.990  40.202   5.896
 4135POPC   GL254542   8.302  40.011   5.836
 4135POPC   C1A54543   8.086  40.098   6.327
 4135POPC   D2A54544   8.246  40.268   6.691
 4135POPC   C3A54545   8.038  40.234   7.087
 4135POPC   C4A54546   7.986  39.890   7.364
 4135POPC   C1B54547   8.324  39.666   6.192
 4135POPC   C2B54548   8.233  39.684   6.627
 4135POPC   C3B54549   8.355  39.834   7.006
 4135POPC   C4B54550   8.415  39.618   7.363
 4136POPC   NC354551   0.684  34.043   5.488
 4136POPC   PO454552   0.165  33.529   5.407
 4136POPC   GL154553   0.156  33.744   5.781
 4136POPC   GL254554  44.943  33.447   5.910
 4136POPC   C1A54555   0.345  34.053   6.109
 4136POPC   D2A54556   0.577  34.029   6.515
 4136POPC   C3A54557   0.352  33.980   6.932
 4136POPC   C4A54558   0.524  33.768   7.306
 4136POPC   C1B54559   0.313  33.520   6.194
 4136POPC   C2B54560   0.422  33.536   6.622
 4136POPC   C3B54561   0.208  33.470   6.992
 4136POPC   C4B54562   0.031  33.617   7.330
 4137POPC   NC354563  17.402  44.884   5.522
 4137POPC   PO454564  17.916  44.450   5.499
 4137POPC   GL154565  17.624  44.564   5.849
 4137POPC   GL254566  17.295  44.446   5.832
 4137POPC   C1A54567  17.420  44.788   6.204
 4137POPC   D2A54568  17.644  44.607   6.534
 4137POPC   C3A54569  17.570  44.793   6.903
 4137POPC   C4A54570  17.680  44.669   7.348
 4137POPC   C1B54571  17.348  44.263   6.244
 4137POPC   C2B54572  17.210  44.363   6.668
 4137POPC   C3B54573  17.250  44.442   7.101
 4137POPC   C4B54574  17.206  44.859   7.236
 4138POPC   NC354575  34.292  28.720   5.497
 4138POPC   PO454576  34.741  28.214   5.354
 4138POPC   GL154577  34.768  28.470   5.763
 4138POPC   GL254578  34.877  28.812   5.688
 4138POPC   C1A54579  34.507  28.669   6.135
 4138POPC   D2A54580  34.339  28.633   6.572
 4138POPC   C3A54581  34.227  28.231   6.742
 4138POPC   C4A54582  34.471  28.049   7.083
 4138POPC   C1B54583  35.000  28.815   6.148
 4138POPC   C2B54584  34.981  28.678   6.604
 4138POPC   C3B54585  34.706  28.575   6.997
 4138POPC   C4B54586  34.638  28.615   7.474
 4139POPC   NC354587   5.544  12.183   5.353
 4139POPC   PO454588   6.258  11.956   5.443
 4139POPC   GL154589   5.984  12.204   5.674
 4139POPC   GL254590   6.253  12.357   5.851
 4139POPC   C1A54591   5.792  12.329   6.056
 4139POPC   D2A54592   5.865  12.319   6.507
 4139POPC   C3A54593   5.636  12.166   6.880
 4139POPC   C4A54594   5.749  11.966   7.304
 4139POPC   C1B54595   6.215  12.057   6.214
 4139POPC   C2B54596   6.255  12.032   6.684
 4139POPC   C3B54597   6.177  11.779   7.029
 4139POPC   C4B54598   6.209  11.733   7.480
 4140POPC   NC354599  11.804  26.683   5.386
 4140POPC   PO454600  12.459  26.874   5.370
 4140POPC   GL154601  12.209  26.656   5.736
 4140POPC   GL254602  11.850  26.525   5.852
 4140POPC   C1A54603  12.088  26.874   6.141
 4140POPC   D2A54604  12.064  27.091   6.551
 4140POPC   C3A54605  12.289  27.074   6.916
 4140POPC   C4A54606  12.009  26.947   7.217
 4140POPC   C1B54607  12.002  26.377   6.240
 4140POPC   C2B54608  11.878  26.238   6.636
 4140POPC   C3B54609  11.865  26.481   7.027
 4140POPC   C4B54610  11.887  26.522   7.504
 4141POPC   NC354611  25.705   6.055   5.484
 4141POPC   PO454612  26.129   5.542   5.425
 4141POPC   GL154613  25.964   5.670   5.841
 4141POPC   GL254614  25.990   5.341   5.936
 4141POPC   C1A54615  26.068   5.858   6.292
 4141POPC   D2A54616  26.090   5.768   6.770
 4141POPC   C3A54617  26.222   6.087   7.049
 4141POPC   C4A54618  26.003   6.375   7.343
 4141POPC   C1B54619  25.994   5.376   6.396
 4141POPC   C2B54620  25.696   5.463   6.740
 4141POPC   C3B54621  25.849   5.505   7.158
 4141POPC   C4B54622  26.286   5.473   7.343
 4142POPC   NC354623  40.272  35.009   5.361
 4142POPC   PO454624  39.637  35.184   5.339
 4142POPC   GL154625  39.933  35.219   5.715
 4142POPC   GL254626  40.131  35.535   5.705
 4142POPC   C1A54627  40.249  35.209   6.090
 4142POPC   D2A54628  40.126  35.325   6.519
 4142POPC   C3A54629  40.299  35.161   6.870
 4142POPC   C4A54630  40.045  35.267   7.198
 4142POPC   C1B54631  39.931  35.609   6.129
 4142POPC   C2B54632  39.946  35.823   6.558
 4142POPC   C3B54633  39.899  35.717   6.988
 4142POPC   C4B54634  39.715  35.712   7.402
 4143POPC   NC354635  32.378  17.904   5.716
 4143POPC   PO454636  32.273  18.354   5.289
 4143POPC   GL154637  32.133  18.351   5.751
 4143POPC   GL254638  32.054  18.065   6.054
 4143POPC   C1A54639  32.281  18.518   6.131
 4143POPC   D2A54640  32.173  18.439   6.557
 4143POPC   C3A54641  32.297  18.118   6.818
 4143POPC   C4A54642  32.280  18.427   7.132
 4143POPC   C1B54643  32.445  18.064   6.321
 4143POPC   C2B54644  32.737  17.910   6.585
 4143POPC   C3B54645  32.732  17.850   6.999
 4143POPC   C4B54646  32.462  17.955   7.297
 4144POPC   NC354647  20.334  41.219   5.439
 4144POPC   PO454648  20.671  40.719   5.362
 4144POPC   GL154649  20.519  40.808   5.731
 4144POPC   GL254650  20.369  40.541   5.814
 4144POPC   C1A54651  20.681  40.779   6.139
 4144POPC   D2A54652  20.972  40.665   6.465
 4144POPC   C3A54653  20.807  40.724   6.865
 4144POPC   C4A54654  20.622  40.834   7.251
 4144POPC   C1B54655  20.169  40.591   6.176
 4144POPC   C2B54656  20.393  40.649   6.548
 4144POPC   C3B54657  20.392  40.424   6.915
 4144POPC   C4B54658  20.195  40.523   7.279
 4145POPC   NC354659  25.295  26.351   5.420
 4145POPC   PO454660  25.471  25.751   5.233
 4145POPC   GL154661  25.483  25.965   5.698
 4145POPC   GL254662  25.593  26.320   5.842
 4145POPC   C1A54663  25.317  26.029   6.172
 4145POPC   D2A54664  25.090  25.883   6.585
 4145POPC   C3A54665  25.227  25.948   7.041
 4145POPC   C4A54666  25.018  25.919   7.476
 4145POPC   C1B54667  25.704  26.340   6.318
 4145POPC   C2B54668  25.476  26.286   6.736
 4145POPC   C3B54669  25.543  26.390   7.202
 4145POPC   C4B54670  25.471  26.419   7.666
 4146POPC   NC354671  33.308  14.582   5.361
 4146POPC   PO454672  32.643  14.420   5.378
 4146POPC   GL154673  32.986  14.405   5.706
 4146POPC   GL254674  32.845  14.653   5.905
 4146POPC   C1A54675  33.275  14.403   6.084
 4146POPC   D2A54676  33.199  14.699   6.444
 4146POPC   C3A54677  33.219  14.573   6.884
 4146POPC   C4A54678  33.077  14.750   7.279
 4146POPC   C1B54679  32.786  14.444   6.268
 4146POPC   C2B54680  32.759  14.382   6.684
 4146POPC   C3B54681  32.709  14.469   7.085
 4146POPC   C4B54682  32.606  14.116   7.299
 4147POPC   NC354683   7.885  37.317   5.547
 4147POPC   PO454684   7.275  37.584   5.235
 4147POPC   GL154685   7.425  37.723   5.680
 4147POPC   GL254686   7.767  37.734   5.811
 4147POPC   C1A54687   7.420  37.932   6.119
 4147POPC   D2A54688   7.281  37.925   6.524
 4147POPC   C3A54689   7.416  37.754   6.902
 4147POPC   C4A54690   7.293  38.005   7.245
 4147POPC   C1B54691   7.605  37.475   6.137
 4147POPC   C2B54692   7.747  37.558   6.539
 4147POPC   C3B54693   7.887  37.523   6.941
 4147POPC   C4B54694   7.757  37.718   7.299
 4148POPC   NC354695  42.607  22.678   5.452
 4148POPC   PO454696  41.968  23.023   5.356
 4148POPC   GL154697  42.253  22.957   5.718
 4148POPC   GL254698  42.210  22.608   5.873
 4148POPC   C1A54699  42.457  23.126   6.130
 4148POPC   D2A54700  42.593  22.938   6.550
 4148POPC   C3A54701  42.569  23.166   6.961
 4148POPC   C4A54702  42.358  23.093   7.372
 4148POPC   C1B54703  41.896  22.438   6.187
 4148POPC   C2B54704  41.807  22.501   6.644
 4148POPC   C3B54705  42.043  22.664   7.013
 4148POPC   C4B54706  42.086  22.665   7.492
 4149POPC   NC354707  12.313  27.306   5.237
 4149POPC   PO454708  11.894  27.831   5.245
 4149POPC   GL154709  11.844  27.627   5.699
 4149POPC   GL254710  11.855  27.209   5.721
 4149POPC   C1A54711  11.919  27.889   6.114
 4149POPC   D2A54712  12.244  28.003   6.460
 4149POPC   C3A54713  12.129  27.902   6.896
 4149POPC   C4A54714  12.359  27.659   7.167
 4149POPC   C1B54715  11.941  27.370   6.142
 4149POPC   C2B54716  11.981  27.581   6.542
 4149POPC   C3B54717  11.912  27.409   6.963
 4149POPC   C4B54718  11.570  27.283   7.241
 4150POPC   NC354719  43.491   1.847   5.440
 4150POPC   PO454720  42.795   1.862   5.347
 4150POPC   GL154721  42.953   2.122   5.769
 4150POPC   GL254722  43.341   2.224   5.802
 4150POPC   C1A54723  43.000   2.291   6.225
 4150POPC   D2A54724  42.808   2.205   6.640
 4150POPC   C3A54725  43.023   2.240   7.064
 4150POPC   C4A54726  43.458   2.183   7.181
 4150POPC   C1B54727  43.329   1.883   6.108
 4150POPC   C2B54728  43.175   1.863   6.523
 4150POPC   C3B54729  42.940   1.757   6.888
 4150POPC   C4B54730  43.068   1.808   7.321
 4151POPC   NC354731   1.539   5.232   5.705
 4151POPC   PO454732   2.189   5.446   5.601
 4151POPC   GL154733   2.197   5.218   5.971
 4151POPC   GL254734   1.924   4.954   5.960
 4151POPC   C1A54735   2.112   5.162   6.400
 4151POPC   D2A54736   1.774   4.903   6.549
 4151POPC   C3A54737   1.771   5.053   6.953
 4151POPC   C4A54738   2.089   5.240   7.200
 4151POPC   C1B54739   2.272   4.723   6.175
 4151POPC   C2B54740   2.424   4.750   6.594
 4151POPC   C3B54741   2.197   4.755   7.003
 4151POPC   C4B54742   1.961   4.790   7.409
 4152POPC   NC354743  44.909  16.358   5.386
 4152POPC   PO454744  44.541  16.939   5.456
 4152POPC   GL154745  44.710  16.686   5.734
 4152POPC   GL254746  44.931  16.915   5.821
 4152POPC   C1A54747  44.742  16.545   6.152
 4152POPC   D2A54748  44.801  16.726   6.546
 4152POPC   C3A54749  44.683  16.546   6.921
 4152POPC   C4A54750  44.852  16.587   7.333
 4152POPC   C1B54751   0.136  16.909   6.185
 4152POPC   C2B54752   0.111  17.130   6.565
 4152POPC   C3B54753   0.020  17.009   7.013
 4152POPC   C4B54754   0.136  17.007   7.475
 4153POPC   NC354755  16.216   0.977   5.484
 4153POPC   PO454756  15.705   1.491   5.336
 4153POPC   GL154757  15.825   1.279   5.749
 4153POPC   GL254758  15.959   0.975   5.898
 4153POPC   C1A54759  15.980   1.406   6.180
 4153POPC   D2A54760  15.785   1.596   6.555
 4153POPC   C3A54761  15.772   1.434   6.970
 4153POPC   C4A54762  15.826   1.650   7.339
 4153POPC   C1B54763  15.826   0.882   6.277
 4153POPC   C2B54764  15.655   1.062   6.630
 4153POPC   C3B54765  15.686   0.927   7.017
 4153POPC   C4B54766  16.077   0.984   7.192
 4154POPC   NC354767  43.959  33.271   5.583
 4154POPC   PO454768  43.706  33.836   5.195
 4154POPC   GL154769  43.718  33.976   5.688
 4154POPC   GL254770  43.850  33.701   5.816
 4154POPC   C1A54771  43.589  33.916   6.192
 4154POPC   D2A54772  43.416  33.765   6.613
 4154POPC   C3A54773  43.587  33.997   6.994
 4154POPC   C4A54774  43.994  34.240   7.134
 4154POPC   C1B54775  44.073  33.746   6.201
 4154POPC   C2B54776  43.970  33.804   6.666
 4154POPC   C3B54777  43.996  33.726   7.124
 4154POPC   C4B54778  43.802  33.475   7.444
 4155POPC   NC354779  31.312  33.401   5.652
 4155POPC   PO454780  31.714  32.840   5.554
 4155POPC   GL154781  31.524  33.007   5.930
 4155POPC   GL254782  31.217  32.849   5.837
 4155POPC   C1A54783  31.213  33.188   6.252
 4155POPC   D2A54784  31.197  33.429   6.637
 4155POPC   C3A54785  31.206  33.170   6.986
 4155POPC   C4A54786  31.534  32.948   7.206
 4155POPC   C1B54787  31.364  32.597   6.224
 4155POPC   C2B54788  31.553  32.474   6.645
 4155POPC   C3B54789  31.368  32.476   7.068
 4155POPC   C4B54790  31.254  32.632   7.509
 4156POPC   NC354791  34.707  11.364   5.444
 4156POPC   PO454792  34.057  11.627   5.333
 4156POPC   GL154793  34.154  11.404   5.760
 4156POPC   GL254794  34.424  11.171   5.806
 4156POPC   C1A54795  34.341  11.464   6.203
 4156POPC   D2A54796  34.531  11.588   6.588
 4156POPC   C3A54797  34.419  11.324   6.921
 4156POPC   C4A54798  34.364  11.473   7.315
 4156POPC   C1B54799  34.765  11.179   6.106
 4156POPC   C2B54800  34.690  11.071   6.521
 4156POPC   C3B54801  34.880  11.014   6.907
 4156POPC   C4B54802  34.772  11.153   7.289
 4157POPC   NC354803  26.920  14.928   5.472
 4157POPC   PO454804  27.583  15.168   5.312
 4157POPC   GL154805  27.663  15.077   5.779
 4157POPC   GL254806  27.805  14.723   5.760
 4157POPC   C1A54807  27.600  15.182   6.263
 4157POPC   D2A54808  27.553  15.282   6.730
 4157POPC   C3A54809  27.606  15.177   7.178
 4157POPC   C4A54810  27.482  15.168   7.633
 4157POPC   C1B54811  27.943  14.797   6.149
 4157POPC   C2B54812  27.772  14.739   6.541
 4157POPC   C3B54813  27.915  14.807   6.957
 4157POPC   C4B54814  27.782  14.745   7.397
 4158POPC   NC354815  37.401  23.260   5.446
 4158POPC   PO454816  38.034  22.885   5.362
 4158POPC   GL154817  37.871  22.753   5.766
 4158POPC   GL254818  37.509  22.846   5.781
 4158POPC   C1A54819  37.829  22.881   6.202
 4158POPC   D2A54820  37.557  22.758   6.508
 4158POPC   C3A54821  37.676  22.821   6.914
 4158POPC   C4A54822  37.822  22.693   7.278
 4158POPC   C1B54823  37.347  23.102   6.150
 4158POPC   C2B54824  37.174  23.274   6.550
 4158POPC   C3B54825  37.245  23.196   6.977
 4158POPC   C4B54826  37.499  23.084   7.317
 4159POPC   NC354827  41.411   0.193   5.248
 4159POPC   PO454828  41.684   0.787   5.500
 4159POPC   GL154829  41.714   0.480   5.807
 4159POPC   GL254830  41.394   0.397   5.718
 4159POPC   C1A54831  41.671   0.355   6.257
 4159POPC   D2A54832  41.540   0.201   6.643
 4159POPC   C3A54833  41.762   0.410   6.951
 4159POPC   C4A54834  42.018   0.299   7.262
 4159POPC   C1B54835  41.212   0.421   6.109
 4159POPC   C2B54836  41.254   0.587   6.504
 4159POPC   C3B54837  41.257   0.506   6.971
 4159POPC   C4B54838  41.446   0.550   7.406
 4160POPC   NC354839  13.720  11.611   5.544
 4160POPC   PO454840  13.490  11.045   5.610
 4160POPC   GL154841  13.806  11.217   5.914
 4160POPC   GL254842  13.979  11.548   5.978
 4160POPC   C1A54843  13.735  11.162   6.317
 4160POPC   D2A54844  13.612  10.834   6.620
 4160POPC   C3A54845  13.432  11.065   6.988
 4160POPC   C4A54846  13.554  11.047   7.432
 4160POPC   C1B54847  13.950  11.648   6.407
 4160POPC   C2B54848  13.781  11.438   6.777
 4160POPC   C3B54849  13.905  11.305   7.177
 4160POPC   C4B54850  13.941  11.333   7.624
 4161POPC   NC354851  36.385   5.936   5.388
 4161POPC   PO454852  35.744   5.642   5.329
 4161POPC   GL154853  36.024   5.688   5.721
 4161POPC   GL254854  36.180   6.035   5.845
 4161POPC   C1A54855  36.210   5.640   6.150
 4161POPC   D2A54856  36.252   5.864   6.524
 4161POPC   C3A54857  36.392   5.608   6.865
 4161POPC   C4A54858  36.057   5.688   7.150
 4161POPC   C1B54859  36.478   6.168   6.167
 4161POPC   C2B54860  36.453   6.336   6.613
 4161POPC   C3B54861  36.379   6.091   7.019
 4161POPC   C4B54862  36.532   5.754   7.341
 4162POPC   NC354863  36.146  17.936   5.290
 4162POPC   PO454864  36.583  18.240   5.458
 4162POPC   GL154865  36.214  18.198   5.772
 4162POPC   GL254866  35.950  17.955   5.781
 4162POPC   C1A54867  36.079  18.261   6.233
 4162POPC   D2A54868  36.063  18.053   6.655
 4162POPC   C3A54869  36.089  18.250   7.067
 4162POPC   C4A54870  36.392  18.540   7.260
 4162POPC   C1B54871  35.847  17.801   6.210
 4162POPC   C2B54872  35.723  17.689   6.652
 4162POPC   C3B54873  35.813  17.684   7.093
 4162POPC   C4B54874  35.907  17.834   7.498
 4163POPC   NC354875  27.005  38.392   5.326
 4163POPC   PO454876  26.512  38.828   5.375
 4163POPC   GL154877  26.729  38.619   5.713
 4163POPC   GL254878  26.523  38.355   5.846
 4163POPC   C1A54879  26.863  38.740   6.146
 4163POPC   D2A54880  26.639  38.710   6.561
 4163POPC   C3A54881  26.796  38.754   6.984
 4163POPC   C4A54882  26.663  38.447   7.283
 4163POPC   C1B54883  26.790  38.237   6.160
 4163POPC   C2B54884  27.018  38.340   6.508
 4163POPC   C3B54885  26.952  38.246   6.914
 4163POPC   C4B54886  27.168  38.309   7.289
 4164POPC   NC354887  11.733  21.194   5.437
 4164POPC   PO454888  11.161  21.611   5.340
 4164POPC   GL154889  11.105  21.508   5.795
 4164POPC   GL254890  11.116  21.163   5.885
 4164POPC   C1A54891  10.885  21.524   6.219
 4164POPC   D2A54892  11.004  21.361   6.664
 4164POPC   C3A54893  11.365  21.455   6.973
 4164POPC   C4A54894  11.352  21.539   7.432
 4164POPC   C1B54895  11.301  21.248   6.267
 4164POPC   C2B54896  11.460  21.073   6.634
 4164POPC   C3B54897  11.647  20.919   7.001
 4164POPC   C4B54898  11.576  21.099   7.355
 4165POPC   NC354899  37.388   8.911   5.344
 4165POPC   PO454900  37.987   9.065   5.476
 4165POPC   GL154901  37.680   8.889   5.824
 4165POPC   GL254902  37.360   8.652   5.777
 4165POPC   C1A54903  37.714   8.922   6.302
 4165POPC   D2A54904  37.863   8.786   6.718
 4165POPC   C3A54905  37.717   9.091   6.961
 4165POPC   C4A54906  37.546   9.214   7.364
 4165POPC   C1B54907  37.462   8.510   6.185
 4165POPC   C2B54908  37.387   8.657   6.622
 4165POPC   C3B54909  37.445   8.693   7.086
 4165POPC   C4B54910  37.170   8.837   7.455
 4166POPC   NC354911   2.338   2.359   5.470
 4166POPC   PO454912   2.901   2.052   5.233
 4166POPC   GL154913   2.748   2.083   5.737
 4166POPC   GL254914   2.506   1.941   5.970
 4166POPC   C1A54915   2.944   1.923   6.204
 4166POPC   D2A54916   2.923   1.659   6.630
 4166POPC   C3A54917   2.776   1.813   7.075
 4166POPC   C4A54918   2.779   2.238   7.293
 4166POPC   C1B54919   2.309   1.771   6.311
 4166POPC   C2B54920   2.411   1.726   6.714
 4166POPC   C3B54921   2.236   1.701   7.077
 4166POPC   C4B54922   2.338   1.939   7.411
 4167POPC   NC354923  13.049  28.580   5.435
 4167POPC   PO454924  12.518  28.162   5.654
 4167POPC   GL154925  12.833  28.384   5.864
 4167POPC   GL254926  12.778  28.748   5.828
 4167POPC   C1A54927  12.834  28.420   6.312
 4167POPC   D2A54928  12.666  28.269   6.691
 4167POPC   C3A54929  12.734  28.555   7.018
 4167POPC   C4A54930  12.554  28.474   7.410
 4167POPC   C1B54931  13.116  28.784   6.105
 4167POPC   C2B54932  13.068  28.822   6.569
 4167POPC   C3B54933  13.204  28.778   7.020
 4167POPC   C4B54934  13.077  28.625   7.422
 4168POPC   NC354935   6.057   9.876   5.427
 4168POPC   PO454936   5.575   9.483   5.508
 4168POPC   GL154937   5.801   9.669   5.852
 4168POPC   GL254938   6.183   9.586   5.845
 4168POPC   C1A54939   5.726   9.775   6.287
 4168POPC   D2A54940   5.554   9.859   6.707
 4168POPC   C3A54941   5.831   9.757   7.046
 4168POPC   C4A54942   6.161   9.923   7.201
 4168POPC   C1B54943   6.037   9.353   6.213
 4168POPC   C2B54944   5.971   9.467   6.641
 4168POPC   C3B54945   6.160   9.372   7.019
 4168POPC   C4B54946   6.082   9.467   7.453
 4169POPC   NC354947  34.816  27.072   5.517
 4169POPC   PO454948  34.680  26.448   5.198
 4169POPC   GL154949  34.442  26.630   5.637
 4169POPC   GL254950  34.326  26.972   5.738
 4169POPC   C1A54951  34.476  26.626   6.118
 4169POPC   D2A54952  34.397  26.551   6.543
 4169POPC   C3A54953  34.532  26.787   6.903
 4169POPC   C4A54954  34.827  26.622   7.195
 4169POPC   C1B54955  34.483  27.153   6.130
 4169POPC   C2B54956  34.728  26.949   6.446
 4169POPC   C3B54957  35.000  26.989   6.769
 4169POPC   C4B54958  34.914  27.132   7.166
 4170POPC   NC354959  16.787   4.953   5.476
 4170POPC   PO454960  16.344   5.637   5.376
 4170POPC   GL154961  16.492   5.318   5.681
 4170POPC   GL254962  16.824   5.402   5.765
 4170POPC   C1A54963  16.554   5.195   6.150
 4170POPC   D2A54964  16.498   5.058   6.573
 4170POPC   C3A54965  16.704   5.277   6.874
 4170POPC   C4A54966  16.799   5.145   7.239
 4170POPC   C1B54967  16.973   5.487   6.190
 4170POPC   C2B54968  17.068   5.174   6.517
 4170POPC   C3B54969  17.223   5.075   6.938
 4170POPC   C4B54970  17.417   5.323   7.266
 4171POPC   NC354971  37.566  44.287   5.338
 4171POPC   PO454972  37.598  43.617   5.234
 4171POPC   GL154973  37.628  43.861   5.670
 4171POPC   GL254974  37.394  44.113   5.794
 4171POPC   C1A54975  37.702  43.871   6.154
 4171POPC   D2A54976  37.753  43.968   6.618
 4171POPC   C3A54977  37.674  43.644   6.981
 4171POPC   C4A54978  37.838  43.657   7.418
 4171POPC   C1B54979  37.202  44.042   6.168
 4171POPC   C2B54980  37.257  43.783   6.520
 4171POPC   C3B54981  37.297  44.006   6.894
 4171POPC   C4B54982  37.523  44.058   7.267
 4172POPC   NC354983  42.780  27.765   5.644
 4172POPC   PO454984  43.512  27.525   5.432
 4172POPC   GL154985  43.234  27.530   5.797
 4172POPC   GL254986  43.313  27.843   5.925
 4172POPC   C1A54987  42.976  27.507   6.212
 4172POPC   D2A54988  42.754  27.419   6.621
 4172POPC   C3A54989  43.030  27.410   7.000
 4172POPC   C4A54990  43.379  27.306   7.305
 4172POPC   C1B54991  43.123  27.997   6.279
 4172POPC   C2B54992  42.864  27.920   6.657
 4172POPC   C3B54993  42.906  27.923   7.112
 4172POPC   C4B54994  43.271  27.980   7.431
 4173POPC   NC354995  29.566  20.487   5.241
 4173POPC   PO454996  28.878  20.623   5.289
 4173POPC   GL154997  29.175  20.534   5.629
 4173POPC   GL254998  29.460  20.745   5.701
 4173POPC   C1A54999  29.233  20.318   6.037
 4173POPC   D2A55000  29.109  20.356   6.481
 4173POPC   C3A55001  29.306  20.485   6.847
 4173POPC   C4A55002  29.107  20.521   7.222
 4173POPC   C1B55003  29.293  20.822   6.116
 4173POPC   C2B55004  29.193  20.865   6.533
 4173POPC   C3B55005  29.084  20.952   6.938
 4173POPC   C4B55006  29.312  20.996   7.284
 4174POPC   NC355007   2.102  20.983   5.470
 4174POPC   PO455008   2.250  21.681   5.523
 4174POPC   GL155009   2.176  21.413   5.867
 4174POPC   GL255010   1.871  21.244   5.875
 4174POPC   C1A55011   2.185  21.257   6.300
 4174POPC   D2A55012   2.075  21.510   6.658
 4174POPC   C3A55013   2.167  21.423   7.097
 4174POPC   C4A55014   2.000  21.685   7.441
 4174POPC   C1B55015   1.681  21.143   6.319
 4174POPC   C2B55016   1.669  21.227   6.788
 4174POPC   C3B55017   1.689  21.334   7.227
 4174POPC   C4B55018   1.859  21.175   7.600
 4175POPC   NC355019  28.916  43.219   5.204
 4175POPC   PO455020  29.218  42.681   5.465
 4175POPC   GL155021  29.198  43.099   5.640
 4175POPC   GL255022  28.864  43.158   5.722
 4175POPC   C1A55023  29.226  43.170   6.094
 4175POPC   D2A55024  29.485  43.123   6.479
 4175POPC   C3A55025  29.272  42.957   6.843
 4175POPC   C4A55026  29.115  42.903   7.257
 4175POPC   C1B55027  28.709  43.026   6.124
 4175POPC   C2B55028  28.891  43.057   6.514
 4175POPC   C3B55029  28.778  43.152   6.935
 4175POPC   C4B55030  28.870  43.328   7.364
 4176POPC   NC355031   2.618  37.413   5.498
 4176POPC   PO455032   3.135  37.678   5.824
 4176POPC   GL155033   2.707  37.727   5.915
 4176POPC   GL255034   2.484  37.411   5.974
 4176POPC   C1A55035   2.526  37.968   6.240
 4176POPC   D2A55036   2.766  37.938   6.596
 4176POPC   C3A55037   2.650  38.024   6.993
 4176POPC   C4A55038   2.928  37.699   7.153
 4176POPC   C1B55039   2.589  37.476   6.375
 4176POPC   C2B55040   2.624  37.466   6.805
 4176POPC   C3B55041   2.381  37.602   7.153
 4176POPC   C4B55042   2.222  37.554   7.567
 4177POPC   NC355043  19.370  18.635   5.452
 4177POPC   PO455044  19.182  17.886   5.362
 4177POPC   GL155045  19.313  18.051   5.767
 4177POPC   GL255046  19.079  18.330   5.765
 4177POPC   C1A55047  19.149  18.059   6.206
 4177POPC   D2A55048  18.951  18.296   6.571
 4177POPC   C3A55049  18.983  18.100   6.982
 4177POPC   C4A55050  19.300  18.194   7.291
 4177POPC   C1B55051  19.222  18.566   6.128
 4177POPC   C2B55052  19.209  18.797   6.521
 4177POPC   C3B55053  19.245  18.597   6.921
 4177POPC   C4B55054  18.935  18.558   7.209
 4178POPC   NC355055  27.774   2.777   5.454
 4178POPC   PO455056  27.068   2.915   5.389
 4178POPC   GL155057  27.382   2.753   5.774
 4178POPC   GL255058  27.676   2.978   5.893
 4178POPC   C1A55059  27.423   2.686   6.254
 4178POPC   D2A55060  27.319   2.811   6.672
 4178POPC   C3A55061  27.608   2.724   7.023
 4178POPC   C4A55062  27.546   2.728   7.489
 4178POPC   C1B55063  27.884   3.124   6.235
 4178POPC   C2B55064  27.943   2.902   6.621
 4178POPC   C3B55065  28.047   3.037   7.037
 4178POPC   C4B55066  27.893   3.100   7.447
 4179POPC   NC355067   1.742   7.934   5.516
 4179POPC   PO455068   2.385   8.023   5.433
 4179POPC   GL155069   2.158   8.147   5.799
 4179POPC   GL255070   1.828   8.231   5.928
 4179POPC   C1A55071   2.229   8.068   6.231
 4179POPC   D2A55072   2.112   7.865   6.626
 4179POPC   C3A55073   2.187   8.027   7.058
 4179POPC   C4A55074   2.169   8.302   7.422
 4179POPC   C1B55075   1.765   8.200   6.376
 4179POPC   C2B55076   1.846   8.310   6.798
 4179POPC   C3B55077   1.702   8.169   7.192
 4179POPC   C4B55078   1.342   8.084   7.472
 4180POPC   NC355079  21.124   7.157   5.060
 4180POPC   PO455080  21.472   7.562   5.486
 4180POPC   GL155081  21.601   7.461   5.899
 4180POPC   GL255082  21.677   7.119   5.947
 4180POPC   C1A55083  21.481   7.602   6.319
 4180POPC   D2A55084  21.160   7.612   6.633
 4180POPC   C3A55085  21.263   7.581   7.075
 4180POPC   C4A55086  21.638   7.665   7.309
 4180POPC   C1B55087  21.373   7.098   6.306
 4180POPC   C2B55088  21.461   7.194   6.742
 4180POPC   C3B55089  21.474   7.149   7.186
 4180POPC   C4B55090  21.130   7.139   7.466
 4181POPC   NC355091  20.123  29.022   5.466
 4181POPC   PO455092  19.494  29.206   5.357
 4181POPC   GL155093  19.662  29.338   5.733
 4181POPC   GL255094  19.669  28.980   5.807
 4181POPC   C1A55095  19.750  29.312   6.195
 4181POPC   D2A55096  19.893  29.059   6.565
 4181POPC   C3A55097  19.910  29.155   7.006
 4181POPC   C4A55098  19.908  29.504   7.271
 4181POPC   C1B55099  19.775  28.732   6.177
 4181POPC   C2B55100  19.755  28.574   6.612
 4181POPC   C3B55101  19.512  28.861   6.859
 4181POPC   C4B55102  19.400  28.986   7.249
 4182POPC   NC355103   0.010   4.724   5.426
 4182POPC   PO455104  44.559   4.228   5.278
 4182POPC   GL155105  44.615   4.298   5.717
 4182POPC   GL255106  44.808   4.020   5.818
 4182POPC   C1A55107  44.689   4.482   6.148
 4182POPC   D2A55108  44.425   4.518   6.545
 4182POPC   C3A55109  44.524   4.264   6.909
 4182POPC   C4A55110  44.797   4.421   7.240
 4182POPC   C1B55111   0.035   4.064   6.196
 4182POPC   C2B55112  44.974   4.204   6.614
 4182POPC   C3B55113  44.971   4.015   6.995
 4182POPC   C4B55114   0.135   4.060   7.391
 4183POPC   NC355115  27.061  11.036   5.479
 4183POPC   PO455116  26.531  11.176   5.486
 4183POPC   GL155117  26.717  11.326   5.915
 4183POPC   GL255118  27.080  11.354   5.905
 4183POPC   C1A55119  26.694  11.574   6.352
 4183POPC   D2A55120  26.565  11.694   6.815
 4183POPC   C3A55121  26.632  11.373   7.178
 4183POPC   C4A55122  26.875  11.079   7.464
 4183POPC   C1B55123  27.029  11.187   6.334
 4183POPC   C2B55124  26.896  11.297   6.758
 4183POPC   C3B55125  27.147  11.403   7.154
 4183POPC   C4B55126  27.225  11.415   7.642
 4184POPC   NC355127  19.152  35.832   5.607
 4184POPC   PO455128  19.215  35.306   5.222
 4184POPC   GL155129  19.144  35.198   5.688
 4184POPC   GL255130  18.931  35.464   5.874
 4184POPC   C1A55131  19.020  35.055   6.130
 4184POPC   D2A55132  18.882  35.265   6.511
 4184POPC   C3A55133  19.060  35.234   6.929
 4184POPC   C4A55134  19.080  34.891   7.224
 4184POPC   C1B55135  18.923  35.695   6.252
 4184POPC   C2B55136  19.063  35.756   6.692
 4184POPC   C3B55137  18.925  35.707   7.118
 4184POPC   C4B55138  18.946  35.414   7.488
 4185POPC   NC355139  24.728  32.549   5.088
 4185POPC   PO455140  24.344  32.103   5.506
 4185POPC   GL155141  24.535  32.322   5.792
 4185POPC   GL255142  24.226  32.463   5.861
 4185POPC   C1A55143  24.515  32.198   6.229
 4185POPC   D2A55144  24.378  32.324   6.605
 4185POPC   C3A55145  24.424  32.128   7.007
 4185POPC   C4A55146  24.711  31.994   7.339
 4185POPC   C1B55147  24.261  32.693   6.238
 4185POPC   C2B55148  23.989  32.687   6.589
 4185POPC   C3B55149  24.003  32.430   6.928
 4185POPC   C4B55150  24.178  32.471   7.316
 4186POPC   NC355151  42.062  15.485   5.364
 4186POPC   PO455152  42.569  15.038   5.487
 4186POPC   GL155153  42.301  15.242   5.793
 4186POPC   GL255154  41.995  15.073   5.926
 4186POPC   C1A55155  42.369  15.167   6.236
 4186POPC   D2A55156  42.422  14.814   6.502
 4186POPC   C3A55157  42.534  14.948   6.913
 4186POPC   C4A55158  42.489  15.378   7.145
 4186POPC   C1B55159  41.894  15.086   6.384
 4186POPC   C2B55160  42.141  15.184   6.715
 4186POPC   C3B55161  42.070  15.100   7.106
 4186POPC   C4B55162  41.865  14.816   7.376
 4187POPC   NC355163  24.771  33.474   5.367
 4187POPC   PO455164  24.377  34.031   5.619
 4187POPC   GL155165  24.603  33.839   5.971
 4187POPC   GL255166  24.827  33.579   5.875
 4187POPC   C1A55167  24.486  33.756   6.410
 4187POPC   D2A55168  24.162  33.611   6.725
 4187POPC   C3A55169  24.137  33.548   7.192
 4187POPC   C4A55170  24.319  33.809   7.564
 4187POPC   C1B55171  24.983  33.538   6.297
 4187POPC   C2B55172  24.822  33.525   6.708
 4187POPC   C3B55173  24.573  33.789   7.025
 4187POPC   C4B55174  24.783  33.963   7.438
 4188POPC   NC355175   5.276  37.391   5.525
 4188POPC   PO455176   5.111  38.040   5.312
 4188POPC   GL155177   5.143  37.852   5.726
 4188POPC   GL255178   4.979  37.568   5.883
 4188POPC   C1A55179   5.104  37.985   6.155
 4188POPC   D2A55180   4.815  37.862   6.514
 4188POPC   C3A55181   4.817  37.874   6.986
 4188POPC   C4A55182   5.038  37.826   7.413
 4188POPC   C1B55183   5.172  37.506   6.299
 4188POPC   C2B55184   5.013  37.375   6.679
 4188POPC   C3B55185   5.132  37.428   7.094
 4188POPC   C4B55186   4.865  37.332   7.442
 4189POPC   NC355187  35.742   0.767   4.912
 4189POPC   PO455188  36.105   0.424   5.346
 4189POPC   GL155189  36.192   0.408   5.771
 4189POPC   GL255190  36.482   0.190   5.793
 4189POPC   C1A55191  35.990   0.484   6.169
 4189POPC   D2A55192  36.036   0.323   6.613
 4189POPC   C3A55193  36.296   0.522   6.862
 4189POPC   C4A55194  36.280   0.697   7.231
 4189POPC   C1B55195  36.393   0.178   6.238
 4189POPC   C2B55196  36.418  44.952   6.608
 4189POPC   C3B55197  36.525   0.072   7.006
 4189POPC   C4B55198  36.315   0.187   7.354
 4190POPC   NC355199   9.406  28.615   5.681
 4190POPC   PO455200   8.888  28.347   5.291
 4190POPC   GL155201   8.898  28.505   5.716
 4190POPC   GL255202   8.562  28.517   5.804
 4190POPC   C1A55203   8.930  28.538   6.189
 4190POPC   D2A55204   9.152  28.227   6.459
 4190POPC   C3A55205   9.351  28.363   6.826
 4190POPC   C4A55206   9.335  28.256   7.230
 4190POPC   C1B55207   8.692  28.137   6.027
 4190POPC   C2B55208   8.660  28.149   6.497
 4190POPC   C3B55209   8.889  28.146   6.906
 4190POPC   C4B55210   8.883  28.507   7.184
 4191POPC   NC355211   0.727  25.619   5.460
 4191POPC   PO455212   0.097  25.440   5.304
 4191POPC   GL155213   0.307  25.163   5.633
 4191POPC   GL255214   0.573  25.249   5.763
 4191POPC   C1A55215   0.203  25.145   6.110
 4191POPC   D2A55216   0.303  25.414   6.481
 4191POPC   C3A55217   0.163  25.259   6.872
 4191POPC   C4A55218   0.358  25.196   7.237
 4191POPC   C1B55219   0.710  25.207   6.169
 4191POPC   C2B55220   0.879  25.429   6.498
 4191POPC   C3B55221   0.723  25.362   6.904
 4191POPC   C4B55222   0.684  25.580   7.297
 4192POPC   NC355223   7.520  12.208   5.410
 4192POPC   PO455224   7.193  11.600   5.429
 4192POPC   GL155225   7.166  11.930   5.734
 4192POPC   GL255226   7.501  11.918   5.855
 4192POPC   C1A55227   7.120  12.180   6.125
 4192POPC   D2A55228   7.267  12.292   6.541
 4192POPC   C3A55229   7.125  12.146   6.945
 4192POPC   C4A55230   7.206  11.821   7.258
 4192POPC   C1B55231   7.640  12.040   6.254
 4192POPC   C2B55232   7.773  12.285   6.631
 4192POPC   C3B55233   7.663  12.052   7.002
 4192POPC   C4B55234   7.715  11.808   7.387
 4193POPC   NC355235   0.860  42.441   5.242
 4193POPC   PO455236   1.462  42.262   5.258
 4193POPC   GL155237   1.194  42.292   5.662
 4193POPC   GL255238   0.995  42.621   5.712
 4193POPC   C1A55239   1.168  42.247   6.135
 4193POPC   D2A55240   1.151  42.509   6.523
 4193POPC   C3A55241   1.177  42.358   6.954
 4193POPC   C4A55242   1.422  42.479   7.332
 4193POPC   C1B55243   0.899  42.749   6.135
 4193POPC   C2B55244   0.765  42.858   6.572
 4193POPC   C3B55245   0.887  42.826   6.990
 4193POPC   C4B55246   0.886  42.580   7.322
 4194POPC   NC355247  16.095  33.307   5.544
 4194POPC   PO455248  15.667  32.834   5.439
 4194POPC   GL155249  15.659  33.143   5.770
 4194POPC   GL255250  15.969  32.942   5.875
 4194POPC   C1A55251  15.718  33.211   6.245
 4194POPC   D2A55252  15.932  32.905   6.548
 4194POPC   C3A55253  15.815  32.778   6.978
 4194POPC   C4A55254  15.800  33.037   7.322
 4194POPC   C1B55255  16.226  33.149   6.189
 4194POPC   C2B55256  16.374  33.141   6.601
 4194POPC   C3B55257  16.170  33.216   6.973
 4194POPC   C4B55258  16.297  33.212   7.390
 4195POPC   NC355259  31.870   8.094   5.378
 4195POPC   PO455260  32.314   8.503   5.169
 4195POPC   GL155261  32.274   8.362   5.676
 4195POPC   GL255262  32.041   8.109   5.840
 4195POPC   C1A55263  32.420   8.259   6.140
 4195POPC   D2A55264  32.290   8.267   6.579
 4195POPC   C3A55265  32.438   7.984   6.908
 4195POPC   C4A55266  32.483   8.319   7.221
 4195POPC   C1B55267  31.899   8.120   6.248
 4195POPC   C2B55268  31.890   7.966   6.676
 4195POPC   C3B55269  31.999   8.182   7.045
 4195POPC   C4B55270  31.843   8.188   7.432
 4196POPC   NC355271  34.313  12.123   5.389
 4196POPC   PO455272  34.691  11.717   5.730
 4196POPC   GL155273  34.309  11.889   5.874
 4196POPC   GL255274  34.369  12.250   5.897
 4196POPC   C1A55275  34.261  11.988   6.310
 4196POPC   D2A55276  34.456  12.149   6.679
 4196POPC   C3A55277  34.461  11.900   7.028
 4196POPC   C4A55278  34.810  11.664   7.113
 4196POPC   C1B55279  34.658  12.376   6.245
 4196POPC   C2B55280  34.842  12.535   6.646
 4196POPC   C3B55281  34.782  12.322   7.052
 4196POPC   C4B55282  34.389  12.376   7.300
 4197POPC   NC355283  31.174  11.140   5.452
 4197POPC   PO455284  30.571  11.386   5.345
 4197POPC   GL155285  30.751  11.281   5.767
 4197POPC   GL255286  31.035  11.493   5.814
 4197POPC   C1A55287  30.527  11.217   6.186
 4197POPC   D2A55288  30.362  11.214   6.623
 4197POPC   C3A55289  30.634  11.234   6.997
 4197POPC   C4A55290  30.715  11.031   7.392
 4197POPC   C1B55291  30.792  11.661   6.152
 4197POPC   C2B55292  30.751  11.527   6.572
 4197POPC   C3B55293  30.796  11.698   6.981
 4197POPC   C4B55294  31.048  11.422   7.227
 4198POPC   NC355295  22.390  35.441   5.330
 4198POPC   PO455296  21.745  35.482   5.317
 4198POPC   GL155297  21.915  35.445   5.750
 4198POPC   GL255298  21.675  35.212   5.868
 4198POPC   C1A55299  22.198  35.262   6.097
 4198POPC   D2A55300  22.187  35.020   6.529
 4198POPC   C3A55301  22.308  35.243   6.929
 4198POPC   C4A55302  22.423  35.414   7.335
 4198POPC   C1B55303  21.744  35.311   6.281
 4198POPC   C2B55304  21.868  35.414   6.655
 4198POPC   C3B55305  21.798  35.195   6.984
 4198POPC   C4B55306  21.940  35.232   7.365
 4199POPC   NC355307  23.365  39.166   5.226
 4199POPC   PO455308  22.700  39.406   5.114
 4199POPC   GL155309  22.914  39.343   5.573
 4199POPC   GL255310  23.004  39.024   5.678
 4199POPC   C1A55311  23.071  39.522   6.016
 4199POPC   D2A55312  23.297  39.385   6.439
 4199POPC   C3A55313  23.193  39.488   6.888
 4199POPC   C4A55314  22.783  39.511   7.115
 4199POPC   C1B55315  22.970  39.025   6.119
 4199POPC   C2B55316  23.072  38.835   6.503
 4199POPC   C3B55317  22.990  38.978   6.928
 4199POPC   C4B55318  22.957  39.086   7.353
 4200POPC   NC355319  31.706  17.290   5.439
 4200POPC   PO455320  31.374  17.920   5.349
 4200POPC   GL155321  31.555  17.697   5.780
 4200POPC   GL255322  31.445  17.356   5.895
 4200POPC   C1A55323  31.704  17.703   6.214
 4200POPC   D2A55324  31.579  17.515   6.608
 4200POPC   C3A55325  31.767  17.601   6.998
 4200POPC   C4A55326  31.622  17.742   7.416
 4200POPC   C1B55327  31.371  17.024   6.229
 4200POPC   C2B55328  31.539  17.004   6.658
 4200POPC   C3B55329  31.424  17.207   7.030
 4200POPC   C4B55330  31.509  17.244   7.445
 4201POPC   NC355331   9.183  42.780   5.441
 4201POPC   PO455332   8.807  42.275   5.248
 4201POPC   GL155333   8.832  42.409   5.704
 4201POPC   GL255334   8.911  42.747   5.884
 4201POPC   C1A55335   8.947  42.244   6.126
 4201POPC   D2A55336   8.921  42.360   6.573
 4201POPC   C3A55337   8.885  42.052   6.890
 4201POPC   C4A55338   9.042  42.224   7.253
 4201POPC   C1B55339   9.175  42.691   6.279
 4201POPC   C2B55340   9.446  42.667   6.675
 4201POPC   C3B55341   9.364  42.654   7.146
 4201POPC   C4B55342   9.355  42.476   7.570
 4202POPC   NC355343   3.042  13.073   5.417
 4202POPC   PO455344   2.885  13.746   5.327
 4202POPC   GL155345   2.854  13.764   5.816
 4202POPC   GL255346   2.661  13.474   5.969
 4202POPC   C1A55347   2.580  13.887   6.200
 4202POPC   D2A55348   2.561  13.573   6.545
 4202POPC   C3A55349   2.639  13.785   6.947
 4202POPC   C4A55350   2.501  13.855   7.334
 4202POPC   C1B55351   3.018  13.434   6.189
 4202POPC   C2B55352   3.172  13.396   6.589
 4202POPC   C3B55353   2.969  13.399   6.939
 4202POPC   C4B55354   3.096  13.715   7.199
 4203POPC   NC355355  31.889   9.715   5.541
 4203POPC   PO455356  31.232   9.770   5.395
 4203POPC   GL155357  31.439   9.713   5.803
 4203POPC   GL255358  31.443   9.411   5.976
 4203POPC   C1A55359  31.536   9.846   6.239
 4203POPC   D2A55360  31.306  10.115   6.522
 4203POPC   C3A55361  31.215   9.970   6.934
 4203POPC   C4A55362  31.475  10.010   7.274
 4203POPC   C1B55363  31.819   9.408   6.179
 4203POPC   C2B55364  31.852   9.543   6.568
 4203POPC   C3B55365  31.654   9.682   6.902
 4203POPC   C4B55366  31.510   9.500   7.253
 4204POPC   NC355367  44.869   0.564   5.487
 4204POPC   PO455368  44.675  44.922   5.385
 4204POPC   GL155369  44.752   0.155   5.769
 4204POPC   GL255370  44.506   0.374   5.821
 4204POPC   C1A55371  44.839   0.229   6.209
 4204POPC   D2A55372  44.588   0.219   6.589
 4204POPC   C3A55373  44.796   0.159   6.953
 4204POPC   C4A55374  44.772   0.381   7.329
 4204POPC   C1B55375  44.407   0.539   6.233
 4204POPC   C2B55376  44.601   0.731   6.584
 4204POPC   C3B55377  44.470   0.584   6.970
 4204POPC   C4B55378  44.366   0.730   7.370
 4205POPC   NC355379  42.571  35.816   5.615
 4205POPC   PO455380  43.064  36.091   5.351
 4205POPC   GL155381  43.219  36.115   5.785
 4205POPC   GL255382  42.941  35.941   5.953
 4205POPC   C1A55383  43.155  36.338   6.198
 4205POPC   D2A55384  43.093  36.234   6.633
 4205POPC   C3A55385  43.173  36.534   6.926
 4205POPC   C4A55386  43.304  36.455   7.301
 4205POPC   C1B55387  42.742  35.663   6.263
 4205POPC   C2B55388  42.914  35.527   6.666
 4205POPC   C3B55389  43.089  35.812   6.964
 4205POPC   C4B55390  42.860  36.188   7.128
 4206POPC   NC355391  28.374  40.676   5.361
 4206POPC   PO455392  28.355  41.316   5.539
 4206POPC   GL155393  28.349  40.935   5.821
 4206POPC   GL255394  28.518  40.571   5.844
 4206POPC   C1A55395  28.414  40.859   6.251
 4206POPC   D2A55396  28.592  40.861   6.649
 4206POPC   C3A55397  28.283  40.943   6.972
 4206POPC   C4A55398  28.068  40.800   7.364
 4206POPC   C1B55399  28.726  40.455   6.261
 4206POPC   C2B55400  28.638  40.336   6.721
 4206POPC   C3B55401  28.642  40.599   7.099
 4206POPC   C4B55402  28.601  40.936   7.371
 4207POPC   NC355403  40.440   0.969   5.119
 4207POPC   PO455404  40.090   0.484   5.457
 4207POPC   GL155405  40.088   0.482   5.851
 4207POPC   GL255406  40.424   0.569   5.865
 4207POPC   C1A55407  39.798   0.655   6.138
 4207POPC   D2A55408  39.803   0.454   6.505
 4207POPC   C3A55409  39.740   0.592   6.906
 4207POPC   C4A55410  39.917   0.339   7.227
 4207POPC   C1B55411  40.274   0.766   6.243
 4207POPC   C2B55412  40.057   0.882   6.608
 4207POPC   C3B55413  40.217   0.735   7.011
 4207POPC   C4B55414  40.269   0.870   7.409
 4208POPC   NC355415  41.916  43.607   5.427
 4208POPC   PO455416  42.574  43.871   5.260
 4208POPC   GL155417  42.325  44.001   5.700
 4208POPC   GL255418  42.122  43.706   5.879
 4208POPC   C1A55419  42.193  44.099   6.186
 4208POPC   D2A55420  42.135  43.973   6.635
 4208POPC   C3A55421  42.384  44.098   7.041
 4208POPC   C4A55422  42.087  44.357   7.287
 4208POPC   C1B55423  42.518  43.697   6.095
 4208POPC   C2B55424  42.577  43.724   6.533
 4208POPC   C3B55425  42.362  43.602   6.909
 4208POPC   C4B55426  42.657  43.439   7.155
 4209POPC   NC355427   5.973  15.147   5.396
 4209POPC   PO455428   6.399  15.570   5.626
 4209POPC   GL155429   6.027  15.339   5.871
 4209POPC   GL255430   5.699  15.429   5.767
 4209POPC   C1A55431   5.946  15.208   6.336
 4209POPC   D2A55432   6.049  15.233   6.803
 4209POPC   C3A55433   5.944  14.992   7.215
 4209POPC   C4A55434   6.092  15.154   7.694
 4209POPC   C1B55435   5.638  15.003   5.976
 4209POPC   C2B55436   5.512  14.923   6.403
 4209POPC   C3B55437   5.543  15.090   6.842
 4209POPC   C4B55438   5.529  15.323   7.247
 4210POPC   NC355439  19.936  41.791   5.282
 4210POPC   PO455440  19.892  41.133   5.353
 4210POPC   GL155441  19.982  41.438   5.731
 4210POPC   GL255442  20.134  41.779   5.762
 4210POPC   C1A55443  19.955  41.532   6.184
 4210POPC   D2A55444  19.687  41.386   6.515
 4210POPC   C3A55445  19.822  41.330   6.928
 4210POPC   C4A55446  19.755  41.317   7.369
 4210POPC   C1B55447  20.383  41.844   6.125
 4210POPC   C2B55448  20.306  41.750   6.524
 4210POPC   C3B55449  20.301  41.547   6.880
 4210POPC   C4B55450  20.064  41.674   7.213
 4211POPC   NC355451  34.504  43.883   5.281
 4211POPC   PO455452  35.123  44.130   5.473
 4211POPC   GL155453  34.904  43.865   5.795
 4211POPC   GL255454  34.528  43.816   5.814
 4211POPC   C1A55455  34.810  43.831   6.250
 4211POPC   D2A55456  34.630  43.783   6.638
 4211POPC   C3A55457  34.751  44.021   6.970
 4211POPC   C4A55458  34.885  43.776   7.294
 4211POPC   C1B55459  34.290  43.744   6.227
 4211POPC   C2B55460  34.171  43.563   6.646
 4211POPC   C3B55461  34.248  43.801   7.035
 4211POPC   C4B55462  34.321  44.205   7.251
 4212POPC   NC355463  23.977  42.001   5.449
 4212POPC   PO455464  23.681  42.503   5.126
 4212POPC   GL155465  23.627  42.358   5.572
 4212POPC   GL255466  23.321  42.454   5.666
 4212POPC   C1A55467  23.759  42.290   6.016
 4212POPC   D2A55468  23.699  42.067   6.391
 4212POPC   C3A55469  23.753  42.196   6.799
 4212POPC   C4A55470  23.736  42.337   7.189
 4212POPC   C1B55471  23.304  42.535   6.095
 4212POPC   C2B55472  23.434  42.496   6.525
 4212POPC   C3B55473  23.297  42.513   6.948
 4212POPC   C4B55474  23.280  42.407   7.391
 4213POPC   NC355475  18.175  42.028   5.335
 4213POPC   PO455476  18.003  42.733   5.390
 4213POPC   GL155477  18.222  42.525   5.732
 4213POPC   GL255478  18.518  42.284   5.638
 4213POPC   C1A55479  18.361  42.650   6.160
 4213POPC   D2A55480  18.486  42.704   6.599
 4213POPC   C3A55481  18.221  42.490   6.866
 4213POPC   C4A55482  18.278  42.468   7.276
 4213POPC   C1B55483  18.371  42.138   6.043
 4213POPC   C2B55484  18.519  42.135   6.488
 4213POPC   C3B55485  18.468  42.016   6.930
 4213POPC   C4B55486  18.093  42.000   7.168
 4214POPC   NC355487   7.666  11.402   5.464
 4214POPC   PO455488   8.427  11.256   5.462
 4214POPC   GL155489   8.149  11.331   5.810
 4214POPC   GL255490   7.947  11.623   5.853
 4214POPC   C1A55491   8.108  11.154   6.218
 4214POPC   D2A55492   7.993  11.290   6.629
 4214POPC   C3A55493   8.187  11.056   6.944
 4214POPC   C4A55494   8.085  10.934   7.352
 4214POPC   C1B55495   8.136  11.662   6.246
 4214POPC   C2B55496   7.986  11.798   6.660
 4214POPC   C3B55497   8.045  11.578   7.063
 4214POPC   C4B55498   8.318  11.632   7.418
 4215POPC   NC355499  18.741   3.536   5.400
 4215POPC   PO455500  19.378   3.846   5.364
 4215POPC   GL155501  19.297   3.682   5.814
 4215POPC   GL255502  18.966   3.481   5.849
 4215POPC   C1A55503  19.315   3.389   6.193
 4215POPC   D2A55504  19.208   3.194   6.605
 4215POPC   C3A55505  19.233   3.532   6.901
 4215POPC   C4A55506  19.461   3.670   7.201
 4215POPC   C1B55507  18.823   3.291   6.260
 4215POPC   C2B55508  18.776   3.475   6.689
 4215POPC   C3B55509  18.768   3.484   7.168
 4215POPC   C4B55510  18.615   3.789   7.441
 4216POPC   NC355511  40.444  25.177   5.355
 4216POPC   PO455512  40.981  25.457   5.370
 4216POPC   GL155513  40.683  25.417   5.739
 4216POPC   GL255514  40.570  25.724   5.856
 4216POPC   C1A55515  40.577  25.284   6.183
 4216POPC   D2A55516  40.430  25.294   6.636
 4216POPC   C3A55517  40.817  25.284   6.896
 4216POPC   C4A55518  40.917  25.127   7.308
 4216POPC   C1B55519  40.952  25.681   6.110
 4216POPC   C2B55520  41.102  25.506   6.510
 4216POPC   C3B55521  41.129  25.706   6.913
 4216POPC   C4B55522  40.977  25.692   7.323
 4217POPC   NC355523   2.972  24.211   5.128
 4217POPC   PO455524   2.812  23.669   5.402
 4217POPC   GL155525   2.755  23.385   5.769
 4217POPC   GL255526   2.526  23.570   5.927
 4217POPC   C1A55527   2.819  23.318   6.260
 4217POPC   D2A55528   2.777  23.559   6.656
 4217POPC   C3A55529   2.526  23.540   7.026
 4217POPC   C4A55530   2.650  23.482   7.446
 4217POPC   C1B55531   2.458  23.771   6.315
 4217POPC   C2B55532   2.441  23.972   6.724
 4217POPC   C3B55533   2.696  24.124   7.066
 4217POPC   C4B55534   3.100  24.268   7.261
 4218POPC   NC355535  28.440  17.971   5.444
 4218POPC   PO455536  28.199  17.384   5.393
 4218POPC   GL155537  28.341  17.426   5.809
 4218POPC   GL255538  28.361  17.770   5.927
 4218POPC   C1A55539  28.483  17.352   6.245
 4218POPC   D2A55540  28.721  17.349   6.661
 4218POPC   C3A55541  28.579  17.360   7.087
 4218POPC   C4A55542  28.138  17.384   7.234
 4218POPC   C1B55543  28.225  17.782   6.375
 4218POPC   C2B55544  28.356  17.769   6.837
 4218POPC   C3B55545  28.097  17.913   7.217
 4218POPC   C4B55546  28.039  17.874   7.690
 4219POPC   NC355547   7.854  18.408   5.314
 4219POPC   PO455548   8.423  18.098   5.443
 4219POPC   GL155549   8.277  18.291   5.856
 4219POPC   GL255550   7.928  18.412   5.859
 4219POPC   C1A55551   8.195  18.311   6.341
 4219POPC   D2A55552   8.077  18.337   6.796
 4219POPC   C3A55553   8.432  18.267   7.043
 4219POPC   C4A55554   8.514  18.021   7.358
 4219POPC   C1B55555   7.924  17.996   6.070
 4219POPC   C2B55556   7.863  17.915   6.542
 4219POPC   C3B55557   7.763  17.991   7.005
 4219POPC   C4B55558   8.029  18.206   7.356
 4220POPC   NC355559   4.131  18.611   5.480
 4220POPC   PO455560   3.720  18.158   5.188
 4220POPC   GL155561   3.725  18.044   5.657
 4220POPC   GL255562   3.455  17.830   5.802
 4220POPC   C1A55563   3.759  18.163   6.086
 4220POPC   D2A55564   3.811  18.375   6.489
 4220POPC   C3A55565   3.664  18.202   6.882
 4220POPC   C4A55566   3.691  18.293   7.319
 4220POPC   C1B55567   3.260  18.022   6.165
 4220POPC   C2B55568   3.256  18.264   6.525
 4220POPC   C3B55569   3.198  18.418   6.896
 4220POPC   C4B55570   3.199  18.207   7.243
 4221POPC   NC355571  20.186  18.777   5.379
 4221POPC   PO455572  19.570  19.098   5.390
 4221POPC   GL155573  19.795  19.240   5.753
 4221POPC   GL255574  20.157  19.158   5.775
 4221POPC   C1A55575  19.880  19.340   6.173
 4221POPC   D2A55576  20.024  19.076   6.475
 4221POPC   C3A55577  20.124  19.164   6.878
 4221POPC   C4A55578  20.247  19.141   7.286
 4221POPC   C1B55579  19.924  18.814   6.002
 4221POPC   C2B55580  19.683  18.733   6.343
 4221POPC   C3B55581  19.712  18.757   6.783
 4221POPC   C4B55582  19.724  19.005   7.160
 4222POPC   NC355583  24.875  27.518   5.252
 4222POPC   PO455584  24.921  28.191   5.419
 4222POPC   GL155585  24.718  28.091   5.796
 4222POPC   GL255586  24.430  27.880   5.748
 4222POPC   C1A55587  24.820  27.869   6.177
 4222POPC   D2A55588  25.015  27.897   6.596
 4222POPC   C3A55589  24.781  27.907   6.994
 4222POPC   C4A55590  24.471  27.594   7.153
 4222POPC   C1B55591  24.166  27.715   6.118
 4222POPC   C2B55592  24.008  27.761   6.551
 4222POPC   C3B55593  23.955  27.579   6.954
 4222POPC   C4B55594  24.049  27.348   7.344
 4223POPC   NC355595  24.035  16.495   5.369
 4223POPC   PO455596  23.975  17.102   5.608
 4223POPC   GL155597  23.706  16.918   5.892
 4223POPC   GL255598  23.626  16.577   5.787
 4223POPC   C1A55599  23.502  16.817   6.271
 4223POPC   D2A55600  23.572  16.966   6.683
 4223POPC   C3A55601  23.573  16.877   7.146
 4223POPC   C4A55602  23.439  16.881   7.615
 4223POPC   C1B55603  23.906  16.521   6.189
 4223POPC   C2B55604  23.779  16.473   6.624
 4223POPC   C3B55605  23.952  16.503   7.037
 4223POPC   C4B55606  24.285  16.458   7.361
 4224POPC   NC355607  36.717  33.413   5.436
 4224POPC   PO455608  36.919  34.038   5.304
 4224POPC   GL155609  37.040  33.883   5.754
 4224POPC   GL255610  37.144  33.541   5.774
 4224POPC   C1A55611  37.119  33.866   6.222
 4224POPC   D2A55612  36.862  33.737   6.591
 4224POPC   C3A55613  36.798  33.929   6.992
 4224POPC   C4A55614  36.985  33.794   7.381
 4224POPC   C1B55615  36.887  33.421   6.155
 4224POPC   C2B55616  36.586  33.325   6.485
 4224POPC   C3B55617  36.421  33.549   6.840
 4224POPC   C4B55618  36.522  33.587   7.264
 4225POPC   NC355619   2.929  12.331   5.258
 4225POPC   PO455620   2.539  11.790   5.428
 4225POPC   GL155621   2.734  12.013   5.818
 4225POPC   GL255622   3.006  12.149   5.720
 4225POPC   C1A55623   2.625  12.136   6.235
 4225POPC   D2A55624   2.536  11.917   6.595
 4225POPC   C3A55625   2.394  12.062   6.932
 4225POPC   C4A55626   2.626  12.075   7.294
 4225POPC   C1B55627   3.014  12.413   6.085
 4225POPC   C2B55628   2.906  12.509   6.531
 4225POPC   C3B55629   2.928  12.235   6.918
 4225POPC   C4B55630   3.085  11.863   7.206
 4226POPC   NC355631   2.932   1.598   5.182
 4226POPC   PO455632   2.551   1.012   5.322
 4226POPC   GL155633   2.776   1.208   5.704
 4226POPC   GL255634   2.753   1.573   5.690
 4226POPC   C1A55635   3.069   1.115   6.105
 4226POPC   D2A55636   3.150   1.215   6.515
 4226POPC   C3A55637   3.122   1.058   6.910
 4226POPC   C4A55638   2.962   1.286   7.230
 4226POPC   C1B55639   2.705   1.472   6.142
 4226POPC   C2B55640   2.571   1.291   6.525
 4226POPC   C3B55641   2.501   1.284   6.979
 4226POPC   C4B55642   2.531   1.468   7.417
 4227POPC   NC355643  26.564  42.629   5.451
 4227POPC   PO455644  26.962  42.130   5.459
 4227POPC   GL155645  26.814  42.378   5.837
 4227POPC   GL255646  26.533  42.199   5.783
 4227POPC   C1A55647  26.727  42.559   6.283
 4227POPC   D2A55648  26.793  42.429   6.746
 4227POPC   C3A55649  26.603  42.739   7.051
 4227POPC   C4A55650  26.577  42.764   7.532
 4227POPC   C1B55651  26.367  42.215   6.170
 4227POPC   C2B55652  26.223  42.061   6.547
 4227POPC   C3B55653  26.374  42.158   6.925
 4227POPC   C4B55654  26.458  42.323   7.298
 4228POPC   NC355655   4.592  30.332   5.581
 4228POPC   PO455656   4.660  29.634   5.421
 4228POPC   GL155657   4.414  29.892   5.778
 4228POPC   GL255658   4.027  29.870   5.808
 4228POPC   C1A55659   4.501  30.064   6.197
 4228POPC   D2A55660   4.335  30.200   6.598
 4228POPC   C3A55661   4.441  30.019   6.998
 4228POPC   C4A55662   4.513  30.115   7.434
 4228POPC   C1B55663   3.996  30.133   6.152
 4228POPC   C2B55664   3.880  29.972   6.541
 4228POPC   C3B55665   3.966  29.788   6.931
 4228POPC   C4B55666   4.115  29.789   7.360
 4229POPC   NC355667  32.325  20.947   4.985
 4229POPC   PO455668  32.405  20.386   5.275
 4229POPC   GL155669  32.389  20.414   5.770
 4229POPC   GL255670  32.398  20.790   5.891
 4229POPC   C1A55671  32.146  20.475   6.164
 4229POPC   D2A55672  32.119  20.409   6.578
 4229POPC   C3A55673  31.928  20.744   6.850
 4229POPC   C4A55674  32.056  20.831   7.277
 4229POPC   C1B55675  32.656  20.682   6.216
 4229POPC   C2B55676  32.617  20.778   6.627
 4229POPC   C3B55677  32.500  20.764   7.024
 4229POPC   C4B55678  32.731  20.815   7.373
 4230POPC   NC355679  10.880  41.903   5.410
 4230POPC   PO455680  11.202  42.517   5.237
 4230POPC   GL155681  11.259  42.328   5.694
 4230POPC   GL255682  11.306  41.950   5.723
 4230POPC   C1A55683  11.189  42.290   6.203
 4230POPC   D2A55684  11.009  42.368   6.666
 4230POPC   C3A55685  11.268  42.532   7.052
 4230POPC   C4A55686  11.135  42.553   7.511
 4230POPC   C1B55687  11.075  41.791   6.088
 4230POPC   C2B55688  11.014  41.746   6.512
 4230POPC   C3B55689  11.052  41.898   6.918
 4230POPC   C4B55690  11.309  42.047   7.280
 4231POPC   NC355691  18.775   9.395   5.459
 4231POPC   PO455692  19.388   9.670   5.614
 4231POPC   GL155693  19.030   9.784   5.815
 4231POPC   GL255694  18.954  10.132   5.828
 4231POPC   C1A55695  19.105   9.801   6.245
 4231POPC   D2A55696  18.969   9.623   6.606
 4231POPC   C3A55697  19.166   9.728   6.968
 4231POPC   C4A55698  18.875   9.609   7.282
 4231POPC   C1B55699  18.791  10.190   6.271
 4231POPC   C2B55700  18.988  10.170   6.693
 4231POPC   C3B55701  18.933  10.143   7.155
 4231POPC   C4B55702  19.188   9.952   7.494
 4232POPC   NC355703  21.560   1.007   5.519
 4232POPC   PO455704  21.151   1.481   5.295
 4232POPC   GL155705  21.116   1.231   5.706
 4232POPC   GL255706  21.352   1.308   5.972
 4232POPC   C1A55707  20.969   1.051   6.150
 4232POPC   D2A55708  21.180   1.202   6.550
 4232POPC   C3A55709  21.208   1.071   6.990
 4232POPC   C4A55710  21.419   1.286   7.332
 4232POPC   C1B55711  21.663   1.240   6.308
 4232POPC   C2B55712  21.833   0.941   6.591
 4232POPC   C3B55713  21.697   0.983   6.931
 4232POPC   C4B55714  21.604   1.425   6.882
 4233POPC   NC355715  41.206   0.842   5.506
 4233POPC   PO455716  41.303   1.602   5.535
 4233POPC   GL155717  41.505   1.201   5.783
 4233POPC   GL255718  41.866   1.172   5.825
 4233POPC   C1A55719  41.568   0.879   6.157
 4233POPC   D2A55720  41.579   0.959   6.627
 4233POPC   C3A55721  41.569   1.154   7.034
 4233POPC   C4A55722  41.437   1.546   7.210
 4233POPC   C1B55723  41.750   1.347   6.253
 4233POPC   C2B55724  41.684   1.493   6.683
 4233POPC   C3B55725  41.935   1.599   7.033
 4233POPC   C4B55726  41.868   1.530   7.463
 4234POPC   NC355727  42.833  31.755   5.315
 4234POPC   PO455728  43.308  32.271   5.339
 4234POPC   GL155729  43.334  32.142   5.778
 4234POPC   GL255730  43.514  32.401   5.952
 4234POPC   C1A55731  43.040  32.252   6.135
 4234POPC   D2A55732  42.850  32.436   6.528
 4234POPC   C3A55733  42.934  32.265   6.949
 4234POPC   C4A55734  43.035  32.393   7.385
 4234POPC   C1B55735  43.494  32.085   6.309
 4234POPC   C2B55736  43.396  32.139   6.743
 4234POPC   C3B55737  43.416  32.443   7.071
 4234POPC   C4B55738  43.576  32.336   7.485
 4235POPC   NC355739  11.833  40.265   5.401
 4235POPC   PO455740  12.219  39.705   5.395
 4235POPC   GL155741  12.059  39.975   5.776
 4235POPC   GL255742  11.799  40.238   5.908
 4235POPC   C1A55743  11.854  39.828   6.195
 4235POPC   D2A55744  12.077  39.909   6.587
 4235POPC   C3A55745  11.982  39.839   7.008
 4235POPC   C4A55746  12.263  39.947   7.376
 4235POPC   C1B55747  11.810  40.307   6.376
 4235POPC   C2B55748  11.852  40.311   6.822
 4235POPC   C3B55749  11.880  40.267   7.268
 4235POPC   C4B55750  11.928  40.132   7.729
 4236POPC   NC355751  35.136  28.501   5.334
 4236POPC   PO455752  35.499  27.940   5.381
 4236POPC   GL155753  35.251  28.204   5.732
 4236POPC   GL255754  35.310  28.540   5.815
 4236POPC   C1A55755  35.075  28.289   6.180
 4236POPC   D2A55756  35.345  28.307   6.565
 4236POPC   C3A55757  35.172  28.342   6.964
 4236POPC   C4A55758  34.937  28.189   7.313
 4236POPC   C1B55759  35.629  28.397   6.135
 4236POPC   C2B55760  35.804  28.527   6.561
 4236POPC   C3B55761  35.659  28.544   7.003
 4236POPC   C4B55762  35.566  28.597   7.493
 4237POPC   NC355763  40.559  17.800   5.415
 4237POPC   PO455764  41.061  17.567   5.371
 4237POPC   GL155765  40.930  17.655   5.816
 4237POPC   GL255766  40.574  17.708   5.933
 4237POPC   C1A55767  40.962  17.731   6.276
 4237POPC   D2A55768  40.758  17.664   6.680
 4237POPC   C3A55769  40.965  17.387   6.969
 4237POPC   C4A55770  41.198  17.588   7.286
 4237POPC   C1B55771  40.552  17.391   6.294
 4237POPC   C2B55772  40.483  17.244   6.755
 4237POPC   C3B55773  40.497  17.446   7.164
 4237POPC   C4B55774  40.364  17.715   7.476
 4238POPC   NC355775  35.096  36.571   5.101
 4238POPC   PO455776  35.712  36.921   5.258
 4238POPC   GL155777  35.446  36.936   5.697
 4238POPC   GL255778  35.114  36.760   5.796
 4238POPC   C1A55779  35.422  36.786   6.174
 4238POPC   D2A55780  35.203  36.769   6.559
 4238POPC   C3A55781  35.434  36.894   6.910
 4238POPC   C4A55782  35.321  36.892   7.353
 4238POPC   C1B55783  35.016  36.450   6.148
 4238POPC   C2B55784  35.072  36.275   6.564
 4238POPC   C3B55785  35.130  36.444   6.982
 4238POPC   C4B55786  34.850  36.695   7.216
 4239POPC   NC355787  41.620  37.507   5.439
 4239POPC   PO455788  40.995  37.749   5.547
 4239POPC   GL155789  41.272  37.811   5.857
 4239POPC   GL255790  41.402  37.494   5.914
 4239POPC   C1A55791  41.256  37.839   6.290
 4239POPC   D2A55792  41.400  37.587   6.608
 4239POPC   C3A55793  41.472  37.746   7.014
 4239POPC   C4A55794  41.395  37.446   7.328
 4239POPC   C1B55795  41.714  37.642   6.180
 4239POPC   C2B55796  41.954  37.647   6.538
 4239POPC   C3B55797  41.998  37.735   6.961
 4239POPC   C4B55798  41.840  37.713   7.400
 4240POPC   NC355799  27.734  13.650   5.007
 4240POPC   PO455800  27.235  13.411   5.496
 4240POPC   GL155801  27.425  13.644   5.833
 4240POPC   GL255802  27.761  13.648   5.855
 4240POPC   C1A55803  27.367  13.814   6.234
 4240POPC   D2A55804  27.083  13.903   6.577
 4240POPC   C3A55805  27.331  13.877   6.965
 4240POPC   C4A55806  27.783  13.876   7.081
 4240POPC   C1B55807  27.740  13.411   6.275
 4240POPC   C2B55808  27.868  13.474   6.733
 4240POPC   C3B55809  27.956  13.404   7.185
 4240POPC   C4B55810  27.940  13.249   7.621
 4241POPC   NC355811  37.603   2.181   5.449
 4241POPC   PO455812  37.878   1.619   5.601
 4241POPC   GL155813  37.629   1.644   5.953
 4241POPC   GL255814  37.567   1.980   5.919
 4241POPC   C1A55815  37.582   1.720   6.388
 4241POPC   D2A55816  37.770   2.004   6.686
 4241POPC   C3A55817  37.752   1.840   7.083
 4241POPC   C4A55818  37.744   1.687   7.495
 4241POPC   C1B55819  37.325   2.180   6.215
 4241POPC   C2B55820  37.356   2.316   6.636
 4241POPC   C3B55821  37.276   2.150   7.033
 4241POPC   C4B55822  37.268   1.747   7.218
 4242POPC   NC355823  14.908  44.365   5.538
 4242POPC   PO455824  15.394  44.850   5.618
 4242POPC   GL155825  15.306  44.584   6.001
 4242POPC   GL255826  15.430  44.234   6.055
 4242POPC   C1A55827  15.251  44.622   6.473
 4242POPC   D2A55828  15.249  44.548   6.927
 4242POPC   C3A55829  15.146  44.871   7.213
 4242POPC   C4A55830  14.904   0.233   7.303
 4242POPC   C1B55831  14.990  44.233   6.265
 4242POPC   C2B55832  14.812  44.393   6.681
 4242POPC   C3B55833  14.805  44.378   7.149
 4242POPC   C4B55834  15.161  44.438   7.465
 4243POPC   NC355835   5.561   2.529   5.596
 4243POPC   PO455836   5.016   3.036   5.415
 4243POPC   GL155837   5.098   2.958   5.838
 4243POPC   GL255838   5.453   3.032   5.771
 4243POPC   C1A55839   4.965   2.898   6.285
 4243POPC   D2A55840   5.131   2.687   6.663
 4243POPC   C3A55841   4.995   2.796   7.113
 4243POPC   C4A55842   4.808   3.168   7.311
 4243POPC   C1B55843   5.453   2.827   6.190
 4243POPC   C2B55844   5.556   2.992   6.577
 4243POPC   C3B55845   5.498   2.853   6.988
 4243POPC   C4B55846   5.455   2.956   7.389
 4244POPC   NC355847  27.109  24.535   5.554
 4244POPC   PO455848  27.731  24.716   5.532
 4244POPC   GL155849  27.761  24.615   5.945
 4244POPC   GL255850  27.538  24.341   5.881
 4244POPC   C1A55851  27.748  24.692   6.395
 4244POPC   D2A55852  28.007  24.527   6.676
 4244POPC   C3A55853  27.884  24.342   7.033
 4244POPC   C4A55854  27.494  24.410   7.242
 4244POPC   C1B55855  27.595  24.218   6.317
 4244POPC   C2B55856  27.474  24.182   6.762
 4244POPC   C3B55857  27.579  23.927   7.160
 4244POPC   C4B55858  27.484  24.053   7.624
 4245POPC   NC355859   2.894  31.546   5.522
 4245POPC   PO455860   2.311  31.759   5.550
 4245POPC   GL155861   2.564  31.697   5.910
 4245POPC   GL255862   2.724  31.376   5.999
 4245POPC   C1A55863   2.651  31.767   6.330
 4245POPC   D2A55864   2.612  31.401   6.550
 4245POPC   C3A55865   2.519  31.494   6.923
 4245POPC   C4A55866   2.790  31.605   7.191
 4245POPC   C1B55867   2.961  31.106   6.314
 4245POPC   C2B55868   3.055  31.184   6.771
 4245POPC   C3B55869   2.936  31.098   7.196
 4245POPC   C4B55870   2.850  30.992   7.640
 4246POPC   NC355871   6.888   1.527   5.107
 4246POPC   PO455872   6.347   1.358   5.424
 4246POPC   GL155873   6.607   1.094   5.714
 4246POPC   GL255874   6.768   0.773   5.611
 4246POPC   C1A55875   6.659   1.212   6.155
 4246POPC   D2A55876   6.461   1.243   6.569
 4246POPC   C3A55877   6.470   1.514   6.899
 4246POPC   C4A55878   6.760   1.468   7.232
 4246POPC   C1B55879   6.730   0.717   6.077
 4246POPC   C2B55880   6.702   0.797   6.529
 4246POPC   C3B55881   6.709   1.004   6.944
 4246POPC   C4B55882   6.831   0.710   7.236
 4247POPC   NC355883  25.486  37.923   5.451
 4247POPC   PO455884  25.156  37.354   5.446
 4247POPC   GL155885  25.189  37.644   5.765
 4247POPC   GL255886  25.515  37.521   5.798
 4247POPC   C1A55887  25.346  37.841   6.150
 4247POPC   D2A55888  25.221  37.652   6.520
 4247POPC   C3A55889  25.193  37.910   6.877
 4247POPC   C4A55890  25.083  37.754   7.267
 4247POPC   C1B55891  25.496  37.317   6.181
 4247POPC   C2B55892  25.664  37.358   6.578
 4247POPC   C3B55893  25.669  37.701   6.807
 4247POPC   C4B55894  25.593  37.776   7.224
 4248POPC   NC355895  22.855  28.125   5.424
 4248POPC   PO455896  23.156  28.684   5.306
 4248POPC   GL155897  22.962  28.615   5.737
 4248POPC   GL255898  22.830  28.286   5.887
 4248POPC   C1A55899  23.032  28.612   6.206
 4248POPC   D2A55900  22.758  28.514   6.572
 4248POPC   C3A55901  22.996  28.481   6.966
 4248POPC   C4A55902  23.136  28.189   7.241
 4248POPC   C1B55903  22.781  28.091   6.261
 4248POPC   C2B55904  22.543  27.956   6.602
 4248POPC   C3B55905  22.675  28.030   7.007
 4248POPC   C4B55906  22.638  28.251   7.364
 4249POPC   NC355907  32.165  37.751   5.324
 4249POPC   PO455908  32.815  37.889   5.539
 4249POPC   GL155909  32.608  37.626   5.837
 4249POPC   GL255910  32.230  37.650   5.812
 4249POPC   C1A55911  32.585  37.709   6.286
 4249POPC   D2A55912  32.523  37.472   6.654
 4249POPC   C3A55913  32.515  37.676   7.045
 4249POPC   C4A55914  32.736  38.023   7.169
 4249POPC   C1B55915  31.993  37.633   6.170
 4249POPC   C2B55916  32.116  37.764   6.549
 4249POPC   C3B55917  32.038  37.626   6.941
 4249POPC   C4B55918  31.846  37.828   7.244
 4250POPC   NC355919  16.780  32.713   5.648
 4250POPC   PO455920  16.391  32.163   5.596
 4250POPC   GL155921  16.795  32.209   5.802
 4250POPC   GL255922  16.799  32.493   6.087
 4250POPC   C1A55923  17.075  32.086   6.109
 4250POPC   D2A55924  17.102  32.359   6.471
 4250POPC   C3A55925  16.894  32.303   6.806
 4250POPC   C4A55926  16.779  32.584   7.141
 4250POPC   C1B55927  16.588  32.147   6.282
 4250POPC   C2B55928  16.419  32.032   6.657
 4250POPC   C3B55929  16.448  32.213   7.028
 4250POPC   C4B55930  16.796  31.961   7.167
 4251POPC   NC355931  32.428  34.710   5.341
 4251POPC   PO455932  31.867  34.727   5.664
 4251POPC   GL155933  32.239  34.609   5.861
 4251POPC   GL255934  32.492  34.855   5.830
 4251POPC   C1A55935  32.174  34.520   6.301
 4251POPC   D2A55936  31.877  34.375   6.610
 4251POPC   C3A55937  32.055  34.493   6.992
 4251POPC   C4A55938  32.080  34.573   7.451
 4251POPC   C1B55939  32.643  34.743   6.231
 4251POPC   C2B55940  32.632  34.857   6.666
 4251POPC   C3B55941  32.569  34.684   7.066
 4251POPC   C4B55942  32.521  34.862   7.476
 4252POPC   NC355943  36.009  39.210   5.070
 4252POPC   PO455944  36.418  39.430   5.564
 4252POPC   GL155945  36.344  39.288   5.957
 4252POPC   GL255946  36.236  38.949   5.868
 4252POPC   C1A55947  36.082  39.173   6.322
 4252POPC   D2A55948  36.063  39.108   6.764
 4252POPC   C3A55949  36.225  39.423   7.011
 4252POPC   C4A55950  35.914  39.451   7.305
 4252POPC   C1B55951  36.525  38.897   6.219
 4252POPC   C2B55952  36.490  38.847   6.619
 4252POPC   C3B55953  36.488  38.960   7.020
 4252POPC   C4B55954  36.203  38.990   7.287
 4253POPC   NC355955  17.653   7.371   5.463
 4253POPC   PO455956  17.436   7.950   5.259
 4253POPC   GL155957  17.518   7.779   5.744
 4253POPC   GL255958  17.768   7.878   5.964
 4253POPC   C1A55959  17.447   7.472   6.142
 4253POPC   D2A55960  17.221   7.248   6.523
 4253POPC   C3A55961  17.392   7.210   6.956
 4253POPC   C4A55962  17.522   7.326   7.380
 4253POPC   C1B55963  17.403   7.962   6.251
 4253POPC   C2B55964  17.156   7.747   6.570
 4253POPC   C3B55965  17.327   7.714   6.978
 4253POPC   C4B55966  17.269   7.950   7.301
 4254POPC   NC355967  17.819  26.108   5.116
 4254POPC   PO455968  17.341  25.738   5.440
 4254POPC   GL155969  17.505  25.851   5.843
 4254POPC   GL255970  17.770  26.028   5.762
 4254POPC   C1A55971  17.636  25.961   6.295
 4254POPC   D2A55972  17.576  26.195   6.684
 4254POPC   C3A55973  17.489  25.914   7.048
 4254POPC   C4A55974  17.498  25.986   7.478
 4254POPC   C1B55975  17.919  26.331   6.096
 4254POPC   C2B55976  17.969  26.507   6.473
 4254POPC   C3B55977  17.934  26.491   6.887
 4254POPC   C4B55978  17.847  26.262   7.235
 4255POPC   NC355979   1.836  41.186   5.364
 4255POPC   PO455980   2.040  41.834   5.345
 4255POPC   GL155981   2.023  41.612   5.794
 4255POPC   GL255982   1.812  41.304   5.845
 4255POPC   C1A55983   2.259  41.459   6.198
 4255POPC   D2A55984   2.205  41.459   6.677
 4255POPC   C3A55985   1.964  41.710   6.958
 4255POPC   C4A55986   2.168  41.763   7.360
 4255POPC   C1B55987   1.774  41.358   6.262
 4255POPC   C2B55988   1.911  41.071   6.567
 4255POPC   C3B55989   1.811  41.174   6.966
 4255POPC   C4B55990   1.640  41.456   7.274
 4256POPC   NC355991   5.479   6.474   5.473
 4256POPC   PO455992   4.892   6.391   5.345
 4256POPC   GL155993   4.981   6.629   5.764
 4256POPC   GL255994   5.303   6.841   5.820
 4256POPC   C1A55995   5.122   6.553   6.205
 4256POPC   D2A55996   5.223   6.333   6.597
 4256POPC   C3A55997   5.042   6.449   6.969
 4256POPC   C4A55998   5.193   6.500   7.385
 4256POPC   C1B55999   5.320   7.057   6.240
 4256POPC   C2B56000   5.177   6.929   6.647
 4256POPC   C3B56001   5.179   6.928   7.078
 4256POPC   C4B56002   5.341   6.987   7.477
 4257POPC   NC356003  37.628  11.927   4.960
 4257POPC   PO456004  38.073  12.373   5.277
 4257POPC   GL156005  37.982  12.206   5.701
 4257POPC   GL256006  37.907  11.822   5.781
 4257POPC   C1A56007  37.873  12.256   6.134
 4257POPC   D2A56008  37.781  12.096   6.541
 4257POPC   C3A56009  37.726  12.316   6.908
 4257POPC   C4A56010  37.769  12.056   7.231
 4257POPC   C1B56011  37.725  11.684   6.220
 4257POPC   C2B56012  37.426  11.716   6.599
 4257POPC   C3B56013  37.287  11.889   7.015
 4257POPC   C4B56014  37.348  11.842   7.496
 4258POPC   NC356015  20.749  43.709   5.494
 4258POPC   PO456016  20.266  44.102   5.427
 4258POPC   GL156017  20.413  43.978   5.778
 4258POPC   GL256018  20.314  43.613   5.754
 4258POPC   C1A56019  20.609  44.135   6.142
 4258POPC   D2A56020  20.435  44.142   6.541
 4258POPC   C3A56021  20.756  43.939   6.758
 4258POPC   C4A56022  20.725  43.788   7.148
 4258POPC   C1B56023  20.550  43.624   6.122
 4258POPC   C2B56024  20.415  43.616   6.499
 4258POPC   C3B56025  20.334  43.640   6.873
 4258POPC   C4B56026  20.288  43.404   7.204
 4259POPC   NC356027  27.546  29.320   5.035
 4259POPC   PO456028  27.285  29.015   5.578
 4259POPC   GL156029  27.489  29.089   5.944
 4259POPC   GL256030  27.801  29.173   5.903
 4259POPC   C1A56031  27.619  28.971   6.356
 4259POPC   D2A56032  27.384  28.816   6.688
 4259POPC   C3A56033  27.509  28.954   7.028
 4259POPC   C4A56034  27.740  29.142   7.280
 4259POPC   C1B56035  27.968  29.353   6.295
 4259POPC   C2B56036  27.865  29.317   6.774
 4259POPC   C3B56037  28.038  29.519   7.185
 4259POPC   C4B56038  27.905  29.483   7.631
 4260POPC   NC356039  37.411  42.708   5.734
 4260POPC   PO456040  36.889  42.664   5.340
 4260POPC   GL156041  36.944  42.432   5.731
 4260POPC   GL256042  37.001  42.622   6.032
 4260POPC   C1A56043  36.805  42.168   6.099
 4260POPC   D2A56044  36.767  42.387   6.504
 4260POPC   C3A56045  36.823  42.206   6.924
 4260POPC   C4A56046  36.695  42.529   7.240
 4260POPC   C1B56047  37.272  42.394   6.321
 4260POPC   C2B56048  37.301  42.316   6.758
 4260POPC   C3B56049  37.199  42.467   7.137
 4260POPC   C4B56050  37.239  42.872   7.257
 4261POPC   NC356051   7.263  44.947   5.495
 4261POPC   PO456052   7.853  44.612   5.651
 4261POPC   GL156053   7.406  44.638   5.898
 4261POPC   GL256054   7.254  44.971   6.015
 4261POPC   C1A56055   7.249  44.447   6.309
 4261POPC   D2A56056   7.032  44.380   6.743
 4261POPC   C3A56057   7.246  44.424   7.147
 4261POPC   C4A56058   7.381  44.370   7.622
 4261POPC   C1B56059   7.600  44.828   6.315
 4261POPC   C2B56060   7.520  44.648   6.724
 4261POPC   C3B56061   7.451  44.880   7.081
 4261POPC   C4B56062   7.734  44.958   7.423
 4262POPC   NC356063   6.307   0.763   5.384
 4262POPC   PO456064   6.871   0.243   5.443
 4262POPC   GL156065   6.723   0.214   5.820
 4262POPC   GL256066   6.440   0.420   5.801
 4262POPC   C1A56067   6.617   0.221   6.242
 4262POPC   D2A56068   6.391   0.184   6.595
 4262POPC   C3A56069   6.702   0.249   6.917
 4262POPC   C4A56070   6.574   0.294   7.351
 4262POPC   C1B56071   6.250   0.572   6.211
 4262POPC   C2B56072   6.197   0.717   6.616
 4262POPC   C3B56073   6.372   0.620   6.993
 4262POPC   C4B56074   6.348   0.791   7.400
 4263POPC   NC356075  24.116  15.743   5.493
 4263POPC   PO456076  23.533  15.994   5.347
 4263POPC   GL156077  23.717  15.941   5.752
 4263POPC   GL256078  23.965  16.188   5.814
 4263POPC   C1A56079  23.964  15.820   6.162
 4263POPC   D2A56080  23.854  15.567   6.516
 4263POPC   C3A56081  23.915  15.778   6.919
 4263POPC   C4A56082  23.967  16.053   7.284
 4263POPC   C1B56083  23.579  16.156   6.172
 4263POPC   C2B56084  23.497  15.983   6.583
 4263POPC   C3B56085  23.542  16.115   7.019
 4263POPC   C4B56086  23.577  16.422   7.373
 4264POPC   NC356087  40.048  38.096   5.418
 4264POPC   PO456088  40.116  37.410   5.435
 4264POPC   GL156089  39.904  37.619   5.751
 4264POPC   GL256090  40.100  37.903   5.905
 4264POPC   C1A56091  39.766  37.600   6.184
 4264POPC   D2A56092  40.017  37.746   6.526
 4264POPC   C3A56093  39.920  37.851   6.965
 4264POPC   C4A56094  39.777  37.478   7.185
 4264POPC   C1B56095  40.277  37.508   6.115
 4264POPC   C2B56096  40.422  37.421   6.532
 4264POPC   C3B56097  40.247  37.447   6.917
 4264POPC   C4B56098  40.330  37.707   7.253
 4265POPC   NC356099  14.232  10.279   5.509
 4265POPC   PO456100  14.399  10.928   5.323
 4265POPC   GL156101  14.420  10.764   5.778
 4265POPC   GL256102  14.421  10.403   5.938
 4265POPC   C1A56103  14.635  10.754   6.200
 4265POPC   D2A56104  14.534  10.844   6.577
 4265POPC   C3A56105  14.381  10.564   6.838
 4265POPC   C4A56106  14.256  10.582   7.253
 4265POPC   C1B56107  14.369  10.318   6.375
 4265POPC   C2B56108  14.559  10.090   6.721
 4265POPC   C3B56109  14.694  10.268   7.126
 4265POPC   C4B56110  14.563  10.207   7.532
 4266POPC   NC356111  40.604  33.249   5.121
 4266POPC   PO456112  40.509  33.829   5.342
 4266POPC   GL156113  40.562  33.881   5.774
 4266POPC   GL256114  40.291  34.121   5.761
 4266POPC   C1A56115  40.807  33.822   6.190
 4266POPC   D2A56116  41.019  33.682   6.610
 4266POPC   C3A56117  40.817  33.814   7.006
 4266POPC   C4A56118  40.644  33.738   7.407
 4266POPC   C1B56119  40.302  33.931   6.191
 4266POPC   C2B56120  40.455  33.743   6.576
 4266POPC   C3B56121  40.368  34.002   6.889
 4266POPC   C4B56122  40.440  34.197   7.265
 4267POPC   NC356123   7.714  27.522   5.393
 4267POPC   PO456124   8.295  27.792   5.316
 4267POPC   GL156125   8.440  27.782   5.739
 4267POPC   GL256126   8.085  27.684   5.783
 4267POPC   C1A56127   8.329  27.839   6.214
 4267POPC   D2A56128   8.469  27.699   6.619
 4267POPC   C3A56129   8.312  27.699   7.030
 4267POPC   C4A56130   8.007  27.467   7.280
 4267POPC   C1B56131   7.838  27.890   6.102
 4267POPC   C2B56132   7.922  27.877   6.551
 4267POPC   C3B56133   7.836  27.903   6.990
 4267POPC   C4B56134   8.067  27.974   7.369
 4268POPC   NC356135  24.712  35.132   5.453
 4268POPC   PO456136  24.308  35.556   5.438
 4268POPC   GL156137  24.489  35.410   5.812
 4268POPC   GL256138  24.794  35.586   5.702
 4268POPC   C1A56139  24.725  35.329   6.192
 4268POPC   D2A56140  24.749  35.172   6.630
 4268POPC   C3A56141  24.343  35.007   6.810
 4268POPC   C4A56142  24.023  35.018   7.147
 4268POPC   C1B56143  24.872  35.809   6.085
 4268POPC   C2B56144  24.785  35.867   6.549
 4268POPC   C3B56145  24.709  35.671   6.972
 4268POPC   C4B56146  24.650  35.254   7.139
 4269POPC   NC356147  39.932  40.487   5.638
 4269POPC   PO456148  40.285  40.933   5.327
 4269POPC   GL156149  40.066  40.976   5.711
 4269POPC   GL256150  39.703  40.928   5.754
 4269POPC   C1A56151  40.129  40.837   6.142
 4269POPC   D2A56152  40.032  40.704   6.552
 4269POPC   C3A56153  40.317  40.817   6.888
 4269POPC   C4A56154  40.330  40.692   7.324
 4269POPC   C1B56155  39.615  40.719   6.166
 4269POPC   C2B56156  39.523  40.820   6.596
 4269POPC   C3B56157  39.792  40.889   6.959
 4269POPC   C4B56158  39.794  41.152   7.312
 4270POPC   NC356159   9.016  39.355   5.392
 4270POPC   PO456160   8.373  39.494   5.574
 4270POPC   GL156161   8.696  39.186   5.781
 4270POPC   GL256162   9.012  38.949   5.741
 4270POPC   C1A56163   8.814  39.181   6.217
 4270POPC   D2A56164   8.729  39.512   6.533
 4270POPC   C3A56165   8.565  39.354   6.931
 4270POPC   C4A56166   8.734  38.977   7.148
 4270POPC   C1B56167   9.323  39.083   6.112
 4270POPC   C2B56168   9.246  39.365   6.455
 4270POPC   C3B56169   9.084  39.282   6.856
 4270POPC   C4B56170   9.245  39.131   7.224
 4271POPC   NC356171   2.313  43.584   5.510
 4271POPC   PO456172   2.069  43.001   5.241
 4271POPC   GL156173   2.009  43.252   5.739
 4271POPC   GL256174   2.265  43.446   5.982
 4271POPC   C1A56175   1.828  43.329   6.204
 4271POPC   D2A56176   1.773  43.210   6.637
 4271POPC   C3A56177   1.972  42.801   6.788
 4271POPC   C4A56178   1.903  42.587   7.185
 4271POPC   C1B56179   2.242  43.600   6.413
 4271POPC   C2B56180   2.251  43.409   6.826
 4271POPC   C3B56181   1.965  43.202   7.109
 4271POPC   C4B56182   1.658  43.417   7.323
 4272POPC   NC356183  32.611  26.979   5.563
 4272POPC   PO456184  32.172  26.425   5.407
 4272POPC   GL156185  32.198  26.690   5.739
 4272POPC   GL256186  32.493  26.570   5.849
 4272POPC   C1A56187  32.256  26.966   6.098
 4272POPC   D2A56188  32.183  26.958   6.532
 4272POPC   C3A56189  32.499  26.912   6.840
 4272POPC   C4A56190  32.491  26.975   7.286
 4272POPC   C1B56191  32.268  26.480   6.241
 4272POPC   C2B56192  32.222  26.447   6.679
 4272POPC   C3B56193  32.232  26.559   7.102
 4272POPC   C4B56194  32.219  26.618   7.526
 4273POPC   NC356195  14.234  39.773   5.542
 4273POPC   PO456196  14.701  40.042   5.392
 4273POPC   GL156197  14.474  40.187   5.793
 4273POPC   GL256198  14.103  40.227   5.753
 4273POPC   C1A56199  14.606  40.150   6.243
 4273POPC   D2A56200  14.400  40.181   6.643
 4273POPC   C3A56201  14.599  40.092   7.059
 4273POPC   C4A56202  14.356  40.227   7.408
 4273POPC   C1B56203  14.091  40.162   6.199
 4273POPC   C2B56204  13.952  39.949   6.573
 4273POPC   C3B56205  14.114  39.942   7.019
 4273POPC   C4B56206  14.305  39.717   7.406
 4274POPC   NC356207  37.306  40.529   5.537
 4274POPC   PO456208  37.531  39.960   5.286
 4274POPC   GL156209  37.657  39.989   5.728
 4274POPC   GL256210  37.961  40.198   5.806
 4274POPC   C1A56211  37.598  40.173   6.152
 4274POPC   D2A56212  37.798  40.316   6.524
 4274POPC   C3A56213  37.552  40.173   6.866
 4274POPC   C4A56214  37.505  39.781   7.076
 4274POPC   C1B56215  38.012  39.825   6.098
 4274POPC   C2B56216  37.895  39.628   6.488
 4274POPC   C3B56217  37.978  39.819   6.880
 4274POPC   C4B56218  38.280  39.899   7.187
 4275POPC   NC356219  29.365  33.717   5.341
 4275POPC   PO456220  28.659  33.499   5.462
 4275POPC   GL156221  28.989  33.652   5.725
 4275POPC   GL256222  29.226  33.386   5.765
 4275POPC   C1A56223  29.188  33.870   6.102
 4275POPC   D2A56224  29.420  33.904   6.515
 4275POPC   C3A56225  29.206  33.955   6.922
 4275POPC   C4A56226  29.049  33.915   7.361
 4275POPC   C1B56227  29.581  33.476   6.063
 4275POPC   C2B56228  29.608  33.369   6.498
 4275POPC   C3B56229  29.450  33.516   6.867
 4275POPC   C4B56230  29.571  33.739   7.228
 4276POPC   NC356231  18.485  32.432   5.197
 4276POPC   PO456232  17.966  31.978   5.368
 4276POPC   GL156233  18.236  32.210   5.642
 4276POPC   GL256234  18.069  32.509   5.791
 4276POPC   C1A56235  18.458  32.237   6.041
 4276POPC   D2A56236  18.388  32.050   6.454
 4276POPC   C3A56237  18.495  32.210   6.869
 4276POPC   C4A56238  18.439  32.041   7.269
 4276POPC   C1B56239  17.989  32.339   6.235
 4276POPC   C2B56240  18.027  32.338   6.694
 4276POPC   C3B56241  18.048  32.347   7.131
 4276POPC   C4B56242  18.330  32.541   7.416
 4277POPC   NC356243   4.173   7.742   5.287
 4277POPC   PO456244   4.471   7.189   5.447
 4277POPC   GL156245   4.226   7.434   5.733
 4277POPC   GL256246   4.470   7.356   5.967
 4277POPC   C1A56247   4.038   7.620   6.109
 4277POPC   D2A56248   4.333   7.481   6.437
 4277POPC   C3A56249   4.503   7.649   6.781
 4277POPC   C4A56250   4.493   7.566   7.212
 4277POPC   C1B56251   4.313   7.012   6.222
 4277POPC   C2B56252   4.226   6.918   6.621
 4277POPC   C3B56253   4.298   7.183   6.902
 4277POPC   C4B56254   4.399   7.078   7.257
 4278POPC   NC356255  43.918  34.266   5.265
 4278POPC   PO456256  44.090  34.923   4.987
 4278POPC   GL156257  44.166  34.720   5.489
 4278POPC   GL256258  43.933  34.504   5.705
 4278POPC   C1A56259  44.257  34.722   6.006
 4278POPC   D2A56260  44.367  34.585   6.444
 4278POPC   C3A56261  44.093  34.663   6.797
 4278POPC   C4A56262  43.973  34.764   7.222
 4278POPC   C1B56263  43.887  34.339   6.132
 4278POPC   C2B56264  43.795  34.278   6.586
 4278POPC   C3B56265  43.612  34.504   6.936
 4278POPC   C4B56266  43.601  34.444   7.387
 4279POPC   NC356267  23.959  38.394   5.276
 4279POPC   PO456268  23.334  38.639   5.177
 4279POPC   GL156269  23.411  38.485   5.622
 4279POPC   GL256270  23.338  38.135   5.767
 4279POPC   C1A56271  23.646  38.536   6.035
 4279POPC   D2A56272  23.461  38.464   6.472
 4279POPC   C3A56273  23.558  38.444   6.920
 4279POPC   C4A56274  23.874  38.623   7.148
 4279POPC   C1B56275  23.651  38.041   6.106
 4279POPC   C2B56276  23.887  38.144   6.482
 4279POPC   C3B56277  23.828  38.009   6.895
 4279POPC   C4B56278  23.818  38.107   7.311
 4280POPC   NC356279  25.759   2.230   5.440
 4280POPC   PO456280  26.400   1.873   5.506
 4280POPC   GL156281  26.124   1.943   5.803
 4280POPC   GL256282  25.828   2.063   5.928
 4280POPC   C1A56283  26.274   1.942   6.204
 4280POPC   D2A56284  26.460   2.186   6.511
 4280POPC   C3A56285  26.238   2.084   6.839
 4280POPC   C4A56286  26.047   1.951   7.195
 4280POPC   C1B56287  25.810   2.136   6.377
 4280POPC   C2B56288  25.728   2.175   6.820
 4280POPC   C3B56289  25.713   2.362   7.254
 4280POPC   C4B56290  25.552   2.457   7.687
 4281POPC   NC356291  11.326  19.736   5.338
 4281POPC   PO456292  10.832  19.546   5.628
 4281POPC   GL156293  11.203  19.776   5.837
 4281POPC   GL256294  11.192  20.122   5.948
 4281POPC   C1A56295  11.366  19.759   6.254
 4281POPC   D2A56296  11.378  19.984   6.637
 4281POPC   C3A56297  11.350  19.788   7.013
 4281POPC   C4A56298  11.409  19.969   7.396
 4281POPC   C1B56299  10.989  20.132   6.303
 4281POPC   C2B56300  11.070  20.386   6.617
 4281POPC   C3B56301  11.180  20.286   7.038
 4281POPC   C4B56302  11.019  20.291   7.456
 4282POPC   NC356303  40.554   4.074   5.483
 4282POPC   PO456304  40.673   4.689   5.223
 4282POPC   GL156305  40.689   4.516   5.687
 4282POPC   GL256306  40.993   4.274   5.716
 4282POPC   C1A56307  40.666   4.294   6.124
 4282POPC   D2A56308  40.896   4.101   6.513
 4282POPC   C3A56309  40.701   4.227   6.917
 4282POPC   C4A56310  40.599   4.363   7.323
 4282POPC   C1B56311  41.168   4.407   6.138
 4282POPC   C2B56312  41.208   4.516   6.598
 4282POPC   C3B56313  40.970   4.634   7.016
 4282POPC   C4B56314  41.040   4.621   7.474
 4283POPC   NC356315  18.407  18.748   5.442
 4283POPC   PO456316  17.880  19.130   5.444
 4283POPC   GL156317  18.148  18.999   5.800
 4283POPC   GL256318  18.101  18.653   5.855
 4283POPC   C1A56319  18.525  18.959   6.077
 4283POPC   D2A56320  18.560  19.115   6.510
 4283POPC   C3A56321  18.519  18.982   6.951
 4283POPC   C4A56322  18.167  19.100   7.230
 4283POPC   C1B56323  18.311  18.520   6.251
 4283POPC   C2B56324  18.268  18.574   6.702
 4283POPC   C3B56325  18.061  18.618   7.121
 4283POPC   C4B56326  18.008  18.705   7.594
 4284POPC   NC356327  26.540  13.186   5.014
 4284POPC   PO456328  25.996  13.030   5.418
 4284POPC   GL156329  26.226  13.013   5.801
 4284POPC   GL256330  26.268  12.664   5.884
 4284POPC   C1A56331  26.144  13.031   6.257
 4284POPC   D2A56332  26.022  12.787   6.632
 4284POPC   C3A56333  25.794  12.958   7.008
 4284POPC   C4A56334  25.872  13.078   7.447
 4284POPC   C1B56335  26.445  12.582   6.298
 4284POPC   C2B56336  26.452  12.529   6.750
 4284POPC   C3B56337  26.183  12.616   7.098
 4284POPC   C4B56338  26.314  12.847   7.439
 4285POPC   NC356339  33.871   6.115   5.282
 4285POPC   PO456340  33.365   6.343   5.467
 4285POPC   GL156341  33.682   6.268   5.811
 4285POPC   GL256342  34.038   6.152   5.807
 4285POPC   C1A56343  33.650   6.010   6.199
 4285POPC   D2A56344  33.689   5.809   6.627
 4285POPC   C3A56345  33.680   6.043   7.048
 4285POPC   C4A56346  33.915   6.293   7.391
 4285POPC   C1B56347  34.165   6.025   6.271
 4285POPC   C2B56348  34.145   5.998   6.755
 4285POPC   C3B56349  34.144   5.873   7.212
 4285POPC   C4B56350  34.179   5.807   7.681
 4286POPC   NC356351   7.581  29.818   5.416
 4286POPC   PO456352   7.085  29.420   5.539
 4286POPC   GL156353   7.421  29.576   5.842
 4286POPC   GL256354   7.458  29.946   5.886
 4286POPC   C1A56355   7.571  29.600   6.269
 4286POPC   D2A56356   7.368  29.737   6.627
 4286POPC   C3A56357   7.494  29.777   7.045
 4286POPC   C4A56358   7.203  29.893   7.346
 4286POPC   C1B56359   7.621  30.113   6.269
 4286POPC   C2B56360   7.761  30.057   6.696
 4286POPC   C3B56361   7.692  30.245   7.113
 4286POPC   C4B56362   7.634  30.110   7.520
 4287POPC   NC356363  16.081   9.739   5.424
 4287POPC   PO456364  15.701  10.243   5.597
 4287POPC   GL156365  15.773   9.858   5.857
 4287POPC   GL256366  16.054   9.591   5.910
 4287POPC   C1A56367  15.738   9.900   6.303
 4287POPC   D2A56368  15.438  10.051   6.609
 4287POPC   C3A56369  15.629  10.045   7.009
 4287POPC   C4A56370  15.824   9.690   7.236
 4287POPC   C1B56371  16.239   9.984   6.106
 4287POPC   C2B56372  16.374  10.043   6.534
 4287POPC   C3B56373  16.172   9.951   6.936
 4287POPC   C4B56374  16.322   9.809   7.344
 4288POPC   NC356375   7.081  17.123   5.537
 4288POPC   PO456376   7.642  17.485   5.323
 4288POPC   GL156377   7.426  17.455   5.704
 4288POPC   GL256378   7.621  17.281   5.842
 4288POPC   C1A56379   7.207  17.318   6.142
 4288POPC   D2A56380   7.086  17.282   6.592
 4288POPC   C3A56381   7.211  17.570   6.929
 4288POPC   C4A56382   7.204  17.416   7.347
 4288POPC   C1B56383   7.573  17.653   6.137
 4288POPC   C2B56384   7.539  17.523   6.539
 4288POPC   C3B56385   7.732  17.453   6.931
 4288POPC   C4B56386   7.708  17.598   7.340
 4289POPC   NC356387  40.625  37.439   5.515
 4289POPC   PO456388  40.509  38.111   5.575
 4289POPC   GL156389  40.619  37.805   5.879
 4289POPC   GL256390  40.804  37.987   6.129
 4289POPC   C1A56391  40.804  37.512   6.200
 4289POPC   D2A56392  40.865  37.727   6.599
 4289POPC   C3A56393  40.762  37.591   6.999
 4289POPC   C4A56394  40.916  37.606   7.431
 4289POPC   C1B56395  40.441  37.927   6.346
 4289POPC   C2B56396  40.406  37.942   6.793
 4289POPC   C3B56397  40.653  38.122   7.121
 4289POPC   C4B56398  40.701  38.087   7.579
 4290POPC   NC356399  21.083   9.667   5.449
 4290POPC   PO456400  21.760   9.696   5.291
 4290POPC   GL156401  21.561   9.688   5.719
 4290POPC   GL256402  21.429   9.354   5.672
 4290POPC   C1A56403  21.616   9.738   6.192
 4290POPC   D2A56404  21.581   9.470   6.585
 4290POPC   C3A56405  21.509   9.728   6.957
 4290POPC   C4A56406  21.553   9.921   7.371
 4290POPC   C1B56407  21.375   9.288   6.116
 4290POPC   C2B56408  21.068   9.406   6.438
 4290POPC   C3B56409  21.105   9.447   6.874
 4290POPC   C4B56410  21.169   9.526   7.324
 4291POPC   NC356411  11.496   8.681   5.450
 4291POPC   PO456412  11.054   9.091   5.223
 4291POPC   GL156413  11.094   8.902   5.676
 4291POPC   GL256414  11.398   9.027   5.810
 4291POPC   C1A56415  11.059   8.834   6.160
 4291POPC   D2A56416  10.928   8.856   6.624
 4291POPC   C3A56417  11.192   8.752   6.971
 4291POPC   C4A56418  11.158   9.086   7.257
 4291POPC   C1B56419  11.559   8.872   6.196
 4291POPC   C2B56420  11.408   9.013   6.573
 4291POPC   C3B56421  11.519   9.206   6.915
 4291POPC   C4B56422  11.765   9.218   7.264
 4292POPC   NC356423  12.032  25.499   5.303
 4292POPC   PO456424  12.021  26.206   5.389
 4292POPC   GL156425  12.022  26.040   5.792
 4292POPC   GL256426  11.833  25.755   5.824
 4292POPC   C1A56427  12.274  25.977   6.141
 4292POPC   D2A56428  12.473  26.168   6.507
 4292POPC   C3A56429  12.296  26.151   6.903
 4292POPC   C4A56430  12.100  26.114   7.269
 4292POPC   C1B56431  11.862  25.684   6.233
 4292POPC   C2B56432  11.620  25.781   6.587
 4292POPC   C3B56433  11.874  25.788   6.943
 4292POPC   C4B56434  11.929  25.616   7.354
 4293POPC   NC356435   9.156   3.680   5.435
 4293POPC   PO456436   8.538   3.444   5.082
 4293POPC   GL156437   8.667   3.464   5.581
 4293POPC   GL256438   8.769   3.776   5.746
 4293POPC   C1A56439   8.651   3.455   6.096
 4293POPC   D2A56440   8.764   3.721   6.465
 4293POPC   C3A56441   8.951   3.512   6.812
 4293POPC   C4A56442   8.961   3.301   7.212
 4293POPC   C1B56443   9.101   3.723   6.096
 4293POPC   C2B56444   9.244   3.885   6.545
 4293POPC   C3B56445   9.293   3.831   7.028
 4293POPC   C4B56446   8.922   3.809   7.298
 4294POPC   NC356447  17.872  12.223   5.424
 4294POPC   PO456448  17.512  11.723   5.384
 4294POPC   GL156449  17.432  11.905   5.830
 4294POPC   GL256450  17.705  12.165   5.915
 4294POPC   C1A56451  17.458  11.921   6.317
 4294POPC   D2A56452  17.758  11.858   6.691
 4294POPC   C3A56453  17.527  12.002   7.110
 4294POPC   C4A56454  17.469  11.739   7.486
 4294POPC   C1B56455  17.831  12.262   6.351
 4294POPC   C2B56456  17.563  12.323   6.717
 4294POPC   C3B56457  17.690  12.518   7.118
 4294POPC   C4B56458  17.747  12.494   7.565
 4295POPC   NC356459  39.102  34.024   5.140
 4295POPC   PO456460  39.403  33.480   5.121
 4295POPC   GL156461  39.343  33.688   5.560
 4295POPC   GL256462  39.026  33.857   5.732
 4295POPC   C1A56463  39.392  33.684   6.035
 4295POPC   D2A56464  39.043  33.753   6.327
 4295POPC   C3A56465  39.040  33.883   6.728
 4295POPC   C4A56466  39.068  33.702   7.111
 4295POPC   C1B56467  38.993  34.200   6.110
 4295POPC   C2B56468  39.089  34.396   6.523
 4295POPC   C3B56469  38.951  34.362   6.966
 4295POPC   C4B56470  39.147  34.159   7.294
 4296POPC   NC356471  23.943   9.045   5.341
 4296POPC   PO456472  23.421   8.937   5.411
 4296POPC   GL156473  23.585   8.897   5.851
 4296POPC   GL256474  23.956   8.939   5.844
 4296POPC   C1A56475  23.558   9.040   6.311
 4296POPC   D2A56476  23.493   9.249   6.728
 4296POPC   C3A56477  23.623   9.045   7.114
 4296POPC   C4A56478  23.870   9.206   7.502
 4296POPC   C1B56479  24.021   8.823   6.283
 4296POPC   C2B56480  23.883   8.845   6.726
 4296POPC   C3B56481  24.096   8.877   7.151
 4296POPC   C4B56482  24.206   8.800   7.591
 4297POPC   NC356483  34.738  33.312   5.420
 4297POPC   PO456484  34.747  34.016   5.362
 4297POPC   GL156485  34.452  33.993   5.676
 4297POPC   GL256486  34.280  33.659   5.528
 4297POPC   C1A56487  34.374  34.154   6.100
 4297POPC   D2A56488  34.484  33.969   6.483
 4297POPC   C3A56489  34.492  34.028   6.920
 4297POPC   C4A56490  34.727  33.724   7.173
 4297POPC   C1B56491  34.284  33.609   5.962
 4297POPC   C2B56492  34.294  33.494   6.381
 4297POPC   C3B56493  34.373  33.546   6.787
 4297POPC   C4B56494  34.256  33.521   7.176
 4298POPC   NC356495   1.599  18.449   5.563
 4298POPC   PO456496   2.163  17.982   5.479
 4298POPC   GL156497   2.014  18.209   5.818
 4298POPC   GL256498   1.748  18.030   5.869
 4298POPC   C1A56499   1.968  18.410   6.244
 4298POPC   D2A56500   2.187  18.490   6.652
 4298POPC   C3A56501   1.992  18.389   7.052
 4298POPC   C4A56502   2.022  18.334   7.503
 4298POPC   C1B56503   1.806  17.915   6.259
 4298POPC   C2B56504   1.742  18.112   6.632
 4298POPC   C3B56505   1.756  17.901   6.978
 4298POPC   C4B56506   1.838  17.883   7.354
 4299POPC   NC356507  23.342  11.539   5.658
 4299POPC   PO456508  23.937  11.732   5.561
 4299POPC   GL156509  23.830  11.327   5.779
 4299POPC   GL256510  23.567  11.076   5.687
 4299POPC   C1A56511  23.821  11.195   6.215
 4299POPC   D2A56512  23.605  11.357   6.576
 4299POPC   C3A56513  23.805  11.562   6.923
 4299POPC   C4A56514  23.518  11.715   7.252
 4299POPC   C1B56515  23.364  11.016   6.103
 4299POPC   C2B56516  23.539  10.847   6.496
 4299POPC   C3B56517  23.553  10.943   6.907
 4299POPC   C4B56518  23.600  11.206   7.220
 4300POPC   NC356519  28.821   6.225   5.461
 4300POPC   PO456520  28.660   5.585   5.396
 4300POPC   GL156521  28.504   5.483   5.799
 4300POPC   GL256522  28.159   5.386   5.759
 4300POPC   C1A56523  28.586   5.661   6.227
 4300POPC   D2A56524  28.669   5.842   6.645
 4300POPC   C3A56525  28.562   5.614   7.033
 4300POPC   C4A56526  28.728   5.492   7.466
 4300POPC   C1B56527  28.120   5.421   6.226
 4300POPC   C2B56528  28.172   5.623   6.649
 4300POPC   C3B56529  28.041   5.570   7.095
 4300POPC   C4B56530  27.820   5.806   7.420
 4301POPC   NC356531   7.801  13.819   5.496
 4301POPC   PO456532   8.469  13.810   5.517
 4301POPC   GL156533   8.191  13.751   5.821
 4301POPC   GL256534   8.073  13.420   5.770
 4301POPC   C1A56535   8.257  13.850   6.214
 4301POPC   D2A56536   8.415  13.637   6.541
 4301POPC   C3A56537   8.278  13.872   6.865
 4301POPC   C4A56538   8.333  13.734   7.244
 4301POPC   C1B56539   7.953  13.385   6.197
 4301POPC   C2B56540   8.075  13.260   6.613
 4301POPC   C3B56541   7.996  13.384   7.051
 4301POPC   C4B56542   7.800  13.194   7.436
 4302POPC   NC356543   2.984  39.959   5.423
 4302POPC   PO456544   2.330  40.070   5.444
 4302POPC   GL156545   2.610  39.923   5.791
 4302POPC   GL256546   2.969  39.970   5.930
 4302POPC   C1A56547   2.594  39.711   6.175
 4302POPC   D2A56548   2.789  39.744   6.550
 4302POPC   C3A56549   2.522  39.792   6.891
 4302POPC   C4A56550   2.667  40.056   7.192
 4302POPC   C1B56551   2.912  40.185   6.295
 4302POPC   C2B56552   2.897  40.275   6.735
 4302POPC   C3B56553   2.924  40.482   7.121
 4302POPC   C4B56554   3.071  40.275   7.528
 4303POPC   NC356555   6.381   5.666   5.246
 4303POPC   PO456556   7.004   5.748   5.268
 4303POPC   GL156557   6.877   5.846   5.710
 4303POPC   GL256558   6.576   5.643   5.793
 4303POPC   C1A56559   6.849   6.014   6.150
 4303POPC   D2A56560   6.760   6.007   6.616
 4303POPC   C3A56561   6.944   5.927   7.031
 4303POPC   C4A56562   6.843   5.851   7.474
 4303POPC   C1B56563   6.414   5.730   6.234
 4303POPC   C2B56564   6.251   5.927   6.653
 4303POPC   C3B56565   6.363   5.969   7.109
 4303POPC   C4B56566   6.288   5.746   7.506
 4304POPC   NC356567   1.337  16.516   5.563
 4304POPC   PO456568   1.099  17.113   5.420
 4304POPC   GL156569   1.116  16.870   5.836
 4304POPC   GL256570   1.458  16.900   5.942
 4304POPC   C1A56571   1.145  16.543   6.197
 4304POPC   D2A56572   0.928  16.461   6.592
 4304POPC   C3A56573   1.179  16.588   6.956
 4304POPC   C4A56574   1.386  16.633   7.375
 4304POPC   C1B56575   1.220  17.056   6.293
 4304POPC   C2B56576   1.246  17.061   6.711
 4304POPC   C3B56577   1.299  17.059   7.120
 4304POPC   C4B56578   0.997  16.946   7.426
 4305POPC   NC356579  10.526  20.237   5.451
 4305POPC   PO456580  10.455  20.903   5.326
 4305POPC   GL156581  10.576  20.771   5.714
 4305POPC   GL256582  10.272  20.950   5.851
 4305POPC   C1A56583  10.783  20.554   6.088
 4305POPC   D2A56584  10.595  20.547   6.528
 4305POPC   C3A56585  10.715  20.480   6.970
 4305POPC   C4A56586  10.801  20.743   7.323
 4305POPC   C1B56587  10.267  20.607   6.106
 4305POPC   C2B56588  10.114  20.427   6.471
 4305POPC   C3B56589  10.088  20.455   6.899
 4305POPC   C4B56590  10.296  20.584   7.269
 4306POPC   NC356591  37.926   6.337   5.473
 4306POPC   PO456592  37.473   5.953   5.131
 4306POPC   GL156593  37.601   5.938   5.598
 4306POPC   GL256594  37.931   5.847   5.747
 4306POPC   C1A56595  37.575   6.005   6.079
 4306POPC   D2A56596  37.733   6.243   6.452
 4306POPC   C3A56597  37.695   6.045   6.859
 4306POPC   C4A56598  37.772   6.038   7.297
 4306POPC   C1B56599  37.995   5.651   6.190
 4306POPC   C2B56600  37.859   5.574   6.627
 4306POPC   C3B56601  38.060   5.662   7.038
 4306POPC   C4B56602  37.968   5.589   7.480
 4307POPC   NC356603   1.525  26.696   5.357
 4307POPC   PO456604   0.842  26.830   5.413
 4307POPC   GL156605   1.142  26.840   5.777
 4307POPC   GL256606   1.488  26.928   5.815
 4307POPC   C1A56607   1.154  26.757   6.234
 4307POPC   D2A56608   1.036  26.859   6.678
 4307POPC   C3A56609   1.211  26.618   7.018
 4307POPC   C4A56610   1.204  26.790   7.432
 4307POPC   C1B56611   1.718  27.009   6.182
 4307POPC   C2B56612   1.531  26.975   6.571
 4307POPC   C3B56613   1.426  27.076   6.976
 4307POPC   C4B56614   1.664  26.978   7.313
 4308POPC   NC356615  25.524   1.303   5.508
 4308POPC   PO456616  25.145   1.729   5.201
 4308POPC   GL156617  25.136   1.557   5.716
 4308POPC   GL256618  25.474   1.544   5.922
 4308POPC   C1A56619  25.128   1.342   6.192
 4308POPC   D2A56620  25.106   1.430   6.632
 4308POPC   C3A56621  25.293   1.299   7.005
 4308POPC   C4A56622  25.114   0.939   7.206
 4308POPC   C1B56623  25.616   1.177   6.142
 4308POPC   C2B56624  25.666   1.246   6.560
 4308POPC   C3B56625  25.694   1.009   6.892
 4308POPC   C4B56626  25.733   1.061   7.308
 4309POPC   NC356627   1.480   0.856   5.491
 4309POPC   PO456628   0.887   1.179   5.399
 4309POPC   GL156629   1.185   1.180   5.744
 4309POPC   GL256630   0.928   1.094   5.929
 4309POPC   C1A56631   1.462   1.097   6.131
 4309POPC   D2A56632   1.503   1.272   6.563
 4309POPC   C3A56633   1.339   1.145   6.979
 4309POPC   C4A56634   1.364   1.297   7.369
 4309POPC   C1B56635   1.023   1.272   6.326
 4309POPC   C2B56636   1.108   0.924   6.590
 4309POPC   C3B56637   0.943   0.763   6.959
 4309POPC   C4B56638   0.992   0.927   7.342
 4310POPC   NC356639  31.861  26.817   5.358
 4310POPC   PO456640  31.340  26.398   5.214
 4310POPC   GL156641  31.440  26.606   5.624
 4310POPC   GL256642  31.725  26.388   5.643
 4310POPC   C1A56643  31.375  26.898   6.027
 4310POPC   D2A56644  31.342  26.922   6.542
 4310POPC   C3A56645  31.507  27.133   6.964
 4310POPC   C4A56646  31.948  27.214   7.158
 4310POPC   C1B56647  31.792  26.596   6.037
 4310POPC   C2B56648  31.760  26.574   6.478
 4310POPC   C3B56649  31.841  26.775   6.847
 4310POPC   C4B56650  31.775  26.728   7.254
 4311POPC   NC356651   4.616  29.154   5.363
 4311POPC   PO456652   4.007  29.262   5.312
 4311POPC   GL156653   4.229  29.082   5.690
 4311POPC   GL256654   4.271  29.398   5.823
 4311POPC   C1A56655   4.362  28.955   6.132
 4311POPC   D2A56656   4.253  29.164   6.541
 4311POPC   C3A56657   4.320  28.989   6.922
 4311POPC   C4A56658   4.221  29.066   7.360
 4311POPC   C1B56659   4.199  29.634   6.215
 4311POPC   C2B56660   4.360  29.671   6.614
 4311POPC   C3B56661   4.373  29.493   7.024
 4311POPC   C4B56662   4.501  29.484   7.464
 4312POPC   NC356663  41.500  44.908   5.709
 4312POPC   PO456664  41.520  44.388   5.265
 4312POPC   GL156665  41.570  44.418   5.740
 4312POPC   GL256666  41.274  44.316   5.912
 4312POPC   C1A56667  41.753  44.426   6.155
 4312POPC   D2A56668  41.494  44.460   6.518
 4312POPC   C3A56669  41.710  44.386   6.907
 4312POPC   C4A56670  41.641  44.593   7.304
 4312POPC   C1B56671  41.072  44.613   6.188
 4312POPC   C2B56672  41.099  44.896   6.546
 4312POPC   C3B56673  41.344  44.807   6.911
 4312POPC   C4B56674  41.505   0.070   7.227
 4313POPC   NC356675  10.675   8.866   5.391
 4313POPC   PO456676  11.024   9.396   5.720
 4313POPC   GL156677  10.633   9.130   5.846
 4313POPC   GL256678  10.419   8.795   5.819
 4313POPC   C1A56679  10.585   8.979   6.276
 4313POPC   D2A56680  10.513   9.166   6.679
 4313POPC   C3A56681  10.679   9.051   7.097
 4313POPC   C4A56682  10.696   9.098   7.578
 4313POPC   C1B56683  10.277   8.584   6.199
 4313POPC   C2B56684  10.324   8.649   6.635
 4313POPC   C3B56685  10.168   8.544   7.046
 4313POPC   C4B56686  10.228   8.724   7.472
 4314POPC   NC356687  25.807  15.092   5.576
 4314POPC   PO456688  26.458  14.906   5.567
 4314POPC   GL156689  26.190  14.954   5.863
 4314POPC   GL256690  26.192  15.323   5.803
 4314POPC   C1A56691  25.944  15.094   6.208
 4314POPC   D2A56692  26.064  15.305   6.547
 4314POPC   C3A56693  25.950  15.087   6.922
 4314POPC   C4A56694  25.974  15.174   7.332
 4314POPC   C1B56695  26.382  15.578   6.143
 4314POPC   C2B56696  26.574  15.489   6.525
 4314POPC   C3B56697  26.407  15.419   6.916
 4314POPC   C4B56698  26.487  15.279   7.308
 4315POPC   NC356699  35.038  27.838   5.402
 4315POPC   PO456700  35.304  27.209   5.377
 4315POPC   GL156701  35.336  27.514   5.757
 4315POPC   GL256702  35.094  27.762   5.892
 4315POPC   C1A56703  35.241  27.418   6.210
 4315POPC   D2A56704  35.432  27.287   6.577
 4315POPC   C3A56705  35.273  27.419   6.946
 4315POPC   C4A56706  35.418  27.289   7.333
 4315POPC   C1B56707  35.411  27.908   6.188
 4315POPC   C2B56708  35.428  27.807   6.631
 4315POPC   C3B56709  35.414  27.909   7.081
 4315POPC   C4B56710  35.172  27.726   7.349
 4316POPC   NC356711  25.165  44.020   5.277
 4316POPC   PO456712  25.198  43.417   5.578
 4316POPC   GL156713  25.337  43.814   5.771
 4316POPC   GL256714  25.069  44.049   5.803
 4316POPC   C1A56715  25.394  43.967   6.217
 4316POPC   D2A56716  25.297  43.774   6.627
 4316POPC   C3A56717  25.423  44.005   6.977
 4316POPC   C4A56718  25.656  43.984   7.355
 4316POPC   C1B56719  24.974  43.697   6.146
 4316POPC   C2B56720  24.782  43.624   6.549
 4316POPC   C3B56721  24.919  43.693   6.994
 4316POPC   C4B56722  25.133  43.915   7.387
 4317POPC   NC356723  32.372  17.331   5.282
 4317POPC   PO456724  31.976  17.774   5.537
 4317POPC   GL156725  32.054  17.540   5.882
 4317POPC   GL256726  31.969  17.227   5.856
 4317POPC   C1A56727  32.225  17.576   6.288
 4317POPC   D2A56728  32.503  17.459   6.600
 4317POPC   C3A56729  32.289  17.563   6.961
 4317POPC   C4A56730  32.469  17.436   7.309
 4317POPC   C1B56731  31.856  17.197   6.259
 4317POPC   C2B56732  32.051  17.184   6.633
 4317POPC   C3B56733  31.940  17.119   7.023
 4317POPC   C4B56734  31.982  17.343   7.381
 4318POPC   NC356735  15.031   5.415   5.597
 4318POPC   PO456736  15.580   5.007   5.476
 4318POPC   GL156737  15.336   4.985   5.875
 4318POPC   GL256738  15.210   5.277   6.049
 4318POPC   C1A56739  15.281   4.833   6.305
 4318POPC   D2A56740  15.477   4.955   6.713
 4318POPC   C3A56741  15.314   4.768   7.087
 4318POPC   C4A56742  15.001   4.948   7.375
 4318POPC   C1B56743  15.047   5.358   6.455
 4318POPC   C2B56744  15.029   5.186   6.874
 4318POPC   C3B56745  15.347   5.288   7.171
 4318POPC   C4B56746  15.336   5.306   7.618
 4319POPC   NC356747  22.245  38.916   5.399
 4319POPC   PO456748  22.403  39.565   5.620
 4319POPC   GL156749  22.161  39.236   5.819
 4319POPC   GL256750  22.483  39.012   5.847
 4319POPC   C1A56751  21.894  39.261   6.206
 4319POPC   D2A56752  21.802  39.053   6.617
 4319POPC   C3A56753  21.920  39.114   7.062
 4319POPC   C4A56754  22.112  38.765   7.296
 4319POPC   C1B56755  22.329  38.978   6.294
 4319POPC   C2B56756  22.298  38.906   6.766
 4319POPC   C3B56757  22.420  39.153   7.159
 4319POPC   C4B56758  22.493  38.999   7.576
 4320POPC   NC356759  36.723  14.495   5.163
 4320POPC   PO456760  37.128  14.110   5.436
 4320POPC   GL156761  36.860  14.277   5.758
 4320POPC   GL256762  36.694  14.605   5.701
 4320POPC   C1A56763  36.983  14.434   6.168
 4320POPC   D2A56764  37.127  14.664   6.522
 4320POPC   C3A56765  37.108  14.412   6.877
 4320POPC   C4A56766  37.019  14.367   7.286
 4320POPC   C1B56767  36.637  14.850   6.118
 4320POPC   C2B56768  36.711  15.025   6.542
 4320POPC   C3B56769  36.850  14.850   6.945
 4320POPC   C4B56770  36.696  14.759   7.365
 4321POPC   NC356771  39.380  22.239   5.204
 4321POPC   PO456772  39.115  21.680   5.546
 4321POPC   GL156773  39.397  22.064   5.712
 4321POPC   GL256774  39.171  22.362   5.818
 4321POPC   C1A56775  39.547  22.256   6.131
 4321POPC   D2A56776  39.453  22.503   6.495
 4321POPC   C3A56777  39.326  22.340   6.919
 4321POPC   C4A56778  39.001  22.498   7.159
 4321POPC   C1B56779  39.053  22.133   6.199
 4321POPC   C2B56780  39.176  21.968   6.613
 4321POPC   C3B56781  39.258  21.852   7.070
 4321POPC   C4B56782  39.242  21.604   7.469
 4322POPC   NC356783  26.536  15.775   5.541
 4322POPC   PO456784  26.993  16.051   5.118
 4322POPC   GL156785  27.025  15.924   5.616
 4322POPC   GL256786  26.969  16.223   5.845
 4322POPC   C1A56787  26.943  15.736   6.076
 4322POPC   D2A56788  26.923  15.870   6.522
 4322POPC   C3A56789  26.891  15.644   6.933
 4322POPC   C4A56790  26.917  15.767   7.357
 4322POPC   C1B56791  26.582  16.122   6.110
 4322POPC   C2B56792  26.398  15.997   6.501
 4322POPC   C3B56793  26.543  16.064   6.942
 4322POPC   C4B56794  26.675  16.312   7.314
 4323POPC   NC356795  22.904  29.055   5.458
 4323POPC   PO456796  22.506  29.652   5.475
 4323POPC   GL156797  22.656  29.346   5.780
 4323POPC   GL256798  23.025  29.380   5.869
 4323POPC   C1A56799  22.699  29.007   6.098
 4323POPC   D2A56800  22.717  29.091   6.536
 4323POPC   C3A56801  22.688  28.885   6.919
 4323POPC   C4A56802  22.713  29.104   7.301
 4323POPC   C1B56803  23.173  29.137   6.247
 4323POPC   C2B56804  23.185  28.871   6.631
 4323POPC   C3B56805  23.173  28.987   7.061
 4323POPC   C4B56806  23.277  29.310   7.341
 4324POPC   NC356807  30.679  15.271   5.196
 4324POPC   PO456808  31.234  14.959   5.397
 4324POPC   GL156809  30.894  15.021   5.661
 4324POPC   GL256810  30.750  15.331   5.701
 4324POPC   C1A56811  30.891  14.955   6.101
 4324POPC   D2A56812  30.750  15.154   6.486
 4324POPC   C3A56813  30.649  14.918   6.871
 4324POPC   C4A56814  30.837  14.970   7.275
 4324POPC   C1B56815  30.879  15.489   6.100
 4324POPC   C2B56816  31.070  15.571   6.522
 4324POPC   C3B56817  30.922  15.363   6.919
 4324POPC   C4B56818  30.804  15.468   7.329
 4325POPC   NC356819  39.161   1.217   5.309
 4325POPC   PO456820  39.852   1.227   5.501
 4325POPC   GL156821  39.420   1.253   5.778
 4325POPC   GL256822  39.140   1.007   5.769
 4325POPC   C1A56823  39.105   1.324   6.166
 4325POPC   D2A56824  39.163   1.139   6.597
 4325POPC   C3A56825  39.053   1.318   7.005
 4325POPC   C4A56826  39.362   1.607   7.156
 4325POPC   C1B56827  39.312   0.851   6.170
 4325POPC   C2B56828  39.343   0.673   6.599
 4325POPC   C3B56829  39.176   0.764   7.016
 4325POPC   C4B56830  39.265   1.016   7.407
 4326POPC   NC356831   5.736  41.782   5.381
 4326POPC   PO456832   5.780  41.109   5.200
 4326POPC   GL156833   5.881  41.299   5.652
 4326POPC   GL256834   5.868  41.650   5.858
 4326POPC   C1A56835   5.762  41.242   6.116
 4326POPC   D2A56836   5.918  41.507   6.447
 4326POPC   C3A56837   5.778  41.444   6.898
 4326POPC   C4A56838   5.950  41.477   7.346
 4326POPC   C1B56839   6.188  41.910   6.108
 4326POPC   C2B56840   6.325  41.809   6.524
 4326POPC   C3B56841   6.167  41.760   6.898
 4326POPC   C4B56842   6.216  41.970   7.215
 4327POPC   NC356843  11.990   7.970   5.464
 4327POPC   PO456844  12.295   8.506   5.678
 4327POPC   GL156845  12.408   8.247   5.968
 4327POPC   GL256846  12.375   7.939   5.839
 4327POPC   C1A56847  12.402   8.236   6.403
 4327POPC   D2A56848  12.006   8.290   6.607
 4327POPC   C3A56849  12.113   8.457   6.975
 4327POPC   C4A56850  11.888   8.293   7.274
 4327POPC   C1B56851  12.063   7.908   6.167
 4327POPC   C2B56852  12.131   7.803   6.588
 4327POPC   C3B56853  11.904   7.869   6.959
 4327POPC   C4B56854  11.935   7.791   7.385
 4328POPC   NC356855  30.384  10.981   5.521
 4328POPC   PO456856  29.794  10.856   5.464
 4328POPC   GL156857  29.769  11.188   5.797
 4328POPC   GL256858  29.697  11.552   5.727
 4328POPC   C1A56859  29.992  11.276   6.172
 4328POPC   D2A56860  29.919  11.477   6.558
 4328POPC   C3A56861  29.953  11.218   6.926
 4328POPC   C4A56862  30.221  11.083   7.242
 4328POPC   C1B56863  29.693  11.742   6.156
 4328POPC   C2B56864  29.472  11.723   6.576
 4328POPC   C3B56865  29.683  11.648   6.986
 4328POPC   C4B56866  29.557  11.251   7.246
 4329POPC   NC356867  18.230  44.829   5.559
 4329POPC   PO456868  18.647  44.379   5.473
 4329POPC   GL156869  18.474  44.526   5.897
 4329POPC   GL256870  18.132  44.467   5.941
 4329POPC   C1A56871  18.354  44.628   6.359
 4329POPC   D2A56872  18.474  44.852   6.700
 4329POPC   C3A56873  18.544  44.690   7.113
 4329POPC   C4A56874  18.712  44.895   7.450
 4329POPC   C1B56875  17.935  44.840   6.150
 4329POPC   C2B56876  17.998  44.971   6.576
 4329POPC   C3B56877  18.057  44.716   6.961
 4329POPC   C4B56878  18.143  44.891   7.381
 4330POPC   NC356879   2.006  15.269   5.351
 4330POPC   PO456880   1.683  14.720   5.571
 4330POPC   GL156881   1.865  15.103   5.829
 4330POPC   GL256882   1.777  15.492   5.748
 4330POPC   C1A56883   2.024  15.220   6.257
 4330POPC   D2A56884   1.847  15.302   6.683
 4330POPC   C3A56885   1.799  15.033   7.046
 4330POPC   C4A56886   1.718  15.125   7.467
 4330POPC   C1B56887   1.838  15.698   6.115
 4330POPC   C2B56888   2.051  15.730   6.482
 4330POPC   C3B56889   2.132  15.712   6.874
 4330POPC   C4B56890   2.191  15.428   7.161
 4331POPC   NC356891  21.737  31.793   5.339
 4331POPC   PO456892  21.388  31.328   5.615
 4331POPC   GL156893  21.558  31.664   5.849
 4331POPC   GL256894  21.240  31.753   6.025
 4331POPC   C1A56895  21.724  31.704   6.273
 4331POPC   D2A56896  21.647  31.431   6.639
 4331POPC   C3A56897  21.357  31.584   6.944
 4331POPC   C4A56898  21.319  31.898   7.281
 4331POPC   C1B56899  21.264  31.418   6.282
 4331POPC   C2B56900  21.020  31.234   6.589
 4331POPC   C3B56901  21.063  31.158   7.010
 4331POPC   C4B56902  21.076  31.446   7.359
 4332POPC   NC356903  37.801  26.030   5.333
 4332POPC   PO456904  37.164  25.925   5.155
 4332POPC   GL156905  37.433  25.934   5.638
 4332POPC   GL256906  37.397  26.209   5.850
 4332POPC   C1A56907  37.558  25.770   6.099
 4332POPC   D2A56908  37.540  25.969   6.522
 4332POPC   C3A56909  37.893  25.983   6.822
 4332POPC   C4A56910  37.885  25.830   7.244
 4332POPC   C1B56911  37.729  26.314   6.158
 4332POPC   C2B56912  37.939  26.442   6.546
 4332POPC   C3B56913  37.978  26.482   7.009
 4332POPC   C4B56914  37.623  26.373   7.284
 4333POPC   NC356915   9.541  41.718   5.400
 4333POPC   PO456916  10.101  41.571   5.749
 4333POPC   GL156917   9.698  41.652   5.922
 4333POPC   GL256918   9.513  41.383   5.804
 4333POPC   C1A56919   9.635  41.603   6.370
 4333POPC   D2A56920  10.003  41.667   6.679
 4333POPC   C3A56921   9.930  41.552   7.089
 4333POPC   C4A56922   9.913  41.798   7.432
 4333POPC   C1B56923   9.283  41.192   6.142
 4333POPC   C2B56924   9.419  41.077   6.541
 4333POPC   C3B56925   9.250  41.200   6.931
 4333POPC   C4B56926   9.470  41.395   7.278
 4334POPC   NC356927  36.895  22.506   5.346
 4334POPC   PO456928  36.593  21.897   5.370
 4334POPC   GL156929  36.621  22.147   5.706
 4334POPC   GL256930  36.968  22.135   5.724
 4334POPC   C1A56931  36.691  22.196   6.144
 4334POPC   D2A56932  36.890  22.065   6.523
 4334POPC   C3A56933  36.642  22.027   6.905
 4334POPC   C4A56934  36.712  21.980   7.342
 4334POPC   C1B56935  37.197  22.160   6.110
 4334POPC   C2B56936  37.336  22.291   6.516
 4334POPC   C3B56937  37.169  22.212   6.932
 4334POPC   C4B56938  37.213  21.916   7.267
 4335POPC   NC356939  31.513  32.434   5.575
 4335POPC   PO456940  31.493  31.824   5.476
 4335POPC   GL156941  31.276  32.000   5.848
 4335POPC   GL256942  31.031  32.275   5.752
 4335POPC   C1A56943  31.425  32.046   6.310
 4335POPC   D2A56944  31.486  31.947   6.759
 4335POPC   C3A56945  31.801  32.180   7.037
 4335POPC   C4A56946  31.645  32.299   7.463
 4335POPC   C1B56947  30.971  32.253   6.195
 4335POPC   C2B56948  31.077  32.291   6.626
 4335POPC   C3B56949  30.981  32.128   7.011
 4335POPC   C4B56950  31.168  32.139   7.404
 4336POPC   NC356951   7.107  12.883   5.329
 4336POPC   PO456952   6.520  13.109   5.527
 4336POPC   GL156953   6.616  12.869   5.898
 4336POPC   GL256954   6.923  12.815   5.823
 4336POPC   C1A56955   6.600  12.894   6.343
 4336POPC   D2A56956   6.599  13.096   6.720
 4336POPC   C3A56957   6.444  12.830   7.014
 4336POPC   C4A56958   6.210  13.002   7.329
 4336POPC   C1B56959   7.064  12.709   6.251
 4336POPC   C2B56960   6.937  12.648   6.711
 4336POPC   C3B56961   6.990  12.613   7.192
 4336POPC   C4B56962   7.055  12.813   7.617
 4337POPC   NC356963  31.161  26.824   5.165
 4337POPC   PO456964  30.710  26.582   5.505
 4337POPC   GL156965  30.504  26.615   5.899
 4337POPC   GL256966  30.840  26.485   6.013
 4337POPC   C1A56967  30.554  26.871   6.280
 4337POPC   D2A56968  30.827  26.866   6.639
 4337POPC   C3A56969  30.889  27.082   7.015
 4337POPC   C4A56970  30.575  26.918   7.250
 4337POPC   C1B56971  30.598  26.375   6.375
 4337POPC   C2B56972  30.628  26.377   6.801
 4337POPC   C3B56973  30.916  26.559   7.094
 4337POPC   C4B56974  30.971  26.450   7.531
 4338POPC   NC356975   8.783   8.936   5.449
 4338POPC   PO456976   9.436   9.103   5.285
 4338POPC   GL156977   9.236   9.086   5.692
 4338POPC   GL256978   9.147   8.771   5.832
 4338POPC   C1A56979   9.159   9.246   6.123
 4338POPC   D2A56980   9.199   9.024   6.522
 4338POPC   C3A56981   9.249   9.118   6.976
 4338POPC   C4A56982   9.223   8.683   7.165
 4338POPC   C1B56983   8.806   8.876   6.114
 4338POPC   C2B56984   8.661   8.733   6.521
 4338POPC   C3B56985   8.819   8.863   6.885
 4338POPC   C4B56986   8.756   9.011   7.301
 4339POPC   NC356987  36.555   1.720   5.428
 4339POPC   PO456988  37.240   1.917   5.335
 4339POPC   GL156989  37.082   1.957   5.815
 4339POPC   GL256990  36.731   1.973   5.838
 4339POPC   C1A56991  37.088   1.714   6.219
 4339POPC   D2A56992  37.158   1.800   6.665
 4339POPC   C3A56993  36.836   1.770   6.973
 4339POPC   C4A56994  36.671   1.785   7.367
 4339POPC   C1B56995  36.780   2.122   6.262
 4339POPC   C2B56996  36.853   2.222   6.698
 4339POPC   C3B56997  36.676   2.242   7.115
 4339POPC   C4B56998  36.812   2.512   7.423
 4340POPC   NC356999  29.082  18.110   5.368
 4340POPC   PO457000  28.905  18.668   5.578
 4340POPC   GL157001  29.115  18.397   5.826
 4340POPC   GL257002  29.474  18.441   5.764
 4340POPC   C1A57003  29.169  18.235   6.234
 4340POPC   D2A57004  29.368  18.098   6.578
 4340POPC   C3A57005  29.220  18.225   6.913
 4340POPC   C4A57006  29.060  18.239   7.278
 4340POPC   C1B57007  29.436  18.694   6.160
 4340POPC   C2B57008  29.345  18.615   6.601
 4340POPC   C3B57009  29.506  18.675   7.013
 4340POPC   C4B57010  29.297  18.679   7.404
 4341POPC   NC357011  39.526  43.690   5.625
 4341POPC   PO457012  39.865  44.221   5.515
 4341POPC   GL157013  39.893  43.971   5.891
 4341POPC   GL257014  40.119  43.695   5.901
 4341POPC   C1A57015  40.001  43.962   6.328
 4341POPC   D2A57016  39.801  44.082   6.667
 4341POPC   C3A57017  40.033  43.996   7.001
 4341POPC   C4A57018  39.787  43.947   7.340
 4341POPC   C1B57019  39.858  43.488   6.242
 4341POPC   C2B57020  39.878  43.549   6.731
 4341POPC   C3B57021  40.037  43.517   7.199
 4341POPC   C4B57022  39.758  43.464   7.584
 4342POPC   NC357023  13.378  14.391   5.227
 4342POPC   PO457024  13.841  14.792   5.381
 4342POPC   GL157025  13.741  14.684   5.814
 4342POPC   GL257026  13.526  14.483   5.752
 4342POPC   C1A57027  13.873  14.398   6.182
 4342POPC   D2A57028  13.710  14.281   6.577
 4342POPC   C3A57029  13.884  14.421   6.948
 4342POPC   C4A57030  13.774  14.543   7.381
 4342POPC   C1B57031  13.362  14.466   6.176
 4342POPC   C2B57032  13.316  14.598   6.606
 4342POPC   C3B57033  13.380  14.405   7.032
 4342POPC   C4B57034  13.230  14.028   7.258
 4343POPC   NC357035  34.349   6.893   5.400
 4343POPC   PO457036  35.059   6.958   5.551
 4343POPC   GL157037  34.699   6.751   5.791
 4343POPC   GL257038  34.490   6.458   5.734
 4343POPC   C1A57039  34.428   6.865   6.146
 4343POPC   D2A57040  34.627   6.915   6.561
 4343POPC   C3A57041  34.438   6.850   6.955
 4343POPC   C4A57042  34.557   6.698   7.366
 4343POPC   C1B57043  34.554   6.381   6.201
 4343POPC   C2B57044  34.360   6.455   6.615
 4343POPC   C3B57045  34.360   6.340   7.072
 4343POPC   C4B57046  34.405   6.237   7.516
 4344POPC   NC357047   6.841  33.531   5.414
 4344POPC   PO457048   6.765  34.215   5.604
 4344POPC   GL157049   6.571  33.814   5.800
 4344POPC   GL257050   6.762  33.527   5.911
 4344POPC   C1A57051   6.367  33.610   6.204
 4344POPC   D2A57052   6.501  33.418   6.604
 4344POPC   C3A57053   6.598  33.670   6.984
 4344POPC   C4A57054   6.459  34.034   7.244
 4344POPC   C1B57055   6.823  33.833   6.270
 4344POPC   C2B57056   6.970  33.871   6.693
 4344POPC   C3B57057   6.944  34.089   7.108
 4344POPC   C4B57058   7.005  34.199   7.589
 4345POPC   NC357059  38.027  34.184   5.428
 4345POPC   PO457060  38.694  33.962   5.345
 4345POPC   GL157061  38.539  33.705   5.712
 4345POPC   GL257062  38.702  33.368   5.658
 4345POPC   C1A57063  38.568  33.883   6.169
 4345POPC   D2A57064  38.628  34.151   6.584
 4345POPC   C3A57065  38.579  33.903   7.005
 4345POPC   C4A57066  38.219  33.614   7.163
 4345POPC   C1B57067  38.643  33.366   6.109
 4345POPC   C2B57068  38.630  33.508   6.548
 4345POPC   C3B57069  38.638  33.352   6.970
 4345POPC   C4B57070  38.676  33.502   7.367
 4346POPC   NC357071  21.038  36.656   5.507
 4346POPC   PO457072  20.423  36.407   5.218
 4346POPC   GL157073  20.545  36.672   5.694
 4346POPC   GL257074  20.657  36.978   5.745
 4346POPC   C1A57075  20.792  36.660   6.126
 4346POPC   D2A57076  20.504  36.641   6.462
 4346POPC   C3A57077  20.513  36.642   6.898
 4346POPC   C4A57078  20.644  36.560   7.323
 4346POPC   C1B57079  20.533  37.076   6.171
 4346POPC   C2B57080  20.631  37.117   6.644
 4346POPC   C3B57081  20.833  37.003   7.063
 4346POPC   C4B57082  20.713  37.019   7.518
 4347POPC   NC357083   0.698   4.565   5.218
 4347POPC   PO457084   0.121   4.304   5.539
 4347POPC   GL157085   0.292   4.395   5.886
 4347POPC   GL257086   0.622   4.304   5.757
 4347POPC   C1A57087   0.254   4.526   6.318
 4347POPC   D2A57088   0.502   4.645   6.684
 4347POPC   C3A57089   0.271   4.443   7.037
 4347POPC   C4A57090   0.222   4.527   7.519
 4347POPC   C1B57091   0.645   4.200   6.201
 4347POPC   C2B57092   0.513   4.138   6.617
 4347POPC   C3B57093   0.761   4.276   6.932
 4347POPC   C4B57094   0.696   4.408   7.322
 4348POPC   NC357095  21.933  36.321   5.459
 4348POPC   PO457096  22.535  35.989   5.472
 4348POPC   GL157097  22.259  35.877   5.860
 4348POPC   GL257098  21.913  35.966   5.807
 4348POPC   C1A57099  22.023  35.781   6.283
 4348POPC   D2A57100  21.921  35.913   6.730
 4348POPC   C3A57101  22.057  35.696   7.096
 4348POPC   C4A57102  22.195  36.054   7.372
 4348POPC   C1B57103  22.035  36.289   6.125
 4348POPC   C2B57104  21.888  36.381   6.548
 4348POPC   C3B57105  22.039  36.375   6.979
 4348POPC   C4B57106  21.855  36.513   7.378
 4349POPC   NC357107   0.039  19.555   5.501
 4349POPC   PO457108  44.459  19.931   5.246
 4349POPC   GL157109  44.585  19.828   5.677
 4349POPC   GL257110  44.551  19.473   5.691
 4349POPC   C1A57111  44.538  19.834   6.147
 4349POPC   D2A57112  44.753  19.704   6.516
 4349POPC   C3A57113  44.604  19.846   6.886
 4349POPC   C4A57114  44.654  19.693   7.286
 4349POPC   C1B57115  44.327  19.387   6.070
 4349POPC   C2B57116  44.324  19.438   6.558
 4349POPC   C3B57117  44.275  19.468   7.038
 4349POPC   C4B57118  44.271  19.505   7.552
 4350POPC   NC357119  17.028  43.410   5.311
 4350POPC   PO457120  16.439  43.097   5.406
 4350POPC   GL157121  16.771  43.181   5.713
 4350POPC   GL257122  16.606  43.477   5.751
 4350POPC   C1A57123  16.917  43.022   6.149
 4350POPC   D2A57124  16.797  42.966   6.600
 4350POPC   C3A57125  16.938  43.042   7.028
 4350POPC   C4A57126  16.645  42.886   7.391
 4350POPC   C1B57127  16.479  43.289   6.151
 4350POPC   C2B57128  16.512  43.395   6.580
 4350POPC   C3B57129  16.480  43.274   7.013
 4350POPC   C4B57130  16.713  43.383   7.373
 4351POPC   NC357131  20.543   3.345   5.101
 4351POPC   PO457132  20.496   2.719   5.421
 4351POPC   GL157133  20.442   2.923   5.776
 4351POPC   GL257134  20.766   2.838   5.857
 4351POPC   C1A57135  20.393   3.069   6.194
 4351POPC   D2A57136  20.321   2.933   6.638
 4351POPC   C3A57137  20.644   2.819   6.910
 4351POPC   C4A57138  20.641   2.897   7.320
 4351POPC   C1B57139  20.914   2.878   6.243
 4351POPC   C2B57140  21.160   2.627   6.496
 4351POPC   C3B57141  21.064   2.522   6.909
 4351POPC   C4B57142  20.891   2.445   7.310
 4352POPC   NC357143  36.566   0.354   5.299
 4352POPC   PO457144  37.019   0.828   5.300
 4352POPC   GL157145  36.966   0.463   5.655
 4352POPC   GL257146  37.245   0.231   5.675
 4352POPC   C1A57147  36.909   0.274   6.126
 4352POPC   D2A57148  36.716   0.397   6.570
 4352POPC   C3A57149  36.799   0.495   7.023
 4352POPC   C4A57150  37.050   0.379   7.371
 4352POPC   C1B57151  37.432   0.319   6.095
 4352POPC   C2B57152  37.274   0.376   6.538
 4352POPC   C3B57153  37.292   0.583   6.953
 4352POPC   C4B57154  37.213   0.875   7.305
 4353POPC   NC357155  42.581  24.226   5.510
 4353POPC   PO457156  43.164  24.556   5.457
 4353POPC   GL157157  43.233  24.523   5.885
 4353POPC   GL257158  42.867  24.616   5.946
 4353POPC   C1A57159  43.289  24.699   6.289
 4353POPC   D2A57160  43.012  24.615   6.621
 4353POPC   C3A57161  43.173  24.332   6.916
 4353POPC   C4A57162  43.098  24.340   7.338
 4353POPC   C1B57163  42.609  24.292   6.199
 4353POPC   C2B57164  42.673  24.153   6.643
 4353POPC   C3B57165  42.666  24.463   6.978
 4353POPC   C4B57166  42.807  24.768   7.255
 4354POPC   NC357167  33.098  17.270   5.432
 4354POPC   PO457168  32.631  17.719   5.374
 4354POPC   GL157169  32.828  17.664   5.777
 4354POPC   GL257170  33.181  17.681   5.811
 4354POPC   C1A57171  32.840  17.526   6.207
 4354POPC   D2A57172  33.136  17.583   6.554
 4354POPC   C3A57173  32.975  17.397   6.959
 4354POPC   C4A57174  32.958  17.563   7.397
 4354POPC   C1B57175  33.295  17.295   6.074
 4354POPC   C2B57176  33.570  17.195   6.413
 4354POPC   C3B57177  33.499  17.322   6.818
 4354POPC   C4B57178  33.441  17.461   7.197
 4355POPC   NC357179  44.764  43.545   5.531
 4355POPC   PO457180  44.985  44.274   5.484
 4355POPC   GL157181  44.802  44.006   5.833
 4355POPC   GL257182  44.454  43.882   5.831
 4355POPC   C1A57183  44.730  43.828   6.265
 4355POPC   D2A57184  44.640  43.558   6.624
 4355POPC   C3A57185  44.843  43.820   6.874
 4355POPC   C4A57186  44.844  44.010   7.232
 4355POPC   C1B57187  44.411  44.223   6.132
 4355POPC   C2B57188  44.542  44.284   6.551
 4355POPC   C3B57189  44.436  44.155   6.937
 4355POPC   C4B57190  44.383  44.227   7.344
 4356POPC   NC357191  38.385  44.301   5.536
 4356POPC   PO457192  38.181  43.730   5.385
 4356POPC   GL157193  38.281  43.777   5.849
 4356POPC   GL257194  38.631  43.942   5.906
 4356POPC   C1A57195  38.331  43.773   6.327
 4356POPC   D2A57196  38.475  43.636   6.748
 4356POPC   C3A57197  38.211  43.735   7.082
 4356POPC   C4A57198  38.194  44.058   7.406
 4356POPC   C1B57199  38.400  44.264   6.186
 4356POPC   C2B57200  38.281  44.214   6.632
 4356POPC   C3B57201  38.550  44.107   6.976
 4356POPC   C4B57202  38.664  43.865   7.317
 4357POPC   NC357203  31.308  41.142   5.511
 4357POPC   PO457204  31.376  40.578   5.078
 4357POPC   GL157205  31.519  40.653   5.596
 4357POPC   GL257206  31.723  40.961   5.738
 4357POPC   C1A57207  31.428  40.739   6.106
 4357POPC   D2A57208  31.595  40.664   6.571
 4357POPC   C3A57209  31.350  40.758   6.970
 4357POPC   C4A57210  31.317  40.720   7.424
 4357POPC   C1B57211  31.579  41.231   6.113
 4357POPC   C2B57212  31.635  41.162   6.527
 4357POPC   C3B57213  31.760  41.079   6.908
 4357POPC   C4B57214  31.807  40.904   7.279
 4358POPC   NC357215  18.615  12.547   5.555
 4358POPC   PO457216  18.489  11.937   5.378
 4358POPC   GL157217  18.202  11.928   5.739
 4358POPC   GL257218  18.214  12.267   5.825
 4358POPC   C1A57219  18.017  11.810   6.158
 4358POPC   D2A57220  18.247  11.765   6.540
 4358POPC   C3A57221  18.208  11.802   6.995
 4358POPC   C4A57222  17.973  12.074   7.305
 4358POPC   C1B57223  18.347  12.216   6.259
 4358POPC   C2B57224  18.276  12.236   6.716
 4358POPC   C3B57225  18.422  12.231   7.149
 4358POPC   C4B57226  18.229  12.516   7.403
 4359POPC   NC357227  17.756  43.383   5.278
 4359POPC   PO457228  17.250  43.009   5.229
 4359POPC   GL157229  17.375  43.252   5.653
 4359POPC   GL257230  17.742  43.207   5.758
 4359POPC   C1A57231  17.395  43.259   6.142
 4359POPC   D2A57232  17.423  43.081   6.588
 4359POPC   C3A57233  17.478  43.311   7.011
 4359POPC   C4A57234  17.513  43.353   7.497
 4359POPC   C1B57235  17.890  42.858   6.037
 4359POPC   C2B57236  17.974  42.798   6.487
 4359POPC   C3B57237  17.730  42.786   6.869
 4359POPC   C4B57238  17.643  42.889   7.303
 4360POPC   NC357239  42.989  38.659   5.280
 4360POPC   PO457240  43.071  38.100   5.425
 4360POPC   GL157241  42.870  38.395   5.737
 4360POPC   GL257242  42.994  38.763   5.781
 4360POPC   C1A57243  42.905  38.459   6.183
 4360POPC   D2A57244  42.842  38.640   6.569
 4360POPC   C3A57245  43.028  38.457   6.926
 4360POPC   C4A57246  42.860  38.393   7.326
 4360POPC   C1B57247  43.376  38.687   6.083
 4360POPC   C2B57248  43.380  38.729   6.548
 4360POPC   C3B57249  43.403  38.794   6.999
 4360POPC   C4B57250  43.442  38.421   7.263
 4361POPC   NC357251   4.541  16.738   5.326
 4361POPC   PO457252   4.002  16.423   5.492
 4361POPC   GL157253   4.292  16.601   5.762
 4361POPC   GL257254   4.673  16.456   5.717
 4361POPC   C1A57255   4.152  16.678   6.192
 4361POPC   D2A57256   4.017  16.894   6.564
 4361POPC   C3A57257   4.083  16.708   6.983
 4361POPC   C4A57258   4.135  17.044   7.275
 4361POPC   C1B57259   4.639  16.823   6.048
 4361POPC   C2B57260   4.548  16.855   6.481
 4361POPC   C3B57261   4.540  16.944   6.913
 4361POPC   C4B57262   4.539  16.713   7.278
 4362POPC   NC357263   7.769  36.329   5.444
 4362POPC   PO457264   8.413  36.243   5.341
 4362POPC   GL157265   8.151  36.120   5.716
 4362POPC   GL257266   8.048  36.413   5.860
 4362POPC   C1A57267   8.025  35.852   6.097
 4362POPC   D2A57268   8.017  35.636   6.524
 4362POPC   C3A57269   8.146  35.776   6.983
 4362POPC   C4A57270   8.495  35.879   7.286
 4362POPC   C1B57271   8.269  36.281   6.220
 4362POPC   C2B57272   8.213  36.117   6.616
 4362POPC   C3B57273   8.235  36.286   7.037
 4362POPC   C4B57274   8.253  36.554   7.381
 4363POPC   NC357275   0.094  36.410   5.597
 4363POPC   PO457276   0.692  36.316   5.341
 4363POPC   GL157277   0.504  36.162   5.770
 4363POPC   GL257278   0.357  35.847   5.970
 4363POPC   C1A57279   0.330  36.294   6.186
 4363POPC   D2A57280   0.506  36.250   6.576
 4363POPC   C3A57281   0.277  36.311   6.959
 4363POPC   C4A57282   0.451  36.388   7.343
 4363POPC   C1B57283   0.747  35.953   6.186
 4363POPC   C2B57284   0.864  35.889   6.618
 4363POPC   C3B57285   0.605  35.925   6.996
 4363POPC   C4B57286   0.670  35.937   7.432
 4364POPC   NC357287  36.934  28.489   5.324
 4364POPC   PO457288  36.838  27.798   5.335
 4364POPC   GL157289  36.868  28.140   5.697
 4364POPC   GL257290  36.629  28.456   5.758
 4364POPC   C1A57291  37.003  28.356   6.095
 4364POPC   D2A57292  36.817  28.354   6.528
 4364POPC   C3A57293  37.094  28.246   6.865
 4364POPC   C4A57294  37.061  28.198   7.298
 4364POPC   C1B57295  36.592  28.711   6.144
 4364POPC   C2B57296  36.709  28.853   6.578
 4364POPC   C3B57297  36.653  28.625   6.968
 4364POPC   C4B57298  36.746  28.592   7.417
 4365POPC   NC357299   0.859  41.294   5.223
 4365POPC   PO457300   1.094  40.705   5.514
 4365POPC   GL157301   1.168  40.735   5.929
 4365POPC   GL257302   1.380  41.015   5.841
 4365POPC   C1A57303   1.015  40.871   6.336
 4365POPC   D2A57304   1.224  40.748   6.709
 4365POPC   C3A57305   1.019  40.694   7.081
 4365POPC   C4A57306   1.157  40.760   7.499
 4365POPC   C1B57307   1.508  40.938   6.268
 4365POPC   C2B57308   1.403  41.220   6.649
 4365POPC   C3B57309   1.306  41.109   7.110
 4365POPC   C4B57310   1.352  41.205   7.615
 4366POPC   NC357311  32.668  20.014   5.329
 4366POPC   PO457312  32.356  19.458   5.532
 4366POPC   GL157313  32.450  19.738   5.797
 4366POPC   GL257314  32.624  19.436   5.956
 4366POPC   C1A57315  32.207  19.949   6.135
 4366POPC   D2A57316  32.038  19.817   6.537
 4366POPC   C3A57317  31.947  20.040   6.901
 4366POPC   C4A57318  32.208  20.368   7.069
 4366POPC   C1B57319  32.237  19.412   6.220
 4366POPC   C2B57320  32.113  19.337   6.670
 4366POPC   C3B57321  32.352  19.394   7.028
 4366POPC   C4B57322  32.394  19.573   7.425
 4367POPC   NC357323  34.097  20.931   5.262
 4367POPC   PO457324  33.444  20.978   5.477
 4367POPC   GL157325  33.581  20.623   5.709
 4367POPC   GL257326  33.884  20.425   5.622
 4367POPC   C1A57327  33.721  20.572   6.113
 4367POPC   D2A57328  33.600  20.689   6.521
 4367POPC   C3A57329  33.882  20.934   6.738
 4367POPC   C4A57330  34.086  20.891   7.100
 4367POPC   C1B57331  34.149  20.338   6.005
 4367POPC   C2B57332  34.103  20.480   6.459
 4367POPC   C3B57333  33.910  20.415   6.875
 4367POPC   C4B57334  34.016  20.058   7.164
 4368POPC   NC357335  30.499  24.811   5.306
 4368POPC   PO457336  31.134  24.682   5.174
 4368POPC   GL157337  30.903  24.577   5.603
 4368POPC   GL257338  31.049  24.732   5.886
 4368POPC   C1A57339  30.584  24.601   6.016
 4368POPC   D2A57340  30.705  24.705   6.495
 4368POPC   C3A57341  30.498  24.561   6.921
 4368POPC   C4A57342  30.630  24.590   7.405
 4368POPC   C1B57343  30.981  24.339   6.201
 4368POPC   C2B57344  30.864  24.243   6.656
 4368POPC   C3B57345  30.997  24.570   7.002
 4368POPC   C4B57346  31.315  24.743   7.272
 4369POPC   NC357347   6.290  38.637   5.227
 4369POPC   PO457348   6.894  38.216   5.307
 4369POPC   GL157349   6.696  38.071   5.697
 4369POPC   GL257350   7.078  38.094   5.772
 4369POPC   C1A57351   6.404  38.098   6.127
 4369POPC   D2A57352   6.353  38.072   6.632
 4369POPC   C3A57353   6.519  38.443   6.908
 4369POPC   C4A57354   6.609  38.863   7.180
 4369POPC   C1B57355   6.913  38.001   6.154
 4369POPC   C2B57356   6.853  38.206   6.519
 4369POPC   C3B57357   6.907  38.045   6.898
 4369POPC   C4B57358   6.823  38.266   7.267
 4370POPC   NC357359  19.685   4.988   5.413
 4370POPC   PO457360  20.236   5.292   5.420
 4370POPC   GL157361  20.065   5.235   5.817
 4370POPC   GL257362  19.944   4.898   5.891
 4370POPC   C1A57363  19.795   5.311   6.188
 4370POPC   D2A57364  19.663   5.171   6.604
 4370POPC   C3A57365  19.840   5.245   7.023
 4370POPC   C4A57366  20.066   5.362   7.417
 4370POPC   C1B57367  19.669   4.774   6.230
 4370POPC   C2B57368  19.326   4.782   6.566
 4370POPC   C3B57369  19.361   4.978   6.992
 4370POPC   C4B57370  19.375   4.823   7.418
 4371POPC   NC357371  27.363  16.215   5.341
 4371POPC   PO457372  27.617  16.823   5.241
 4371POPC   GL157373  27.638  16.806   5.691
 4371POPC   GL257374  27.386  16.539   5.763
 4371POPC   C1A57375  27.732  16.684   6.126
 4371POPC   D2A57376  27.851  16.858   6.526
 4371POPC   C3A57377  27.811  16.618   6.915
 4371POPC   C4A57378  27.623  16.534   7.314
 4371POPC   C1B57379  27.236  16.615   6.201
 4371POPC   C2B57380  27.345  16.791   6.617
 4371POPC   C3B57381  27.285  16.821   7.065
 4371POPC   C4B57382  27.144  16.555   7.422
 4372POPC   NC357383  28.964  22.008   5.409
 4372POPC   PO457384  28.323  21.933   5.392
 4372POPC   GL157385  28.464  22.036   5.845
 4372POPC   GL257386  28.805  22.211   5.878
 4372POPC   C1A57387  28.448  22.124   6.334
 4372POPC   D2A57388  28.470  22.036   6.818
 4372POPC   C3A57389  28.169  22.156   7.163
 4372POPC   C4A57390  28.203  22.389   7.555
 4372POPC   C1B57391  28.856  22.458   6.285
 4372POPC   C2B57392  28.796  22.545   6.730
 4372POPC   C3B57393  28.632  22.436   7.146
 4372POPC   C4B57394  28.718  22.536   7.559
 4373POPC   NC357395   2.858  10.539   5.395
 4373POPC   PO457396   2.235  10.447   5.531
 4373POPC   GL157397   2.627  10.322   5.784
 4373POPC   GL257398   2.676  10.671   5.897
 4373POPC   C1A57399   2.995  10.333   6.114
 4373POPC   D2A57400   3.026  10.622   6.454
 4373POPC   C3A57401   2.956  10.414   6.829
 4373POPC   C4A57402   2.965  10.444   7.244
 4373POPC   C1B57403   2.536  10.469   6.296
 4373POPC   C2B57404   2.458  10.448   6.734
 4373POPC   C3B57405   2.442  10.467   7.170
 4373POPC   C4B57406   2.537  10.735   7.528
 4374POPC   NC357407  41.153  41.532   5.591
 4374POPC   PO457408  40.523  41.767   5.476
 4374POPC   GL157409  40.687  41.634   5.885
 4374POPC   GL257410  40.866  41.320   5.949
 4374POPC   C1A57411  40.479  41.618   6.289
 4374POPC   D2A57412  40.184  41.727   6.597
 4374POPC   C3A57413  40.441  41.636   6.960
 4374POPC   C4A57414  40.731  41.500   7.268
 4374POPC   C1B57415  40.954  41.457   6.386
 4374POPC   C2B57416  41.042  41.540   6.833
 4374POPC   C3B57417  41.171  41.281   7.174
 4374POPC   C4B57418  41.039  41.181   7.566
 4375POPC   NC357419  23.213   2.511   5.540
 4375POPC   PO457420  22.502   2.355   5.539
 4375POPC   GL157421  22.781   2.619   5.771
 4375POPC   GL257422  23.053   2.443   6.009
 4375POPC   C1A57423  22.889   2.897   6.130
 4375POPC   D2A57424  22.828   3.030   6.552
 4375POPC   C3A57425  22.964   2.893   6.963
 4375POPC   C4A57426  22.726   2.928   7.347
 4375POPC   C1B57427  22.631   2.443   6.210
 4375POPC   C2B57428  22.507   2.338   6.611
 4375POPC   C3B57429  22.626   2.512   6.982
 4375POPC   C4B57430  22.643   2.413   7.388
 4376POPC   NC357431  11.304  41.113   5.420
 4376POPC   PO457432  11.415  40.477   5.327
 4376POPC   GL157433  11.516  40.679   5.699
 4376POPC   GL257434  11.173  40.748   5.808
 4376POPC   C1A57435  11.548  40.874   6.109
 4376POPC   D2A57436  11.586  40.990   6.523
 4376POPC   C3A57437  11.556  40.724   6.874
 4376POPC   C4A57438  11.438  40.828   7.283
 4376POPC   C1B57439  10.954  40.766   6.210
 4376POPC   C2B57440  11.125  40.791   6.599
 4376POPC   C3B57441  11.062  40.666   6.998
 4376POPC   C4B57442  11.061  40.517   7.399
 4377POPC   NC357443  39.181   5.330   5.293
 4377POPC   PO457444  39.329   4.718   5.483
 4377POPC   GL157445  39.430   5.089   5.688
 4377POPC   GL257446  39.066   5.092   5.731
 4377POPC   C1A57447  39.447   5.135   6.131
 4377POPC   D2A57448  39.380   4.912   6.518
 4377POPC   C3A57449  39.447   5.069   6.925
 4377POPC   C4A57450  39.568   5.254   7.339
 4377POPC   C1B57451  38.965   4.990   6.139
 4377POPC   C2B57452  38.896   5.106   6.563
 4377POPC   C3B57453  38.934   4.934   6.947
 4377POPC   C4B57454  39.120   4.953   7.333
 4378POPC   NC357455   1.951  25.830   5.378
 4378POPC   PO457456   1.976  25.128   5.613
 4378POPC   GL157457   1.951  25.540   5.832
 4378POPC   GL257458   1.591  25.630   5.758
 4378POPC   C1A57459   2.059  25.662   6.295
 4378POPC   D2A57460   1.995  25.363   6.641
 4378POPC   C3A57461   2.119  25.391   7.064
 4378POPC   C4A57462   1.908  25.228   7.388
 4378POPC   C1B57463   1.598  25.457   6.185
 4378POPC   C2B57464   1.567  25.626   6.593
 4378POPC   C3B57465   1.606  25.377   6.997
 4378POPC   C4B57466   1.458  25.034   7.267
 4379POPC   NC357467  38.522  31.298   5.397
 4379POPC   PO457468  38.175  31.878   5.398
 4379POPC   GL157469  38.425  31.624   5.777
 4379POPC   GL257470  38.279  31.260   5.854
 4379POPC   C1A57471  38.694  31.404   6.134
 4379POPC   D2A57472  38.532  31.137   6.496
 4379POPC   C3A57473  38.599  31.278   6.934
 4379POPC   C4A57474  38.429  31.475   7.315
 4379POPC   C1B57475  38.211  31.489   6.266
 4379POPC   C2B57476  38.381  31.722   6.667
 4379POPC   C3B57477  38.186  31.898   7.087
 4379POPC   C4B57478  38.166  31.842   7.543
 4380POPC   NC357479  16.223  11.630   5.398
 4380POPC   PO457480  15.727  12.128   5.492
 4380POPC   GL157481  16.066  12.017   5.770
 4380POPC   GL257482  16.259  12.320   5.845
 4380POPC   C1A57483  16.073  11.963   6.215
 4380POPC   D2A57484  15.895  11.765   6.539
 4380POPC   C3A57485  16.044  11.858   6.933
 4380POPC   C4A57486  16.236  11.569   7.197
 4380POPC   C1B57487  15.998  12.460   6.221
 4380POPC   C2B57488  15.881  12.285   6.619
 4380POPC   C3B57489  15.954  12.355   7.037
 4380POPC   C4B57490  15.748  12.440   7.402
 4381POPC   NC357491  19.485   7.652   5.481
 4381POPC   PO457492  18.967   7.232   5.437
 4381POPC   GL157493  19.030   7.485   5.771
 4381POPC   GL257494  18.993   7.827   5.672
 4381POPC   C1A57495  19.198   7.410   6.151
 4381POPC   D2A57496  19.277   7.257   6.541
 4381POPC   C3A57497  18.937   7.251   6.811
 4381POPC   C4A57498  18.781   6.979   7.111
 4381POPC   C1B57499  18.918   7.870   6.141
 4381POPC   C2B57500  18.962   7.669   6.542
 4381POPC   C3B57501  19.024   7.721   7.006
 4381POPC   C4B57502  19.376   7.780   7.312
 4382POPC   NC357503  15.895  10.753   5.048
 4382POPC   PO457504  16.029  11.177   5.550
 4382POPC   GL157505  15.838  11.220   5.931
 4382POPC   GL257506  16.063  11.515   5.977
 4382POPC   C1A57507  15.852  11.250   6.399
 4382POPC   D2A57508  16.153  11.334   6.714
 4382POPC   C3A57509  16.173  11.019   7.035
 4382POPC   C4A57510  15.968  11.146   7.400
 4382POPC   C1B57511  15.609  11.633   6.121
 4382POPC   C2B57512  15.430  11.555   6.545
 4382POPC   C3B57513  15.704  11.470   6.908
 4382POPC   C4B57514  15.746  11.597   7.299
 4383POPC   NC357515  44.617  24.045   5.274
 4383POPC   PO457516  44.654  24.682   5.093
 4383POPC   GL157517  44.661  24.493   5.593
 4383POPC   GL257518  44.880  24.226   5.711
 4383POPC   C1A57519  44.705  24.643   6.076
 4383POPC   D2A57520  44.624  24.488   6.525
 4383POPC   C3A57521  44.643  24.705   6.899
 4383POPC   C4A57522   0.068  24.791   7.092
 4383POPC   C1B57523  44.742  24.121   6.165
 4383POPC   C2B57524  44.881  24.023   6.599
 4383POPC   C3B57525  44.973  24.267   6.982
 4383POPC   C4B57526  44.742  24.464   7.318
 4384POPC   NC357527  34.029  19.332   5.690
 4384POPC   PO457528  33.315  19.382   5.487
 4384POPC   GL157529  33.460  19.032   5.789
 4384POPC   GL257530  33.671  18.730   5.913
 4384POPC   C1A57531  33.505  19.044   6.261
 4384POPC   D2A57532  33.757  18.943   6.647
 4384POPC   C3A57533  33.592  18.967   7.050
 4384POPC   C4A57534  33.316  19.214   7.246
 4384POPC   C1B57535  34.013  18.835   6.215
 4384POPC   C2B57536  34.195  18.694   6.612
 4384POPC   C3B57537  34.087  18.801   7.045
 4384POPC   C4B57538  33.976  19.130   7.358
 4385POPC   NC357539  39.369  31.097   5.571
 4385POPC   PO457540  39.205  30.436   5.401
 4385POPC   GL157541  39.213  30.657   5.799
 4385POPC   GL257542  39.592  30.692   5.782
 4385POPC   C1A57543  39.367  30.892   6.191
 4385POPC   D2A57544  39.294  30.737   6.580
 4385POPC   C3A57545  39.313  30.911   6.974
 4385POPC   C4A57546  39.289  30.729   7.371
 4385POPC   C1B57547  39.549  30.394   6.122
 4385POPC   C2B57548  39.621  30.264   6.532
 4385POPC   C3B57549  39.583  30.465   6.907
 4385POPC   C4B57550  39.583  30.329   7.288
 4386POPC   NC357551  25.592  29.587   5.280
 4386POPC   PO457552  25.391  28.981   5.399
 4386POPC   GL157553  25.370  29.228   5.765
 4386POPC   GL257554  25.676  29.431   5.783
 4386POPC   C1A57555  25.126  29.297   6.161
 4386POPC   D2A57556  25.053  29.551   6.534
 4386POPC   C3A57557  24.906  29.359   6.907
 4386POPC   C4A57558  25.115  29.119   7.232
 4386POPC   C1B57559  25.641  29.179   6.200
 4386POPC   C2B57560  25.419  29.124   6.564
 4386POPC   C3B57561  25.550  28.989   6.949
 4386POPC   C4B57562  25.436  28.704   7.254
 4387POPC   NC357563  37.524  39.507   5.368
 4387POPC   PO457564  37.914  38.873   5.362
 4387POPC   GL157565  37.713  39.129   5.737
 4387POPC   GL257566  37.635  39.475   5.859
 4387POPC   C1A57567  37.838  39.145   6.200
 4387POPC   D2A57568  37.600  39.202   6.600
 4387POPC   C3A57569  37.774  39.327   6.968
 4387POPC   C4A57570  37.997  39.048   7.230
 4387POPC   C1B57571  37.353  39.274   6.169
 4387POPC   C2B57572  37.163  39.479   6.545
 4387POPC   C3B57573  37.225  39.347   6.984
 4387POPC   C4B57574  37.456  39.339   7.386
 4388POPC   NC357575  21.090   4.354   5.114
 4388POPC   PO457576  21.615   4.527   5.510
 4388POPC   GL157577  21.204   4.428   5.715
 4388POPC   GL257578  21.001   4.115   5.582
 4388POPC   C1A57579  21.262   4.444   6.182
 4388POPC   D2A57580  21.568   4.361   6.527
 4388POPC   C3A57581  21.411   4.247   6.922
 4388POPC   C4A57582  21.618   4.290   7.311
 4388POPC   C1B57583  20.986   4.007   6.031
 4388POPC   C2B57584  20.990   4.089   6.488
 4388POPC   C3B57585  20.934   3.996   6.944
 4388POPC   C4B57586  21.219   3.962   7.305
 4389POPC   NC357587   3.795  41.807   4.869
 4389POPC   PO457588   4.313  41.449   5.310
 4389POPC   GL157589   4.276  41.422   5.768
 4389POPC   GL257590   4.574  41.228   5.835
 4389POPC   C1A57591   4.158  41.669   6.165
 4389POPC   D2A57592   4.447  41.869   6.407
 4389POPC   C3A57593   4.436  41.868   6.880
 4389POPC   C4A57594   4.027  41.668   7.079
 4389POPC   C1B57595   4.488  41.326   6.273
 4389POPC   C2B57596   4.330  41.430   6.654
 4389POPC   C3B57597   4.428  41.352   7.085
 4389POPC   C4B57598   4.312  41.313   7.526
 4390POPC   NC357599   9.612  18.016   5.379
 4390POPC   PO457600   9.230  18.565   5.438
 4390POPC   GL157601   9.466  18.365   5.807
 4390POPC   GL257602   9.773  18.157   5.853
 4390POPC   C1A57603   9.592  18.467   6.247
 4390POPC   D2A57604   9.607  18.643   6.669
 4390POPC   C3A57605   9.915  18.491   6.976
 4390POPC   C4A57606   9.863  18.387   7.406
 4390POPC   C1B57607   9.534  17.957   6.209
 4390POPC   C2B57608   9.400  18.132   6.616
 4390POPC   C3B57609   9.506  18.180   7.021
 4390POPC   C4B57610   9.505  17.833   7.253
 4391POPC   NC357611  36.143  31.884   5.573
 4391POPC   PO457612  35.895  31.292   5.474
 4391POPC   GL157613  36.217  31.358   5.791
 4391POPC   GL257614  36.544  31.530   5.736
 4391POPC   C1A57615  36.142  31.368   6.228
 4391POPC   D2A57616  36.088  31.659   6.566
 4391POPC   C3A57617  36.099  31.403   6.949
 4391POPC   C4A57618  35.977  31.447   7.392
 4391POPC   C1B57619  36.514  31.716   6.170
 4391POPC   C2B57620  36.699  31.947   6.522
 4391POPC   C3B57621  36.454  31.863   6.886
 4391POPC   C4B57622  36.400  31.666   7.290
 4392POPC   NC357623  33.217  18.952   5.316
 4392POPC   PO457624  32.660  19.265   5.144
 4392POPC   GL157625  32.777  19.018   5.604
 4392POPC   GL257626  32.921  18.716   5.683
 4392POPC   C1A57627  33.014  19.106   6.024
 4392POPC   D2A57628  32.876  19.338   6.382
 4392POPC   C3A57629  33.012  19.319   6.801
 4392POPC   C4A57630  32.824  19.301   7.198
 4392POPC   C1B57631  33.180  18.629   6.049
 4392POPC   C2B57632  33.108  18.805   6.477
 4392POPC   C3B57633  33.012  18.810   6.908
 4392POPC   C4B57634  32.976  18.832   7.325
 4393POPC   NC357635   3.861  32.781   5.431
 4393POPC   PO457636   4.470  33.153   5.421
 4393POPC   GL157637   4.228  33.146   5.768
 4393POPC   GL257638   4.523  33.246   5.950
 4393POPC   C1A57639   4.073  32.956   6.140
 4393POPC   D2A57640   4.135  33.163   6.494
 4393POPC   C3A57641   4.064  32.952   6.868
 4393POPC   C4A57642   4.189  33.114   7.231
 4393POPC   C1B57643   4.597  32.915   6.225
 4393POPC   C2B57644   4.441  32.735   6.590
 4393POPC   C3B57645   4.588  32.774   7.010
 4393POPC   C4B57646   4.544  32.873   7.474
 4394POPC   NC357647  10.021  21.108   5.441
 4394POPC   PO457648   9.512  21.667   5.464
 4394POPC   GL157649   9.536  21.432   5.843
 4394POPC   GL257650   9.876  21.298   5.912
 4394POPC   C1A57651   9.505  21.525   6.274
 4394POPC   D2A57652   9.391  21.554   6.727
 4394POPC   C3A57653   9.698  21.391   7.048
 4394POPC   C4A57654  10.001  21.459   7.386
 4394POPC   C1B57655  10.037  21.063   6.302
 4394POPC   C2B57656  10.117  21.191   6.736
 4394POPC   C3B57657  10.248  21.099   7.133
 4394POPC   C4B57658  10.171  21.007   7.540
 4395POPC   NC357659   2.949  16.746   5.332
 4395POPC   PO457660   2.413  16.391   5.299
 4395POPC   GL157661   2.615  16.583   5.684
 4395POPC   GL257662   2.944  16.481   5.784
 4395POPC   C1A57663   2.685  16.879   6.034
 4395POPC   D2A57664   2.718  16.731   6.466
 4395POPC   C3A57665   2.705  16.965   6.837
 4395POPC   C4A57666   2.494  17.009   7.214
 4395POPC   C1B57667   2.871  16.319   6.194
 4395POPC   C2B57668   2.776  16.162   6.593
 4395POPC   C3B57669   2.897  16.171   7.026
 4395POPC   C4B57670   2.676  16.527   7.169
 4396POPC   NC357671  24.864  14.918   5.329
 4396POPC   PO457672  24.437  15.416   5.428
 4396POPC   GL157673  24.574  15.130   5.764
 4396POPC   GL257674  24.942  15.200   5.795
 4396POPC   C1A57675  24.382  14.881   6.138
 4396POPC   D2A57676  24.427  14.731   6.579
 4396POPC   C3A57677  24.344  14.997   6.942
 4396POPC   C4A57678  24.291  15.170   7.373
 4396POPC   C1B57679  24.774  15.197   6.237
 4396POPC   C2B57680  24.771  15.123   6.690
 4396POPC   C3B57681  24.740  15.250   7.138
 4396POPC   C4B57682  24.743  15.208   7.624
 4397POPC   NC357683  15.444   9.335   5.387
 4397POPC   PO457684  15.128   8.809   5.302
 4397POPC   GL157685  15.296   8.889   5.725
 4397POPC   GL257686  15.260   8.577   5.881
 4397POPC   C1A57687  15.297   9.012   6.181
 4397POPC   D2A57688  15.406   8.916   6.626
 4397POPC   C3A57689  15.150   9.147   6.900
 4397POPC   C4A57690  15.003   9.237   7.299
 4397POPC   C1B57691  15.548   8.573   6.205
 4397POPC   C2B57692  15.631   8.444   6.609
 4397POPC   C3B57693  15.603   8.560   7.057
 4397POPC   C4B57694  15.248   8.779   7.265
 4398POPC   NC357695  36.141  19.834   5.252
 4398POPC   PO457696  36.653  20.265   5.087
 4398POPC   GL157697  36.397  20.190   5.549
 4398POPC   GL257698  36.077  19.996   5.720
 4398POPC   C1A57699  36.347  20.248   6.058
 4398POPC   D2A57700  36.142  20.047   6.444
 4398POPC   C3A57701  36.121  20.086   6.908
 4398POPC   C4A57702  36.008  20.025   7.326
 4398POPC   C1B57703  35.823  19.860   6.099
 4398POPC   C2B57704  35.888  19.625   6.528
 4398POPC   C3B57705  35.866  19.642   7.007
 4398POPC   C4B57706  36.039  19.531   7.446
 4399POPC   NC357707   3.558  29.337   5.194
 4399POPC   PO457708   3.369  28.934   5.621
 4399POPC   GL157709   3.728  29.130   5.775
 4399POPC   GL257710   3.731  29.456   5.733
 4399POPC   C1A57711   3.921  29.208   6.162
 4399POPC   D2A57712   3.822  29.452   6.547
 4399POPC   C3A57713   3.892  29.276   6.970
 4399POPC   C4A57714   3.704  29.116   7.353
 4399POPC   C1B57715   3.440  29.362   6.129
 4399POPC   C2B57716   3.346  29.214   6.549
 4399POPC   C3B57717   3.368  29.318   6.995
 4399POPC   C4B57718   3.576  29.640   7.254
 4400POPC   NC357719   3.087   8.908   5.456
 4400POPC   PO457720   2.486   8.984   5.175
 4400POPC   GL157721   2.590   8.935   5.652
 4400POPC   GL257722   2.840   9.162   5.846
 4400POPC   C1A57723   2.575   8.831   6.127
 4400POPC   D2A57724   2.444   8.936   6.580
 4400POPC   C3A57725   2.682   8.841   6.973
 4400POPC   C4A57726   2.981   8.670   7.282
 4400POPC   C1B57727   3.081   9.298   6.242
 4400POPC   C2B57728   3.202   9.174   6.676
 4400POPC   C3B57729   3.086   9.135   7.124
 4400POPC   C4B57730   3.104   9.220   7.605
 4401POPC   NC357731  18.572   1.997   5.408
 4401POPC   PO457732  17.928   1.823   5.197
 4401POPC   GL157733  18.094   1.825   5.711
 4401POPC   GL257734  18.437   1.975   5.893
 4401POPC   C1A57735  18.016   2.026   6.160
 4401POPC   D2A57736  18.223   2.132   6.568
 4401POPC   C3A57737  18.190   1.781   6.861
 4401POPC   C4A57738  17.827   1.652   7.087
 4401POPC   C1B57739  18.681   2.246   6.209
 4401POPC   C2B57740  18.668   2.414   6.647
 4401POPC   C3B57741  18.618   2.284   7.073
 4401POPC   C4B57742  18.314   2.052   7.284
 4402POPC   NC357743  28.563  18.868   5.331
 4402POPC   PO457744  28.031  19.065   5.720
 4402POPC   GL157745  28.378  19.223   5.922
 4402POPC   GL257746  28.552  18.937   5.832
 4402POPC   C1A57747  28.643  19.141   6.292
 4402POPC   D2A57748  28.728  19.010   6.706
 4402POPC   C3A57749  28.468  19.225   6.995
 4402POPC   C4A57750  28.254  19.404   7.360
 4402POPC   C1B57751  28.371  18.690   6.155
 4402POPC   C2B57752  28.342  18.668   6.573
 4402POPC   C3B57753  28.468  18.646   6.964
 4402POPC   C4B57754  28.290  18.842   7.284
 4403POPC   NC357755  26.027  17.798   5.594
 4403POPC   PO457756  26.341  17.212   5.507
 4403POPC   GL157757  26.195  17.410   5.909
 4403POPC   GL257758  25.827  17.478   5.930
 4403POPC   C1A57759  26.215  17.523   6.366
 4403POPC   D2A57760  26.340  17.588   6.799
 4403POPC   C3A57761  26.035  17.413   7.091
 4403POPC   C4A57762  26.099  17.132   7.448
 4403POPC   C1B57763  25.803  17.812   6.258
 4403POPC   C2B57764  25.853  17.763   6.707
 4403POPC   C3B57765  26.041  17.925   7.062
 4403POPC   C4B57766  25.991  17.782   7.483
 4404POPC   NC357767   0.150  44.810   5.405
 4404POPC   PO457768   0.536  44.497   4.979
 4404POPC   GL157769   0.554  44.549   5.539
 4404POPC   GL257770   0.608  44.888   5.678
 4404POPC   C1A57771   0.385  44.522   6.000
 4404POPC   D2A57772   0.268  44.668   6.440
 4404POPC   C3A57773   0.451  44.474   6.829
 4404POPC   C4A57774   0.312  44.392   7.267
 4404POPC   C1B57775   0.547   0.003   6.122
 4404POPC   C2B57776   0.675  44.968   6.557
 4404POPC   C3B57777   0.768  44.862   6.980
 4404POPC   C4B57778   0.576  44.813   7.368
 4405POPC   NC357779  20.324   7.120   5.370
 4405POPC   PO457780  20.907   7.560   5.200
 4405POPC   GL157781  20.944   7.508   5.665
 4405POPC   GL257782  20.604   7.388   5.798
 4405POPC   C1A57783  21.006   7.446   6.136
 4405POPC   D2A57784  20.689   7.531   6.484
 4405POPC   C3A57785  20.751   7.536   6.945
 4405POPC   C4A57786  20.783   7.785   7.336
 4405POPC   C1B57787  20.310   7.432   6.172
 4405POPC   C2B57788  20.257   7.252   6.628
 4405POPC   C3B57789  20.315   7.277   7.112
 4405POPC   C4B57790  20.118   7.223   7.517
 4406POPC   NC357791  10.187  28.310   5.381
 4406POPC   PO457792  10.689  28.692   5.178
 4406POPC   GL157793  10.611  28.495   5.640
 4406POPC   GL257794  10.910  28.270   5.698
 4406POPC   C1A57795  10.294  28.321   6.028
 4406POPC   D2A57796  10.146  28.200   6.503
 4406POPC   C3A57797  10.404  27.998   6.807
 4406POPC   C4A57798  10.502  28.244   7.171
 4406POPC   C1B57799  10.766  28.203   6.106
 4406POPC   C2B57800  10.636  28.356   6.524
 4406POPC   C3B57801  10.872  28.533   6.872
 4406POPC   C4B57802  10.975  28.624   7.303
 4407POPC   NC357803  16.358   6.136   5.444
 4407POPC   PO457804  15.700   6.281   5.253
 4407POPC   GL157805  15.874   6.062   5.619
 4407POPC   GL257806  16.056   6.325   5.796
 4407POPC   C1A57807  15.907   5.861   6.040
 4407POPC   D2A57808  15.896   5.552   6.392
 4407POPC   C3A57809  15.900   5.772   6.785
 4407POPC   C4A57810  15.875   5.833   7.213
 4407POPC   C1B57811  16.345   6.190   6.116
 4407POPC   C2B57812  16.209   6.035   6.495
 4407POPC   C3B57813  16.318   6.073   6.928
 4407POPC   C4B57814  16.347   5.958   7.369
 4408POPC   NC357815  13.133   5.121   5.445
 4408POPC   PO457816  12.472   5.039   5.377
 4408POPC   GL157817  12.689   5.284   5.720
 4408POPC   GL257818  12.964   5.097   5.936
 4408POPC   C1A57819  12.673   5.443   6.152
 4408POPC   D2A57820  12.916   5.304   6.493
 4408POPC   C3A57821  12.692   5.288   6.859
 4408POPC   C4A57822  12.884   5.126   7.207
 4408POPC   C1B57823  13.022   4.825   6.323
 4408POPC   C2B57824  13.053   4.827   6.796
 4408POPC   C3B57825  12.998   4.641   7.221
 4408POPC   C4B57826  12.915   4.456   7.668
 4409POPC   NC357827  33.346  11.917   5.460
 4409POPC   PO457828  33.885  12.242   5.242
 4409POPC   GL157829  33.881  12.131   5.669
 4409POPC   GL257830  33.794  11.783   5.747
 4409POPC   C1A57831  33.778  12.156   6.110
 4409POPC   D2A57832  33.518  11.981   6.465
 4409POPC   C3A57833  33.684  12.159   6.847
 4409POPC   C4A57834  33.861  12.441   7.131
 4409POPC   C1B57835  33.873  11.660   6.201
 4409POPC   C2B57836  33.986  11.770   6.675
 4409POPC   C3B57837  33.973  11.775   7.144
 4409POPC   C4B57838  33.948  11.681   7.602
 4410POPC   NC357839  34.747  34.468   5.462
 4410POPC   PO457840  34.256  34.883   5.279
 4410POPC   GL157841  34.394  34.759   5.685
 4410POPC   GL257842  34.190  34.494   5.766
 4410POPC   C1A57843  34.645  34.612   6.098
 4410POPC   D2A57844  34.451  34.510   6.505
 4410POPC   C3A57845  34.671  34.525   6.886
 4410POPC   C4A57846  34.691  34.754   7.242
 4410POPC   C1B57847  34.183  34.814   6.140
 4410POPC   C2B57848  34.124  34.940   6.556
 4410POPC   C3B57849  34.177  34.759   6.923
 4410POPC   C4B57850  34.236  34.418   7.138
 4411POPC   NC357851  26.197  30.871   5.352
 4411POPC   PO457852  25.771  30.354   5.548
 4411POPC   GL157853  26.091  30.586   5.798
 4411POPC   GL257854  25.830  30.497   6.051
 4411POPC   C1A57855  26.096  30.892   6.186
 4411POPC   D2A57856  25.788  30.887   6.530
 4411POPC   C3A57857  25.847  30.650   6.921
 4411POPC   C4A57858  26.183  30.724   7.245
 4411POPC   C1B57859  26.179  30.363   6.251
 4411POPC   C2B57860  26.245  30.542   6.629
 4411POPC   C3B57861  26.262  30.291   7.006
 4411POPC   C4B57862  26.327  30.260   7.470
 4412POPC   NC357863  39.719  33.159   5.220
 4412POPC   PO457864  40.124  32.769   5.592
 4412POPC   GL157865  39.893  32.959   5.867
 4412POPC   GL257866  39.732  33.271   5.726
 4412POPC   C1A57867  40.010  32.972   6.302
 4412POPC   D2A57868  40.176  32.788   6.671
 4412POPC   C3A57869  40.135  33.065   7.002
 4412POPC   C4A57870  40.397  33.431   7.093
 4412POPC   C1B57871  39.579  33.221   6.162
 4412POPC   C2B57872  39.506  33.508   6.516
 4412POPC   C3B57873  39.536  33.398   6.950
 4412POPC   C4B57874  39.583  32.950   7.031
 4413POPC   NC357875  41.005   3.147   5.205
 4413POPC   PO457876  40.932   3.796   5.393
 4413POPC   GL157877  41.014   3.492   5.761
 4413POPC   GL257878  40.965   3.115   5.721
 4413POPC   C1A57879  40.948   3.476   6.236
 4413POPC   D2A57880  41.213   3.547   6.628
 4413POPC   C3A57881  41.014   3.790   6.953
 4413POPC   C4A57882  40.665   3.828   7.258
 4413POPC   C1B57883  40.681   3.005   6.095
 4413POPC   C2B57884  40.525   3.001   6.541
 4413POPC   C3B57885  40.719   3.026   6.952
 4413POPC   C4B57886  40.872   3.349   7.222
 4414POPC   NC357887  32.707  40.021   5.343
 4414POPC   PO457888  32.127  40.333   5.337
 4414POPC   GL157889  32.237  40.070   5.709
 4414POPC   GL257890  32.044  39.747   5.739
 4414POPC   C1A57891  32.184  40.056   6.172
 4414POPC   D2A57892  32.323  39.907   6.583
 4414POPC   C3A57893  32.108  40.119   6.918
 4414POPC   C4A57894  32.105  40.081   7.324
 4414POPC   C1B57895  32.176  39.564   6.145
 4414POPC   C2B57896  31.988  39.493   6.542
 4414POPC   C3B57897  32.052  39.615   6.970
 4414POPC   C4B57898  32.008  39.584   7.411
 4415POPC   NC357899  21.651  10.950   5.635
 4415POPC   PO457900  22.227  11.408   5.401
 4415POPC   GL157901  21.983  11.346   5.777
 4415POPC   GL257902  22.089  11.035   5.929
 4415POPC   C1A57903  21.850  11.301   6.257
 4415POPC   D2A57904  22.121  11.422   6.563
 4415POPC   C3A57905  22.051  11.355   6.965
 4415POPC   C4A57906  22.220  11.034   7.180
 4415POPC   C1B57907  22.354  11.069   6.271
 4415POPC   C2B57908  22.443  11.042   6.703
 4415POPC   C3B57909  22.664  10.847   7.009
 4415POPC   C4B57910  22.724  10.955   7.408
 4416POPC   NC357911  16.244  13.400   5.399
 4416POPC   PO457912  15.631  13.481   5.651
 4416POPC   GL157913  15.995  13.600   5.847
 4416POPC   GL257914  16.100  13.916   5.720
 4416POPC   C1A57915  16.022  13.645   6.280
 4416POPC   D2A57916  15.745  13.722   6.608
 4416POPC   C3A57917  15.821  13.493   6.967
 4416POPC   C4A57918  15.711  13.606   7.377
 4416POPC   C1B57919  16.394  13.900   6.042
 4416POPC   C2B57920  16.542  13.786   6.450
 4416POPC   C3B57921  16.292  13.722   6.819
 4416POPC   C4B57922  16.233  13.601   7.259
 4417POPC   NC357923   1.076  36.289   5.068
 4417POPC   PO457924   1.583  35.863   5.374
 4417POPC   GL157925   1.338  35.895   5.795
 4417POPC   GL257926   1.046  36.151   5.741
 4417POPC   C1A57927   1.265  36.138   6.220
 4417POPC   D2A57928   1.254  36.220   6.677
 4417POPC   C3A57929   1.529  35.978   6.986
 4417POPC   C4A57930   1.264  35.669   7.189
 4417POPC   C1B57931   0.882  36.446   6.066
 4417POPC   C2B57932   0.928  36.576   6.516
 4417POPC   C3B57933   0.826  36.425   6.935
 4417POPC   C4B57934   1.062  36.131   7.139
 4418POPC   NC357935  21.401  42.590   5.099
 4418POPC   PO457936  21.073  42.207   5.588
 4418POPC   GL157937  21.322  42.576   5.698
 4418POPC   GL257938  21.098  42.613   5.904
 4418POPC   C1A57939  21.541  42.551   6.134
 4418POPC   D2A57940  21.477  42.450   6.597
 4418POPC   C3A57941  21.433  42.620   7.031
 4418POPC   C4A57942  21.517  42.397   7.428
 4418POPC   C1B57943  21.052  42.432   6.324
 4418POPC   C2B57944  20.988  42.451   6.802
 4418POPC   C3B57945  21.031  42.353   7.257
 4418POPC   C4B57946  21.043  42.608   7.639
 4419POPC   NC357947   2.741  26.311   5.431
 4419POPC   PO457948   3.029  25.705   5.430
 4419POPC   GL157949   2.756  25.868   5.772
 4419POPC   GL257950   2.429  25.730   5.881
 4419POPC   C1A57951   2.679  26.094   6.163
 4419POPC   D2A57952   2.817  25.971   6.573
 4419POPC   C3A57953   2.728  26.240   6.897
 4419POPC   C4A57954   2.997  26.208   7.235
 4419POPC   C1B57955   2.559  25.608   6.303
 4419POPC   C2B57956   2.432  25.608   6.733
 4419POPC   C3B57957   2.406  25.869   7.083
 4419POPC   C4B57958   2.637  25.905   7.461
 4420POPC   NC357959   8.839  41.910   5.522
 4420POPC   PO457960   9.195  41.363   5.381
 4420POPC   GL157961   9.000  41.448   5.750
 4420POPC   GL257962   8.634  41.422   5.714
 4420POPC   C1A57963   9.140  41.677   6.117
 4420POPC   D2A57964   9.140  41.510   6.539
 4420POPC   C3A57965   9.290  41.713   6.923
 4420POPC   C4A57966   9.095  41.725   7.351
 4420POPC   C1B57967   8.698  41.439   6.176
 4420POPC   C2B57968   8.656  41.646   6.593
 4420POPC   C3B57969   8.803  41.549   6.982
 4420POPC   C4B57970   8.594  41.503   7.356
 4421POPC   NC357971  14.270  15.965   5.339
 4421POPC   PO457972  14.957  16.108   5.414
 4421POPC   GL157973  14.571  16.125   5.737
 4421POPC   GL257974  14.320  15.843   5.837
 4421POPC   C1A57975  14.407  16.206   6.180
 4421POPC   D2A57976  14.481  16.016   6.614
 4421POPC   C3A57977  14.188  16.163   6.932
 4421POPC   C4A57978  14.142  16.268   7.359
 4421POPC   C1B57979  14.258  15.574   6.207
 4421POPC   C2B57980  14.205  15.568   6.661
 4421POPC   C3B57981  14.476  15.642   7.018
 4421POPC   C4B57982  14.658  16.035   7.158
 4422POPC   NC357983   4.488   8.506   5.332
 4422POPC   PO457984   3.926   8.110   5.421
 4422POPC   GL157985   4.255   7.988   5.756
 4422POPC   GL257986   4.398   8.324   5.799
 4422POPC   C1A57987   4.406   7.955   6.214
 4422POPC   D2A57988   4.109   8.018   6.578
 4422POPC   C3A57989   4.225   7.989   7.030
 4422POPC   C4A57990   4.618   8.058   7.242
 4422POPC   C1B57991   4.135   8.377   6.153
 4422POPC   C2B57992   4.358   8.490   6.546
 4422POPC   C3B57993   4.442   8.459   6.975
 4422POPC   C4B57994   4.255   8.372   7.396
 4423POPC   NC357995  22.342  30.100   5.569
 4423POPC   PO457996  23.014  30.134   5.371
 4423POPC   GL157997  22.871  29.893   5.787
 4423POPC   GL257998  22.521  29.827   5.969
 4423POPC   C1A57999  22.942  29.995   6.240
 4423POPC   D2A58000  22.666  29.949   6.595
 4423POPC   C3A58001  22.955  29.967   6.920
 4423POPC   C4A58002  23.267  30.165   7.194
 4423POPC   C1B58003  22.761  29.534   6.258
 4423POPC   C2B58004  23.022  29.521   6.595
 4423POPC   C3B58005  22.926  29.460   7.010
 4423POPC   C4B58006  23.017  29.739   7.387
 4424POPC   NC358007  27.912  32.216   5.543
 4424POPC   PO458008  27.234  32.232   5.413
 4424POPC   GL158009  27.478  32.004   5.757
 4424POPC   GL258010  27.229  31.915   5.971
 4424POPC   C1A58011  27.650  31.961   6.238
 4424POPC   D2A58012  27.502  32.071   6.669
 4424POPC   C3A58013  27.778  32.050   7.024
 4424POPC   C4A58014  27.752  32.219   7.452
 4424POPC   C1B58015  27.417  32.385   6.099
 4424POPC   C2B58016  27.342  32.554   6.534
 4424POPC   C3B58017  27.440  32.484   6.997
 4424POPC   C4B58018  27.286  32.087   7.194
 4425POPC   NC358019  14.007   3.434   5.453
 4425POPC   PO458020  13.889   4.026   5.403
 4425POPC   GL158021  13.739   4.013   5.823
 4425POPC   GL258022  13.642   3.655   5.821
 4425POPC   C1A58023  13.794   3.875   6.269
 4425POPC   D2A58024  13.749   3.501   6.557
 4425POPC   C3A58025  13.711   3.639   6.979
 4425POPC   C4A58026  13.605   4.049   7.136
 4425POPC   C1B58027  13.377   3.602   6.206
 4425POPC   C2B58028  13.334   3.800   6.638
 4425POPC   C3B58029  13.209   3.674   7.075
 4425POPC   C4B58030  13.212   3.445   7.488
 4426POPC   NC358031   4.749  18.459   5.479
 4426POPC   PO458032   4.205  18.129   5.492
 4426POPC   GL158033   4.239  18.325   5.895
 4426POPC   GL258034   4.454  18.641   5.888
 4426POPC   C1A58035   4.440  18.334   6.295
 4426POPC   D2A58036   4.339  18.224   6.688
 4426POPC   C3A58037   4.614  18.322   7.015
 4426POPC   C4A58038   4.479  18.053   7.310
 4426POPC   C1B58039   4.120  18.726   6.225
 4426POPC   C2B58040   4.136  18.706   6.706
 4426POPC   C3B58041   4.131  18.446   7.115
 4426POPC   C4B58042   4.119  18.299   7.575
 4427POPC   NC358043   6.293  33.023   5.336
 4427POPC   PO458044   6.944  32.947   5.438
 4427POPC   GL158045   6.605  33.037   5.736
 4427POPC   GL258046   6.383  32.734   5.735
 4427POPC   C1A58047   6.573  33.137   6.167
 4427POPC   D2A58048   6.882  33.052   6.490
 4427POPC   C3A58049   6.831  33.169   6.909
 4427POPC   C4A58050   6.436  33.175   7.073
 4427POPC   C1B58051   6.248  32.743   6.164
 4427POPC   C2B58052   6.373  32.907   6.583
 4427POPC   C3B58053   6.616  32.711   6.930
 4427POPC   C4B58054   6.633  32.757   7.373
 4428POPC   NC358055   4.589  43.851   5.405
 4428POPC   PO458056   4.181  44.294   5.348
 4428POPC   GL158057   4.337  44.124   5.781
 4428POPC   GL258058   3.984  44.037   5.797
 4428POPC   C1A58059   4.472  43.828   6.194
 4428POPC   D2A58060   4.781  43.827   6.553
 4428POPC   C3A58061   4.622  43.854   6.987
 4428POPC   C4A58062   4.212  43.719   7.202
 4428POPC   C1B58063   3.990  43.939   6.233
 4428POPC   C2B58064   4.152  44.018   6.646
 4428POPC   C3B58065   3.902  44.062   7.007
 4428POPC   C4B58066   3.974  44.147   7.420
 4429POPC   NC358067  19.710   6.927   5.535
 4429POPC   PO458068  19.953   7.611   5.469
 4429POPC   GL158069  19.954   7.310   5.786
 4429POPC   GL258070  19.667   7.507   5.953
 4429POPC   C1A58071  19.911   7.123   6.201
 4429POPC   D2A58072  19.756   7.430   6.482
 4429POPC   C3A58073  19.897   7.544   6.880
 4429POPC   C4A58074  19.879   7.645   7.320
 4429POPC   C1B58075  19.459   7.823   6.256
 4429POPC   C2B58076  19.445   7.763   6.719
 4429POPC   C3B58077  19.435   7.387   7.003
 4429POPC   C4B58078  19.138   7.280   7.317
 4430POPC   NC358079   5.858  42.801   5.352
 4430POPC   PO458080   5.925  42.193   5.267
 4430POPC   GL158081   5.898  42.159   5.719
 4430POPC   GL258082   5.547  42.062   5.825
 4430POPC   C1A58083   5.986  42.417   6.088
 4430POPC   D2A58084   6.096  42.265   6.503
 4430POPC   C3A58085   5.950  42.313   6.923
 4430POPC   C4A58086   6.032  42.454   7.317
 4430POPC   C1B58087   5.722  42.009   6.247
 4430POPC   C2B58088   5.739  41.917   6.686
 4430POPC   C3B58089   5.719  41.906   7.149
 4430POPC   C4B58090   5.581  42.209   7.458
 4431POPC   NC358091   2.180  24.730   5.448
 4431POPC   PO458092   1.482  24.591   5.309
 4431POPC   GL158093   1.805  24.552   5.727
 4431POPC   GL258094   2.110  24.391   5.841
 4431POPC   C1A58095   1.811  24.648   6.197
 4431POPC   D2A58096   1.892  24.397   6.533
 4431POPC   C3A58097   1.873  24.426   6.982
 4431POPC   C4A58098   1.849  24.718   7.368
 4431POPC   C1B58099   2.302  24.740   6.109
 4431POPC   C2B58100   2.130  24.893   6.510
 4431POPC   C3B58101   2.079  24.899   6.952
 4431POPC   C4B58102   2.314  24.929   7.349
 4432POPC   NC358103  32.171  44.684   5.408
 4432POPC   PO458104  31.784  44.270   5.768
 4432POPC   GL158105  32.031  44.576   5.912
 4432POPC   GL258106  32.378  44.546   5.868
 4432POPC   C1A58107  32.123  44.733   6.316
 4432POPC   D2A58108  32.367  44.781   6.704
 4432POPC   C3A58109  32.149  44.786   7.133
 4432POPC   C4A58110  32.079  44.924   7.592
 4432POPC   C1B58111  32.638  44.562   6.266
 4432POPC   C2B58112  32.700  44.369   6.669
 4432POPC   C3B58113  32.592  44.520   7.081
 4432POPC   C4B58114  32.534  44.713   7.465
 4433POPC   NC358115  24.313  17.299   5.379
 4433POPC   PO458116  24.865  17.597   5.453
 4433POPC   GL158117  24.541  17.505   5.823
 4433POPC   GL258118  24.429  17.180   5.848
 4433POPC   C1A58119  24.386  17.525   6.284
 4433POPC   D2A58120  24.627  17.712   6.677
 4433POPC   C3A58121  24.505  17.640   7.114
 4433POPC   C4A58122  24.712  17.692   7.520
 4433POPC   C1B58123  24.695  17.113   6.162
 4433POPC   C2B58124  24.726  17.226   6.571
 4433POPC   C3B58125  24.703  17.068   6.950
 4433POPC   C4B58126  24.651  17.217   7.353
 4434POPC   NC358127  44.706  30.914   5.608
 4434POPC   PO458128  44.291  30.494   5.464
 4434POPC   GL158129  44.571  30.408   5.788
 4434POPC   GL258130  44.930  30.498   5.811
 4434POPC   C1A58131  44.571  30.492   6.205
 4434POPC   D2A58132  44.351  30.705   6.490
 4434POPC   C3A58133  44.627  30.747   6.811
 4434POPC   C4A58134  44.544  30.950   7.158
 4434POPC   C1B58135  44.995  30.796   6.181
 4434POPC   C2B58136   0.173  30.741   6.579
 4434POPC   C3B58137   0.113  30.904   6.961
 4434POPC   C4B58138  44.969  30.623   7.194
 4435POPC   NC358139  43.717  18.722   5.469
 4435POPC   PO458140  44.206  19.201   5.427
 4435POPC   GL158141  43.939  19.154   5.769
 4435POPC   GL258142  44.128  18.893   5.873
 4435POPC   C1A58143  43.660  19.086   6.146
 4435POPC   D2A58144  43.712  18.975   6.597
 4435POPC   C3A58145  43.842  19.323   6.843
 4435POPC   C4A58146  43.838  19.360   7.306
 4435POPC   C1B58147  44.151  19.007   6.328
 4435POPC   C2B58148  44.324  18.964   6.746
 4435POPC   C3B58149  44.057  18.903   7.052
 4435POPC   C4B58150  43.603  18.924   7.110
 4436POPC   NC358151  31.016  28.126   5.439
 4436POPC   PO458152  31.357  28.735   5.392
 4436POPC   GL158153  31.020  28.656   5.819
 4436POPC   GL258154  30.934  28.291   5.901
 4436POPC   C1A58155  30.637  28.669   6.116
 4436POPC   D2A58156  30.428  28.895   6.465
 4436POPC   C3A58157  30.578  28.795   6.896
 4436POPC   C4A58158  30.684  28.838   7.339
 4436POPC   C1B58159  30.738  28.171   6.305
 4436POPC   C2B58160  30.484  27.890   6.622
 4436POPC   C3B58161  30.423  27.988   7.085
 4436POPC   C4B58162  30.634  28.354   7.238
 4437POPC   NC358163  22.949   8.939   5.349
 4437POPC   PO458164  22.327   8.959   5.658
 4437POPC   GL158165  22.707   9.074   5.867
 4437POPC   GL258166  23.042   8.889   5.845
 4437POPC   C1A58167  22.840   8.992   6.315
 4437POPC   D2A58168  22.776   8.589   6.539
 4437POPC   C3A58169  22.830   8.650   6.976
 4437POPC   C4A58170  22.630   8.679   7.371
 4437POPC   C1B58171  23.217   8.671   6.216
 4437POPC   C2B58172  23.231   8.812   6.662
 4437POPC   C3B58173  23.113   9.059   7.037
 4437POPC   C4B58174  23.213   8.737   7.306
 4438POPC   NC358175  35.412  12.540   5.482
 4438POPC   PO458176  34.972  12.008   5.199
 4438POPC   GL158177  35.061  12.076   5.699
 4438POPC   GL258178  35.347  12.214   5.867
 4438POPC   C1A58179  35.029  12.010   6.204
 4438POPC   D2A58180  35.173  12.129   6.639
 4438POPC   C3A58181  35.324  11.845   6.963
 4438POPC   C4A58182  35.131  12.028   7.339
 4438POPC   C1B58183  35.533  12.092   6.252
 4438POPC   C2B58184  35.664  12.281   6.646
 4438POPC   C3B58185  35.537  12.290   7.076
 4438POPC   C4B58186  35.659  11.994   7.379
 4439POPC   NC358187  15.073   4.008   5.326
 4439POPC   PO458188  15.114   3.457   5.489
 4439POPC   GL158189  15.210   3.760   5.762
 4439POPC   GL258190  14.858   3.783   5.803
 4439POPC   C1A58191  15.450   3.771   6.134
 4439POPC   D2A58192  15.492   3.530   6.513
 4439POPC   C3A58193  15.370   3.601   6.948
 4439POPC   C4A58194  15.025   3.375   7.127
 4439POPC   C1B58195  14.967   3.919   6.206
 4439POPC   C2B58196  15.175   3.936   6.589
 4439POPC   C3B58197  14.963   3.897   6.997
 4439POPC   C4B58198  14.700   3.714   7.317
 4440POPC   NC358199   0.702  16.928   5.306
 4440POPC   PO458200   0.097  16.789   5.338
 4440POPC   GL158201   0.434  16.875   5.741
 4440POPC   GL258202   0.707  17.147   5.764
 4440POPC   C1A58203   0.618  16.702   6.176
 4440POPC   D2A58204   0.372  16.703   6.600
 4440POPC   C3A58205   0.346  16.603   7.055
 4440POPC   C4A58206   0.745  16.518   7.250
 4440POPC   C1B58207   0.561  17.211   6.164
 4440POPC   C2B58208   0.737  17.093   6.526
 4440POPC   C3B58209   0.776  16.883   6.881
 4440POPC   C4B58210   0.565  17.033   7.192
 4441POPC   NC358211   8.014  37.738   4.686
 4441POPC   PO458212   7.993  37.832   5.367
 4441POPC   GL158213   8.275  37.789   5.731
 4441POPC   GL258214   8.342  37.426   5.766
 4441POPC   C1A58215   8.215  38.017   6.154
 4441POPC   D2A58216   8.267  38.190   6.553
 4441POPC   C3A58217   8.133  37.978   6.924
 4441POPC   C4A58218   8.001  38.155   7.316
 4441POPC   C1B58219   8.109  37.532   6.152
 4441POPC   C2B58220   8.264  37.641   6.556
 4441POPC   C3B58221   8.393  37.487   6.971
 4441POPC   C4B58222   8.183  37.371   7.365
 4442POPC   NC358223  11.539  16.506   5.639
 4442POPC   PO458224  12.203  16.557   5.352
 4442POPC   GL158225  12.234  16.735   5.786
 4442POPC   GL258226  11.888  16.706   5.953
 4442POPC   C1A58227  12.248  16.908   6.243
 4442POPC   D2A58228  12.034  16.944   6.652
 4442POPC   C3A58229  12.283  17.037   7.050
 4442POPC   C4A58230  12.388  16.830   7.450
 4442POPC   C1B58231  11.757  16.336   6.260
 4442POPC   C2B58232  11.849  16.299   6.708
 4442POPC   C3B58233  12.060  16.567   6.993
 4442POPC   C4B58234  11.900  16.791   7.314
 4443POPC   NC358235   0.474  18.998   5.354
 4443POPC   PO458236   0.354  19.629   5.140
 4443POPC   GL158237   0.536  19.382   5.671
 4443POPC   GL258238   0.492  19.033   5.842
 4443POPC   C1A58239   0.624  19.333   6.210
 4443POPC   D2A58240   0.707  19.259   6.686
 4443POPC   C3A58241   0.363  19.321   7.011
 4443POPC   C4A58242   0.067  19.145   7.323
 4443POPC   C1B58243   0.220  18.969   6.185
 4443POPC   C2B58244   0.365  18.854   6.575
 4443POPC   C3B58245   0.228  18.816   6.957
 4443POPC   C4B58246   0.260  18.674   7.348
 4444POPC   NC358247  10.515  40.498   5.384
 4444POPC   PO458248  10.855  41.013   5.521
 4444POPC   GL158249  10.612  40.870   5.861
 4444POPC   GL258250  10.363  40.636   5.854
 4444POPC   C1A58251  10.349  41.008   6.210
 4444POPC   D2A58252  10.329  40.846   6.614
 4444POPC   C3A58253  10.651  40.937   6.883
 4444POPC   C4A58254  10.631  40.752   7.292
 4444POPC   C1B58255  10.426  40.488   6.247
 4444POPC   C2B58256  10.242  40.337   6.655
 4444POPC   C3B58257  10.255  40.440   7.131
 4444POPC   C4B58258  10.231  40.590   7.606
 4445POPC   NC358259  24.878   4.690   5.540
 4445POPC   PO458260  25.382   5.047   5.291
 4445POPC   GL158261  25.255   4.995   5.750
 4445POPC   GL258262  25.016   5.238   5.827
 4445POPC   C1A58263  25.205   4.785   6.194
 4445POPC   D2A58264  25.389   4.654   6.629
 4445POPC   C3A58265  25.142   4.858   6.976
 4445POPC   C4A58266  24.721   4.947   7.170
 4445POPC   C1B58267  25.183   5.295   6.215
 4445POPC   C2B58268  25.316   5.158   6.593
 4445POPC   C3B58269  25.236   5.343   7.011
 4445POPC   C4B58270  25.351   5.680   7.221
 4446POPC   NC358271  29.290  17.480   5.635
 4446POPC   PO458272  29.867  17.448   5.250
 4446POPC   GL158273  29.779  17.683   5.676
 4446POPC   GL258274  29.483  17.923   5.809
 4446POPC   C1A58275  29.954  17.520   6.078
 4446POPC   D2A58276  29.786  17.307   6.447
 4446POPC   C3A58277  30.017  17.335   6.833
 4446POPC   C4A58278  30.043  17.246   7.250
 4446POPC   C1B58279  29.523  17.746   6.249
 4446POPC   C2B58280  29.756  17.773   6.673
 4446POPC   C3B58281  29.798  17.742   7.152
 4446POPC   C4B58282  29.913  17.935   7.576
 4447POPC   NC358283  32.733  12.261   5.414
 4447POPC   PO458284  33.060  11.679   5.190
 4447POPC   GL158285  32.913  11.837   5.695
 4447POPC   GL258286  32.898  12.202   5.900
 4447POPC   C1A58287  33.078  11.826   6.160
 4447POPC   D2A58288  32.996  12.111   6.509
 4447POPC   C3A58289  33.193  12.063   6.916
 4447POPC   C4A58290  33.285  12.430   7.160
 4447POPC   C1B58291  32.727  12.486   6.262
 4447POPC   C2B58292  32.557  12.334   6.686
 4447POPC   C3B58293  32.775  12.259   7.103
 4447POPC   C4B58294  32.823  11.856   7.311
 4448POPC   NC358295   4.010  36.586   5.439
 4448POPC   PO458296   4.565  36.922   5.396
 4448POPC   GL158297   4.307  36.823   5.786
 4448POPC   GL258298   4.096  37.119   5.884
 4448POPC   C1A58299   4.395  36.935   6.236
 4448POPC   D2A58300   4.673  36.960   6.588
 4448POPC   C3A58301   4.376  36.943   6.918
 4448POPC   C4A58302   4.632  36.925   7.264
 4448POPC   C1B58303   3.865  36.933   6.217
 4448POPC   C2B58304   3.901  36.780   6.619
 4448POPC   C3B58305   3.882  36.752   7.048
 4448POPC   C4B58306   4.144  36.836   7.381
 4449POPC   NC358307  30.550  31.063   5.482
 4449POPC   PO458308  30.519  30.454   5.189
 4449POPC   GL158309  30.420  30.526   5.653
 4449POPC   GL258310  30.663  30.726   5.853
 4449POPC   C1A58311  30.374  30.424   6.136
 4449POPC   D2A58312  30.443  30.619   6.579
 4449POPC   C3A58313  30.741  30.511   6.932
 4449POPC   C4A58314  30.623  30.408   7.368
 4449POPC   C1B58315  30.742  31.068   6.167
 4449POPC   C2B58316  30.841  31.255   6.565
 4449POPC   C3B58317  30.696  31.040   6.925
 4449POPC   C4B58318  30.801  30.884   7.319
 4450POPC   NC358319  17.865   8.146   5.412
 4450POPC   PO458320  18.555   8.313   5.238
 4450POPC   GL158321  18.348   8.343   5.696
 4450POPC   GL258322  18.212   8.069   5.811
 4450POPC   C1A58323  18.245   8.545   6.114
 4450POPC   D2A58324  18.158   8.630   6.560
 4450POPC   C3A58325  18.244   8.304   6.866
 4450POPC   C4A58326  18.093   8.174   7.275
 4450POPC   C1B58327  18.351   8.021   6.241
 4450POPC   C2B58328  18.564   7.960   6.651
 4450POPC   C3B58329  18.568   7.946   7.114
 4450POPC   C4B58330  18.919   8.013   7.423
 4451POPC   NC358331  23.296   3.436   5.334
 4451POPC   PO458332  23.852   3.129   5.316
 4451POPC   GL158333  23.702   3.371   5.718
 4451POPC   GL258334  23.851   3.706   5.784
 4451POPC   C1A58335  23.564   3.479   6.167
 4451POPC   D2A58336  23.684   3.626   6.588
 4451POPC   C3A58337  23.508   3.726   6.999
 4451POPC   C4A58338  23.446   3.456   7.401
 4451POPC   C1B58339  24.084   3.734   6.174
 4451POPC   C2B58340  24.056   3.951   6.562
 4451POPC   C3B58341  24.052   3.758   6.960
 4451POPC   C4B58342  23.919   3.635   7.335
 4452POPC   NC358343   3.687  38.671   5.470
 4452POPC   PO458344   3.483  37.999   5.483
 4452POPC   GL158345   3.437  38.129   5.883
 4452POPC   GL258346   3.285  38.446   5.804
 4452POPC   C1A58347   3.669  38.411   6.149
 4452POPC   D2A58348   3.559  38.620   6.511
 4452POPC   C3A58349   3.656  38.380   6.891
 4452POPC   C4A58350   3.825  38.527   7.314
 4452POPC   C1B58351   3.210  38.730   6.157
 4452POPC   C2B58352   3.008  38.913   6.537
 4452POPC   C3B58353   3.149  39.007   6.971
 4452POPC   C4B58354   3.333  38.636   7.169
 4453POPC   NC358355  11.452  11.366   5.402
 4453POPC   PO458356  10.913  10.987   5.388
 4453POPC   GL158357  11.149  11.175   5.768
 4453POPC   GL258358  11.255  11.541   5.821
 4453POPC   C1A58359  11.247  11.236   6.214
 4453POPC   D2A58360  11.459  11.131   6.573
 4453POPC   C3A58361  11.252  11.017   6.923
 4453POPC   C4A58362  11.462  11.069   7.284
 4453POPC   C1B58363  11.431  11.737   6.188
 4453POPC   C2B58364  11.600  11.627   6.591
 4453POPC   C3B58365  11.432  11.503   6.978
 4453POPC   C4B58366  11.421  11.549   7.417
 4454POPC   NC358367  36.747  39.720   5.358
 4454POPC   PO458368  36.883  40.338   5.622
 4454POPC   GL158369  36.866  39.937   5.830
 4454POPC   GL258370  37.175  39.782   5.651
 4454POPC   C1A58371  36.745  39.836   6.293
 4454POPC   D2A58372  36.406  39.795   6.627
 4454POPC   C3A58373  36.557  39.819   7.047
 4454POPC   C4A58374  36.793  40.106   7.276
 4454POPC   C1B58375  37.266  39.776   6.100
 4454POPC   C2B58376  37.200  40.005   6.501
 4454POPC   C3B58377  37.040  39.853   6.897
 4454POPC   C4B58378  37.086  39.703   7.337
 4455POPC   NC358379  44.956  25.956   5.374
 4455POPC   PO458380   0.664  26.063   5.359
 4455POPC   GL158381   0.403  26.023   5.699
 4455POPC   GL258382   0.271  25.686   5.737
 4455POPC   C1A58383   0.175  26.075   6.087
 4455POPC   D2A58384   0.120  25.950   6.498
 4455POPC   C3A58385   0.288  26.224   6.813
 4455POPC   C4A58386   0.074  26.424   7.144
 4455POPC   C1B58387   0.546  25.698   6.117
 4455POPC   C2B58388   0.618  25.863   6.556
 4455POPC   C3B58389   0.369  25.734   6.916
 4455POPC   C4B58390   0.227  25.934   7.285
 4456POPC   NC358391   2.371   0.405   5.534
 4456POPC   PO458392   1.723   0.440   5.460
 4456POPC   GL158393   1.907   0.503   5.898
 4456POPC   GL258394   2.234   0.683   5.947
 4456POPC   C1A58395   1.894   0.657   6.353
 4456POPC   D2A58396   2.036   0.457   6.746
 4456POPC   C3A58397   1.826   0.384   7.112
 4456POPC   C4A58398   1.529   0.071   7.254
 4456POPC   C1B58399   2.397   0.464   6.333
 4456POPC   C2B58400   2.567   0.394   6.755
 4456POPC   C3B58401   2.353   0.295   7.128
 4456POPC   C4B58402   2.283   0.493   7.511
 4457POPC   NC358403   3.277  19.382   5.649
 4457POPC   PO458404   3.607  19.990   5.480
 4457POPC   GL158405   3.477  19.837   5.827
 4457POPC   GL258406   3.113  19.833   5.856
 4457POPC   C1A58407   3.714  19.666   6.159
 4457POPC   D2A58408   3.560  19.654   6.559
 4457POPC   C3A58409   3.801  19.618   6.903
 4457POPC   C4A58410   3.714  19.490   7.290
 4457POPC   C1B58411   3.209  20.018   6.235
 4457POPC   C2B58412   3.180  20.260   6.617
 4457POPC   C3B58413   3.209  20.126   7.053
 4457POPC   C4B58414   3.449  19.970   7.421
 4458POPC   NC358415  38.179  11.456   5.450
 4458POPC   PO458416  38.387  10.847   5.481
 4458POPC   GL158417  38.593  11.038   5.812
 4458POPC   GL258418  38.534  11.415   5.821
 4458POPC   C1A58419  38.458  11.103   6.210
 4458POPC   D2A58420  38.486  11.365   6.557
 4458POPC   C3A58421  38.589  11.155   6.947
 4458POPC   C4A58422  38.383  11.076   7.318
 4458POPC   C1B58423  38.214  11.563   6.134
 4458POPC   C2B58424  38.230  11.816   6.540
 4458POPC   C3B58425  38.374  11.661   6.966
 4458POPC   C4B58426  38.589  11.543   7.356
 4459POPC   NC358427  11.382   9.365   5.417
 4459POPC   PO458428  11.312  10.071   5.442
 4459POPC   GL158429  11.353   9.811   5.813
 4459POPC   GL258430  11.627   9.544   5.835
 4459POPC   C1A58431  11.426   9.883   6.252
 4459POPC   D2A58432  11.525   9.650   6.626
 4459POPC   C3A58433  11.551   9.882   6.951
 4459POPC   C4A58434  11.227  10.019   7.186
 4459POPC   C1B58435  11.452   9.370   6.206
 4459POPC   C2B58436  11.067   9.387   6.474
 4459POPC   C3B58437  11.076   9.492   6.916
 4459POPC   C4B58438  11.373   9.538   7.269
 4460POPC   NC358439  36.211  21.249   5.331
 4460POPC   PO458440  35.706  21.799   5.353
 4460POPC   GL158441  35.955  21.713   5.766
 4460POPC   GL258442  36.018  21.363   5.814
 4460POPC   C1A58443  35.953  21.639   6.254
 4460POPC   D2A58444  36.087  21.352   6.577
 4460POPC   C3A58445  36.035  21.334   7.012
 4460POPC   C4A58446  36.320  21.527   7.285
 4460POPC   C1B58447  36.384  21.362   6.137
 4460POPC   C2B58448  36.550  21.131   6.517
 4460POPC   C3B58449  36.467  21.044   6.988
 4460POPC   C4B58450  36.197  20.917   7.355
 4461POPC   NC358451  17.830  29.431   5.355
 4461POPC   PO458452  17.209  29.388   5.408
 4461POPC   GL158453  17.456  29.186   5.730
 4461POPC   GL258454  17.217  28.887   5.737
 4461POPC   C1A58455  17.730  29.095   6.121
 4461POPC   D2A58456  17.893  29.107   6.560
 4461POPC   C3A58457  17.593  29.195   6.910
 4461POPC   C4A58458  17.379  29.419   7.263
 4461POPC   C1B58459  17.216  29.058   6.173
 4461POPC   C2B58460  17.373  28.931   6.539
 4461POPC   C3B58461  17.202  28.802   6.919
 4461POPC   C4B58462  17.112  28.997   7.261
 4462POPC   NC358463  19.776  34.424   5.249
 4462POPC   PO458464  19.983  35.082   5.257
 4462POPC   GL158465  20.093  34.938   5.697
 4462POPC   GL258466  19.923  34.615   5.733
 4462POPC   C1A58467  19.890  34.948   6.127
 4462POPC   D2A58468  19.744  34.671   6.447
 4462POPC   C3A58469  19.893  34.644   6.844
 4462POPC   C4A58470  19.755  34.446   7.233
 4462POPC   C1B58471  20.117  34.485   6.139
 4462POPC   C2B58472  20.312  34.502   6.533
 4462POPC   C3B58473  20.440  34.692   6.880
 4462POPC   C4B58474  20.235  34.696   7.210
 4463POPC   NC358475  37.032  32.115   5.540
 4463POPC   PO458476  36.607  32.605   5.221
 4463POPC   GL158477  36.740  32.515   5.699
 4463POPC   GL258478  37.093  32.560   5.823
 4463POPC   C1A58479  36.754  32.398   6.178
 4463POPC   D2A58480  36.808  32.575   6.612
 4463POPC   C3A58481  36.809  32.252   6.938
 4463POPC   C4A58482  36.604  32.115   7.305
 4463POPC   C1B58483  37.258  32.247   6.122
 4463POPC   C2B58484  37.161  32.234   6.534
 4463POPC   C3B58485  37.299  32.257   6.987
 4463POPC   C4B58486  37.074  32.232   7.399
 4464POPC   NC358487   8.727  14.194   5.473
 4464POPC   PO458488   9.204  14.548   5.204
 4464POPC   GL158489   9.322  14.553   5.663
 4464POPC   GL258490   9.133  14.307   5.774
 4464POPC   C1A58491   9.171  14.734   6.075
 4464POPC   D2A58492   8.933  14.546   6.435
 4464POPC   C3A58493   9.065  14.623   6.845
 4464POPC   C4A58494   8.972  14.473   7.236
 4464POPC   C1B58495   8.903  14.149   6.130
 4464POPC   C2B58496   8.689  14.090   6.520
 4464POPC   C3B58497   8.920  14.099   6.904
 4464POPC   C4B58498   8.739  14.029   7.311
 4465POPC   NC358499   2.096  22.734   5.357
 4465POPC   PO458500   2.331  23.287   5.402
 4465POPC   GL158501   2.034  23.056   5.746
 4465POPC   GL258502   1.745  22.778   5.752
 4465POPC   C1A58503   2.006  22.875   6.178
 4465POPC   D2A58504   1.834  23.064   6.541
 4465POPC   C3A58505   2.099  23.042   6.890
 4465POPC   C4A58506   1.971  23.099   7.281
 4465POPC   C1B58507   1.578  22.596   6.173
 4465POPC   C2B58508   1.734  22.543   6.604
 4465POPC   C3B58509   1.759  22.676   7.052
 4465POPC   C4B58510   2.156  22.625   7.289
 4466POPC   NC358511   0.559  33.247   5.450
 4466POPC   PO458512   0.122  32.741   5.422
 4466POPC   GL158513   0.147  32.958   5.807
 4466POPC   GL258514   0.499  32.946   5.845
 4466POPC   C1A58515   0.136  33.048   6.275
 4466POPC   D2A58516   0.045  33.068   6.728
 4466POPC   C3A58517   0.305  32.979   7.095
 4466POPC   C4A58518   0.423  33.292   7.452
 4466POPC   C1B58519   0.657  33.111   6.210
 4466POPC   C2B58520   0.574  33.057   6.651
 4466POPC   C3B58521   0.699  33.324   6.998
 4466POPC   C4B58522   0.943  33.239   7.313
 4467POPC   NC358523  41.678  41.218   5.352
 4467POPC   PO458524  41.509  41.836   5.526
 4467POPC   GL158525  41.618  41.479   5.815
 4467POPC   GL258526  41.336  41.564   6.059
 4467POPC   C1A58527  41.725  41.308   6.242
 4467POPC   D2A58528  41.762  41.582   6.607
 4467POPC   C3A58529  41.596  41.489   7.003
 4467POPC   C4A58530  41.641  41.078   7.249
 4467POPC   C1B58531  41.649  41.881   6.200
 4467POPC   C2B58532  41.732  42.119   6.575
 4467POPC   C3B58533  41.855  41.968   6.964
 4467POPC   C4B58534  41.642  41.946   7.325
 4468POPC   NC358535  41.283  21.454   5.241
 4468POPC   PO458536  41.874  21.113   5.302
 4468POPC   GL158537  41.567  21.138   5.626
 4468POPC   GL258538  41.526  21.459   5.742
 4468POPC   C1A58539  41.435  21.097   6.088
 4468POPC   D2A58540  41.249  21.263   6.483
 4468POPC   C3A58541  41.392  21.116   6.880
 4468POPC   C4A58542  41.531  21.261   7.275
 4468POPC   C1B58543  41.461  21.606   6.159
 4468POPC   C2B58544  41.587  21.680   6.579
 4468POPC   C3B58545  41.464  21.662   6.991
 4468POPC   C4B58546  41.513  21.816   7.377
 4469POPC   NC358547   1.582  15.829   5.389
 4469POPC   PO458548   0.993  16.212   5.537
 4469POPC   GL158549   1.128  16.041   5.881
 4469POPC   GL258550   1.230  15.739   5.755
 4469POPC   C1A58551   0.975  15.935   6.296
 4469POPC   D2A58552   0.783  15.824   6.683
 4469POPC   C3A58553   0.914  16.121   6.983
 4469POPC   C4A58554   1.287  16.171   7.214
 4469POPC   C1B58555   1.349  15.617   6.139
 4469POPC   C2B58556   1.510  15.681   6.569
 4469POPC   C3B58557   1.228  15.713   6.957
 4469POPC   C4B58558   1.222  15.718   7.411
 4470POPC   NC358559   6.027   2.878   5.148
 4470POPC   PO458560   6.018   2.403   5.660
 4470POPC   GL158561   5.934   2.826   5.793
 4470POPC   GL258562   6.164   2.725   6.061
 4470POPC   C1A58563   5.847   3.121   6.126
 4470POPC   D2A58564   6.134   3.087   6.435
 4470POPC   C3A58565   6.005   2.883   6.799
 4470POPC   C4A58566   5.954   2.840   7.217
 4470POPC   C1B58567   5.879   2.602   6.363
 4470POPC   C2B58568   5.634   2.440   6.710
 4470POPC   C3B58569   5.798   2.369   7.117
 4470POPC   C4B58570   6.147   2.390   7.432
 4471POPC   NC358571  15.291  11.972   5.515
 4471POPC   PO458572  14.775  12.141   5.184
 4471POPC   GL158573  14.818  12.207   5.660
 4471POPC   GL258574  14.881  11.907   5.841
 4471POPC   C1A58575  14.974  12.413   6.088
 4471POPC   D2A58576  15.083  12.481   6.558
 4471POPC   C3A58577  15.248  12.077   6.776
 4471POPC   C4A58578  15.564  12.018   7.089
 4471POPC   C1B58579  15.029  11.653   6.194
 4471POPC   C2B58580  14.922  11.626   6.636
 4471POPC   C3B58581  14.879  11.702   7.037
 4471POPC   C4B58582  15.223  11.623   7.285
 4472POPC   NC358583  34.773  31.118   5.399
 4472POPC   PO458584  34.315  31.588   5.208
 4472POPC   GL158585  34.334  31.606   5.653
 4472POPC   GL258586  34.197  31.298   5.755
 4472POPC   C1A58587  34.598  31.525   6.040
 4472POPC   D2A58588  34.893  31.577   6.428
 4472POPC   C3A58589  34.697  31.490   6.841
 4472POPC   C4A58590  34.568  31.528   7.260
 4472POPC   C1B58591  34.166  31.245   6.205
 4472POPC   C2B58592  34.111  31.217   6.673
 4472POPC   C3B58593  34.207  31.189   7.139
 4472POPC   C4B58594  34.335  31.221   7.606
 4473POPC   NC358595   0.835  27.285   5.558
 4473POPC   PO458596   0.338  27.639   5.195
 4473POPC   GL158597   0.348  27.762   5.749
 4473POPC   GL258598   0.720  27.844   5.797
 4473POPC   C1A58599   0.158  27.598   6.202
 4473POPC   D2A58600  44.941  27.525   6.633
 4473POPC   C3A58601   0.253  27.393   6.942
 4473POPC   C4A58602   0.449  27.521   7.320
 4473POPC   C1B58603   0.741  27.563   6.144
 4473POPC   C2B58604   0.677  27.446   6.561
 4473POPC   C3B58605   0.618  27.742   6.877
 4473POPC   C4B58606   0.803  27.937   7.199
 4474POPC   NC358607   8.245  39.046   5.560
 4474POPC   PO458608   7.925  39.529   5.206
 4474POPC   GL158609   7.877  39.440   5.677
 4474POPC   GL258610   7.896  39.703   5.896
 4474POPC   C1A58611   7.978  39.246   6.126
 4474POPC   D2A58612   8.305  39.179   6.462
 4474POPC   C3A58613   8.183  39.002   6.879
 4474POPC   C4A58614   8.274  39.113   7.313
 4474POPC   C1B58615   7.786  39.678   6.343
 4474POPC   C2B58616   7.839  39.357   6.668
 4474POPC   C3B58617   7.987  39.452   7.087
 4474POPC   C4B58618   7.998  39.432   7.584
 4475POPC   NC358619  39.000  27.950   5.428
 4475POPC   PO458620  39.120  28.606   5.441
 4475POPC   GL158621  38.991  28.363   5.761
 4475POPC   GL258622  39.312  28.208   5.770
 4475POPC   C1A58623  39.045  28.413   6.193
 4475POPC   D2A58624  39.329  28.594   6.507
 4475POPC   C3A58625  39.186  28.504   6.889
 4475POPC   C4A58626  39.287  28.407   7.281
 4475POPC   C1B58627  39.536  28.301   6.143
 4475POPC   C2B58628  39.574  28.113   6.529
 4475POPC   C3B58629  39.474  28.063   6.930
 4475POPC   C4B58630  39.718  28.034   7.268
 4476POPC   NC358631  22.297   8.586   5.396
 4476POPC   PO458632  22.230   7.924   5.353
 4476POPC   GL158633  22.028   8.166   5.714
 4476POPC   GL258634  21.845   8.527   5.726
 4476POPC   C1A58635  22.115   8.022   6.130
 4476POPC   D2A58636  22.356   8.206   6.498
 4476POPC   C3A58637  22.269   7.873   6.822
 4476POPC   C4A58638  22.101   7.844   7.233
 4476POPC   C1B58639  21.913   8.476   6.198
 4476POPC   C2B58640  21.873   8.168   6.570
 4476POPC   C3B58641  22.001   8.301   6.990
 4476POPC   C4B58642  22.118   8.670   7.240
 4477POPC   NC358643  37.063  32.508   5.158
 4477POPC   PO458644  37.100  33.166   5.423
 4477POPC   GL158645  36.894  33.034   5.787
 4477POPC   GL258646  37.207  33.063   5.990
 4477POPC   C1A58647  36.784  32.916   6.223
 4477POPC   D2A58648  37.024  33.057   6.599
 4477POPC   C3A58649  36.876  33.307   6.956
 4477POPC   C4A58650  36.766  33.121   7.362
 4477POPC   C1B58651  37.307  32.728   6.288
 4477POPC   C2B58652  37.375  32.691   6.731
 4477POPC   C3B58653  37.071  32.708   7.087
 4477POPC   C4B58654  37.013  32.709   7.574
 4478POPC   NC358655   4.965   4.325   5.504
 4478POPC   PO458656   5.644   4.144   5.549
 4478POPC   GL158657   5.366   4.392   5.839
 4478POPC   GL258658   5.011   4.586   5.918
 4478POPC   C1A58659   5.296   4.344   6.277
 4478POPC   D2A58660   5.133   4.129   6.621
 4478POPC   C3A58661   4.998   4.472   6.869
 4478POPC   C4A58662   4.956   4.455   7.295
 4478POPC   C1B58663   4.777   4.258   6.149
 4478POPC   C2B58664   4.617   4.252   6.570
 4478POPC   C3B58665   4.725   4.059   6.995
 4478POPC   C4B58666   4.573   4.099   7.429
 4479POPC   NC358667  34.292  26.242   5.356
 4479POPC   PO458668  34.786  25.837   5.581
 4479POPC   GL158669  34.588  26.161   5.841
 4479POPC   GL258670  34.217  26.153   5.908
 4479POPC   C1A58671  34.596  26.152   6.284
 4479POPC   D2A58672  34.652  26.014   6.688
 4479POPC   C3A58673  34.475  26.295   7.015
 4479POPC   C4A58674  34.496  26.305   7.483
 4479POPC   C1B58675  34.193  25.797   6.244
 4479POPC   C2B58676  34.280  25.664   6.708
 4479POPC   C3B58677  34.472  25.801   7.122
 4479POPC   C4B58678  34.181  25.899   7.508
 4480POPC   NC358679  23.129  15.578   5.488
 4480POPC   PO458680  22.709  15.037   5.291
 4480POPC   GL158681  22.995  15.153   5.729
 4480POPC   GL258682  22.993  15.441   5.960
 4480POPC   C1A58683  23.111  15.050   6.232
 4480POPC   D2A58684  22.905  15.052   6.671
 4480POPC   C3A58685  23.006  15.344   6.995
 4480POPC   C4A58686  23.049  15.318   7.416
 4480POPC   C1B58687  22.706  15.413   6.314
 4480POPC   C2B58688  22.614  15.543   6.746
 4480POPC   C3B58689  22.530  15.438   7.200
 4480POPC   C4B58690  22.650  15.493   7.671
 4481POPC   NC358691   2.399   3.664   5.557
 4481POPC   PO458692   3.004   3.784   5.400
 4481POPC   GL158693   2.854   3.482   5.797
 4481POPC   GL258694   2.525   3.258   5.846
 4481POPC   C1A58695   2.778   3.400   6.284
 4481POPC   D2A58696   2.599   3.710   6.597
 4481POPC   C3A58697   2.574   3.656   7.049
 4481POPC   C4A58698   2.853   3.553   7.378
 4481POPC   C1B58699   2.259   3.521   6.182
 4481POPC   C2B58700   2.252   3.337   6.595
 4481POPC   C3B58701   2.587   3.201   6.827
 4481POPC   C4B58702   2.564   3.166   7.254
 4482POPC   NC358703   4.174   4.890   5.271
 4482POPC   PO458704   4.519   5.467   5.435
 4482POPC   GL158705   4.575   5.236   5.827
 4482POPC   GL258706   4.339   4.975   5.767
 4482POPC   C1A58707   4.687   5.093   6.268
 4482POPC   D2A58708   4.806   5.135   6.729
 4482POPC   C3A58709   4.400   5.212   6.987
 4482POPC   C4A58710   4.095   4.876   7.121
 4482POPC   C1B58711   4.176   5.154   6.158
 4482POPC   C2B58712   4.054   5.177   6.590
 4482POPC   C3B58713   3.903   5.371   6.958
 4482POPC   C4B58714   4.041   5.314   7.379
 4483POPC   NC358715  22.404  32.771   5.240
 4483POPC   PO458716  22.019  32.193   5.373
 4483POPC   GL158717  21.885  32.283   5.795
 4483POPC   GL258718  22.110  32.540   5.750
 4483POPC   C1A58719  21.964  32.193   6.221
 4483POPC   D2A58720  22.199  32.037   6.546
 4483POPC   C3A58721  22.130  32.160   6.931
 4483POPC   C4A58722  22.217  31.967   7.302
 4483POPC   C1B58723  22.201  32.654   6.154
 4483POPC   C2B58724  22.105  32.563   6.570
 4483POPC   C3B58725  22.232  32.653   6.967
 4483POPC   C4B58726  22.186  32.466   7.352
 4484POPC   NC358727  30.559  37.492   5.462
 4484POPC   PO458728  31.014  37.975   5.346
 4484POPC   GL158729  30.824  37.822   5.777
 4484POPC   GL258730  30.719  37.456   5.943
 4484POPC   C1A58731  30.806  37.879   6.231
 4484POPC   D2A58732  30.648  37.860   6.647
 4484POPC   C3A58733  30.950  38.055   6.918
 4484POPC   C4A58734  31.037  38.070   7.335
 4484POPC   C1B58735  30.703  37.386   6.390
 4484POPC   C2B58736  30.707  37.371   6.822
 4484POPC   C3B58737  30.727  37.668   7.140
 4484POPC   C4B58738  30.920  37.597   7.497
 4485POPC   NC358739  28.633  28.245   5.431
 4485POPC   PO458740  28.011  28.550   5.273
 4485POPC   GL158741  28.206  28.464   5.688
 4485POPC   GL258742  28.508  28.635   5.741
 4485POPC   C1A58743  28.344  28.326   6.129
 4485POPC   D2A58744  28.313  28.474   6.574
 4485POPC   C3A58745  28.229  28.289   7.004
 4485POPC   C4A58746  28.624  28.137   7.186
 4485POPC   C1B58747  28.704  28.765   6.124
 4485POPC   C2B58748  28.636  28.910   6.551
 4485POPC   C3B58749  28.521  28.709   6.979
 4485POPC   C4B58750  28.440  28.588   7.419
 4486POPC   NC358751  28.677  42.712   5.508
 4486POPC   PO458752  28.547  43.422   5.402
 4486POPC   GL158753  28.355  43.152   5.759
 4486POPC   GL258754  28.400  43.395   5.953
 4486POPC   C1A58755  28.198  42.948   6.168
 4486POPC   D2A58756  28.400  42.897   6.585
 4486POPC   C3A58757  28.279  43.016   7.033
 4486POPC   C4A58758  28.597  42.851   7.298
 4486POPC   C1B58759  28.182  43.443   6.315
 4486POPC   C2B58760  28.369  43.414   6.715
 4486POPC   C3B58761  28.454  43.522   7.140
 4486POPC   C4B58762  28.388  43.279   7.526
 4487POPC   NC358763   3.579  16.210   5.389
 4487POPC   PO458764   3.960  15.734   5.077
 4487POPC   GL158765   3.777  15.772   5.606
 4487POPC   GL258766   3.763  16.104   5.854
 4487POPC   C1A58767   3.581  15.695   6.094
 4487POPC   D2A58768   3.705  15.851   6.549
 4487POPC   C3A58769   3.616  15.749   7.006
 4487POPC   C4A58770   3.427  16.017   7.359
 4487POPC   C1B58771   3.378  16.197   6.150
 4487POPC   C2B58772   3.244  16.387   6.559
 4487POPC   C3B58773   3.497  16.235   6.903
 4487POPC   C4B58774   3.701  16.442   7.264
 4488POPC   NC358775  29.774  32.808   5.422
 4488POPC   PO458776  30.332  33.141   5.276
 4488POPC   GL158777  30.162  33.021   5.683
 4488POPC   GL258778  30.221  32.680   5.693
 4488POPC   C1A58779  29.840  32.962   6.063
 4488POPC   D2A58780  29.665  32.853   6.485
 4488POPC   C3A58781  29.815  33.008   6.866
 4488POPC   C4A58782  29.697  33.242   7.231
 4488POPC   C1B58783  30.334  32.840   6.123
 4488POPC   C2B58784  30.178  32.737   6.536
 4488POPC   C3B58785  30.320  32.849   6.956
 4488POPC   C4B58786  30.183  33.119   7.287
 4489POPC   NC358787   8.118   5.524   5.324
 4489POPC   PO458788   8.272   6.155   5.286
 4489POPC   GL158789   8.246   5.797   5.707
 4489POPC   GL258790   8.549   5.813   5.903
 4489POPC   C1A58791   8.119   5.643   6.142
 4489POPC   D2A58792   7.918   5.919   6.463
 4489POPC   C3A58793   7.989   5.840   6.923
 4489POPC   C4A58794   8.310   5.800   7.278
 4489POPC   C1B58795   8.484   5.929   6.359
 4489POPC   C2B58796   8.479   5.902   6.786
 4489POPC   C3B58797   8.574   6.203   7.112
 4489POPC   C4B58798   8.446   6.220   7.533
 4490POPC   NC358799  11.098   3.801   5.488
 4490POPC   PO458800  11.573   3.404   5.507
 4490POPC   GL158801  11.401   3.679   5.873
 4490POPC   GL258802  11.544   3.927   6.099
 4490POPC   C1A58803  11.132   3.682   6.252
 4490POPC   D2A58804  10.961   3.524   6.635
 4490POPC   C3A58805  11.137   3.593   7.050
 4490POPC   C4A58806  11.299   3.426   7.469
 4490POPC   C1B58807  11.604   3.490   6.297
 4490POPC   C2B58808  11.470   3.370   6.712
 4490POPC   C3B58809  11.641   3.559   7.106
 4490POPC   C4B58810  11.772   3.643   7.545
 4491POPC   NC358811  43.702  39.291   4.975
 4491POPC   PO458812  44.127  39.411   5.602
 4491POPC   GL158813  43.938  39.134   5.889
 4491POPC   GL258814  44.253  39.125   5.993
 4491POPC   C1A58815  43.802  39.012   6.337
 4491POPC   D2A58816  43.520  39.199   6.685
 4491POPC   C3A58817  43.689  39.213   7.115
 4491POPC   C4A58818  44.110  39.151   7.240
 4491POPC   C1B58819  44.080  39.451   6.269
 4491POPC   C2B58820  44.002  39.381   6.689
 4491POPC   C3B58821  44.107  39.637   6.982
 4491POPC   C4B58822  43.897  39.635   7.319
 4492POPC   NC358823   6.232  10.640   5.487
 4492POPC   PO458824   5.712  10.205   5.318
 4492POPC   GL158825   5.665  10.170   5.776
 4492POPC   GL258826   5.891  10.451   5.867
 4492POPC   C1A58827   5.540  10.298   6.219
 4492POPC   D2A58828   5.597  10.697   6.469
 4492POPC   C3A58829   5.747  10.606   6.884
 4492POPC   C4A58830   5.737  10.263   7.190
 4492POPC   C1B58831   6.136  10.723   6.178
 4492POPC   C2B58832   6.288  11.020   6.508
 4492POPC   C3B58833   6.252  10.907   6.942
 4492POPC   C4B58834   5.931  10.913   7.247
 4493POPC   NC358835  41.874  22.540   5.456
 4493POPC   PO458836  41.591  21.861   5.247
 4493POPC   GL158837  41.580  21.990   5.698
 4493POPC   GL258838  41.926  22.101   5.761
 4493POPC   C1A58839  41.467  22.142   6.130
 4493POPC   D2A58840  41.315  22.361   6.500
 4493POPC   C3A58841  41.394  22.169   6.898
 4493POPC   C4A58842  41.235  22.247   7.323
 4493POPC   C1B58843  41.893  21.876   6.157
 4493POPC   C2B58844  41.986  22.005   6.581
 4493POPC   C3B58845  41.872  22.028   7.026
 4493POPC   C4B58846  41.724  22.361   7.297
 4494POPC   NC358847  35.093  39.019   5.369
 4494POPC   PO458848  35.630  39.421   5.207
 4494POPC   GL158849  35.412  39.270   5.666
 4494POPC   GL258850  35.028  39.318   5.773
 4494POPC   C1A58851  35.377  39.349   6.138
 4494POPC   D2A58852  35.529  39.136   6.497
 4494POPC   C3A58853  35.594  39.320   6.892
 4494POPC   C4A58854  35.659  39.021   7.214
 4494POPC   C1B58855  34.853  39.419   6.162
 4494POPC   C2B58856  35.021  39.359   6.563
 4494POPC   C3B58857  34.894  39.292   6.974
 4494POPC   C4B58858  35.212  39.423   7.210
 4495POPC   NC358859  19.820  44.192   5.365
 4495POPC   PO458860  19.637  43.552   5.420
 4495POPC   GL158861  19.775  43.595   5.813
 4495POPC   GL258862  19.886  43.913   5.796
 4495POPC   C1A58863  19.651  43.633   6.232
 4495POPC   D2A58864  19.474  43.713   6.640
 4495POPC   C3A58865  19.611  44.067   6.944
 4495POPC   C4A58866  19.590  44.014   7.415
 4495POPC   C1B58867  20.114  43.892   6.177
 4495POPC   C2B58868  19.976  43.916   6.592
 4495POPC   C3B58869  20.128  44.097   6.984
 4495POPC   C4B58870  20.279  43.913   7.364
 4496POPC   NC358871  30.075  28.316   5.318
 4496POPC   PO458872  30.673  28.484   5.456
 4496POPC   GL158873  30.406  28.309   5.821
 4496POPC   GL258874  30.099  28.089   5.797
 4496POPC   C1A58875  30.094  28.485   6.159
 4496POPC   D2A58876  29.687  28.602   6.414
 4496POPC   C3A58877  29.764  28.503   6.864
 4496POPC   C4A58878  30.170  28.531   7.108
 4496POPC   C1B58879  29.909  27.954   6.220
 4496POPC   C2B58880  29.903  28.027   6.694
 4496POPC   C3B58881  29.916  28.094   7.157
 4496POPC   C4B58882  29.829  27.969   7.643
 4497POPC   NC358883  24.850  36.590   5.543
 4497POPC   PO458884  24.311  37.032   5.335
 4497POPC   GL158885  24.291  37.210   5.766
 4497POPC   GL258886  24.171  36.922   5.891
 4497POPC   C1A58887  24.511  37.163   6.214
 4497POPC   D2A58888  24.705  36.904   6.589
 4497POPC   C3A58889  24.809  36.950   7.055
 4497POPC   C4A58890  24.505  36.920   7.407
 4497POPC   C1B58891  24.351  36.670   6.197
 4497POPC   C2B58892  24.230  36.662   6.598
 4497POPC   C3B58893  24.364  36.668   6.994
 4497POPC   C4B58894  24.196  36.452   7.353
 4498POPC   NC358895  27.067   0.590   5.438
 4498POPC   PO458896  26.595   0.451   5.090
 4498POPC   GL158897  26.583   0.466   5.604
 4498POPC   GL258898  26.370   0.706   5.773
 4498POPC   C1A58899  26.660   0.271   6.035
 4498POPC   D2A58900  26.964   0.178   6.407
 4498POPC   C3A58901  26.872   0.256   6.863
 4498POPC   C4A58902  26.921   0.527   7.239
 4498POPC   C1B58903  26.581   0.793   6.164
 4498POPC   C2B58904  26.577   0.783   6.607
 4498POPC   C3B58905  26.674   0.920   7.011
 4498POPC   C4B58906  26.445   0.718   7.330
 4499POPC   NC358907   7.644  35.424   5.577
 4499POPC   PO458908   7.187  34.964   5.450
 4499POPC   GL158909   7.213  35.294   5.855
 4499POPC   GL258910   7.303  35.680   5.936
 4499POPC   C1A58911   7.387  35.345   6.316
 4499POPC   D2A58912   7.217  35.512   6.733
 4499POPC   C3A58913   7.304  35.483   7.211
 4499POPC   C4A58914   7.332  35.604   7.674
 4499POPC   C1B58915   7.396  35.862   6.390
 4499POPC   C2B58916   7.639  35.800   6.820
 4499POPC   C3B58917   7.739  35.705   7.287
 4499POPC   C4B58918   7.827  35.688   7.768
 4500POPC   NC358919  19.079  21.795   5.562
 4500POPC   PO458920  18.693  21.360   5.357
 4500POPC   GL158921  18.904  21.312   5.792
 4500POPC   GL258922  19.186  21.507   6.000
 4500POPC   C1A58923  18.932  21.161   6.247
 4500POPC   D2A58924  19.143  21.364   6.628
 4500POPC   C3A58925  18.893  21.320   7.021
 4500POPC   C4A58926  18.855  21.081   7.421
 4500POPC   C1B58927  19.432  21.732   6.362
 4500POPC   C2B58928  19.472  21.768   6.788
 4500POPC   C3B58929  19.223  21.683   7.129
 4500POPC   C4B58930  18.794  21.827   7.249
 4501POPC   NC358931   2.991  34.463   5.458
 4501POPC   PO458932   2.327  34.376   5.393
 4501POPC   GL158933   2.567  34.629   5.717
 4501POPC   GL258934   2.739  34.942   5.662
 4501POPC   C1A58935   2.762  34.611   6.138
 4501POPC   D2A58936   2.658  34.397   6.524
 4501POPC   C3A58937   2.775  34.568   6.932
 4501POPC   C4A58938   2.671  34.348   7.299
 4501POPC   C1B58939   2.570  35.080   6.075
 4501POPC   C2B58940   2.552  34.896   6.504
 4501POPC   C3B58941   2.535  35.036   6.944
 4501POPC   C4B58942   2.591  34.837   7.365
 4502POPC   NC358943  30.209  35.209   5.288
 4502POPC   PO458944  30.829  35.583   5.395
 4502POPC   GL158945  30.725  35.403   5.802
 4502POPC   GL258946  30.512  35.118   5.725
 4502POPC   C1A58947  30.875  35.479   6.250
 4502POPC   D2A58948  30.824  35.612   6.706
 4502POPC   C3A58949  30.505  35.432   7.017
 4502POPC   C4A58950  30.171  35.135   7.155
 4502POPC   C1B58951  30.670  35.014   6.140
 4502POPC   C2B58952  30.613  35.133   6.568
 4502POPC   C3B58953  30.618  34.905   6.960
 4502POPC   C4B58954  30.916  35.121   7.192
 4503POPC   NC358955  28.741  43.858   5.314
 4503POPC   PO458956  29.336  43.547   5.295
 4503POPC   GL158957  29.168  43.608   5.765
 4503POPC   GL258958  28.814  43.664   5.788
 4503POPC   C1A58959  29.120  43.917   6.161
 4503POPC   D2A58960  28.940  44.111   6.585
 4503POPC   C3A58961  29.216  44.138   6.960
 4503POPC   C4A58962  29.445  43.817   7.177
 4503POPC   C1B58963  28.834  43.503   6.201
 4503POPC   C2B58964  29.142  43.506   6.511
 4503POPC   C3B58965  29.107  43.536   6.935
 4503POPC   C4B58966  28.891  43.826   7.212
 4504POPC   NC358967  44.559  20.382   5.209
 4504POPC   PO458968  44.819  20.936   5.393
 4504POPC   GL158969  44.793  20.709   5.751
 4504POPC   GL258970  44.800  20.337   5.668
 4504POPC   C1A58971  44.845  20.830   6.184
 4504POPC   D2A58972  44.881  21.032   6.556
 4504POPC   C3A58973  44.971  20.776   6.878
 4504POPC   C4A58974  44.759  20.676   7.221
 4504POPC   C1B58975  44.660  20.353   6.095
 4504POPC   C2B58976  44.844  20.423   6.521
 4504POPC   C3B58977  44.912  20.265   6.952
 4504POPC   C4B58978  44.636  20.197   7.303
 4505POPC   NC358979  23.934  35.773   5.284
 4505POPC   PO458980  23.705  35.138   5.352
 4505POPC   GL158981  23.810  35.475   5.709
 4505POPC   GL258982  23.584  35.802   5.674
 4505POPC   C1A58983  23.900  35.416   6.191
 4505POPC   D2A58984  23.887  35.201   6.621
 4505POPC   C3A58985  23.728  35.397   7.004
 4505POPC   C4A58986  23.804  35.377   7.480
 4505POPC   C1B58987  23.461  35.737   6.108
 4505POPC   C2B58988  23.543  35.606   6.528
 4505POPC   C3B58989  23.334  35.693   6.914
 4505POPC   C4B58990  23.456  35.689   7.331
 4506POPC   NC358991  43.546  30.102   5.517
 4506POPC   PO458992  44.061  29.633   5.417
 4506POPC   GL158993  43.942  29.896   5.811
 4506POPC   GL258994  43.580  29.867   5.970
 4506POPC   C1A58995  43.957  29.920   6.289
 4506POPC   D2A58996  43.721  29.919   6.671
 4506POPC   C3A58997  44.019  29.940   7.000
 4506POPC   C4A58998  44.048  29.756   7.415
 4506POPC   C1B58999  43.564  30.253   6.257
 4506POPC   C2B59000  43.495  30.425   6.680
 4506POPC   C3B59001  43.590  30.220   7.088
 4506POPC   C4B59002  43.557  29.750   7.205
 4507POPC   NC359003  27.725  25.939   5.522
 4507POPC   PO459004  27.254  26.446   5.367
 4507POPC   GL159005  27.516  26.321   5.775
 4507POPC   GL259006  27.508  25.983   5.968
 4507POPC   C1A59007  27.807  26.368   6.160
 4507POPC   D2A59008  27.764  26.484   6.610
 4507POPC   C3A59009  27.620  26.186   6.936
 4507POPC   C4A59010  27.768  26.212   7.394
 4507POPC   C1B59011  27.556  26.010   6.403
 4507POPC   C2B59012  27.368  25.806   6.696
 4507POPC   C3B59013  27.212  25.718   7.074
 4507POPC   C4B59014  27.577  25.747   7.351
 4508POPC   NC359015  39.480  29.155   5.380
 4508POPC   PO459016  38.769  29.200   5.451
 4508POPC   GL159017  39.135  29.234   5.756
 4508POPC   GL259018  39.367  28.906   5.794
 4508POPC   C1A59019  39.252  29.397   6.183
 4508POPC   D2A59020  39.445  29.171   6.532
 4508POPC   C3A59021  39.440  29.409   6.914
 4508POPC   C4A59022  39.325  29.362   7.357
 4508POPC   C1B59023  39.120  28.902   6.139
 4508POPC   C2B59024  38.976  28.962   6.543
 4508POPC   C3B59025  39.116  29.003   6.941
 4508POPC   C4B59026  39.467  28.892   7.156
 4509POPC   NC359027   5.936   4.537   5.569
 4509POPC   PO459028   6.129   5.287   5.410
 4509POPC   GL159029   5.936   5.209   5.844
 4509POPC   GL259030   6.058   4.876   5.998
 4509POPC   C1A59031   5.666   5.077   6.234
 4509POPC   D2A59032   5.611   4.703   6.554
 4509POPC   C3A59033   5.679   4.863   6.996
 4509POPC   C4A59034   5.736   5.289   7.238
 4509POPC   C1B59035   6.437   4.777   6.285
 4509POPC   C2B59036   6.535   4.726   6.703
 4509POPC   C3B59037   6.226   4.804   7.010
 4509POPC   C4B59038   6.018   4.888   7.396
 4510POPC   NC359039  19.107  44.472   5.424
 4510POPC   PO459040  18.650   0.024   5.645
 4510POPC   GL159041  18.954  44.712   5.848
 4510POPC   GL259042  18.950  44.298   5.881
 4510POPC   C1A59043  19.175  44.816   6.229
 4510POPC   D2A59044  18.984  44.862   6.641
 4510POPC   C3A59045  19.061  44.706   7.044
 4510POPC   C4A59046  19.369  44.442   7.236
 4510POPC   C1B59047  18.828  44.449   6.285
 4510POPC   C2B59048  18.712  44.419   6.697
 4510POPC   C3B59049  18.824  44.261   7.081
 4510POPC   C4B59050  18.917  44.420   7.490
 4511POPC   NC359051   1.453  11.476   5.297
 4511POPC   PO459052   0.930  11.731   5.481
 4511POPC   GL159053   1.158  11.413   5.728
 4511POPC   GL259054   1.506  11.443   5.830
 4511POPC   C1A59055   1.163  11.253   6.157
 4511POPC   D2A59056   1.332  11.303   6.567
 4511POPC   C3A59057   1.203  11.122   6.963
 4511POPC   C4A59058   1.299  11.251   7.392
 4511POPC   C1B59059   1.672  11.124   6.197
 4511POPC   C2B59060   1.699  10.945   6.668
 4511POPC   C3B59061   1.646  10.940   7.136
 4511POPC   C4B59062   1.574  10.864   7.599
 4512POPC   NC359063  24.685  30.966   5.406
 4512POPC   PO459064  24.775  30.379   5.456
 4512POPC   GL159065  24.662  30.634   5.797
 4512POPC   GL259066  24.397  30.769   5.796
 4512POPC   C1A59067  24.778  30.827   6.180
 4512POPC   D2A59068  24.683  30.693   6.600
 4512POPC   C3A59069  24.848  30.789   6.986
 4512POPC   C4A59070  24.757  30.669   7.378
 4512POPC   C1B59071  24.296  30.571   6.173
 4512POPC   C2B59072  24.177  30.649   6.587
 4512POPC   C3B59073  24.350  30.563   6.989
 4512POPC   C4B59074  24.264  30.795   7.342
 4513POPC   NC359075  39.641  28.300   5.321
 4513POPC   PO459076  40.334  28.061   5.315
 4513POPC   GL159077  40.074  28.390   5.642
 4513POPC   GL259078  39.737  28.538   5.750
 4513POPC   C1A59079  40.053  28.332   6.116
 4513POPC   D2A59080  40.077  28.040   6.473
 4513POPC   C3A59081  40.167  28.158   6.908
 4513POPC   C4A59082  40.216  28.343   7.298
 4513POPC   C1B59083  39.732  28.775   6.151
 4513POPC   C2B59084  39.851  28.575   6.544
 4513POPC   C3B59085  39.743  28.490   6.965
 4513POPC   C4B59086  39.756  28.516   7.411
 4514POPC   NC359087  12.507  40.072   5.433
 4514POPC   PO459088  13.143  40.104   5.514
 4514POPC   GL159089  12.817  40.184   5.871
 4514POPC   GL259090  12.459  40.341   5.871
 4514POPC   C1A59091  12.799  40.231   6.341
 4514POPC   D2A59092  12.600  40.212   6.775
 4514POPC   C3A59093  12.854  40.353   7.158
 4514POPC   C4A59094  13.050  40.197   7.561
 4514POPC   C1B59095  12.373  40.005   6.162
 4514POPC   C2B59096  12.555  39.764   6.496
 4514POPC   C3B59097  12.487  39.737   6.942
 4514POPC   C4B59098  12.767  39.858   7.273
 4515POPC   NC359099  11.382  20.261   5.523
 4515POPC   PO459100  11.374  20.924   5.479
 4515POPC   GL159101  11.268  20.667   5.819
 4515POPC   GL259102  11.586  20.525   5.902
 4515POPC   C1A59103  11.233  20.746   6.233
 4515POPC   D2A59104  10.996  20.877   6.522
 4515POPC   C3A59105  11.148  20.801   6.940
 4515POPC   C4A59106  11.308  20.688   7.342
 4515POPC   C1B59107  11.509  20.336   6.292
 4515POPC   C2B59108  11.556  20.494   6.710
 4515POPC   C3B59109  11.666  20.377   7.133
 4515POPC   C4B59110  11.824  20.655   7.456
 4516POPC   NC359111  25.026   5.366   5.230
 4516POPC   PO459112  25.239   5.995   5.462
 4516POPC   GL159113  25.223   5.716   5.814
 4516POPC   GL259114  25.486   5.459   5.828
 4516POPC   C1A59115  25.066   5.782   6.230
 4516POPC   D2A59116  25.219   5.666   6.620
 4516POPC   C3A59117  25.207   6.034   6.893
 4516POPC   C4A59118  25.149   6.169   7.318
 4516POPC   C1B59119  25.582   5.634   6.241
 4516POPC   C2B59120  25.643   5.952   6.600
 4516POPC   C3B59121  25.711   6.005   7.070
 4516POPC   C4B59122  25.590   6.068   7.528
 4517POPC   NC359123  33.545  22.160   5.258
 4517POPC   PO459124  34.177  22.004   5.425
 4517POPC   GL159125  33.882  22.270   5.692
 4517POPC   GL259126  33.530  22.247   5.790
 4517POPC   C1A59127  33.867  22.416   6.139
 4517POPC   D2A59128  34.086  22.117   6.403
 4517POPC   C3A59129  34.146  22.156   6.844
 4517POPC   C4A59130  33.856  22.206   7.184
 4517POPC   C1B59131  33.510  22.059   6.212
 4517POPC   C2B59132  33.637  22.145   6.659
 4517POPC   C3B59133  33.603  21.833   6.960
 4517POPC   C4B59134  33.622  21.772   7.398
 4518POPC   NC359135  42.957  36.706   5.371
 4518POPC   PO459136  43.379  37.156   5.302
 4518POPC   GL159137  43.378  36.955   5.702
 4518POPC   GL259138  43.395  36.599   5.684
 4518POPC   C1A59139  43.091  36.992   6.086
 4518POPC   D2A59140  43.112  36.821   6.513
 4518POPC   C3A59141  43.012  37.028   6.927
 4518POPC   C4A59142  43.106  37.179   7.333
 4518POPC   C1B59143  43.512  36.693   6.132
 4518POPC   C2B59144  43.540  36.515   6.547
 4518POPC   C3B59145  43.697  36.598   6.953
 4518POPC   C4B59146  43.478  36.906   7.129
 4519POPC   NC359147  21.029  35.907   5.488
 4519POPC   PO459148  21.459  36.435   5.410
 4519POPC   GL159149  21.408  36.158   5.767
 4519POPC   GL259150  21.120  36.297   5.936
 4519POPC   C1A59151  21.536  36.197   6.196
 4519POPC   D2A59152  21.280  36.213   6.569
 4519POPC   C3A59153  21.520  36.269   6.946
 4519POPC   C4A59154  21.702  36.015   7.255
 4519POPC   C1B59155  21.110  35.895   6.161
 4519POPC   C2B59156  21.002  35.730   6.568
 4519POPC   C3B59157  20.956  35.811   7.007
 4519POPC   C4B59158  21.161  35.839   7.403
 4520POPC   NC359159  33.921  35.020   5.575
 4520POPC   PO459160  34.011  35.691   5.420
 4520POPC   GL159161  33.951  35.476   5.804
 4520POPC   GL259162  33.605  35.490   5.731
 4520POPC   C1A59163  33.990  35.316   6.225
 4520POPC   D2A59164  33.695  35.216   6.555
 4520POPC   C3A59165  33.884  35.214   6.950
 4520POPC   C4A59166  33.777  35.302   7.374
 4520POPC   C1B59167  33.553  35.612   6.168
 4520POPC   C2B59168  33.333  35.562   6.574
 4520POPC   C3B59169  33.541  35.658   6.960
 4520POPC   C4B59170  33.652  35.790   7.338
 4521POPC   NC359171  30.615  32.777   5.298
 4521POPC   PO459172  30.878  33.371   5.463
 4521POPC   GL159173  30.676  33.083   5.742
 4521POPC   GL259174  30.722  32.706   5.792
 4521POPC   C1A59175  30.641  33.250   6.142
 4521POPC   D2A59176  30.590  33.074   6.541
 4521POPC   C3A59177  30.709  33.302   6.882
 4521POPC   C4A59178  30.681  33.093   7.262
 4521POPC   C1B59179  30.873  32.785   6.199
 4521POPC   C2B59180  31.084  32.829   6.608
 4521POPC   C3B59181  30.923  32.724   7.014
 4521POPC   C4B59182  30.786  32.462   7.349
 4522POPC   NC359183   4.435  14.540   5.252
 4522POPC   PO459184   4.111  14.862   5.662
 4522POPC   GL159185   4.360  14.521   5.815
 4522POPC   GL259186   4.275  14.183   5.658
 4522POPC   C1A59187   4.473  14.532   6.263
 4522POPC   D2A59188   4.267  14.801   6.579
 4522POPC   C3A59189   4.408  14.758   6.979
 4522POPC   C4A59190   4.705  14.712   7.303
 4522POPC   C1B59191   4.206  14.092   6.118
 4522POPC   C2B59192   4.191  14.217   6.572
 4522POPC   C3B59193   4.404  14.219   6.954
 4522POPC   C4B59194   4.304  14.403   7.342
 4523POPC   NC359195   0.835  41.035   5.700
 4523POPC   PO459196   0.319  41.280   5.343
 4523POPC   GL159197   0.339  40.944   5.758
 4523POPC   GL259198   0.578  40.609   5.780
 4523POPC   C1A59199   0.311  40.737   6.221
 4523POPC   D2A59200   0.263  40.572   6.689
 4523POPC   C3A59201   0.453  40.837   7.026
 4523POPC   C4A59202   0.749  41.056   7.318
 4523POPC   C1B59203   0.799  40.429   6.149
 4523POPC   C2B59204   0.814  40.474   6.609
 4523POPC   C3B59205   0.651  40.352   6.992
 4523POPC   C4B59206   0.245  40.384   7.229
 4524POPC   NC359207  12.174   5.388   5.352
 4524POPC   PO459208  11.560   5.110   5.426
 4524POPC   GL159209  11.789   5.176   5.828
 4524POPC   GL259210  12.175   5.233   5.839
 4524POPC   C1A59211  11.897   5.289   6.273
 4524POPC   D2A59212  12.293   5.324   6.501
 4524POPC   C3A59213  12.188   5.172   6.893
 4524POPC   C4A59214  12.353   5.237   7.284
 4524POPC   C1B59215  12.457   4.989   6.133
 4524POPC   C2B59216  12.572   4.882   6.579
 4524POPC   C3B59217  12.532   4.811   7.037
 4524POPC   C4B59218  12.581   4.825   7.504
 4525POPC   NC359219  16.289  30.084   5.526
 4525POPC   PO459220  16.977  30.286   5.525
 4525POPC   GL159221  16.825  30.059   5.896
 4525POPC   GL259222  16.499  30.144   6.007
 4525POPC   C1A59223  16.988  30.108   6.331
 4525POPC   D2A59224  17.259  29.944   6.678
 4525POPC   C3A59225  17.135  30.001   7.114
 4525POPC   C4A59226  17.123  29.777   7.526
 4525POPC   C1B59227  16.557  29.859   6.372
 4525POPC   C2B59228  16.733  29.909   6.761
 4525POPC   C3B59229  16.618  29.976   7.185
 4525POPC   C4B59230  16.743  30.101   7.596
 4526POPC   NC359231  31.702  22.658   5.473
 4526POPC   PO459232  31.108  23.043   5.589
 4526POPC   GL159233  31.517  23.096   5.767
 4526POPC   GL259234  31.561  22.769   5.945
 4526POPC   C1A59235  31.602  23.225   6.177
 4526POPC   D2A59236  31.263  23.219   6.519
 4526POPC   C3A59237  31.367  22.977   6.890
 4526POPC   C4A59238  31.664  23.013   7.227
 4526POPC   C1B59239  31.492  22.762   6.395
 4526POPC   C2B59240  31.514  22.482   6.730
 4526POPC   C3B59241  31.469  22.434   7.142
 4526POPC   C4B59242  31.282  22.689   7.329
 4527POPC   NC359243   7.652  15.469   5.510
 4527POPC   PO459244   7.095  15.086   5.587
 4527POPC   GL159245   7.350  15.241   5.879
 4527POPC   GL259246   7.561  14.968   5.816
 4527POPC   C1A59247   7.264  15.372   6.303
 4527POPC   D2A59248   7.124  15.492   6.701
 4527POPC   C3A59249   7.336  15.212   6.991
 4527POPC   C4A59250   7.488  15.266   7.385
 4527POPC   C1B59251   7.712  15.111   6.238
 4527POPC   C2B59252   7.706  15.249   6.637
 4527POPC   C3B59253   7.860  15.182   7.045
 4527POPC   C4B59254   7.688  14.822   7.272
 4528POPC   NC359255   5.015  42.263   5.344
 4528POPC   PO459256   5.080  42.855   5.333
 4528POPC   GL159257   4.952  42.575   5.761
 4528POPC   GL259258   4.868  42.167   5.809
 4528POPC   C1A59259   5.083  42.414   6.201
 4528POPC   D2A59260   5.308  42.116   6.507
 4528POPC   C3A59261   5.423  42.272   6.926
 4528POPC   C4A59262   5.172  42.425   7.250
 4528POPC   C1B59263   4.917  41.921   6.189
 4528POPC   C2B59264   4.818  42.142   6.578
 4528POPC   C3B59265   4.929  42.096   6.935
 4528POPC   C4B59266   4.770  42.122   7.330
 4529POPC   NC359267  33.032  33.326   5.307
 4529POPC   PO459268  33.212  32.704   5.184
 4529POPC   GL159269  33.001  32.922   5.629
 4529POPC   GL259270  32.666  32.815   5.727
 4529POPC   C1A59271  33.136  32.942   6.139
 4529POPC   D2A59272  33.299  33.003   6.631
 4529POPC   C3A59273  33.270  33.209   7.110
 4529POPC   C4A59274  33.155  33.093   7.573
 4529POPC   C1B59275  32.649  33.065   6.124
 4529POPC   C2B59276  32.792  32.956   6.549
 4529POPC   C3B59277  32.637  32.887   6.964
 4529POPC   C4B59278  32.724  32.902   7.420
 4530POPC   NC359279   7.613  20.783   5.459
 4530POPC   PO459280   7.007  21.104   5.406
 4530POPC   GL159281   7.193  20.752   5.746
 4530POPC   GL259282   7.191  20.395   5.806
 4530POPC   C1A59283   7.463  20.756   6.161
 4530POPC   D2A59284   7.585  20.878   6.617
 4530POPC   C3A59285   7.360  20.897   7.027
 4530POPC   C4A59286   7.349  21.009   7.464
 4530POPC   C1B59287   7.374  20.254   6.211
 4530POPC   C2B59288   7.444  20.375   6.656
 4530POPC   C3B59289   7.588  20.447   7.076
 4530POPC   C4B59290   7.506  20.539   7.501
 4531POPC   NC359291  35.573  37.339   5.363
 4531POPC   PO459292  35.212  37.796   5.388
 4531POPC   GL159293  35.307  37.651   5.805
 4531POPC   GL259294  35.615  37.439   5.852
 4531POPC   C1A59295  35.398  37.844   6.220
 4531POPC   D2A59296  35.628  38.087   6.543
 4531POPC   C3A59297  35.490  37.939   6.935
 4531POPC   C4A59298  35.310  37.886   7.332
 4531POPC   C1B59299  35.415  37.325   6.215
 4531POPC   C2B59300  35.243  37.493   6.593
 4531POPC   C3B59301  35.431  37.441   6.978
 4531POPC   C4B59302  35.307  37.395   7.385
 4532POPC   NC359303  40.993  36.417   4.970
 4532POPC   PO459304  40.786  36.815   5.455
 4532POPC   GL159305  40.681  36.919   5.853
 4532POPC   GL259306  40.789  36.598   5.924
 4532POPC   C1A59307  40.841  37.019   6.272
 4532POPC   D2A59308  40.863  37.203   6.666
 4532POPC   C3A59309  40.842  36.899   6.983
 4532POPC   C4A59310  40.785  36.778   7.377
 4532POPC   C1B59311  40.637  36.554   6.317
 4532POPC   C2B59312  40.739  36.460   6.733
 4532POPC   C3B59313  40.485  36.490   7.084
 4532POPC   C4B59314  40.530  36.363   7.519
 4533POPC   NC359315  37.824   2.879   5.542
 4533POPC   PO459316  37.295   2.528   5.574
 4533POPC   GL159317  37.519   2.618   5.938
 4533POPC   GL259318  37.815   2.454   5.850
 4533POPC   C1A59319  37.740   2.913   6.240
 4533POPC   D2A59320  37.687   3.178   6.630
 4533POPC   C3A59321  37.845   3.023   7.004
 4533POPC   C4A59322  37.660   2.927   7.414
 4533POPC   C1B59323  37.821   2.343   6.287
 4533POPC   C2B59324  37.798   2.588   6.682
 4533POPC   C3B59325  37.804   2.479   7.129
 4533POPC   C4B59326  38.022   2.146   7.377
 4534POPC   NC359327  24.052   0.239   5.516
 4534POPC   PO459328  23.430   0.155   5.512
 4534POPC   GL159329  23.555   0.494   5.750
 4534POPC   GL259330  23.762   0.281   5.925
 4534POPC   C1A59331  23.664   0.750   6.116
 4534POPC   D2A59332  23.946   0.750   6.445
 4534POPC   C3A59333  23.810   0.799   6.845
 4534POPC   C4A59334  23.662   0.572   7.165
 4534POPC   C1B59335  23.629   0.276   6.319
 4534POPC   C2B59336  23.650   0.303   6.739
 4534POPC   C3B59337  23.773   0.089   7.089
 4534POPC   C4B59338  23.973   0.282   7.495
 4535POPC   NC359339  36.155  22.026   5.417
 4535POPC   PO459340  36.334  22.723   5.378
 4535POPC   GL159341  36.189  22.443   5.735
 4535POPC   GL259342  35.828  22.320   5.701
 4535POPC   C1A59343  36.196  22.087   6.062
 4535POPC   D2A59344  36.376  21.895   6.437
 4535POPC   C3A59345  36.128  21.831   6.800
 4535POPC   C4A59346  36.193  22.004   7.205
 4535POPC   C1B59347  35.865  22.471   6.144
 4535POPC   C2B59348  36.039  22.300   6.513
 4535POPC   C3B59349  36.163  22.432   6.902
 4535POPC   C4B59350  35.940  22.482   7.261
 4536POPC   NC359351  14.767  28.560   5.323
 4536POPC   PO459352  14.286  28.134   5.403
 4536POPC   GL159353  14.526  28.140   5.792
 4536POPC   GL259354  14.707  28.444   5.825
 4536POPC   C1A59355  14.418  28.225   6.219
 4536POPC   D2A59356  14.226  28.134   6.585
 4536POPC   C3A59357  14.422  28.214   6.989
 4536POPC   C4A59358  14.600  27.889   7.240
 4536POPC   C1B59359  14.816  28.588   6.234
 4536POPC   C2B59360  14.879  28.620   6.666
 4536POPC   C3B59361  14.913  28.835   7.024
 4536POPC   C4B59362  14.685  28.584   7.282
 4537POPC   NC359363  14.404  42.881   5.399
 4537POPC   PO459364  14.506  42.225   5.374
 4537POPC   GL159365  14.362  42.481   5.794
 4537POPC   GL259366  14.555  42.776   5.919
 4537POPC   C1A59367  14.381  42.462   6.294
 4537POPC   D2A59368  14.395  42.516   6.763
 4537POPC   C3A59369  14.358  42.146   7.058
 4537POPC   C4A59370  14.597  41.939   7.395
 4537POPC   C1B59371  14.842  42.400   6.064
 4537POPC   C2B59372  15.003  42.334   6.512
 4537POPC   C3B59373  14.889  42.586   6.881
 4537POPC   C4B59374  14.662  42.483   7.273
 4538POPC   NC359375   2.611   5.465   5.431
 4538POPC   PO459376   2.641   6.068   5.398
 4538POPC   GL159377   2.635   5.832   5.795
 4538POPC   GL259378   2.958   5.629   5.792
 4538POPC   C1A59379   2.561   5.601   6.185
 4538POPC   D2A59380   2.506   5.464   6.626
 4538POPC   C3A59381   2.611   5.806   6.900
 4538POPC   C4A59382   2.608   5.899   7.355
 4538POPC   C1B59383   3.028   5.885   6.172
 4538POPC   C2B59384   2.951   6.051   6.603
 4538POPC   C3B59385   3.072   6.003   7.054
 4538POPC   C4B59386   3.364   6.017   7.417
 4539POPC   NC359387   3.690  40.430   5.375
 4539POPC   PO459388   3.373  39.845   5.210
 4539POPC   GL159389   3.451  39.922   5.716
 4539POPC   GL259390   3.706  40.170   5.815
 4539POPC   C1A59391   3.382  39.728   6.185
 4539POPC   D2A59392   3.264  39.937   6.593
 4539POPC   C3A59393   3.353  39.877   7.046
 4539POPC   C4A59394   3.759  39.745   7.249
 4539POPC   C1B59395   3.410  40.236   6.150
 4539POPC   C2B59396   3.416  40.443   6.539
 4539POPC   C3B59397   3.410  40.395   6.968
 4539POPC   C4B59398   3.581  40.242   7.363
 4540POPC   NC359399   7.345  38.126   5.320
 4540POPC   PO459400   7.811  38.679   5.436
 4540POPC   GL159401   7.479  38.510   5.703
 4540POPC   GL259402   7.613  38.213   5.743
 4540POPC   C1A59403   7.273  38.428   6.119
 4540POPC   D2A59404   7.413  38.422   6.547
 4540POPC   C3A59405   7.185  38.488   6.950
 4540POPC   C4A59406   7.126  38.780   7.331
 4540POPC   C1B59407   7.782  38.293   6.142
 4540POPC   C2B59408   7.783  38.064   6.523
 4540POPC   C3B59409   7.662  38.190   6.929
 4540POPC   C4B59410   7.586  38.452   7.268
 4541POPC   NC359411   3.810  35.037   5.435
 4541POPC   PO459412   3.381  35.550   5.330
 4541POPC   GL159413   3.600  35.436   5.709
 4541POPC   GL259414   3.381  35.675   5.834
 4541POPC   C1A59415   3.642  35.130   6.060
 4541POPC   D2A59416   3.514  35.001   6.476
 4541POPC   C3A59417   3.533  35.115   6.898
 4541POPC   C4A59418   3.842  35.304   7.143
 4541POPC   C1B59419   3.372  35.499   6.252
 4541POPC   C2B59420   3.210  35.439   6.645
 4541POPC   C3B59421   3.291  35.560   7.057
 4541POPC   C4B59422   3.093  35.545   7.458
 4542POPC   NC359423  19.279  26.477   5.476
 4542POPC   PO459424  18.991  25.858   5.515
 4542POPC   GL159425  19.202  26.046   5.818
 4542POPC   GL259426  18.914  26.284   5.828
 4542POPC   C1A59427  19.310  25.799   6.193
 4542POPC   D2A59428  19.054  25.670   6.538
 4542POPC   C3A59429  19.120  25.849   6.931
 4542POPC   C4A59430  18.932  25.642   7.240
 4542POPC   C1B59431  18.861  26.051   6.212
 4542POPC   C2B59432  19.012  26.207   6.572
 4542POPC   C3B59433  18.883  26.340   6.957
 4542POPC   C4B59434  18.782  26.126   7.316
 4543POPC   NC359435  11.547  16.392   5.045
 4543POPC   PO459436  11.095  16.547   5.549
 4543POPC   GL159437  11.169  16.623   5.985
 4543POPC   GL259438  11.392  16.887   5.976
 4543POPC   C1A59439  11.011  16.776   6.379
 4543POPC   D2A59440  10.836  16.559   6.744
 4543POPC   C3A59441  11.120  16.502   7.079
 4543POPC   C4A59442  11.132  16.650   7.519
 4543POPC   C1B59443  11.573  16.804   6.373
 4543POPC   C2B59444  11.572  16.729   6.815
 4543POPC   C3B59445  11.412  16.897   7.179
 4543POPC   C4B59446  11.542  17.005   7.593
 4544POPC   NC359447  26.989  40.012   5.367
 4544POPC   PO459448  26.396  39.791   5.617
 4544POPC   GL159449  26.491  39.992   5.966
 4544POPC   GL259450  26.781  40.144   5.839
 4544POPC   C1A59451  26.549  40.015   6.403
 4544POPC   D2A59452  26.845  40.176   6.705
 4544POPC   C3A59453  26.777  39.891   6.981
 4544POPC   C4A59454  26.871  39.631   7.272
 4544POPC   C1B59455  26.876  40.389   6.209
 4544POPC   C2B59456  27.194  40.522   6.531
 4544POPC   C3B59457  27.128  40.533   6.985
 4544POPC   C4B59458  26.794  40.331   7.234
 4545POPC   NC359459  33.546  43.723   5.472
 4545POPC   PO459460  33.545  44.318   5.150
 4545POPC   GL159461  33.815  44.173   5.599
 4545POPC   GL259462  34.015  43.850   5.667
 4545POPC   C1A59463  33.968  44.136   6.073
 4545POPC   D2A59464  33.960  44.011   6.524
 4545POPC   C3A59465  33.898  44.162   6.951
 4545POPC   C4A59466  33.548  44.086   7.187
 4545POPC   C1B59467  33.815  43.632   6.067
 4545POPC   C2B59468  33.663  43.601   6.503
 4545POPC   C3B59469  33.731  43.665   6.941
 4545POPC   C4B59470  33.566  43.359   7.199
 4546POPC   NC359471  32.073  15.669   5.524
 4546POPC   PO459472  32.232  16.338   5.547
 4546POPC   GL159473  32.376  16.001   5.799
 4546POPC   GL259474  32.008  16.011   5.885
 4546POPC   C1A59475  32.516  15.989   6.239
 4546POPC   D2A59476  32.289  16.264   6.545
 4546POPC   C3A59477  32.501  16.262   6.939
 4546POPC   C4A59478  32.356  16.036   7.270
 4546POPC   C1B59479  32.025  15.868   6.274
 4546POPC   C2B59480  32.112  15.778   6.703
 4546POPC   C3B59481  31.966  15.721   7.139
 4546POPC   C4B59482  31.625  15.603   7.380
 4547POPC   NC359483   5.507  17.932   5.759
 4547POPC   PO459484   5.209  18.377   5.349
 4547POPC   GL159485   5.065  18.173   5.739
 4547POPC   GL259486   5.287  18.367   5.899
 4547POPC   C1A59487   4.882  18.126   6.143
 4547POPC   D2A59488   4.882  18.198   6.584
 4547POPC   C3A59489   4.830  17.865   6.887
 4547POPC   C4A59490   4.948  17.880   7.326
 4547POPC   C1B59491   5.347  18.335   6.304
 4547POPC   C2B59492   5.307  18.489   6.678
 4547POPC   C3B59493   5.193  18.229   7.020
 4547POPC   C4B59494   4.984  18.381   7.396
 4548POPC   NC359495  40.667  40.653   5.375
 4548POPC   PO459496  41.248  41.079   5.486
 4548POPC   GL159497  40.934  40.832   5.771
 4548POPC   GL259498  40.569  40.901   5.837
 4548POPC   C1A59499  40.872  40.621   6.184
 4548POPC   D2A59500  40.790  40.739   6.636
 4548POPC   C3A59501  40.725  40.497   7.015
 4548POPC   C4A59502  40.848  40.584   7.428
 4548POPC   C1B59503  40.589  41.073   6.288
 4548POPC   C2B59504  40.632  41.214   6.744
 4548POPC   C3B59505  40.723  41.006   7.165
 4548POPC   C4B59506  40.605  40.963   7.645
 4549POPC   NC359507  10.937  14.869   5.379
 4549POPC   PO459508  11.007  15.542   5.729
 4549POPC   GL159509  11.114  15.193   5.931
 4549POPC   GL259510  11.289  14.983   5.734
 4549POPC   C1A59511  11.099  15.206   6.365
 4549POPC   D2A59512  11.093  15.596   6.599
 4549POPC   C3A59513  11.324  15.479   6.945
 4549POPC   C4A59514  11.161  15.187   7.277
 4549POPC   C1B59515  11.384  14.811   6.142
 4549POPC   C2B59516  11.488  14.920   6.557
 4549POPC   C3B59517  11.358  14.817   6.959
 4549POPC   C4B59518  11.590  14.923   7.318
 4550POPC   NC359519  16.464   8.158   5.425
 4550POPC   PO459520  17.067   7.953   5.656
 4550POPC   GL159521  16.713   7.975   5.884
 4550POPC   GL259522  16.746   8.320   5.880
 4550POPC   C1A59523  16.702   7.899   6.323
 4550POPC   D2A59524  16.568   8.043   6.705
 4550POPC   C3A59525  16.838   7.924   7.025
 4550POPC   C4A59526  16.807   8.082   7.452
 4550POPC   C1B59527  16.549   8.385   6.275
 4550POPC   C2B59528  16.634   8.549   6.671
 4550POPC   C3B59529  16.671   8.405   7.070
 4550POPC   C4B59530  16.532   8.500   7.458
 4551POPC   NC359531  13.836  15.256   5.431
 4551POPC   PO459532  13.226  15.556   5.574
 4551POPC   GL159533  13.410  15.192   5.835
 4551POPC   GL259534  13.791  15.169   5.938
 4551POPC   C1A59535  13.259  15.131   6.292
 4551POPC   D2A59536  13.315  15.069   6.778
 4551POPC   C3A59537  13.340  15.316   7.169
 4551POPC   C4A59538  13.355  15.194   7.611
 4551POPC   C1B59539  13.685  14.876   6.290
 4551POPC   C2B59540  13.776  14.850   6.709
 4551POPC   C3B59541  13.745  14.988   7.131
 4551POPC   C4B59542  13.853  14.992   7.573
 4552POPC   NC359543  35.467  26.756   5.388
 4552POPC   PO459544  34.942  26.668   5.703
 4552POPC   GL159545  35.221  26.995   5.858
 4552POPC   GL259546  35.588  27.065   5.774
 4552POPC   C1A59547  35.225  26.920   6.287
 4552POPC   D2A59548  35.467  26.745   6.579
 4552POPC   C3A59549  35.310  26.673   6.986
 4552POPC   C4A59550  35.216  26.838   7.445
 4552POPC   C1B59551  35.725  27.019   6.168
 4552POPC   C2B59552  35.891  27.049   6.558
 4552POPC   C3B59553  35.691  27.031   6.946
 4552POPC   C4B59554  35.701  26.777   7.293
 4553POPC   NC359555   8.232  21.550   5.452
 4553POPC   PO459556   8.830  21.299   5.250
 4553POPC   GL159557   8.551  21.208   5.710
 4553POPC   GL259558   8.238  21.280   5.874
 4553POPC   C1A59559   8.519  20.952   6.133
 4553POPC   D2A59560   8.263  21.091   6.520
 4553POPC   C3A59561   8.419  21.074   6.983
 4553POPC   C4A59562   8.204  21.183   7.391
 4553POPC   C1B59563   7.995  21.528   6.133
 4553POPC   C2B59564   7.978  21.557   6.557
 4553POPC   C3B59565   7.995  21.355   6.933
 4553POPC   C4B59566   7.718  21.256   7.229
 4554POPC   NC359567   2.347  23.745   5.485
 4554POPC   PO459568   1.687  23.762   5.658
 4554POPC   GL159569   2.012  23.571   5.835
 4554POPC   GL259570   2.130  23.888   5.936
 4554POPC   C1A59571   2.087  23.417   6.226
 4554POPC   D2A59572   2.163  23.522   6.665
 4554POPC   C3A59573   1.829  23.488   6.968
 4554POPC   C4A59574   1.682  23.733   7.322
 4554POPC   C1B59575   1.939  23.917   6.333
 4554POPC   C2B59576   1.852  23.949   6.765
 4554POPC   C3B59577   2.102  23.968   7.106
 4554POPC   C4B59578   2.353  24.041   7.439
 4555POPC   NC359579  32.166  39.382   5.378
 4555POPC   PO459580  32.196  38.779   5.699
 4555POPC   GL159581  32.264  39.177   5.840
 4555POPC   GL259582  32.516  39.478   5.742
 4555POPC   C1A59583  32.212  39.081   6.280
 4555POPC   D2A59584  32.355  38.919   6.646
 4555POPC   C3A59585  32.121  39.111   6.941
 4555POPC   C4A59586  32.271  39.135   7.368
 4555POPC   C1B59587  32.657  39.301   6.145
 4555POPC   C2B59588  32.502  39.397   6.555
 4555POPC   C3B59589  32.550  39.409   6.987
 4555POPC   C4B59590  32.496  39.789   7.197
 4556POPC   NC359591  16.288   4.413   5.641
 4556POPC   PO459592  17.005   4.490   5.510
 4556POPC   GL159593  16.765   4.478   5.837
 4556POPC   GL259594  16.561   4.775   5.883
 4556POPC   C1A59595  16.757   4.249   6.210
 4556POPC   D2A59596  16.602   4.202   6.606
 4556POPC   C3A59597  16.802   4.033   6.923
 4556POPC   C4A59598  16.588   4.329   7.209
 4556POPC   C1B59599  16.912   4.825   6.161
 4556POPC   C2B59600  16.808   4.657   6.537
 4556POPC   C3B59601  16.782   4.739   6.946
 4556POPC   C4B59602  16.922   4.672   7.388
 4557POPC   NC359603  10.551  37.584   5.449
 4557POPC   PO459604  10.785  38.144   5.210
 4557POPC   GL159605  10.676  37.982   5.730
 4557POPC   GL259606  10.340  38.106   5.898
 4557POPC   C1A59607  10.623  37.777   6.185
 4557POPC   D2A59608  10.730  37.618   6.641
 4557POPC   C3A59609  10.616  37.864   7.025
 4557POPC   C4A59610  10.868  38.100   7.286
 4557POPC   C1B59611  10.127  37.923   6.258
 4557POPC   C2B59612  10.216  37.773   6.683
 4557POPC   C3B59613  10.347  37.436   6.972
 4557POPC   C4B59614  10.471  37.444   7.409
 4558POPC   NC359615  28.420   3.539   5.414
 4558POPC   PO459616  27.828   3.232   5.463
 4558POPC   GL159617  28.070   3.452   5.794
 4558POPC   GL259618  28.475   3.396   5.894
 4558POPC   C1A59619  28.134   3.585   6.200
 4558POPC   D2A59620  28.389   3.389   6.473
 4558POPC   C3A59621  28.326   3.449   6.907
 4558POPC   C4A59622  28.238   3.468   7.361
 4558POPC   C1B59623  28.610   3.755   6.166
 4558POPC   C2B59624  28.544   3.880   6.621
 4558POPC   C3B59625  28.721   3.744   7.026
 4558POPC   C4B59626  28.721   3.346   7.257
 4559POPC   NC359627  40.035   3.395   5.513
 4559POPC   PO459628  39.555   3.033   5.901
 4559POPC   GL159629  39.863   3.331   6.001
 4559POPC   GL259630  40.240   3.332   5.996
 4559POPC   C1A59631  39.883   3.689   6.260
 4559POPC   D2A59632  40.008   3.783   6.681
 4559POPC   C3A59633  40.231   3.479   6.991
 4559POPC   C4A59634  40.380   3.186   7.313
 4559POPC   C1B59635  40.422   3.604   6.330
 4559POPC   C2B59636  40.522   3.802   6.737
 4559POPC   C3B59637  40.231   3.991   7.078
 4559POPC   C4B59638  39.816   3.769   7.165
 4560POPC   NC359639  21.696  26.981   5.507
 4560POPC   PO459640  21.150  26.577   5.613
 4560POPC   GL159641  21.466  26.737   5.929
 4560POPC   GL259642  21.549  27.090   5.987
 4560POPC   C1A59643  21.478  26.753   6.404
 4560POPC   D2A59644  21.511  26.531   6.799
 4560POPC   C3A59645  21.294  26.658   7.153
 4560POPC   C4A59646  20.982  26.987   7.164
 4560POPC   C1B59647  21.903  26.996   6.293
 4560POPC   C2B59648  21.969  27.040   6.721
 4560POPC   C3B59649  21.654  26.968   6.991
 4560POPC   C4B59650  21.807  26.599   7.206
 4561POPC   NC359651   7.119   8.868   5.348
 4561POPC   PO459652   6.494   9.151   5.302
 4561POPC   GL159653   6.542   8.999   5.728
 4561POPC   GL259654   6.894   8.983   5.830
 4561POPC   C1A59655   6.343   8.924   6.137
 4561POPC   D2A59656   6.373   9.142   6.547
 4561POPC   C3A59657   6.354   8.901   6.919
 4561POPC   C4A59658   6.527   9.088   7.261
 4561POPC   C1B59659   6.819   9.001   6.315
 4561POPC   C2B59660   6.844   9.018   6.795
 4561POPC   C3B59661   6.970   8.817   7.198
 4561POPC   C4B59662   7.178   8.607   7.541
 4562POPC   NC359663   4.580  11.929   5.603
 4562POPC   PO459664   5.080  12.198   5.226
 4562POPC   GL159665   5.089  11.982   5.623
 4562POPC   GL259666   5.327  12.173   5.812
 4562POPC   C1A59667   5.037  11.880   6.113
 4562POPC   D2A59668   5.295  11.864   6.519
 4562POPC   C3A59669   5.112  11.857   6.939
 4562POPC   C4A59670   5.209  12.015   7.345
 4562POPC   C1B59671   5.327  12.301   6.244
 4562POPC   C2B59672   5.128  12.383   6.619
 4562POPC   C3B59673   5.206  12.407   7.044
 4562POPC   C4B59674   5.568  12.451   7.337
 4563POPC   NC359675  18.348  30.067   5.421
 4563POPC   PO459676  18.256  29.447   5.175
 4563POPC   GL159677  18.305  29.609   5.663
 4563POPC   GL259678  17.994  29.584   5.816
 4563POPC   C1A59679  18.368  29.881   6.109
 4563POPC   D2A59680  18.255  30.201   6.494
 4563POPC   C3A59681  18.251  30.082   6.963
 4563POPC   C4A59682  18.621  30.055   7.250
 4563POPC   C1B59683  18.091  29.451   6.214
 4563POPC   C2B59684  18.216  29.651   6.584
 4563POPC   C3B59685  18.176  29.569   7.004
 4563POPC   C4B59686  17.879  29.399   7.265
 4564POPC   NC359687  42.615   5.013   5.424
 4564POPC   PO459688  42.064   4.634   5.612
 4564POPC   GL159689  42.244   4.964   5.842
 4564POPC   GL259690  42.592   4.884   5.892
 4564POPC   C1A59691  42.309   5.115   6.261
 4564POPC   D2A59692  42.345   5.390   6.609
 4564POPC   C3A59693  42.305   5.259   7.045
 4564POPC   C4A59694  42.274   5.309   7.517
 4564POPC   C1B59695  42.866   4.967   6.200
 4564POPC   C2B59696  42.707   5.010   6.586
 4564POPC   C3B59697  42.714   4.885   6.993
 4564POPC   C4B59698  42.706   5.120   7.338
 4565POPC   NC359699   9.210  20.523   5.433
 4565POPC   PO459700   8.576  20.363   5.342
 4565POPC   GL159701   8.858  20.347   5.753
 4565POPC   GL259702   9.260  20.486   5.909
 4565POPC   C1A59703   8.961  20.199   6.161
 4565POPC   D2A59704   8.787  20.347   6.561
 4565POPC   C3A59705   8.984  20.374   6.970
 4565POPC   C4A59706   8.868  20.804   7.116
 4565POPC   C1B59707   9.156  20.670   6.300
 4565POPC   C2B59708   9.216  20.764   6.727
 4565POPC   C3B59709   9.314  21.048   7.037
 4565POPC   C4B59710   9.181  21.082   7.459
 4566POPC   NC359711  38.795  37.085   5.414
 4566POPC   PO459712  38.334  36.525   5.383
 4566POPC   GL159713  38.407  36.802   5.770
 4566POPC   GL259714  38.690  37.025   5.903
 4566POPC   C1A59715  38.241  36.866   6.189
 4566POPC   D2A59716  37.929  36.687   6.484
 4566POPC   C3A59717  38.137  36.631   6.875
 4566POPC   C4A59718  38.456  36.721   7.176
 4566POPC   C1B59719  38.769  36.699   6.215
 4566POPC   C2B59720  38.595  36.719   6.640
 4566POPC   C3B59721  38.656  37.097   6.898
 4566POPC   C4B59722  38.794  37.084   7.312
 4567POPC   NC359723   0.896  12.165   5.591
 4567POPC   PO459724   1.557  11.944   5.324
 4567POPC   GL159725   1.608  11.987   5.758
 4567POPC   GL259726   1.285  11.909   5.816
 4567POPC   C1A59727   1.448  12.341   6.034
 4567POPC   D2A59728   1.455  12.513   6.468
 4567POPC   C3A59729   1.546  12.257   6.815
 4567POPC   C4A59730   1.329  12.105   7.193
 4567POPC   C1B59731   1.268  11.774   6.246
 4567POPC   C2B59732   1.402  11.784   6.695
 4567POPC   C3B59733   1.149  11.639   7.062
 4567POPC   C4B59734   1.070  11.739   7.518
 4568POPC   NC359735  28.861  36.615   5.102
 4568POPC   PO459736  29.278  37.091   5.322
 4568POPC   GL159737  29.272  36.983   5.722
 4568POPC   GL259738  29.392  36.683   5.663
 4568POPC   C1A59739  29.031  36.873   6.095
 4568POPC   D2A59740  28.897  37.085   6.472
 4568POPC   C3A59741  28.982  36.991   6.900
 4568POPC   C4A59742  28.872  36.806   7.321
 4568POPC   C1B59743  29.523  36.724   6.090
 4568POPC   C2B59744  29.416  36.941   6.475
 4568POPC   C3B59745  29.553  36.812   6.861
 4568POPC   C4B59746  29.313  36.668   7.147
 4569POPC   NC359747  37.874  12.734   5.497
 4569POPC   PO459748  37.374  13.143   5.374
 4569POPC   GL159749  37.557  12.963   5.803
 4569POPC   GL259750  37.573  12.579   5.857
 4569POPC   C1A59751  37.904  12.840   6.141
 4569POPC   D2A59752  37.888  12.611   6.508
 4569POPC   C3A59753  37.658  12.838   6.806
 4569POPC   C4A59754  37.642  12.706   7.228
 4569POPC   C1B59755  37.424  12.712   6.251
 4569POPC   C2B59756  37.360  12.464   6.571
 4569POPC   C3B59757  37.247  12.553   6.959
 4569POPC   C4B59758  37.332  12.302   7.295
 4570POPC   NC359759  33.876  35.014   5.049
 4570POPC   PO459760  33.814  34.395   5.418
 4570POPC   GL159761  33.651  34.609   5.765
 4570POPC   GL259762  33.519  34.308   5.932
 4570POPC   C1A59763  33.668  34.840   6.173
 4570POPC   D2A59764  33.499  34.728   6.563
 4570POPC   C3A59765  33.647  34.776   6.970
 4570POPC   C4A59766  33.469  34.896   7.362
 4570POPC   C1B59767  33.899  34.384   6.168
 4570POPC   C2B59768  33.948  34.436   6.584
 4570POPC   C3B59769  33.692  34.285   6.892
 4570POPC   C4B59770  33.754  34.389   7.315
 4571POPC   NC359771  32.385  29.699   5.262
 4571POPC   PO459772  31.901  29.886   5.583
 4571POPC   GL159773  32.334  29.870   5.764
 4571POPC   GL259774  32.537  29.536   5.768
 4571POPC   C1A59775  32.394  30.182   6.102
 4571POPC   D2A59776  32.226  30.351   6.496
 4571POPC   C3A59777  32.278  30.183   6.902
 4571POPC   C4A59778  32.066  30.027   7.265
 4571POPC   C1B59779  32.314  29.570   6.177
 4571POPC   C2B59780  32.338  29.823   6.515
 4571POPC   C3B59781  32.357  29.691   6.922
 4571POPC   C4B59782  32.470  29.753   7.334
 4572POPC   NC359783  21.692  20.933   5.406
 4572POPC   PO459784  21.983  21.437   5.290
 4572POPC   GL159785  21.972  21.275   5.716
 4572POPC   GL259786  21.632  21.259   5.828
 4572POPC   C1A59787  22.147  21.149   6.158
 4572POPC   D2A59788  22.023  21.241   6.639
 4572POPC   C3A59789  22.117  21.222   7.131
 4572POPC   C4A59790  22.079  21.402   7.582
 4572POPC   C1B59791  21.520  21.399   6.249
 4572POPC   C2B59792  21.547  21.431   6.715
 4572POPC   C3B59793  21.558  21.235   7.116
 4572POPC   C4B59794  21.572  21.389   7.545
 4573POPC   NC359795  20.158  25.866   5.306
 4573POPC   PO459796  20.814  25.870   5.219
 4573POPC   GL159797  20.597  26.015   5.576
 4573POPC   GL259798  20.493  25.689   5.671
 4573POPC   C1A59799  20.621  26.104   6.022
 4573POPC   D2A59800  20.696  26.383   6.403
 4573POPC   C3A59801  20.475  26.249   6.809
 4573POPC   C4A59802  20.562  26.077   7.232
 4573POPC   C1B59803  20.358  25.617   6.102
 4573POPC   C2B59804  20.178  25.732   6.498
 4573POPC   C3B59805  20.118  25.708   6.918
 4573POPC   C4B59806  20.034  25.656   7.373
 4574POPC   NC359807   8.786   2.753   5.501
 4574POPC   PO459808   9.124   3.251   5.601
 4574POPC   GL159809   8.877   3.054   5.929
 4574POPC   GL259810   8.508   3.011   5.853
 4574POPC   C1A59811   8.898   3.125   6.413
 4574POPC   D2A59812   9.115   3.024   6.812
 4574POPC   C3A59813   9.007   2.766   7.168
 4574POPC   C4A59814   9.243   2.544   7.513
 4574POPC   C1B59815   8.605   2.739   6.232
 4574POPC   C2B59816   8.715   2.688   6.690
 4574POPC   C3B59817   8.549   2.543   7.113
 4574POPC   C4B59818   8.725   2.526   7.568
 4575POPC   NC359819  17.728  31.266   5.387
 4575POPC   PO459820  17.249  31.757   5.277
 4575POPC   GL159821  17.336  31.523   5.668
 4575POPC   GL259822  17.689  31.646   5.721
 4575POPC   C1A59823  17.323  31.371   6.111
 4575POPC   D2A59824  17.499  31.459   6.500
 4575POPC   C3A59825  17.251  31.366   6.868
 4575POPC   C4A59826  17.444  31.321   7.264
 4575POPC   C1B59827  17.827  31.389   6.063
 4575POPC   C2B59828  17.946  31.244   6.472
 4575POPC   C3B59829  17.837  31.379   6.898
 4575POPC   C4B59830  18.053  31.150   7.227
 4576POPC   NC359831  22.656   2.720   5.258
 4576POPC   PO459832  22.003   2.698   5.052
 4576POPC   GL159833  22.197   2.770   5.562
 4576POPC   GL259834  22.014   2.477   5.773
 4576POPC   C1A59835  22.089   2.894   6.041
 4576POPC   D2A59836  22.364   2.836   6.394
 4576POPC   C3A59837  22.206   2.742   6.759
 4576POPC   C4A59838  22.232   2.771   7.191
 4576POPC   C1B59839  22.120   2.413   6.212
 4576POPC   C2B59840  21.993   2.269   6.598
 4576POPC   C3B59841  22.161   2.281   7.024
 4576POPC   C4B59842  22.157   2.335   7.477
 4577POPC   NC359843  30.363  20.383   5.455
 4577POPC   PO459844  29.851  20.842   5.371
 4577POPC   GL159845  30.126  20.734   5.733
 4577POPC   GL259846  29.926  20.448   5.736
 4577POPC   C1A59847  30.226  20.470   6.145
 4577POPC   D2A59848  29.997  20.535   6.537
 4577POPC   C3A59849  30.191  20.574   6.927
 4577POPC   C4A59850  30.154  20.357   7.281
 4577POPC   C1B59851  29.772  20.692   6.098
 4577POPC   C2B59852  29.714  20.958   6.465
 4577POPC   C3B59853  29.647  20.876   6.904
 4577POPC   C4B59854  29.617  20.592   7.254
 4578POPC   NC359855  29.108  38.499   5.480
 4578POPC   PO459856  28.688  38.935   5.672
 4578POPC   GL159857  28.937  38.674   5.959
 4578POPC   GL259858  29.054  38.299   5.942
 4578POPC   C1A59859  28.804  38.537   6.362
 4578POPC   D2A59860  28.542  38.637   6.685
 4578POPC   C3A59861  28.800  38.804   7.016
 4578POPC   C4A59862  28.999  38.796   7.437
 4578POPC   C1B59863  29.308  38.498   6.282
 4578POPC   C2B59864  29.185  38.595   6.732
 4578POPC   C3B59865  29.360  38.584   7.163
 4578POPC   C4B59866  29.292  38.274   7.521
 4579POPC   NC359867   6.718   3.165   5.396
 4579POPC   PO459868   6.446   3.769   5.493
 4579POPC   GL159869   6.656   3.606   5.867
 4579POPC   GL259870   6.892   3.314   5.842
 4579POPC   C1A59871   6.595   3.586   6.311
 4579POPC   D2A59872   6.442   3.406   6.669
 4579POPC   C3A59873   6.606   3.611   7.000
 4579POPC   C4A59874   6.434   3.962   7.204
 4579POPC   C1B59875   7.079   3.472   6.195
 4579POPC   C2B59876   7.038   3.518   6.633
 4579POPC   C3B59877   7.133   3.252   6.981
 4579POPC   C4B59878   6.972   3.460   7.312
 4580POPC   NC359879  19.215  20.860   5.118
 4580POPC   PO459880  18.933  20.408   5.546
 4580POPC   GL159881  19.225  20.655   5.848
 4580POPC   GL259882  19.342  21.011   5.785
 4580POPC   C1A59883  19.111  20.642   6.296
 4580POPC   D2A59884  18.779  20.483   6.554
 4580POPC   C3A59885  18.838  20.323   6.970
 4580POPC   C4A59886  18.936  20.587   7.291
 4580POPC   C1B59887  19.422  21.038   6.233
 4580POPC   C2B59888  19.347  20.903   6.679
 4580POPC   C3B59889  19.262  20.963   7.130
 4580POPC   C4B59890  19.260  20.829   7.588
 4581POPC   NC359891  22.514  23.228   5.024
 4581POPC   PO459892  22.178  22.942   5.358
 4581POPC   GL159893  21.877  23.040   5.760
 4581POPC   GL259894  21.848  23.340   5.950
 4581POPC   C1A59895  21.760  22.880   6.209
 4581POPC   D2A59896  21.829  22.990   6.682
 4581POPC   C3A59897  21.929  22.753   7.061
 4581POPC   C4A59898  22.149  22.644   7.456
 4581POPC   C1B59899  22.141  23.209   6.325
 4581POPC   C2B59900  22.336  22.940   6.677
 4581POPC   C3B59901  22.380  22.999   7.131
 4581POPC   C4B59902  22.399  23.419   7.338
 4582POPC   NC359903  18.942   0.260   5.392
 4582POPC   PO459904  19.325   0.760   5.296
 4582POPC   GL159905  19.201   0.573   5.702
 4582POPC   GL259906  18.890   0.723   5.787
 4582POPC   C1A59907  19.215   0.339   6.115
 4582POPC   D2A59908  19.392   0.214   6.538
 4582POPC   C3A59909  19.213   0.380   6.931
 4582POPC   C4A59910  19.131   0.152   7.293
 4582POPC   C1B59911  18.736   0.499   6.148
 4582POPC   C2B59912  18.877   0.338   6.544
 4582POPC   C3B59913  18.743   0.178   6.970
 4582POPC   C4B59914  18.634   0.398   7.338
 4583POPC   NC359915   7.866  29.118   5.345
 4583POPC   PO459916   8.543  29.274   5.142
 4583POPC   GL159917   8.324  29.242   5.603
 4583POPC   GL259918   8.219  28.901   5.736
 4583POPC   C1A59919   8.145  29.279   6.070
 4583POPC   D2A59920   8.246  29.139   6.507
 4583POPC   C3A59921   8.147  29.172   6.932
 4583POPC   C4A59922   8.278  29.342   7.307
 4583POPC   C1B59923   8.040  28.794   6.173
 4583POPC   C2B59924   7.964  28.739   6.622
 4583POPC   C3B59925   7.762  28.857   7.010
 4583POPC   C4B59926   8.059  28.867   7.358
 4584POPC   NC359927  43.100  40.811   5.339
 4584POPC   PO459928  42.611  40.261   5.359
 4584POPC   GL159929  42.869  40.523   5.674
 4584POPC   GL259930  43.215  40.562   5.804
 4584POPC   C1A59931  42.882  40.887   5.996
 4584POPC   D2A59932  43.001  40.706   6.386
 4584POPC   C3A59933  42.926  40.765   6.827
 4584POPC   C4A59934  43.094  40.613   7.221
 4584POPC   C1B59935  43.490  40.611   6.174
 4584POPC   C2B59936  43.438  40.670   6.630
 4584POPC   C3B59937  43.498  40.855   7.009
 4584POPC   C4B59938  43.595  40.561   7.323
 4585POPC   NC359939  31.983  44.084   5.395
 4585POPC   PO459940  32.367  43.557   5.379
 4585POPC   GL159941  32.194  43.609   5.783
 4585POPC   GL259942  32.189  43.980   5.839
 4585POPC   C1A59943  32.302  43.705   6.223
 4585POPC   D2A59944  32.104  43.830   6.568
 4585POPC   C3A59945  32.288  43.876   6.934
 4585POPC   C4A59946  32.177  43.746   7.316
 4585POPC   C1B59947  32.264  44.212   6.236
 4585POPC   C2B59948  32.142  44.331   6.641
 4585POPC   C3B59949  32.014  44.286   7.037
 4585POPC   C4B59950  32.287  44.227   7.361
 4586POPC   NC359951  27.967  31.351   5.397
 4586POPC   PO459952  27.289  31.348   5.446
 4586POPC   GL159953  27.506  31.476   5.829
 4586POPC   GL259954  27.814  31.285   5.881
 4586POPC   C1A59955  27.403  31.461   6.276
 4586POPC   D2A59956  27.503  31.206   6.654
 4586POPC   C3A59957  27.250  31.313   6.968
 4586POPC   C4A59958  27.479  31.641   7.097
 4586POPC   C1B59959  27.903  31.519   6.232
 4586POPC   C2B59960  27.786  31.632   6.630
 4586POPC   C3B59961  27.997  31.567   6.982
 4586POPC   C4B59962  27.911  31.649   7.410
 4587POPC   NC359963   0.820  27.327   4.958
 4587POPC   PO459964   1.300  27.243   5.441
 4587POPC   GL159965   1.193  27.350   5.889
 4587POPC   GL259966   1.212  27.686   5.874
 4587POPC   C1A59967   1.127  27.257   6.310
 4587POPC   D2A59968   1.254  27.452   6.670
 4587POPC   C3A59969   0.971  27.371   6.990
 4587POPC   C4A59970   0.827  27.182   7.336
 4587POPC   C1B59971   1.157  27.865   6.296
 4587POPC   C2B59972   1.086  27.922   6.750
 4587POPC   C3B59973   1.266  27.757   7.140
 4587POPC   C4B59974   1.229  27.949   7.601
 4588POPC   NC359975  43.171  19.532   5.418
 4588POPC   PO459976  43.111  20.235   5.242
 4588POPC   GL159977  42.975  20.135   5.678
 4588POPC   GL259978  42.874  19.848   5.692
 4588POPC   C1A59979  43.222  19.943   6.081
 4588POPC   D2A59980  43.536  19.960   6.409
 4588POPC   C3A59981  43.299  19.888   6.789
 4588POPC   C4A59982  43.196  19.963   7.204
 4588POPC   C1B59983  42.739  20.053   6.122
 4588POPC   C2B59984  42.690  19.889   6.558
 4588POPC   C3B59985  42.717  19.970   7.023
 4588POPC   C4B59986  42.567  20.192   7.403
 4589POPC   NC359987  12.534  42.585   5.423
 4589POPC   PO459988  11.986  42.206   5.214
 4589POPC   GL159989  12.178  42.255   5.658
 4589POPC   GL259990  12.266  42.555   5.865
 4589POPC   C1A59991  12.186  42.133   6.139
 4589POPC   D2A59992  12.303  42.145   6.629
 4589POPC   C3A59993  12.027  42.127   7.025
 4589POPC   C4A59994  11.779  42.215   7.389
 4589POPC   C1B59995  12.222  42.598   6.331
 4589POPC   C2B59996  11.995  42.539   6.726
 4589POPC   C3B59997  11.950  42.641   7.164
 4589POPC   C4B59998  12.115  42.971   7.413
 4590POPC   NC359999  26.975  33.295   5.433
 4590POPC   PO460000  26.748  33.933   5.427
 4590POPC   GL160001  26.961  33.728   5.786
 4590POPC   GL260002  26.684  33.491   5.802
 4590POPC   C1A60003  26.891  33.658   6.252
 4590POPC   D2A60004  26.546  33.791   6.511
 4590POPC   C3A60005  26.623  33.927   6.925
 4590POPC   C4A60006  26.853  33.775   7.256
 4590POPC   C1B60007  26.424  33.366   6.148
 4590POPC   C2B60008  26.258  33.377   6.577
 4590POPC   C3B60009  26.464  33.415   6.935
 4590POPC   C4B60010  26.422  33.494   7.333
 4591POPC   NC360011   7.721   1.373   5.035
 4591POPC   PO460012   8.140   1.132   5.461
 4591POPC   GL160013   8.219   1.365   5.814
 4591POPC   GL260014   7.918   1.207   6.000
 4591POPC   C1A60015   8.273   1.451   6.247
 4591POPC   D2A60016   7.906   1.415   6.516
 4591POPC   C3A60017   8.053   1.407   6.938
 4591POPC   C4A60018   8.390   1.343   7.235
 4591POPC   C1B60019   7.650   0.844   6.137
 4591POPC   C2B60020   7.617   0.673   6.573
 4591POPC   C3B60021   7.746   0.851   6.980
 4591POPC   C4B60022   7.891   1.091   7.314
 4592POPC   NC360023  30.510  43.676   5.388
 4592POPC   PO460024  30.900  43.062   5.416
 4592POPC   GL160025  30.987  43.218   5.823
 4592POPC   GL260026  30.616  43.166   5.869
 4592POPC   C1A60027  30.897  43.368   6.250
 4592POPC   D2A60028  30.653  43.394   6.608
 4592POPC   C3A60029  30.885  43.412   6.978
 4592POPC   C4A60030  31.111  43.072   7.128
 4592POPC   C1B60031  30.591  42.949   6.269
 4592POPC   C2B60032  30.384  42.958   6.654
 4592POPC   C3B60033  30.557  43.047   7.060
 4592POPC   C4B60034  30.387  43.011   7.470
 4593POPC   NC360035  19.814  38.654   5.465
 4593POPC   PO460036  19.851  39.385   5.415
 4593POPC   GL160037  19.739  39.322   5.817
 4593POPC   GL260038  19.865  38.999   5.851
 4593POPC   C1A60039  19.898  39.446   6.208
 4593POPC   D2A60040  19.898  39.308   6.608
 4593POPC   C3A60041  19.588  39.207   6.894
 4593POPC   C4A60042  19.684  39.371   7.305
 4593POPC   C1B60043  19.721  38.929   6.258
 4593POPC   C2B60044  19.942  38.796   6.607
 4593POPC   C3B60045  20.017  38.966   6.990
 4593POPC   C4B60046  19.871  38.916   7.396
 4594POPC   NC360047  18.025  43.999   5.505
 4594POPC   PO460048  17.401  43.697   5.337
 4594POPC   GL160049  17.611  43.718   5.722
 4594POPC   GL260050  17.599  44.053   5.766
 4594POPC   C1A60051  17.444  43.766   6.156
 4594POPC   D2A60052  17.515  43.600   6.560
 4594POPC   C3A60053  17.388  43.849   6.905
 4594POPC   C4A60054  17.603  43.795   7.266
 4594POPC   C1B60055  17.832  44.128   6.164
 4594POPC   C2B60056  17.713  44.099   6.607
 4594POPC   C3B60057  17.749  44.247   7.057
 4594POPC   C4B60058  17.701  44.217   7.552
 4595POPC   NC360059  31.587  29.039   5.133
 4595POPC   PO460060  31.152  29.362   5.485
 4595POPC   GL160061  31.336  29.129   5.809
 4595POPC   GL260062  31.690  28.977   5.719
 4595POPC   C1A60063  31.390  29.314   6.248
 4595POPC   D2A60064  31.499  29.307   6.682
 4595POPC   C3A60065  31.406  29.405   7.073
 4595POPC   C4A60066  31.222  29.714   7.270
 4595POPC   C1B60067  31.533  28.817   6.141
 4595POPC   C2B60068  31.327  28.861   6.508
 4595POPC   C3B60069  31.468  28.801   6.888
 4595POPC   C4B60070  31.454  28.931   7.280
 4596POPC   NC360071  25.558  16.355   5.270
 4596POPC   PO460072  25.140  16.815   5.370
 4596POPC   GL160073  25.279  16.464   5.676
 4596POPC   GL260074  24.992  16.368   5.857
 4596POPC   C1A60075  25.464  16.402   6.105
 4596POPC   D2A60076  25.252  16.498   6.493
 4596POPC   C3A60077  25.418  16.402   6.887
 4596POPC   C4A60078  25.405  16.690   7.198
 4596POPC   C1B60079  25.092  16.783   6.052
 4596POPC   C2B60080  25.190  17.069   6.386
 4596POPC   C3B60081  25.212  17.021   6.827
 4596POPC   C4B60082  25.121  17.091   7.276
 4597POPC   NC360083  19.308  32.671   5.309
 4597POPC   PO460084  18.823  32.115   5.477
 4597POPC   GL160085  19.082  32.127   5.862
 4597POPC   GL260086  19.216  32.460   5.786
 4597POPC   C1A60087  19.119  31.918   6.279
 4597POPC   D2A60088  19.381  31.875   6.659
 4597POPC   C3A60089  19.165  31.973   7.084
 4597POPC   C4A60090  18.859  32.334   7.240
 4597POPC   C1B60091  19.414  32.668   6.122
 4597POPC   C2B60092  19.487  32.563   6.534
 4597POPC   C3B60093  19.327  32.431   6.921
 4597POPC   C4B60094  19.249  32.665   7.290
 4598POPC   NC360095   0.185   1.483   5.419
 4598POPC   PO460096   0.231   0.870   5.496
 4598POPC   GL160097   0.207   1.171   5.830
 4598POPC   GL260098   0.510   1.339   5.804
 4598POPC   C1A60099   0.161   1.539   6.116
 4598POPC   D2A60100   0.397   1.645   6.458
 4598POPC   C3A60101   0.335   1.352   6.766
 4598POPC   C4A60102   0.116   1.344   7.178
 4598POPC   C1B60103   0.524   1.170   6.263
 4598POPC   C2B60104   0.518   0.870   6.663
 4598POPC   C3B60105   0.471   0.971   7.139
 4598POPC   C4B60106   0.557   0.923   7.607
 4599POPC   NC360107  37.273   6.355   5.021
 4599POPC   PO460108  36.831   6.018   5.384
 4599POPC   GL160109  36.877   5.874   5.799
 4599POPC   GL260110  37.207   5.727   5.837
 4599POPC   C1A60111  36.978   6.039   6.208
 4599POPC   D2A60112  36.749   5.932   6.595
 4599POPC   C3A60113  36.883   5.915   7.011
 4599POPC   C4A60114  36.989   5.992   7.460
 4599POPC   C1B60115  37.237   5.618   6.295
 4599POPC   C2B60116  37.286   5.742   6.730
 4599POPC   C3B60117  37.349   5.785   7.179
 4599POPC   C4B60118  37.428   5.837   7.638
 4600POPC   NC360119  37.893  22.439   5.356
 4600POPC   PO460120  37.254  22.211   5.309
 4600POPC   GL160121  37.476  22.317   5.678
 4600POPC   GL260122  37.775  22.096   5.721
 4600POPC   C1A60123  37.607  22.444   6.086
 4600POPC   D2A60124  37.859  22.329   6.418
 4600POPC   C3A60125  37.726  22.327   6.841
 4600POPC   C4A60126  37.598  22.253   7.229
 4600POPC   C1B60127  37.708  21.937   6.133
 4600POPC   C2B60128  37.647  21.876   6.579
 4600POPC   C3B60129  37.675  21.796   7.024
 4600POPC   C4B60130  37.931  21.873   7.395
 4601POPC   NC360131  44.010  27.310   5.449
 4601POPC   PO460132  44.134  27.955   5.489
 4601POPC   GL160133  44.041  27.780   5.839
 4601POPC   GL260134  43.763  27.596   5.853
 4601POPC   C1A60135  44.046  27.667   6.255
 4601POPC   D2A60136  43.815  27.723   6.628
 4601POPC   C3A60137  44.074  27.674   6.983
 4601POPC   C4A60138  44.140  27.548   7.412
 4601POPC   C1B60139  43.529  27.534   6.240
 4601POPC   C2B60140  43.302  27.641   6.599
 4601POPC   C3B60141  43.397  27.784   6.976
 4601POPC   C4B60142  43.680  27.716   7.299
 4602POPC   NC360143  27.213  36.996   5.099
 4602POPC   PO460144  26.794  37.321   5.424
 4602POPC   GL160145  26.955  37.093   5.798
 4602POPC   GL260146  26.989  36.720   5.724
 4602POPC   C1A60147  26.856  37.025   6.255
 4602POPC   D2A60148  26.671  37.195   6.648
 4602POPC   C3A60149  26.745  36.939   7.027
 4602POPC   C4A60150  27.156  36.982   7.229
 4602POPC   C1B60151  27.038  36.531   6.139
 4602POPC   C2B60152  26.945  36.611   6.586
 4602POPC   C3B60153  27.087  36.509   7.027
 4602POPC   C4B60154  27.113  36.468   7.505
 4603POPC   NC360155  20.505  42.092   5.511
 4603POPC   PO460156  20.948  42.499   5.187
 4603POPC   GL160157  20.665  42.514   5.664
 4603POPC   GL260158  20.357  42.671   5.624
 4603POPC   C1A60159  20.603  42.321   6.113
 4603POPC   D2A60160  20.674  42.123   6.540
 4603POPC   C3A60161  20.390  42.127   6.895
 4603POPC   C4A60162  20.385  42.353   7.274
 4603POPC   C1B60163  20.194  42.618   6.059
 4603POPC   C2B60164  20.222  42.444   6.493
 4603POPC   C3B60165  20.489  42.642   6.826
 4603POPC   C4B60166  20.749  42.760   7.211
 4604POPC   NC360167  12.678   8.309   5.508
 4604POPC   PO460168  13.168   7.840   5.391
 4604POPC   GL160169  13.038   8.047   5.749
 4604POPC   GL260170  13.142   8.365   5.752
 4604POPC   C1A60171  12.866   8.168   6.142
 4604POPC   D2A60172  13.005   8.108   6.550
 4604POPC   C3A60173  12.698   8.061   6.897
 4604POPC   C4A60174  12.903   8.167   7.240
 4604POPC   C1B60175  13.181   8.547   6.149
 4604POPC   C2B60176  12.826   8.583   6.429
 4604POPC   C3B60177  12.888   8.527   6.840
 4604POPC   C4B60178  13.054   8.670   7.194
 4605POPC   NC360179   1.588   4.275   5.571
 4605POPC   PO460180   1.141   4.766   5.311
 4605POPC   GL160181   1.273   4.634   5.736
 4605POPC   GL260182   1.136   4.288   5.819
 4605POPC   C1A60183   1.407   4.599   6.181
 4605POPC   D2A60184   1.528   4.322   6.533
 4605POPC   C3A60185   1.286   4.237   6.895
 4605POPC   C4A60186   1.332   4.443   7.289
 4605POPC   C1B60187   1.174   4.108   6.219
 4605POPC   C2B60188   0.926   3.846   6.477
 4605POPC   C3B60189   0.885   3.776   6.877
 4605POPC   C4B60190   1.025   3.997   7.264
 4606POPC   NC360191  11.004   7.983   5.628
 4606POPC   PO460192  11.614   8.240   5.403
 4606POPC   GL160193  11.512   8.220   5.804
 4606POPC   GL260194  11.256   8.457   5.863
 4606POPC   C1A60195  11.651   8.313   6.212
 4606POPC   D2A60196  11.424   8.496   6.552
 4606POPC   C3A60197  11.492   8.288   6.937
 4606POPC   C4A60198  11.471   7.949   7.245
 4606POPC   C1B60199  11.155   8.200   6.213
 4606POPC   C2B60200  11.040   7.859   6.449
 4606POPC   C3B60201  11.118   7.911   6.868
 4606POPC   C4B60202  11.034   8.204   7.212
 4607POPC   NC360203  36.473   4.489   5.103
 4607POPC   PO460204  36.295   3.994   5.362
 4607POPC   GL160205  36.180   4.231   5.765
 4607POPC   GL260206  36.434   4.489   5.782
 4607POPC   C1A60207  36.079   4.219   6.251
 4607POPC   D2A60208  36.024   3.954   6.652
 4607POPC   C3A60209  35.912   4.058   7.100
 4607POPC   C4A60210  35.661   3.811   7.397
 4607POPC   C1B60211  36.341   4.662   6.182
 4607POPC   C2B60212  36.151   4.738   6.580
 4607POPC   C3B60213  36.252   4.668   7.022
 4607POPC   C4B60214  36.097   4.470   7.393
 4608POPC   NC360215  32.510   9.680   5.541
 4608POPC   PO460216  33.174   9.608   5.264
 4608POPC   GL160217  33.010   9.560   5.689
 4608POPC   GL260218  33.060   9.905   5.719
 4608POPC   C1A60219  33.166   9.425   6.125
 4608POPC   D2A60220  33.147   9.645   6.528
 4608POPC   C3A60221  33.306   9.537   6.944
 4608POPC   C4A60222  33.113   9.700   7.336
 4608POPC   C1B60223  33.254   9.944   6.133
 4608POPC   C2B60224  33.367  10.089   6.578
 4608POPC   C3B60225  33.194  10.127   7.033
 4608POPC   C4B60226  33.262  10.174   7.513
 4609POPC   NC360227  27.196  42.520   5.520
 4609POPC   PO460228  27.708  42.069   5.537
 4609POPC   GL160229  27.630  42.276   5.849
 4609POPC   GL260230  27.291  42.159   5.882
 4609POPC   C1A60231  27.624  42.193   6.269
 4609POPC   D2A60232  27.649  41.942   6.601
 4609POPC   C3A60233  27.738  42.214   6.927
 4609POPC   C4A60234  27.634  42.159   7.353
 4609POPC   C1B60235  27.119  42.235   6.285
 4609POPC   C2B60236  27.320  42.412   6.640
 4609POPC   C3B60237  27.266  42.377   7.069
 4609POPC   C4B60238  27.014  42.609   7.312
 4610POPC   NC360239  13.998  34.948   5.544
 4610POPC   PO460240  13.681  35.240   5.145
 4610POPC   GL160241  13.559  35.300   5.644
 4610POPC   GL260242  13.615  35.006   5.882
 4610POPC   C1A60243  13.544  35.422   6.155
 4610POPC   D2A60244  13.753  35.223   6.571
 4610POPC   C3A60245  13.705  35.150   7.048
 4610POPC   C4A60246  13.808  35.360   7.456
 4610POPC   C1B60247  13.408  34.940   6.303
 4610POPC   C2B60248  13.281  35.029   6.753
 4610POPC   C3B60249  13.363  34.782   7.146
 4610POPC   C4B60250  13.637  34.844   7.509
 4611POPC   NC360251   1.268  33.203   5.379
 4611POPC   PO460252   0.772  32.735   5.374
 4611POPC   GL160253   1.030  32.874   5.760
 4611POPC   GL260254   1.109  33.233   5.870
 4611POPC   C1A60255   1.386  32.870   6.103
 4611POPC   D2A60256   1.478  32.987   6.547
 4611POPC   C3A60257   1.107  33.027   6.809
 4611POPC   C4A60258   1.034  32.762   7.143
 4611POPC   C1B60259   1.509  33.372   6.123
 4611POPC   C2B60260   1.515  33.498   6.591
 4611POPC   C3B60261   1.412  33.365   7.038
 4611POPC   C4B60262   1.404  33.269   7.496
 4612POPC   NC360263   4.835   0.320   5.440
 4612POPC   PO460264   5.106   0.901   5.345
 4612POPC   GL160265   5.007   0.655   5.793
 4612POPC   GL260266   5.127   0.283   5.846
 4612POPC   C1A60267   4.875   0.510   6.218
 4612POPC   D2A60268   4.878   0.239   6.570
 4612POPC   C3A60269   4.964   0.433   6.952
 4612POPC   C4A60270   4.886   0.651   7.304
 4612POPC   C1B60271   4.990  44.975   6.149
 4612POPC   C2B60272   4.942  44.732   6.519
 4612POPC   C3B60273   5.021  44.916   6.934
 4612POPC   C4B60274   4.948   0.127   7.381
 4613POPC   NC360275  20.760   3.241   5.564
 4613POPC   PO460276  20.245   3.655   5.237
 4613POPC   GL160277  20.362   3.435   5.750
 4613POPC   GL260278  20.650   3.637   5.882
 4613POPC   C1A60279  20.319   3.567   6.251
 4613POPC   D2A60280  20.585   3.753   6.572
 4613POPC   C3A60281  20.583   3.556   6.959
 4613POPC   C4A60282  20.870   3.585   7.276
 4613POPC   C1B60283  20.817   3.404   6.202
 4613POPC   C2B60284  20.738   3.230   6.577
 4613POPC   C3B60285  20.955   3.203   6.934
 4613POPC   C4B60286  21.100   3.116   7.299
 4614POPC   NC360287  20.182  31.143   5.270
 4614POPC   PO460288  19.696  31.628   5.433
 4614POPC   GL160289  19.922  31.654   5.789
 4614POPC   GL260290  20.126  31.402   5.731
 4614POPC   C1A60291  19.802  31.715   6.205
 4614POPC   D2A60292  19.763  31.463   6.566
 4614POPC   C3A60293  19.697  31.602   6.979
 4614POPC   C4A60294  19.836  31.452   7.366
 4614POPC   C1B60295  20.133  31.303   6.182
 4614POPC   C2B60296  20.131  31.107   6.572
 4614POPC   C3B60297  20.114  31.265   6.975
 4614POPC   C4B60298  20.226  31.091   7.381
 4615POPC   NC360299   7.324  17.842   5.338
 4615POPC   PO460300   7.493  18.438   5.586
 4615POPC   GL160301   7.450  18.210   5.958
 4615POPC   GL260302   7.247  17.929   5.831
 4615POPC   C1A60303   7.681  18.360   6.342
 4615POPC   D2A60304   7.527  18.380   6.757
 4615POPC   C3A60305   7.678  18.486   7.151
 4615POPC   C4A60306   7.550  18.301   7.548
 4615POPC   C1B60307   7.074  17.835   6.202
 4615POPC   C2B60308   7.246  17.977   6.573
 4615POPC   C3B60309   7.124  18.112   6.973
 4615POPC   C4B60310   7.332  17.917   7.302
 4616POPC   NC360311  19.305  30.319   5.273
 4616POPC   PO460312  18.882  29.796   5.442
 4616POPC   GL160313  19.006  29.834   5.862
 4616POPC   GL260314  19.361  29.818   5.866
 4616POPC   C1A60315  18.901  29.977   6.284
 4616POPC   D2A60316  18.661  29.917   6.673
 4616POPC   C3A60317  18.898  29.691   6.978
 4616POPC   C4A60318  19.106  29.818   7.358
 4616POPC   C1B60319  19.333  30.238   6.042
 4616POPC   C2B60320  19.184  30.395   6.456
 4616POPC   C3B60321  19.090  30.199   6.857
 4616POPC   C4B60322  19.323  30.322   7.208
 4617POPC   NC360323  42.206  37.364   5.416
 4617POPC   PO460324  42.493  36.712   5.439
 4617POPC   GL160325  42.313  36.996   5.754
 4617POPC   GL260326  42.556  37.289   5.786
 4617POPC   C1A60327  42.091  36.980   6.149
 4617POPC   D2A60328  42.157  37.174   6.537
 4617POPC   C3A60329  42.181  36.953   6.933
 4617POPC   C4A60330  42.019  36.608   7.158
 4617POPC   C1B60331  42.604  37.168   6.220
 4617POPC   C2B60332  42.607  36.948   6.609
 4617POPC   C3B60333  42.627  36.654   6.947
 4617POPC   C4B60334  42.857  36.726   7.310
 4618POPC   NC360335  31.006   0.472   5.395
 4618POPC   PO460336  30.418   0.300   5.355
 4618POPC   GL160337  30.566   0.224   5.818
 4618POPC   GL260338  30.902   0.324   5.920
 4618POPC   C1A60339  30.573   0.111   6.297
 4618POPC   D2A60340  30.419   0.311   6.675
 4618POPC   C3A60341  30.489   0.165   7.087
 4618POPC   C4A60342  30.839   0.291   7.349
 4618POPC   C1B60343  31.066   0.252   6.361
 4618POPC   C2B60344  30.972   0.186   6.820
 4618POPC   C3B60345  31.266   0.092   7.185
 4618POPC   C4B60346  31.288   0.353   7.624
 4619POPC   NC360347  26.237  43.289   5.275
 4619POPC   PO460348  25.776  42.731   5.370
 4619POPC   GL160349  26.165  42.920   5.630
 4619POPC   GL260350  26.044  43.223   5.748
 4619POPC   C1A60351  26.305  42.995   6.117
 4619POPC   D2A60352  25.994  43.015   6.490
 4619POPC   C3A60353  26.015  43.146   6.933
 4619POPC   C4A60354  26.156  42.999   7.362
 4619POPC   C1B60355  25.843  43.385   6.134
 4619POPC   C2B60356  25.744  43.497   6.573
 4619POPC   C3B60357  25.735  43.594   7.021
 4619POPC   C4B60358  25.727  43.281   7.368
 4620POPC   NC360359  19.705  14.793   5.505
 4620POPC   PO460360  19.882  15.398   5.347
 4620POPC   GL160361  19.946  15.184   5.732
 4620POPC   GL260362  19.614  15.209   5.766
 4620POPC   C1A60363  19.965  15.257   6.167
 4620POPC   D2A60364  20.014  15.446   6.561
 4620POPC   C3A60365  19.971  15.153   6.883
 4620POPC   C4A60366  19.782  15.046   7.260
 4620POPC   C1B60367  19.605  14.882   6.131
 4620POPC   C2B60368  19.809  14.782   6.527
 4620POPC   C3B60369  19.628  14.743   6.912
 4620POPC   C4B60370  19.296  14.902   7.193
 4621POPC   NC360371  10.398  19.618   5.690
 4621POPC   PO460372  10.967  20.051   5.436
 4621POPC   GL160373  10.714  20.005   5.848
 4621POPC   GL260374  10.744  19.727   6.080
 4621POPC   C1A60375  10.478  20.146   6.199
 4621POPC   D2A60376  10.401  19.929   6.572
 4621POPC   C3A60377  10.431  20.060   6.996
 4621POPC   C4A60378  10.128  20.102   7.272
 4621POPC   C1B60379  10.883  19.652   6.469
 4621POPC   C2B60380  10.892  19.930   6.791
 4621POPC   C3B60381  10.879  19.884   7.212
 4621POPC   C4B60382  10.665  19.653   7.501
 4622POPC   NC360383  18.377  39.258   5.381
 4622POPC   PO460384  18.264  38.628   5.397
 4622POPC   GL160385  18.208  38.903   5.739
 4622POPC   GL260386  18.516  39.016   5.869
 4622POPC   C1A60387  18.126  39.124   6.164
 4622POPC   D2A60388  18.365  39.243   6.550
 4622POPC   C3A60389  18.256  39.222   7.011
 4622POPC   C4A60390  18.369  39.132   7.450
 4622POPC   C1B60391  18.532  39.448   6.069
 4622POPC   C2B60392  18.725  39.587   6.486
 4622POPC   C3B60393  18.767  39.326   6.898
 4622POPC   C4B60394  18.828  39.415   7.340
 4623POPC   NC360395  40.596   0.110   5.504
 4623POPC   PO460396  41.063   0.495   5.227
 4623POPC   GL160397  40.894   0.496   5.723
 4623POPC   GL260398  40.787   0.198   5.963
 4623POPC   C1A60399  40.781   0.653   6.208
 4623POPC   D2A60400  40.796   0.416   6.633
 4623POPC   C3A60401  40.747   0.635   7.037
 4623POPC   C4A60402  40.892   0.533   7.419
 4623POPC   C1B60403  40.413   0.243   6.233
 4623POPC   C2B60404  40.289   0.400   6.626
 4623POPC   C3B60405  40.422   0.245   7.010
 4623POPC   C4B60406  40.410   0.379   7.419
 4624POPC   NC360407  33.897  44.577   5.293
 4624POPC   PO460408  33.335  44.375   5.621
 4624POPC   GL160409  33.558  44.491   5.912
 4624POPC   GL260410  33.659  44.768   5.765
 4624POPC   C1A60411  33.752  44.545   6.274
 4624POPC   D2A60412  33.949  44.534   6.612
 4624POPC   C3A60413  33.621  44.586   6.853
 4624POPC   C4A60414  33.568  44.570   7.229
 4624POPC   C1B60415  33.892  44.988   6.039
 4624POPC   C2B60416  33.905   0.041   6.460
 4624POPC   C3B60417  33.945  44.984   6.866
 4624POPC   C4B60418  34.064  44.628   7.114
 4625POPC   NC360419   2.217  12.865   5.654
 4625POPC   PO460420   2.758  12.762   5.197
 4625POPC   GL160421   2.860  12.664   5.667
 4625POPC   GL260422   2.557  12.485   5.763
 4625POPC   C1A60423   2.983  12.908   6.093
 4625POPC   D2A60424   2.790  13.062   6.496
 4625POPC   C3A60425   2.958  12.868   6.903
 4625POPC   C4A60426   3.135  13.070   7.282
 4625POPC   C1B60427   2.537  12.647   6.195
 4625POPC   C2B60428   2.444  12.725   6.637
 4625POPC   C3B60429   2.521  12.579   7.033
 4625POPC   C4B60430   2.608  12.949   7.257
 4626POPC   NC360431  37.340  33.851   5.328
 4626POPC   PO460432  37.930  33.722   5.490
 4626POPC   GL160433  37.620  33.882   5.754
 4626POPC   GL260434  37.638  33.565   5.911
 4626POPC   C1A60435  37.574  34.095   6.156
 4626POPC   D2A60436  37.482  33.985   6.599
 4626POPC   C3A60437  37.729  33.693   6.856
 4626POPC   C4A60438  37.765  33.970   7.188
 4626POPC   C1B60439  37.670  33.600   6.325
 4626POPC   C2B60440  37.318  33.491   6.554
 4626POPC   C3B60441  37.234  33.662   6.947
 4626POPC   C4B60442  37.434  33.581   7.328
 4627POPC   NC360443  31.761  20.284   5.045
 4627POPC   PO460444  31.712  20.730   5.523
 4627POPC   GL160445  31.651  20.463   5.856
 4627POPC   GL260446  31.899  20.219   5.811
 4627POPC   C1A60447  31.400  20.557   6.230
 4627POPC   D2A60448  31.407  20.829   6.582
 4627POPC   C3A60449  31.289  20.700   6.998
 4627POPC   C4A60450  31.550  20.854   7.354
 4627POPC   C1B60451  31.744  20.170   6.279
 4627POPC   C2B60452  31.590  20.341   6.681
 4627POPC   C3B60453  31.681  20.392   7.137
 4627POPC   C4B60454  31.401  20.360   7.458
 4628POPC   NC360455  41.698  35.787   5.294
 4628POPC   PO460456  41.238  36.226   5.310
 4628POPC   GL160457  41.554  36.184   5.664
 4628POPC   GL260458  41.636  36.501   5.799
 4628POPC   C1A60459  41.706  36.125   6.136
 4628POPC   D2A60460  41.829  36.252   6.582
 4628POPC   C3A60461  41.613  36.022   6.923
 4628POPC   C4A60462  41.305  35.984   7.240
 4628POPC   C1B60463  41.722  36.637   6.235
 4628POPC   C2B60464  41.770  36.779   6.653
 4628POPC   C3B60465  41.544  36.650   6.989
 4628POPC   C4B60466  41.589  36.387   7.331
 4629POPC   NC360467  42.265  13.949   5.471
 4629POPC   PO460468  41.867  13.386   5.284
 4629POPC   GL160469  42.036  13.543   5.725
 4629POPC   GL260470  42.398  13.655   5.866
 4629POPC   C1A60471  41.991  13.748   6.154
 4629POPC   D2A60472  42.300  13.687   6.477
 4629POPC   C3A60473  42.275  13.730   6.915
 4629POPC   C4A60474  42.501  13.579   7.289
 4629POPC   C1B60475  42.673  13.887   6.173
 4629POPC   C2B60476  42.670  14.034   6.610
 4629POPC   C3B60477  42.798  13.878   7.034
 4629POPC   C4B60478  42.650  14.017   7.466
 4630POPC   NC360479   3.209   0.950   5.513
 4630POPC   PO460480   3.676   0.473   5.553
 4630POPC   GL160481   3.620   0.731   5.898
 4630POPC   GL260482   3.285   0.644   5.974
 4630POPC   C1A60483   3.720   0.628   6.333
 4630POPC   D2A60484   3.716   0.487   6.768
 4630POPC   C3A60485   3.552   0.726   7.138
 4630POPC   C4A60486   3.578   0.675   7.608
 4630POPC   C1B60487   3.388   0.253   6.250
 4630POPC   C2B60488   3.213   0.176   6.629
 4630POPC   C3B60489   3.404   0.168   6.990
 4630POPC   C4B60490   3.294   0.314   7.344
 4631POPC   NC360491  42.244  35.094   5.167
 4631POPC   PO460492  41.578  35.312   5.351
 4631POPC   GL160493  41.490  35.396   5.776
 4631POPC   GL260494  41.685  35.706   5.835
 4631POPC   C1A60495  41.447  35.166   6.171
 4631POPC   D2A60496  41.214  34.961   6.520
 4631POPC   C3A60497  41.396  35.052   6.910
 4631POPC   C4A60498  41.595  35.154   7.317
 4631POPC   C1B60499  41.389  35.683   6.206
 4631POPC   C2B60500  41.246  35.473   6.608
 4631POPC   C3B60501  41.346  35.527   7.055
 4631POPC   C4B60502  41.750  35.650   7.269
 4632POPC   NC360503  25.815  18.727   5.512
 4632POPC   PO460504  26.028  19.319   5.358
 4632POPC   GL160505  26.059  19.131   5.789
 4632POPC   GL260506  26.200  18.845   5.832
 4632POPC   C1A60507  25.938  19.006   6.249
 4632POPC   D2A60508  25.999  18.707   6.597
 4632POPC   C3A60509  25.910  18.803   6.990
 4632POPC   C4A60510  25.967  19.186   7.122
 4632POPC   C1B60511  26.219  18.580   6.170
 4632POPC   C2B60512  26.520  18.557   6.505
 4632POPC   C3B60513  26.537  18.761   6.903
 4632POPC   C4B60514  26.315  18.777   7.289
 4633POPC   NC360515   3.794  35.828   5.426
 4633POPC   PO460516   4.333  36.196   5.352
 4633POPC   GL160517   4.260  36.120   5.741
 4633POPC   GL260518   4.589  36.244   5.855
 4633POPC   C1A60519   4.288  35.892   6.127
 4633POPC   D2A60520   4.088  35.963   6.528
 4633POPC   C3A60521   4.300  36.119   6.873
 4633POPC   C4A60522   4.202  36.346   7.240
 4633POPC   C1B60523   4.291  36.418   6.166
 4633POPC   C2B60524   4.375  36.539   6.587
 4633POPC   C3B60525   4.623  36.501   6.965
 4633POPC   C4B60526   4.673  36.192   7.294
 4634POPC   NC360527  13.475  26.345   5.402
 4634POPC   PO460528  13.441  27.058   5.417
 4634POPC   GL160529  13.647  26.759   5.682
 4634POPC   GL260530  13.321  26.652   5.773
 4634POPC   C1A60531  13.736  26.608   6.127
 4634POPC   D2A60532  13.838  26.594   6.568
 4634POPC   C3A60533  13.874  26.882   6.894
 4634POPC   C4A60534  13.850  26.604   7.228
 4634POPC   C1B60535  13.432  27.013   6.078
 4634POPC   C2B60536  13.597  27.048   6.480
 4634POPC   C3B60537  13.374  27.012   6.859
 4634POPC   C4B60538  13.456  26.927   7.293
 4635POPC   NC360539   7.122  26.396   5.107
 4635POPC   PO460540   7.403  26.050   5.289
 4635POPC   GL160541   7.407  26.022   5.768
 4635POPC   GL260542   7.242  25.739   5.888
 4635POPC   C1A60543   7.514  26.038   6.259
 4635POPC   D2A60544   7.754  26.262   6.599
 4635POPC   C3A60545   7.636  26.329   7.039
 4635POPC   C4A60546   7.349  26.549   7.320
 4635POPC   C1B60547   7.012  26.017   6.183
 4635POPC   C2B60548   7.045  26.137   6.634
 4635POPC   C3B60549   7.280  25.972   6.970
 4635POPC   C4B60550   7.640  25.832   7.226
 4636POPC   NC360551  33.366  23.764   5.623
 4636POPC   PO460552  33.979  23.534   5.457
 4636POPC   GL160553  33.803  23.558   5.864
 4636POPC   GL260554  33.886  23.221   5.899
 4636POPC   C1A60555  33.757  23.630   6.325
 4636POPC   D2A60556  33.856  23.979   6.608
 4636POPC   C3A60557  33.797  24.021   7.056
 4636POPC   C4A60558  33.630  23.729   7.344
 4636POPC   C1B60559  34.216  23.391   6.156
 4636POPC   C2B60560  34.218  23.566   6.571
 4636POPC   C3B60561  33.874  23.541   6.881
 4636POPC   C4B60562  33.688  23.220   7.150
 4637POPC   NC360563  32.400  10.470   5.437
 4637POPC   PO460564  31.737  10.512   5.232
 4637POPC   GL160565  32.018  10.685   5.664
 4637POPC   GL260566  32.122  10.429   5.907
 4637POPC   C1A60567  32.227  10.869   6.105
 4637POPC   D2A60568  32.299  10.952   6.587
 4637POPC   C3A60569  32.089  10.721   6.970
 4637POPC   C4A60570  32.048  10.667   7.474
 4637POPC   C1B60571  31.807  10.313   6.244
 4637POPC   C2B60572  31.726  10.335   6.703
 4637POPC   C3B60573  31.928  10.098   7.029
 4637POPC   C4B60574  32.340  10.058   7.152
 4638POPC   NC360575  26.610  17.527   5.307
 4638POPC   PO460576  27.290  17.407   5.329
 4638POPC   GL160577  27.010  17.515   5.692
 4638POPC   GL260578  26.717  17.310   5.831
 4638POPC   C1A60579  27.053  17.554   6.153
 4638POPC   D2A60580  26.760  17.456   6.506
 4638POPC   C3A60581  26.857  17.688   6.907
 4638POPC   C4A60582  27.217  17.840   7.173
 4638POPC   C1B60583  26.485  17.094   6.220
 4638POPC   C2B60584  26.392  17.083   6.704
 4638POPC   C3B60585  26.500  17.220   7.152
 4638POPC   C4B60586  26.615  17.126   7.620
 4639POPC   NC360587  44.695   5.481   5.517
 4639POPC   PO460588  44.955   6.044   5.543
 4639POPC   GL160589  44.904   5.900   5.929
 4639POPC   GL260590  44.979   5.590   5.911
 4639POPC   C1A60591  44.862   5.903   6.368
 4639POPC   D2A60592  44.743   6.156   6.720
 4639POPC   C3A60593  44.765   5.950   7.093
 4639POPC   C4A60594  44.492   5.603   7.200
 4639POPC   C1B60595  44.680   5.422   6.195
 4639POPC   C2B60596  44.827   5.446   6.601
 4639POPC   C3B60597  44.904   5.389   7.010
 4639POPC   C4B60598  44.939   5.555   7.428
 4640POPC   NC360599  30.378  33.602   5.356
 4640POPC   PO460600  29.768  33.955   5.308
 4640POPC   GL160601  29.809  34.111   5.684
 4640POPC   GL260602  30.055  33.824   5.755
 4640POPC   C1A60603  29.699  34.001   6.099
 4640POPC   D2A60604  29.950  33.744   6.382
 4640POPC   C3A60605  29.853  33.856   6.798
 4640POPC   C4A60606  30.000  34.127   7.132
 4640POPC   C1B60607  30.128  33.418   6.008
 4640POPC   C2B60608  30.106  33.231   6.419
 4640POPC   C3B60609  30.185  33.360   6.834
 4640POPC   C4B60610  30.093  33.623   7.187
 4641POPC   NC360611  14.618  15.036   5.463
 4641POPC   PO460612  14.219  15.507   5.472
 4641POPC   GL160613  14.304  15.216   5.830
 4641POPC   GL260614  14.207  14.880   5.702
 4641POPC   C1A60615  14.595  14.988   6.174
 4641POPC   D2A60616  14.712  14.809   6.618
 4641POPC   C3A60617  14.666  14.960   7.082
 4641POPC   C4A60618  14.944  14.983   7.443
 4641POPC   C1B60619  14.144  14.808   6.097
 4641POPC   C2B60620  14.146  15.102   6.424
 4641POPC   C3B60621  14.218  15.093   6.856
 4641POPC   C4B60622  14.202  15.269   7.273
 4642POPC   NC360623  33.588  42.780   5.525
 4642POPC   PO460624  33.882  43.388   5.423
 4642POPC   GL160625  33.868  43.127   5.773
 4642POPC   GL260626  33.510  43.206   5.821
 4642POPC   C1A60627  33.973  43.057   6.208
 4642POPC   D2A60628  33.757  43.076   6.609
 4642POPC   C3A60629  33.995  43.194   6.972
 4642POPC   C4A60630  34.210  42.975   7.281
 4642POPC   C1B60631  33.467  42.899   6.166
 4642POPC   C2B60632  33.324  42.781   6.579
 4642POPC   C3B60633  33.387  42.945   6.958
 4642POPC   C4B60634  33.679  42.872   7.273
 4643POPC   NC360635   0.956  32.331   5.509
 4643POPC   PO460636   1.534  32.034   5.400
 4643POPC   GL160637   1.338  32.020   5.775
 4643POPC   GL260638   1.026  31.908   5.822
 4643POPC   C1A60639   1.323  32.367   6.062
 4643POPC   D2A60640   1.550  32.454   6.443
 4643POPC   C3A60641   1.293  32.235   6.745
 4643POPC   C4A60642   1.271  32.325   7.171
 4643POPC   C1B60643   0.932  32.073   6.229
 4643POPC   C2B60644   0.806  31.946   6.646
 4643POPC   C3B60645   0.993  31.927   7.063
 4643POPC   C4B60646   1.166  31.925   7.499
 4644POPC   NC360647   1.409  35.434   5.465
 4644POPC   PO460648   0.745  35.328   5.483
 4644POPC   GL160649   1.062  35.434   5.838
 4644POPC   GL260650   1.456  35.340   5.956
 4644POPC   C1A60651   1.160  35.645   6.215
 4644POPC   D2A60652   1.343  35.699   6.603
 4644POPC   C3A60653   1.321  35.313   6.840
 4644POPC   C4A60654   1.107  35.189   7.268
 4644POPC   C1B60655   1.671  35.371   6.367
 4644POPC   C2B60656   1.839  35.610   6.719
 4644POPC   C3B60657   1.744  35.499   7.126
 4644POPC   C4B60658   1.605  35.093   7.204
 4645POPC   NC360659  23.951   5.891   5.345
 4645POPC   PO460660  23.340   6.276   5.246
 4645POPC   GL160661  23.330   6.002   5.645
 4645POPC   GL260662  23.663   5.990   5.742
 4645POPC   C1A60663  23.363   5.948   6.146
 4645POPC   D2A60664  23.623   5.851   6.554
 4645POPC   C3A60665  23.399   5.916   6.956
 4645POPC   C4A60666  23.463   5.848   7.403
 4645POPC   C1B60667  23.853   6.128   6.108
 4645POPC   C2B60668  23.980   6.226   6.499
 4645POPC   C3B60669  23.899   6.134   6.903
 4645POPC   C4B60670  23.907   6.059   7.296
 4646POPC   NC360671  12.319   8.914   5.471
 4646POPC   PO460672  11.724   9.066   5.350
 4646POPC   GL160673  11.901   9.074   5.750
 4646POPC   GL260674  11.860   8.727   5.820
 4646POPC   C1A60675  12.016   9.184   6.172
 4646POPC   D2A60676  11.882   9.289   6.574
 4646POPC   C3A60677  12.117   9.115   6.912
 4646POPC   C4A60678  12.257   9.088   7.341
 4646POPC   C1B60679  12.013   8.662   6.250
 4646POPC   C2B60680  11.839   8.772   6.659
 4646POPC   C3B60681  11.709   8.750   7.094
 4646POPC   C4B60682  11.915   8.728   7.527
 4647POPC   NC360683  30.252  26.478   5.448
 4647POPC   PO460684  29.702  25.944   5.416
 4647POPC   GL160685  29.857  25.953   5.826
 4647POPC   GL260686  30.051  26.221   5.833
 4647POPC   C1A60687  29.882  25.901   6.274
 4647POPC   D2A60688  29.655  25.674   6.569
 4647POPC   C3A60689  29.526  25.856   6.967
 4647POPC   C4A60690  29.804  26.019   7.293
 4647POPC   C1B60691  30.096  26.380   6.227
 4647POPC   C2B60692  30.128  26.189   6.630
 4647POPC   C3B60693  30.120  26.350   7.044
 4647POPC   C4B60694  30.486  26.404   7.289
 4648POPC   NC360695   8.132   8.692   5.411
 4648POPC   PO460696   8.465   9.284   5.441
 4648POPC   GL160697   8.364   9.015   5.793
 4648POPC   GL260698   8.480   8.681   5.772
 4648POPC   C1A60699   8.312   8.951   6.233
 4648POPC   D2A60700   8.094   8.922   6.629
 4648POPC   C3A60701   8.344   9.029   6.994
 4648POPC   C4A60702   8.239   9.079   7.442
 4648POPC   C1B60703   8.490   8.454   6.121
 4648POPC   C2B60704   8.240   8.428   6.475
 4648POPC   C3B60705   8.275   8.523   6.898
 4648POPC   C4B60706   8.150   8.593   7.306
 4649POPC   NC360707  34.062  15.370   5.415
 4649POPC   PO460708  33.668  14.857   5.253
 4649POPC   GL160709  33.881  14.913   5.680
 4649POPC   GL260710  33.697  15.210   5.737
 4649POPC   C1A60711  33.954  15.103   6.152
 4649POPC   D2A60712  34.038  15.347   6.554
 4649POPC   C3A60713  34.083  15.112   6.984
 4649POPC   C4A60714  34.061  15.340   7.441
 4649POPC   C1B60715  33.492  14.918   6.055
 4649POPC   C2B60716  33.582  15.044   6.502
 4649POPC   C3B60717  33.630  15.366   6.833
 4649POPC   C4B60718  33.650  15.169   7.228
 4650POPC   NC360719  22.225   6.442   5.487
 4650POPC   PO460720  21.729   6.956   5.435
 4650POPC   GL160721  22.072   6.872   5.736
 4650POPC   GL260722  22.424   6.962   5.735
 4650POPC   C1A60723  22.085   6.616   6.111
 4650POPC   D2A60724  22.235   6.534   6.527
 4650POPC   C3A60725  22.083   6.410   6.913
 4650POPC   C4A60726  22.242   6.557   7.304
 4650POPC   C1B60727  22.575   6.754   6.121
 4650POPC   C2B60728  22.724   6.685   6.540
 4650POPC   C3B60729  22.646   6.735   6.991
 4650POPC   C4B60730  22.743   6.565   7.420
 4651POPC   NC360731   1.438  20.731   5.411
 4651POPC   PO460732   0.850  20.470   5.358
 4651POPC   GL160733   1.079  20.570   5.750
 4651POPC   GL260734   1.063  20.932   5.782
 4651POPC   C1A60735   1.096  20.451   6.179
 4651POPC   D2A60736   0.932  20.316   6.560
 4651POPC   C3A60737   1.125  20.402   6.967
 4651POPC   C4A60738   1.468  20.533   7.195
 4651POPC   C1B60739   1.191  20.944   6.234
 4651POPC   C2B60740   1.250  20.819   6.676
 4651POPC   C3B60741   1.303  21.002   7.090
 4651POPC   C4B60742   1.422  20.950   7.538
 4652POPC   NC360743  37.281   7.985   5.397
 4652POPC   PO460744  37.648   8.519   5.353
 4652POPC   GL160745  37.816   8.389   5.763
 4652POPC   GL260746  37.864   8.047   5.741
 4652POPC   C1A60747  37.985   8.384   6.171
 4652POPC   D2A60748  37.768   8.305   6.541
 4652POPC   C3A60749  37.947   8.319   6.940
 4652POPC   C4A60750  37.722   8.323   7.304
 4652POPC   C1B60751  37.543   8.012   6.081
 4652POPC   C2B60752  37.519   7.854   6.508
 4652POPC   C3B60753  37.484   8.055   6.905
 4652POPC   C4B60754  37.454   7.902   7.312
 4653POPC   NC360755  42.750  19.158   5.065
 4653POPC   PO460756  43.372  19.057   5.417
 4653POPC   GL160757  43.000  19.080   5.666
 4653POPC   GL260758  42.856  19.364   5.854
 4653POPC   C1A60759  42.956  18.928   6.108
 4653POPC   D2A60760  43.200  18.957   6.483
 4653POPC   C3A60761  43.029  19.016   6.882
 4653POPC   C4A60762  43.119  18.882   7.276
 4653POPC   C1B60763  43.148  19.418   6.198
 4653POPC   C2B60764  43.437  19.431   6.555
 4653POPC   C3B60765  43.358  19.407   7.012
 4653POPC   C4B60766  42.919  19.479   7.097
 4654POPC   NC360767  22.767  25.816   5.517
 4654POPC   PO460768  22.855  26.482   5.578
 4654POPC   GL160769  22.901  26.187   5.882
 4654POPC   GL260770  23.223  26.037   5.990
 4654POPC   C1A60771  22.877  26.231   6.317
 4654POPC   D2A60772  23.002  26.021   6.681
 4654POPC   C3A60773  22.950  26.289   7.012
 4654POPC   C4A60774  22.556  26.329   7.154
 4654POPC   C1B60775  23.417  25.835   6.379
 4654POPC   C2B60776  23.395  25.682   6.823
 4654POPC   C3B60777  23.131  25.827   7.197
 4654POPC   C4B60778  22.943  25.672   7.618
 4655POPC   NC360779  32.229  19.090   5.249
 4655POPC   PO460780  31.735  19.050   5.751
 4655POPC   GL160781  32.079  18.979   5.951
 4655POPC   GL260782  32.318  18.846   5.727
 4655POPC   C1A60783  32.083  18.916   6.404
 4655POPC   D2A60784  32.058  18.855   6.886
 4655POPC   C3A60785  31.963  19.156   7.252
 4655POPC   C4A60786  32.079  19.269   7.727
 4655POPC   C1B60787  32.551  18.953   6.138
 4655POPC   C2B60788  32.581  18.908   6.603
 4655POPC   C3B60789  32.529  18.879   7.069
 4655POPC   C4B60790  32.472  19.075   7.478
 4656POPC   NC360791   6.016  32.062   5.330
 4656POPC   PO460792   5.974  32.684   5.350
 4656POPC   GL160793   5.980  32.406   5.768
 4656POPC   GL260794   5.700  32.226   5.896
 4656POPC   C1A60795   6.039  32.267   6.264
 4656POPC   D2A60796   6.088  32.051   6.711
 4656POPC   C3A60797   6.004  32.214   7.173
 4656POPC   C4A60798   6.110  32.182   7.657
 4656POPC   C1B60799   5.503  31.886   6.188
 4656POPC   C2B60800   5.634  31.835   6.592
 4656POPC   C3B60801   5.597  32.178   6.874
 4656POPC   C4B60802   5.382  32.238   7.254
 4657POPC   NC360803  13.056   7.388   5.409
 4657POPC   PO460804  12.541   7.868   5.349
 4657POPC   GL160805  12.742   7.619   5.711
 4657POPC   GL260806  12.876   7.269   5.875
 4657POPC   C1A60807  12.800   7.687   6.133
 4657POPC   D2A60808  12.654   7.715   6.546
 4657POPC   C3A60809  12.783   7.453   6.902
 4657POPC   C4A60810  12.817   7.587   7.329
 4657POPC   C1B60811  12.870   7.250   6.364
 4657POPC   C2B60812  13.138   7.118   6.705
 4657POPC   C3B60813  13.048   7.055   7.139
 4657POPC   C4B60814  12.943   7.151   7.564
 4658POPC   NC360815  17.976   6.545   5.126
 4658POPC   PO460816  18.369   7.021   5.224
 4658POPC   GL160817  18.351   6.948   5.695
 4658POPC   GL260818  18.056   6.769   5.863
 4658POPC   C1A60819  18.537   6.751   6.068
 4658POPC   D2A60820  18.488   6.913   6.517
 4658POPC   C3A60821  18.498   6.644   6.881
 4658POPC   C4A60822  18.409   6.695   7.335
 4658POPC   C1B60823  18.130   6.562   6.287
 4658POPC   C2B60824  18.158   6.341   6.689
 4658POPC   C3B60825  17.977   6.504   7.098
 4658POPC   C4B60826  17.931   6.858   7.431
 4659POPC   NC360827  36.172  12.281   5.451
 4659POPC   PO460828  35.562  12.099   5.420
 4659POPC   GL160829  35.842  12.091   5.795
 4659POPC   GL260830  36.182  11.948   5.816
 4659POPC   C1A60831  35.997  12.256   6.193
 4659POPC   D2A60832  36.051  11.984   6.539
 4659POPC   C3A60833  35.938  11.965   6.953
 4659POPC   C4A60834  36.043  12.334   7.165
 4659POPC   C1B60835  36.418  11.948   6.183
 4659POPC   C2B60836  36.503  11.754   6.558
 4659POPC   C3B60837  36.444  12.030   6.875
 4659POPC   C4B60838  36.461  12.073   7.292
 4660POPC   NC360839  39.796   5.413   5.227
 4660POPC   PO460840  39.951   4.813   5.346
 4660POPC   GL160841  39.984   5.174   5.667
 4660POPC   GL260842  40.309   5.300   5.826
 4660POPC   C1A60843  39.962   5.119   6.141
 4660POPC   D2A60844  39.922   4.875   6.527
 4660POPC   C3A60845  39.968   5.095   6.885
 4660POPC   C4A60846  40.065   5.035   7.278
 4660POPC   C1B60847  40.240   5.551   6.221
 4660POPC   C2B60848  40.163   5.583   6.685
 4660POPC   C3B60849  40.154   5.545   7.117
 4660POPC   C4B60850  40.005   5.469   7.540
 4661POPC   NC360851  21.508   8.844   5.402
 4661POPC   PO460852  20.936   9.219   5.399
 4661POPC   GL160853  21.098   8.981   5.753
 4661POPC   GL260854  21.397   8.818   5.877
 4661POPC   C1A60855  20.998   8.939   6.156
 4661POPC   D2A60856  21.226   8.931   6.532
 4661POPC   C3A60857  21.009   8.961   6.922
 4661POPC   C4A60858  21.171   8.879   7.314
 4661POPC   C1B60859  21.398   8.549   6.198
 4661POPC   C2B60860  21.558   8.549   6.612
 4661POPC   C3B60861  21.563   8.861   6.933
 4661POPC   C4B60862  21.538   9.222   7.176
 4662POPC   NC360863  17.226   8.329   5.452
 4662POPC   PO460864  17.840   8.658   5.463
 4662POPC   GL160865  17.828   8.423   5.842
 4662POPC   GL260866  17.500   8.305   5.872
 4662POPC   C1A60867  17.842   8.274   6.278
 4662POPC   D2A60868  17.537   8.341   6.604
 4662POPC   C3A60869  17.642   8.129   6.999
 4662POPC   C4A60870  17.607   8.291   7.446
 4662POPC   C1B60871  17.155   8.404   6.173
 4662POPC   C2B60872  17.024   8.237   6.562
 4662POPC   C3B60873  17.166   8.336   6.970
 4662POPC   C4B60874  17.101   8.495   7.372
 4663POPC   NC360875  33.308  29.002   5.363
 4663POPC   PO460876  32.691  29.342   5.302
 4663POPC   GL160877  32.980  29.208   5.735
 4663POPC   GL260878  32.837  28.899   5.963
 4663POPC   C1A60879  33.248  29.095   6.133
 4663POPC   D2A60880  32.991  28.944   6.481
 4663POPC   C3A60881  33.086  29.103   6.866
 4663POPC   C4A60882  33.169  29.165   7.280
 4663POPC   C1B60883  32.782  29.324   6.204
 4663POPC   C2B60884  32.726  29.482   6.642
 4663POPC   C3B60885  32.781  29.440   7.110
 4663POPC   C4B60886  32.874  29.533   7.555
 4664POPC   NC360887  14.419  17.640   5.388
 4664POPC   PO460888  14.644  17.011   5.577
 4664POPC   GL160889  14.362  17.191   5.880
 4664POPC   GL260890  14.289  17.544   5.872
 4664POPC   C1A60891  14.346  17.200   6.324
 4664POPC   D2A60892  14.665  17.237   6.614
 4664POPC   C3A60893  14.513  17.170   7.008
 4664POPC   C4A60894  14.183  17.371   7.247
 4664POPC   C1B60895  14.262  17.696   6.302
 4664POPC   C2B60896  14.316  17.585   6.747
 4664POPC   C3B60897  14.535  17.716   7.134
 4664POPC   C4B60898  14.609  17.997   7.501
 4665POPC   NC360899  23.672  27.787   5.484
 4665POPC   PO460900  23.598  27.130   5.415
 4665POPC   GL160901  23.548  27.385   5.803
 4665POPC   GL260902  23.475  27.753   5.954
 4665POPC   C1A60903  23.407  27.341   6.222
 4665POPC   D2A60904  23.502  27.676   6.501
 4665POPC   C3A60905  23.434  27.471   6.867
 4665POPC   C4A60906  23.552  27.409   7.265
 4665POPC   C1B60907  23.300  28.098   6.233
 4665POPC   C2B60908  23.462  28.230   6.666
 4665POPC   C3B60909  23.550  27.947   7.057
 4665POPC   C4B60910  23.470  27.842   7.523
 4666POPC   NC360911  16.123  28.206   5.316
 4666POPC   PO460912  15.778  28.785   5.389
 4666POPC   GL160913  15.685  28.483   5.719
 4666POPC   GL260914  15.622  28.106   5.714
 4666POPC   C1A60915  15.982  28.435   6.068
 4666POPC   D2A60916  16.051  28.197   6.483
 4666POPC   C3A60917  15.940  28.297   6.923
 4666POPC   C4A60918  16.186  28.589   7.204
 4666POPC   C1B60919  15.628  28.105   6.199
 4666POPC   C2B60920  15.608  27.963   6.649
 4666POPC   C3B60921  15.488  28.110   7.094
 4666POPC   C4B60922  15.719  28.315   7.466
 4667POPC   NC360923  26.935   1.575   5.545
 4667POPC   PO460924  26.756   0.939   5.482
 4667POPC   GL160925  26.626   1.191   5.830
 4667POPC   GL260926  26.484   1.512   5.826
 4667POPC   C1A60927  26.843   1.393   6.194
 4667POPC   D2A60928  26.797   1.257   6.629
 4667POPC   C3A60929  27.005   1.345   7.007
 4667POPC   C4A60930  27.156   0.985   7.253
 4667POPC   C1B60931  26.324   1.407   6.195
 4667POPC   C2B60932  26.286   1.261   6.583
 4667POPC   C3B60933  26.368   1.497   6.966
 4667POPC   C4B60934  26.628   1.563   7.311
 4668POPC   NC360935  20.384  36.888   5.280
 4668POPC   PO460936  19.614  36.933   5.260
 4668POPC   GL160937  19.886  36.870   5.618
 4668POPC   GL260938  20.061  36.551   5.581
 4668POPC   C1A60939  19.692  36.921   6.061
 4668POPC   D2A60940  19.476  36.623   6.370
 4668POPC   C3A60941  19.564  36.659   6.815
 4668POPC   C4A60942  19.720  36.953   7.103
 4668POPC   C1B60943  20.169  36.693   6.034
 4668POPC   C2B60944  20.087  36.978   6.393
 4668POPC   C3B60945  20.156  37.035   6.838
 4668POPC   C4B60946  20.277  36.928   7.261
 4669POPC   NC360947  31.368  12.120   5.391
 4669POPC   PO460948  31.930  12.107   5.632
 4669POPC   GL160949  31.572  12.165   5.872
 4669POPC   GL260950  31.398  11.857   5.838
 4669POPC   C1A60951  31.518  12.127   6.318
 4669POPC   D2A60952  31.320  12.305   6.675
 4669POPC   C3A60953  31.565  12.292   7.054
 4669POPC   C4A60954  31.831  12.408   7.434
 4669POPC   C1B60955  31.318  11.643   6.219
 4669POPC   C2B60956  31.206  11.762   6.628
 4669POPC   C3B60957  31.310  11.827   7.051
 4669POPC   C4B60958  31.434  11.998   7.434
 4670POPC   NC360959   2.150  34.821   5.463
 4670POPC   PO460960   1.805  34.178   5.416
 4670POPC   GL160961   2.008  34.441   5.776
 4670POPC   GL260962   1.807  34.735   5.867
 4670POPC   C1A60963   2.238  34.632   6.128
 4670POPC   D2A60964   2.049  34.717   6.506
 4670POPC   C3A60965   2.271  34.629   6.847
 4670POPC   C4A60966   2.206  34.507   7.227
 4670POPC   C1B60967   1.568  34.882   6.210
 4670POPC   C2B60968   1.621  34.940   6.649
 4670POPC   C3B60969   1.752  34.642   6.980
 4670POPC   C4B60970   1.779  34.661   7.423
 4671POPC   NC360971   0.386  14.393   5.298
 4671POPC   PO460972   0.803  14.796   5.603
 4671POPC   GL160973   0.602  14.593   5.898
 4671POPC   GL260974   0.270  14.504   5.812
 4671POPC   C1A60975   0.657  14.626   6.337
 4671POPC   D2A60976   0.665  14.473   6.769
 4671POPC   C3A60977   0.408  14.606   7.107
 4671POPC   C4A60978   0.076  14.853   7.269
 4671POPC   C1B60979   0.142  14.606   6.201
 4671POPC   C2B60980   0.144  14.351   6.552
 4671POPC   C3B60981   0.251  14.146   6.921
 4671POPC   C4B60982   0.227  13.944   7.310
 4672POPC   NC360983  39.766  43.807   5.178
 4672POPC   PO460984  39.115  43.775   5.450
 4672POPC   GL160985  39.184  43.930   5.894
 4672POPC   GL260986  39.420  44.189   5.788
 4672POPC   C1A60987  39.237  43.830   6.349
 4672POPC   D2A60988  38.931  43.901   6.674
 4672POPC   C3A60989  39.111  43.952   7.059
 4672POPC   C4A60990  39.376  43.633   7.281
 4672POPC   C1B60991  39.528  44.231   6.218
 4672POPC   C2B60992  39.318  44.263   6.627
 4672POPC   C3B60993  39.481  44.277   7.064
 4672POPC   C4B60994  39.473  44.297   7.510
 4673POPC   NC360995  23.282   0.353   5.128
 4673POPC   PO460996  22.695   0.110   5.455
 4673POPC   GL160997  23.000   0.300   5.759
 4673POPC   GL260998  22.740   0.253   5.974
 4673POPC   C1A60999  23.183   0.505   6.172
 4673POPC   D2A61000  23.358   0.684   6.568
 4673POPC   C3A61001  23.193   0.474   6.968
 4673POPC   C4A61002  23.273   0.076   7.217
 4673POPC   C1B61003  22.752   0.317   6.393
 4673POPC   C2B61004  22.845   0.642   6.609
 4673POPC   C3B61005  22.662   0.770   6.928
 4673POPC   C4B61006  22.789   0.622   7.281
 4674POPC   NC361007   4.550  35.744   5.435
 4674POPC   PO461008   5.171  36.162   5.273
 4674POPC   GL161009   5.234  36.252   5.719
 4674POPC   GL261010   5.320  35.905   5.823
 4674POPC   C1A61011   5.041  36.162   6.163
 4674POPC   D2A61012   4.659  36.100   6.453
 4674POPC   C3A61013   4.797  35.943   6.872
 4674POPC   C4A61014   5.097  35.934   7.255
 4674POPC   C1B61015   5.429  35.750   6.225
 4674POPC   C2B61016   5.230  35.758   6.626
 4674POPC   C3B61017   5.307  35.567   7.006
 4674POPC   C4B61018   5.587  35.711   7.307
 4675POPC   NC361019  30.922  25.767   5.312
 4675POPC   PO461020  30.447  25.280   5.358
 4675POPC   GL161021  30.786  25.145   5.659
 4675POPC   GL261022  30.896  25.477   5.742
 4675POPC   C1A61023  30.755  25.084   6.129
 4675POPC   D2A61024  30.460  25.168   6.500
 4675POPC   C3A61025  30.673  25.061   6.888
 4675POPC   C4A61026  30.923  25.110   7.262
 4675POPC   C1B61027  30.842  25.578   6.185
 4675POPC   C2B61028  30.911  25.408   6.571
 4675POPC   C3B61029  30.817  25.578   6.955
 4675POPC   C4B61030  30.513  25.455   7.196
 4676POPC   NC361031   5.103  11.503   5.261
 4676POPC   PO461032   5.661  11.741   5.313
 4676POPC   GL161033   5.453  11.630   5.762
 4676POPC   GL261034   5.107  11.484   5.793
 4676POPC   C1A61035   5.399  11.442   6.232
 4676POPC   D2A61036   5.239  11.366   6.690
 4676POPC   C3A61037   5.506  11.175   7.061
 4676POPC   C4A61038   5.603  11.119   7.566
 4676POPC   C1B61039   4.877  11.379   6.194
 4676POPC   C2B61040   4.751  11.215   6.614
 4676POPC   C3B61041   4.891  11.181   7.047
 4676POPC   C4B61042   5.102  11.146   7.445
 4677POPC   NC361043  35.548  42.706   5.460
 4677POPC   PO461044  36.196  42.931   5.520
 4677POPC   GL161045  36.394  43.070   5.840
 4677POPC   GL261046  36.523  42.722   5.858
 4677POPC   C1A61047  36.306  43.283   6.224
 4677POPC   D2A61048  36.066  43.216   6.576
 4677POPC   C3A61049  36.319  43.334   6.932
 4677POPC   C4A61050  36.149  43.370   7.337
 4677POPC   C1B61051  36.313  42.774   6.282
 4677POPC   C2B61052  36.353  42.840   6.751
 4677POPC   C3B61053  36.306  42.883   7.216
 4677POPC   C4B61054  36.406  42.674   7.638
 4678POPC   NC361055  41.251  32.828   5.451
 4678POPC   PO461056  41.436  33.455   5.357
 4678POPC   GL161057  41.554  33.186   5.730
 4678POPC   GL261058  41.909  33.075   5.720
 4678POPC   C1A61059  41.348  33.015   6.131
 4678POPC   D2A61060  41.175  33.155   6.538
 4678POPC   C3A61061  41.394  33.172   6.929
 4678POPC   C4A61062  41.423  32.912   7.266
 4678POPC   C1B61063  41.858  33.023   6.174
 4678POPC   C2B61064  41.674  32.929   6.578
 4678POPC   C3B61065  41.861  32.858   6.995
 4678POPC   C4B61066  41.866  32.637   7.409
 4679POPC   NC361067  26.140  39.485   5.389
 4679POPC   PO461068  25.575  39.165   5.281
 4679POPC   GL161069  25.764  39.173   5.700
 4679POPC   GL261070  25.635  38.837   5.725
 4679POPC   C1A61071  26.101  39.239   6.052
 4679POPC   D2A61072  26.266  39.138   6.495
 4679POPC   C3A61073  26.009  39.241   6.886
 4679POPC   C4A61074  26.022  39.367   7.324
 4679POPC   C1B61075  25.811  38.830   6.124
 4679POPC   C2B61076  25.735  39.001   6.501
 4679POPC   C3B61077  25.743  38.796   6.886
 4679POPC   C4B61078  25.708  38.982   7.249
 4680POPC   NC361079  23.874  41.295   5.299
 4680POPC   PO461080  23.527  41.841   5.378
 4680POPC   GL161081  23.626  41.728   5.801
 4680POPC   GL261082  23.944  41.549   5.751
 4680POPC   C1A61083  23.512  41.618   6.248
 4680POPC   D2A61084  23.540  41.497   6.708
 4680POPC   C3A61085  23.645  41.793   7.078
 4680POPC   C4A61086  24.043  41.898   7.212
 4680POPC   C1B61087  24.037  41.751   6.170
 4680POPC   C2B61088  24.013  41.746   6.658
 4680POPC   C3B61089  23.999  41.421   6.994
 4680POPC   C4B61090  24.037  41.421   7.431
 4681POPC   NC361091  28.102  24.440   5.521
 4681POPC   PO461092  28.410  25.013   5.456
 4681POPC   GL161093  28.427  24.692   5.831
 4681POPC   GL261094  28.630  24.367   5.912
 4681POPC   C1A61095  28.322  24.648   6.283
 4681POPC   D2A61096  28.527  24.688   6.710
 4681POPC   C3A61097  28.279  24.661   7.090
 4681POPC   C4A61098  28.391  24.583   7.548
 4681POPC   C1B61099  28.615  24.209   6.378
 4681POPC   C2B61100  28.371  24.205   6.768
 4681POPC   C3B61101  28.379  24.187   7.199
 4681POPC   C4B61102  28.657  24.143   7.517
 4682POPC   NC361103  24.282  30.252   5.461
 4682POPC   PO461104  24.356  29.583   5.625
 4682POPC   GL161105  24.298  29.938   5.892
 4682POPC   GL261106  24.608  30.129   5.874
 4682POPC   C1A61107  24.393  29.983   6.331
 4682POPC   D2A61108  24.544  29.675   6.626
 4682POPC   C3A61109  24.470  29.731   7.048
 4682POPC   C4A61110  24.799  29.686   7.307
 4682POPC   C1B61111  24.777  30.320   6.261
 4682POPC   C2B61112  24.801  30.162   6.701
 4682POPC   C3B61113  24.708  30.205   7.159
 4682POPC   C4B61114  24.767  30.258   7.658
 4683POPC   NC361115   6.153  27.340   5.607
 4683POPC   PO461116   6.014  27.961   5.447
 4683POPC   GL161117   5.835  27.745   5.841
 4683POPC   GL261118   5.651  27.434   5.786
 4683POPC   C1A61119   5.872  27.605   6.290
 4683POPC   D2A61120   5.753  27.774   6.719
 4683POPC   C3A61121   5.952  27.646   7.100
 4683POPC   C4A61122   5.846  27.935   7.439
 4683POPC   C1B61123   5.417  27.370   6.177
 4683POPC   C2B61124   5.563  27.318   6.608
 4683POPC   C3B61125   5.488  27.436   7.043
 4683POPC   C4B61126   5.687  27.331   7.462
 4684POPC   NC361127   6.398  17.652   5.477
 4684POPC   PO461128   6.977  17.583   5.525
 4684POPC   GL161129   6.713  17.451   5.845
 4684POPC   GL261130   6.382  17.266   5.810
 4684POPC   C1A61131   6.723  17.436   6.275
 4684POPC   D2A61132   6.762  17.700   6.614
 4684POPC   C3A61133   6.709  17.492   7.001
 4684POPC   C4A61134   6.827  17.794   7.263
 4684POPC   C1B61135   6.248  17.523   6.178
 4684POPC   C2B61136   6.266  17.498   6.631
 4684POPC   C3B61137   6.205  17.594   7.062
 4684POPC   C4B61138   6.262  17.317   7.390
 4685POPC   NC361139   2.456  36.585   5.377
 4685POPC   PO461140   2.951  37.075   5.450
 4685POPC   GL161141   2.853  36.724   5.753
 4685POPC   GL261142   2.534  36.822   5.850
 4685POPC   C1A61143   2.977  36.693   6.191
 4685POPC   D2A61144   2.906  37.063   6.455
 4685POPC   C3A61145   2.951  37.043   6.903
 4685POPC   C4A61146   2.676  37.200   7.240
 4685POPC   C1B61147   2.473  36.620   6.255
 4685POPC   C2B61148   2.669  36.628   6.668
 4685POPC   C3B61149   2.586  36.704   7.095
 4685POPC   C4B61150   2.663  36.783   7.528
 4686POPC   NC361151  27.347  32.682   5.366
 4686POPC   PO461152  26.663  32.942   5.319
 4686POPC   GL161153  26.789  32.945   5.746
 4686POPC   GL261154  27.062  32.707   5.827
 4686POPC   C1A61155  26.963  33.174   6.105
 4686POPC   D2A61156  26.757  33.232   6.512
 4686POPC   C3A61157  26.959  33.455   6.846
 4686POPC   C4A61158  26.884  33.259   7.259
 4686POPC   C1B61159  26.753  32.730   6.192
 4686POPC   C2B61160  26.837  32.702   6.567
 4686POPC   C3B61161  26.775  32.910   6.917
 4686POPC   C4B61162  26.871  32.685   7.252
 4687POPC   NC361163  22.323   9.422   5.603
 4687POPC   PO461164  21.921   8.945   5.242
 4687POPC   GL161165  21.834   9.056   5.752
 4687POPC   GL261166  22.055   9.225   5.987
 4687POPC   C1A61167  21.740   8.952   6.255
 4687POPC   D2A61168  22.006   8.811   6.633
 4687POPC   C3A61169  22.028   9.109   6.991
 4687POPC   C4A61170  22.015   9.154   7.451
 4687POPC   C1B61171  22.351   9.130   6.351
 4687POPC   C2B61172  22.559   9.054   6.776
 4687POPC   C3B61173  22.506   9.144   7.226
 4687POPC   C4B61174  22.426   9.020   7.682
 4688POPC   NC361175   4.832  20.134   5.375
 4688POPC   PO461176   5.081  19.463   5.405
 4688POPC   GL161177   5.107  19.727   5.764
 4688POPC   GL261178   5.206  20.071   5.730
 4688POPC   C1A61179   4.982  19.770   6.195
 4688POPC   D2A61180   4.978  19.519   6.556
 4688POPC   C3A61181   5.135  19.679   6.914
 4688POPC   C4A61182   4.906  19.901   7.154
 4688POPC   C1B61183   5.389  20.103   6.151
 4688POPC   C2B61184   5.238  20.037   6.570
 4688POPC   C3B61185   5.338  20.142   7.017
 4688POPC   C4B61186   5.236  20.087   7.473
 4689POPC   NC361187  12.785  31.178   5.128
 4689POPC   PO461188  12.962  31.741   5.336
 4689POPC   GL161189  12.923  31.571   5.835
 4689POPC   GL261190  12.567  31.499   5.877
 4689POPC   C1A61191  13.155  31.407   6.267
 4689POPC   D2A61192  13.277  31.426   6.746
 4689POPC   C3A61193  13.142  31.747   7.105
 4689POPC   C4A61194  13.241  32.030   7.470
 4689POPC   C1B61195  12.657  31.361   6.314
 4689POPC   C2B61196  12.763  31.509   6.761
 4689POPC   C3B61197  12.607  31.757   7.115
 4689POPC   C4B61198  12.755  31.829   7.532
 4690POPC   NC361199  20.094  22.905   5.500
 4690POPC   PO461200  19.350  23.025   5.460
 4690POPC   GL161201  19.422  23.128   5.866
 4690POPC   GL261202  19.594  22.842   5.904
 4690POPC   C1A61203  19.740  23.214   6.202
 4690POPC   D2A61204  19.923  23.376   6.580
 4690POPC   C3A61205  19.898  23.100   6.934
 4690POPC   C4A61206  20.223  22.864   7.132
 4690POPC   C1B61207  19.784  22.632   6.247
 4690POPC   C2B61208  19.974  22.554   6.642
 4690POPC   C3B61209  19.832  22.546   7.046
 4690POPC   C4B61210  19.677  22.840   7.316
 4691POPC   NC361211   6.617  20.813   5.374
 4691POPC   PO461212   6.816  20.231   5.516
 4691POPC   GL161213   6.601  20.429   5.825
 4691POPC   GL261214   6.704  20.770   5.881
 4691POPC   C1A61215   6.575  20.422   6.281
 4691POPC   D2A61216   6.385  20.331   6.692
 4691POPC   C3A61217   6.647  20.431   7.070
 4691POPC   C4A61218   6.498  20.515   7.506
 4691POPC   C1B61219   6.596  20.941   6.288
 4691POPC   C2B61220   6.511  20.840   6.719
 4691POPC   C3B61221   6.520  20.921   7.154
 4691POPC   C4B61222   6.880  20.853   7.386
 4692POPC   NC361223   1.512  36.299   5.541
 4692POPC   PO461224   2.099  35.999   5.349
 4692POPC   GL161225   1.877  36.007   5.777
 4692POPC   GL261226   1.742  36.282   5.988
 4692POPC   C1A61227   1.681  35.835   6.174
 4692POPC   D2A61228   1.715  36.131   6.495
 4692POPC   C3A61229   2.003  36.102   6.790
 4692POPC   C4A61230   2.072  35.965   7.191
 4692POPC   C1B61231   1.952  36.594   6.258
 4692POPC   C2B61232   2.136  36.595   6.671
 4692POPC   C3B61233   2.097  36.500   7.116
 4692POPC   C4B61234   1.769  36.343   7.403
 4693POPC   NC361235  30.491  41.261   5.399
 4693POPC   PO461236  31.070  41.499   5.370
 4693POPC   GL161237  30.818  41.509   5.706
 4693POPC   GL261238  30.850  41.148   5.764
 4693POPC   C1A61239  30.836  41.762   6.090
 4693POPC   D2A61240  30.953  41.793   6.530
 4693POPC   C3A61241  30.816  41.446   6.781
 4693POPC   C4A61242  30.707  41.557   7.186
 4693POPC   C1B61243  30.543  41.254   6.091
 4693POPC   C2B61244  30.385  41.472   6.464
 4693POPC   C3B61245  30.281  41.377   6.897
 4693POPC   C4B61246  30.353  41.230   7.324
 4694POPC   NC361247  25.639  44.884   5.451
 4694POPC   PO461248  25.100  44.446   5.446
 4694POPC   GL161249  25.324  44.582   5.777
 4694POPC   GL261250  25.138  44.815   5.975
 4694POPC   C1A61251  25.516  44.465   6.175
 4694POPC   D2A61252  25.369  44.368   6.594
 4694POPC   C3A61253  25.442  44.739   6.848
 4694POPC   C4A61254  25.329  44.800   7.268
 4694POPC   C1B61255  25.007  44.387   6.168
 4694POPC   C2B61256  24.933  44.109   6.502
 4694POPC   C3B61257  24.946  44.207   6.951
 4694POPC   C4B61258  24.975  44.413   7.353
 4695POPC   NC361259  17.713  28.096   5.272
 4695POPC   PO461260  17.199  28.349   5.528
 4695POPC   GL161261  17.410  28.108   5.828
 4695POPC   GL261262  17.749  28.199   5.774
 4695POPC   C1A61263  17.533  28.184   6.272
 4695POPC   D2A61264  17.325  28.413   6.613
 4695POPC   C3A61265  17.289  28.320   7.076
 4695POPC   C4A61266  17.286  28.498   7.524
 4695POPC   C1B61267  17.686  28.589   5.998
 4695POPC   C2B61268  17.785  28.627   6.433
 4695POPC   C3B61269  17.716  28.678   6.879
 4695POPC   C4B61270  17.588  28.842   7.282
 4696POPC   NC361271  41.596   4.690   5.581
 4696POPC   PO461272  41.737   5.268   5.307
 4696POPC   GL161273  41.767   5.218   5.748
 4696POPC   GL261274  41.413   5.112   5.815
 4696POPC   C1A61275  41.768   5.050   6.174
 4696POPC   D2A61276  41.628   4.862   6.557
 4696POPC   C3A61277  41.816   5.113   6.874
 4696POPC   C4A61278  41.872   5.086   7.303
 4696POPC   C1B61279  41.200   4.988   6.201
 4696POPC   C2B61280  41.097   5.008   6.625
 4696POPC   C3B61281  41.330   4.973   6.988
 4696POPC   C4B61282  41.054   5.085   7.288
 4697POPC   NC361283  42.856  29.496   5.294
 4697POPC   PO461284  43.147  28.899   5.283
 4697POPC   GL161285  43.088  29.162   5.642
 4697POPC   GL261286  42.720  29.114   5.630
 4697POPC   C1A61287  43.219  29.073   6.085
 4697POPC   D2A61288  43.223  28.897   6.515
 4697POPC   C3A61289  43.203  29.183   6.867
 4697POPC   C4A61290  43.452  29.236   7.241
 4697POPC   C1B61291  42.724  29.252   6.064
 4697POPC   C2B61292  42.847  29.302   6.491
 4697POPC   C3B61293  42.678  29.207   6.898
 4697POPC   C4B61294  42.696  29.096   7.294
 4698POPC   NC361295   4.745   9.172   5.382
 4698POPC   PO461296   4.119   8.910   5.324
 4698POPC   GL161297   4.369   8.876   5.675
 4698POPC   GL261298   4.350   9.218   5.746
 4698POPC   C1A61299   4.357   8.828   6.119
 4698POPC   D2A61300   4.197   8.997   6.498
 4698POPC   C3A61301   4.123   8.847   6.881
 4698POPC   C4A61302   4.306   8.867   7.259
 4698POPC   C1B61303   4.094   9.357   6.092
 4698POPC   C2B61304   4.143   9.500   6.511
 4698POPC   C3B61305   4.393   9.326   6.860
 4698POPC   C4B61306   4.265   9.396   7.275
 4699POPC   NC361307  39.686  32.487   5.570
 4699POPC   PO461308  40.170  32.060   5.365
 4699POPC   GL161309  40.078  32.223   5.787
 4699POPC   GL261310  40.390  32.234   5.872
 4699POPC   C1A61311  39.969  32.446   6.218
 4699POPC   D2A61312  39.724  32.559   6.627
 4699POPC   C3A61313  39.910  32.570   7.075
 4699POPC   C4A61314  39.663  32.602   7.468
 4699POPC   C1B61315  40.393  32.153   6.325
 4699POPC   C2B61316  40.184  32.278   6.710
 4699POPC   C3B61317  40.206  32.170   7.155
 4699POPC   C4B61318  39.830  32.085   7.390
 4700POPC   NC361319  29.452  31.865   5.498
 4700POPC   PO461320  29.143  31.217   5.470
 4700POPC   GL161321  29.165  31.526   5.788
 4700POPC   GL261322  29.537  31.464   5.816
 4700POPC   C1A61323  28.992  31.804   6.131
 4700POPC   D2A61324  29.200  31.978   6.531
 4700POPC   C3A61325  29.142  31.760   6.955
 4700POPC   C4A61326  28.903  31.440   7.193
 4700POPC   C1B61327  29.419  31.536   6.239
 4700POPC   C2B61328  29.169  31.404   6.576
 4700POPC   C3B61329  29.294  31.229   6.958
 4700POPC   C4B61330  29.626  31.199   7.247
 4701POPC   NC361331  13.278  28.689   4.922
 4701POPC   PO461332  12.947  29.059   5.416
 4701POPC   GL161333  12.875  29.252   5.808
 4701POPC   GL261334  12.695  29.539   5.879
 4701POPC   C1A61335  12.884  29.198   6.232
 4701POPC   D2A61336  12.723  29.177   6.644
 4701POPC   C3A61337  12.916  29.199   7.023
 4701POPC   C4A61338  12.751  28.987   7.332
 4701POPC   C1B61339  12.495  29.499   6.267
 4701POPC   C2B61340  12.543  29.639   6.699
 4701POPC   C3B61341  12.463  29.399   7.100
 4701POPC   C4B61342  12.496  29.391   7.575
 4702POPC   NC361343  33.733  11.309   5.415
 4702POPC   PO461344  34.293  10.858   5.407
 4702POPC   GL161345  34.136  10.758   5.827
 4702POPC   GL261346  33.849  10.954   5.813
 4702POPC   C1A61347  34.139  10.971   6.252
 4702POPC   D2A61348  34.028  11.289   6.551
 4702POPC   C3A61349  33.851  11.262   6.947
 4702POPC   C4A61350  33.917  11.239   7.373
 4702POPC   C1B61351  33.661  11.163   6.167
 4702POPC   C2B61352  33.506  11.443   6.486
 4702POPC   C3B61353  33.524  11.654   6.883
 4702POPC   C4B61354  33.527  11.553   7.292
 4703POPC   NC361355  44.960  32.345   5.591
 4703POPC   PO461356  44.338  32.140   5.578
 4703POPC   GL161357  44.546  32.297   5.917
 4703POPC   GL261358  44.913  32.214   6.062
 4703POPC   C1A61359  44.487  32.151   6.317
 4703POPC   D2A61360  44.733  32.229   6.627
 4703POPC   C3A61361  44.532  32.064   6.969
 4703POPC   C4A61362  44.529  32.051   7.410
 4703POPC   C1B61363  44.922  31.843   6.278
 4703POPC   C2B61364  44.867  31.734   6.691
 4703POPC   C3B61365  44.954  31.822   7.118
 4703POPC   C4B61366   0.224  31.631   7.427
 4704POPC   NC361367   1.519   5.834   5.393
 4704POPC   PO461368   0.889   5.964   5.217
 4704POPC   GL161369   1.099   6.008   5.675
 4704POPC   GL261370   1.403   6.090   5.812
 4704POPC   C1A61371   1.042   6.075   6.150
 4704POPC   D2A61372   1.043   5.857   6.561
 4704POPC   C3A61373   1.190   6.018   6.970
 4704POPC   C4A61374   1.301   5.774   7.347
 4704POPC   C1B61375   1.530   5.938   6.252
 4704POPC   C2B61376   1.670   6.014   6.697
 4704POPC   C3B61377   1.644   6.299   7.059
 4704POPC   C4B61378   1.342   6.264   7.428
 4705POPC   NC361379  20.048  43.329   5.420
 4705POPC   PO461380  19.485  42.967   5.392
 4705POPC   GL161381  19.742  43.084   5.786
 4705POPC   GL261382  20.135  43.081   5.850
 4705POPC   C1A61383  19.725  43.077   6.254
 4705POPC   D2A61384  19.405  43.173   6.562
 4705POPC   C3A61385  19.523  43.212   6.974
 4705POPC   C4A61386  19.405  43.537   7.263
 4705POPC   C1B61387  20.102  43.384   6.167
 4705POPC   C2B61388  19.925  43.417   6.602
 4705POPC   C3B61389  19.847  43.613   7.002
 4705POPC   C4B61390  19.883  43.604   7.430
 4706POPC   NC361391  19.359  28.774   5.420
 4706POPC   PO461392  19.044  28.184   5.347
 4706POPC   GL161393  19.080  28.435   5.690
 4706POPC   GL261394  19.222  28.169   5.856
 4706POPC   C1A61395  19.033  28.575   6.097
 4706POPC   D2A61396  19.278  28.665   6.436
 4706POPC   C3A61397  19.089  28.556   6.805
 4706POPC   C4A61398  19.010  28.622   7.234
 4706POPC   C1B61399  19.072  28.093   6.270
 4706POPC   C2B61400  18.956  28.076   6.667
 4706POPC   C3B61401  19.029  28.127   7.079
 4706POPC   C4B61402  19.158  28.157   7.506
 4707POPC   NC361403  17.345   5.782   5.436
 4707POPC   PO461404  17.897   6.105   5.242
 4707POPC   GL161405  17.801   5.929   5.761
 4707POPC   GL261406  17.682   5.626   5.789
 4707POPC   C1A61407  17.431   5.857   6.166
 4707POPC   D2A61408  17.210   5.975   6.572
 4707POPC   C3A61409  17.252   5.722   6.955
 4707POPC   C4A61410  17.385   5.859   7.365
 4707POPC   C1B61411  17.885   5.640   6.206
 4707POPC   C2B61412  17.649   5.576   6.598
 4707POPC   C3B61413  17.750   5.644   7.031
 4707POPC   C4B61414  17.784   5.596   7.501
 4708POPC   NC361415  16.821   9.241   5.381
 4708POPC   PO461416  16.690   8.589   5.447
 4708POPC   GL161417  16.627   8.834   5.824
 4708POPC   GL261418  16.450   9.177   5.770
 4708POPC   C1A61419  16.824   8.807   6.249
 4708POPC   D2A61420  17.113   8.738   6.597
 4708POPC   C3A61421  16.891   8.863   7.007
 4708POPC   C4A61422  16.809   8.925   7.467
 4708POPC   C1B61423  16.854   9.263   6.029
 4708POPC   C2B61424  16.913   9.264   6.494
 4708POPC   C3B61425  16.747   9.351   6.935
 4708POPC   C4B61426  16.300   9.348   7.099
 4709POPC   NC361427  27.495  29.456   5.574
 4709POPC   PO461428  28.035  29.929   5.432
 4709POPC   GL161429  27.695  29.954   5.790
 4709POPC   GL261430  27.697  29.662   5.976
 4709POPC   C1A61431  27.484  30.022   6.246
 4709POPC   D2A61432  27.420  29.860   6.693
 4709POPC   C3A61433  27.335  30.119   7.055
 4709POPC   C4A61434  27.634  30.327   7.328
 4709POPC   C1B61435  27.473  29.495   6.303
 4709POPC   C2B61436  27.344  29.334   6.677
 4709POPC   C3B61437  27.480  29.507   7.053
 4709POPC   C4B61438  27.605  29.780   7.334
 4710POPC   NC361439  32.551  13.958   5.165
 4710POPC   PO461440  32.057  13.609   5.380
 4710POPC   GL161441  32.055  13.477   5.819
 4710POPC   GL261442  32.137  13.836   5.912
 4710POPC   C1A61443  32.002  13.417   6.293
 4710POPC   D2A61444  31.972  13.749   6.578
 4710POPC   C3A61445  32.111  13.715   7.008
 4710POPC   C4A61446  32.104  13.420   7.299
 4710POPC   C1B61447  32.452  13.635   6.208
 4710POPC   C2B61448  32.418  13.492   6.639
 4710POPC   C3B61449  32.606  13.715   6.990
 4710POPC   C4B61450  32.546  13.633   7.415
 4711POPC   NC361451  40.938  11.770   5.377
 4711POPC   PO461452  40.395  11.981   5.386
 4711POPC   GL161453  40.568  11.814   5.797
 4711POPC   GL261454  40.884  11.617   5.864
 4711POPC   C1A61455  40.631  11.959   6.233
 4711POPC   D2A61456  40.812  12.370   6.383
 4711POPC   C3A61457  40.878  12.428   6.825
 4711POPC   C4A61458  40.707  12.273   7.212
 4711POPC   C1B61459  41.128  11.871   6.162
 4711POPC   C2B61460  41.191  12.042   6.583
 4711POPC   C3B61461  41.133  11.995   7.051
 4711POPC   C4B61462  41.070  11.695   7.405
 4712POPC   NC361463  34.397  42.200   5.436
 4712POPC   PO461464  34.531  42.755   5.147
 4712POPC   GL161465  34.568  42.638   5.639
 4712POPC   GL261466  34.346  42.816   5.880
 4712POPC   C1A61467  34.684  42.386   6.074
 4712POPC   D2A61468  34.752  42.254   6.559
 4712POPC   C3A61469  34.489  42.207   6.987
 4712POPC   C4A61470  34.507  42.009   7.441
 4712POPC   C1B61471  34.282  42.641   6.306
 4712POPC   C2B61472  34.153  42.746   6.741
 4712POPC   C3B61473  34.052  42.526   7.121
 4712POPC   C4B61474  34.343  42.485   7.420
 4713POPC   NC361475   3.168   9.844   5.391
 4713POPC   PO461476   3.880   9.889   5.399
 4713POPC   GL161477   3.698   9.648   5.744
 4713POPC   GL261478   3.509   9.937   5.794
 4713POPC   C1A61479   3.578   9.493   6.155
 4713POPC   D2A61480   3.368   9.648   6.510
 4713POPC   C3A61481   3.528   9.637   6.923
 4713POPC   C4A61482   3.494   9.391   7.290
 4713POPC   C1B61483   3.483  10.059   6.206
 4713POPC   C2B61484   3.355  10.166   6.627
 4713POPC   C3B61485   3.267  10.046   7.045
 4713POPC   C4B61486   3.582   9.942   7.366
 4714POPC   NC361487  33.718  18.541   5.456
 4714POPC   PO461488  34.099  18.043   5.342
 4714POPC   GL161489  33.866  18.110   5.712
 4714POPC   GL261490  33.517  18.066   5.633
 4714POPC   C1A61491  33.961  18.339   6.105
 4714POPC   D2A61492  33.846  18.104   6.468
 4714POPC   C3A61493  33.897  18.340   6.810
 4714POPC   C4A61494  33.752  18.358   7.201
 4714POPC   C1B61495  33.476  18.201   6.073
 4714POPC   C2B61496  33.562  18.527   6.396
 4714POPC   C3B61497  33.435  18.546   6.823
 4714POPC   C4B61498  33.260  18.427   7.228
 4715POPC   NC361499  26.916  25.464   5.415
 4715POPC   PO461500  26.779  24.832   5.501
 4715POPC   GL161501  27.062  25.115   5.806
 4715POPC   GL261502  27.131  25.505   5.870
 4715POPC   C1A61503  27.184  25.205   6.263
 4715POPC   D2A61504  27.135  25.364   6.697
 4715POPC   C3A61505  27.014  25.111   7.063
 4715POPC   C4A61506  26.598  24.975   7.247
 4715POPC   C1B61507  27.107  25.779   6.237
 4715POPC   C2B61508  26.864  25.837   6.639
 4715POPC   C3B61509  26.727  25.544   6.958
 4715POPC   C4B61510  26.754  25.445   7.384
 4716POPC   NC361511  30.563  19.564   5.443
 4716POPC   PO461512  31.133  19.842   5.556
 4716POPC   GL161513  30.854  19.733   5.895
 4716POPC   GL261514  30.514  19.802   5.888
 4716POPC   C1A61515  30.722  19.748   6.348
 4716POPC   D2A61516  30.548  19.748   6.742
 4716POPC   C3A61517  30.868  19.804   7.069
 4716POPC   C4A61518  30.983  19.555   7.417
 4716POPC   C1B61519  30.248  19.930   6.241
 4716POPC   C2B61520  30.108  20.045   6.633
 4716POPC   C3B61521  30.163  19.913   7.044
 4716POPC   C4B61522  30.434  19.632   7.252
 4717POPC   NC361523  31.301  20.262   5.496
 4717POPC   PO461524  30.715  20.714   5.450
 4717POPC   GL161525  30.640  20.590   5.835
 4717POPC   GL261526  30.805  20.246   5.748
 4717POPC   C1A61527  30.667  20.717   6.265
 4717POPC   D2A61528  30.956  20.588   6.577
 4717POPC   C3A61529  30.712  20.722   6.908
 4717POPC   C4A61530  30.541  20.910   7.273
 4717POPC   C1B61531  30.668  20.208   6.154
 4717POPC   C2B61532  30.544  20.280   6.555
 4717POPC   C3B61533  30.580  20.224   6.980
 4717POPC   C4B61534  30.567  20.097   7.402
 4718POPC   NC361535  16.092  32.591   5.409
 4718POPC   PO461536  15.666  32.165   5.105
 4718POPC   GL161537  15.700  32.258   5.619
 4718POPC   GL261538  15.983  32.413   5.851
 4718POPC   C1A61539  15.685  32.112   6.107
 4718POPC   D2A61540  15.952  31.938   6.480
 4718POPC   C3A61541  15.885  32.057   6.946
 4718POPC   C4A61542  15.635  32.049   7.358
 4718POPC   C1B61543  16.285  32.613   6.140
 4718POPC   C2B61544  16.295  32.521   6.570
 4718POPC   C3B61545  16.316  32.722   6.946
 4718POPC   C4B61546  16.298  32.648   7.357
 4719POPC   NC361547   4.577  19.340   5.329
 4719POPC   PO461548   3.977  19.028   5.608
 4719POPC   GL161549   4.345  19.142   5.851
 4719POPC   GL261550   4.561  19.450   5.836
 4719POPC   C1A61551   4.545  19.042   6.256
 4719POPC   D2A61552   4.648  19.158   6.701
 4719POPC   C3A61553   4.469  18.900   7.040
 4719POPC   C4A61554   4.026  18.933   7.203
 4719POPC   C1B61555   4.338  19.532   6.232
 4719POPC   C2B61556   4.161  19.350   6.625
 4719POPC   C3B61557   4.235  19.371   7.077
 4719POPC   C4B61558   4.171  19.482   7.517
 4720POPC   NC361559  29.753  24.173   5.353
 4720POPC   PO461560  30.132  23.635   5.431
 4720POPC   GL161561  30.067  23.460   5.835
 4720POPC   GL261562  29.828  23.707   5.918
 4720POPC   C1A61563  30.189  23.534   6.268
 4720POPC   D2A61564  29.910  23.543   6.602
 4720POPC   C3A61565  30.102  23.498   6.964
 4720POPC   C4A61566  29.946  23.349   7.330
 4720POPC   C1B61567  29.882  23.959   6.300
 4720POPC   C2B61568  30.232  23.945   6.577
 4720POPC   C3B61569  30.315  23.976   6.987
 4720POPC   C4B61570  29.974  23.985   7.239
 4721POPC   NC361571   8.965  44.987   5.315
 4721POPC   PO461572   9.104   0.514   5.550
 4721POPC   GL161573   9.106   0.051   5.815
 4721POPC   GL261574   8.940  44.692   5.753
 4721POPC   C1A61575   9.217  44.720   6.183
 4721POPC   D2A61576   8.983  44.494   6.539
 4721POPC   C3A61577   8.970  44.667   6.974
 4721POPC   C4A61578   9.148   0.049   7.204
 4721POPC   C1B61579   8.722  44.821   6.135
 4721POPC   C2B61580   8.576  44.834   6.588
 4721POPC   C3B61581   8.482  44.796   7.051
 4721POPC   C4B61582   8.684  44.960   7.428
 4722POPC   NC361583   4.751   1.074   5.086
 4722POPC   PO461584   4.178   1.406   5.222
 4722POPC   GL161585   4.323   1.386   5.676
 4722POPC   GL261586   4.305   1.023   5.762
 4722POPC   C1A61587   4.441   1.340   6.149
 4722POPC   D2A61588   4.515   1.134   6.551
 4722POPC   C3A61589   4.389   1.378   6.896
 4722POPC   C4A61590   4.451   1.698   7.191
 4722POPC   C1B61591   4.108   0.927   6.171
 4722POPC   C2B61592   4.099   0.821   6.623
 4722POPC   C3B61593   4.025   1.047   7.004
 4722POPC   C4B61594   3.975   0.997   7.470
 4723POPC   NC361595  32.082  35.622   5.121
 4723POPC   PO461596  32.478  35.178   5.427
 4723POPC   GL161597  32.229  35.316   5.828
 4723POPC   GL261598  31.892  35.169   5.932
 4723POPC   C1A61599  32.070  35.568   6.210
 4723POPC   D2A61600  32.091  35.751   6.627
 4723POPC   C3A61601  32.146  35.443   6.960
 4723POPC   C4A61602  32.480  35.336   7.268
 4723POPC   C1B61603  32.166  35.036   6.260
 4723POPC   C2B61604  32.075  34.893   6.671
 4723POPC   C3B61605  32.165  34.970   7.103
 4723POPC   C4B61606  32.007  35.098   7.486
 4724POPC   NC361607  42.217  19.286   5.593
 4724POPC   PO461608  42.592  18.831   5.355
 4724POPC   GL161609  42.535  18.942   5.788
 4724POPC   GL261610  42.226  18.834   5.886
 4724POPC   C1A61611  42.527  19.190   6.206
 4724POPC   D2A61612  42.723  19.353   6.605
 4724POPC   C3A61613  42.510  19.179   6.993
 4724POPC   C4A61614  42.246  18.922   7.312
 4724POPC   C1B61615  42.523  18.659   6.216
 4724POPC   C2B61616  42.624  18.830   6.624
 4724POPC   C3B61617  42.654  18.687   7.083
 4724POPC   C4B61618  42.447  18.425   7.438
 4725POPC   NC361619  31.195  42.669   5.365
 4725POPC   PO461620  31.681  42.157   5.340
 4725POPC   GL161621  31.485  42.366   5.672
 4725POPC   GL261622  31.181  42.179   5.782
 4725POPC   C1A61623  31.450  42.497   6.097
 4725POPC   D2A61624  31.345  42.417   6.521
 4725POPC   C3A61625  31.302  42.622   6.898
 4725POPC   C4A61626  31.487  42.577   7.242
 4725POPC   C1B61627  31.306  42.020   6.206
 4725POPC   C2B61628  31.670  42.036   6.560
 4725POPC   C3B61629  31.579  42.129   6.966
 4725POPC   C4B61630  31.188  42.165   7.114
 4726POPC   NC361631  39.159  11.654   5.433
 4726POPC   PO461632  39.246  10.959   5.414
 4726POPC   GL161633  39.360  11.272   5.726
 4726POPC   GL261634  39.036  11.372   5.831
 4726POPC   C1A61635  39.404  11.284   6.183
 4726POPC   D2A61636  39.344  10.984   6.533
 4726POPC   C3A61637  39.380  11.181   6.926
 4726POPC   C4A61638  39.049  11.159   7.205
 4726POPC   C1B61639  38.902  11.328   6.245
 4726POPC   C2B61640  38.979  11.355   6.677
 4726POPC   C3B61641  39.039  11.628   7.036
 4726POPC   C4B61642  39.071  11.602   7.479
 4727POPC   NC361643  40.949  38.195   5.717
 4727POPC   PO461644  41.327  38.601   5.272
 4727POPC   GL161645  41.518  38.425   5.695
 4727POPC   GL261646  41.811  38.616   5.856
 4727POPC   C1A61647  41.593  38.163   6.064
 4727POPC   D2A61648  41.663  38.066   6.530
 4727POPC   C3A61649  41.526  38.281   6.929
 4727POPC   C4A61650  41.685  38.195   7.345
 4727POPC   C1B61651  41.907  38.508   6.288
 4727POPC   C2B61652  41.849  38.670   6.717
 4727POPC   C3B61653  41.868  38.685   7.184
 4727POPC   C4B61654  42.018  38.539   7.584
 4728POPC   NC361655  35.179  43.626   5.389
 4728POPC   PO461656  35.812  43.838   5.555
 4728POPC   GL161657  35.436  43.851   5.805
 4728POPC   GL261658  35.437  43.516   5.799
 4728POPC   C1A61659  35.275  44.033   6.193
 4728POPC   D2A61660  35.177  44.037   6.642
 4728POPC   C3A61661  35.591  44.008   6.872
 4728POPC   C4A61662  35.623  43.751   7.251
 4728POPC   C1B61663  35.115  43.451   6.071
 4728POPC   C2B61664  35.197  43.559   6.480
 4728POPC   C3B61665  35.215  43.610   6.918
 4728POPC   C4B61666  35.255  43.341   7.235
 4729POPC   NC361667  14.529  43.519   5.750
 4729POPC   PO461668  14.079  43.225   5.374
 4729POPC   GL161669  14.196  43.123   5.797
 4729POPC   GL261670  14.150  43.353   6.040
 4729POPC   C1A61671  14.081  42.855   6.143
 4729POPC   D2A61672  13.988  42.780   6.580
 4729POPC   C3A61673  14.189  43.038   6.914
 4729POPC   C4A61674  14.589  42.960   7.118
 4729POPC   C1B61675  14.512  43.165   6.281
 4729POPC   C2B61676  14.646  43.402   6.632
 4729POPC   C3B61677  14.505  43.465   7.030
 4729POPC   C4B61678  14.084  43.548   7.233
 4730POPC   NC361679  14.986  14.493   5.367
 4730POPC   PO461680  15.608  14.411   5.473
 4730POPC   GL161681  15.274  14.315   5.798
 4730POPC   GL261682  14.885  14.158   5.750
 4730POPC   C1A61683  15.423  14.419   6.233
 4730POPC   D2A61684  15.584  14.214   6.605
 4730POPC   C3A61685  15.437  14.362   6.997
 4730POPC   C4A61686  15.268  14.431   7.409
 4730POPC   C1B61687  14.986  14.157   6.202
 4730POPC   C2B61688  15.066  14.369   6.619
 4730POPC   C3B61689  14.902  14.482   7.032
 4730POPC   C4B61690  14.625  14.511   7.392
 4731POPC   NC361691  18.099  38.207   5.417
 4731POPC   PO461692  17.744  37.637   5.343
 4731POPC   GL161693  17.632  37.664   5.782
 4731POPC   GL261694  17.899  37.487   5.911
 4731POPC   C1A61695  17.371  37.764   6.168
 4731POPC   D2A61696  17.194  37.728   6.614
 4731POPC   C3A61697  17.438  37.830   6.962
 4731POPC   C4A61698  17.818  37.781   7.231
 4731POPC   C1B61699  17.737  37.455   6.353
 4731POPC   C2B61700  17.586  37.379   6.788
 4731POPC   C3B61701  17.479  37.395   7.234
 4731POPC   C4B61702  17.363  37.062   7.508
 4732POPC   NC361703  26.293  38.411   5.398
 4732POPC   PO461704  25.643  38.367   5.427
 4732POPC   GL161705  25.956  38.448   5.774
 4732POPC   GL261706  26.157  38.772   5.743
 4732POPC   C1A61707  26.008  38.307   6.175
 4732POPC   D2A61708  25.911  38.102   6.570
 4732POPC   C3A61709  25.936  38.316   6.927
 4732POPC   C4A61710  25.884  38.173   7.340
 4732POPC   C1B61711  26.319  38.722   6.150
 4732POPC   C2B61712  26.119  38.655   6.547
 4732POPC   C3B61713  26.266  38.773   6.942
 4732POPC   C4B61714  26.118  38.615   7.305
 4733POPC   NC361715   1.809  44.158   5.213
 4733POPC   PO461716   1.926  43.760   5.707
 4733POPC   GL161717   2.049  44.098   5.880
 4733POPC   GL261718   1.731  44.227   5.828
 4733POPC   C1A61719   2.257  44.130   6.249
 4733POPC   D2A61720   2.103  44.107   6.659
 4733POPC   C3A61721   2.293  43.943   7.046
 4733POPC   C4A61722   2.102  43.990   7.455
 4733POPC   C1B61723   1.705  44.101   6.278
 4733POPC   C2B61724   1.758  43.740   6.531
 4733POPC   C3B61725   1.861  43.707   6.942
 4733POPC   C4B61726   1.653  43.914   7.239
 4734POPC   NC361727  18.678  30.997   5.311
 4734POPC   PO461728  18.182  30.507   5.368
 4734POPC   GL161729  18.015  30.695   5.748
 4734POPC   GL261730  18.201  31.003   5.806
 4734POPC   C1A61731  18.188  30.655   6.187
 4734POPC   D2A61732  18.258  30.859   6.573
 4734POPC   C3A61733  18.136  30.602   6.898
 4734POPC   C4A61734  18.334  30.521   7.266
 4734POPC   C1B61735  18.601  30.985   6.118
 4734POPC   C2B61736  18.700  31.117   6.577
 4734POPC   C3B61737  18.570  30.922   6.989
 4734POPC   C4B61738  18.538  31.069   7.413
 4735POPC   NC361739   9.195  16.447   5.562
 4735POPC   PO461740   9.055  17.004   5.210
 4735POPC   GL161741   9.001  16.921   5.726
 4735POPC   GL261742   9.256  16.740   5.983
 4735POPC   C1A61743   8.797  16.827   6.147
 4735POPC   D2A61744   8.806  16.645   6.548
 4735POPC   C3A61745   8.774  16.887   6.892
 4735POPC   C4A61746   9.034  16.885   7.239
 4735POPC   C1B61747   9.326  16.320   6.196
 4735POPC   C2B61748   9.066  16.185   6.555
 4735POPC   C3B61749   8.982  16.404   6.955
 4735POPC   C4B61750   9.068  16.395   7.399
 4736POPC   NC361751  40.753  38.359   5.247
 4736POPC   PO461752  41.099  38.726   5.737
 4736POPC   GL161753  40.666  38.624   5.763
 4736POPC   GL261754  40.520  38.954   5.764
 4736POPC   C1A61755  40.535  38.413   6.168
 4736POPC   D2A61756  40.751  38.253   6.571
 4736POPC   C3A61757  41.007  38.472   6.863
 4736POPC   C4A61758  41.064  38.423   7.302
 4736POPC   C1B61759  40.515  38.928   6.226
 4736POPC   C2B61760  40.428  38.677   6.601
 4736POPC   C3B61761  40.571  38.685   7.006
 4736POPC   C4B61762  40.565  38.561   7.399
 4737POPC   NC361763  10.205  10.796   5.568
 4737POPC   PO461764  10.601  10.233   5.532
 4737POPC   GL161765  10.614  10.573   5.812
 4737POPC   GL261766  10.924  10.716   5.833
 4737POPC   C1A61767  10.696  10.531   6.264
 4737POPC   D2A61768  10.635  10.264   6.641
 4737POPC   C3A61769  10.420  10.484   6.992
 4737POPC   C4A61770  10.411  10.302   7.392
 4737POPC   C1B61771  10.780  11.040   6.125
 4737POPC   C2B61772  10.832  11.114   6.583
 4737POPC   C3B61773  10.760  10.916   7.012
 4737POPC   C4B61774  10.897  10.461   7.168
 4738POPC   NC361775  15.893   5.371   5.462
 4738POPC   PO461776  16.277   4.830   5.454
 4738POPC   GL161777  15.969   4.970   5.792
 4738POPC   GL261778  16.082   5.264   5.967
 4738POPC   C1A61779  15.731   5.073   6.246
 4738POPC   D2A61780  15.982   5.044   6.651
 4738POPC   C3A61781  15.835   5.297   6.971
 4738POPC   C4A61782  15.818   5.339   7.406
 4738POPC   C1B61783  16.183   4.836   6.214
 4738POPC   C2B61784  16.279   4.597   6.575
 4738POPC   C3B61785  16.271   4.684   6.998
 4738POPC   C4B61786  16.285   5.073   7.172
 4739POPC   NC361787  34.835  24.662   5.497
 4739POPC   PO461788  34.220  24.744   5.330
 4739POPC   GL161789  34.237  24.639   5.781
 4739POPC   GL261790  34.382  24.322   5.882
 4739POPC   C1A61791  34.350  24.723   6.231
 4739POPC   D2A61792  34.558  24.544   6.583
 4739POPC   C3A61793  34.390  24.660   6.990
 4739POPC   C4A61794  34.498  24.616   7.429
 4739POPC   C1B61795  34.690  24.189   6.205
 4739POPC   C2B61796  34.869  24.023   6.605
 4739POPC   C3B61797  34.683  24.229   6.967
 4739POPC   C4B61798  34.458  24.133   7.346
 4740POPC   NC361799  21.900  43.220   5.537
 4740POPC   PO461800  22.441  42.888   5.551
 4740POPC   GL161801  22.206  42.950   5.883
 4740POPC   GL261802  21.896  42.748   5.800
 4740POPC   C1A61803  22.342  42.999   6.308
 4740POPC   D2A61804  22.365  42.862   6.737
 4740POPC   C3A61805  22.230  43.185   7.042
 4740POPC   C4A61806  22.036  43.517   7.236
 4740POPC   C1B61807  21.800  42.990   6.191
 4740POPC   C2B61808  21.903  43.092   6.612
 4740POPC   C3B61809  21.882  42.843   6.984
 4740POPC   C4B61810  21.894  42.723   7.393
 4741POPC   NC361811  30.897  17.017   5.433
 4741POPC   PO461812  30.759  16.413   5.338
 4741POPC   GL161813  30.794  16.632   5.742
 4741POPC   GL261814  30.510  16.881   5.745
 4741POPC   C1A61815  30.886  16.854   6.120
 4741POPC   D2A61816  30.699  16.916   6.516
 4741POPC   C3A61817  30.933  17.021   6.871
 4741POPC   C4A61818  31.178  16.768   7.131
 4741POPC   C1B61819  30.390  17.090   6.128
 4741POPC   C2B61820  30.188  16.952   6.523
 4741POPC   C3B61821  30.376  16.883   6.917
 4741POPC   C4B61822  30.682  16.669   7.202
 4742POPC   NC361823  40.520  21.463   5.444
 4742POPC   PO461824  41.126  21.713   5.587
 4742POPC   GL161825  40.891  21.518   5.885
 4742POPC   GL261826  40.599  21.716   5.894
 4742POPC   C1A61827  40.782  21.473   6.320
 4742POPC   D2A61828  40.784  21.281   6.724
 4742POPC   C3A61829  41.006  21.378   7.107
 4742POPC   C4A61830  40.791  21.355   7.525
 4742POPC   C1B61831  40.550  21.968   6.255
 4742POPC   C2B61832  40.575  21.790   6.700
 4742POPC   C3B61833  40.553  21.656   7.156
 4742POPC   C4B61834  40.555  21.800   7.613
 4743POPC   NC361835  42.194   0.699   5.440
 4743POPC   PO461836  41.828   0.089   5.454
 4743POPC   GL161837  42.190   0.240   5.750
 4743POPC   GL261838  42.410   0.563   5.867
 4743POPC   C1A61839  42.375   0.116   6.144
 4743POPC   D2A61840  42.175   0.198   6.533
 4743POPC   C3A61841  42.380   0.117   6.881
 4743POPC   C4A61842  42.521   0.268   7.257
 4743POPC   C1B61843  42.105   0.555   6.151
 4743POPC   C2B61844  41.974   0.657   6.560
 4743POPC   C3B61845  42.246   0.622   6.944
 4743POPC   C4B61846  42.406   0.759   7.356
 4744POPC   NC361847  39.650   0.405   5.364
 4744POPC   PO461848  39.093   0.683   5.348
 4744POPC   GL161849  39.195   0.489   5.784
 4744POPC   GL261850  39.203   0.125   5.796
 4744POPC   C1A61851  39.398   0.342   6.206
 4744POPC   D2A61852  39.502   0.070   6.566
 4744POPC   C3A61853  39.432   0.206   7.019
 4744POPC   C4A61854  39.441   0.506   7.372
 4744POPC   C1B61855  38.945   0.146   6.177
 4744POPC   C2B61856  39.001   0.305   6.605
 4744POPC   C3B61857  38.924   0.305   7.041
 4744POPC   C4B61858  38.844  44.881   7.127
 4745POPC   NC361859  27.284   4.932   5.325
 4745POPC   PO461860  27.993   4.971   5.398
 4745POPC   GL161861  27.745   5.045   5.772
 4745POPC   GL261862  28.010   4.962   5.994
 4745POPC   C1A61863  27.622   5.213   6.204
 4745POPC   D2A61864  27.833   5.223   6.611
 4745POPC   C3A61865  27.623   5.177   6.993
 4745POPC   C4A61866  27.413   5.442   7.298
 4745POPC   C1B61867  27.893   4.772   6.362
 4745POPC   C2B61868  27.949   4.736   6.804
 4745POPC   C3B61869  28.007   4.830   7.193
 4745POPC   C4B61870  27.895   5.191   7.416
 4746POPC   NC361871  36.238   2.583   5.482
 4746POPC   PO461872  35.991   3.061   5.169
 4746POPC   GL161873  35.887   2.868   5.687
 4746POPC   GL261874  36.061   2.580   5.940
 4746POPC   C1A61875  35.924   2.991   6.171
 4746POPC   D2A61876  36.145   2.872   6.514
 4746POPC   C3A61877  35.890   2.653   6.740
 4746POPC   C4A61878  35.841   2.760   7.142
 4746POPC   C1B61879  36.445   2.566   6.223
 4746POPC   C2B61880  36.397   2.444   6.696
 4746POPC   C3B61881  36.356   2.653   7.127
 4746POPC   C4B61882  36.323   2.495   7.576
 4747POPC   NC361883   0.137  28.706   5.360
 4747POPC   PO461884   0.445  29.333   5.239
 4747POPC   GL161885   0.470  29.087   5.601
 4747POPC   GL261886   0.718  29.276   5.770
 4747POPC   C1A61887   0.251  29.010   5.989
 4747POPC   D2A61888   0.201  28.930   6.451
 4747POPC   C3A61889   0.363  29.212   6.764
 4747POPC   C4A61890   0.231  29.057   7.139
 4747POPC   C1B61891   0.729  29.113   6.215
 4747POPC   C2B61892   0.713  28.850   6.603
 4747POPC   C3B61893   0.709  28.919   7.033
 4747POPC   C4B61894   0.744  29.193   7.348
 4748POPC   NC361895   4.882  36.580   5.299
 4748POPC   PO461896   5.154  37.154   5.150
 4748POPC   GL161897   5.010  36.990   5.629
 4748POPC   GL261898   4.831  36.709   5.786
 4748POPC   C1A61899   5.064  37.035   6.110
 4748POPC   D2A61900   5.268  36.909   6.514
 4748POPC   C3A61901   5.084  36.911   6.944
 4748POPC   C4A61902   5.267  37.012   7.363
 4748POPC   C1B61903   4.774  36.601   6.213
 4748POPC   C2B61904   4.974  36.490   6.581
 4748POPC   C3B61905   5.105  36.354   6.966
 4748POPC   C4B61906   4.997  36.570   7.339
 4749POPC   NC361907  15.960   2.787   5.357
 4749POPC   PO461908  16.431   3.203   5.647
 4749POPC   GL161909  16.217   3.012   5.969
 4749POPC   GL261910  16.129   2.691   5.841
 4749POPC   C1A61911  16.102   2.967   6.397
 4749POPC   D2A61912  16.293   2.762   6.771
 4749POPC   C3A61913  15.999   2.780   7.126
 4749POPC   C4A61914  15.971   2.465   7.468
 4749POPC   C1B61915  16.183   2.487   6.246
 4749POPC   C2B61916  15.881   2.518   6.592
 4749POPC   C3B61917  15.600   2.491   6.918
 4749POPC   C4B61918  15.518   2.627   7.301
 4750POPC   NC361919  15.019   3.028   5.564
 4750POPC   PO461920  15.555   2.676   5.560
 4750POPC   GL161921  15.672   2.998   5.927
 4750POPC   GL261922  15.485   3.320   5.839
 4750POPC   C1A61923  15.568   2.998   6.414
 4750POPC   D2A61924  15.233   2.695   6.614
 4750POPC   C3A61925  15.086   2.563   7.057
 4750POPC   C4A61926  15.157   2.269   7.435
 4750POPC   C1B61927  15.179   3.315   6.179
 4750POPC   C2B61928  15.135   3.203   6.641
 4750POPC   C3B61929  15.356   3.012   7.002
 4750POPC   C4B61930  15.241   3.013   7.465
 4751POPC   NC361931  32.178  20.740   5.456
 4751POPC   PO461932  32.242  21.376   5.172
 4751POPC   GL161933  32.245  21.240   5.612
 4751POPC   GL261934  32.558  21.268   5.819
 4751POPC   C1A61935  32.082  21.160   6.034
 4751POPC   D2A61936  32.177  20.936   6.426
 4751POPC   C3A61937  32.351  21.203   6.784
 4751POPC   C4A61938  32.392  21.222   7.233
 4751POPC   C1B61939  32.562  21.285   6.310
 4751POPC   C2B61940  32.768  21.538   6.688
 4751POPC   C3B61941  32.729  21.590   7.148
 4751POPC   C4B61942  32.639  21.786   7.569
 4752POPC   NC361943   4.913  33.365   5.452
 4752POPC   PO461944   5.442  32.928   5.499
 4752POPC   GL161945   5.413  33.149   5.845
 4752POPC   GL261946   5.045  33.135   5.913
 4752POPC   C1A61947   5.396  33.025   6.276
 4752POPC   D2A61948   5.062  32.967   6.527
 4752POPC   C3A61949   5.090  33.159   6.887
 4752POPC   C4A61950   4.992  32.944   7.258
 4752POPC   C1B61951   4.907  33.372   6.276
 4752POPC   C2B61952   4.626  33.268   6.652
 4752POPC   C3B61953   4.661  33.315   7.123
 4752POPC   C4B61954   4.817  33.295   7.579
 4753POPC   NC361955  27.227  43.811   5.200
 4753POPC   PO461956  26.661  43.989   5.444
 4753POPC   GL161957  26.624  43.989   5.859
 4753POPC   GL261958  26.917  43.799   5.907
 4753POPC   C1A61959  26.548  43.944   6.268
 4753POPC   D2A61960  26.785  44.250   6.517
 4753POPC   C3A61961  26.946  44.178   6.950
 4753POPC   C4A61962  26.731  44.185   7.328
 4753POPC   C1B61963  27.034  43.829   6.355
 4753POPC   C2B61964  26.722  43.746   6.701
 4753POPC   C3B61965  26.682  43.716   7.132
 4753POPC   C4B61966  27.037  43.608   7.362
 4754POPC   NC361967   9.030   7.102   5.096
 4754POPC   PO461968   9.100   6.634   5.579
 4754POPC   GL161969   9.083   6.590   5.979
 4754POPC   GL261970   9.053   6.937   6.070
 4754POPC   C1A61971   8.920   6.276   6.268
 4754POPC   D2A61972   8.714   6.367   6.655
 4754POPC   C3A61973   8.905   6.627   6.993
 4754POPC   C4A61974   9.069   6.846   7.359
 4754POPC   C1B61975   9.121   6.718   6.482
 4754POPC   C2B61976   9.211   6.351   6.688
 4754POPC   C3B61977   9.095   6.161   7.063
 4754POPC   C4B61978   9.039   6.340   7.481
 4755POPC   NC361979  34.809  32.814   5.074
 4755POPC   PO461980  34.332  33.236   5.203
 4755POPC   GL161981  34.390  33.007   5.627
 4755POPC   GL261982  34.695  32.797   5.603
 4755POPC   C1A61983  34.502  33.114   6.073
 4755POPC   D2A61984  34.508  33.048   6.536
 4755POPC   C3A61985  34.790  33.262   6.830
 4755POPC   C4A61986  34.716  33.114   7.223
 4755POPC   C1B61987  34.561  32.602   6.014
 4755POPC   C2B61988  34.575  32.481   6.473
 4755POPC   C3B61989  34.522  32.628   6.934
 4755POPC   C4B61990  34.280  32.859   7.252
 4756POPC   NC361991   3.826  10.389   5.488
 4756POPC   PO461992   3.221  10.285   5.504
 4756POPC   GL161993   3.443  10.453   5.860
 4756POPC   GL261994   3.585  10.770   5.797
 4756POPC   C1A61995   3.512  10.542   6.311
 4756POPC   D2A61996   3.747  10.502   6.700
 4756POPC   C3A61997   3.453  10.516   7.055
 4756POPC   C4A61998   3.214  10.874   7.261
 4756POPC   C1B61999   3.491  11.025   6.204
 4756POPC   C2B62000   3.409  10.924   6.667
 4756POPC   C3B62001   3.709  10.941   7.012
 4756POPC   C4B62002   3.687  10.833   7.466
 4757POPC   NC362003  13.381  25.857   5.173
 4757POPC   PO462004  13.837  26.161   5.611
 4757POPC   GL162005  13.614  25.853   5.807
 4757POPC   GL262006  13.284  25.707   5.665
 4757POPC   C1A62007  13.727  25.772   6.256
 4757POPC   D2A62008  13.591  26.119   6.529
 4757POPC   C3A62009  13.775  26.147   6.918
 4757POPC   C4A62010  13.558  26.204   7.294
 4757POPC   C1B62011  13.236  25.786   6.128
 4757POPC   C2B62012  13.289  25.693   6.556
 4757POPC   C3B62013  13.310  25.905   6.946
 4757POPC   C4B62014  13.192  25.841   7.373
 4758POPC   NC362015  41.001  42.473   5.291
 4758POPC   PO462016  41.208  42.761   5.758
 4758POPC   GL162017  40.805  42.526   5.762
 4758POPC   GL262018  40.788  42.162   5.718
 4758POPC   C1A62019  40.570  42.563   6.110
 4758POPC   D2A62020  40.840  42.676   6.451
 4758POPC   C3A62021  40.837  42.450   6.831
 4758POPC   C4A62022  40.563  42.421   7.188
 4758POPC   C1B62023  40.718  42.067   6.173
 4758POPC   C2B62024  40.751  41.921   6.616
 4758POPC   C3B62025  40.798  41.984   7.054
 4758POPC   C4B62026  41.126  41.835   7.263
 4759POPC   NC362027  34.901   8.982   5.615
 4759POPC   PO462028  34.480   9.310   5.173
 4759POPC   GL162029  34.468   9.262   5.678
 4759POPC   GL262030  34.384   8.908   5.750
 4759POPC   C1A62031  34.628   9.302   6.168
 4759POPC   D2A62032  34.804   9.148   6.620
 4759POPC   C3A62033  34.649   9.194   7.088
 4759POPC   C4A62034  34.802   9.186   7.559
 4759POPC   C1B62035  34.526   8.790   6.171
 4759POPC   C2B62036  34.521   8.603   6.589
 4759POPC   C3B62037  34.711   8.685   6.981
 4759POPC   C4B62038  34.533   8.782   7.415
 4760POPC   NC362039  38.498  12.592   5.316
 4760POPC   PO462040  38.135  13.107   5.369
 4760POPC   GL162041  38.280  12.990   5.748
 4760POPC   GL262042  38.264  12.641   5.811
 4760POPC   C1A62043  38.354  13.075   6.162
 4760POPC   D2A62044  38.308  12.892   6.556
 4760POPC   C3A62045  38.170  12.725   6.941
 4760POPC   C4A62046  38.384  12.993   7.233
 4760POPC   C1B62047  38.677  12.693   6.012
 4760POPC   C2B62048  38.784  12.725   6.446
 4760POPC   C3B62049  38.699  12.766   6.897
 4760POPC   C4B62050  38.556  12.499   7.273
 4761POPC   NC362051  34.596  16.499   4.654
 4761POPC   PO462052  34.739  16.514   5.389
 4761POPC   GL162053  34.636  16.786   5.806
 4761POPC   GL262054  34.793  17.128   5.855
 4761POPC   C1A62055  34.540  16.920   6.278
 4761POPC   D2A62056  34.812  16.705   6.594
 4761POPC   C3A62057  34.705  16.579   7.012
 4761POPC   C4A62058  34.392  16.486   7.307
 4761POPC   C1B62059  35.018  17.144   6.291
 4761POPC   C2B62060  34.882  17.183   6.750
 4761POPC   C3B62061  34.495  17.028   6.918
 4761POPC   C4B62062  34.385  17.027   7.338
 4762POPC   NC362063  36.111  33.992   5.388
 4762POPC   PO462064  36.252  33.338   5.530
 4762POPC   GL162065  36.197  33.714   5.807
 4762POPC   GL262066  36.492  33.951   5.779
 4762POPC   C1A62067  36.059  34.081   6.069
 4762POPC   D2A62068  35.928  34.276   6.455
 4762POPC   C3A62069  35.824  34.019   6.799
 4762POPC   C4A62070  35.736  34.114   7.224
 4762POPC   C1B62071  36.494  33.815   6.234
 4762POPC   C2B62072  36.451  34.083   6.633
 4762POPC   C3B62073  36.261  34.008   7.059
 4762POPC   C4B62074  35.974  33.646   7.178
 4763POPC   NC362075  21.905  22.605   5.516
 4763POPC   PO462076  21.230  22.627   5.361
 4763POPC   GL162077  21.408  22.754   5.794
 4763POPC   GL262078  21.364  23.126   5.859
 4763POPC   C1A62079  21.257  22.835   6.265
 4763POPC   D2A62080  21.355  23.127   6.609
 4763POPC   C3A62081  21.438  22.928   7.023
 4763POPC   C4A62082  21.204  22.639   7.239
 4763POPC   C1B62083  21.037  23.296   6.174
 4763POPC   C2B62084  20.888  23.328   6.641
 4763POPC   C3B62085  21.148  23.350   7.049
 4763POPC   C4B62086  21.346  23.657   7.347
 4764POPC   NC362087   5.995   3.856   5.414
 4764POPC   PO462088   5.689   3.178   5.292
 4764POPC   GL162089   5.869   3.396   5.691
 4764POPC   GL262090   5.635   3.660   5.783
 4764POPC   C1A62091   6.126   3.541   6.100
 4764POPC   D2A62092   6.138   3.860   6.480
 4764POPC   C3A62093   6.090   3.698   6.929
 4764POPC   C4A62094   6.225   3.287   7.148
 4764POPC   C1B62095   5.664   3.734   6.238
 4764POPC   C2B62096   5.820   3.449   6.563
 4764POPC   C3B62097   5.735   3.322   7.001
 4764POPC   C4B62098   5.586   3.661   7.304
 4765POPC   NC362099   8.383  28.249   5.385
 4765POPC   PO462100   7.835  28.660   5.491
 4765POPC   GL162101   7.902  28.419   5.861
 4765POPC   GL262102   8.162  28.195   5.841
 4765POPC   C1A62103   7.781  28.353   6.320
 4765POPC   D2A62104   7.667  28.351   6.770
 4765POPC   C3A62105   7.947  28.408   7.130
 4765POPC   C4A62106   7.941  28.407   7.597
 4765POPC   C1B62107   8.274  28.349   6.229
 4765POPC   C2B62108   8.192  28.283   6.675
 4765POPC   C3B62109   8.404  28.207   7.046
 4765POPC   C4B62110   8.637  28.004   7.343
 4766POPC   NC362111  28.886  30.676   5.360
 4766POPC   PO462112  29.562  30.510   5.473
 4766POPC   GL162113  29.204  30.484   5.733
 4766POPC   GL262114  29.159  30.834   5.783
 4766POPC   C1A62115  29.220  30.558   6.192
 4766POPC   D2A62116  29.459  30.488   6.525
 4766POPC   C3A62117  29.208  30.323   6.844
 4766POPC   C4A62118  29.248  30.403   7.264
 4766POPC   C1B62119  29.107  31.069   6.172
 4766POPC   C2B62120  29.086  30.869   6.595
 4766POPC   C3B62121  28.983  30.786   7.020
 4766POPC   C4B62122  29.153  30.987   7.414
 4767POPC   NC362123  29.658  41.364   5.245
 4767POPC   PO462124  30.210  41.627   5.372
 4767POPC   GL162125  29.828  41.580   5.680
 4767POPC   GL262126  29.686  41.248   5.741
 4767POPC   C1A62127  29.641  41.636   6.107
 4767POPC   D2A62128  29.833  41.503   6.491
 4767POPC   C3A62129  29.812  41.652   6.890
 4767POPC   C4A62130  29.754  41.815   7.274
 4767POPC   C1B62131  30.009  41.237   6.068
 4767POPC   C2B62132  30.062  41.054   6.480
 4767POPC   C3B62133  29.838  41.109   6.856
 4767POPC   C4B62134  29.858  41.300   7.263
 4768POPC   NC362135   9.315  12.079   5.383
 4768POPC   PO462136   8.682  12.209   5.300
 4768POPC   GL162137   8.892  12.083   5.694
 4768POPC   GL262138   9.123  12.368   5.792
 4768POPC   C1A62139   8.805  11.874   6.095
 4768POPC   D2A62140   8.969  11.598   6.409
 4768POPC   C3A62141   8.915  11.765   6.824
 4768POPC   C4A62142   9.004  11.915   7.229
 4768POPC   C1B62143   8.984  12.321   6.241
 4768POPC   C2B62144   8.855  12.257   6.675
 4768POPC   C3B62145   9.146  12.335   6.967
 4768POPC   C4B62146   9.113  12.561   7.352
 4769POPC   NC362147  20.934  42.869   5.481
 4769POPC   PO462148  21.553  43.022   5.261
 4769POPC   GL162149  21.478  43.070   5.751
 4769POPC   GL262150  21.180  43.162   5.802
 4769POPC   C1A62151  21.486  43.401   6.134
 4769POPC   D2A62152  21.351  43.291   6.567
 4769POPC   C3A62153  21.557  43.255   6.953
 4769POPC   C4A62154  21.695  43.165   7.355
 4769POPC   C1B62155  21.251  42.948   6.211
 4769POPC   C2B62156  20.951  42.906   6.525
 4769POPC   C3B62157  21.083  43.003   6.909
 4769POPC   C4B62158  21.207  42.990   7.323
 4770POPC   NC362159  31.173  39.354   5.263
 4770POPC   PO462160  31.808  39.161   5.209
 4770POPC   GL162161  31.676  39.328   5.637
 4770POPC   GL262162  31.300  39.301   5.751
 4770POPC   C1A62163  31.733  39.212   6.101
 4770POPC   D2A62164  31.772  39.003   6.530
 4770POPC   C3A62165  31.630  39.294   6.858
 4770POPC   C4A62166  31.315  39.447   7.106
 4770POPC   C1B62167  31.184  38.972   6.060
 4770POPC   C2B62168  31.236  38.933   6.537
 4770POPC   C3B62169  31.134  38.980   6.987
 4770POPC   C4B62170  31.221  39.083   7.437
 4771POPC   NC362171   2.462  17.606   5.479
 4771POPC   PO462172   2.933  17.200   5.238
 4771POPC   GL162173   2.864  17.287   5.672
 4771POPC   GL262174   2.968  17.648   5.726
 4771POPC   C1A62175   3.057  17.266   6.081
 4771POPC   D2A62176   2.832  17.316   6.441
 4771POPC   C3A62177   3.021  17.397   6.795
 4771POPC   C4A62178   2.915  17.323   7.194
 4771POPC   C1B62179   2.787  17.758   6.151
 4771POPC   C2B62180   2.790  17.827   6.612
 4771POPC   C3B62181   2.815  17.829   7.077
 4771POPC   C4B62182   3.058  17.730   7.466
 4772POPC   NC362183   1.659  37.147   5.405
 4772POPC   PO462184   1.225  36.610   5.377
 4772POPC   GL162185   1.095  36.780   5.748
 4772POPC   GL262186   1.344  36.984   5.780
 4772POPC   C1A62187   1.044  36.955   6.187
 4772POPC   D2A62188   1.303  37.066   6.545
 4772POPC   C3A62189   1.158  36.840   6.908
 4772POPC   C4A62190   0.842  36.815   7.267
 4772POPC   C1B62191   1.406  36.628   6.127
 4772POPC   C2B62192   1.545  36.623   6.550
 4772POPC   C3B62193   1.587  36.492   6.954
 4772POPC   C4B62194   1.317  36.573   7.312
 4773POPC   NC362195  36.477  37.319   5.423
 4773POPC   PO462196  36.197  37.966   5.368
 4773POPC   GL162197  36.183  37.647   5.737
 4773POPC   GL262198  36.527  37.648   5.809
 4773POPC   C1A62199  36.012  37.479   6.167
 4773POPC   D2A62200  35.751  37.569   6.550
 4773POPC   C3A62201  35.934  37.643   6.960
 4773POPC   C4A62202  36.172  37.401   7.248
 4773POPC   C1B62203  36.530  37.504   6.208
 4773POPC   C2B62204  36.360  37.607   6.607
 4773POPC   C3B62205  36.583  37.532   7.001
 4773POPC   C4B62206  36.467  37.818   7.310
 4774POPC   NC362207  37.491  29.802   5.344
 4774POPC   PO462208  38.124  29.886   5.605
 4774POPC   GL162209  37.705  29.894   5.874
 4774POPC   GL262210  37.342  29.984   5.792
 4774POPC   C1A62211  37.645  29.868   6.344
 4774POPC   D2A62212  37.800  30.149   6.702
 4774POPC   C3A62213  37.786  29.970   7.126
 4774POPC   C4A62214  37.670  30.151   7.536
 4774POPC   C1B62215  37.207  29.689   6.101
 4774POPC   C2B62216  37.144  29.777   6.532
 4774POPC   C3B62217  37.199  29.603   6.959
 4774POPC   C4B62218  37.547  29.521   7.258
 4775POPC   NC362219   5.299  27.812   5.391
 4775POPC   PO462220   4.680  27.568   5.482
 4775POPC   GL162221   4.911  27.770   5.847
 4775POPC   GL262222   5.272  27.779   5.898
 4775POPC   C1A62223   4.902  27.833   6.317
 4775POPC   D2A62224   4.777  27.829   6.793
 4775POPC   C3A62225   4.964  27.463   7.056
 4775POPC   C4A62226   4.967  27.394   7.527
 4775POPC   C1B62227   5.431  27.872   6.302
 4775POPC   C2B62228   5.255  27.727   6.681
 4775POPC   C3B62229   5.213  27.897   7.095
 4775POPC   C4B62230   5.369  27.716   7.449
 4776POPC   NC362231  34.682  13.124   5.416
 4776POPC   PO462232  34.234  12.587   5.547
 4776POPC   GL162233  34.514  12.840   5.851
 4776POPC   GL262234  34.500  13.212   5.890
 4776POPC   C1A62235  34.560  12.875   6.309
 4776POPC   D2A62236  34.334  12.641   6.615
 4776POPC   C3A62237  34.485  12.774   6.997
 4776POPC   C4A62238  34.776  12.758   7.317
 4776POPC   C1B62239  34.918  13.170   6.099
 4776POPC   C2B62240  35.037  13.036   6.508
 4776POPC   C3B62241  34.878  13.098   6.933
 4776POPC   C4B62242  34.806  13.259   7.359
 4777POPC   NC362243  13.077   5.895   5.400
 4777POPC   PO462244  12.420   5.765   5.497
 4777POPC   GL162245  12.627   5.821   5.833
 4777POPC   GL262246  12.866   6.040   5.833
 4777POPC   C1A62247  12.588   5.964   6.246
 4777POPC   D2A62248  12.633   5.727   6.576
 4777POPC   C3A62249  12.729   5.874   6.924
 4777POPC   C4A62250  12.703   5.596   7.258
 4777POPC   C1B62251  13.072   5.781   6.154
 4777POPC   C2B62252  13.149   5.761   6.586
 4777POPC   C3B62253  13.120   5.541   6.965
 4777POPC   C4B62254  13.138   5.864   7.278
 4778POPC   NC362255  28.507  32.146   5.328
 4778POPC   PO462256  28.099  31.854   5.744
 4778POPC   GL162257  28.487  31.970   5.878
 4778POPC   GL262258  28.451  32.333   5.890
 4778POPC   C1A62259  28.487  32.007   6.327
 4778POPC   D2A62260  28.133  32.017   6.631
 4778POPC   C3A62261  28.294  32.038   7.031
 4778POPC   C4A62262  28.727  31.994   7.191
 4778POPC   C1B62263  28.051  32.315   6.207
 4778POPC   C2B62264  27.853  32.470   6.627
 4778POPC   C3B62265  28.047  32.489   7.062
 4778POPC   C4B62266  28.517  32.454   7.226
 4779POPC   NC362267  33.165  20.591   5.394
 4779POPC   PO462268  32.594  20.954   5.371
 4779POPC   GL162269  32.865  20.757   5.736
 4779POPC   GL262270  32.894  20.402   5.793
 4779POPC   C1A62271  33.214  20.654   6.093
 4779POPC   D2A62272  33.095  20.613   6.542
 4779POPC   C3A62273  33.300  20.472   6.912
 4779POPC   C4A62274  33.185  20.599   7.338
 4779POPC   C1B62275  32.941  20.250   6.219
 4779POPC   C2B62276  32.697  20.264   6.628
 4779POPC   C3B62277  32.766  20.321   7.095
 4779POPC   C4B62278  33.072  20.110   7.359
 4780POPC   NC362279  27.757  28.039   5.358
 4780POPC   PO462280  27.518  27.293   5.445
 4780POPC   GL162281  27.491  27.507   5.848
 4780POPC   GL262282  27.252  27.796   5.862
 4780POPC   C1A62283  27.651  27.492   6.264
 4780POPC   D2A62284  28.031  27.517   6.556
 4780POPC   C3A62285  27.881  27.584   6.975
 4780POPC   C4A62286  27.539  27.430   7.216
 4780POPC   C1B62287  27.082  27.637   6.258
 4780POPC   C2B62288  27.087  27.757   6.706
 4780POPC   C3B62289  27.326  27.889   7.087
 4780POPC   C4B62290  27.384  27.804   7.548
 4781POPC   NC362291  11.100  40.147   5.387
 4781POPC   PO462292  11.634  39.867   5.534
 4781POPC   GL162293  11.372  39.919   5.862
 4781POPC   GL262294  11.292  40.241   5.847
 4781POPC   C1A62295  11.330  39.922   6.305
 4781POPC   D2A62296  11.566  39.894   6.691
 4781POPC   C3A62297  11.377  39.725   7.081
 4781POPC   C4A62298  11.288  39.708   7.548
 4781POPC   C1B62299  11.347  40.434   6.233
 4781POPC   C2B62300  11.274  40.314   6.659
 4781POPC   C3B62301  11.406  40.268   7.081
 4781POPC   C4B62302  11.446  40.195   7.529
 4782POPC   NC362303  30.906  13.624   5.378
 4782POPC   PO462304  30.415  13.263   5.690
 4782POPC   GL162305  30.654  13.627   5.805
 4782POPC   GL262306  31.025  13.509   5.847
 4782POPC   C1A62307  30.651  13.791   6.185
 4782POPC   D2A62308  30.537  13.593   6.571
 4782POPC   C3A62309  30.577  13.838   6.941
 4782POPC   C4A62310  30.486  13.646   7.317
 4782POPC   C1B62311  31.096  13.440   6.277
 4782POPC   C2B62312  31.018  13.392   6.684
 4782POPC   C3B62313  30.765  13.348   7.009
 4782POPC   C4B62314  30.967  13.483   7.371
 4783POPC   NC362315  16.321  34.885   5.491
 4783POPC   PO462316  16.152  34.179   5.386
 4783POPC   GL162317  16.141  34.446   5.769
 4783POPC   GL262318  15.969  34.755   5.847
 4783POPC   C1A62319  16.060  34.379   6.221
 4783POPC   D2A62320  16.133  34.572   6.639
 4783POPC   C3A62321  16.093  34.387   7.042
 4783POPC   C4A62322  15.904  34.618   7.390
 4783POPC   C1B62323  16.221  34.880   6.219
 4783POPC   C2B62324  16.383  35.008   6.675
 4783POPC   C3B62325  16.269  34.884   7.157
 4783POPC   C4B62326  16.320  34.809   7.652
 4784POPC   NC362327  26.302  31.607   5.458
 4784POPC   PO462328  25.784  31.125   5.425
 4784POPC   GL162329  26.002  31.284   5.779
 4784POPC   GL262330  25.761  31.569   5.782
 4784POPC   C1A62331  25.926  31.373   6.229
 4784POPC   D2A62332  26.122  31.413   6.617
 4784POPC   C3A62333  26.165  31.082   6.888
 4784POPC   C4A62334  26.280  31.221   7.302
 4784POPC   C1B62335  25.711  31.860   6.147
 4784POPC   C2B62336  25.862  32.033   6.557
 4784POPC   C3B62337  25.869  31.760   6.933
 4784POPC   C4B62338  25.817  31.363   7.145
 4785POPC   NC362339  15.662  12.589   5.453
 4785POPC   PO462340  16.263  12.924   5.391
 4785POPC   GL162341  16.051  13.090   5.765
 4785POPC   GL262342  15.956  12.771   5.821
 4785POPC   C1A62343  15.949  13.093   6.233
 4785POPC   D2A62344  15.721  12.801   6.541
 4785POPC   C3A62345  15.761  12.856   7.004
 4785POPC   C4A62346  16.069  13.091   7.254
 4785POPC   C1B62347  16.345  12.790   6.064
 4785POPC   C2B62348  16.385  12.762   6.497
 4785POPC   C3B62349  16.280  12.755   6.945
 4785POPC   C4B62350  16.275  12.567   7.373
 4786POPC   NC362351   5.869  14.018   5.270
 4786POPC   PO462352   5.850  14.693   5.409
 4786POPC   GL162353   5.965  14.491   5.786
 4786POPC   GL262354   5.869  14.131   5.779
 4786POPC   C1A62355   5.975  14.662   6.214
 4786POPC   D2A62356   5.896  14.708   6.661
 4786POPC   C3A62357   5.902  14.313   6.882
 4786POPC   C4A62358   5.989  14.439   7.286
 4786POPC   C1B62359   5.581  14.341   6.114
 4786POPC   C2B62360   5.455  14.426   6.561
 4786POPC   C3B62361   5.497  14.599   7.003
 4786POPC   C4B62362   5.500  14.461   7.419
 4787POPC   NC362363  26.726  41.120   5.320
 4787POPC   PO462364  26.930  40.503   5.485
 4787POPC   GL162365  26.612  40.673   5.713
 4787POPC   GL262366  26.804  40.961   5.811
 4787POPC   C1A62367  26.446  40.681   6.129
 4787POPC   D2A62368  26.500  40.524   6.553
 4787POPC   C3A62369  26.502  40.688   6.994
 4787POPC   C4A62370  26.691  40.798   7.414
 4787POPC   C1B62371  26.898  40.903   6.250
 4787POPC   C2B62372  26.862  40.889   6.688
 4787POPC   C3B62373  26.750  41.144   7.025
 4787POPC   C4B62374  27.094  41.066   7.280
 4788POPC   NC362375   5.212  15.702   5.218
 4788POPC   PO462376   5.056  15.055   5.378
 4788POPC   GL162377   5.117  15.270   5.736
 4788POPC   GL262378   5.122  14.949   5.901
 4788POPC   C1A62379   5.319  15.363   6.138
 4788POPC   D2A62380   5.152  15.270   6.530
 4788POPC   C3A62381   5.182  15.510   6.899
 4788POPC   C4A62382   5.040  15.466   7.321
 4788POPC   C1B62383   5.034  14.739   6.294
 4788POPC   C2B62384   5.112  14.791   6.720
 4788POPC   C3B62385   5.082  15.009   7.083
 4788POPC   C4B62386   5.154  14.842   7.475
 4789POPC   NC362387  11.668  18.983   4.851
 4789POPC   PO462388  12.114  19.047   5.407
 4789POPC   GL162389  11.841  19.117   5.781
 4789POPC   GL262390  11.719  19.475   5.861
 4789POPC   C1A62391  12.079  19.023   6.160
 4789POPC   D2A62392  12.273  18.654   6.378
 4789POPC   C3A62393  12.221  18.703   6.816
 4789POPC   C4A62394  12.358  18.942   7.201
 4789POPC   C1B62395  11.645  19.260   6.270
 4789POPC   C2B62396  11.777  19.150   6.707
 4789POPC   C3B62397  11.900  19.346   7.117
 4789POPC   C4B62398  11.665  19.531   7.480
 4790POPC   NC362399   6.619  36.977   5.304
 4790POPC   PO462400   6.026  36.670   5.217
 4790POPC   GL162401   6.337  36.683   5.627
 4790POPC   GL262402   6.459  37.043   5.770
 4790POPC   C1A62403   6.439  36.679   6.100
 4790POPC   D2A62404   6.334  36.824   6.510
 4790POPC   C3A62405   6.595  36.724   6.840
 4790POPC   C4A62406   6.718  36.801   7.252
 4790POPC   C1B62407   6.647  37.146   6.181
 4790POPC   C2B62408   6.932  36.986   6.504
 4790POPC   C3B62409   6.957  37.105   6.943
 4790POPC   C4B62410   6.584  37.281   7.185
 4791POPC   NC362411  32.137  31.774   5.382
 4791POPC   PO462412  32.356  32.407   5.342
 4791POPC   GL162413  32.347  32.311   5.780
 4791POPC   GL262414  32.678  32.298   5.917
 4791POPC   C1A62415  32.114  32.035   6.101
 4791POPC   D2A62416  31.953  32.029   6.536
 4791POPC   C3A62417  32.298  32.061   6.866
 4791POPC   C4A62418  32.292  32.180   7.315
 4791POPC   C1B62419  32.540  32.184   6.362
 4791POPC   C2B62420  32.665  32.411   6.739
 4791POPC   C3B62421  32.707  32.439   7.200
 4791POPC   C4B62422  32.575  32.472   7.666
 4792POPC   NC362423  24.685  13.428   5.226
 4792POPC   PO462424  24.207  13.813   5.430
 4792POPC   GL162425  24.223  13.917   5.880
 4792POPC   GL262426  24.521  13.705   5.896
 4792POPC   C1A62427  24.237  13.731   6.305
 4792POPC   D2A62428  24.496  13.558   6.595
 4792POPC   C3A62429  24.238  13.540   6.982
 4792POPC   C4A62430  24.207  13.872   7.274
 4792POPC   C1B62431  24.716  13.919   6.263
 4792POPC   C2B62432  24.926  13.856   6.641
 4792POPC   C3B62433  24.709  13.717   7.023
 4792POPC   C4B62434  24.735  13.853   7.421
 4793POPC   NC362435  10.661   7.210   5.483
 4793POPC   PO462436  10.206   7.767   5.431
 4793POPC   GL162437  10.225   7.474   5.783
 4793POPC   GL262438  10.558   7.376   5.954
 4793POPC   C1A62439  10.206   7.635   6.207
 4793POPC   D2A62440  10.516   7.646   6.552
 4793POPC   C3A62441  10.214   7.693   6.863
 4793POPC   C4A62442   9.969   7.517   7.213
 4793POPC   C1B62443  10.387   7.174   6.328
 4793POPC   C2B62444  10.353   7.201   6.784
 4793POPC   C3B62445  10.463   7.390   7.181
 4793POPC   C4B62446  10.282   7.139   7.510
 4794POPC   NC362447  19.751  16.597   5.350
 4794POPC   PO462448  20.452  16.700   5.348
 4794POPC   GL162449  20.206  16.780   5.792
 4794POPC   GL262450  19.855  16.698   5.844
 4794POPC   C1A62451  20.113  16.882   6.247
 4794POPC   D2A62452  19.919  16.655   6.602
 4794POPC   C3A62453  19.986  16.759   7.012
 4794POPC   C4A62454  19.968  16.530   7.382
 4794POPC   C1B62455  19.602  16.690   6.206
 4794POPC   C2B62456  19.468  16.945   6.537
 4794POPC   C3B62457  19.480  16.970   6.966
 4794POPC   C4B62458  19.697  16.942   7.425
 4795POPC   NC362459  11.473   7.114   5.468
 4795POPC   PO462460  10.979   7.518   5.676
 4795POPC   GL162461  11.308   7.335   5.927
 4795POPC   GL262462  11.564   7.532   5.755
 4795POPC   C1A62463  11.318   7.393   6.386
 4795POPC   D2A62464  10.999   7.414   6.731
 4795POPC   C3A62465  11.163   7.145   7.029
 4795POPC   C4A62466  11.515   7.008   7.164
 4795POPC   C1B62467  11.511   7.812   6.127
 4795POPC   C2B62468  11.560   7.874   6.578
 4795POPC   C3B62469  11.473   7.549   6.933
 4795POPC   C4B62470  11.076   7.588   7.252
 4796POPC   NC362471   2.097  35.551   5.226
 4796POPC   PO462472   1.700  35.032   5.448
 4796POPC   GL162473   1.976  35.215   5.738
 4796POPC   GL262474   1.937  35.519   5.865
 4796POPC   C1A62475   2.062  35.115   6.163
 4796POPC   D2A62476   2.192  35.241   6.567
 4796POPC   C3A62477   2.021  35.091   6.905
 4796POPC   C4A62478   2.136  35.041   7.302
 4796POPC   C1B62479   2.147  35.658   6.286
 4796POPC   C2B62480   2.353  35.710   6.712
 4796POPC   C3B62481   2.257  35.509   7.089
 4796POPC   C4B62482   2.066  35.548   7.525
 4797POPC   NC362483  41.131  29.194   5.198
 4797POPC   PO462484  40.774  28.774   5.579
 4797POPC   GL162485  40.721  29.144   5.818
 4797POPC   GL262486  41.039  29.221   5.734
 4797POPC   C1A62487  40.602  29.199   6.230
 4797POPC   D2A62488  40.698  28.985   6.598
 4797POPC   C3A62489  40.421  29.138   6.900
 4797POPC   C4A62490  40.457  29.037   7.299
 4797POPC   C1B62491  41.091  28.996   6.184
 4797POPC   C2B62492  41.214  29.017   6.661
 4797POPC   C3B62493  40.966  29.205   7.028
 4797POPC   C4B62494  40.888  29.183   7.489
 4798POPC   NC362495  19.262  37.204   5.137
 4798POPC   PO462496  18.574  37.152   5.448
 4798POPC   GL162497  18.869  37.184   5.838
 4798POPC   GL262498  19.188  37.316   5.705
 4798POPC   C1A62499  19.029  36.926   6.242
 4798POPC   D2A62500  19.053  36.678   6.667
 4798POPC   C3A62501  18.759  36.747   7.032
 4798POPC   C4A62502  18.776  36.675   7.495
 4798POPC   C1B62503  19.244  37.382   6.162
 4798POPC   C2B62504  19.426  37.140   6.533
 4798POPC   C3B62505  19.249  37.079   6.952
 4798POPC   C4B62506  19.228  36.726   7.216
 4799POPC   NC362507  42.227  40.379   5.113
 4799POPC   PO462508  41.909  40.890   5.139
 4799POPC   GL162509  42.149  40.662   5.569
 4799POPC   GL262510  42.454  40.809   5.721
 4799POPC   C1A62511  42.163  40.686   6.106
 4799POPC   D2A62512  42.508  40.861   6.433
 4799POPC   C3A62513  42.417  40.914   6.899
 4799POPC   C4A62514  42.109  40.822   7.248
 4799POPC   C1B62515  42.609  40.472   6.092
 4799POPC   C2B62516  42.662  40.341   6.526
 4799POPC   C3B62517  42.732  40.294   6.975
 4799POPC   C4B62518  42.559  40.564   7.292
 4800POPC   NC362519  32.689  18.160   5.225
 4800POPC   PO462520  33.260  18.496   5.363
 4800POPC   GL162521  33.011  18.197   5.703
 4800POPC   GL262522  32.671  18.301   5.854
 4800POPC   C1A62523  32.999  18.030   6.158
 4800POPC   D2A62524  33.192  18.158   6.588
 4800POPC   C3A62525  33.235  17.931   7.030
 4800POPC   C4A62526  33.207  17.982   7.517
 4800POPC   C1B62527  32.759  18.473   6.293
 4800POPC   C2B62528  32.719  18.408   6.736
 4800POPC   C3B62529  32.770  18.363   7.180
 4800POPC   C4B62530  32.578  18.592   7.528
 4801POPC   NC362531  40.637   9.573   5.281
 4801POPC   PO462532  41.101   9.869   5.292
 4801POPC   GL162533  40.804   9.843   5.693
 4801POPC   GL262534  40.576   9.560   5.820
 4801POPC   C1A62535  40.732   9.917   6.172
 4801POPC   D2A62536  40.848   9.767   6.602
 4801POPC   C3A62537  40.699   9.955   7.004
 4801POPC   C4A62538  40.662   9.971   7.445
 4801POPC   C1B62539  40.360   9.569   6.278
 4801POPC   C2B62540  40.393   9.599   6.776
 4801POPC   C3B62541  40.574   9.511   7.223
 4801POPC   C4B62542  40.398   9.594   7.657
 4802POPC   NC362543  24.307   3.259   5.370
 4802POPC   PO462544  24.216   3.857   5.458
 4802POPC   GL162545  24.422   3.612   5.786
 4802POPC   GL262546  24.205   3.318   5.851
 4802POPC   C1A62547  24.532   3.466   6.216
 4802POPC   D2A62548  24.504   3.723   6.586
 4802POPC   C3A62549  24.587   3.600   7.005
 4802POPC   C4A62550  24.577   3.821   7.389
 4802POPC   C1B62551  24.044   3.215   6.229
 4802POPC   C2B62552  24.129   3.358   6.650
 4802POPC   C3B62553  24.202   3.282   7.092
 4802POPC   C4B62554  24.273   3.322   7.515
 4803POPC   NC362555  42.759  21.943   5.298
 4803POPC   PO462556  42.289  22.336   5.447
 4803POPC   GL162557  42.468  22.094   5.746
 4803POPC   GL262558  42.347  21.803   5.619
 4803POPC   C1A62559  42.341  22.121   6.169
 4803POPC   D2A62560  42.309  22.423   6.511
 4803POPC   C3A62561  42.330  22.229   6.906
 4803POPC   C4A62562  42.469  22.409   7.274
 4803POPC   C1B62563  42.304  21.626   6.021
 4803POPC   C2B62564  42.332  21.628   6.486
 4803POPC   C3B62565  42.503  21.725   6.921
 4803POPC   C4B62566  42.383  21.905   7.329
 4804POPC   NC362567   7.092  11.150   5.489
 4804POPC   PO462568   7.696  10.951   5.606
 4804POPC   GL162569   7.641  11.219   5.958
 4804POPC   GL262570   7.360  11.420   5.880
 4804POPC   C1A62571   7.646  11.533   6.300
 4804POPC   D2A62572   7.416  11.779   6.635
 4804POPC   C3A62573   7.530  11.547   6.981
 4804POPC   C4A62574   7.701  11.159   7.105
 4804POPC   C1B62575   7.161  11.668   6.194
 4804POPC   C2B62576   6.920  11.566   6.568
 4804POPC   C3B62577   7.002  11.424   6.997
 4804POPC   C4B62578   6.922  11.292   7.417
 4805POPC   NC362579  13.601  16.457   5.182
 4805POPC   PO462580  13.765  17.086   5.295
 4805POPC   GL162581  13.519  16.918   5.657
 4805POPC   GL262582  13.500  16.541   5.744
 4805POPC   C1A62583  13.476  16.920   6.121
 4805POPC   D2A62584  13.589  16.960   6.558
 4805POPC   C3A62585  13.318  17.040   6.914
 4805POPC   C4A62586  13.477  16.842   7.297
 4805POPC   C1B62587  13.667  16.421   6.185
 4805POPC   C2B62588  13.772  16.465   6.642
 4805POPC   C3B62589  13.748  16.457   7.097
 4805POPC   C4B62590  13.424  16.292   7.387
 4806POPC   NC362591  31.323   9.189   5.296
 4806POPC   PO462592  30.857   8.742   5.481
 4806POPC   GL162593  30.731   9.120   5.744
 4806POPC   GL262594  30.962   9.428   5.798
 4806POPC   C1A62595  30.687   9.212   6.205
 4806POPC   D2A62596  30.867   9.076   6.621
 4806POPC   C3A62597  30.676   9.198   7.055
 4806POPC   C4A62598  30.563   8.955   7.471
 4806POPC   C1B62599  31.059   9.574   6.259
 4806POPC   C2B62600  30.958   9.582   6.722
 4806POPC   C3B62601  31.005   9.572   7.203
 4806POPC   C4B62602  30.862   9.348   7.564
 4807POPC   NC362603  15.749  10.776   5.614
 4807POPC   PO462604  16.298  10.531   5.311
 4807POPC   GL162605  16.266  10.734   5.710
 4807POPC   GL262606  16.149  10.432   5.832
 4807POPC   C1A62607  16.166  10.887   6.148
 4807POPC   D2A62608  16.047  10.793   6.579
 4807POPC   C3A62609  15.709  10.944   6.857
 4807POPC   C4A62610  15.704  10.723   7.271
 4807POPC   C1B62611  15.936  10.405   6.210
 4807POPC   C2B62612  15.920  10.284   6.614
 4807POPC   C3B62613  15.983  10.439   6.984
 4807POPC   C4B62614  15.987  10.211   7.341
 4808POPC   NC362615  33.343  34.268   5.440
 4808POPC   PO462616  32.876  34.740   5.445
 4808POPC   GL162617  32.893  34.510   5.798
 4808POPC   GL262618  32.642  34.255   5.691
 4808POPC   C1A62619  33.148  34.616   6.163
 4808POPC   D2A62620  33.080  34.422   6.554
 4808POPC   C3A62621  33.121  34.677   6.918
 4808POPC   C4A62622  33.276  34.449   7.225
 4808POPC   C1B62623  32.537  34.201   6.132
 4808POPC   C2B62624  32.570  34.314   6.593
 4808POPC   C3B62625  32.831  34.266   6.982
 4808POPC   C4B62626  32.827  34.391   7.406
 4809POPC   NC362627   2.184   5.936   5.488
 4809POPC   PO462628   1.743   5.428   5.325
 4809POPC   GL162629   1.781   5.686   5.790
 4809POPC   GL262630   1.900   6.060   5.885
 4809POPC   C1A62631   1.980   5.652   6.201
 4809POPC   D2A62632   2.174   5.840   6.549
 4809POPC   C3A62633   2.001   5.659   6.917
 4809POPC   C4A62634   1.801   5.871   7.252
 4809POPC   C1B62635   1.936   6.262   6.305
 4809POPC   C2B62636   2.098   6.311   6.744
 4809POPC   C3B62637   2.224   6.093   7.089
 4809POPC   C4B62638   2.195   6.162   7.544
 4810POPC   NC362639  15.757  30.051   5.361
 4810POPC   PO462640  16.255  29.656   5.273
 4810POPC   GL162641  15.895  29.682   5.662
 4810POPC   GL262642  15.904  30.036   5.855
 4810POPC   C1A62643  15.725  29.641   6.115
 4810POPC   D2A62644  15.626  29.983   6.457
 4810POPC   C3A62645  15.757  29.935   6.874
 4810POPC   C4A62646  15.970  30.213   7.159
 4810POPC   C1B62647  16.083  30.031   6.272
 4810POPC   C2B62648  16.091  29.620   6.496
 4810POPC   C3B62649  15.877  29.422   6.843
 4810POPC   C4B62650  16.011  29.653   7.226
 4811POPC   NC362651  10.755  25.595   5.110
 4811POPC   PO462652  10.363  26.068   5.454
 4811POPC   GL162653  10.515  26.102   5.860
 4811POPC   GL262654  10.357  25.795   5.958
 4811POPC   C1A62655  10.348  26.203   6.262
 4811POPC   D2A62656  10.475  26.195   6.676
 4811POPC   C3A62657  10.246  26.107   7.000
 4811POPC   C4A62658  10.382  26.066   7.415
 4811POPC   C1B62659  10.629  25.777   6.310
 4811POPC   C2B62660  10.594  25.655   6.703
 4811POPC   C3B62661  10.664  25.834   7.051
 4811POPC   C4B62662  10.960  25.932   7.314
 4812POPC   NC362663  34.515  22.319   5.456
 4812POPC   PO462664  34.946  21.821   5.212
 4812POPC   GL162665  34.859  21.977   5.667
 4812POPC   GL262666  34.503  21.978   5.841
 4812POPC   C1A62667  34.876  22.177   6.098
 4812POPC   D2A62668  34.594  22.114   6.469
 4812POPC   C3A62669  34.674  22.231   6.889
 4812POPC   C4A62670  34.861  22.091   7.271
 4812POPC   C1B62671  34.398  22.406   6.101
 4812POPC   C2B62672  34.359  22.570   6.553
 4812POPC   C3B62673  34.327  22.629   7.014
 4812POPC   C4B62674  34.364  22.307   7.329
 4813POPC   NC362675  19.121  43.515   5.136
 4813POPC   PO462676  18.937  43.010   5.615
 4813POPC   GL162677  18.963  43.249   5.968
 4813POPC   GL262678  19.280  43.101   6.046
 4813POPC   C1A62679  19.123  43.516   6.282
 4813POPC   D2A62680  18.853  43.460   6.599
 4813POPC   C3A62681  19.024  43.401   6.947
 4813POPC   C4A62682  19.067  43.112   7.222
 4813POPC   C1B62683  18.991  42.928   6.344
 4813POPC   C2B62684  18.933  42.924   6.749
 4813POPC   C3B62685  19.133  42.662   7.011
 4813POPC   C4B62686  19.528  42.734   7.202
 4814POPC   NC362687  19.061  27.186   5.477
 4814POPC   PO462688  18.807  26.574   5.410
 4814POPC   GL162689  18.736  26.778   5.792
 4814POPC   GL262690  19.098  26.845   5.862
 4814POPC   C1A62691  18.813  26.602   6.214
 4814POPC   D2A62692  19.021  26.727   6.558
 4814POPC   C3A62693  18.912  26.846   6.938
 4814POPC   C4A62694  19.199  26.714   7.284
 4814POPC   C1B62695  18.968  27.128   6.220
 4814POPC   C2B62696  19.172  27.215   6.641
 4814POPC   C3B62697  19.117  27.283   7.036
 4814POPC   C4B62698  18.898  27.119   7.392
 4815POPC   NC362699  30.043  13.129   5.478
 4815POPC   PO462700  29.954  12.523   5.202
 4815POPC   GL162701  29.947  12.676   5.671
 4815POPC   GL262702  30.291  12.756   5.772
 4815POPC   C1A62703  29.810  12.985   6.054
 4815POPC   D2A62704  29.779  12.861   6.484
 4815POPC   C3A62705  29.741  13.075   6.873
 4815POPC   C4A62706  29.861  12.948   7.274
 4815POPC   C1B62707  30.187  12.655   6.187
 4815POPC   C2B62708  30.287  12.811   6.589
 4815POPC   C3B62709  30.052  12.649   6.901
 4815POPC   C4B62710  30.153  12.493   7.292
 4816POPC   NC362711  20.130   1.866   5.617
 4816POPC   PO462712  19.654   2.306   5.446
 4816POPC   GL162713  19.648   2.122   5.822
 4816POPC   GL262714  19.939   2.249   5.900
 4816POPC   C1A62715  19.669   2.065   6.287
 4816POPC   D2A62716  19.818   2.009   6.689
 4816POPC   C3A62717  19.512   1.931   7.032
 4816POPC   C4A62718  19.478   1.909   7.478
 4816POPC   C1B62719  20.161   2.193   6.257
 4816POPC   C2B62720  20.348   1.990   6.554
 4816POPC   C3B62721  20.243   1.908   6.958
 4816POPC   C4B62722  19.964   2.143   7.174
 4817POPC   NC362723  26.358   0.806   5.268
 4817POPC   PO462724  25.973   0.254   5.368
 4817POPC   GL162725  25.925   0.434   5.786
 4817POPC   GL262726  25.758   0.759   5.820
 4817POPC   C1A62727  26.179   0.447   6.186
 4817POPC   D2A62728  26.464   0.274   6.516
 4817POPC   C3A62729  26.342   0.407   6.923
 4817POPC   C4A62730  25.938   0.563   7.079
 4817POPC   C1B62731  25.665   0.611   6.275
 4817POPC   C2B62732  25.594   0.284   6.646
 4817POPC   C3B62733  25.645   0.156   7.115
 4817POPC   C4B62734  25.857   0.211   7.532
 4818POPC   NC362735   2.597  25.622   5.270
 4818POPC   PO462736   2.902  25.053   5.243
 4818POPC   GL162737   2.783  25.285   5.658
 4818POPC   GL262738   3.035  25.440   5.875
 4818POPC   C1A62739   2.658  25.142   6.104
 4818POPC   D2A62740   2.634  24.893   6.515
 4818POPC   C3A62741   2.563  25.104   6.911
 4818POPC   C4A62742   2.589  25.408   7.241
 4818POPC   C1B62743   3.066  25.569   6.303
 4818POPC   C2B62744   2.905  25.469   6.692
 4818POPC   C3B62745   2.915  25.734   7.042
 4818POPC   C4B62746   3.109  25.729   7.436
 4819POPC   NC362747   7.373  18.838   5.408
 4819POPC   PO462748   7.173  19.434   5.584
 4819POPC   GL162749   7.499  19.134   5.826
 4819POPC   GL262750   7.466  18.741   5.970
 4819POPC   C1A62751   7.744  19.074   6.203
 4819POPC   D2A62752   7.518  18.837   6.522
 4819POPC   C3A62753   7.527  18.928   6.939
 4819POPC   C4A62754   7.510  19.164   7.344
 4819POPC   C1B62755   7.196  18.507   6.325
 4819POPC   C2B62756   7.063  18.590   6.773
 4819POPC   C3B62757   7.195  18.599   7.220
 4819POPC   C4B62758   7.400  18.761   7.621
 4820POPC   NC362759  38.118  13.576   5.432
 4820POPC   PO462760  38.698  13.817   5.413
 4820POPC   GL162761  38.543  13.470   5.712
 4820POPC   GL262762  38.779  13.171   5.788
 4820POPC   C1A62763  38.268  13.583   6.088
 4820POPC   D2A62764  38.247  13.846   6.461
 4820POPC   C3A62765  38.252  13.692   6.897
 4820POPC   C4A62766  38.200  13.494   7.293
 4820POPC   C1B62767  38.729  13.414   6.186
 4820POPC   C2B62768  38.505  13.374   6.571
 4820POPC   C3B62769  38.653  13.350   6.992
 4820POPC   C4B62770  38.718  13.722   7.219
 4821POPC   NC362771  28.412  29.608   5.444
 4821POPC   PO462772  28.666  30.275   5.436
 4821POPC   GL162773  28.449  30.037   5.791
 4821POPC   GL262774  28.205  29.741   5.880
 4821POPC   C1A62775  28.508  29.931   6.253
 4821POPC   D2A62776  28.303  30.118   6.599
 4821POPC   C3A62777  28.334  29.770   6.857
 4821POPC   C4A62778  28.449  29.843   7.249
 4821POPC   C1B62779  28.010  29.979   6.195
 4821POPC   C2B62780  27.900  29.781   6.571
 4821POPC   C3B62781  27.885  29.972   6.983
 4821POPC   C4B62782  28.098  30.158   7.361
 4822POPC   NC362783   3.245  11.405   5.078
 4822POPC   PO462784   3.694  11.011   5.339
 4822POPC   GL162785   3.718  11.271   5.748
 4822POPC   GL262786   3.985  11.061   5.932
 4822POPC   C1A62787   3.436  11.508   6.071
 4822POPC   D2A62788   3.509  11.694   6.501
 4822POPC   C3A62789   3.361  11.419   6.851
 4822POPC   C4A62790   3.492  11.301   7.283
 4822POPC   C1B62791   3.903  11.372   6.226
 4822POPC   C2B62792   3.787  11.272   6.603
 4822POPC   C3B62793   3.893  11.421   6.976
 4822POPC   C4B62794   3.985  11.243   7.377
 4823POPC   NC362795  42.722  16.249   5.267
 4823POPC   PO462796  42.313  15.862   5.347
 4823POPC   GL162797  42.547  15.742   5.664
 4823POPC   GL262798  42.675  16.069   5.778
 4823POPC   C1A62799  42.476  15.644   6.082
 4823POPC   D2A62800  42.386  15.617   6.530
 4823POPC   C3A62801  42.714  15.718   6.823
 4823POPC   C4A62802  42.486  15.914   7.129
 4823POPC   C1B62803  42.665  16.169   6.240
 4823POPC   C2B62804  42.555  16.188   6.697
 4823POPC   C3B62805  42.531  16.426   7.123
 4823POPC   C4B62806  42.264  16.343   7.511
 4824POPC   NC362807  33.736  41.313   5.655
 4824POPC   PO462808  34.122  41.827   5.509
 4824POPC   GL162809  34.071  41.619   5.898
 4824POPC   GL262810  34.302  41.363   5.970
 4824POPC   C1A62811  33.719  41.675   6.209
 4824POPC   D2A62812  33.650  41.889   6.613
 4824POPC   C3A62813  33.519  41.661   6.958
 4824POPC   C4A62814  33.514  41.786   7.378
 4824POPC   C1B62815  33.997  41.215   6.253
 4824POPC   C2B62816  33.814  41.375   6.615
 4824POPC   C3B62817  34.038  41.621   6.867
 4824POPC   C4B62818  34.181  41.672   7.249
 4825POPC   NC362819   8.783  37.592   5.372
 4825POPC   PO462820   9.395  37.315   5.333
 4825POPC   GL162821   9.180  37.551   5.754
 4825POPC   GL262822   8.798  37.638   5.883
 4825POPC   C1A62823   9.154  37.623   6.238
 4825POPC   D2A62824   9.117  37.788   6.670
 4825POPC   C3A62825   9.223  37.495   7.032
 4825POPC   C4A62826   9.190  37.616   7.500
 4825POPC   C1B62827   8.694  37.859   6.302
 4825POPC   C2B62828   8.646  37.925   6.771
 4825POPC   C3B62829   8.814  37.751   7.159
 4825POPC   C4B62830   8.822  37.954   7.591
 4826POPC   NC362831   3.185  42.449   5.030
 4826POPC   PO462832   3.589  42.084   5.519
 4826POPC   GL162833   3.550  42.351   5.840
 4826POPC   GL262834   3.235  42.484   5.919
 4826POPC   C1A62835   3.642  42.495   6.229
 4826POPC   D2A62836   3.574  42.261   6.575
 4826POPC   C3A62837   3.677  42.487   6.900
 4826POPC   C4A62838   3.793  42.478   7.302
 4826POPC   C1B62839   3.168  42.257   6.268
 4826POPC   C2B62840   3.107  42.479   6.669
 4826POPC   C3B62841   3.235  42.688   7.041
 4826POPC   C4B62842   3.312  42.367   7.297
 4827POPC   NC362843  23.248  36.666   5.411
 4827POPC   PO462844  22.794  37.103   5.342
 4827POPC   GL162845  22.891  36.937   5.734
 4827POPC   GL262846  23.185  37.136   5.731
 4827POPC   C1A62847  22.960  36.693   6.112
 4827POPC   D2A62848  23.041  36.828   6.521
 4827POPC   C3A62849  22.881  36.655   6.878
 4827POPC   C4A62850  22.879  36.973   7.168
 4827POPC   C1B62851  23.313  37.082   6.151
 4827POPC   C2B62852  23.529  36.974   6.531
 4827POPC   C3B62853  23.421  36.744   6.909
 4827POPC   C4B62854  23.375  36.936   7.310
 4828POPC   NC362855  39.393  21.364   5.340
 4828POPC   PO462856  40.062  21.374   5.450
 4828POPC   GL162857  40.149  21.468   5.869
 4828POPC   GL262858  40.083  21.785   5.914
 4828POPC   C1A62859  40.261  21.561   6.328
 4828POPC   D2A62860  40.075  21.717   6.723
 4828POPC   C3A62861  40.128  21.386   7.037
 4828POPC   C4A62862  40.250  21.392   7.487
 4828POPC   C1B62863  39.756  21.652   6.248
 4828POPC   C2B62864  39.571  21.605   6.690
 4828POPC   C3B62865  39.636  21.491   7.137
 4828POPC   C4B62866  39.743  21.456   7.579
 4829POPC   NC362867   4.794  44.635   5.383
 4829POPC   PO462868   5.291   0.110   5.394
 4829POPC   GL162869   5.192  44.764   5.740
 4829POPC   GL262870   4.917  44.544   5.858
 4829POPC   C1A62871   5.333  44.554   6.164
 4829POPC   D2A62872   5.580  44.388   6.533
 4829POPC   C3A62873   5.396  44.460   6.962
 4829POPC   C4A62874   5.174  44.656   7.318
 4829POPC   C1B62875   4.723  44.255   6.131
 4829POPC   C2B62876   4.563  44.344   6.554
 4829POPC   C3B62877   4.833  44.402   6.915
 4829POPC   C4B62878   4.831  44.269   7.331
 4830POPC   NC362879  20.319  36.085   5.560
 4830POPC   PO462880  19.581  35.964   5.503
 4830POPC   GL162881  19.902  35.883   5.803
 4830POPC   GL262882  19.980  36.203   5.949
 4830POPC   C1A62883  19.897  35.824   6.253
 4830POPC   D2A62884  19.673  36.153   6.458
 4830POPC   C3A62885  19.793  36.150   6.866
 4830POPC   C4A62886  19.920  35.979   7.240
 4830POPC   C1B62887  20.163  36.251   6.385
 4830POPC   C2B62888  20.040  36.542   6.651
 4830POPC   C3B62889  20.027  36.553   7.052
 4830POPC   C4B62890  20.156  36.403   7.408
 4831POPC   NC362891   3.768  40.977   5.355
 4831POPC   PO462892   3.211  40.542   5.481
 4831POPC   GL162893   3.460  40.635   5.846
 4831POPC   GL262894   3.805  40.696   5.817
 4831POPC   C1A62895   3.554  40.889   6.228
 4831POPC   D2A62896   3.403  41.129   6.558
 4831POPC   C3A62897   3.595  40.930   6.884
 4831POPC   C4A62898   3.585  40.767   7.268
 4831POPC   C1B62899   3.872  40.479   6.240
 4831POPC   C2B62900   3.902  40.534   6.729
 4831POPC   C3B62901   4.054  40.648   7.173
 4831POPC   C4B62902   3.943  40.524   7.589
 4832POPC   NC362903  43.598   3.599   5.255
 4832POPC   PO462904  44.164   3.351   5.550
 4832POPC   GL162905  43.858   3.653   5.713
 4832POPC   GL262906  43.516   3.493   5.759
 4832POPC   C1A62907  43.760   3.765   6.152
 4832POPC   D2A62908  43.823   3.702   6.603
 4832POPC   C3A62909  44.102   3.442   6.856
 4832POPC   C4A62910  44.146   3.705   7.243
 4832POPC   C1B62911  43.519   3.300   6.182
 4832POPC   C2B62912  43.618   3.241   6.628
 4832POPC   C3B62913  43.636   3.491   7.043
 4832POPC   C4B62914  43.443   3.453   7.433
 4833POPC   NC362915  29.515  24.814   5.490
 4833POPC   PO462916  30.129  24.458   5.327
 4833POPC   GL162917  29.867  24.524   5.716
 4833POPC   GL262918  29.709  24.224   5.872
 4833POPC   C1A62919  29.916  24.697   6.135
 4833POPC   D2A62920  30.017  24.851   6.556
 4833POPC   C3A62921  29.767  24.763   6.940
 4833POPC   C4A62922  29.820  24.978   7.360
 4833POPC   C1B62923  30.176  24.247   6.009
 4833POPC   C2B62924  30.287  24.416   6.421
 4833POPC   C3B62925  30.041  24.366   6.812
 4833POPC   C4B62926  30.068  24.496   7.265
 4834POPC   NC362927  18.650  17.942   5.428
 4834POPC   PO462928  18.105  18.399   5.407
 4834POPC   GL162929  18.286  18.183   5.753
 4834POPC   GL262930  18.567  18.390   5.794
 4834POPC   C1A62931  18.154  18.029   6.184
 4834POPC   D2A62932  17.956  18.124   6.597
 4834POPC   C3A62933  18.024  18.125   7.037
 4834POPC   C4A62934  18.147  18.229   7.464
 4834POPC   C1B62935  18.644  18.130   6.179
 4834POPC   C2B62936  18.480  18.087   6.637
 4834POPC   C3B62937  18.508  18.307   7.055
 4834POPC   C4B62938  18.640  18.232   7.478
 4835POPC   NC362939  29.213  32.527   5.328
 4835POPC   PO462940  29.009  31.915   5.333
 4835POPC   GL162941  28.949  32.168   5.727
 4835POPC   GL262942  29.283  32.232   5.825
 4835POPC   C1A62943  28.903  32.317   6.209
 4835POPC   D2A62944  28.787  32.220   6.695
 4835POPC   C3A62945  29.105  32.270   7.027
 4835POPC   C4A62946  29.033  32.559   7.397
 4835POPC   C1B62947  29.415  32.500   6.155
 4835POPC   C2B62948  29.279  32.518   6.587
 4835POPC   C3B62949  29.476  32.607   6.978
 4835POPC   C4B62950  29.494  32.353   7.367
 4836POPC   NC362951   7.446   7.181   5.324
 4836POPC   PO462952   7.915   7.681   5.434
 4836POPC   GL162953   7.737   7.375   5.718
 4836POPC   GL262954   7.415   7.549   5.698
 4836POPC   C1A62955   7.526   7.285   6.111
 4836POPC   D2A62956   7.518   7.500   6.515
 4836POPC   C3A62957   7.133   7.510   6.778
 4836POPC   C4A62958   6.958   7.289   7.134
 4836POPC   C1B62959   7.459   7.819   6.095
 4836POPC   C2B62960   7.371   8.040   6.495
 4836POPC   C3B62961   7.503   7.860   6.900
 4836POPC   C4B62962   7.631   7.417   7.014
 4837POPC   NC362963  28.959   1.737   5.581
 4837POPC   PO462964  29.072   2.351   5.396
 4837POPC   GL162965  28.900   2.184   5.823
 4837POPC   GL262966  29.145   1.945   6.008
 4837POPC   C1A62967  28.707   2.075   6.251
 4837POPC   D2A62968  28.842   1.843   6.631
 4837POPC   C3A62969  28.933   1.977   7.076
 4837POPC   C4A62970  28.712   2.219   7.362
 4837POPC   C1B62971  29.004   1.532   6.203
 4837POPC   C2B62972  29.039   1.369   6.611
 4837POPC   C3B62973  29.239   1.593   6.942
 4837POPC   C4B62974  29.383   1.730   7.343
 4838POPC   NC362975  16.253  27.358   5.275
 4838POPC   PO462976  15.841  27.840   5.200
 4838POPC   GL162977  16.089  27.736   5.611
 4838POPC   GL262978  16.107  27.369   5.762
 4838POPC   C1A62979  15.984  27.743   6.077
 4838POPC   D2A62980  16.213  27.715   6.471
 4838POPC   C3A62981  16.010  27.720   6.872
 4838POPC   C4A62982  15.945  27.897   7.278
 4838POPC   C1B62983  16.374  27.334   6.159
 4838POPC   C2B62984  16.229  27.222   6.608
 4838POPC   C3B62985  16.081  27.193   7.041
 4838POPC   C4B62986  16.161  27.257   7.502
 4839POPC   NC362987  37.089  34.472   5.242
 4839POPC   PO462988  36.829  35.009   5.526
 4839POPC   GL162989  36.824  34.695   5.842
 4839POPC   GL262990  36.832  34.359   5.746
 4839POPC   C1A62991  37.086  34.618   6.178
 4839POPC   D2A62992  37.125  34.833   6.535
 4839POPC   C3A62993  37.095  34.638   6.945
 4839POPC   C4A62994  37.034  34.825   7.346
 4839POPC   C1B62995  36.758  34.244   6.211
 4839POPC   C2B62996  37.039  34.225   6.605
 4839POPC   C3B62997  37.255  34.166   7.029
 4839POPC   C4B62998  37.002  34.316   7.357
 4840POPC   NC362999  26.626  41.798   5.339
 4840POPC   PO463000  27.174  41.255   5.306
 4840POPC   GL163001  27.004  41.424   5.656
 4840POPC   GL263002  27.138  41.719   5.686
 4840POPC   C1A63003  26.914  41.394   6.090
 4840POPC   D2A63004  26.798  41.375   6.510
 4840POPC   C3A63005  27.123  41.421   6.814
 4840POPC   C4A63006  27.007  41.574   7.214
 4840POPC   C1B63007  26.837  41.881   6.029
 4840POPC   C2B63008  26.702  41.892   6.446
 4840POPC   C3B63009  26.677  41.753   6.863
 4840POPC   C4B63010  26.856  42.058   7.167
 4841POPC   NC363011   4.597  10.097   5.527
 4841POPC   PO463012   4.176  10.665   5.582
 4841POPC   GL163013   4.265  10.610   5.998
 4841POPC   GL263014   3.933  10.484   6.050
 4841POPC   C1A63015   4.638  10.715   6.283
 4841POPC   D2A63016   4.731  10.689   6.718
 4841POPC   C3A63017   4.353  10.530   6.908
 4841POPC   C4A63018   4.150  10.768   7.217
 4841POPC   C1B63019   4.141  10.274   6.391
 4841POPC   C2B63020   4.558  10.206   6.504
 4841POPC   C3B63021   4.754  10.190   6.865
 4841POPC   C4B63022   4.549  10.189   7.243
 4842POPC   NC363023  26.549  29.338   5.418
 4842POPC   PO463024  27.177  29.490   5.237
 4842POPC   GL163025  26.991  29.409   5.708
 4842POPC   GL263026  26.793  29.080   5.786
 4842POPC   C1A63027  27.060  29.231   6.180
 4842POPC   D2A63028  26.760  29.078   6.493
 4842POPC   C3A63029  26.951  29.073   6.887
 4842POPC   C4A63030  27.127  29.208   7.235
 4842POPC   C1B63031  26.606  29.418   6.091
 4842POPC   C2B63032  26.551  29.564   6.530
 4842POPC   C3B63033  26.509  29.356   6.929
 4842POPC   C4B63034  26.675  29.399   7.351
 4843POPC   NC363035  10.854   9.815   5.566
 4843POPC   PO463036  10.249   9.684   5.265
 4843POPC   GL163037  10.397   9.625   5.746
 4843POPC   GL263038  10.525   9.925   5.950
 4843POPC   C1A63039  10.532   9.489   6.214
 4843POPC   D2A63040  10.658   9.658   6.647
 4843POPC   C3A63041  10.448   9.534   7.054
 4843POPC   C4A63042  10.391   9.757   7.468
 4843POPC   C1B63043  10.907   9.880   6.244
 4843POPC   C2B63044  11.065   9.961   6.684
 4843POPC   C3B63045  10.749   9.968   7.059
 4843POPC   C4B63046  10.827  10.052   7.502
 4844POPC   NC363047  29.727  12.181   5.446
 4844POPC   PO463048  30.290  12.279   5.566
 4844POPC   GL163049  30.034  12.218   5.869
 4844POPC   GL263050  30.077  11.885   5.837
 4844POPC   C1A63051  29.864  12.248   6.257
 4844POPC   D2A63052  29.877  11.999   6.573
 4844POPC   C3A63053  29.891  12.152   6.947
 4844POPC   C4A63054  30.017  11.977   7.307
 4844POPC   C1B63055  30.271  11.692   6.185
 4844POPC   C2B63056  30.325  11.771   6.610
 4844POPC   C3B63057  30.270  11.613   7.012
 4844POPC   C4B63058  30.453  11.700   7.424
 4845POPC   NC363059  33.409  26.545   5.715
 4845POPC   PO463060  33.634  26.958   5.210
 4845POPC   GL163061  33.838  26.819   5.622
 4845POPC   GL263062  33.743  27.088   5.826
 4845POPC   C1A63063  33.985  26.626   6.033
 4845POPC   D2A63064  33.860  26.592   6.474
 4845POPC   C3A63065  34.029  26.575   6.890
 4845POPC   C4A63066  33.706  26.729   7.117
 4845POPC   C1B63067  33.885  27.087   6.250
 4845POPC   C2B63068  34.172  27.015   6.581
 4845POPC   C3B63069  34.062  27.091   7.008
 4845POPC   C4B63070  33.717  27.235   7.263
 4846POPC   NC363071  32.544  26.108   5.470
 4846POPC   PO463072  33.234  26.050   5.331
 4846POPC   GL163073  33.096  26.140   5.773
 4846POPC   GL263074  32.891  25.881   5.960
 4846POPC   C1A63075  33.223  26.118   6.243
 4846POPC   D2A63076  32.870  25.925   6.502
 4846POPC   C3A63077  32.819  25.929   6.956
 4846POPC   C4A63078  33.058  26.144   7.286
 4846POPC   C1B63079  32.748  26.263   6.133
 4846POPC   C2B63080  32.704  26.430   6.528
 4846POPC   C3B63081  32.699  26.428   6.959
 4846POPC   C4B63082  32.607  26.349   7.386
 4847POPC   NC363083  28.805   0.756   5.468
 4847POPC   PO463084  28.678   0.088   5.438
 4847POPC   GL163085  28.535   0.437   5.769
 4847POPC   GL263086  28.369   0.187   5.895
 4847POPC   C1A63087  28.366   0.675   6.160
 4847POPC   D2A63088  28.249   0.464   6.587
 4847POPC   C3A63089  28.341   0.610   6.996
 4847POPC   C4A63090  28.282   0.378   7.374
 4847POPC   C1B63091  28.595   0.255   6.266
 4847POPC   C2B63092  28.597   0.073   6.633
 4847POPC   C3B63093  28.647   0.118   7.052
 4847POPC   C4B63094  28.777   0.393   7.319
 4848POPC   NC363095  34.424  21.668   5.214
 4848POPC   PO463096  34.495  21.057   5.476
 4848POPC   GL163097  34.594  21.459   5.659
 4848POPC   GL263098  34.928  21.497   5.835
 4848POPC   C1A63099  34.376  21.531   6.044
 4848POPC   D2A63100  34.327  21.658   6.484
 4848POPC   C3A63101  34.449  21.347   6.802
 4848POPC   C4A63102  34.296  21.359   7.210
 4848POPC   C1B63103  34.806  21.694   6.260
 4848POPC   C2B63104  34.806  21.724   6.734
 4848POPC   C3B63105  34.848  21.595   7.163
 4848POPC   C4B63106  34.909  21.702   7.642
 4849POPC   NC363107  19.503  33.389   5.397
 4849POPC   PO463108  18.960  32.995   5.229
 4849POPC   GL163109  19.048  33.002   5.695
 4849POPC   GL263110  19.426  32.972   5.704
 4849POPC   C1A63111  18.845  33.236   6.108
 4849POPC   D2A63112  18.804  33.439   6.544
 4849POPC   C3A63113  18.937  33.250   6.965
 4849POPC   C4A63114  18.961  33.180   7.427
 4849POPC   C1B63115  19.351  33.176   6.083
 4849POPC   C2B63116  19.179  33.042   6.487
 4849POPC   C3B63117  19.347  32.940   6.877
 4849POPC   C4B63118  19.442  33.141   7.267
 4850POPC   NC363119  37.453   0.658   5.279
 4850POPC   PO463120  37.595   0.012   5.340
 4850POPC   GL163121  37.751   0.346   5.652
 4850POPC   GL263122  37.900   0.663   5.672
 4850POPC   C1A63123  37.976   0.317   6.049
 4850POPC   D2A63124  37.967   0.508   6.456
 4850POPC   C3A63125  37.748   0.409   6.818
 4850POPC   C4A63126  37.917   0.341   7.217
 4850POPC   C1B63127  37.717   0.762   6.088
 4850POPC   C2B63128  37.549   0.822   6.520
 4850POPC   C3B63129  37.655   0.951   6.944
 4850POPC   C4B63130  37.740   0.815   7.384
 4851POPC   NC363131  37.012  36.326   5.148
 4851POPC   PO463132  36.511  35.955   5.461
 4851POPC   GL163133  36.632  36.000   5.888
 4851POPC   GL263134  36.960  36.147   5.821
 4851POPC   C1A63135  36.684  36.222   6.279
 4851POPC   D2A63136  36.989  36.227   6.624
 4851POPC   C3A63137  36.780  36.071   6.964
 4851POPC   C4A63138  36.798  36.226   7.352
 4851POPC   C1B63139  37.180  36.039   6.188
 4851POPC   C2B63140  37.358  35.821   6.534
 4851POPC   C3B63141  37.377  36.012   6.949
 4851POPC   C4B63142  37.156  35.859   7.273
 4852POPC   NC363143  14.345   6.976   5.152
 4852POPC   PO463144  13.953   7.378   5.510
 4852POPC   GL163145  14.303   7.443   5.806
 4852POPC   GL263146  14.504   7.179   5.917
 4852POPC   C1A63147  14.329   7.538   6.234
 4852POPC   D2A63148  14.105   7.235   6.480
 4852POPC   C3A63149  14.120   7.355   6.851
 4852POPC   C4A63150  14.394   7.623   7.039
 4852POPC   C1B63151  14.574   7.080   6.330
 4852POPC   C2B63152  14.634   7.373   6.626
 4852POPC   C3B63153  14.857   7.354   6.953
 4852POPC   C4B63154  14.804   7.486   7.302
 4853POPC   NC363155  39.851  29.874   5.372
 4853POPC   PO463156  40.460  29.556   5.389
 4853POPC   GL163157  40.178  29.736   5.769
 4853POPC   GL263158  40.098  30.079   5.795
 4853POPC   C1A63159  39.909  29.833   6.197
 4853POPC   D2A63160  39.714  29.756   6.615
 4853POPC   C3A63161  39.868  30.001   6.975
 4853POPC   C4A63162  40.061  29.833   7.382
 4853POPC   C1B63163  40.396  30.016   6.150
 4853POPC   C2B63164  40.278  29.962   6.614
 4853POPC   C3B63165  40.399  30.069   7.063
 4853POPC   C4B63166  40.503  30.396   7.418
 4854POPC   NC363167  10.126  43.322   5.531
 4854POPC   PO463168   9.514  43.117   5.360
 4854POPC   GL163169   9.548  42.972   5.784
 4854POPC   GL263170   9.915  42.947   5.835
 4854POPC   C1A63171   9.600  42.949   6.241
 4854POPC   D2A63172   9.935  42.823   6.550
 4854POPC   C3A63173   9.827  42.914   6.987
 4854POPC   C4A63174   9.472  43.160   7.182
 4854POPC   C1B63175   9.942  43.291   6.172
 4854POPC   C2B63176   9.726  43.314   6.597
 4854POPC   C3B63177   9.884  43.423   7.010
 4854POPC   C4B63178   9.981  43.255   7.423
 4855POPC   NC363179  38.615  23.846   5.187
 4855POPC   PO463180  37.979  23.883   5.385
 4855POPC   GL163181  38.246  23.794   5.753
 4855POPC   GL263182  38.585  23.758   5.753
 4855POPC   C1A63183  38.258  23.635   6.175
 4855POPC   D2A63184  38.166  23.453   6.594
 4855POPC   C3A63185  38.318  23.644   6.943
 4855POPC   C4A63186  38.113  23.804   7.286
 4855POPC   C1B63187  38.660  23.999   6.172
 4855POPC   C2B63188  38.549  24.042   6.631
 4855POPC   C3B63189  38.581  24.061   7.105
 4855POPC   C4B63190  38.837  24.128   7.483
 4856POPC   NC363191  12.012  14.623   5.657
 4856POPC   PO463192  12.161  14.203   5.180
 4856POPC   GL163193  12.272  14.198   5.702
 4856POPC   GL263194  12.423  14.096   5.982
 4856POPC   C1A63195  12.012  14.260   6.181
 4856POPC   D2A63196  11.872  14.304   6.615
 4856POPC   C3A63197  11.868  14.674   6.919
 4856POPC   C4A63198  12.020  14.662   7.352
 4856POPC   C1B63199  12.446  14.505   6.228
 4856POPC   C2B63200  12.300  14.641   6.640
 4856POPC   C3B63201  12.334  14.427   7.027
 4856POPC   C4B63202  12.537  14.484   7.429
 4857POPC   NC363203  14.974  42.080   5.305
 4857POPC   PO463204  15.455  42.536   5.316
 4857POPC   GL163205  15.244  42.506   5.715
 4857POPC   GL263206  14.997  42.755   5.694
 4857POPC   C1A63207  15.379  42.396   6.157
 4857POPC   D2A63208  15.587  42.349   6.599
 4857POPC   C3A63209  15.331  42.250   6.968
 4857POPC   C4A63210  14.915  42.113   7.031
 4857POPC   C1B63211  15.076  42.842   6.121
 4857POPC   C2B63212  15.295  42.764   6.498
 4857POPC   C3B63213  15.363  42.761   6.929
 4857POPC   C4B63214  15.171  42.625   7.312
 4858POPC   NC363215  16.883  30.746   5.511
 4858POPC   PO463216  16.203  30.518   5.331
 4858POPC   GL163217  16.464  30.569   5.711
 4858POPC   GL263218  16.439  30.936   5.824
 4858POPC   C1A63219  16.738  30.585   6.119
 4858POPC   D2A63220  16.848  30.742   6.534
 4858POPC   C3A63221  16.823  30.428   6.859
 4858POPC   C4A63222  16.927  30.453   7.279
 4858POPC   C1B63223  16.458  31.013   6.300
 4858POPC   C2B63224  16.523  31.087   6.767
 4858POPC   C3B63225  16.538  30.882   7.188
 4858POPC   C4B63226  16.313  30.877   7.626
 4859POPC   NC363227  34.788  15.306   5.688
 4859POPC   PO463228  34.345  14.951   5.351
 4859POPC   GL163229  34.329  15.134   5.811
 4859POPC   GL263230  34.399  14.908   6.106
 4859POPC   C1A63231  34.429  15.384   6.234
 4859POPC   D2A63232  34.524  15.268   6.706
 4859POPC   C3A63233  34.315  15.545   7.049
 4859POPC   C4A63234  34.513  15.580   7.449
 4859POPC   C1B63235  34.831  15.055   6.299
 4859POPC   C2B63236  35.055  15.190   6.682
 4859POPC   C3B63237  34.889  15.344   7.092
 4859POPC   C4B63238  34.534  15.111   7.260
 4860POPC   NC363239  26.801  26.299   5.394
 4860POPC   PO463240  26.551  25.736   5.418
 4860POPC   GL163241  26.783  25.900   5.786
 4860POPC   GL263242  27.104  25.995   5.665
 4860POPC   C1A63243  26.669  26.086   6.217
 4860POPC   D2A63244  26.639  26.419   6.532
 4860POPC   C3A63245  26.571  26.279   6.940
 4860POPC   C4A63246  26.771  25.991   7.206
 4860POPC   C1B63247  27.083  26.275   6.017
 4860POPC   C2B63248  27.123  26.273   6.449
 4860POPC   C3B63249  27.090  26.235   6.874
 4860POPC   C4B63250  27.248  26.176   7.270
 4861POPC   NC363251  44.465  14.766   5.406
 4861POPC   PO463252  44.969  14.286   5.458
 4861POPC   GL163253  44.755  14.538   5.789
 4861POPC   GL263254  44.411  14.490   5.830
 4861POPC   C1A63255  44.641  14.668   6.245
 4861POPC   D2A63256  44.797  14.796   6.651
 4861POPC   C3A63257  44.867  14.518   6.950
 4861POPC   C4A63258  44.945  14.363   7.322
 4861POPC   C1B63259  44.216  14.373   6.202
 4861POPC   C2B63260  44.153  14.427   6.618
 4861POPC   C3B63261  44.337  14.655   6.945
 4861POPC   C4B63262  44.210  14.667   7.368
 4862POPC   NC363263   7.551  44.293   5.549
 4862POPC   PO463264   7.293  43.743   5.362
 4862POPC   GL163265   7.317  43.902   5.775
 4862POPC   GL263266   7.670  43.815   5.730
 4862POPC   C1A63267   7.204  43.921   6.212
 4862POPC   D2A63268   7.022  43.871   6.628
 4862POPC   C3A63269   7.392  43.943   6.882
 4862POPC   C4A63270   7.515  44.030   7.296
 4862POPC   C1B63271   7.823  43.953   6.127
 4862POPC   C2B63272   7.792  43.779   6.543
 4862POPC   C3B63273   7.910  43.931   6.949
 4862POPC   C4B63274   7.818  43.650   7.238
 4863POPC   NC363275  18.440  10.755   5.436
 4863POPC   PO463276  17.945  10.279   5.567
 4863POPC   GL163277  18.207  10.367   5.917
 4863POPC   GL263278  18.540  10.455   5.850
 4863POPC   C1A63279  18.349  10.450   6.347
 4863POPC   D2A63280  18.596  10.542   6.694
 4863POPC   C3A63281  18.248  10.616   6.994
 4863POPC   C4A63282  17.925  10.306   7.183
 4863POPC   C1B63283  18.446  10.862   6.088
 4863POPC   C2B63284  18.378  10.981   6.507
 4863POPC   C3B63285  18.606  11.006   6.900
 4863POPC   C4B63286  18.589  10.831   7.328
 4864POPC   NC363287  32.325   8.854   5.487
 4864POPC   PO463288  32.181   9.488   5.254
 4864POPC   GL163289  32.177   9.336   5.752
 4864POPC   GL263290  32.013   9.010   5.843
 4864POPC   C1A63291  32.292   9.189   6.213
 4864POPC   D2A63292  32.424   8.800   6.510
 4864POPC   C3A63293  32.299   8.798   6.960
 4864POPC   C4A63294  32.299   9.154   7.246
 4864POPC   C1B63295  32.086   8.658   6.143
 4864POPC   C2B63296  31.861   8.541   6.527
 4864POPC   C3B63297  31.801   8.631   6.948
 4864POPC   C4B63298  31.945   8.695   7.379
 4865POPC   NC363299  10.910  19.218   5.329
 4865POPC   PO463300  10.569  18.717   5.582
 4865POPC   GL163301  10.865  18.952   5.847
 4865POPC   GL263302  10.657  19.222   5.974
 4865POPC   C1A63303  10.871  18.916   6.320
 4865POPC   D2A63304  10.662  19.005   6.714
 4865POPC   C3A63305  10.882  19.149   7.088
 4865POPC   C4A63306  10.890  19.002   7.502
 4865POPC   C1B63307  10.356  18.963   6.238
 4865POPC   C2B63308  10.185  18.798   6.650
 4865POPC   C3B63309  10.317  18.806   7.102
 4865POPC   C4B63310  10.230  18.718   7.556
 4866POPC   NC363311   5.344   9.907   5.428
 4866POPC   PO463312   5.033   9.402   5.103
 4866POPC   GL163313   5.070   9.487   5.609
 4866POPC   GL263314   4.978   9.819   5.763
 4866POPC   C1A63315   5.056   9.410   6.078
 4866POPC   D2A63316   5.232   9.486   6.496
 4866POPC   C3A63317   4.962   9.364   6.835
 4866POPC   C4A63318   5.070   9.460   7.280
 4866POPC   C1B63319   5.243   9.880   6.124
 4866POPC   C2B63320   5.071   9.951   6.539
 4866POPC   C3B63321   5.096   9.834   6.942
 4866POPC   C4B63322   5.390   9.874   7.233
 4867POPC   NC363323  20.333  15.263   5.407
 4867POPC   PO463324  20.978  15.205   5.651
 4867POPC   GL163325  20.622  15.319   5.862
 4867POPC   GL263326  20.437  15.010   5.905
 4867POPC   C1A63327  20.479  15.386   6.277
 4867POPC   D2A63328  20.505  15.616   6.649
 4867POPC   C3A63329  20.534  15.407   7.046
 4867POPC   C4A63330  20.280  15.114   7.322
 4867POPC   C1B63331  20.771  14.965   6.269
 4867POPC   C2B63332  20.755  15.132   6.672
 4867POPC   C3B63333  20.685  14.911   7.058
 4867POPC   C4B63334  20.970  14.831   7.365
 4868POPC   NC363335   2.228  16.807   5.437
 4868POPC   PO463336   1.732  16.341   5.363
 4868POPC   GL163337   1.830  16.641   5.697
 4868POPC   GL263338   2.116  16.500   5.843
 4868POPC   C1A63339   2.005  16.935   6.078
 4868POPC   D2A63340   2.138  16.712   6.475
 4868POPC   C3A63341   2.081  16.878   6.913
 4868POPC   C4A63342   2.106  16.659   7.327
 4868POPC   C1B63343   1.735  16.520   6.169
 4868POPC   C2B63344   1.550  16.637   6.565
 4868POPC   C3B63345   1.694  16.511   6.986
 4868POPC   C4B63346   1.761  16.280   7.363
 4869POPC   NC363347  22.412  44.017   5.486
 4869POPC   PO463348  21.829  43.667   5.418
 4869POPC   GL163349  22.064  43.760   5.796
 4869POPC   GL263350  22.330  43.510   5.706
 4869POPC   C1A63351  22.005  43.848   6.260
 4869POPC   D2A63352  21.841  43.688   6.669
 4869POPC   C3A63353  22.020  43.959   6.978
 4869POPC   C4A63354  21.880  43.962   7.444
 4869POPC   C1B63355  22.416  43.532   6.157
 4869POPC   C2B63356  22.295  43.446   6.603
 4869POPC   C3B63357  22.481  43.624   6.995
 4869POPC   C4B63358  22.355  43.908   7.344
 4870POPC   NC363359  32.706  21.442   5.341
 4870POPC   PO463360  33.289  21.873   5.534
 4870POPC   GL163361  33.020  21.569   5.766
 4870POPC   GL263362  33.047  21.236   5.665
 4870POPC   C1A63363  33.030  21.548   6.230
 4870POPC   D2A63364  33.284  21.685   6.571
 4870POPC   C3A63365  33.224  21.502   6.996
 4870POPC   C4A63366  33.132  21.649   7.450
 4870POPC   C1B63367  32.973  21.085   6.082
 4870POPC   C2B63368  32.999  21.114   6.524
 4870POPC   C3B63369  32.868  21.113   6.958
 4870POPC   C4B63370  33.136  21.116   7.310
 4871POPC   NC363371  35.689  40.158   5.094
 4871POPC   PO463372  35.441  39.759   5.601
 4871POPC   GL163373  35.402  40.092   5.857
 4871POPC   GL263374  35.098  40.117   5.788
 4871POPC   C1A63375  35.245  39.996   6.268
 4871POPC   D2A63376  35.423  39.696   6.544
 4871POPC   C3A63377  35.372  39.839   6.950
 4871POPC   C4A63378  35.588  39.840   7.310
 4871POPC   C1B63379  34.938  40.366   6.121
 4871POPC   C2B63380  35.059  40.500   6.543
 4871POPC   C3B63381  35.074  40.277   6.936
 4871POPC   C4B63382  35.209  40.183   7.359
 4872POPC   NC363383  11.134  26.922   5.255
 4872POPC   PO463384  11.427  26.447   5.495
 4872POPC   GL163385  11.426  26.815   5.727
 4872POPC   GL263386  11.083  26.851   5.751
 4872POPC   C1A63387  11.579  26.964   6.124
 4872POPC   D2A63388  11.729  26.728   6.496
 4872POPC   C3A63389  11.639  26.922   6.873
 4872POPC   C4A63390  11.509  26.772   7.271
 4872POPC   C1B63391  11.123  26.711   6.159
 4872POPC   C2B63392  11.246  26.897   6.532
 4872POPC   C3B63393  11.135  26.760   6.924
 4872POPC   C4B63394  10.867  26.843   7.275
 4873POPC   NC363395  35.071  29.345   5.461
 4873POPC   PO463396  34.354  29.144   5.287
 4873POPC   GL163397  34.478  29.177   5.735
 4873POPC   GL263398  34.814  29.277   5.894
 4873POPC   C1A63399  34.390  29.182   6.179
 4873POPC   D2A63400  34.648  29.045   6.509
 4873POPC   C3A63401  34.696  29.098   6.971
 4873POPC   C4A63402  34.382  28.990   7.287
 4873POPC   C1B63403  34.707  29.571   6.237
 4873POPC   C2B63404  34.383  29.543   6.570
 4873POPC   C3B63405  34.289  29.442   7.013
 4873POPC   C4B63406  34.589  29.431   7.373
 4874POPC   NC363407  12.332  16.072   5.389
 4874POPC   PO463408  11.823  15.695   5.414
 4874POPC   GL163409  12.124  15.713   5.737
 4874POPC   GL263410  12.106  16.041   5.877
 4874POPC   C1A63411  12.178  15.618   6.175
 4874POPC   D2A63412  12.100  15.907   6.491
 4874POPC   C3A63413  12.051  15.688   6.872
 4874POPC   C4A63414  12.067  15.656   7.288
 4874POPC   C1B63415  12.253  16.368   6.134
 4874POPC   C2B63416  12.350  16.414   6.555
 4874POPC   C3B63417  12.326  16.127   6.908
 4874POPC   C4B63418  12.065  16.140   7.252
 4875POPC   NC363419  36.660  27.474   5.044
 4875POPC   PO463420  37.106  27.404   5.586
 4875POPC   GL163421  36.956  27.519   5.963
 4875POPC   GL263422  37.092  27.837   6.047
 4875POPC   C1A63423  36.771  27.544   6.364
 4875POPC   D2A63424  36.853  27.781   6.718
 4875POPC   C3A63425  36.819  27.605   7.132
 4875POPC   C4A63426  37.085  27.727   7.503
 4875POPC   C1B63427  36.639  28.002   6.183
 4875POPC   C2B63428  36.403  28.018   6.609
 4875POPC   C3B63429  36.617  28.106   7.032
 4875POPC   C4B63430  36.617  27.955   7.480
 4876POPC   NC363431  35.571  31.012   5.659
 4876POPC   PO463432  35.635  30.375   5.382
 4876POPC   GL163433  35.565  30.497   5.821
 4876POPC   GL263434  35.204  30.565   5.772
 4876POPC   C1A63435  35.596  30.688   6.260
 4876POPC   D2A63436  35.423  30.571   6.665
 4876POPC   C3A63437  35.612  30.468   7.045
 4876POPC   C4A63438  35.423  30.792   7.240
 4876POPC   C1B63439  35.064  30.797   6.145
 4876POPC   C2B63440  34.975  30.808   6.586
 4876POPC   C3B63441  34.999  30.644   7.004
 4876POPC   C4B63442  34.954  30.585   7.451
 4877POPC   NC363443  39.789  38.640   5.433
 4877POPC   PO463444  40.321  38.490   5.263
 4877POPC   GL163445  40.166  38.486   5.758
 4877POPC   GL263446  39.816  38.345   5.853
 4877POPC   C1A63447  40.064  38.565   6.238
 4877POPC   D2A63448  40.012  38.263   6.590
 4877POPC   C3A63449  40.153  38.366   7.009
 4877POPC   C4A63450  40.214  38.170   7.408
 4877POPC   C1B63451  39.557  38.552   6.196
 4877POPC   C2B63452  39.658  38.639   6.605
 4877POPC   C3B63453  39.636  38.587   7.058
 4877POPC   C4B63454  39.693  38.199   7.296
 4878POPC   NC363455  29.149  30.135   5.283
 4878POPC   PO463456  28.865  29.474   5.385
 4878POPC   GL163457  29.161  29.716   5.717
 4878POPC   GL263458  28.979  30.010   5.749
 4878POPC   C1A63459  29.266  29.924   6.164
 4878POPC   D2A63460  29.091  29.818   6.587
 4878POPC   C3A63461  29.279  29.807   7.015
 4878POPC   C4A63462  29.312  29.724   7.484
 4878POPC   C1B63463  28.846  30.253   6.084
 4878POPC   C2B63464  28.793  30.329   6.508
 4878POPC   C3B63465  28.742  30.079   6.854
 4878POPC   C4B63466  28.892  30.066   7.226
 4879POPC   NC363467   7.151  40.832   5.457
 4879POPC   PO463468   7.735  41.193   5.403
 4879POPC   GL163469   7.599  40.983   5.823
 4879POPC   GL263470   7.630  40.605   5.860
 4879POPC   C1A63471   7.325  40.865   6.218
 4879POPC   D2A63472   7.354  40.756   6.692
 4879POPC   C3A63473   7.135  40.787   7.104
 4879POPC   C4A63474   7.207  41.068   7.486
 4879POPC   C1B63475   7.866  40.582   6.252
 4879POPC   C2B63476   7.769  40.428   6.668
 4879POPC   C3B63477   7.609  40.524   7.068
 4879POPC   C4B63478   7.465  40.611   7.459
 4880POPC   NC363479  12.455  10.541   5.304
 4880POPC   PO463480  11.832  10.614   5.254
 4880POPC   GL163481  11.994  10.610   5.738
 4880POPC   GL263482  12.343  10.721   5.781
 4880POPC   C1A63483  11.980  10.819   6.180
 4880POPC   D2A63484  11.779  10.722   6.598
 4880POPC   C3A63485  12.045  10.749   6.970
 4880POPC   C4A63486  12.060  10.515   7.380
 4880POPC   C1B63487  12.422  10.534   6.192
 4880POPC   C2B63488  12.251  10.427   6.600
 4880POPC   C3B63489  12.381  10.334   7.031
 4880POPC   C4B63490  12.182  10.015   7.255
 4881POPC   NC363491  25.252  39.577   5.329
 4881POPC   PO463492  24.921  38.966   5.228
 4881POPC   GL163493  25.177  39.078   5.644
 4881POPC   GL263494  25.279  39.371   5.801
 4881POPC   C1A63495  25.294  38.924   6.090
 4881POPC   D2A63496  25.226  38.791   6.536
 4881POPC   C3A63497  25.321  39.094   6.866
 4881POPC   C4A63498  25.055  39.204   7.238
 4881POPC   C1B63499  25.605  39.403   6.147
 4881POPC   C2B63500  25.588  39.489   6.611
 4881POPC   C3B63501  25.344  39.582   7.008
 4881POPC   C4B63502  25.519  39.429   7.399
 4882POPC   NC363503   9.810  20.157   5.214
 4882POPC   PO463504   9.844  20.793   5.152
 4882POPC   GL163505   9.740  20.645   5.587
 4882POPC   GL263506   9.540  20.903   5.723
 4882POPC   C1A63507   9.757  20.547   6.066
 4882POPC   D2A63508   9.647  20.612   6.509
 4882POPC   C3A63509   9.570  20.438   6.927
 4882POPC   C4A63510   9.782  20.450   7.357
 4882POPC   C1B63511   9.551  21.001   6.174
 4882POPC   C2B63512   9.622  21.109   6.610
 4882POPC   C3B63513   9.794  20.885   6.979
 4882POPC   C4B63514   9.690  20.942   7.402
 4883POPC   NC363515  36.543   1.073   5.287
 4883POPC   PO463516  36.949   1.546   5.575
 4883POPC   GL163517  37.090   1.310   5.856
 4883POPC   GL263518  37.016   0.972   5.789
 4883POPC   C1A63519  36.933   1.224   6.231
 4883POPC   D2A63520  36.803   1.402   6.610
 4883POPC   C3A63521  37.014   1.277   6.993
 4883POPC   C4A63522  36.979   1.369   7.430
 4883POPC   C1B63523  37.158   0.762   6.173
 4883POPC   C2B63524  37.008   0.852   6.599
 4883POPC   C3B63525  36.628   0.942   6.827
 4883POPC   C4B63526  36.704   0.956   7.268
 4884POPC   NC363527   2.445  11.420   5.167
 4884POPC   PO463528   1.813  11.189   5.355
 4884POPC   GL163529   1.990  11.240   5.792
 4884POPC   GL263530   1.983  11.606   5.834
 4884POPC   C1A63531   2.164  11.321   6.240
 4884POPC   D2A63532   2.331  11.454   6.661
 4884POPC   C3A63533   2.117  11.338   7.065
 4884POPC   C4A63534   1.852  11.303   7.455
 4884POPC   C1B63535   1.746  11.630   6.229
 4884POPC   C2B63536   1.817  11.436   6.624
 4884POPC   C3B63537   1.621  11.438   7.008
 4884POPC   C4B63538   1.555  11.691   7.366
 4885POPC   NC363539   7.235  21.525   5.388
 4885POPC   PO463540   7.861  21.296   5.508
 4885POPC   GL163541   7.666  21.140   5.858
 4885POPC   GL263542   7.326  21.225   5.814
 4885POPC   C1A63543   7.583  21.268   6.291
 4885POPC   D2A63544   7.284  21.360   6.627
 4885POPC   C3A63545   7.389  21.576   7.014
 4885POPC   C4A63546   7.742  21.766   7.250
 4885POPC   C1B63547   7.082  21.092   6.181
 4885POPC   C2B63548   7.027  20.922   6.613
 4885POPC   C3B63549   6.944  21.193   6.994
 4885POPC   C4B63550   6.921  21.558   7.262
 4886POPC   NC363551  25.446  14.050   5.415
 4886POPC   PO463552  25.134  13.510   5.258
 4886POPC   GL163553  25.223  13.689   5.695
 4886POPC   GL263554  24.991  13.896   5.844
 4886POPC   C1A63555  25.398  13.771   6.127
 4886POPC   D2A63556  25.444  13.576   6.536
 4886POPC   C3A63557  25.448  13.872   6.838
 4886POPC   C4A63558  25.114  14.003   7.093
 4886POPC   C1B63559  24.953  13.493   6.122
 4886POPC   C2B63560  24.963  13.340   6.559
 4886POPC   C3B63561  25.143  13.459   6.963
 4886POPC   C4B63562  24.910  13.347   7.340
 4887POPC   NC363563   3.516  39.474   5.472
 4887POPC   PO463564   3.236  38.852   5.486
 4887POPC   GL163565   3.388  39.099   5.822
 4887POPC   GL263566   3.731  39.086   5.788
 4887POPC   C1A63567   3.501  39.174   6.263
 4887POPC   D2A63568   3.689  39.487   6.543
 4887POPC   C3A63569   3.549  39.411   6.938
 4887POPC   C4A63570   3.344  39.428   7.302
 4887POPC   C1B63571   3.928  38.878   6.134
 4887POPC   C2B63572   3.935  38.999   6.559
 4887POPC   C3B63573   3.661  38.925   6.887
 4887POPC   C4B63574   3.668  39.029   7.285
 4888POPC   NC363575   0.898  17.531   5.482
 4888POPC   PO463576   1.392  18.067   5.421
 4888POPC   GL163577   1.342  17.729   5.793
 4888POPC   GL263578   1.270  17.377   5.799
 4888POPC   C1A63579   1.480  17.518   6.222
 4888POPC   D2A63580   1.572  17.487   6.668
 4888POPC   C3A63581   1.290  17.675   6.956
 4888POPC   C4A63582   1.336  17.854   7.383
 4888POPC   C1B63583   0.987  17.477   6.122
 4888POPC   C2B63584   1.046  17.507   6.540
 4888POPC   C3B63585   0.890  17.380   6.956
 4888POPC   C4B63586   1.066  17.435   7.348
 4889POPC   NC363587  39.563   4.721   5.089
 4889POPC   PO463588  39.206   4.179   5.250
 4889POPC   GL163589  39.227   4.282   5.732
 4889POPC   GL263590  38.971   4.577   5.817
 4889POPC   C1A63591  39.406   4.095   6.113
 4889POPC   D2A63592  39.229   4.030   6.529
 4889POPC   C3A63593  39.511   4.094   6.894
 4889POPC   C4A63594  39.428   4.087   7.340
 4889POPC   C1B63595  39.159   4.528   6.218
 4889POPC   C2B63596  39.045   4.529   6.647
 4889POPC   C3B63597  39.203   4.498   7.073
 4889POPC   C4B63598  39.189   4.492   7.532
 4890POPC   NC363599  37.568  41.212   5.415
 4890POPC   PO463600  37.825  40.627   5.430
 4890POPC   GL163601  37.678  40.817   5.781
 4890POPC   GL263602  37.923  41.045   5.778
 4890POPC   C1A63603  37.585  40.698   6.211
 4890POPC   D2A63604  37.422  40.671   6.635
 4890POPC   C3A63605  37.725  40.651   6.927
 4890POPC   C4A63606  37.619  40.613   7.330
 4890POPC   C1B63607  38.049  41.137   6.163
 4890POPC   C2B63608  37.882  40.996   6.543
 4890POPC   C3B63609  38.113  40.980   6.910
 4890POPC   C4B63610  38.051  41.130   7.298
 4891POPC   NC363611  13.214  15.880   5.221
 4891POPC   PO463612  12.574  15.632   5.431
 4891POPC   GL163613  12.794  15.774   5.812
 4891POPC   GL263614  12.620  16.078   5.826
 4891POPC   C1A63615  13.035  15.783   6.263
 4891POPC   D2A63616  13.165  15.528   6.594
 4891POPC   C3A63617  13.102  15.719   6.952
 4891POPC   C4A63618  13.014  16.094   7.122
 4891POPC   C1B63619  12.561  15.979   6.255
 4891POPC   C2B63620  12.780  16.085   6.639
 4891POPC   C3B63621  12.724  16.444   6.912
 4891POPC   C4B63622  12.543  16.371   7.327
 4892POPC   NC363623  41.269  34.938   5.328
 4892POPC   PO463624  40.629  35.303   5.370
 4892POPC   GL163625  40.963  35.306   5.707
 4892POPC   GL263626  41.040  35.661   5.814
 4892POPC   C1A63627  40.964  35.304   6.185
 4892POPC   D2A63628  40.709  35.370   6.565
 4892POPC   C3A63629  40.867  35.299   6.969
 4892POPC   C4A63630  40.630  35.025   7.242
 4892POPC   C1B63631  40.602  35.598   5.975
 4892POPC   C2B63632  40.403  35.711   6.349
 4892POPC   C3B63633  40.398  35.745   6.804
 4892POPC   C4B63634  40.470  35.561   7.195
 4893POPC   NC363635   4.451  31.979   5.337
 4893POPC   PO463636   3.913  32.325   5.356
 4893POPC   GL163637   4.305  32.330   5.666
 4893POPC   GL263638   4.308  32.631   5.836
 4893POPC   C1A63639   4.475  32.055   6.015
 4893POPC   D2A63640   4.456  32.007   6.475
 4893POPC   C3A63641   4.443  32.266   6.843
 4893POPC   C4A63642   4.421  32.113   7.282
 4893POPC   C1B63643   4.208  32.423   6.241
 4893POPC   C2B63644   3.965  32.217   6.590
 4893POPC   C3B63645   3.972  32.230   7.049
 4893POPC   C4B63646   4.192  32.569   7.246
 4894POPC   NC363647   7.919   6.166   5.614
 4894POPC   PO463648   7.593   6.738   5.354
 4894POPC   GL163649   7.582   6.525   5.765
 4894POPC   GL263650   7.722   6.825   5.896
 4894POPC   C1A63651   7.554   6.375   6.202
 4894POPC   D2A63652   7.740   6.397   6.595
 4894POPC   C3A63653   7.555   6.488   6.949
 4894POPC   C4A63654   7.166   6.390   7.117
 4894POPC   C1B63655   7.695   6.880   6.359
 4894POPC   C2B63656   7.831   6.899   6.772
 4894POPC   C3B63657   7.645   6.926   7.198
 4894POPC   C4B63658   7.646   6.889   7.643
 4895POPC   NC363659  39.662   8.330   5.487
 4895POPC   PO463660  40.137   8.054   5.247
 4895POPC   GL163661  40.042   8.046   5.709
 4895POPC   GL263662  39.774   7.864   5.776
 4895POPC   C1A63663  39.881   8.202   6.144
 4895POPC   D2A63664  39.960   8.114   6.612
 4895POPC   C3A63665  39.829   8.373   7.019
 4895POPC   C4A63666  39.760   8.504   7.474
 4895POPC   C1B63667  39.776   7.713   6.207
 4895POPC   C2B63668  39.635   7.695   6.633
 4895POPC   C3B63669  39.759   7.860   7.022
 4895POPC   C4B63670  39.953   8.018   7.414
 4896POPC   NC363671  43.853  33.394   5.083
 4896POPC   PO463672  43.667  32.876   5.493
 4896POPC   GL163673  43.777  32.916   5.887
 4896POPC   GL263674  43.606  33.255   5.967
 4896POPC   C1A63675  43.761  32.719   6.255
 4896POPC   D2A63676  43.754  32.467   6.596
 4896POPC   C3A63677  43.847  32.689   6.968
 4896POPC   C4A63678  43.776  33.008   7.261
 4896POPC   C1B63679  43.981  33.216   6.241
 4896POPC   C2B63680  44.110  32.937   6.556
 4896POPC   C3B63681  44.262  32.975   6.922
 4896POPC   C4B63682  44.222  33.284   7.213
 4897POPC   NC363683  15.662  44.463   5.646
 4897POPC   PO463684  16.181  44.904   5.343
 4897POPC   GL163685  16.074  44.742   5.763
 4897POPC   GL263686  15.799  44.884   5.928
 4897POPC   C1A63687  16.205  44.788   6.227
 4897POPC   D2A63688  16.221  44.537   6.613
 4897POPC   C3A63689  16.008  44.585   6.990
 4897POPC   C4A63690  15.645  44.373   7.188
 4897POPC   C1B63691  15.735  44.661   6.313
 4897POPC   C2B63692  15.827  44.931   6.668
 4897POPC   C3B63693  15.639  44.946   7.086
 4897POPC   C4B63694  15.549  44.767   7.496
 4898POPC   NC363695  38.309  38.133   5.208
 4898POPC   PO463696  38.483  37.513   5.354
 4898POPC   GL163697  38.441  37.816   5.710
 4898POPC   GL263698  38.438  37.522   5.899
 4898POPC   C1A63699  38.559  37.913   6.205
 4898POPC   D2A63700  38.445  37.768   6.665
 4898POPC   C3A63701  38.592  37.815   7.120
 4898POPC   C4A63702  38.472  37.844   7.581
 4898POPC   C1B63703  38.345  37.386   6.312
 4898POPC   C2B63704  38.186  37.118   6.639
 4898POPC   C3B63705  38.165  37.150   7.060
 4898POPC   C4B63706  38.386  37.386   7.344
 4899POPC   NC363707  41.971  35.344   5.597
 4899POPC   PO463708  42.553  35.433   5.317
 4899POPC   GL163709  42.429  35.377   5.793
 4899POPC   GL263710  42.302  35.077   5.885
 4899POPC   C1A63711  42.263  35.465   6.220
 4899POPC   D2A63712  42.116  35.576   6.629
 4899POPC   C3A63713  42.347  35.301   6.854
 4899POPC   C4A63714  42.601  35.241   7.181
 4899POPC   C1B63715  41.948  35.031   6.166
 4899POPC   C2B63716  41.787  35.122   6.567
 4899POPC   C3B63717  41.908  34.960   6.957
 4899POPC   C4B63718  42.103  35.174   7.295
 4900POPC   NC363719   5.153  29.759   5.609
 4900POPC   PO463720   5.408  29.095   5.519
 4900POPC   GL163721   5.123  29.288   5.825
 4900POPC   GL263722   4.759  29.220   5.844
 4900POPC   C1A63723   5.150  29.412   6.260
 4900POPC   D2A63724   5.306  29.553   6.656
 4900POPC   C3A63725   5.209  29.270   6.964
 4900POPC   C4A63726   5.078  28.808   7.018
 4900POPC   C1B63727   4.639  29.355   6.270
 4900POPC   C2B63728   4.746  29.201   6.681
 4900POPC   C3B63729   4.742  29.171   7.124
 4900POPC   C4B63730   4.988  29.361   7.423
 4901POPC   NC363731  35.103  41.419   5.200
 4901POPC   PO463732  35.571  41.659   5.632
 4901POPC   GL163733  35.259  41.485   5.712
 4901POPC   GL263734  35.129  41.794   5.872
 4901POPC   C1A63735  35.199  41.311   6.120
 4901POPC   D2A63736  35.280  41.357   6.563
 4901POPC   C3A63737  35.574  41.609   6.711
 4901POPC   C4A63738  35.609  41.669   7.111
 4901POPC   C1B63739  35.325  41.802   6.260
 4901POPC   C2B63740  35.082  41.846   6.619
 4901POPC   C3B63741  35.097  41.770   7.042
 4901POPC   C4B63742  35.007  41.946   7.438
 4902POPC   NC363743  40.968  28.235   5.224
 4902POPC   PO463744  41.641  28.236   5.167
 4902POPC   GL163745  41.791  28.232   5.653
 4902POPC   GL263746  41.787  28.572   5.745
 4902POPC   C1A63747  41.647  28.177   6.140
 4902POPC   D2A63748  41.330  28.325   6.505
 4902POPC   C3A63749  41.255  28.127   6.947
 4902POPC   C4A63750  41.461  27.985   7.330
 4902POPC   C1B63751  41.507  28.651   6.122
 4902POPC   C2B63752  41.635  28.727   6.528
 4902POPC   C3B63753  41.627  28.510   6.927
 4902POPC   C4B63754  41.455  28.546   7.327
 4903POPC   NC363755  19.251  31.896   5.446
 4903POPC   PO463756  18.968  31.318   5.496
 4903POPC   GL163757  19.030  31.585   5.850
 4903POPC   GL263758  19.389  31.651   5.885
 4903POPC   C1A63759  18.826  31.501   6.254
 4903POPC   D2A63760  18.823  31.649   6.699
 4903POPC   C3A63761  18.864  31.343   7.040
 4903POPC   C4A63762  18.950  31.414   7.464
 4903POPC   C1B63763  19.336  31.424   6.284
 4903POPC   C2B63764  19.277  31.374   6.745
 4903POPC   C3B63765  19.374  31.252   7.193
 4903POPC   C4B63766  19.385  31.176   7.675
 4904POPC   NC363767  44.726  37.081   5.565
 4904POPC   PO463768  44.692  36.431   5.389
 4904POPC   GL163769  44.649  36.612   5.805
 4904POPC   GL263770  44.375  36.861   5.860
 4904POPC   C1A63771  44.728  36.767   6.240
 4904POPC   D2A63772  44.625  36.603   6.646
 4904POPC   C3A63773  44.899  36.686   7.011
 4904POPC   C4A63774  44.694  36.564   7.404
 4904POPC   C1B63775  44.363  37.150   6.230
 4904POPC   C2B63776  44.387  37.060   6.688
 4904POPC   C3B63777  44.483  36.962   7.141
 4904POPC   C4B63778  44.407  36.940   7.616
 4905POPC   NC363779  35.361  13.588   5.449
 4905POPC   PO463780  35.112  12.949   5.505
 4905POPC   GL163781  35.224  12.812   5.885
 4905POPC   GL263782  34.969  12.566   5.889
 4905POPC   C1A63783  35.518  12.937   6.214
 4905POPC   D2A63784  35.701  13.095   6.596
 4905POPC   C3A63785  35.383  13.133   6.898
 4905POPC   C4A63786  35.246  13.034   7.334
 4905POPC   C1B63787  35.212  12.505   6.279
 4905POPC   C2B63788  35.365  12.676   6.656
 4905POPC   C3B63789  35.180  12.648   7.027
 4905POPC   C4B63790  35.249  12.551   7.469
 4906POPC   NC363791  21.590  44.169   5.486
 4906POPC   PO463792  21.122  44.672   5.422
 4906POPC   GL163793  21.328  44.519   5.799
 4906POPC   GL263794  21.695  44.576   5.803
 4906POPC   C1A63795  21.394  44.731   6.203
 4906POPC   D2A63796  21.191  44.811   6.593
 4906POPC   C3A63797  21.381  44.610   6.960
 4906POPC   C4A63798  21.186  44.649   7.369
 4906POPC   C1B63799  21.787  44.323   6.170
 4906POPC   C2B63800  21.659  44.161   6.575
 4906POPC   C3B63801  21.537  44.088   6.998
 4906POPC   C4B63802  21.597  44.359   7.353
 4907POPC   NC363803  22.114   2.336   5.304
 4907POPC   PO463804  22.126   1.699   5.266
 4907POPC   GL163805  22.016   1.938   5.665
 4907POPC   GL263806  22.305   2.041   5.888
 4907POPC   C1A63807  21.841   2.001   6.102
 4907POPC   D2A63808  21.738   1.779   6.504
 4907POPC   C3A63809  21.817   1.912   6.914
 4907POPC   C4A63810  21.990   1.886   7.353
 4907POPC   C1B63811  22.379   1.947   6.305
 4907POPC   C2B63812  22.287   1.847   6.723
 4907POPC   C3B63813  22.449   1.881   7.135
 4907POPC   C4B63814  22.496   1.962   7.599
 4908POPC   NC363815  10.770   6.440   5.448
 4908POPC   PO463816  10.290   6.884   5.417
 4908POPC   GL163817  10.590   6.805   5.781
 4908POPC   GL263818  10.906   6.995   5.878
 4908POPC   C1A63819  10.576   6.708   6.211
 4908POPC   D2A63820  10.320   6.708   6.581
 4908POPC   C3A63821  10.553   6.466   6.847
 4908POPC   C4A63822  10.742   6.459   7.238
 4908POPC   C1B63823  10.895   7.111   6.315
 4908POPC   C2B63824  10.785   6.924   6.729
 4908POPC   C3B63825  10.735   6.966   7.193
 4908POPC   C4B63826  10.714   6.840   7.615
 4909POPC   NC363827  11.293  17.446   5.377
 4909POPC   PO463828  11.657  16.929   5.510
 4909POPC   GL163829  11.565  17.334   5.806
 4909POPC   GL263830  11.586  17.724   5.716
 4909POPC   C1A63831  11.304  17.340   6.236
 4909POPC   D2A63832  11.286  17.625   6.635
 4909POPC   C3A63833  11.255  17.377   7.033
 4909POPC   C4A63834  11.089  17.185   7.447
 4909POPC   C1B63835  11.580  17.752   6.169
 4909POPC   C2B63836  11.837  17.712   6.551
 4909POPC   C3B63837  11.708  17.707   6.978
 4909POPC   C4B63838  11.357  17.898   7.114
 4910POPC   NC363839  28.454  23.582   5.148
 4910POPC   PO463840  28.520  24.209   5.433
 4910POPC   GL163841  28.453  23.888   5.711
 4910POPC   GL263842  28.194  24.077   5.876
 4910POPC   C1A63843  28.495  23.757   6.146
 4910POPC   D2A63844  28.366  23.731   6.592
 4910POPC   C3A63845  28.627  23.798   6.961
 4910POPC   C4A63846  28.852  23.496   7.190
 4910POPC   C1B63847  28.109  24.165   6.306
 4910POPC   C2B63848  27.926  23.977   6.679
 4910POPC   C3B63849  28.081  23.796   7.070
 4910POPC   C4B63850  28.373  23.716   7.441
 4911POPC   NC363851   3.092  20.955   5.395
 4911POPC   PO463852   2.708  20.396   5.297
 4911POPC   GL163853   2.718  20.713   5.681
 4911POPC   GL263854   3.041  20.696   5.843
 4911POPC   C1A63855   2.696  20.894   6.133
 4911POPC   D2A63856   3.007  20.812   6.481
 4911POPC   C3A63857   2.802  20.882   6.871
 4911POPC   C4A63858   2.758  20.799   7.292
 4911POPC   C1B63859   2.859  20.391   6.170
 4911POPC   C2B63860   2.674  20.204   6.580
 4911POPC   C3B63861   2.745  20.363   7.016
 4911POPC   C4B63862   2.966  20.350   7.432
 4912POPC   NC363863  18.900  34.916   5.303
 4912POPC   PO463864  19.303  34.360   5.239
 4912POPC   GL163865  19.317  34.687   5.581
 4912POPC   GL263866  18.976  34.685   5.740
 4912POPC   C1A63867  19.403  34.719   6.049
 4912POPC   D2A63868  19.280  34.454   6.417
 4912POPC   C3A63869  19.347  34.591   6.863
 4912POPC   C4A63870  19.212  34.393   7.278
 4912POPC   C1B63871  18.831  34.582   6.144
 4912POPC   C2B63872  18.887  34.754   6.557
 4912POPC   C3B63873  18.824  34.501   6.897
 4912POPC   C4B63874  18.678  34.569   7.294
 4913POPC   NC363875  41.293  14.199   5.684
 4913POPC   PO463876  41.955  14.268   5.656
 4913POPC   GL163877  41.678  14.425   5.929
 4913POPC   GL263878  41.603  14.763   5.805
 4913POPC   C1A63879  41.510  14.244   6.322
 4913POPC   D2A63880  41.684  13.991   6.646
 4913POPC   C3A63881  41.743  14.285   6.958
 4913POPC   C4A63882  41.749  14.305   7.367
 4913POPC   C1B63883  41.526  14.755   6.266
 4913POPC   C2B63884  41.433  14.617   6.699
 4913POPC   C3B63885  41.397  14.634   7.153
 4913POPC   C4B63886  41.391  14.782   7.574
 4914POPC   NC363887  40.096  34.031   5.250
 4914POPC   PO463888  40.169  33.331   5.278
 4914POPC   GL163889  40.110  33.627   5.659
 4914POPC   GL263890  39.834  33.844   5.670
 4914POPC   C1A63891  39.988  33.528   6.122
 4914POPC   D2A63892  39.935  33.778   6.521
 4914POPC   C3A63893  39.974  33.662   6.917
 4914POPC   C4A63894  40.121  33.821   7.285
 4914POPC   C1B63895  39.802  33.997   6.088
 4914POPC   C2B63896  39.485  34.027   6.433
 4914POPC   C3B63897  39.525  33.922   6.859
 4914POPC   C4B63898  39.633  33.992   7.258
 4915POPC   NC363899  23.927  37.399   5.370
 4915POPC   PO463900  23.365  37.852   5.311
 4915POPC   GL163901  23.503  37.611   5.669
 4915POPC   GL263902  23.794  37.838   5.644
 4915POPC   C1A63903  23.436  37.581   6.141
 4915POPC   D2A63904  23.396  37.871   6.529
 4915POPC   C3A63905  23.402  37.734   6.969
 4915POPC   C4A63906  23.467  37.778   7.424
 4915POPC   C1B63907  23.967  37.642   6.011
 4915POPC   C2B63908  23.863  37.629   6.464
 4915POPC   C3B63909  23.874  37.475   6.894
 4915POPC   C4B63910  23.699  37.334   7.262
 4916POPC   NC363911  43.423  43.308   5.382
 4916POPC   PO463912  42.870  42.921   5.362
 4916POPC   GL163913  43.129  42.962   5.744
 4916POPC   GL263914  43.380  43.203   5.895
 4916POPC   C1A63915  42.939  43.011   6.154
 4916POPC   D2A63916  42.805  43.254   6.499
 4916POPC   C3A63917  42.958  43.051   6.861
 4916POPC   C4A63918  42.910  43.028   7.260
 4916POPC   C1B63919  43.373  43.218   6.373
 4916POPC   C2B63920  43.258  43.440   6.742
 4916POPC   C3B63921  43.185  43.469   7.180
 4916POPC   C4B63922  43.435  43.388   7.540
 4917POPC   NC363923   3.791  15.284   5.075
 4917POPC   PO463924   3.388  15.093   5.587
 4917POPC   GL163925   3.586  15.204   5.913
 4917POPC   GL263926   3.709  14.901   6.002
 4917POPC   C1A63927   3.476  15.217   6.338
 4917POPC   D2A63928   3.373  15.416   6.689
 4917POPC   C3A63929   3.471  15.261   7.097
 4917POPC   C4A63930   3.251  15.401   7.449
 4917POPC   C1B63931   3.960  15.093   6.276
 4917POPC   C2B63932   3.892  15.267   6.690
 4917POPC   C3B63933   3.954  15.071   7.081
 4917POPC   C4B63934   3.811  15.158   7.519
 4918POPC   NC363935   4.967  31.259   5.571
 4918POPC   PO463936   4.874  30.604   5.305
 4918POPC   GL163937   4.954  30.708   5.755
 4918POPC   GL263938   4.790  30.497   6.008
 4918POPC   C1A63939   4.972  30.930   6.173
 4918POPC   D2A63940   5.102  31.047   6.600
 4918POPC   C3A63941   4.908  30.824   6.924
 4918POPC   C4A63942   4.920  30.809   7.353
 4918POPC   C1B63943   5.025  30.379   6.373
 4918POPC   C2B63944   4.870  30.278   6.785
 4918POPC   C3B63945   5.080  30.336   7.175
 4918POPC   C4B63946   4.955  30.327   7.616
 4919POPC   NC363947   3.537   7.804   5.478
 4919POPC   PO463948   3.240   8.465   5.492
 4919POPC   GL163949   3.336   8.139   5.809
 4919POPC   GL263950   3.703   8.035   5.905
 4919POPC   C1A63951   3.277   7.970   6.227
 4919POPC   D2A63952   3.079   7.984   6.619
 4919POPC   C3A63953   3.359   8.042   6.954
 4919POPC   C4A63954   3.412   8.434   7.121
 4919POPC   C1B63955   3.612   8.406   6.179
 4919POPC   C2B63956   3.847   8.568   6.534
 4919POPC   C3B63957   3.911   8.385   6.915
 4919POPC   C4B63958   3.847   8.604   7.263
 4920POPC   NC363959  31.405  37.238   5.569
 4920POPC   PO463960  31.720  36.597   5.466
 4920POPC   GL163961  31.576  36.805   5.834
 4920POPC   GL263962  31.219  36.828   5.849
 4920POPC   C1A63963  31.521  36.871   6.272
 4920POPC   D2A63964  31.674  36.984   6.646
 4920POPC   C3A63965  31.446  36.885   6.973
 4920POPC   C4A63966  31.511  36.793   7.382
 4920POPC   C1B63967  31.100  37.144   6.182
 4920POPC   C2B63968  31.177  37.174   6.626
 4920POPC   C3B63969  31.162  37.333   7.065
 4920POPC   C4B63970  31.294  37.249   7.509
 4921POPC   NC363971  29.552  43.900   5.567
 4921POPC   PO463972  29.147  44.524   5.391
 4921POPC   GL163973  29.002  44.750   5.762
 4921POPC   GL263974  29.338  44.910   5.770
 4921POPC   C1A63975  28.951  44.619   6.219
 4921POPC   D2A63976  29.251  44.535   6.569
 4921POPC   C3A63977  29.077  44.634   6.967
 4921POPC   C4A63978  29.259  44.495   7.382
 4921POPC   C1B63979  29.451  44.809   6.176
 4921POPC   C2B63980  29.610  44.977   6.540
 4921POPC   C3B63981  29.547  44.823   6.903
 4921POPC   C4B63982  29.552  44.919   7.298
 4922POPC   NC363983  10.058  14.986   5.271
 4922POPC   PO463984  10.804  15.313   5.285
 4922POPC   GL163985  10.649  15.135   5.708
 4922POPC   GL263986  10.287  15.102   5.720
 4922POPC   C1A63987  10.617  15.200   6.177
 4922POPC   D2A63988  10.602  15.112   6.621
 4922POPC   C3A63989  10.798  15.344   6.960
 4922POPC   C4A63990  10.745  15.420   7.448
 4922POPC   C1B63991  10.305  14.797   6.043
 4922POPC   C2B63992  10.356  14.669   6.488
 4922POPC   C3B63993  10.286  14.827   6.921
 4922POPC   C4B63994  10.395  15.132   7.228
 4923POPC   NC363995  30.878  34.467   5.320
 4923POPC   PO463996  30.275  34.769   5.390
 4923POPC   GL163997  30.550  34.595   5.670
 4923POPC   GL263998  30.888  34.747   5.753
 4923POPC   C1A63999  30.541  34.514   6.080
 4923POPC   D2A64000  30.497  34.643   6.487
 4923POPC   C3A64001  30.660  34.377   6.827
 4923POPC   C4A64002  30.694  34.464   7.265
 4923POPC   C1B64003  31.028  34.585   6.184
 4923POPC   C2B64004  30.996  34.744   6.619
 4923POPC   C3B64005  31.122  34.622   7.014
 4923POPC   C4B64006  31.066  34.173   7.105
 4924POPC   NC364007  19.799  11.605   5.514
 4924POPC   PO464008  20.017  12.240   5.342
 4924POPC   GL164009  20.036  12.029   5.719
 4924POPC   GL264010  20.227  11.735   5.816
 4924POPC   C1A64011  19.772  12.007   6.099
 4924POPC   D2A64012  19.637  12.321   6.410
 4924POPC   C3A64013  19.652  12.172   6.836
 4924POPC   C4A64014  19.743  12.283   7.233
 4924POPC   C1B64015  20.278  12.073   6.158
 4924POPC   C2B64016  20.098  12.137   6.565
 4924POPC   C3B64017  20.204  12.186   6.993
 4924POPC   C4B64018  20.263  11.936   7.333
 4925POPC   NC364019   5.714   0.061   5.178
 4925POPC   PO464020   6.135  44.580   5.306
 4925POPC   GL164021   6.014  44.711   5.750
 4925POPC   GL264022   5.686  44.873   5.764
 4925POPC   C1A64023   5.881  44.646   6.206
 4925POPC   D2A64024   5.998  44.817   6.635
 4925POPC   C3A64025   5.909  44.608   7.043
 4925POPC   C4A64026   5.664  44.625   7.428
 4925POPC   C1B64027   5.522   0.026   6.167
 4925POPC   C2B64028   5.452  44.883   6.602
 4925POPC   C3B64029   5.530  44.961   7.050
 4925POPC   C4B64030   5.787   0.170   7.366
 4926POPC   NC364031   7.042  39.947   5.639
 4926POPC   PO464032   6.425  39.753   5.392
 4926POPC   GL164033   6.507  40.010   5.759
 4926POPC   GL264034   6.647  39.851   6.053
 4926POPC   C1A64035   6.275  40.184   6.125
 4926POPC   D2A64036   6.478  40.077   6.514
 4926POPC   C3A64037   6.483  40.090   6.944
 4926POPC   C4A64038   6.670  39.756   7.140
 4926POPC   C1B64039   6.801  40.279   6.178
 4926POPC   C2B64040   7.116  40.357   6.494
 4926POPC   C3B64041   7.145  40.296   6.966
 4926POPC   C4B64042   6.957  40.145   7.373
 4927POPC   NC364043  44.942   3.140   5.486
 4927POPC   PO464044  44.616   2.617   5.535
 4927POPC   GL164045  44.593   2.816   5.923
 4927POPC   GL264046  44.550   3.155   5.848
 4927POPC   C1A64047  44.633   2.758   6.376
 4927POPC   D2A64048  44.916   2.548   6.671
 4927POPC   C3A64049  44.855   2.610   7.106
 4927POPC   C4A64050   0.037   2.335   7.384
 4927POPC   C1B64051  44.260   3.109   6.202
 4927POPC   C2B64052  44.179   2.929   6.617
 4927POPC   C3B64053  44.342   2.851   7.039
 4927POPC   C4B64054  44.495   2.958   7.451
 4928POPC   NC364055  31.169  23.499   5.446
 4928POPC   PO464056  31.702  23.965   5.350
 4928POPC   GL164057  31.759  23.979   5.799
 4928POPC   GL264058  31.470  23.757   5.810
 4928POPC   C1A64059  31.786  23.765   6.239
 4928POPC   D2A64060  31.709  23.471   6.598
 4928POPC   C3A64061  31.807  23.538   7.015
 4928POPC   C4A64062  31.680  23.916   7.178
 4928POPC   C1B64063  31.288  23.640   6.196
 4928POPC   C2B64064  31.096  23.737   6.554
 4928POPC   C3B64065  31.297  23.602   6.892
 4928POPC   C4B64066  31.302  23.360   7.232
 4929POPC   NC364067  37.421  10.952   5.036
 4929POPC   PO464068  37.822  11.551   5.158
 4929POPC   GL164069  37.695  11.292   5.572
 4929POPC   GL264070  37.434  10.992   5.582
 4929POPC   C1A64071  37.848  11.183   6.014
 4929POPC   D2A64072  37.985  11.237   6.462
 4929POPC   C3A64073  37.675  11.272   6.775
 4929POPC   C4A64074  37.641  11.556   7.128
 4929POPC   C1B64075  37.370  10.891   6.054
 4929POPC   C2B64076  37.181  10.918   6.510
 4929POPC   C3B64077  37.328  10.883   6.965
 4929POPC   C4B64078  37.679  11.043   7.235
 4930POPC   NC364079  32.593  16.482   5.784
 4930POPC   PO464080  33.003  16.825   5.364
 4930POPC   GL164081  33.059  16.749   5.780
 4930POPC   GL264082  33.259  16.443   5.778
 4930POPC   C1A64083  32.911  16.914   6.186
 4930POPC   D2A64084  33.102  17.067   6.559
 4930POPC   C3A64085  33.107  16.862   6.949
 4930POPC   C4A64086  32.759  16.739   7.236
 4930POPC   C1B64087  33.071  16.379   6.208
 4930POPC   C2B64088  32.856  16.496   6.606
 4930POPC   C3B64089  33.027  16.359   7.003
 4930POPC   C4B64090  33.452  16.466   7.074
 4931POPC   NC364091   1.220  30.074   5.363
 4931POPC   PO464092   1.126  29.472   5.448
 4931POPC   GL164093   1.233  29.619   5.851
 4931POPC   GL264094   1.138  29.972   5.858
 4931POPC   C1A64095   1.372  29.775   6.276
 4931POPC   D2A64096   1.157  29.908   6.655
 4931POPC   C3A64097   1.336  29.772   7.063
 4931POPC   C4A64098   1.172  29.911   7.471
 4931POPC   C1B64099   1.193  30.254   6.200
 4931POPC   C2B64100   1.201  30.449   6.602
 4931POPC   C3B64101   1.257  30.270   7.032
 4931POPC   C4B64102   1.591  30.194   7.335
 4932POPC   NC364103  28.741  24.666   5.399
 4932POPC   PO464104  29.323  24.276   5.497
 4932POPC   GL164105  29.125  24.537   5.788
 4932POPC   GL264106  29.418  24.654   5.962
 4932POPC   C1A64107  29.009  24.507   6.245
 4932POPC   D2A64108  29.113  24.220   6.616
 4932POPC   C3A64109  28.833  24.282   6.958
 4932POPC   C4A64110  28.760  24.622   7.213
 4932POPC   C1B64111  29.483  24.625   6.394
 4932POPC   C2B64112  29.233  24.804   6.683
 4932POPC   C3B64113  29.257  24.560   7.007
 4932POPC   C4B64114  29.570  24.240   7.012
 4933POPC   NC364115  30.972  14.577   5.418
 4933POPC   PO464116  30.527  14.013   5.368
 4933POPC   GL164117  30.626  14.301   5.698
 4933POPC   GL264118  30.960  14.196   5.753
 4933POPC   C1A64119  30.491  14.441   6.126
 4933POPC   D2A64120  30.597  14.197   6.517
 4933POPC   C3A64121  30.816  14.327   6.900
 4933POPC   C4A64122  30.573  14.528   7.228
 4933POPC   C1B64123  30.988  14.402   6.171
 4933POPC   C2B64124  30.970  14.687   6.535
 4933POPC   C3B64125  31.159  14.770   6.942
 4933POPC   C4B64126  31.071  14.510   7.358
 4934POPC   NC364127  24.198  36.613   5.102
 4934POPC   PO464128  23.639  36.959   5.361
 4934POPC   GL164129  23.694  37.083   5.756
 4934POPC   GL264130  23.540  36.764   5.856
 4934POPC   C1A64131  23.818  37.195   6.163
 4934POPC   D2A64132  24.084  37.152   6.517
 4934POPC   C3A64133  23.907  36.957   6.879
 4934POPC   C4A64134  23.998  36.908   7.282
 4934POPC   C1B64135  23.830  36.694   6.214
 4934POPC   C2B64136  23.749  36.498   6.591
 4934POPC   C3B64137  23.886  36.442   6.955
 4934POPC   C4B64138  23.670  36.525   7.315
 4935POPC   NC364139  41.451  23.093   5.375
 4935POPC   PO464140  41.430  22.549   5.616
 4935POPC   GL164141  41.495  22.911   5.882
 4935POPC   GL264142  41.763  23.153   5.794
 4935POPC   C1A64143  41.506  22.852   6.331
 4935POPC   D2A64144  41.595  22.998   6.734
 4935POPC   C3A64145  41.447  22.675   6.979
 4935POPC   C4A64146  41.291  22.748   7.359
 4935POPC   C1B64147  41.961  22.974   6.150
 4935POPC   C2B64148  42.087  23.062   6.567
 4935POPC   C3B64149  42.014  23.207   6.988
 4935POPC   C4B64150  41.746  22.988   7.283
 4936POPC   NC364151  18.185  35.064   5.443
 4936POPC   PO464152  18.582  34.540   5.344
 4936POPC   GL164153  18.254  34.591   5.662
 4936POPC   GL264154  18.472  34.826   5.824
 4936POPC   C1A64155  18.160  34.554   6.115
 4936POPC   D2A64156  18.420  34.529   6.491
 4936POPC   C3A64157  18.288  34.571   6.915
 4936POPC   C4A64158  18.267  34.276   7.237
 4936POPC   C1B64159  18.518  34.990   6.234
 4936POPC   C2B64160  18.433  35.057   6.683
 4936POPC   C3B64161  18.336  35.026   7.132
 4936POPC   C4B64162  18.197  34.718   7.476
 4937POPC   NC364163  10.861  23.416   5.491
 4937POPC   PO464164  11.522  23.621   5.330
 4937POPC   GL164165  11.283  23.761   5.710
 4937POPC   GL264166  11.547  23.964   5.892
 4937POPC   C1A64167  11.022  23.850   6.098
 4937POPC   D2A64168  10.861  23.856   6.557
 4937POPC   C3A64169  11.112  23.841   6.926
 4937POPC   C4A64170  11.097  24.042   7.324
 4937POPC   C1B64171  11.682  23.870   6.313
 4937POPC   C2B64172  11.540  24.032   6.700
 4937POPC   C3B64173  11.592  23.873   7.123
 4937POPC   C4B64174  11.828  23.542   7.376
 4938POPC   NC364175  42.603  38.061   5.411
 4938POPC   PO464176  41.974  37.777   5.346
 4938POPC   GL164177  42.004  37.661   5.764
 4938POPC   GL264178  42.348  37.778   5.753
 4938POPC   C1A64179  42.212  37.490   6.130
 4938POPC   D2A64180  42.483  37.613   6.480
 4938POPC   C3A64181  42.478  37.394   6.888
 4938POPC   C4A64182  42.202  37.368   7.253
 4938POPC   C1B64183  42.607  37.942   6.084
 4938POPC   C2B64184  42.679  38.105   6.518
 4938POPC   C3B64185  42.503  37.925   6.903
 4938POPC   C4B64186  42.652  37.911   7.308
 4939POPC   NC364187  34.944  37.425   5.328
 4939POPC   PO464188  34.493  37.861   5.298
 4939POPC   GL164189  34.762  37.730   5.697
 4939POPC   GL264190  34.528  37.489   5.833
 4939POPC   C1A64191  34.925  37.594   6.161
 4939POPC   D2A64192  34.747  37.643   6.587
 4939POPC   C3A64193  34.942  37.706   7.005
 4939POPC   C4A64194  34.586  37.863   7.284
 4939POPC   C1B64195  34.496  37.286   6.258
 4939POPC   C2B64196  34.350  37.318   6.717
 4939POPC   C3B64197  34.563  37.386   7.128
 4939POPC   C4B64198  34.434  37.314   7.591
 4940POPC   NC364199  42.033  30.649   5.621
 4940POPC   PO464200  42.642  30.594   5.332
 4940POPC   GL164201  42.499  30.901   5.679
 4940POPC   GL264202  42.431  30.665   5.902
 4940POPC   C1A64203  42.580  31.061   6.172
 4940POPC   D2A64204  42.791  31.045   6.627
 4940POPC   C3A64205  42.599  30.995   7.066
 4940POPC   C4A64206  42.244  31.036   7.380
 4940POPC   C1B64207  42.226  30.699   6.281
 4940POPC   C2B64208  42.426  30.599   6.651
 4940POPC   C3B64209  42.246  30.625   7.032
 4940POPC   C4B64210  42.342  30.555   7.443
 4941POPC   NC364211  35.240  30.111   5.326
 4941POPC   PO464212  35.449  29.537   5.650
 4941POPC   GL164213  35.126  29.707   5.899
 4941POPC   GL264214  35.264  30.047   5.854
 4941POPC   C1A64215  35.132  29.820   6.360
 4941POPC   D2A64216  35.461  30.000   6.623
 4941POPC   C3A64217  35.553  29.766   6.984
 4941POPC   C4A64218  35.609  29.967   7.335
 4941POPC   C1B64219  35.226  30.312   6.239
 4941POPC   C2B64220  35.025  30.262   6.650
 4941POPC   C3B64221  35.205  30.166   7.073
 4941POPC   C4B64222  35.053  30.072   7.499
 4942POPC   NC364223   8.586   4.472   5.321
 4942POPC   PO464224   9.208   4.151   5.307
 4942POPC   GL164225   9.036   4.226   5.717
 4942POPC   GL264226   8.804   4.497   5.782
 4942POPC   C1A64227   9.061   4.215   6.158
 4942POPC   D2A64228   8.910   4.347   6.529
 4942POPC   C3A64229   8.908   4.113   6.888
 4942POPC   C4A64230   9.118   4.317   7.261
 4942POPC   C1B64231   8.512   4.633   6.127
 4942POPC   C2B64232   8.488   4.673   6.575
 4942POPC   C3B64233   8.741   4.601   6.934
 4942POPC   C4B64234   8.783   4.759   7.312
 4943POPC   NC364235  43.985  26.185   5.415
 4943POPC   PO464236  44.158  25.525   5.303
 4943POPC   GL164237  44.030  25.738   5.684
 4943POPC   GL264238  43.710  25.890   5.748
 4943POPC   C1A64239  44.108  25.999   6.070
 4943POPC   D2A64240  43.953  25.877   6.466
 4943POPC   C3A64241  44.009  26.059   6.861
 4943POPC   C4A64242  44.166  26.101   7.249
 4943POPC   C1B64243  43.616  26.146   6.122
 4943POPC   C2B64244  43.695  26.328   6.546
 4943POPC   C3B64245  43.563  26.311   6.980
 4943POPC   C4B64246  43.627  25.934   7.223
 4944POPC   NC364247  20.033  44.990   5.601
 4944POPC   PO464248  19.456  44.769   5.310
 4944POPC   GL164249  19.635  44.661   5.747
 4944POPC   GL264250  19.905  44.431   5.805
 4944POPC   C1A64251  19.695  44.766   6.223
 4944POPC   D2A64252  19.458  44.659   6.629
 4944POPC   C3A64253  19.505  44.948   6.986
 4944POPC   C4A64254  19.645  44.864   7.406
 4944POPC   C1B64255  19.786  44.267   6.197
 4944POPC   C2B64256  19.929  44.416   6.583
 4944POPC   C3B64257  19.828  44.555   6.969
 4944POPC   C4B64258  19.895  44.409   7.331
 4945POPC   NC364259   6.515   7.173   5.686
 4945POPC   PO464260   6.987   7.524   5.233
 4945POPC   GL164261   6.882   7.566   5.702
 4945POPC   GL264262   7.008   7.283   5.880
 4945POPC   C1A64263   6.775   7.631   6.183
 4945POPC   D2A64264   6.585   7.455   6.566
 4945POPC   C3A64265   6.636   7.639   6.972
 4945POPC   C4A64266   6.645   7.570   7.423
 4945POPC   C1B64267   6.860   7.087   6.264
 4945POPC   C2B64268   6.717   6.941   6.661
 4945POPC   C3B64269   6.448   7.146   6.969
 4945POPC   C4B64270   6.430   7.057   7.392
 4946POPC   NC364271  15.090   8.382   5.434
 4946POPC   PO464272  15.401   7.838   5.434
 4946POPC   GL164273  15.086   8.014   5.790
 4946POPC   GL264274  14.811   8.325   5.848
 4946POPC   C1A64275  15.164   8.160   6.201
 4946POPC   D2A64276  15.334   7.969   6.541
 4946POPC   C3A64277  15.207   8.222   6.867
 4946POPC   C4A64278  15.253   8.167   7.282
 4946POPC   C1B64279  14.656   8.018   6.135
 4946POPC   C2B64280  14.823   7.839   6.509
 4946POPC   C3B64281  14.815   7.886   6.941
 4946POPC   C4B64282  14.760   7.985   7.367
 4947POPC   NC364283  34.128  34.080   5.302
 4947POPC   PO464284  33.685  33.562   5.341
 4947POPC   GL164285  33.694  33.758   5.787
 4947POPC   GL264286  33.947  34.016   5.803
 4947POPC   C1A64287  33.465  33.750   6.229
 4947POPC   D2A64288  33.467  33.807   6.716
 4947POPC   C3A64289  33.707  33.562   7.062
 4947POPC   C4A64290  33.900  33.638   7.526
 4947POPC   C1B64291  33.963  33.887   6.263
 4947POPC   C2B64292  34.008  33.904   6.711
 4947POPC   C3B64293  34.010  33.968   7.157
 4947POPC   C4B64294  34.134  34.149   7.564
 4948POPC   NC364295  44.097  40.858   5.385
 4948POPC   PO464296  43.506  40.595   5.399
 4948POPC   GL164297  43.708  40.785   5.721
 4948POPC   GL264298  43.961  40.564   5.793
 4948POPC   C1A64299  43.818  41.048   6.070
 4948POPC   D2A64300  43.843  40.920   6.493
 4948POPC   C3A64301  43.984  41.124   6.866
 4948POPC   C4A64302  43.934  40.947   7.260
 4948POPC   C1B64303  44.112  40.381   6.148
 4948POPC   C2B64304  44.148  40.483   6.541
 4948POPC   C3B64305  43.893  40.527   6.902
 4948POPC   C4B64306  44.101  40.477   7.322
 4949POPC   NC364307  30.363  27.369   5.423
 4949POPC   PO464308  29.864  27.907   5.345
 4949POPC   GL164309  29.841  27.628   5.734
 4949POPC   GL264310  30.200  27.587   5.887
 4949POPC   C1A64311  29.794  27.423   6.162
 4949POPC   D2A64312  29.981  27.533   6.555
 4949POPC   C3A64313  29.842  27.348   6.921
 4949POPC   C4A64314  29.853  27.624   7.264
 4949POPC   C1B64315  30.327  27.322   6.265
 4949POPC   C2B64316  30.345  27.206   6.746
 4949POPC   C3B64317  30.273  27.318   7.216
 4949POPC   C4B64318  30.389  27.229   7.673
 4950POPC   NC364319  36.116  32.381   5.240
 4950POPC   PO464320  36.578  32.026   5.585
 4950POPC   GL164321  36.347  32.190   5.933
 4950POPC   GL264322  36.076  32.343   5.774
 4950POPC   C1A64323  36.265  32.165   6.382
 4950POPC   D2A64324  36.351  32.401   6.801
 4950POPC   C3A64325  36.135  32.206   7.109
 4950POPC   C4A64326  35.870  31.848   7.047
 4950POPC   C1B64327  35.905  32.508   6.176
 4950POPC   C2B64328  35.874  32.402   6.616
 4950POPC   C3B64329  35.671  32.388   7.021
 4950POPC   C4B64330  35.780  32.355   7.484
 4951POPC   NC364331  16.889  18.330   5.240
 4951POPC   PO464332  16.586  17.922   5.557
 4951POPC   GL164333  16.894  18.087   5.867
 4951POPC   GL264334  16.948  18.425   5.776
 4951POPC   C1A64335  16.942  18.130   6.329
 4951POPC   D2A64336  16.708  17.923   6.626
 4951POPC   C3A64337  16.667  18.068   7.026
 4951POPC   C4A64338  16.286  18.039   7.231
 4951POPC   C1B64339  16.642  18.501   6.162
 4951POPC   C2B64340  16.580  18.435   6.648
 4951POPC   C3B64341  16.599  18.551   7.119
 4951POPC   C4B64342  16.914  18.668   7.445
 4952POPC   NC364343  30.752  18.586   5.531
 4952POPC   PO464344  30.833  19.206   5.348
 4952POPC   GL164345  30.691  19.197   5.770
 4952POPC   GL264346  30.405  18.951   5.721
 4952POPC   C1A64347  30.821  19.283   6.175
 4952POPC   D2A64348  30.661  19.252   6.581
 4952POPC   C3A64349  30.764  19.306   7.009
 4952POPC   C4A64350  31.042  19.048   7.235
 4952POPC   C1B64351  30.461  18.895   6.164
 4952POPC   C2B64352  30.664  18.701   6.508
 4952POPC   C3B64353  30.615  18.828   6.909
 4952POPC   C4B64354  30.468  18.857   7.298
 4953POPC   NC364355  19.393  23.474   5.466
 4953POPC   PO464356  20.010  23.665   5.479
 4953POPC   GL164357  19.764  23.588   5.839
 4953POPC   GL264358  19.581  23.852   5.784
 4953POPC   C1A64359  19.801  23.775   6.284
 4953POPC   D2A64360  19.828  23.938   6.737
 4953POPC   C3A64361  19.947  23.606   7.027
 4953POPC   C4A64362  20.267  23.386   7.265
 4953POPC   C1B64363  19.398  24.047   6.151
 4953POPC   C2B64364  19.330  23.874   6.557
 4953POPC   C3B64365  19.311  23.944   6.969
 4953POPC   C4B64366  19.620  23.905   7.255
 4954POPC   NC364367  42.865  39.840   5.391
 4954POPC   PO464368  43.491  39.812   5.517
 4954POPC   GL164369  43.135  40.045   5.789
 4954POPC   GL264370  42.738  40.043   5.832
 4954POPC   C1A64371  43.067  40.235   6.192
 4954POPC   D2A64372  43.162  40.244   6.638
 4954POPC   C3A64373  43.213  40.094   7.053
 4954POPC   C4A64374  43.408  39.733   7.222
 4954POPC   C1B64375  42.786  39.784   6.208
 4954POPC   C2B64376  42.754  39.855   6.667
 4954POPC   C3B64377  42.837  39.733   7.092
 4954POPC   C4B64378  42.977  39.828   7.500
 4955POPC   NC364379  20.884  14.759   5.680
 4955POPC   PO464380  20.175  14.794   5.470
 4955POPC   GL164381  20.441  14.502   5.814
 4955POPC   GL264382  20.471  14.120   5.835
 4955POPC   C1A64383  20.664  14.425   6.245
 4955POPC   D2A64384  20.698  14.545   6.700
 4955POPC   C3A64385  20.801  14.383   7.140
 4955POPC   C4A64386  20.871  14.425   7.641
 4955POPC   C1B64387  20.315  14.050   6.269
 4955POPC   C2B64388  20.519  14.041   6.668
 4955POPC   C3B64389  20.337  14.152   7.076
 4955POPC   C4B64390  20.547  14.096   7.473
 4956POPC   NC364391  44.628  34.931   5.262
 4956POPC   PO464392  44.493  34.265   5.329
 4956POPC   GL164393  44.613  34.414   5.733
 4956POPC   GL264394  44.682  34.758   5.724
 4956POPC   C1A64395  44.861  34.395   6.112
 4956POPC   D2A64396  44.778  34.264   6.525
 4956POPC   C3A64397  44.713  34.416   6.898
 4956POPC   C4A64398  44.434  34.559   7.186
 4956POPC   C1B64399  44.746  34.884   6.125
 4956POPC   C2B64400  44.836  34.793   6.511
 4956POPC   C3B64401  44.620  34.898   6.866
 4956POPC   C4B64402  44.878  34.862   7.249
 4957POPC   NC364403   5.887  37.193   5.254
 4957POPC   PO464404   5.472  36.804   5.578
 4957POPC   GL164405   5.639  36.998   5.861
 4957POPC   GL264406   5.952  37.000   5.729
 4957POPC   C1A64407   5.695  36.780   6.235
 4957POPC   D2A64408   5.846  36.941   6.604
 4957POPC   C3A64409   5.677  36.883   7.002
 4957POPC   C4A64410   5.483  36.576   7.206
 4957POPC   C1B64411   6.103  37.104   6.136
 4957POPC   C2B64412   6.188  37.321   6.525
 4957POPC   C3B64413   6.174  37.127   6.934
 4957POPC   C4B64414   6.190  36.897   7.318
 4958POPC   NC364415  23.146  14.915   5.326
 4958POPC   PO464416  22.682  14.549   5.654
 4958POPC   GL164417  22.868  14.706   5.955
 4958POPC   GL264418  22.646  14.988   6.024
 4958POPC   C1A64419  23.055  14.470   6.302
 4958POPC   D2A64420  23.004  14.057   6.530
 4958POPC   C3A64421  22.717  14.048   6.890
 4958POPC   C4A64422  22.719  14.400   7.184
 4958POPC   C1B64423  22.608  14.764   6.381
 4958POPC   C2B64424  22.730  14.509   6.688
 4958POPC   C3B64425  23.127  14.491   6.896
 4958POPC   C4B64426  23.148  14.872   7.142
 4959POPC   NC364427  35.743  14.398   5.337
 4959POPC   PO464428  36.342  14.699   5.311
 4959POPC   GL164429  36.188  14.375   5.668
 4959POPC   GL264430  36.208  14.605   5.909
 4959POPC   C1A64431  36.016  14.173   6.123
 4959POPC   D2A64432  36.207  14.252   6.587
 4959POPC   C3A64433  35.961  14.191   6.994
 4959POPC   C4A64434  35.820  14.197   7.406
 4959POPC   C1B64435  36.483  14.369   6.159
 4959POPC   C2B64436  36.634  14.526   6.548
 4959POPC   C3B64437  36.613  14.378   6.937
 4959POPC   C4B64438  36.369  14.356   7.243
 4960POPC   NC364439  21.050  17.217   5.522
 4960POPC   PO464440  20.497  17.657   5.181
 4960POPC   GL164441  20.443  17.637   5.672
 4960POPC   GL264442  20.792  17.609   5.821
 4960POPC   C1A64443  20.340  17.470   6.124
 4960POPC   D2A64444  20.150  17.387   6.535
 4960POPC   C3A64445  20.295  17.567   6.934
 4960POPC   C4A64446  20.375  17.323   7.310
 4960POPC   C1B64447  20.847  17.338   6.213
 4960POPC   C2B64448  20.658  17.274   6.596
 4960POPC   C3B64449  20.786  17.369   6.996
 4960POPC   C4B64450  21.093  17.392   7.345
 4961POPC   NC364451   0.339  14.911   5.531
 4961POPC   PO464452   0.482  15.481   5.349
 4961POPC   GL164453   0.333  15.356   5.778
 4961POPC   GL264454   0.644  15.255   5.802
 4961POPC   C1A64455   0.344  15.089   6.196
 4961POPC   D2A64456   0.312  14.862   6.630
 4961POPC   C3A64457   0.384  15.125   6.994
 4961POPC   C4A64458   0.381  15.340   7.394
 4961POPC   C1B64459   0.647  15.542   6.165
 4961POPC   C2B64460   0.576  15.373   6.574
 4961POPC   C3B64461   0.851  15.304   6.943
 4961POPC   C4B64462   0.840  14.951   7.186
 4962POPC   NC364463  28.906  27.142   5.436
 4962POPC   PO464464  29.412  26.668   5.395
 4962POPC   GL164465  29.127  26.749   5.729
 4962POPC   GL264466  28.845  26.943   5.902
 4962POPC   C1A64467  29.057  26.492   6.038
 4962POPC   D2A64468  29.083  26.405   6.423
 4962POPC   C3A64469  29.213  26.659   6.732
 4962POPC   C4A64470  29.121  26.676   7.161
 4962POPC   C1B64471  29.010  26.940   6.331
 4962POPC   C2B64472  28.989  27.138   6.757
 4962POPC   C3B64473  28.786  27.064   7.158
 4962POPC   C4B64474  28.876  27.005   7.613
 4963POPC   NC364475  35.345  36.386   5.565
 4963POPC   PO464476  35.560  35.885   5.159
 4963POPC   GL164477  35.484  35.881   5.674
 4963POPC   GL264478  35.728  36.021   5.929
 4963POPC   C1A64479  35.458  35.681   6.142
 4963POPC   D2A64480  35.330  35.854   6.531
 4963POPC   C3A64481  35.519  36.076   6.890
 4963POPC   C4A64482  35.753  36.014   7.284
 4963POPC   C1B64483  35.512  36.261   6.255
 4963POPC   C2B64484  35.681  36.532   6.573
 4963POPC   C3B64485  35.890  36.612   6.948
 4963POPC   C4B64486  35.593  36.493   7.221
 4964POPC   NC364487  19.487  42.539   5.175
 4964POPC   PO464488  20.136  42.224   5.240
 4964POPC   GL164489  20.008  42.277   5.666
 4964POPC   GL264490  19.797  42.577   5.706
 4964POPC   C1A64491  19.962  42.139   6.096
 4964POPC   D2A64492  19.733  42.159   6.471
 4964POPC   C3A64493  19.901  41.990   6.844
 4964POPC   C4A64494  19.806  42.116   7.267
 4964POPC   C1B64495  19.697  42.578   6.176
 4964POPC   C2B64496  19.770  42.680   6.626
 4964POPC   C3B64497  19.973  42.521   7.001
 4964POPC   C4B64498  19.929  42.608   7.474
 4965POPC   NC364499  21.803  11.219   5.249
 4965POPC   PO464500  21.182  11.011   5.527
 4965POPC   GL164501  21.166  11.234   5.892
 4965POPC   GL264502  21.484  11.381   5.874
 4965POPC   C1A64503  21.332  11.163   6.314
 4965POPC   D2A64504  21.487  11.149   6.726
 4965POPC   C3A64505  21.175  11.378   6.938
 4965POPC   C4A64506  21.131  11.556   7.326
 4965POPC   C1B64507  21.503  11.664   6.248
 4965POPC   C2B64508  21.516  11.685   6.688
 4965POPC   C3B64509  21.607  11.605   7.121
 4965POPC   C4B64510  21.706  11.247   7.339
 4966POPC   NC364511  19.689  12.572   5.386
 4966POPC   PO464512  19.725  13.239   5.357
 4966POPC   GL164513  19.819  12.968   5.723
 4966POPC   GL264514  20.129  12.751   5.736
 4966POPC   C1A64515  19.766  12.722   6.106
 4966POPC   D2A64516  20.017  12.651   6.472
 4966POPC   C3A64517  19.914  12.647   6.906
 4966POPC   C4A64518  20.128  12.628   7.304
 4966POPC   C1B64519  20.153  13.039   6.136
 4966POPC   C2B64520  20.010  13.162   6.570
 4966POPC   C3B64521  20.227  13.053   6.927
 4966POPC   C4B64522  20.301  13.170   7.367
 4967POPC   NC364523  33.153  31.440   5.438
 4967POPC   PO464524  32.408  31.423   5.509
 4967POPC   GL164525  32.769  31.368   5.774
 4967POPC   GL264526  32.969  31.696   5.844
 4967POPC   C1A64527  32.986  31.267   6.155
 4967POPC   D2A64528  32.976  31.053   6.547
 4967POPC   C3A64529  32.987  31.319   6.900
 4967POPC   C4A64530  33.045  31.102   7.301
 4967POPC   C1B64531  33.286  31.688   6.170
 4967POPC   C2B64532  33.348  31.550   6.593
 4967POPC   C3B64533  33.288  31.736   6.986
 4967POPC   C4B64534  32.991  31.623   7.311
 4968POPC   NC364535  38.061  29.899   5.157
 4968POPC   PO464536  38.710  29.997   5.252
 4968POPC   GL164537  38.638  29.919   5.690
 4968POPC   GL264538  38.803  29.623   5.749
 4968POPC   C1A64539  38.506  30.145   6.091
 4968POPC   D2A64540  38.206  30.015   6.425
 4968POPC   C3A64541  38.294  30.151   6.881
 4968POPC   C4A64542  38.350  29.816   7.177
 4968POPC   C1B64543  38.869  29.779   6.157
 4968POPC   C2B64544  38.712  29.971   6.536
 4968POPC   C3B64545  38.819  29.958   6.961
 4968POPC   C4B64546  38.830  29.740   7.380
 4969POPC   NC364547  40.623  30.024   5.427
 4969POPC   PO464548  41.130  29.650   5.248
 4969POPC   GL164549  41.011  29.726   5.680
 4969POPC   GL264550  40.870  30.007   5.879
 4969POPC   C1A64551  40.960  29.549   6.101
 4969POPC   D2A64552  40.680  29.693   6.416
 4969POPC   C3A64553  40.614  29.607   6.835
 4969POPC   C4A64554  40.784  29.670   7.229
 4969POPC   C1B64555  40.815  30.368   6.151
 4969POPC   C2B64556  40.573  30.383   6.511
 4969POPC   C3B64557  40.722  30.436   6.905
 4969POPC   C4B64558  40.908  30.187   7.216
 4970POPC   NC364559  25.017   1.306   5.103
 4970POPC   PO464560  24.395   1.081   5.331
 4970POPC   GL164561  24.485   1.028   5.777
 4970POPC   GL264562  24.844   1.078   5.828
 4970POPC   C1A64563  24.393   0.899   6.222
 4970POPC   D2A64564  24.425   0.675   6.629
 4970POPC   C3A64565  24.290   1.006   6.928
 4970POPC   C4A64566  24.235   1.467   7.017
 4970POPC   C1B64567  24.626   1.352   6.158
 4970POPC   C2B64568  24.580   1.274   6.601
 4970POPC   C3B64569  24.753   1.324   7.010
 4970POPC   C4B64570  24.963   1.688   7.148
 4971POPC   NC364571  35.565   8.212   5.540
 4971POPC   PO464572  35.066   8.595   5.811
 4971POPC   GL164573  35.251   8.195   5.929
 4971POPC   GL264574  35.081   8.233   6.199
 4971POPC   C1A64575  35.573   8.066   6.242
 4971POPC   D2A64576  35.667   8.278   6.622
 4971POPC   C3A64577  35.640   8.162   7.037
 4971POPC   C4A64578  35.556   8.526   7.340
 4971POPC   C1B64579  35.010   8.432   6.572
 4971POPC   C2B64580  35.189   8.409   6.987
 4971POPC   C3B64581  35.117   8.267   7.415
 4971POPC   C4B64582  34.889   8.509   7.731
 4972POPC   NC364583   1.672  33.713   5.477
 4972POPC   PO464584   0.970  33.539   5.468
 4972POPC   GL164585   1.264  33.736   5.781
 4972POPC   GL264586   1.278  34.106   5.711
 4972POPC   C1A64587   1.461  33.881   6.191
 4972POPC   D2A64588   1.633  33.992   6.598
 4972POPC   C3A64589   1.397  33.860   6.953
 4972POPC   C4A64590   1.360  33.760   7.397
 4972POPC   C1B64591   0.981  34.042   6.090
 4972POPC   C2B64592   1.095  34.016   6.541
 4972POPC   C3B64593   0.880  33.901   6.934
 4972POPC   C4B64594   0.937  34.063   7.350
 4973POPC   NC364595  18.934  12.069   5.323
 4973POPC   PO464596  19.335  11.531   5.551
 4973POPC   GL164597  19.046  11.841   5.806
 4973POPC   GL264598  18.722  12.054   5.807
 4973POPC   C1A64599  19.088  12.167   6.152
 4973POPC   D2A64600  19.185  12.226   6.591
 4973POPC   C3A64601  19.239  11.841   6.803
 4973POPC   C4A64602  19.083  11.860   7.179
 4973POPC   C1B64603  18.678  11.809   6.199
 4973POPC   C2B64604  18.727  11.959   6.645
 4973POPC   C3B64605  18.775  12.387   6.835
 4973POPC   C4B64606  18.753  12.600   7.235
 4974POPC   NC364607  30.488  11.868   5.440
 4974POPC   PO464608  30.949  12.312   5.319
 4974POPC   GL164609  30.938  12.065   5.723
 4974POPC   GL264610  30.617  12.076   5.894
 4974POPC   C1A64611  31.021  12.117   6.192
 4974POPC   D2A64612  30.767  12.026   6.560
 4974POPC   C3A64613  30.917  12.181   6.952
 4974POPC   C4A64614  31.057  12.427   7.266
 4974POPC   C1B64615  30.379  12.175   6.244
 4974POPC   C2B64616  30.290  12.295   6.622
 4974POPC   C3B64617  30.406  12.113   6.986
 4974POPC   C4B64618  30.586  12.188   7.352
 4975POPC   NC364619  31.886  19.431   5.550
 4975POPC   PO464620  31.525  19.915   5.213
 4975POPC   GL164621  31.618  19.826   5.687
 4975POPC   GL264622  31.423  20.000   5.926
 4975POPC   C1A64623  31.717  19.669   6.159
 4975POPC   D2A64624  31.536  19.804   6.614
 4975POPC   C3A64625  31.764  19.572   6.978
 4975POPC   C4A64626  31.864  19.614   7.433
 4975POPC   C1B64627  31.151  20.114   6.240
 4975POPC   C2B64628  31.024  20.068   6.647
 4975POPC   C3B64629  31.237  20.143   7.021
 4975POPC   C4B64630  31.436  19.857   7.301
 4976POPC   NC364631   5.336  34.950   5.525
 4976POPC   PO464632   4.798  34.674   5.295
 4976POPC   GL164633   4.898  34.606   5.751
 4976POPC   GL264634   5.206  34.667   5.925
 4976POPC   C1A64635   4.892  34.353   6.162
 4976POPC   D2A64636   4.777  34.272   6.622
 4976POPC   C3A64637   4.844  34.649   6.903
 4976POPC   C4A64638   5.089  34.681   7.285
 4976POPC   C1B64639   5.389  34.278   6.106
 4976POPC   C2B64640   5.410  34.256   6.544
 4976POPC   C3B64641   5.219  34.315   6.960
 4976POPC   C4B64642   5.393  34.265   7.366
 4977POPC   NC364643   7.252  14.034   5.100
 4977POPC   PO464644   7.539  13.466   5.355
 4977POPC   GL164645   7.531  13.482   5.792
 4977POPC   GL264646   7.165  13.359   5.764
 4977POPC   C1A64647   7.665  13.796   6.146
 4977POPC   D2A64648   7.880  13.761   6.549
 4977POPC   C3A64649   7.678  13.827   6.914
 4977POPC   C4A64650   7.600  13.647   7.284
 4977POPC   C1B64651   7.161  13.678   6.109
 4977POPC   C2B64652   7.307  13.742   6.517
 4977POPC   C3B64653   7.235  13.553   6.900
 4977POPC   C4B64654   6.925  13.525   7.179
 4978POPC   NC364655  28.130  42.182   5.407
 4978POPC   PO464656  28.269  42.877   5.357
 4978POPC   GL164657  28.230  42.585   5.725
 4978POPC   GL264658  28.505  42.578   5.968
 4978POPC   C1A64659  28.051  42.451   6.116
 4978POPC   D2A64660  28.273  42.380   6.505
 4978POPC   C3A64661  28.132  42.552   6.884
 4978POPC   C4A64662  28.101  42.388   7.279
 4978POPC   C1B64663  28.749  42.571   6.365
 4978POPC   C2B64664  28.804  42.633   6.822
 4978POPC   C3B64665  28.596  42.367   7.134
 4978POPC   C4B64666  28.495  41.922   7.139
 4979POPC   NC364667  44.293   3.862   5.386
 4979POPC   PO464668  44.889   3.494   5.199
 4979POPC   GL164669  44.674   3.580   5.592
 4979POPC   GL264670  44.952   3.521   5.819
 4979POPC   C1A64671  44.543   3.632   6.071
 4979POPC   D2A64672  44.783   3.706   6.483
 4979POPC   C3A64673  44.562   3.714   6.892
 4979POPC   C4A64674  44.507   3.370   7.181
 4979POPC   C1B64675  44.916   3.238   6.184
 4979POPC   C2B64676   0.003   3.062   6.592
 4979POPC   C3B64677  44.927   3.123   7.039
 4979POPC   C4B64678   0.008   3.540   7.161
 4980POPC   NC364679  20.051  10.588   5.347
 4980POPC   PO464680  20.644  10.152   5.190
 4980POPC   GL164681  20.526  10.395   5.686
 4980POPC   GL264682  20.855  10.455   5.908
 4980POPC   C1A64683  20.487  10.666   6.134
 4980POPC   D2A64684  20.714  10.743   6.520
 4980POPC   C3A64685  20.517  10.711   6.935
 4980POPC   C4A64686  20.751  10.617   7.268
 4980POPC   C1B64687  20.836  10.274   6.345
 4980POPC   C2B64688  20.796  10.299   6.819
 4980POPC   C3B64689  20.673  10.134   7.238
 4980POPC   C4B64690  21.019  10.139   7.516
 4981POPC   NC364691  11.124  25.040   5.405
 4981POPC   PO464692  11.614  25.472   5.476
 4981POPC   GL164693  11.443  25.393   5.849
 4981POPC   GL264694  11.094  25.375   5.948
 4981POPC   C1A64695  11.508  25.308   6.248
 4981POPC   D2A64696  11.305  25.182   6.598
 4981POPC   C3A64697  11.522  25.375   6.907
 4981POPC   C4A64698  11.591  25.250   7.263
 4981POPC   C1B64699  11.146  25.657   6.354
 4981POPC   C2B64700  11.114  25.670   6.842
 4981POPC   C3B64701  11.091  25.459   7.284
 4981POPC   C4B64702  11.037  25.598   7.773
 4982POPC   NC364703  35.050  13.835   4.931
 4982POPC   PO464704  35.095  13.944   5.581
 4982POPC   GL164705  35.330  13.761   5.930
 4982POPC   GL264706  35.537  14.047   5.869
 4982POPC   C1A64707  35.316  13.475   6.316
 4982POPC   D2A64708  35.056  13.534   6.694
 4982POPC   C3A64709  35.160  13.527   7.129
 4982POPC   C4A64710  35.547  13.426   7.280
 4982POPC   C1B64711  35.514  14.089   6.315
 4982POPC   C2B64712  35.498  14.151   6.755
 4982POPC   C3B64713  35.497  13.918   7.118
 4982POPC   C4B64714  35.256  13.911   7.479
 4983POPC   NC364715  11.766  10.217   5.482
 4983POPC   PO464716  12.254   9.742   5.501
 4983POPC   GL164717  12.042   9.877   5.858
 4983POPC   GL264718  12.263  10.164   5.883
 4983POPC   C1A64719  11.920   9.718   6.271
 4983POPC   D2A64720  12.054   9.845   6.687
 4983POPC   C3A64721  11.991   9.601   7.035
 4983POPC   C4A64722  11.826   9.687   7.468
 4983POPC   C1B64723  12.407   9.939   6.292
 4983POPC   C2B64724  12.570   9.936   6.749
 4983POPC   C3B64725  12.672   9.920   7.217
 4983POPC   C4B64726  12.547  10.080   7.644
 4984POPC   NC364727  19.331  29.630   5.413
 4984POPC   PO464728  18.953  29.016   5.415
 4984POPC   GL164729  19.123  29.011   5.811
 4984POPC   GL264730  19.129  29.343   5.786
 4984POPC   C1A64731  18.923  29.046   6.226
 4984POPC   D2A64732  18.752  28.879   6.606
 4984POPC   C3A64733  19.025  29.065   6.920
 4984POPC   C4A64734  19.006  29.307   7.318
 4984POPC   C1B64735  19.243  29.455   6.207
 4984POPC   C2B64736  19.426  29.327   6.620
 4984POPC   C3B64737  19.428  29.456   7.063
 4984POPC   C4B64738  19.452  29.439   7.548
 4985POPC   NC364739  18.251   4.162   5.171
 4985POPC   PO464740  18.258   3.444   5.303
 4985POPC   GL164741  18.332   3.655   5.678
 4985POPC   GL264742  18.143   3.929   5.666
 4985POPC   C1A64743  18.523   3.664   6.080
 4985POPC   D2A64744  18.309   3.677   6.480
 4985POPC   C3A64745  18.387   3.728   6.926
 4985POPC   C4A64746  18.248   3.467   7.302
 4985POPC   C1B64747  17.990   3.766   6.075
 4985POPC   C2B64748  17.834   3.844   6.518
 4985POPC   C3B64749  17.842   3.696   6.958
 4985POPC   C4B64750  18.070   3.943   7.260
 4986POPC   NC364751  42.310  41.118   5.314
 4986POPC   PO464752  42.216  41.836   5.239
 4986POPC   GL164753  42.235  41.578   5.650
 4986POPC   GL264754  42.532  41.361   5.707
 4986POPC   C1A64755  42.157  41.606   6.141
 4986POPC   D2A64756  42.196  41.838   6.570
 4986POPC   C3A64757  42.163  41.574   6.966
 4986POPC   C4A64758  42.326  41.299   7.267
 4986POPC   C1B64759  42.622  41.306   6.152
 4986POPC   C2B64760  42.488  41.393   6.575
 4986POPC   C3B64761  42.637  41.729   6.836
 4986POPC   C4B64762  42.704  41.773   7.256
 4987POPC   NC364763   0.713  38.608   5.349
 4987POPC   PO464764  44.973  38.737   5.288
 4987POPC   GL164765   0.292  38.638   5.642
 4987POPC   GL264766   0.381  38.289   5.760
 4987POPC   C1A64767   0.532  38.664   6.051
 4987POPC   D2A64768   0.667  38.571   6.491
 4987POPC   C3A64769   0.354  38.580   6.835
 4987POPC   C4A64770   0.462  38.642   7.263
 4987POPC   C1B64771   0.672  38.165   6.134
 4987POPC   C2B64772   0.785  38.070   6.590
 4987POPC   C3B64773   0.654  38.208   7.006
 4987POPC   C4B64774   0.577  38.190   7.464
 4988POPC   NC364775  15.202  13.325   5.642
 4988POPC   PO464776  15.181  12.670   5.465
 4988POPC   GL164777  15.248  12.853   5.885
 4988POPC   GL264778  15.538  13.069   5.938
 4988POPC   C1A64779  15.229  12.935   6.338
 4988POPC   D2A64780  14.933  13.014   6.664
 4988POPC   C3A64781  14.957  12.743   6.991
 4988POPC   C4A64782  15.335  12.511   7.102
 4988POPC   C1B64783  15.474  13.382   6.301
 4988POPC   C2B64784  15.337  13.368   6.751
 4988POPC   C3B64785  15.420  13.234   7.189
 4988POPC   C4B64786  15.390  13.318   7.668
 4989POPC   NC364787  24.007  34.794   5.475
 4989POPC   PO464788  23.405  34.523   5.569
 4989POPC   GL164789  23.629  34.444   5.928
 4989POPC   GL264790  23.948  34.300   5.811
 4989POPC   C1A64791  23.557  34.539   6.369
 4989POPC   D2A64792  23.507  34.851   6.708
 4989POPC   C3A64793  23.595  34.682   7.089
 4989POPC   C4A64794  23.633  34.241   7.111
 4989POPC   C1B64795  24.052  34.453   6.236
 4989POPC   C2B64796  24.010  34.641   6.634
 4989POPC   C3B64797  24.140  34.543   7.030
 4989POPC   C4B64798  23.990  34.565   7.431
 4990POPC   NC364799  14.124   5.180   5.563
 4990POPC   PO464800  14.774   5.040   5.635
 4990POPC   GL164801  14.635   5.295   5.957
 4990POPC   GL264802  14.278   5.220   6.025
 4990POPC   C1A64803  14.571   5.234   6.404
 4990POPC   D2A64804  14.342   4.974   6.617
 4990POPC   C3A64805  14.407   5.195   6.930
 4990POPC   C4A64806  14.527   5.108   7.305
 4990POPC   C1B64807  14.040   4.876   6.193
 4990POPC   C2B64808  13.906   4.714   6.598
 4990POPC   C3B64809  14.020   4.866   7.022
 4990POPC   C4B64810  14.137   4.854   7.505
 4991POPC   NC364811  43.541  44.874   5.348
 4991POPC   PO464812  44.019  44.451   5.651
 4991POPC   GL164813  43.798  44.719   5.907
 4991POPC   GL264814  43.806   0.032   5.748
 4991POPC   C1A64815  43.885  44.742   6.358
 4991POPC   D2A64816  44.203  44.692   6.684
 4991POPC   C3A64817  44.072  44.571   7.103
 4991POPC   C4A64818  43.630  44.505   7.210
 4991POPC   C1B64819  43.539   0.101   6.139
 4991POPC   C2B64820  43.586   0.105   6.571
 4991POPC   C3B64821  43.762  44.937   6.932
 4991POPC   C4B64822  43.856  44.980   7.355
 4992POPC   NC364823  32.734  11.411   5.366
 4992POPC   PO464824  33.379  11.483   5.650
 4992POPC   GL164825  32.986  11.357   5.863
 4992POPC   GL264826  32.855  11.042   5.720
 4992POPC   C1A64827  32.986  11.354   6.317
 4992POPC   D2A64828  33.062  11.623   6.682
 4992POPC   C3A64829  33.051  11.436   7.099
 4992POPC   C4A64830  32.842  11.040   7.142
 4992POPC   C1B64831  33.209  10.917   6.000
 4992POPC   C2B64832  33.263  10.963   6.434
 4992POPC   C3B64833  33.341  11.100   6.841
 4992POPC   C4B64834  33.450  11.058   7.258
 4993POPC   NC364835  21.089  41.796   5.385
 4993POPC   PO464836  20.398  41.681   5.352
 4993POPC   GL164837  20.628  41.567   5.728
 4993POPC   GL264838  20.794  41.852   5.831
 4993POPC   C1A64839  20.636  41.399   6.166
 4993POPC   D2A64840  20.656  41.107   6.537
 4993POPC   C3A64841  20.733  41.254   6.952
 4993POPC   C4A64842  20.529  41.370   7.309
 4993POPC   C1B64843  20.929  41.814   6.224
 4993POPC   C2B64844  20.823  41.621   6.609
 4993POPC   C3B64845  20.749  41.774   7.032
 4993POPC   C4B64846  20.912  41.894   7.426
 4994POPC   NC364847  27.878  33.200   5.720
 4994POPC   PO464848  27.829  32.653   5.392
 4994POPC   GL164849  27.597  32.773   5.796
 4994POPC   GL264850  27.861  32.749   6.006
 4994POPC   C1A64851  27.434  32.954   6.219
 4994POPC   D2A64852  27.574  32.993   6.692
 4994POPC   C3A64853  27.375  33.216   7.045
 4994POPC   C4A64854  27.273  32.959   7.391
 4994POPC   C1B64855  27.944  33.049   6.346
 4994POPC   C2B64856  28.074  33.140   6.752
 4994POPC   C3B64857  27.879  33.207   7.133
 4994POPC   C4B64858  27.753  33.601   7.264
 4995POPC   NC364859  34.847  35.053   5.197
 4995POPC   PO464860  34.810  35.715   5.275
 4995POPC   GL164861  34.650  35.560   5.704
 4995POPC   GL264862  34.395  35.306   5.594
 4995POPC   C1A64863  34.518  35.590   6.166
 4995POPC   D2A64864  34.355  35.479   6.602
 4995POPC   C3A64865  34.610  35.548   6.974
 4995POPC   C4A64866  34.887  35.247   7.183
 4995POPC   C1B64867  34.635  35.116   5.941
 4995POPC   C2B64868  34.587  35.079   6.372
 4995POPC   C3B64869  34.587  35.041   6.816
 4995POPC   C4B64870  34.351  35.160   7.201
 4996POPC   NC364871  21.350  20.300   5.466
 4996POPC   PO464872  21.752  19.847   5.091
 4996POPC   GL164873  21.533  19.834   5.505
 4996POPC   GL264874  21.177  19.785   5.590
 4996POPC   C1A64875  21.598  19.939   5.965
 4996POPC   D2A64876  21.571  19.923   6.426
 4996POPC   C3A64877  21.676  19.729   6.832
 4996POPC   C4A64878  21.469  19.607   7.201
 4996POPC   C1B64879  21.056  19.944   6.008
 4996POPC   C2B64880  21.084  19.942   6.457
 4996POPC   C3B64881  21.171  19.952   6.884
 4996POPC   C4B64882  20.910  19.832   7.214
 4997POPC   NC364883   5.268  43.193   5.078
 4997POPC   PO464884   4.818  43.459   5.464
 4997POPC   GL164885   5.002  43.166   5.741
 4997POPC   GL264886   5.326  43.127   5.670
 4997POPC   C1A64887   5.084  42.941   6.122
 4997POPC   D2A64888   5.093  43.086   6.539
 4997POPC   C3A64889   5.318  42.888   6.883
 4997POPC   C4A64890   5.143  42.920   7.304
 4997POPC   C1B64891   5.470  43.269   6.070
 4997POPC   C2B64892   5.600  43.107   6.449
 4997POPC   C3B64893   5.671  43.281   6.819
 4997POPC   C4B64894   5.570  43.221   7.229
 4998POPC   NC364895   5.398  21.653   5.324
 4998POPC   PO464896   4.883  21.339   5.250
 4998POPC   GL164897   5.077  21.433   5.664
 4998POPC   GL264898   5.091  21.078   5.683
 4998POPC   C1A64899   5.142  21.435   6.155
 4998POPC   D2A64900   4.946  21.441   6.603
 4998POPC   C3A64901   5.157  21.511   7.032
 4998POPC   C4A64902   5.312  21.426   7.474
 4998POPC   C1B64903   4.903  20.985   6.091
 4998POPC   C2B64904   4.931  20.916   6.529
 4998POPC   C3B64905   5.054  21.027   6.928
 4998POPC   C4B64906   4.857  21.200   7.301
 4999POPC   NC364907  35.187  34.113   5.198
 4999POPC   PO464908  35.712  33.761   5.303
 4999POPC   GL164909  35.671  33.924   5.739
 4999POPC   GL264910  35.293  33.979   5.753
 4999POPC   C1A64911  35.584  33.932   6.219
 4999POPC   D2A64912  35.343  33.971   6.611
 4999POPC   C3A64913  35.395  33.777   7.035
 4999POPC   C4A64914  35.151  33.432   7.188
 4999POPC   C1B64915  35.085  34.239   6.085
 4999POPC   C2B64916  34.927  34.264   6.521
 4999POPC   C3B64917  35.001  34.137   6.965
 4999POPC   C4B64918  35.085  34.382   7.300
 5000POPC   NC364919  28.241  16.233   5.435
 5000POPC   PO464920  28.475  15.587   5.483
 5000POPC   GL164921  28.372  15.830   5.798
 5000POPC   GL264922  28.044  15.790   5.803
 5000POPC   C1A64923  28.385  15.745   6.239
 5000POPC   D2A64924  28.340  15.930   6.649
 5000POPC   C3A64925  28.589  15.762   7.000
 5000POPC   C4A64926  28.698  16.007   7.385
 5000POPC   C1B64927  27.878  15.869   6.188
 5000POPC   C2B64928  27.861  15.683   6.593
 5000POPC   C3B64929  27.926  15.827   7.016
 5000POPC   C4B64930  28.257  16.121   7.130
 5001POPC   NC364931  23.689  31.002   5.488
 5001POPC   PO464932  23.804  31.665   5.327
 5001POPC   GL164933  23.811  31.462   5.749
 5001POPC   GL264934  23.460  31.329   5.800
 5001POPC   C1A64935  23.993  31.488   6.195
 5001POPC   D2A64936  24.088  31.413   6.674
 5001POPC   C3A64937  23.698  31.436   6.973
 5001POPC   C4A64938  23.415  31.710   7.216
 5001POPC   C1B64939  23.398  31.060   6.153
 5001POPC   C2B64940  23.430  31.221   6.578
 5001POPC   C3B64941  23.314  31.059   6.975
 5001POPC   C4B64942  23.358  31.213   7.368
 5002POPC   NC364943  13.692  29.340   5.528
 5002POPC   PO464944  13.582  28.708   5.280
 5002POPC   GL164945  13.444  28.863   5.710
 5002POPC   GL264946  13.367  29.190   5.884
 5002POPC   C1A64947  13.624  28.826   6.146
 5002POPC   D2A64948  13.565  28.765   6.623
 5002POPC   C3A64949  13.791  28.995   7.002
 5002POPC   C4A64950  13.961  29.456   7.073
 5002POPC   C1B64951  13.372  29.211   6.352
 5002POPC   C2B64952  13.361  29.212   6.801
 5002POPC   C3B64953  13.480  29.382   7.212
 5002POPC   C4B64954  13.457  29.439   7.701
 5003POPC   NC364955  36.513   8.508   5.421
 5003POPC   PO464956  36.706   7.784   5.383
 5003POPC   GL164957  36.650   8.042   5.735
 5003POPC   GL264958  36.930   8.257   5.679
 5003POPC   C1A64959  36.516   8.150   6.149
 5003POPC   D2A64960  36.647   8.392   6.504
 5003POPC   C3A64961  36.593   8.193   6.914
 5003POPC   C4A64962  36.665   8.215   7.319
 5003POPC   C1B64963  36.988   8.358   6.101
 5003POPC   C2B64964  37.144   8.217   6.504
 5003POPC   C3B64965  37.067   8.381   6.899
 5003POPC   C4B64966  37.175   8.329   7.309
 5004POPC   NC364967  42.861  25.898   5.414
 5004POPC   PO464968  43.523  26.131   5.323
 5004POPC   GL164969  43.249  26.136   5.713
 5004POPC   GL264970  43.212  25.767   5.825
 5004POPC   C1A64971  43.076  26.140   6.169
 5004POPC   D2A64972  43.196  26.278   6.605
 5004POPC   C3A64973  43.118  26.021   7.016
 5004POPC   C4A64974  42.883  26.057   7.426
 5004POPC   C1B64975  43.378  25.712   6.261
 5004POPC   C2B64976  43.494  25.813   6.692
 5004POPC   C3B64977  43.350  25.567   7.039
 5004POPC   C4B64978  43.253  25.629   7.479
 5005POPC   NC364979  35.022   9.910   5.459
 5005POPC   PO464980  35.393   9.359   5.254
 5005POPC   GL164981  35.375   9.599   5.708
 5005POPC   GL264982  35.149   9.429   5.965
 5005POPC   C1A64983  35.215   9.910   6.087
 5005POPC   D2A64984  35.113   9.680   6.493
 5005POPC   C3A64985  35.168   9.906   6.886
 5005POPC   C4A64986  35.290   9.859   7.307
 5005POPC   C1B64987  35.542   9.556   6.215
 5005POPC   C2B64988  35.801   9.578   6.578
 5005POPC   C3B64989  35.661   9.668   6.989
 5005POPC   C4B64990  35.725   9.564   7.407
 5006POPC   NC364991  35.543   3.128   5.363
 5006POPC   PO464992  35.032   2.808   5.293
 5006POPC   GL164993  35.377   2.726   5.646
 5006POPC   GL264994  35.414   3.026   5.861
 5006POPC   C1A64995  35.549   2.603   6.094
 5006POPC   D2A64996  35.264   2.568   6.477
 5006POPC   C3A64997  35.302   2.737   6.891
 5006POPC   C4A64998  35.414   2.550   7.277
 5006POPC   C1B64999  35.437   3.047   6.327
 5006POPC   C2B65000  35.651   3.100   6.720
 5006POPC   C3B65001  35.477   3.149   7.130
 5006POPC   C4B65002  35.414   3.381   7.526
 5007POPC   NC365003  31.817  16.524   5.460
 5007POPC   PO465004  31.352  16.992   5.528
 5007POPC   GL165005  31.393  16.629   5.776
 5007POPC   GL265006  31.701  16.779   5.903
 5007POPC   C1A65007  31.244  16.465   6.166
 5007POPC   D2A65008  31.186  16.637   6.580
 5007POPC   C3A65009  31.522  16.526   6.855
 5007POPC   C4A65010  31.679  16.728   7.223
 5007POPC   C1B65011  31.753  16.378   6.130
 5007POPC   C2B65012  31.725  16.173   6.530
 5007POPC   C3B65013  31.910  16.193   6.936
 5007POPC   C4B65014  31.591  16.172   7.228
 5008POPC   NC365015  43.941  30.995   5.453
 5008POPC   PO465016  43.583  30.462   5.207
 5008POPC   GL165017  43.813  30.560   5.704
 5008POPC   GL265018  44.132  30.761   5.871
 5008POPC   C1A65019  43.702  30.771   6.160
 5008POPC   D2A65020  43.847  30.862   6.610
 5008POPC   C3A65021  43.650  30.765   7.030
 5008POPC   C4A65022  43.693  30.588   7.462
 5008POPC   C1B65023  44.065  30.401   6.163
 5008POPC   C2B65024  44.002  30.355   6.633
 5008POPC   C3B65025  44.143  30.625   6.995
 5008POPC   C4B65026  44.173  30.766   7.436
 5009POPC   NC365027  44.821  17.338   5.565
 5009POPC   PO465028   0.452  17.321   5.304
 5009POPC   GL165029   0.295  17.413   5.720
 5009POPC   GL265030   0.525  17.649   5.874
 5009POPC   C1A65031   0.123  17.444   6.134
 5009POPC   D2A65032   0.235  17.625   6.505
 5009POPC   C3A65033   0.399  17.414   6.854
 5009POPC   C4A65034   0.292  17.435   7.257
 5009POPC   C1B65035   0.684  17.851   6.274
 5009POPC   C2B65036   0.683  17.815   6.688
 5009POPC   C3B65037   0.829  17.924   7.025
 5009POPC   C4B65038   0.662  17.742   7.354
 5010POPC   NC365039   9.254  17.337   5.464
 5010POPC   PO465040   8.580  17.256   5.698
 5010POPC   GL165041   8.921  17.528   5.817
 5010POPC   GL265042   9.210  17.322   5.964
 5010POPC   C1A65043   9.021  17.728   6.207
 5010POPC   D2A65044   8.937  17.546   6.582
 5010POPC   C3A65045   9.157  17.720   6.905
 5010POPC   C4A65046   8.984  17.766   7.321
 5010POPC   C1B65047   9.213  17.104   6.372
 5010POPC   C2B65048   9.214  17.177   6.827
 5010POPC   C3B65049   9.262  17.340   7.253
 5010POPC   C4B65050   9.355  17.078   7.600
 5011POPC   NC365051  19.230  11.079   5.637
 5011POPC   PO465052  19.754  11.289   5.177
 5011POPC   GL165053  19.776  11.122   5.658
 5011POPC   GL265054  20.135  11.196   5.768
 5011POPC   C1A65055  19.750  11.358   6.105
 5011POPC   D2A65056  19.905  11.341   6.554
 5011POPC   C3A65057  19.757  11.494   6.961
 5011POPC   C4A65058  19.980  11.485   7.370
 5011POPC   C1B65059  20.092  10.992   6.185
 5011POPC   C2B65060  20.263  10.985   6.595
 5011POPC   C3B65061  20.117  11.087   7.014
 5011POPC   C4B65062  20.154  10.926   7.429
 5012POPC   NC365063   1.439   0.072   5.598
 5012POPC   PO465064   1.046  44.566   5.403
 5012POPC   GL165065   1.048  44.619   5.827
 5012POPC   GL265066   1.411  44.638   5.893
 5012POPC   C1A65067   0.920  44.643   6.249
 5012POPC   D2A65068   0.963  44.483   6.662
 5012POPC   C3A65069   1.245  44.667   6.951
 5012POPC   C4A65070   1.188  44.709   7.381
 5012POPC   C1B65071   1.411  44.519   6.361
 5012POPC   C2B65072   1.672  44.426   6.758
 5012POPC   C3B65073   1.662  44.533   7.218
 5012POPC   C4B65074   1.617  44.746   7.643
 5013POPC   NC365075  42.676  41.819   5.399
 5013POPC   PO465076  42.791  41.156   5.296
 5013POPC   GL165077  43.071  41.345   5.616
 5013POPC   GL265078  43.312  41.107   5.752
 5013POPC   C1A65079  43.159  41.556   6.040
 5013POPC   D2A65080  42.967  41.715   6.438
 5013POPC   C3A65081  43.160  41.633   6.865
 5013POPC   C4A65082  43.195  41.655   7.320
 5013POPC   C1B65083  43.300  41.090   6.224
 5013POPC   C2B65084  42.975  41.207   6.542
 5013POPC   C3B65085  42.814  41.260   6.975
 5013POPC   C4B65086  43.134  41.156   7.246
 5014POPC   NC365087  23.501  30.317   5.239
 5014POPC   PO465088  24.085  30.708   5.407
 5014POPC   GL165089  23.903  30.648   5.827
 5014POPC   GL265090  23.931  30.987   5.949
 5014POPC   C1A65091  23.657  30.601   6.223
 5014POPC   D2A65092  23.335  30.554   6.570
 5014POPC   C3A65093  23.501  30.577   6.988
 5014POPC   C4A65094  23.876  30.504   7.204
 5014POPC   C1B65095  23.880  31.028   6.393
 5014POPC   C2B65096  23.837  30.950   6.835
 5014POPC   C3B65097  23.819  31.023   7.267
 5014POPC   C4B65098  23.703  31.019   7.691
 5015POPC   NC365099  35.968  22.982   5.242
 5015POPC   PO465100  35.354  23.164   5.278
 5015POPC   GL165101  35.318  23.190   5.729
 5015POPC   GL265102  35.619  23.187   5.807
 5015POPC   C1A65103  35.235  23.210   6.170
 5015POPC   D2A65104  35.140  22.996   6.536
 5015POPC   C3A65105  35.129  23.234   6.915
 5015POPC   C4A65106  35.122  23.003   7.284
 5015POPC   C1B65107  35.488  22.793   6.037
 5015POPC   C2B65108  35.573  22.717   6.506
 5015POPC   C3B65109  35.485  22.841   6.954
 5015POPC   C4B65110  35.603  22.846   7.420
 5016POPC   NC365111  19.265  42.708   5.705
 5016POPC   PO465112  19.303  42.127   5.321
 5016POPC   GL165113  19.139  42.190   5.714
 5016POPC   GL265114  19.493  42.167   5.839
 5016POPC   C1A65115  18.877  41.984   6.047
 5016POPC   D2A65116  18.994  41.902   6.481
 5016POPC   C3A65117  18.949  42.209   6.805
 5016POPC   C4A65118  18.768  42.351   7.195
 5016POPC   C1B65119  19.274  42.266   6.212
 5016POPC   C2B65120  19.303  42.506   6.549
 5016POPC   C3B65121  19.492  42.319   6.897
 5016POPC   C4B65122  19.266  42.174   7.216
 5017POPC   NC365123  29.112  41.166   5.431
 5017POPC   PO465124  28.841  40.557   5.429
 5017POPC   GL165125  28.993  40.775   5.796
 5017POPC   GL265126  29.315  40.922   5.809
 5017POPC   C1A65127  29.140  40.736   6.218
 5017POPC   D2A65128  29.068  40.604   6.603
 5017POPC   C3A65129  29.057  40.911   6.859
 5017POPC   C4A65130  29.093  40.846   7.259
 5017POPC   C1B65131  29.402  41.190   6.192
 5017POPC   C2B65132  29.368  41.324   6.663
 5017POPC   C3B65133  29.408  41.186   7.112
 5017POPC   C4B65134  29.471  41.026   7.585
 5018POPC   NC365135  41.284  31.187   5.521
 5018POPC   PO465136  41.667  31.683   5.272
 5018POPC   GL165137  41.744  31.679   5.750
 5018POPC   GL265138  41.634  31.367   5.858
 5018POPC   C1A65139  41.529  31.704   6.210
 5018POPC   D2A65140  41.291  31.594   6.614
 5018POPC   C3A65141  41.504  31.727   7.021
 5018POPC   C4A65142  41.593  31.604   7.443
 5018POPC   C1B65143  41.368  31.222   6.221
 5018POPC   C2B65144  41.393  31.078   6.665
 5018POPC   C3B65145  41.470  31.206   7.130
 5018POPC   C4B65146  41.726  31.098   7.502
 5019POPC   NC365147  34.394  36.691   5.521
 5019POPC   PO465148  34.966  36.980   5.263
 5019POPC   GL165149  34.726  37.047   5.669
 5019POPC   GL265150  34.995  37.249   5.802
 5019POPC   C1A65151  34.605  36.783   6.097
 5019POPC   D2A65152  34.668  36.583   6.511
 5019POPC   C3A65153  34.512  36.818   6.838
 5019POPC   C4A65154  34.372  36.934   7.203
 5019POPC   C1B65155  34.982  37.078   6.207
 5019POPC   C2B65156  34.852  37.143   6.624
 5019POPC   C3B65157  35.001  37.157   7.035
 5019POPC   C4B65158  34.893  37.137   7.489
 5020POPC   NC365159   4.980   5.324   5.534
 5020POPC   PO465160   5.298   4.737   5.446
 5020POPC   GL165161   5.296   4.995   5.832
 5020POPC   GL265162   5.405   5.338   5.857
 5020POPC   C1A65163   5.182   4.928   6.278
 5020POPC   D2A65164   5.332   5.127   6.659
 5020POPC   C3A65165   5.157   4.945   7.055
 5020POPC   C4A65166   4.698   4.835   7.121
 5020POPC   C1B65167   5.084   5.438   6.189
 5020POPC   C2B65168   5.027   5.590   6.610
 5020POPC   C3B65169   5.243   5.470   7.013
 5020POPC   C4B65170   5.286   5.347   7.469
 5021POPC   NC365171  16.377  33.832   5.154
 5021POPC   PO465172  15.800  33.661   5.469
 5021POPC   GL165173  16.147  33.790   5.719
 5021POPC   GL265174  15.941  33.998   5.892
 5021POPC   C1A65175  16.238  33.667   6.158
 5021POPC   D2A65176  16.023  33.508   6.548
 5021POPC   C3A65177  16.090  33.735   6.941
 5021POPC   C4A65178  15.904  33.547   7.276
 5021POPC   C1B65179  15.736  33.810   6.257
 5021POPC   C2B65180  15.641  33.852   6.718
 5021POPC   C3B65181  15.671  34.026   7.154
 5021POPC   C4B65182  15.565  34.274   7.538
 5022POPC   NC365183   7.064  14.665   5.423
 5022POPC   PO465184   7.576  14.230   5.380
 5022POPC   GL165185   7.484  14.453   5.775
 5022POPC   GL265186   7.166  14.585   5.922
 5022POPC   C1A65187   7.637  14.611   6.174
 5022POPC   D2A65188   7.721  14.728   6.611
 5022POPC   C3A65189   7.395  14.673   6.899
 5022POPC   C4A65190   7.510  14.350   7.214
 5022POPC   C1B65191   7.296  14.226   6.235
 5022POPC   C2B65192   7.400  14.201   6.700
 5022POPC   C3B65193   7.156  14.019   7.084
 5022POPC   C4B65194   7.059  14.260   7.488
 5023POPC   NC365195   3.053   2.582   5.318
 5023POPC   PO465196   2.419   2.824   5.305
 5023POPC   GL165197   2.685   2.713   5.690
 5023POPC   GL265198   2.969   2.938   5.773
 5023POPC   C1A65199   2.617   2.801   6.151
 5023POPC   D2A65200   2.753   2.773   6.598
 5023POPC   C3A65201   2.490   2.710   7.000
 5023POPC   C4A65202   2.608   2.683   7.443
 5023POPC   C1B65203   3.202   2.993   6.205
 5023POPC   C2B65204   3.197   3.121   6.668
 5023POPC   C3B65205   2.994   2.918   7.039
 5023POPC   C4B65206   3.140   2.602   7.322
 5024POPC   NC365207  15.653  43.877   5.266
 5024POPC   PO465208  16.070  44.261   5.560
 5024POPC   GL165209  15.874  43.942   5.767
 5024POPC   GL265210  16.169  43.753   5.827
 5024POPC   C1A65211  15.867  43.975   6.214
 5024POPC   D2A65212  15.816  44.213   6.615
 5024POPC   C3A65213  15.990  44.035   6.996
 5024POPC   C4A65214  15.830  43.943   7.401
 5024POPC   C1B65215  16.396  43.807   6.191
 5024POPC   C2B65216  16.218  43.815   6.583
 5024POPC   C3B65217  16.456  43.779   6.946
 5024POPC   C4B65218  16.293  43.721   7.349
 5025POPC   NC365219   3.767  12.188   5.416
 5025POPC   PO465220   3.174  11.853   5.229
 5025POPC   GL165221   3.469  11.835   5.652
 5025POPC   GL265222   3.492  12.158   5.840
 5025POPC   C1A65223   3.806  11.857   6.052
 5025POPC   D2A65224   3.774  12.173   6.386
 5025POPC   C3A65225   3.744  12.066   6.827
 5025POPC   C4A65226   3.585  11.781   7.142
 5025POPC   C1B65227   3.253  11.975   6.147
 5025POPC   C2B65228   3.270  12.162   6.522
 5025POPC   C3B65229   3.400  12.473   6.794
 5025POPC   C4B65230   3.396  12.267   7.169
 5026POPC   NC365231   4.642  34.268   5.415
 5026POPC   PO465232   4.100  34.654   5.573
 5026POPC   GL165233   4.407  34.514   5.855
 5026POPC   GL265234   4.475  34.146   5.901
 5026POPC   C1A65235   4.463  34.572   6.291
 5026POPC   D2A65236   4.195  34.570   6.633
 5026POPC   C3A65237   4.349  34.692   7.039
 5026POPC   C4A65238   4.607  34.763   7.419
 5026POPC   C1B65239   4.125  34.194   6.212
 5026POPC   C2B65240   3.959  34.116   6.627
 5026POPC   C3B65241   4.139  34.209   7.028
 5026POPC   C4B65242   4.103  34.459   7.427
 5027POPC   NC365243  29.123   5.605   5.472
 5027POPC   PO465244  29.279   6.277   5.483
 5027POPC   GL165245  29.169   6.017   5.873
 5027POPC   GL265246  28.854   5.867   5.848
 5027POPC   C1A65247  29.101   5.833   6.324
 5027POPC   D2A65248  29.183   5.956   6.765
 5027POPC   C3A65249  29.049   5.730   7.128
 5027POPC   C4A65250  29.254   5.553   7.476
 5027POPC   C1B65251  28.750   6.171   6.214
 5027POPC   C2B65252  28.843   6.324   6.655
 5027POPC   C3B65253  28.893   6.216   7.120
 5027POPC   C4B65254  28.990   6.424   7.523
 5028POPC   NC365255  27.884   1.884   5.484
 5028POPC   PO465256  28.532   1.840   5.480
 5028POPC   GL165257  28.281   1.825   5.794
 5028POPC   GL265258  28.067   1.503   5.753
 5028POPC   C1A65259  28.200   2.156   6.101
 5028POPC   D2A65260  28.323   2.391   6.494
 5028POPC   C3A65261  28.438   2.152   6.893
 5028POPC   C4A65262  28.177   2.142   7.278
 5028POPC   C1B65263  27.982   1.671   6.157
 5028POPC   C2B65264  28.170   1.861   6.516
 5028POPC   C3B65265  28.188   1.679   6.881
 5028POPC   C4B65266  27.981   1.658   7.230
 5029POPC   NC365267  40.767  44.428   5.253
 5029POPC   PO465268  41.066   0.004   5.564
 5029POPC   GL165269  40.754  44.709   5.778
 5029POPC   GL265270  40.566  44.398   5.738
 5029POPC   C1A65271  40.560  44.731   6.188
 5029POPC   D2A65272  40.716  44.534   6.572
 5029POPC   C3A65273  40.754  44.773   6.955
 5029POPC   C4A65274  40.950   0.127   7.117
 5029POPC   C1B65275  40.289  44.308   6.100
 5029POPC   C2B65276  40.216  44.390   6.551
 5029POPC   C3B65277  40.436  44.342   6.961
 5029POPC   C4B65278  40.655  44.477   7.370
 5030POPC   NC365279  24.037   2.728   5.213
 5030POPC   PO465280  23.622   2.292   5.428
 5030POPC   GL165281  23.681   2.507   5.812
 5030POPC   GL265282  23.819   2.846   5.742
 5030POPC   C1A65283  23.498   2.482   6.245
 5030POPC   D2A65284  23.277   2.757   6.535
 5030POPC   C3A65285  23.486   2.778   6.938
 5030POPC   C4A65286  23.729   2.462   7.168
 5030POPC   C1B65287  23.587   2.971   6.124
 5030POPC   C2B65288  23.670   3.105   6.566
 5030POPC   C3B65289  23.701   3.251   6.998
 5030POPC   C4B65290  23.809   3.066   7.416
 5031POPC   NC365291  20.171  14.291   5.436
 5031POPC   PO465292  19.515  14.376   5.513
 5031POPC   GL165293  19.893  14.471   5.823
 5031POPC   GL265294  19.962  14.178   5.924
 5031POPC   C1A65295  20.140  14.564   6.213
 5031POPC   D2A65296  20.178  14.421   6.656
 5031POPC   C3A65297  20.123  14.672   7.056
 5031POPC   C4A65298  19.970  14.667   7.519
 5031POPC   C1B65299  19.656  14.329   6.244
 5031POPC   C2B65300  19.683  14.282   6.686
 5031POPC   C3B65301  19.789  14.275   7.113
 5031POPC   C4B65302  19.511  14.463   7.399
 5032POPC   NC365303  35.851  29.305   5.645
 5032POPC   PO465304  35.321  28.924   5.409
 5032POPC   GL165305  35.348  29.062   5.831
 5032POPC   GL265306  35.690  28.869   5.851
 5032POPC   C1A65307  35.191  29.289   6.236
 5032POPC   D2A65308  34.992  29.392   6.649
 5032POPC   C3A65309  35.250  29.361   7.018
 5032POPC   C4A65310  35.717  29.199   7.061
 5032POPC   C1B65311  35.514  28.867   6.270
 5032POPC   C2B65312  35.419  29.025   6.648
 5032POPC   C3B65313  35.260  28.859   7.002
 5032POPC   C4B65314  35.104  28.683   7.337
 5033POPC   NC365315  41.911  21.600   5.447
 5033POPC   PO465316  42.596  21.472   5.319
 5033POPC   GL165317  42.458  21.264   5.709
 5033POPC   GL265318  42.141  21.072   5.734
 5033POPC   C1A65319  42.472  21.166   6.176
 5033POPC   D2A65320  42.267  21.106   6.582
 5033POPC   C3A65321  42.427  21.210   6.985
 5033POPC   C4A65322  42.594  21.397   7.374
 5033POPC   C1B65323  41.914  21.293   6.064
 5033POPC   C2B65324  41.772  21.207   6.476
 5033POPC   C3B65325  41.883  21.297   6.895
 5033POPC   C4B65326  42.036  21.567   7.205
 5034POPC   NC365327   0.843  37.680   5.590
 5034POPC   PO465328   1.536  37.593   5.537
 5034POPC   GL165329   1.258  37.735   5.854
 5034POPC   GL265330   1.080  37.387   5.920
 5034POPC   C1A65331   0.982  37.744   6.244
 5034POPC   D2A65332   1.071  37.520   6.620
 5034POPC   C3A65333   1.034  37.785   6.973
 5034POPC   C4A65334   1.055  38.064   7.292
 5034POPC   C1B65335   1.431  37.463   6.232
 5034POPC   C2B65336   1.594  37.509   6.643
 5034POPC   C3B65337   1.394  37.424   7.035
 5034POPC   C4B65338   1.304  37.100   7.333
 5035POPC   NC365339   0.057   3.945   5.243
 5035POPC   PO465340   0.361   3.334   5.510
 5035POPC   GL165341   0.452   3.442   5.895
 5035POPC   GL265342   0.355   3.836   5.833
 5035POPC   C1A65343   0.417   3.238   6.312
 5035POPC   D2A65344   0.640   3.362   6.671
 5035POPC   C3A65345   0.442   3.279   7.038
 5035POPC   C4A65346   0.267   3.169   7.433
 5035POPC   C1B65347   0.430   3.744   6.292
 5035POPC   C2B65348   0.254   3.699   6.705
 5035POPC   C3B65349   0.445   3.806   7.098
 5035POPC   C4B65350   0.731   3.567   7.348
 5036POPC   NC365351  22.099  41.663   5.378
 5036POPC   PO465352  22.518  41.157   5.567
 5036POPC   GL165353  22.499  41.470   5.886
 5036POPC   GL265354  22.285  41.795   5.901
 5036POPC   C1A65355  22.527  41.569   6.330
 5036POPC   D2A65356  22.235  41.762   6.601
 5036POPC   C3A65357  22.083  41.412   6.826
 5036POPC   C4A65358  22.371  41.514   7.120
 5036POPC   C1B65359  21.887  41.795   6.205
 5036POPC   C2B65360  21.777  42.012   6.627
 5036POPC   C3B65361  21.787  41.764   7.040
 5036POPC   C4B65362  21.623  41.287   7.080
 5037POPC   NC365363  15.845   4.640   5.351
 5037POPC   PO465364  16.131   3.989   5.522
 5037POPC   GL165365  15.889   4.016   5.881
 5037POPC   GL265366  15.803   4.324   5.759
 5037POPC   C1A65367  15.834   4.069   6.309
 5037POPC   D2A65368  16.083   4.137   6.656
 5037POPC   C3A65369  15.950   4.022   7.039
 5037POPC   C4A65370  16.092   4.305   7.331
 5037POPC   C1B65371  15.701   4.612   6.039
 5037POPC   C2B65372  15.773   4.587   6.463
 5037POPC   C3B65373  15.787   4.544   6.900
 5037POPC   C4B65374  15.818   4.831   7.248
 5038POPC   NC365375  18.499  41.194   5.157
 5038POPC   PO465376  18.109  40.666   5.456
 5038POPC   GL165377  18.123  40.686   5.873
 5038POPC   GL265378  18.484  40.704   5.970
 5038POPC   C1A65379  18.071  40.953   6.198
 5038POPC   D2A65380  17.896  40.861   6.541
 5038POPC   C3A65381  18.074  40.569   6.804
 5038POPC   C4A65382  18.182  40.651   7.238
 5038POPC   C1B65383  18.505  40.734   6.421
 5038POPC   C2B65384  18.525  40.756   6.856
 5038POPC   C3B65385  18.524  41.017   7.179
 5038POPC   C4B65386  18.754  40.845   7.479
 5039POPC   NC365387  24.852  15.652   5.371
 5039POPC   PO465388  24.374  16.178   5.457
 5039POPC   GL165389  24.612  16.015   5.758
 5039POPC   GL265390  24.629  15.657   5.854
 5039POPC   C1A65391  24.425  16.118   6.162
 5039POPC   D2A65392  24.160  16.134   6.548
 5039POPC   C3A65393  24.371  16.114   6.960
 5039POPC   C4A65394  24.718  16.196   7.250
 5039POPC   C1B65395  24.489  15.627   6.314
 5039POPC   C2B65396  24.326  15.484   6.737
 5039POPC   C3B65397  24.355  15.632   7.170
 5039POPC   C4B65398  24.735  15.686   7.398
 5040POPC   NC365399   4.184   1.863   5.321
 5040POPC   PO465400   4.789   2.194   5.301
 5040POPC   GL165401   4.582   1.914   5.631
 5040POPC   GL265402   4.436   2.216   5.758
 5040POPC   C1A65403   4.261   1.807   5.983
 5040POPC   D2A65404   4.102   1.811   6.402
 5040POPC   C3A65405   4.270   2.008   6.763
 5040POPC   C4A65406   4.065   2.043   7.131
 5040POPC   C1B65407   4.522   2.174   6.243
 5040POPC   C2B65408   4.586   2.435   6.617
 5040POPC   C3B65409   4.639   2.406   7.069
 5040POPC   C4B65410   4.463   2.181   7.402
 5041POPC   NC365411  28.049  18.636   5.556
 5041POPC   PO465412  28.590  18.373   5.263
 5041POPC   GL165413  28.500  18.411   5.714
 5041POPC   GL265414  28.211  18.257   5.855
 5041POPC   C1A65415  28.656  18.263   6.109
 5041POPC   D2A65416  28.502  18.181   6.501
 5041POPC   C3A65417  28.689  18.163   6.904
 5041POPC   C4A65418  28.524  18.254   7.302
 5041POPC   C1B65419  28.038  18.277   6.271
 5041POPC   C2B65420  28.054  18.189   6.723
 5041POPC   C3B65421  28.035  18.400   7.092
 5041POPC   C4B65422  28.022  18.357   7.530
 5042POPC   NC365423  31.328  24.262   5.311
 5042POPC   PO465424  31.804  24.729   5.350
 5042POPC   GL165425  31.516  24.598   5.705
 5042POPC   GL265426  31.320  24.281   5.810
 5042POPC   C1A65427  31.445  24.675   6.176
 5042POPC   D2A65428  31.318  24.505   6.588
 5042POPC   C3A65429  31.632  24.454   6.918
 5042POPC   C4A65430  31.681  24.391   7.356
 5042POPC   C1B65431  31.463  24.148   6.211
 5042POPC   C2B65432  31.530  24.019   6.637
 5042POPC   C3B65433  31.249  24.113   6.977
 5042POPC   C4B65434  31.176  23.863   7.308
 5043POPC   NC365435  13.161   6.706   5.229
 5043POPC   PO465436  12.668   7.085   5.315
 5043POPC   GL165437  12.674   6.832   5.691
 5043POPC   GL265438  12.869   6.514   5.641
 5043POPC   C1A65439  12.579   6.879   6.140
 5043POPC   D2A65440  12.804   6.760   6.522
 5043POPC   C3A65441  12.729   6.634   6.932
 5043POPC   C4A65442  12.695   6.740   7.370
 5043POPC   C1B65443  12.871   6.455   6.112
 5043POPC   C2B65444  12.952   6.234   6.511
 5043POPC   C3B65445  13.088   6.238   6.917
 5043POPC   C4B65446  12.780   6.238   7.263
 5044POPC   NC365447  25.069  41.721   5.044
 5044POPC   PO465448  25.231  41.346   5.574
 5044POPC   GL165449  25.426  41.508   5.869
 5044POPC   GL265450  25.635  41.748   5.735
 5044POPC   C1A65451  25.533  41.480   6.268
 5044POPC   D2A65452  25.354  41.398   6.670
 5044POPC   C3A65453  25.552  41.605   6.997
 5044POPC   C4A65454  25.398  41.581   7.402
 5044POPC   C1B65455  25.390  41.942   6.095
 5044POPC   C2B65456  25.229  41.855   6.500
 5044POPC   C3B65457  25.150  41.908   6.943
 5044POPC   C4B65458  25.306  42.104   7.331
 5045POPC   NC365459  24.838  44.857   5.538
 5045POPC   PO465460  24.202  44.857   5.287
 5045POPC   GL165461  24.312  44.639   5.708
 5045POPC   GL265462  24.662  44.460   5.785
 5045POPC   C1A65463  24.285  44.408   6.116
 5045POPC   D2A65464  24.545  44.429   6.505
 5045POPC   C3A65465  24.482  44.751   6.765
 5045POPC   C4A65466  24.514  44.558   7.170
 5045POPC   C1B65467  24.666  44.767   6.162
 5045POPC   C2B65468  24.976  44.787   6.512
 5045POPC   C3B65469  24.944  44.727   6.946
 5045POPC   C4B65470  24.812  44.928   7.344
 5046POPC   NC365471   5.250  43.622   5.546
 5046POPC   PO465472   4.890  44.192   5.342
 5046POPC   GL165473   4.992  44.038   5.734
 5046POPC   GL265474   4.835  43.761   5.864
 5046POPC   C1A65475   5.201  44.036   6.132
 5046POPC   D2A65476   5.091  44.240   6.504
 5046POPC   C3A65477   5.164  44.011   6.862
 5046POPC   C4A65478   5.103  43.857   7.262
 5046POPC   C1B65479   5.040  43.528   6.200
 5046POPC   C2B65480   5.258  43.562   6.606
 5046POPC   C3B65481   5.121  43.378   7.006
 5046POPC   C4B65482   5.160  43.402   7.465
 5047POPC   NC365483  32.562  38.661   5.445
 5047POPC   PO465484  31.971  38.247   5.254
 5047POPC   GL165485  31.956  38.104   5.714
 5047POPC   GL265486  31.919  38.419   5.904
 5047POPC   C1A65487  32.250  38.080   6.106
 5047POPC   D2A65488  32.399  38.200   6.529
 5047POPC   C3A65489  32.235  38.108   6.958
 5047POPC   C4A65490  32.402  38.376   7.279
 5047POPC   C1B65491  32.046  38.562   6.346
 5047POPC   C2B65492  32.046  38.550   6.802
 5047POPC   C3B65493  32.040  38.704   7.216
 5047POPC   C4B65494  32.033  38.763   7.649
 5048POPC   NC365495  42.126  14.737   5.556
 5048POPC   PO465496  42.530  14.319   5.346
 5048POPC   GL165497  42.423  14.377   5.817
 5048POPC   GL265498  42.437  14.726   5.961
 5048POPC   C1A65499  42.284  14.193   6.240
 5048POPC   D2A65500  42.172  14.190   6.685
 5048POPC   C3A65501  42.480  14.252   7.027
 5048POPC   C4A65502  42.703  14.562   7.270
 5048POPC   C1B65503  42.046  14.639   6.211
 5048POPC   C2B65504  41.938  14.665   6.656
 5048POPC   C3B65505  42.154  14.610   7.036
 5048POPC   C4B65506  42.238  14.453   7.482
 5049POPC   NC365507   8.352  42.351   5.304
 5049POPC   PO465508   7.661  42.104   5.401
 5049POPC   GL165509   7.962  42.140   5.749
 5049POPC   GL265510   8.304  42.293   5.868
 5049POPC   C1A65511   7.936  42.104   6.195
 5049POPC   D2A65512   8.016  42.377   6.540
 5049POPC   C3A65513   7.951  42.238   6.962
 5049POPC   C4A65514   8.069  42.308   7.401
 5049POPC   C1B65515   8.458  42.236   6.320
 5049POPC   C2B65516   8.451  42.332   6.787
 5049POPC   C3B65517   8.542  42.317   7.226
 5049POPC   C4B65518   8.680  41.989   7.511
 5050POPC   NC365519  23.243  16.290   5.152
 5050POPC   PO465520  22.656  16.002   5.170
 5050POPC   GL165521  22.891  16.026   5.600
 5050POPC   GL265522  23.209  16.234   5.687
 5050POPC   C1A65523  23.002  15.942   6.061
 5050POPC   D2A65524  22.943  16.078   6.487
 5050POPC   C3A65525  23.050  15.857   6.854
 5050POPC   C4A65526  22.870  15.811   7.251
 5050POPC   C1B65527  23.169  16.438   6.121
 5050POPC   C2B65528  23.265  16.471   6.586
 5050POPC   C3B65529  23.109  16.355   7.008
 5050POPC   C4B65530  23.134  16.208   7.459
 5051POPC   NC365531  39.629  22.889   5.399
 5051POPC   PO465532  38.988  22.512   5.289
 5051POPC   GL165533  39.146  22.832   5.621
 5051POPC   GL265534  38.931  23.107   5.789
 5051POPC   C1A65535  39.228  22.789   6.083
 5051POPC   D2A65536  39.039  22.972   6.450
 5051POPC   C3A65537  39.237  22.824   6.829
 5051POPC   C4A65538  39.320  22.884   7.275
 5051POPC   C1B65539  39.245  23.313   6.113
 5051POPC   C2B65540  39.239  23.445   6.554
 5051POPC   C3B65541  39.145  23.290   6.990
 5051POPC   C4B65542  39.039  23.266   7.467
 5052POPC   NC365543  25.246  30.372   5.378
 5052POPC   PO465544  25.199  29.718   5.103
 5052POPC   GL165545  25.103  29.878   5.608
 5052POPC   GL265546  25.414  29.941   5.804
 5052POPC   C1A65547  25.030  29.900   6.126
 5052POPC   D2A65548  25.287  30.009   6.544
 5052POPC   C3A65549  25.185  29.863   6.973
 5052POPC   C4A65550  25.133  30.068   7.380
 5052POPC   C1B65551  25.473  29.659   6.199
 5052POPC   C2B65552  25.580  29.600   6.654
 5052POPC   C3B65553  25.648  29.617   7.104
 5052POPC   C4B65554  25.587  29.922   7.450
 5053POPC   NC365555  10.197  10.138   5.321
 5053POPC   PO465556   9.578   9.802   5.388
 5053POPC   GL165557   9.836   9.698   5.738
 5053POPC   GL265558   9.613   9.427   5.804
 5053POPC   C1A65559  10.013   9.568   6.140
 5053POPC   D2A65560  10.167   9.548   6.586
 5053POPC   C3A65561   9.926   9.559   6.988
 5053POPC   C4A65562   9.865   9.944   7.242
 5053POPC   C1B65563   9.489   9.633   6.208
 5053POPC   C2B65564   9.253   9.538   6.617
 5053POPC   C3B65565   9.398   9.651   7.065
 5053POPC   C4B65566   9.449   9.784   7.526
 5054POPC   NC365567  43.361  26.567   5.287
 5054POPC   PO465568  44.005  26.655   5.431
 5054POPC   GL165569  43.665  26.550   5.723
 5054POPC   GL265570  43.508  26.898   5.711
 5054POPC   C1A65571  43.554  26.654   6.168
 5054POPC   D2A65572  43.584  26.831   6.589
 5054POPC   C3A65573  43.980  26.849   6.787
 5054POPC   C4A65574  43.974  26.604   7.105
 5054POPC   C1B65575  43.788  27.101   6.042
 5054POPC   C2B65576  43.875  27.236   6.466
 5054POPC   C3B65577  43.639  27.295   6.848
 5054POPC   C4B65578  43.869  27.176   7.194
 5055POPC   NC365579   4.813   1.142   5.613
 5055POPC   PO465580   5.164   1.516   5.094
 5055POPC   GL165581   5.251   1.417   5.585
 5055POPC   GL265582   5.309   1.073   5.774
 5055POPC   C1A65583   5.189   1.459   6.082
 5055POPC   D2A65584   5.005   1.340   6.520
 5055POPC   C3A65585   4.888   1.505   6.948
 5055POPC   C4A65586   4.971   1.479   7.423
 5055POPC   C1B65587   5.154   0.956   6.197
 5055POPC   C2B65588   5.049   0.827   6.621
 5055POPC   C3B65589   5.072   1.038   7.028
 5055POPC   C4B65590   4.663   1.121   7.255
 5056POPC   NC365591   0.323  37.698   5.213
 5056POPC   PO465592   0.735  37.287   5.388
 5056POPC   GL165593   0.400  37.480   5.718
 5056POPC   GL265594   0.194  37.813   5.696
 5056POPC   C1A65595   0.435  37.705   6.143
 5056POPC   D2A65596   0.576  37.592   6.570
 5056POPC   C3A65597   0.535  37.728   6.974
 5056POPC   C4A65598   0.723  37.699   7.411
 5056POPC   C1B65599   0.049  38.035   6.105
 5056POPC   C2B65600   0.249  38.145   6.532
 5056POPC   C3B65601   0.143  38.080   6.992
 5056POPC   C4B65602   0.218  37.787   7.366
 5057POPC   NC365603  36.107   6.896   5.348
 5057POPC   PO465604  36.075   6.269   5.409
 5057POPC   GL165605  36.198   6.560   5.773
 5057POPC   GL265606  36.072   6.911   5.853
 5057POPC   C1A65607  36.196   6.594   6.230
 5057POPC   D2A65608  35.954   6.587   6.605
 5057POPC   C3A65609  36.218   6.600   6.963
 5057POPC   C4A65610  36.140   6.444   7.308
 5057POPC   C1B65611  35.776   6.942   6.210
 5057POPC   C2B65612  35.672   7.029   6.666
 5057POPC   C3B65613  35.799   6.850   7.063
 5057POPC   C4B65614  36.120   6.944   7.360
 5058POPC   NC365615  30.113  40.482   5.361
 5058POPC   PO465616  29.498  40.927   5.311
 5058POPC   GL165617  29.746  40.704   5.650
 5058POPC   GL265618  30.055  40.862   5.715
 5058POPC   C1A65619  29.732  40.790   6.129
 5058POPC   D2A65620  29.513  40.854   6.546
 5058POPC   C3A65621  29.519  40.665   6.941
 5058POPC   C4A65622  29.773  40.779   7.257
 5058POPC   C1B65623  30.268  40.766   6.104
 5058POPC   C2B65624  30.295  40.604   6.526
 5058POPC   C3B65625  30.276  40.849   6.917
 5058POPC   C4B65626  30.284  40.718   7.318
 5059POPC   NC365627  21.630  38.008   5.499
 5059POPC   PO465628  22.142  37.616   5.142
 5059POPC   GL165629  22.259  37.668   5.650
 5059POPC   GL265630  22.052  37.943   5.815
 5059POPC   C1A65631  22.361  37.637   6.099
 5059POPC   D2A65632  22.200  37.873   6.476
 5059POPC   C3A65633  22.337  37.804   6.922
 5059POPC   C4A65634  22.436  37.494   7.224
 5059POPC   C1B65635  21.828  37.678   6.153
 5059POPC   C2B65636  21.763  37.596   6.566
 5059POPC   C3B65637  21.851  37.937   6.842
 5059POPC   C4B65638  21.903  37.641   7.136
 5060POPC   NC365639   4.473  39.013   5.302
 5060POPC   PO465640   4.009  39.410   5.509
 5060POPC   GL165641   4.263  39.158   5.791
 5060POPC   GL265642   4.560  39.338   5.784
 5060POPC   C1A65643   4.331  39.236   6.243
 5060POPC   D2A65644   4.213  39.520   6.584
 5060POPC   C3A65645   4.063  39.326   6.979
 5060POPC   C4A65646   4.118  38.885   7.086
 5060POPC   C1B65647   4.810  39.502   6.130
 5060POPC   C2B65648   4.737  39.345   6.545
 5060POPC   C3B65649   4.724  39.469   6.964
 5060POPC   C4B65650   4.503  39.211   7.258
 5061POPC   NC365651  20.912  16.627   5.429
 5061POPC   PO465652  20.619  17.163   5.648
 5061POPC   GL165653  20.793  16.899   5.899
 5061POPC   GL265654  20.656  16.571   5.860
 5061POPC   C1A65655  20.628  16.842   6.297
 5061POPC   D2A65656  20.455  16.639   6.627
 5061POPC   C3A65657  20.467  16.941   6.938
 5061POPC   C4A65658  20.407  16.794   7.310
 5061POPC   C1B65659  20.820  16.364   6.201
 5061POPC   C2B65660  20.982  16.365   6.644
 5061POPC   C3B65661  20.757  16.480   7.036
 5061POPC   C4B65662  20.813  16.556   7.492
 5062POPC   NC365663   5.256   3.410   5.233
 5062POPC   PO465664   5.192   4.043   5.232
 5062POPC   GL165665   5.160   3.867   5.689
 5062POPC   GL265666   5.149   3.474   5.750
 5062POPC   C1A65667   5.065   3.788   6.158
 5062POPC   D2A65668   4.869   3.416   6.421
 5062POPC   C3A65669   4.797   3.525   6.881
 5062POPC   C4A65670   4.884   3.668   7.342
 5062POPC   C1B65671   5.335   3.336   6.183
 5062POPC   C2B65672   5.319   3.457   6.658
 5062POPC   C3B65673   5.238   3.332   7.107
 5062POPC   C4B65674   5.279   3.368   7.590
 5063POPC   NC365675   5.762  33.082   5.218
 5063POPC   PO465676   6.307  33.426   5.553
 5063POPC   GL165677   5.982  33.270   5.802
 5063POPC   GL265678   5.891  32.929   5.787
 5063POPC   C1A65679   6.037  33.199   6.236
 5063POPC   D2A65680   5.989  33.272   6.660
 5063POPC   C3A65681   5.653  33.015   6.815
 5063POPC   C4A65682   5.464  33.097   7.222
 5063POPC   C1B65683   5.747  32.684   6.162
 5063POPC   C2B65684   5.912  32.625   6.611
 5063POPC   C3B65685   6.111  32.785   7.000
 5063POPC   C4B65686   6.139  32.630   7.416
 5064POPC   NC365687  10.709  29.145   5.207
 5064POPC   PO465688  10.176  29.444   5.272
 5064POPC   GL165689  10.452  29.220   5.658
 5064POPC   GL265690  10.354  28.917   5.841
 5064POPC   C1A65691  10.798  29.116   6.042
 5064POPC   D2A65692  11.063  29.115   6.479
 5064POPC   C3A65693  10.828  29.061   6.901
 5064POPC   C4A65694  10.519  28.844   7.176
 5064POPC   C1B65695  10.320  29.221   6.205
 5064POPC   C2B65696  10.378  29.222   6.680
 5064POPC   C3B65697  10.356  29.340   7.139
 5064POPC   C4B65698   9.958  29.344   7.368
 5065POPC   NC365699  21.855  34.647   5.041
 5065POPC   PO465700  22.221  34.732   5.651
 5065POPC   GL165701  22.098  34.459   5.961
 5065POPC   GL265702  21.956  34.760   6.144
 5065POPC   C1A65703  22.253  34.363   6.374
 5065POPC   D2A65704  22.541  34.535   6.650
 5065POPC   C3A65705  22.328  34.600   7.021
 5065POPC   C4A65706  22.321  34.904   7.340
 5065POPC   C1B65707  21.734  34.411   6.327
 5065POPC   C2B65708  21.763  34.372   6.786
 5065POPC   C3B65709  21.823  34.574   7.199
 5065POPC   C4B65710  21.725  34.326   7.590
 5066POPC   NC365711  20.502   3.931   5.516
 5066POPC   PO465712  20.729   4.521   5.365
 5066POPC   GL165713  20.571   4.363   5.794
 5066POPC   GL265714  20.203   4.330   5.832
 5066POPC   C1A65715  20.504   4.119   6.213
 5066POPC   D2A65716  20.533   4.267   6.671
 5066POPC   C3A65717  20.431   4.032   7.068
 5066POPC   C4A65718  20.708   4.035   7.429
 5066POPC   C1B65719  20.227   4.564   6.247
 5066POPC   C2B65720  20.267   4.710   6.694
 5066POPC   C3B65721  20.441   4.568   7.112
 5066POPC   C4B65722  20.286   4.367   7.478
 5067POPC   NC365723  26.196  44.114   5.392
 5067POPC   PO465724  25.854  43.548   5.339
 5067POPC   GL165725  26.033  43.737   5.720
 5067POPC   GL265726  26.369  43.613   5.642
 5067POPC   C1A65727  26.007  43.894   6.184
 5067POPC   D2A65728  25.769  44.009   6.576
 5067POPC   C3A65729  25.947  44.126   6.971
 5067POPC   C4A65730  26.227  44.008   7.324
 5067POPC   C1B65731  26.336  43.518   6.065
 5067POPC   C2B65732  26.255  43.520   6.492
 5067POPC   C3B65733  26.223  43.682   6.893
 5067POPC   C4B65734  26.166  43.520   7.308
 5068POPC   NC365735  33.173   7.584   5.416
 5068POPC   PO465736  32.746   7.127   5.435
 5068POPC   GL165737  32.985   7.268   5.800
 5068POPC   GL265738  33.295   7.098   5.864
 5068POPC   C1A65739  32.900   7.444   6.226
 5068POPC   D2A65740  32.681   7.653   6.576
 5068POPC   C3A65741  32.884   7.613   6.959
 5068POPC   C4A65742  32.948   7.417   7.343
 5068POPC   C1B65743  33.382   7.230   6.287
 5068POPC   C2B65744  33.296   7.342   6.726
 5068POPC   C3B65745  33.344   7.138   7.129
 5068POPC   C4B65746  33.454   7.071   7.570
 5069POPC   NC365747  39.126   3.731   5.211
 5069POPC   PO465748  39.581   3.263   5.391
 5069POPC   GL165749  39.427   3.551   5.767
 5069POPC   GL265750  39.034   3.581   5.806
 5069POPC   C1A65751  39.345   3.584   6.241
 5069POPC   D2A65752  39.530   3.608   6.670
 5069POPC   C3A65753  39.458   3.376   7.060
 5069POPC   C4A65754  39.433   3.577   7.463
 5069POPC   C1B65755  38.831   3.458   6.224
 5069POPC   C2B65756  38.977   3.536   6.673
 5069POPC   C3B65757  38.965   3.501   7.143
 5069POPC   C4B65758  38.938   3.351   7.583
 5070POPC   NC365759  14.570  13.567   5.307
 5070POPC   PO465760  14.006  13.901   5.409
 5070POPC   GL165761  14.197  13.557   5.755
 5070POPC   GL265762  14.579  13.558   5.818
 5070POPC   C1A65763  14.283  13.424   6.205
 5070POPC   D2A65764  14.331  13.605   6.627
 5070POPC   C3A65765  14.130  13.480   7.043
 5070POPC   C4A65766  14.313  13.337   7.483
 5070POPC   C1B65767  14.587  13.844   6.195
 5070POPC   C2B65768  14.688  14.019   6.605
 5070POPC   C3B65769  14.864  13.956   7.010
 5070POPC   C4B65770  14.608  13.711   7.284
 5071POPC   NC365771  11.752  18.682   5.387
 5071POPC   PO465772  11.312  19.176   5.096
 5071POPC   GL165773  11.369  19.013   5.546
 5071POPC   GL265774  11.268  19.282   5.723
 5071POPC   C1A65775  11.394  18.854   6.015
 5071POPC   D2A65776  11.263  18.635   6.433
 5071POPC   C3A65777  11.215  18.878   6.793
 5071POPC   C4A65778  11.279  18.788   7.231
 5071POPC   C1B65779  11.148  19.314   6.168
 5071POPC   C2B65780  11.302  19.386   6.630
 5071POPC   C3B65781  11.388  19.286   7.078
 5071POPC   C4B65782  11.147  19.494   7.413
 5072POPC   NC365783  30.508  23.673   5.701
 5072POPC   PO465784  30.983  23.954   5.401
 5072POPC   GL165785  30.953  23.856   5.876
 5072POPC   GL265786  30.931  23.466   5.884
 5072POPC   C1A65787  30.673  23.864   6.293
 5072POPC   D2A65788  30.573  23.583   6.665
 5072POPC   C3A65789  30.794  23.783   6.968
 5072POPC   C4A65790  30.750  24.155   7.169
 5072POPC   C1B65791  30.705  23.344   6.229
 5072POPC   C2B65792  30.762  23.102   6.561
 5072POPC   C3B65793  30.893  23.252   6.945
 5072POPC   C4B65794  30.823  23.478   7.360
 5073POPC   NC365795  39.959  15.413   5.323
 5073POPC   PO465796  39.922  14.889   5.524
 5073POPC   GL165797  39.912  15.207   5.897
 5073POPC   GL265798  39.854  15.565   5.820
 5073POPC   C1A65799  39.997  15.165   6.373
 5073POPC   D2A65800  39.957  14.857   6.738
 5073POPC   C3A65801  39.957  14.960   7.192
 5073POPC   C4A65802  39.796  14.923   7.641
 5073POPC   C1B65803  39.708  15.567   6.262
 5073POPC   C2B65804  39.695  15.476   6.735
 5073POPC   C3B65805  39.799  15.474   7.210
 5073POPC   C4B65806  39.856  15.557   7.682
 5074POPC   NC365807   2.349  22.159   5.550
 5074POPC   PO465808   2.997  22.103   5.460
 5074POPC   GL165809   2.775  22.024   5.838
 5074POPC   GL265810   2.562  21.789   5.885
 5074POPC   C1A65811   2.573  22.187   6.206
 5074POPC   D2A65812   2.418  22.371   6.582
 5074POPC   C3A65813   2.660  22.255   6.912
 5074POPC   C4A65814   2.733  22.207   7.315
 5074POPC   C1B65815   2.319  21.764   6.264
 5074POPC   C2B65816   2.448  21.852   6.675
 5074POPC   C3B65817   2.348  21.899   7.114
 5074POPC   C4B65818   2.503  21.795   7.512
 5075POPC   NC365819  25.038  40.904   5.582
 5075POPC   PO465820  25.534  41.002   5.164
 5075POPC   GL165821  25.562  40.788   5.607
 5075POPC   GL265822  25.585  41.020   5.922
 5075POPC   C1A65823  25.502  40.512   5.996
 5075POPC   D2A65824  25.631  40.421   6.440
 5075POPC   C3A65825  25.568  40.570   6.877
 5075POPC   C4A65826  25.372  40.428   7.272
 5075POPC   C1B65827  25.517  40.968   6.382
 5075POPC   C2B65828  25.228  40.913   6.740
 5075POPC   C3B65829  25.230  40.935   7.200
 5075POPC   C4B65830  25.392  41.107   7.608
 5076POPC   NC365831  39.069  23.557   5.492
 5076POPC   PO465832  39.234  24.183   5.285
 5076POPC   GL165833  39.347  23.920   5.712
 5076POPC   GL265834  39.060  23.788   5.935
 5076POPC   C1A65835  39.506  23.793   6.164
 5076POPC   D2A65836  39.602  23.972   6.553
 5076POPC   C3A65837  39.419  23.779   6.894
 5076POPC   C4A65838  39.531  23.531   7.230
 5076POPC   C1B65839  38.757  23.465   6.136
 5076POPC   C2B65840  38.692  23.380   6.570
 5076POPC   C3B65841  38.854  23.690   6.856
 5076POPC   C4B65842  39.044  23.719   7.244
 5077POPC   NC365843  22.206  19.795   5.033
 5077POPC   PO465844  22.668  19.930   5.484
 5077POPC   GL165845  22.362  19.704   5.763
 5077POPC   GL265846  22.023  19.782   5.624
 5077POPC   C1A65847  22.312  19.812   6.174
 5077POPC   D2A65848  22.064  20.021   6.418
 5077POPC   C3A65849  22.151  19.914   6.818
 5077POPC   C4A65850  22.092  20.146   7.184
 5077POPC   C1B65851  21.917  19.548   5.986
 5077POPC   C2B65852  21.929  19.511   6.429
 5077POPC   C3B65853  22.065  19.383   6.841
 5077POPC   C4B65854  22.081  19.601   7.225
 5078POPC   NC365855   5.479  10.627   5.564
 5078POPC   PO465856   5.027  10.271   5.496
 5078POPC   GL165857   5.172  10.315   5.859
 5078POPC   GL265858   5.239  10.668   6.018
 5078POPC   C1A65859   4.951  10.300   6.204
 5078POPC   D2A65860   5.156  10.444   6.544
 5078POPC   C3A65861   5.249  10.326   6.957
 5078POPC   C4A65862   4.933  10.528   7.200
 5078POPC   C1B65863   5.132  10.934   6.393
 5078POPC   C2B65864   5.212  10.842   6.842
 5078POPC   C3B65865   5.373  10.745   7.271
 5078POPC   C4B65866   5.218  10.752   7.750
 5079POPC   NC365867  37.338  37.995   5.384
 5079POPC   PO465868  36.803  37.645   5.356
 5079POPC   GL165869  37.043  37.725   5.724
 5079POPC   GL265870  36.883  38.002   5.913
 5079POPC   C1A65871  37.047  37.601   6.167
 5079POPC   D2A65872  36.891  37.574   6.578
 5079POPC   C3A65873  37.099  37.649   6.964
 5079POPC   C4A65874  36.958  37.636   7.362
 5079POPC   C1B65875  36.709  37.981   6.349
 5079POPC   C2B65876  36.697  37.982   6.814
 5079POPC   C3B65877  36.860  38.120   7.231
 5079POPC   C4B65878  36.641  38.226   7.648
 5080POPC   NC365879  44.954  22.683   5.325
 5080POPC   PO465880  44.445  23.170   5.466
 5080POPC   GL165881  44.716  22.965   5.723
 5080POPC   GL265882  44.456  22.785   5.858
 5080POPC   C1A65883  44.739  23.033   6.188
 5080POPC   D2A65884  44.451  23.041   6.565
 5080POPC   C3A65885  44.665  23.052   6.971
 5080POPC   C4A65886  44.943  23.291   7.253
 5080POPC   C1B65887  44.476  22.583   6.230
 5080POPC   C2B65888  44.306  22.524   6.614
 5080POPC   C3B65889  44.391  22.512   7.017
 5080POPC   C4B65890  44.407  22.686   7.407
 5081POPC   NC365891  43.649  27.993   5.497
 5081POPC   PO465892  43.907  28.646   5.461
 5081POPC   GL165893  43.943  28.321   5.794
 5081POPC   GL265894  43.709  28.528   5.939
 5081POPC   C1A65895  43.729  28.064   6.166
 5081POPC   D2A65896  43.527  28.153   6.581
 5081POPC   C3A65897  43.796  28.117   6.952
 5081POPC   C4A65898  44.067  28.074   7.330
 5081POPC   C1B65899  44.012  28.485   6.272
 5081POPC   C2B65900  43.942  28.555   6.694
 5081POPC   C3B65901  44.013  28.536   7.128
 5081POPC   C4B65902  44.047  28.616   7.549
 5082POPC   NC365903  22.358  17.985   5.167
 5082POPC   PO465904  22.003  18.567   5.355
 5082POPC   GL165905  21.961  18.280   5.719
 5082POPC   GL265906  22.318  18.189   5.736
 5082POPC   C1A65907  21.955  18.227   6.194
 5082POPC   D2A65908  22.129  18.541   6.503
 5082POPC   C3A65909  22.056  18.623   6.933
 5082POPC   C4A65910  21.880  18.266   7.128
 5082POPC   C1B65911  22.465  18.293   6.187
 5082POPC   C2B65912  22.610  18.320   6.621
 5082POPC   C3B65913  22.409  18.210   7.010
 5082POPC   C4B65914  22.433  18.070   7.413
 5083POPC   NC365915  32.483  28.763   5.020
 5083POPC   PO465916  32.210  28.214   5.381
 5083POPC   GL165917  32.364  28.360   5.744
 5083POPC   GL265918  32.202  28.671   5.705
 5083POPC   C1A65919  32.256  28.222   6.159
 5083POPC   D2A65920  32.083  28.099   6.544
 5083POPC   C3A65921  32.356  28.178   6.893
 5083POPC   C4A65922  32.296  28.339   7.302
 5083POPC   C1B65923  32.028  28.687   6.118
 5083POPC   C2B65924  32.222  28.612   6.521
 5083POPC   C3B65925  32.165  28.691   6.952
 5083POPC   C4B65926  31.928  28.706   7.337
 5084POPC   NC365927   2.318   1.401   5.462
 5084POPC   PO465928   1.610   1.393   5.423
 5084POPC   GL165929   1.855   1.432   5.837
 5084POPC   GL265930   2.228   1.454   5.942
 5084POPC   C1A65931   1.853   1.536   6.290
 5084POPC   D2A65932   2.035   1.363   6.694
 5084POPC   C3A65933   1.810   0.981   6.844
 5084POPC   C4A65934   1.695   0.899   7.292
 5084POPC   C1B65935   2.163   1.109   6.257
 5084POPC   C2B65936   2.283   0.882   6.658
 5084POPC   C3B65937   2.190   0.837   7.122
 5084POPC   C4B65938   2.079   1.251   7.297
 5085POPC   NC365939  26.463   5.156   5.323
 5085POPC   PO465940  27.095   5.358   5.244
 5085POPC   GL165941  26.944   5.139   5.643
 5085POPC   GL265942  26.613   5.039   5.801
 5085POPC   C1A65943  27.089   5.105   6.061
 5085POPC   D2A65944  26.866   5.231   6.432
 5085POPC   C3A65945  26.855   5.057   6.838
 5085POPC   C4A65946  27.116   5.022   7.219
 5085POPC   C1B65947  26.690   4.810   6.187
 5085POPC   C2B65948  26.683   4.636   6.586
 5085POPC   C3B65949  26.443   4.747   6.937
 5085POPC   C4B65950  26.551   5.040   7.253
 5086POPC   NC365951  17.648  40.660   5.461
 5086POPC   PO465952  17.950  41.275   5.382
 5086POPC   GL165953  17.782  41.076   5.782
 5086POPC   GL265954  17.443  40.956   5.812
 5086POPC   C1A65955  17.586  41.124   6.234
 5086POPC   D2A65956  17.389  40.889   6.530
 5086POPC   C3A65957  17.540  40.999   6.907
 5086POPC   C4A65958  17.275  41.077   7.212
 5086POPC   C1B65959  17.616  40.621   6.151
 5086POPC   C2B65960  17.627  40.437   6.619
 5086POPC   C3B65961  17.673  40.532   7.116
 5086POPC   C4B65962  17.840  40.495   7.581
 5087POPC   NC365963  25.047   2.162   5.344
 5087POPC   PO465964  25.613   1.778   5.505
 5087POPC   GL165965  25.358   2.019   5.761
 5087POPC   GL265966  25.103   2.208   5.835
 5087POPC   C1A65967  25.235   1.864   6.189
 5087POPC   D2A65968  25.486   1.744   6.501
 5087POPC   C3A65969  25.335   1.841   6.859
 5087POPC   C4A65970  25.540   1.862   7.194
 5087POPC   C1B65971  25.363   2.348   6.159
 5087POPC   C2B65972  25.210   2.229   6.550
 5087POPC   C3B65973  24.974   2.229   6.945
 5087POPC   C4B65974  25.204   2.210   7.347
 5088POPC   NC365975   2.335  38.287   5.289
 5088POPC   PO465976   1.717  38.360   5.375
 5088POPC   GL165977   1.884  38.506   5.752
 5088POPC   GL265978   2.259  38.578   5.698
 5088POPC   C1A65979   1.721  38.481   6.176
 5088POPC   D2A65980   1.716  38.287   6.583
 5088POPC   C3A65981   1.849  38.540   6.916
 5088POPC   C4A65982   2.011  38.344   7.286
 5088POPC   C1B65983   2.247  38.446   6.132
 5088POPC   C2B65984   2.246  38.684   6.516
 5088POPC   C3B65985   2.353  38.596   6.932
 5088POPC   C4B65986   2.153  38.823   7.258
 5089POPC   NC365987  44.517  12.980   5.406
 5089POPC   PO465988   0.167  12.733   5.376
 5089POPC   GL165989  44.982  12.808   5.802
 5089POPC   GL265990  44.633  12.863   5.885
 5089POPC   C1A65991   0.008  13.066   6.217
 5089POPC   D2A65992  44.953  13.273   6.646
 5089POPC   C3A65993  44.843  12.977   6.974
 5089POPC   C4A65994  44.478  13.044   7.242
 5089POPC   C1B65995  44.706  12.643   6.273
 5089POPC   C2B65996  44.802  12.538   6.700
 5089POPC   C3B65997  44.503  12.526   7.067
 5089POPC   C4B65998  44.284  12.606   7.460
 5090POPC   NC365999   7.434   4.794   5.354
 5090POPC   PO466000   7.154   4.159   5.310
 5090POPC   GL166001   7.363   4.227   5.697
 5090POPC   GL266002   7.745   4.135   5.680
 5090POPC   C1A66003   7.236   4.396   6.112
 5090POPC   D2A66004   7.392   4.380   6.534
 5090POPC   C3A66005   7.176   4.446   6.964
 5090POPC   C4A66006   7.283   4.251   7.401
 5090POPC   C1B66007   7.726   4.523   5.951
 5090POPC   C2B66008   7.870   4.646   6.379
 5090POPC   C3B66009   7.625   4.748   6.771
 5090POPC   C4B66010   7.647   4.493   7.147
 5091POPC   NC366011  38.145  10.421   5.434
 5091POPC   PO466012  37.454  10.552   5.271
 5091POPC   GL166013  37.668  10.515   5.714
 5091POPC   GL266014  37.849  10.195   5.812
 5091POPC   C1A66015  37.679  10.490   6.203
 5091POPC   D2A66016  37.710  10.772   6.590
 5091POPC   C3A66017  37.704  10.533   6.965
 5091POPC   C4A66018  37.382  10.341   7.198
 5091POPC   C1B66019  38.136  10.184   6.173
 5091POPC   C2B66020  38.115  10.389   6.590
 5091POPC   C3B66021  38.114  10.234   7.001
 5091POPC   C4B66022  37.863  10.211   7.403
 5092POPC   NC366023  14.657  27.825   5.404
 5092POPC   PO466024  14.259  27.271   5.512
 5092POPC   GL166025  14.370  27.619   5.774
 5092POPC   GL266026  14.734  27.643   5.887
 5092POPC   C1A66027  14.249  27.737   6.179
 5092POPC   D2A66028  14.512  27.700   6.508
 5092POPC   C3A66029  14.304  27.720   6.863
 5092POPC   C4A66030  14.122  27.639   7.228
 5092POPC   C1B66031  14.544  27.302   6.157
 5092POPC   C2B66032  14.688  27.219   6.586
 5092POPC   C3B66033  14.744  27.463   6.948
 5092POPC   C4B66034  14.687  27.365   7.396
 5093POPC   NC366035  44.120  17.148   5.443
 5093POPC   PO466036  43.566  17.528   5.530
 5093POPC   GL166037  43.811  17.530   5.927
 5093POPC   GL266038  43.938  17.188   6.004
 5093POPC   C1A66039  43.710  17.538   6.379
 5093POPC   D2A66040  43.736  17.167   6.678
 5093POPC   C3A66041  43.960  17.263   7.064
 5093POPC   C4A66042  43.902  17.622   7.375
 5093POPC   C1B66043  44.184  17.309   6.377
 5093POPC   C2B66044  44.359  17.653   6.640
 5093POPC   C3B66045  44.367  17.582   7.084
 5093POPC   C4B66046  44.327  17.371   7.469
 5094POPC   NC366047  40.715   1.658   5.415
 5094POPC   PO466048  40.679   0.925   5.514
 5094POPC   GL166049  40.684   1.089   5.872
 5094POPC   GL266050  41.003   1.242   5.876
 5094POPC   C1A66051  40.566   1.180   6.254
 5094POPC   D2A66052  40.578   0.908   6.632
 5094POPC   C3A66053  40.568   1.121   7.036
 5094POPC   C4A66054  40.726   1.046   7.445
 5094POPC   C1B66055  41.089   1.059   6.315
 5094POPC   C2B66056  41.071   0.960   6.786
 5094POPC   C3B66057  41.162   0.935   7.238
 5094POPC   C4B66058  41.147   0.828   7.724
 5095POPC   NC366059  21.193  39.452   5.360
 5095POPC   PO466060  21.794  39.123   5.428
 5095POPC   GL166061  21.607  39.117   5.817
 5095POPC   GL266062  21.539  39.464   5.782
 5095POPC   C1A66063  21.474  38.920   6.234
 5095POPC   D2A66064  21.382  38.776   6.682
 5095POPC   C3A66065  21.417  39.042   7.004
 5095POPC   C4A66066  21.165  39.133   7.369
 5095POPC   C1B66067  21.227  39.352   6.136
 5095POPC   C2B66068  21.114  39.313   6.614
 5095POPC   C3B66069  21.246  39.512   7.035
 5095POPC   C4B66070  21.594  39.379   7.368
 5096POPC   NC366071  27.862  44.306   5.395
 5096POPC   PO466072  27.582  43.600   5.423
 5096POPC   GL166073  27.696  43.884   5.754
 5096POPC   GL266074  27.386  43.997   5.900
 5096POPC   C1A66075  27.879  43.906   6.192
 5096POPC   D2A66076  27.676  43.918   6.608
 5096POPC   C3A66077  27.948  43.954   6.961
 5096POPC   C4A66078  28.003  43.687   7.308
 5096POPC   C1B66079  27.462  43.617   6.154
 5096POPC   C2B66080  27.347  43.453   6.556
 5096POPC   C3B66081  27.229  43.738   6.881
 5096POPC   C4B66082  27.512  43.812   7.212
 5097POPC   NC366083  19.844   4.001   5.384
 5097POPC   PO466084  19.973   4.611   5.478
 5097POPC   GL166085  19.621   4.444   5.793
 5097POPC   GL266086  19.656   4.076   5.853
 5097POPC   C1A66087  19.454   4.307   6.247
 5097POPC   D2A66088  19.704   4.432   6.618
 5097POPC   C3A66089  19.473   4.471   6.991
 5097POPC   C4A66090  19.549   4.154   7.228
 5097POPC   C1B66091  19.940   4.146   6.235
 5097POPC   C2B66092  20.078   4.051   6.645
 5097POPC   C3B66093  20.000   4.300   7.025
 5097POPC   C4B66094  19.912   4.736   7.077
 5098POPC   NC366095  31.024  18.101   5.121
 5098POPC   PO466096  30.427  18.305   5.313
 5098POPC   GL166097  30.434  18.201   5.755
 5098POPC   GL266098  30.785  18.163   5.851
 5098POPC   C1A66099  30.413  18.321   6.203
 5098POPC   D2A66100  30.231  18.165   6.603
 5098POPC   C3A66101  30.416  18.363   6.989
 5098POPC   C4A66102  30.468  18.364   7.457
 5098POPC   C1B66103  30.958  18.359   6.232
 5098POPC   C2B66104  30.993  18.304   6.704
 5098POPC   C3B66105  30.847  18.077   7.081
 5098POPC   C4B66106  30.892  18.096   7.539
 5099POPC   NC366107  20.300  29.852   5.307
 5099POPC   PO466108  19.670  30.039   5.412
 5099POPC   GL166109  19.930  29.795   5.703
 5099POPC   GL266110  19.816  30.019   5.936
 5099POPC   C1A66111  20.114  29.690   6.149
 5099POPC   D2A66112  19.994  29.558   6.586
 5099POPC   C3A66113  20.168  29.816   6.907
 5099POPC   C4A66114  20.118  29.998   7.314
 5099POPC   C1B66115  19.634  29.832   6.293
 5099POPC   C2B66116  19.798  30.082   6.616
 5099POPC   C3B66117  19.780  30.227   7.015
 5099POPC   C4B66118  19.596  29.897   7.274
 5100POPC   NC366119  19.650  24.814   5.215
 5100POPC   PO466120  19.879  25.517   5.254
 5100POPC   GL166121  19.966  25.505   5.731
 5100POPC   GL266122  19.913  25.157   5.866
 5100POPC   C1A66123  19.834  25.501   6.204
 5100POPC   D2A66124  19.930  25.278   6.619
 5100POPC   C3A66125  19.784  25.347   7.050
 5100POPC   C4A66126  20.024  25.171   7.468
 5100POPC   C1B66127  19.636  25.037   6.182
 5100POPC   C2B66128  19.657  24.833   6.567
 5100POPC   C3B66129  19.377  24.830   6.907
 5100POPC   C4B66130  19.715  24.860   7.157
 5101POPC   NC366131  22.424  18.759   5.440
 5101POPC   PO466132  22.269  19.446   5.335
 5101POPC   GL166133  22.065  19.154   5.688
 5101POPC   GL266134  21.763  18.920   5.680
 5101POPC   C1A66135  22.149  18.834   6.058
 5101POPC   D2A66136  22.530  18.795   6.349
 5101POPC   C3A66137  22.499  19.034   6.759
 5101POPC   C4A66138  22.287  19.064   7.186
 5101POPC   C1B66139  21.711  19.112   6.111
 5101POPC   C2B66140  21.817  19.019   6.548
 5101POPC   C3B66141  21.659  19.118   6.984
 5101POPC   C4B66142  21.845  18.920   7.355
 5102POPC   NC366143  20.486  42.509   5.138
 5102POPC   PO466144  20.542  43.141   5.446
 5102POPC   GL166145  20.669  43.223   5.835
 5102POPC   GL266146  20.712  42.920   5.979
 5102POPC   C1A66147  20.943  43.331   6.204
 5102POPC   D2A66148  20.867  43.436   6.620
 5102POPC   C3A66149  20.589  43.175   6.845
 5102POPC   C4A66150  20.791  43.286   7.223
 5102POPC   C1B66151  20.507  43.103   6.317
 5102POPC   C2B66152  20.171  42.976   6.508
 5102POPC   C3B66153  20.041  43.030   6.907
 5102POPC   C4B66154  20.274  42.884   7.224
 5103POPC   NC366155  17.945  27.556   5.243
 5103POPC   PO466156  18.557  27.339   5.440
 5103POPC   GL166157  18.343  27.661   5.730
 5103POPC   GL266158  17.998  27.762   5.708
 5103POPC   C1A66159  18.266  27.881   6.146
 5103POPC   D2A66160  18.497  27.889   6.549
 5103POPC   C3A66161  18.311  27.803   6.975
 5103POPC   C4A66162  18.533  27.627   7.354
 5103POPC   C1B66163  17.964  27.445   6.027
 5103POPC   C2B66164  17.959  27.376   6.480
 5103POPC   C3B66165  17.848  27.508   6.902
 5103POPC   C4B66166  18.051  27.421   7.299
 5104POPC   NC366167  12.025  38.378   5.447
 5104POPC   PO466168  11.940  37.807   5.614
 5104POPC   GL166169  11.957  38.158   5.930
 5104POPC   GL266170  12.269  38.335   5.896
 5104POPC   C1A66171  11.816  38.440   6.295
 5104POPC   D2A66172  11.591  38.495   6.695
 5104POPC   C3A66173  11.825  38.558   7.107
 5104POPC   C4A66174  12.063  38.598   7.533
 5104POPC   C1B66175  12.303  38.337   6.363
 5104POPC   C2B66176  12.082  38.243   6.774
 5104POPC   C3B66177  12.157  38.163   7.239
 5104POPC   C4B66178  12.396  38.219   7.647
 5105POPC   NC366179  41.664  34.448   5.274
 5105POPC   PO466180  41.143  34.267   5.647
 5105POPC   GL166181  41.440  34.593   5.752
 5105POPC   GL266182  41.822  34.560   5.833
 5105POPC   C1A66183  41.496  34.660   6.202
 5105POPC   D2A66184  41.629  34.634   6.622
 5105POPC   C3A66185  41.337  34.535   6.918
 5105POPC   C4A66186  41.237  34.735   7.261
 5105POPC   C1B66187  41.997  34.536   6.276
 5105POPC   C2B66188  42.092  34.422   6.716
 5105POPC   C3B66189  41.834  34.457   7.066
 5105POPC   C4B66190  41.577  34.388   7.405
 5106POPC   NC366191  37.269  27.857   5.517
 5106POPC   PO466192  37.803  27.468   5.511
 5106POPC   GL166193  37.694  27.723   5.828
 5106POPC   GL266194  37.476  27.484   5.929
 5106POPC   C1A66195  37.914  27.733   6.220
 5106POPC   D2A66196  38.100  27.492   6.564
 5106POPC   C3A66197  37.926  27.685   6.928
 5106POPC   C4A66198  37.730  27.827   7.291
 5106POPC   C1B66199  37.491  27.333   6.331
 5106POPC   C2B66200  37.217  27.399   6.670
 5106POPC   C3B66201  37.325  27.578   7.048
 5106POPC   C4B66202  37.287  27.293   7.351
 5107POPC   NC366203   0.584  23.792   5.297
 5107POPC   PO466204  44.990  23.798   5.416
 5107POPC   GL166205   0.301  23.738   5.725
 5107POPC   GL266206   0.622  23.942   5.780
 5107POPC   C1A66207   0.315  23.521   6.078
 5107POPC   D2A66208   0.202  23.602   6.476
 5107POPC   C3A66209   0.375  23.433   6.868
 5107POPC   C4A66210   0.637  23.546   7.230
 5107POPC   C1B66211   0.719  23.808   6.206
 5107POPC   C2B66212   0.786  23.708   6.660
 5107POPC   C3B66213   0.855  23.966   7.064
 5107POPC   C4B66214   0.790  23.939   7.544
 5108POPC   NC366215  28.128  43.587   5.573
 5108POPC   PO466216  28.398  44.174   5.369
 5108POPC   GL166217  28.414  43.972   5.726
 5108POPC   GL266218  28.140  44.133   5.826
 5108POPC   C1A66219  28.454  43.863   6.147
 5108POPC   D2A66220  28.268  43.890   6.543
 5108POPC   C3A66221  28.475  44.102   6.861
 5108POPC   C4A66222  28.388  44.040   7.261
 5108POPC   C1B66223  28.072  44.394   6.192
 5108POPC   C2B66224  28.067  44.340   6.607
 5108POPC   C3B66225  28.054  44.461   7.013
 5108POPC   C4B66226  27.916  44.266   7.395
 5109POPC   NC366227  18.097  23.884   5.398
 5109POPC   PO466228  18.701  23.796   5.540
 5109POPC   GL166229  18.553  23.668   5.884
 5109POPC   GL266230  18.225  23.643   5.835
 5109POPC   C1A66231  18.482  23.583   6.309
 5109POPC   D2A66232  18.496  23.436   6.735
 5109POPC   C3A66233  18.490  23.784   6.984
 5109POPC   C4A66234  18.405  23.945   7.409
 5109POPC   C1B66235  18.010  23.764   6.216
 5109POPC   C2B66236  18.098  23.764   6.661
 5109POPC   C3B66237  18.003  23.711   7.115
 5109POPC   C4B66238  17.625  23.806   7.369
 5110POPC   NC366239  32.811  36.166   5.538
 5110POPC   PO466240  33.392  36.277   5.172
 5110POPC   GL166241  33.300  36.312   5.650
 5110POPC   GL266242  33.350  35.997   5.879
 5110POPC   C1A66243  33.194  36.434   6.095
 5110POPC   D2A66244  32.899  36.499   6.471
 5110POPC   C3A66245  33.045  36.464   6.911
 5110POPC   C4A66246  32.839  36.247   7.260
 5110POPC   C1B66247  33.140  35.944   6.264
 5110POPC   C2B66248  33.229  36.043   6.688
 5110POPC   C3B66249  33.067  35.835   7.062
 5110POPC   C4B66250  32.789  35.731   7.418
 5111POPC   NC366251  13.955  43.682   5.435
 5111POPC   PO466252  14.654  43.924   5.564
 5111POPC   GL166253  14.537  43.989   5.960
 5111POPC   GL266254  14.193  43.863   5.890
 5111POPC   C1A66255  14.528  43.836   6.378
 5111POPC   D2A66256  14.708  43.904   6.785
 5111POPC   C3A66257  14.516  43.935   7.206
 5111POPC   C4A66258  14.414  43.766   7.622
 5111POPC   C1B66259  14.121  44.135   6.241
 5111POPC   C2B66260  14.318  44.240   6.653
 5111POPC   C3B66261  14.222  44.329   7.084
 5111POPC   C4B66262  14.032  44.052   7.413
 5112POPC   NC366263  24.828  43.339   5.320
 5112POPC   PO466264  24.204  43.321   5.290
 5112POPC   GL166265  24.440  43.254   5.691
 5112POPC   GL266266  24.396  42.915   5.847
 5112POPC   C1A66267  24.645  43.295   6.117
 5112POPC   D2A66268  24.659  43.095   6.520
 5112POPC   C3A66269  24.601  43.283   6.887
 5112POPC   C4A66270  24.619  43.316   7.294
 5112POPC   C1B66271  24.190  43.067   6.229
 5112POPC   C2B66272  24.174  43.032   6.684
 5112POPC   C3B66273  24.113  43.082   7.103
 5112POPC   C4B66274  24.062  42.701   7.317
 5113POPC   NC366275  36.749  12.228   4.965
 5113POPC   PO466276  36.487  11.726   5.346
 5113POPC   GL166277  36.671  11.773   5.753
 5113POPC   GL266278  36.678  12.133   5.785
 5113POPC   C1A66279  36.904  11.801   6.163
 5113POPC   D2A66280  36.959  11.963   6.613
 5113POPC   C3A66281  36.810  11.707   6.999
 5113POPC   C4A66282  36.839  11.761   7.465
 5113POPC   C1B66283  36.802  12.315   6.208
 5113POPC   C2B66284  36.854  12.470   6.646
 5113POPC   C3B66285  36.880  12.228   7.057
 5113POPC   C4B66286  36.878  12.270   7.524
 5114POPC   NC366287  44.185  31.708   5.666
 5114POPC   PO466288  43.693  31.392   5.420
 5114POPC   GL166289  43.710  31.574   5.817
 5114POPC   GL266290  43.908  31.276   5.906
 5114POPC   C1A66291  43.866  31.649   6.259
 5114POPC   D2A66292  43.861  31.467   6.678
 5114POPC   C3A66293  43.629  31.730   6.969
 5114POPC   C4A66294  43.702  31.679   7.400
 5114POPC   C1B66295  44.129  31.178   6.303
 5114POPC   C2B66296  44.260  31.143   6.754
 5114POPC   C3B66297  44.086  31.233   7.152
 5114POPC   C4B66298  43.776  31.096   7.415
 5115POPC   NC366299  17.512   4.793   5.405
 5115POPC   PO466300  17.111   5.300   5.366
 5115POPC   GL166301  17.225   5.048   5.756
 5115POPC   GL266302  17.583   5.132   5.767
 5115POPC   C1A66303  17.426   4.802   6.124
 5115POPC   D2A66304  17.294   4.706   6.557
 5115POPC   C3A66305  17.563   4.676   6.911
 5115POPC   C4A66306  17.616   4.804   7.322
 5115POPC   C1B66307  17.469   5.313   6.163
 5115POPC   C2B66308  17.614   5.086   6.517
 5115POPC   C3B66309  17.758   5.149   6.901
 5115POPC   C4B66310  17.945   5.202   7.265
 5116POPC   NC366311  29.287  26.218   5.432
 5116POPC   PO466312  28.883  25.730   5.209
 5116POPC   GL166313  28.963  25.783   5.698
 5116POPC   GL266314  29.335  25.853   5.814
 5116POPC   C1A66315  28.977  25.966   6.146
 5116POPC   D2A66316  29.233  25.949   6.536
 5116POPC   C3A66317  29.093  26.168   6.880
 5116POPC   C4A66318  29.009  25.915   7.194
 5116POPC   C1B66319  29.463  26.169   6.118
 5116POPC   C2B66320  29.622  26.320   6.514
 5116POPC   C3B66321  29.591  26.372   6.954
 5116POPC   C4B66322  29.351  26.259   7.316
 5117POPC   NC366323  15.870  42.395   5.134
 5117POPC   PO466324  16.392  42.235   5.478
 5117POPC   GL166325  16.307  42.467   5.858
 5117POPC   GL266326  16.462  42.797   5.879
 5117POPC   C1A66327  16.020  42.431   6.233
 5117POPC   D2A66328  16.122  42.390   6.679
 5117POPC   C3A66329  15.878  42.266   7.058
 5117POPC   C4A66330  16.039  42.174   7.484
 5117POPC   C1B66331  16.459  42.688   6.343
 5117POPC   C2B66332  16.327  42.838   6.776
 5117POPC   C3B66333  16.273  42.581   7.192
 5117POPC   C4B66334  16.371  42.524   7.675
 5118POPC   NC366335  38.643  36.096   5.417
 5118POPC   PO466336  37.971  36.147   5.680
 5118POPC   GL166337  38.335  36.277   5.848
 5118POPC   GL266338  38.525  35.970   5.912
 5118POPC   C1A66339  38.383  36.366   6.281
 5118POPC   D2A66340  38.521  36.110   6.609
 5118POPC   C3A66341  38.429  36.228   7.012
 5118POPC   C4A66342  38.672  36.158   7.366
 5118POPC   C1B66343  38.652  35.659   6.236
 5118POPC   C2B66344  38.791  35.687   6.653
 5118POPC   C3B66345  38.570  35.727   7.046
 5118POPC   C4B66346  38.540  35.414   7.349
 5119POPC   NC366347  42.962  21.222   5.529
 5119POPC   PO466348  43.473  21.602   5.539
 5119POPC   GL166349  43.313  21.586   5.933
 5119POPC   GL266350  43.311  21.242   5.914
 5119POPC   C1A66351  43.156  21.455   6.349
 5119POPC   D2A66352  42.778  21.383   6.594
 5119POPC   C3A66353  42.948  21.417   6.999
 5119POPC   C4A66354  43.221  21.769   7.077
 5119POPC   C1B66355  43.467  21.019   6.263
 5119POPC   C2B66356  43.259  20.931   6.657
 5119POPC   C3B66357  43.368  20.938   7.069
 5119POPC   C4B66358  43.501  21.349   7.162
 5120POPC   NC366359  22.736  19.478   5.506
 5120POPC   PO466360  22.961  18.834   5.442
 5120POPC   GL166361  22.904  19.041   5.821
 5120POPC   GL266362  22.557  19.080   5.839
 5120POPC   C1A66363  22.878  19.146   6.265
 5120POPC   D2A66364  23.003  18.884   6.611
 5120POPC   C3A66365  23.039  19.110   6.969
 5120POPC   C4A66366  22.791  19.084   7.311
 5120POPC   C1B66367  22.359  19.295   6.192
 5120POPC   C2B66368  22.471  19.529   6.585
 5120POPC   C3B66369  22.554  19.483   7.058
 5120POPC   C4B66370  22.452  19.406   7.538
 5121POPC   NC366371  16.568  26.807   5.482
 5121POPC   PO466372  17.225  26.539   5.419
 5121POPC   GL166373  17.014  26.778   5.749
 5121POPC   GL266374  17.071  26.476   5.921
 5121POPC   C1A66375  16.758  26.819   6.155
 5121POPC   D2A66376  16.633  26.586   6.541
 5121POPC   C3A66377  16.517  26.863   6.871
 5121POPC   C4A66378  16.541  27.060   7.242
 5121POPC   C1B66379  17.248  26.330   6.298
 5121POPC   C2B66380  17.061  26.308   6.706
 5121POPC   C3B66381  16.847  26.501   7.040
 5121POPC   C4B66382  16.534  26.541   7.374
 5122POPC   NC366383  43.675  41.764   5.414
 5122POPC   PO466384  44.192  41.306   5.448
 5122POPC   GL166385  44.023  41.615   5.752
 5122POPC   GL266386  43.662  41.536   5.870
 5122POPC   C1A66387  44.008  41.766   6.170
 5122POPC   D2A66388  44.126  41.502   6.518
 5122POPC   C3A66389  44.028  41.655   6.937
 5122POPC   C4A66390  44.092  41.437   7.288
 5122POPC   C1B66391  43.619  41.472   6.322
 5122POPC   C2B66392  43.501  41.274   6.701
 5122POPC   C3B66393  43.598  41.367   7.136
 5122POPC   C4B66394  43.663  41.529   7.556
 5123POPC   NC366395  44.856  38.343   5.529
 5123POPC   PO466396  44.856  37.744   5.253
 5123POPC   GL166397  44.690  37.659   5.707
 5123POPC   GL266398  44.912  37.425   5.893
 5123POPC   C1A66399  44.527  37.875   6.109
 5123POPC   D2A66400  44.732  38.015   6.535
 5123POPC   C3A66401  44.551  37.938   6.965
 5123POPC   C4A66402  44.719  37.898   7.394
 5123POPC   C1B66403  44.787  37.496   6.316
 5123POPC   C2B66404  44.432  37.578   6.586
 5123POPC   C3B66405  44.339  37.454   7.017
 5123POPC   C4B66406  44.578  37.396   7.398
 5124POPC   NC366407   5.278  29.849   5.083
 5124POPC   PO466408   5.049  30.212   5.628
 5124POPC   GL166409   4.988  30.023   6.005
 5124POPC   GL266410   4.835  29.718   5.997
 5124POPC   C1A66411   5.304  29.904   6.282
 5124POPC   D2A66412   5.329  30.070   6.711
 5124POPC   C3A66413   5.362  29.842   7.084
 5124POPC   C4A66414   5.326  30.008   7.496
 5124POPC   C1B66415   4.845  29.802   6.461
 5124POPC   C2B66416   4.842  29.668   6.864
 5124POPC   C3B66417   4.879  29.842   7.220
 5124POPC   C4B66418   4.873  29.806   7.616
 5125POPC   NC366419   7.291   2.234   5.308
 5125POPC   PO466420   7.352   1.560   5.325
 5125POPC   GL166421   7.424   1.791   5.680
 5125POPC   GL266422   7.184   2.052   5.794
 5125POPC   C1A66423   7.522   1.819   6.129
 5125POPC   D2A66424   7.446   1.671   6.579
 5125POPC   C3A66425   7.748   1.832   6.886
 5125POPC   C4A66426   7.630   2.071   7.242
 5125POPC   C1B66427   7.191   2.203   6.253
 5125POPC   C2B66428   7.077   2.253   6.720
 5125POPC   C3B66429   7.137   2.240   7.209
 5125POPC   C4B66430   7.011   2.353   7.635
 5126POPC   NC366431  28.613  44.611   5.423
 5126POPC   PO466432  27.911  44.807   5.460
 5126POPC   GL166433  28.243  44.667   5.784
 5126POPC   GL266434  28.551  44.436   5.887
 5126POPC   C1A66435  28.404  44.792   6.203
 5126POPC   D2A66436  28.133  44.852   6.506
 5126POPC   C3A66437  28.186  44.975   6.919
 5126POPC   C4A66438  28.131  44.849   7.336
 5126POPC   C1B66439  28.544  44.322   6.340
 5126POPC   C2B66440  28.527  44.582   6.689
 5126POPC   C3B66441  28.548  44.620   7.106
 5126POPC   C4B66442  28.794  44.330   7.260
 5127POPC   NC366443  31.276  35.243   5.375
 5127POPC   PO466444  31.820  35.605   5.532
 5127POPC   GL166445  31.469  35.434   5.815
 5127POPC   GL266446  31.182  35.179   5.857
 5127POPC   C1A66447  31.509  35.432   6.245
 5127POPC   D2A66448  31.742  35.301   6.585
 5127POPC   C3A66449  31.663  35.607   6.897
 5127POPC   C4A66450  31.716  35.501   7.336
 5127POPC   C1B66451  31.182  35.054   6.262
 5127POPC   C2B66452  31.184  35.234   6.661
 5127POPC   C3B66453  31.392  35.208   7.047
 5127POPC   C4B66454  31.448  35.098   7.489
 5128POPC   NC366455   3.955   6.902   5.527
 5128POPC   PO466456   3.282   6.644   5.404
 5128POPC   GL166457   3.417   6.483   5.838
 5128POPC   GL266458   3.660   6.710   5.943
 5128POPC   C1A66459   3.481   6.441   6.321
 5128POPC   D2A66460   3.729   6.673   6.659
 5128POPC   C3A66461   3.477   6.697   7.038
 5128POPC   C4A66462   3.119   6.493   7.247
 5128POPC   C1B66463   3.419   6.966   6.246
 5128POPC   C2B66464   3.419   7.127   6.675
 5128POPC   C3B66465   3.784   7.110   6.948
 5128POPC   C4B66466   3.945   6.869   7.236
 5129POPC   NC366467  17.597  11.261   5.252
 5129POPC   PO466468  17.028  11.182   5.516
 5129POPC   GL166469  17.360  11.374   5.723
 5129POPC   GL266470  17.593  11.109   5.745
 5129POPC   C1A66471  17.595  11.481   6.099
 5129POPC   D2A66472  17.411  11.417   6.508
 5129POPC   C3A66473  17.420  11.558   6.916
 5129POPC   C4A66474  17.800  11.543   7.146
 5129POPC   C1B66475  17.296  11.058   6.121
 5129POPC   C2B66476  17.439  10.914   6.514
 5129POPC   C3B66477  17.628  11.086   6.896
 5129POPC   C4B66478  17.438  11.206   7.298
 5130POPC   NC366479  28.786  31.519   5.419
 5130POPC   PO466480  28.227  31.749   5.233
 5130POPC   GL166481  28.369  31.444   5.677
 5130POPC   GL266482  28.580  31.126   5.712
 5130POPC   C1A66483  28.520  31.483   6.115
 5130POPC   D2A66484  28.324  31.536   6.523
 5130POPC   C3A66485  28.589  31.680   6.822
 5130POPC   C4A66486  28.432  31.598   7.255
 5130POPC   C1B66487  28.272  31.023   6.068
 5130POPC   C2B66488  28.038  31.100   6.460
 5130POPC   C3B66489  28.043  31.023   6.892
 5130POPC   C4B66490  28.158  31.196   7.304
 5131POPC   NC366491  20.917   2.501   5.486
 5131POPC   PO466492  20.576   1.935   5.554
 5131POPC   GL166493  20.539   2.113   5.918
 5131POPC   GL266494  20.413   2.405   5.804
 5131POPC   C1A66495  20.863   2.220   6.193
 5131POPC   D2A66496  20.975   2.133   6.600
 5131POPC   C3A66497  20.764   1.817   6.784
 5131POPC   C4A66498  20.648   1.721   7.189
 5131POPC   C1B66499  20.489   2.576   6.180
 5131POPC   C2B66500  20.594   2.470   6.561
 5131POPC   C3B66501  20.599   2.266   6.944
 5131POPC   C4B66502  20.440   2.180   7.367
 5132POPC   NC366503   9.346  28.359   5.138
 5132POPC   PO466504   9.815  28.039   5.501
 5132POPC   GL166505   9.743  28.279   5.833
 5132POPC   GL266506   9.411  28.275   6.038
 5132POPC   C1A66507   9.840  28.441   6.204
 5132POPC   D2A66508   9.805  28.594   6.652
 5132POPC   C3A66509  10.064  28.459   6.991
 5132POPC   C4A66510   9.817  28.339   7.338
 5132POPC   C1B66511   9.403  28.669   6.335
 5132POPC   C2B66512   9.362  28.866   6.746
 5132POPC   C3B66513   9.443  28.754   7.178
 5132POPC   C4B66514   9.396  28.595   7.608
 5133POPC   NC366515   9.038   5.321   5.569
 5133POPC   PO466516   8.564   4.895   5.490
 5133POPC   GL166517   8.810   4.997   5.877
 5133POPC   GL266518   9.172   4.899   5.825
 5133POPC   C1A66519   9.032   5.229   6.231
 5133POPC   D2A66520   8.835   5.403   6.603
 5133POPC   C3A66521   8.816   5.153   6.967
 5133POPC   C4A66522   9.056   5.205   7.322
 5133POPC   C1B66523   9.051   4.718   6.214
 5133POPC   C2B66524   9.048   4.861   6.618
 5133POPC   C3B66525   9.205   4.792   7.041
 5133POPC   C4B66526   9.269   4.755   7.511
 5134POPC   NC366527  12.305  41.108   5.455
 5134POPC   PO466528  12.267  40.467   5.391
 5134POPC   GL166529  12.054  40.651   5.760
 5134POPC   GL266530  11.930  40.981   5.789
 5134POPC   C1A66531  12.073  40.718   6.227
 5134POPC   D2A66532  12.043  40.782   6.706
 5134POPC   C3A66533  12.280  40.519   7.047
 5134POPC   C4A66534  12.266  40.496   7.522
 5134POPC   C1B66535  11.920  41.206   6.185
 5134POPC   C2B66536  11.970  41.304   6.627
 5134POPC   C3B66537  11.772  41.179   6.998
 5134POPC   C4B66538  11.939  40.845   7.233
 5135POPC   NC366539   3.141  28.677   5.328
 5135POPC   PO466540   2.528  28.450   5.353
 5135POPC   GL166541   2.571  28.237   5.752
 5135POPC   GL266542   2.924  28.354   5.801
 5135POPC   C1A66543   2.396  28.077   6.153
 5135POPC   D2A66544   2.663  27.955   6.496
 5135POPC   C3A66545   2.710  28.199   6.880
 5135POPC   C4A66546   2.468  28.573   7.018
 5135POPC   C1B66547   3.055  28.368   6.274
 5135POPC   C2B66548   3.179  28.386   6.743
 5135POPC   C3B66549   3.162  28.206   7.176
 5135POPC   C4B66550   3.099  28.458   7.601
 5136POPC   NC366551  26.948  22.032   5.418
 5136POPC   PO466552  26.531  21.717   5.620
 5136POPC   GL166553  26.901  21.857   5.898
 5136POPC   GL266554  26.994  22.217   5.904
 5136POPC   C1A66555  26.945  21.926   6.357
 5136POPC   D2A66556  26.746  21.819   6.757
 5136POPC   C3A66557  27.038  21.898   7.042
 5136POPC   C4A66558  27.141  22.245   7.232
 5136POPC   C1B66559  26.981  22.435   6.322
 5136POPC   C2B66560  26.896  22.324   6.758
 5136POPC   C3B66561  26.644  22.283   7.123
 5136POPC   C4B66562  26.789  22.512   7.499
 5137POPC   NC366563  21.476  16.335   5.295
 5137POPC   PO466564  21.415  16.950   5.293
 5137POPC   GL166565  21.465  16.584   5.712
 5137POPC   GL266566  21.178  16.559   5.884
 5137POPC   C1A66567  21.613  16.561   6.188
 5137POPC   D2A66568  21.525  16.764   6.629
 5137POPC   C3A66569  21.315  16.577   6.990
 5137POPC   C4A66570  21.527  16.604   7.374
 5137POPC   C1B66571  21.128  16.756   6.308
 5137POPC   C2B66572  20.953  16.873   6.727
 5137POPC   C3B66573  20.962  16.927   7.178
 5137POPC   C4B66574  21.185  16.901   7.590
 5138POPC   NC366575   4.068   5.709   5.399
 5138POPC   PO466576   4.285   6.250   5.212
 5138POPC   GL166577   4.331   6.144   5.713
 5138POPC   GL266578   4.341   5.783   5.813
 5138POPC   C1A66579   4.285   6.101   6.200
 5138POPC   D2A66580   4.292   5.922   6.632
 5138POPC   C3A66581   4.171   5.809   7.028
 5138POPC   C4A66582   4.149   6.069   7.360
 5138POPC   C1B66583   4.542   5.608   6.177
 5138POPC   C2B66584   4.505   5.488   6.570
 5138POPC   C3B66585   4.658   5.687   6.952
 5138POPC   C4B66586   4.562   5.737   7.401
 5139POPC   NC366587   3.260  25.304   5.408
 5139POPC   PO466588   3.869  25.272   5.370
 5139POPC   GL166589   3.611  25.308   5.789
 5139POPC   GL266590   3.358  25.049   5.877
 5139POPC   C1A66591   3.549  25.398   6.256
 5139POPC   D2A66592   3.394  25.351   6.696
 5139POPC   C3A66593   3.447  25.568   7.099
 5139POPC   C4A66594   3.493  26.008   7.260
 5139POPC   C1B66595   3.128  25.052   6.299
 5139POPC   C2B66596   3.070  24.975   6.754
 5139POPC   C3B66597   3.050  25.233   7.124
 5139POPC   C4B66598   3.215  25.235   7.532
 5140POPC   NC366599  20.218  11.512   5.009
 5140POPC   PO466600  20.598  11.833   5.464
 5140POPC   GL166601  20.680  12.026   5.811
 5140POPC   GL266602  21.020  12.135   5.759
 5140POPC   C1A66603  20.779  12.148   6.215
 5140POPC   D2A66604  20.599  12.058   6.601
 5140POPC   C3A66605  20.752  12.267   6.963
 5140POPC   C4A66606  20.581  12.372   7.379
 5140POPC   C1B66607  21.051  11.736   6.020
 5140POPC   C2B66608  21.025  11.711   6.491
 5140POPC   C3B66609  20.790  11.701   6.902
 5140POPC   C4B66610  20.783  11.912   7.302
 5141POPC   NC366611   2.740  38.989   5.421
 5141POPC   PO466612   3.085  39.562   5.635
 5141POPC   GL166613   2.710  39.343   5.806
 5141POPC   GL266614   2.888  39.042   5.898
 5141POPC   C1A66615   2.499  39.160   6.211
 5141POPC   D2A66616   2.622  39.269   6.653
 5141POPC   C3A66617   2.581  39.043   7.049
 5141POPC   C4A66618   2.500  38.993   7.560
 5141POPC   C1B66619   2.998  39.336   6.233
 5141POPC   C2B66620   3.165  39.414   6.615
 5141POPC   C3B66621   2.948  39.497   6.996
 5141POPC   C4B66622   2.890  39.251   7.383
 5142POPC   NC366623  23.324  30.188   5.735
 5142POPC   PO466624  23.856  29.997   5.344
 5142POPC   GL166625  23.792  29.858   5.771
 5142POPC   GL266626  23.572  29.564   5.809
 5142POPC   C1A66627  23.792  30.033   6.190
 5142POPC   D2A66628  23.803  30.276   6.586
 5142POPC   C3A66629  23.730  30.079   6.963
 5142POPC   C4A66630  24.048  29.961   7.241
 5142POPC   C1B66631  23.420  29.607   6.218
 5142POPC   C2B66632  23.430  29.858   6.579
 5142POPC   C3B66633  23.377  29.703   6.980
 5142POPC   C4B66634  23.594  29.702   7.305
 5143POPC   NC366635  11.410  15.520   5.515
 5143POPC   PO466636  11.230  16.093   5.165
 5143POPC   GL166637  11.266  16.041   5.646
 5143POPC   GL266638  11.605  16.004   5.751
 5143POPC   C1A66639  11.265  16.130   6.133
 5143POPC   D2A66640  11.293  16.347   6.553
 5143POPC   C3A66641  11.139  16.048   6.872
 5143POPC   C4A66642  10.976  15.775   7.175
 5143POPC   C1B66643  11.695  15.823   6.153
 5143POPC   C2B66644  11.546  15.892   6.583
 5143POPC   C3B66645  11.617  15.955   7.027
 5143POPC   C4B66646  11.604  16.385   7.223
 5144POPC   NC366647  22.191  30.988   4.956
 5144POPC   PO466648  22.329  30.593   5.442
 5144POPC   GL166649  22.288  30.625   5.840
 5144POPC   GL266650  22.211  30.954   5.822
 5144POPC   C1A66651  22.205  30.678   6.259
 5144POPC   D2A66652  22.445  30.822   6.573
 5144POPC   C3A66653  22.271  30.738   6.983
 5144POPC   C4A66654  22.507  30.650   7.336
 5144POPC   C1B66655  21.970  31.136   6.188
 5144POPC   C2B66656  21.968  31.019   6.632
 5144POPC   C3B66657  21.921  31.196   7.045
 5144POPC   C4B66658  21.921  31.205   7.527
 5145POPC   NC366659  36.397  29.788   5.302
 5145POPC   PO466660  37.023  29.835   5.399
 5145POPC   GL166661  36.822  29.950   5.769
 5145POPC   GL266662  36.698  29.676   6.000
 5145POPC   C1A66663  36.986  30.153   6.148
 5145POPC   D2A66664  36.837  30.299   6.532
 5145POPC   C3A66665  37.011  30.085   6.910
 5145POPC   C4A66666  37.235  29.999   7.282
 5145POPC   C1B66667  36.641  29.759   6.449
 5145POPC   C2B66668  36.686  29.681   6.912
 5145POPC   C3B66669  36.600  29.590   7.356
 5145POPC   C4B66670  36.440  29.601   7.823
 5146POPC   NC366671  29.390  39.449   5.346
 5146POPC   PO466672  28.853  39.053   5.190
 5146POPC   GL166673  29.037  39.285   5.669
 5146POPC   GL266674  29.329  39.458   5.859
 5146POPC   C1A66675  28.887  39.335   6.139
 5146POPC   D2A66676  28.857  39.046   6.509
 5146POPC   C3A66677  28.908  39.297   6.881
 5146POPC   C4A66678  29.156  39.455   7.228
 5146POPC   C1B66679  29.388  39.206   6.223
 5146POPC   C2B66680  29.366  39.080   6.652
 5146POPC   C3B66681  29.566  39.337   6.947
 5146POPC   C4B66682  29.629  39.696   7.201
 5147POPC   NC366683  11.387   6.241   5.322
 5147POPC   PO466684  11.034   6.861   5.401
 5147POPC   GL166685  11.163   6.570   5.738
 5147POPC   GL266686  11.454   6.713   5.798
 5147POPC   C1A66687  11.114   6.658   6.210
 5147POPC   D2A66688  11.284   6.871   6.602
 5147POPC   C3A66689  11.193   6.627   6.969
 5147POPC   C4A66690  11.171   6.695   7.399
 5147POPC   C1B66691  11.558   6.932   6.177
 5147POPC   C2B66692  11.772   6.714   6.496
 5147POPC   C3B66693  11.770   6.621   6.923
 5147POPC   C4B66694  11.642   6.441   7.285
 5148POPC   NC366695   6.081  39.410   5.307
 5148POPC   PO466696   5.770  38.792   5.319
 5148POPC   GL166697   5.753  39.178   5.672
 5148POPC   GL266698   6.067  39.144   5.760
 5148POPC   C1A66699   5.733  39.419   6.131
 5148POPC   D2A66700   5.657  39.672   6.557
 5148POPC   C3A66701   5.764  39.516   6.990
 5148POPC   C4A66702   5.686  39.642   7.406
 5148POPC   C1B66703   6.089  39.064   6.192
 5148POPC   C2B66704   5.941  39.239   6.578
 5148POPC   C3B66705   5.773  39.015   6.924
 5148POPC   C4B66706   6.074  38.977   7.217
 5149POPC   NC366707  43.550  35.903   5.430
 5149POPC   PO466708  43.789  36.471   5.358
 5149POPC   GL166709  43.788  36.241   5.749
 5149POPC   GL266710  44.104  36.098   5.881
 5149POPC   C1A66711  43.654  36.184   6.171
 5149POPC   D2A66712  43.825  36.113   6.609
 5149POPC   C3A66713  43.524  36.120   6.950
 5149POPC   C4A66714  43.759  36.226   7.327
 5149POPC   C1B66715  43.963  35.784   6.233
 5149POPC   C2B66716  43.951  35.615   6.699
 5149POPC   C3B66717  43.829  35.756   7.146
 5149POPC   C4B66718  43.740  35.806   7.618
 5150POPC   NC366719  44.475  26.673   5.346
 5150POPC   PO466720   0.040  26.383   5.525
 5150POPC   GL166721  44.719  26.447   5.840
 5150POPC   GL266722  44.505  26.762   5.845
 5150POPC   C1A66723  44.652  26.527   6.294
 5150POPC   D2A66724  44.396  26.891   6.461
 5150POPC   C3A66725  44.510  26.985   6.884
 5150POPC   C4A66726  44.724  26.764   7.213
 5150POPC   C1B66727  44.183  26.522   6.086
 5150POPC   C2B66728  44.196  26.416   6.539
 5150POPC   C3B66729  44.418  26.448   6.954
 5150POPC   C4B66730  44.337  26.545   7.438
 5151POPC   NC366731   4.802  38.247   5.584
 5151POPC   PO466732   5.176  38.684   5.398
 5151POPC   GL166733   5.096  38.596   5.828
 5151POPC   GL266734   5.313  38.332   5.804
 5151POPC   C1A66735   4.834  38.429   6.186
 5151POPC   D2A66736   4.619  38.367   6.575
 5151POPC   C3A66737   4.951  38.370   6.891
 5151POPC   C4A66738   4.874  38.321   7.324
 5151POPC   C1B66739   5.370  38.430   6.243
 5151POPC   C2B66740   5.346  38.131   6.573
 5151POPC   C3B66741   5.318  37.892   6.919
 5151POPC   C4B66742   5.403  38.165   7.266
 5152POPC   NC366743  34.038  27.209   5.379
 5152POPC   PO466744  33.818  27.835   5.282
 5152POPC   GL166745  33.773  27.576   5.650
 5152POPC   GL266746  33.495  27.609   5.901
 5152POPC   C1A66747  34.007  27.548   6.036
 5152POPC   D2A66748  34.046  27.863   6.387
 5152POPC   C3A66749  34.164  27.679   6.788
 5152POPC   C4A66750  34.079  27.600   7.212
 5152POPC   C1B66751  33.608  27.558   6.372
 5152POPC   C2B66752  33.605  27.499   6.833
 5152POPC   C3B66753  33.318  27.540   7.204
 5152POPC   C4B66754  33.371  27.393   7.661
 5153POPC   NC366755  22.775   3.845   5.181
 5153POPC   PO466756  22.877   3.172   5.272
 5153POPC   GL166757  22.905   3.347   5.700
 5153POPC   GL266758  23.004   3.702   5.728
 5153POPC   C1A66759  23.022   3.385   6.153
 5153POPC   D2A66760  22.904   3.534   6.563
 5153POPC   C3A66761  23.146   3.372   6.907
 5153POPC   C4A66762  22.936   3.406   7.283
 5153POPC   C1B66763  22.887   3.871   6.163
 5153POPC   C2B66764  22.983   4.055   6.551
 5153POPC   C3B66765  22.991   3.885   6.958
 5153POPC   C4B66766  23.161   3.864   7.360
 5154POPC   NC366767  14.537  32.955   5.028
 5154POPC   PO466768  14.819  33.383   5.457
 5154POPC   GL166769  14.531  33.099   5.650
 5154POPC   GL266770  14.683  32.809   5.816
 5154POPC   C1A66771  14.414  33.133   6.107
 5154POPC   D2A66772  14.714  33.036   6.472
 5154POPC   C3A66773  14.553  32.976   6.924
 5154POPC   C4A66774  14.612  32.967   7.377
 5154POPC   C1B66775  14.467  32.645   6.197
 5154POPC   C2B66776  14.275  32.801   6.545
 5154POPC   C3B66777  14.085  32.714   6.938
 5154POPC   C4B66778  14.045  32.651   7.394
 5155POPC   NC366779  15.951  15.813   5.382
 5155POPC   PO466780  16.214  16.455   5.264
 5155POPC   GL166781  16.270  16.161   5.604
 5155POPC   GL266782  15.910  16.172   5.745
 5155POPC   C1A66783  16.265  15.949   6.022
 5155POPC   D2A66784  16.019  15.985   6.413
 5155POPC   C3A66785  16.113  15.993   6.826
 5155POPC   C4A66786  15.753  15.959   7.055
 5155POPC   C1B66787  15.756  15.801   6.020
 5155POPC   C2B66788  15.660  15.623   6.446
 5155POPC   C3B66789  15.500  15.539   6.882
 5155POPC   C4B66790  15.822  15.490   7.223
 5156POPC   NC366791   7.234   6.419   5.391
 5156POPC   PO466792   6.622   6.771   5.440
 5156POPC   GL166793   6.869   6.760   5.806
 5156POPC   GL266794   7.202   6.863   5.675
 5156POPC   C1A66795   6.801   6.559   6.239
 5156POPC   D2A66796   6.440   6.385   6.483
 5156POPC   C3A66797   6.473   6.482   6.908
 5156POPC   C4A66798   6.693   6.326   7.244
 5156POPC   C1B66799   7.260   6.796   6.115
 5156POPC   C2B66800   7.263   6.667   6.551
 5156POPC   C3B66801   7.188   6.872   6.939
 5156POPC   C4B66802   6.796   6.808   7.156
 5157POPC   NC366803  11.560  35.325   5.542
 5157POPC   PO466804  11.072  35.610   5.360
 5157POPC   GL166805  11.196  35.664   5.817
 5157POPC   GL266806  11.539  35.629   5.947
 5157POPC   C1A66807  11.095  35.499   6.236
 5157POPC   D2A66808  11.176  35.229   6.583
 5157POPC   C3A66809  11.190  35.379   7.011
 5157POPC   C4A66810  11.336  35.219   7.413
 5157POPC   C1B66811  11.577  35.527   6.408
 5157POPC   C2B66812  11.710  35.711   6.799
 5157POPC   C3B66813  11.630  35.621   7.225
 5157POPC   C4B66814  11.828  35.392   7.557
 5158POPC   NC366815  24.336  10.730   5.515
 5158POPC   PO466816  24.615  10.160   5.717
 5158POPC   GL166817  24.371  10.467   5.991
 5158POPC   GL266818  24.491  10.817   6.009
 5158POPC   C1A66819  24.397  10.512   6.465
 5158POPC   D2A66820  24.416  10.754   6.863
 5158POPC   C3A66821  24.569  10.491   7.197
 5158POPC   C4A66822  24.393  10.208   7.498
 5158POPC   C1B66823  24.262  10.991   6.364
 5158POPC   C2B66824  24.039  11.116   6.741
 5158POPC   C3B66825  24.054  10.963   7.173
 5158POPC   C4B66826  24.244  10.728   7.521
 5159POPC   NC366827  21.249   6.184   5.247
 5159POPC   PO466828  21.872   6.157   5.371
 5159POPC   GL166829  21.594   6.010   5.781
 5159POPC   GL266830  21.258   6.144   5.807
 5159POPC   C1A66831  21.514   5.797   6.250
 5159POPC   D2A66832  21.573   5.591   6.684
 5159POPC   C3A66833  21.283   5.668   7.036
 5159POPC   C4A66834  21.221   5.820   7.488
 5159POPC   C1B66835  21.275   6.248   6.269
 5159POPC   C2B66836  21.246   6.085   6.701
 5159POPC   C3B66837  21.160   6.186   7.153
 5159POPC   C4B66838  20.871   6.189   7.580
 5160POPC   NC366839  17.440  27.143   5.139
 5160POPC   PO466840  17.525  27.729   5.492
 5160POPC   GL166841  17.242  27.580   5.796
 5160POPC   GL266842  17.322  27.234   5.809
 5160POPC   C1A66843  17.271  27.739   6.186
 5160POPC   D2A66844  17.554  27.741   6.528
 5160POPC   C3A66845  17.370  27.797   6.936
 5160POPC   C4A66846  17.637  27.817   7.298
 5160POPC   C1B66847  17.502  27.294   6.237
 5160POPC   C2B66848  17.337  27.307   6.678
 5160POPC   C3B66849  17.426  27.312   7.148
 5160POPC   C4B66850  17.339  27.499   7.569
 5161POPC   NC366851  25.387  12.057   5.472
 5161POPC   PO466852  24.708  12.104   5.513
 5161POPC   GL166853  24.836  12.029   5.898
 5161POPC   GL266854  25.193  11.963   5.931
 5161POPC   C1A66855  24.929  12.156   6.298
 5161POPC   D2A66856  25.050  12.400   6.608
 5161POPC   C3A66857  24.937  12.229   6.987
 5161POPC   C4A66858  25.114  12.351   7.337
 5161POPC   C1B66859  25.256  11.777   6.360
 5161POPC   C2B66860  25.357  12.019   6.753
 5161POPC   C3B66861  25.361  11.935   7.195
 5161POPC   C4B66862  25.549  11.716   7.570
 5162POPC   NC366863  38.097  25.080   5.428
 5162POPC   PO466864  38.730  25.155   5.282
 5162POPC   GL166865  38.525  25.218   5.713
 5162POPC   GL266866  38.279  25.517   5.672
 5162POPC   C1A66867  38.540  25.112   6.191
 5162POPC   D2A66868  38.639  25.352   6.591
 5162POPC   C3A66869  38.523  25.199   7.003
 5162POPC   C4A66870  38.511  24.996   7.398
 5162POPC   C1B66871  38.159  25.457   6.121
 5162POPC   C2B66872  38.104  25.248   6.541
 5162POPC   C3B66873  38.071  25.422   6.956
 5162POPC   C4B66874  37.891  25.323   7.320
 5163POPC   NC366875  41.794  38.498   5.276
 5163POPC   PO466876  42.540  38.592   5.377
 5163POPC   GL166877  42.337  38.349   5.741
 5163POPC   GL266878  42.016  38.180   5.686
 5163POPC   C1A66879  42.397  38.394   6.174
 5163POPC   D2A66880  42.330  38.580   6.568
 5163POPC   C3A66881  42.517  38.439   6.911
 5163POPC   C4A66882  42.392  38.559   7.267
 5163POPC   C1B66883  42.077  38.009   6.124
 5163POPC   C2B66884  42.173  38.098   6.537
 5163POPC   C3B66885  42.046  38.246   6.922
 5163POPC   C4B66886  42.179  38.092   7.292
 5164POPC   NC366887  15.687  34.113   5.450
 5164POPC   PO466888  15.127  33.834   5.270
 5164POPC   GL166889  15.155  33.727   5.722
 5164POPC   GL266890  15.418  33.955   5.858
 5164POPC   C1A66891  15.329  33.530   6.106
 5164POPC   D2A66892  15.185  33.769   6.477
 5164POPC   C3A66893  15.174  33.756   6.939
 5164POPC   C4A66894  15.449  33.470   7.082
 5164POPC   C1B66895  15.400  34.191   6.274
 5164POPC   C2B66896  15.284  34.227   6.733
 5164POPC   C3B66897  15.196  34.267   7.182
 5164POPC   C4B66898  15.058  34.305   7.634
 5165POPC   NC366899   0.502  20.074   5.084
 5165POPC   PO466900   0.348  19.839   5.695
 5165POPC   GL166901   0.297  19.660   6.029
 5165POPC   GL266902  44.957  19.589   6.007
 5165POPC   C1A66903   0.581  19.852   6.310
 5165POPC   D2A66904   0.605  19.752   6.692
 5165POPC   C3A66905   0.817  19.994   6.932
 5165POPC   C4A66906   0.636  19.803   7.214
 5165POPC   C1B66907   0.011  20.016   6.212
 5165POPC   C2B66908   0.167  20.012   6.587
 5165POPC   C3B66909   0.130  19.775   6.943
 5165POPC   C4B66910   0.081  19.933   7.332
 5166POPC   NC366911  25.198  17.280   5.388
 5166POPC   PO466912  25.587  17.867   5.458
 5166POPC   GL166913  25.287  17.665   5.785
 5166POPC   GL266914  25.042  17.349   5.863
 5166POPC   C1A66915  25.402  17.503   6.190
 5166POPC   D2A66916  25.656  17.330   6.506
 5166POPC   C3A66917  25.522  17.417   6.922
 5166POPC   C4A66918  25.611  17.183   7.260
 5166POPC   C1B66919  24.911  17.581   6.221
 5166POPC   C2B66920  25.121  17.543   6.615
 5166POPC   C3B66921  24.987  17.495   7.011
 5166POPC   C4B66922  25.184  17.608   7.381
 5167POPC   NC366923  36.674  39.037   5.602
 5167POPC   PO466924  37.068  39.375   5.311
 5167POPC   GL166925  37.126  39.275   5.728
 5167POPC   GL266926  37.214  38.930   5.764
 5167POPC   C1A66927  36.862  39.363   6.119
 5167POPC   D2A66928  36.556  39.347   6.452
 5167POPC   C3A66929  36.733  39.381   6.840
 5167POPC   C4A66930  36.693  39.360   7.273
 5167POPC   C1B66931  37.034  38.853   6.151
 5167POPC   C2B66932  36.952  39.022   6.523
 5167POPC   C3B66933  36.972  38.876   6.924
 5167POPC   C4B66934  37.078  38.982   7.342
 5168POPC   NC366935  34.949  40.467   5.464
 5168POPC   PO466936  34.792  41.104   5.342
 5168POPC   GL166937  34.601  40.938   5.754
 5168POPC   GL266938  34.483  40.585   5.793
 5168POPC   C1A66939  34.448  40.919   6.203
 5168POPC   D2A66940  34.441  40.735   6.627
 5168POPC   C3A66941  34.777  40.710   6.941
 5168POPC   C4A66942  34.646  40.983   7.275
 5168POPC   C1B66943  34.446  40.381   6.224
 5168POPC   C2B66944  34.611  40.240   6.639
 5168POPC   C3B66945  34.549  40.249   7.069
 5168POPC   C4B66946  34.331  40.616   7.136
 5169POPC   NC366947  30.612  36.677   5.345
 5169POPC   PO466948  30.925  37.198   5.547
 5169POPC   GL166949  30.715  36.909   5.812
 5169POPC   GL266950  30.363  36.859   5.756
 5169POPC   C1A66951  30.815  36.741   6.220
 5169POPC   D2A66952  30.721  36.909   6.584
 5169POPC   C3A66953  30.952  36.775   6.879
 5169POPC   C4A66954  31.023  36.896   7.265
 5169POPC   C1B66955  30.375  37.019   6.177
 5169POPC   C2B66956  30.229  37.023   6.583
 5169POPC   C3B66957  30.413  36.982   7.007
 5169POPC   C4B66958  30.624  37.206   7.318
 5170POPC   NC366959  10.595  13.067   5.615
 5170POPC   PO466960  10.544  13.597   5.185
 5170POPC   GL166961  10.536  13.797   5.648
 5170POPC   GL266962  10.267  13.660   5.883
 5170POPC   C1A66963  10.668  13.852   6.133
 5170POPC   D2A66964  10.529  13.638   6.547
 5170POPC   C3A66965  10.704  13.795   6.957
 5170POPC   C4A66966  10.841  13.806   7.416
 5170POPC   C1B66967  10.204  13.345   6.267
 5170POPC   C2B66968  10.322  13.122   6.645
 5170POPC   C3B66969  10.285  13.406   6.947
 5170POPC   C4B66970  10.399  13.571   7.299
 5171POPC   NC366971   9.181  40.121   5.064
 5171POPC   PO466972   9.840  40.075   5.281
 5171POPC   GL166973   9.554  40.070   5.673
 5171POPC   GL266974   9.570  39.746   5.885
 5171POPC   C1A66975   9.506  40.193   6.134
 5171POPC   D2A66976   9.740  40.207   6.543
 5171POPC   C3A66977   9.858  39.978   6.904
 5171POPC   C4A66978   9.674  39.999   7.292
 5171POPC   C1B66979   9.925  39.884   6.184
 5171POPC   C2B66980  10.173  39.671   6.528
 5171POPC   C3B66981  10.102  39.493   6.925
 5171POPC   C4B66982  10.043  39.664   7.292
 5172POPC   NC366983  38.374  12.007   5.188
 5172POPC   PO466984  38.882  12.349   5.348
 5172POPC   GL166985  38.501  12.217   5.657
 5172POPC   GL266986  38.412  11.911   5.805
 5172POPC   C1A66987  38.396  12.268   6.158
 5172POPC   D2A66988  38.453  12.370   6.631
 5172POPC   C3A66989  38.230  12.181   6.986
 5172POPC   C4A66990  38.245  11.925   7.378
 5172POPC   C1B66991  38.647  11.792   6.212
 5172POPC   C2B66992  38.758  11.832   6.657
 5172POPC   C3B66993  38.737  12.046   7.075
 5172POPC   C4B66994  38.726  12.033   7.532
 5173POPC   NC366995   3.834  19.381   5.363
 5173POPC   PO466996   4.355  19.664   5.021
 5173POPC   GL166997   4.423  19.838   5.478
 5173POPC   GL266998   4.144  20.024   5.636
 5173POPC   C1A66999   4.585  19.942   5.936
 5173POPC   D2A67000   4.556  19.978   6.412
 5173POPC   C3A67001   4.536  19.695   6.787
 5173POPC   C4A67002   4.440  19.803   7.240
 5173POPC   C1B67003   4.126  20.048   6.108
 5173POPC   C2B67004   4.064  19.866   6.519
 5173POPC   C3B67005   4.135  20.011   6.910
 5173POPC   C4B67006   3.954  19.946   7.282
 5174POPC   NC367007  17.914  17.327   5.386
 5174POPC   PO467008  17.425  17.773   5.356
 5174POPC   GL167009  17.612  17.704   5.722
 5174POPC   GL267010  17.336  17.813   5.899
 5174POPC   C1A67011  17.538  17.396   6.094
 5174POPC   D2A67012  17.321  17.291   6.484
 5174POPC   C3A67013  17.526  17.333   6.892
 5174POPC   C4A67014  17.321  17.102   7.224
 5174POPC   C1B67015  17.661  17.895   6.180
 5174POPC   C2B67016  17.685  17.706   6.555
 5174POPC   C3B67017  17.576  17.904   6.940
 5174POPC   C4B67018  17.516  17.662   7.290
 5175POPC   NC367019  32.786  41.640   5.596
 5175POPC   PO467020  33.297  41.290   5.572
 5175POPC   GL167021  33.056  41.405   5.953
 5175POPC   GL267022  33.174  41.723   6.004
 5175POPC   C1A67023  32.724  41.613   6.244
 5175POPC   D2A67024  32.497  41.613   6.630
 5175POPC   C3A67025  32.780  41.443   6.935
 5175POPC   C4A67026  33.052  41.613   7.255
 5175POPC   C1B67027  33.234  41.658   6.416
 5175POPC   C2B67028  33.088  41.837   6.776
 5175POPC   C3B67029  33.238  42.103   7.102
 5175POPC   C4B67030  33.150  42.150   7.531
 5176POPC   NC367031  22.351  37.269   5.363
 5176POPC   PO467032  21.947  36.757   5.606
 5176POPC   GL167033  22.043  37.181   5.835
 5176POPC   GL267034  22.387  37.184   5.863
 5176POPC   C1A67035  22.070  37.232   6.286
 5176POPC   D2A67036  22.005  36.875   6.574
 5176POPC   C3A67037  21.904  36.903   7.020
 5176POPC   C4A67038  22.041  37.182   7.372
 5176POPC   C1B67039  22.432  36.825   6.107
 5176POPC   C2B67040  22.508  36.675   6.514
 5176POPC   C3B67041  22.413  36.858   6.926
 5176POPC   C4B67042  22.332  36.667   7.304
 5177POPC   NC367043   1.399  23.430   5.533
 5177POPC   PO467044   1.184  22.769   5.469
 5177POPC   GL167045   1.192  22.742   5.870
 5177POPC   GL267046   0.867  22.876   5.920
 5177POPC   C1A67047   1.315  23.078   6.163
 5177POPC   D2A67048   1.158  23.199   6.568
 5177POPC   C3A67049   1.453  23.113   6.896
 5177POPC   C4A67050   1.492  23.265   7.288
 5177POPC   C1B67051   0.995  22.729   6.346
 5177POPC   C2B67052   1.243  22.669   6.711
 5177POPC   C3B67053   1.229  22.713   7.160
 5177POPC   C4B67054   1.144  22.770   7.599
 5178POPC   NC367055  35.143  19.796   5.317
 5178POPC   PO467056  35.721  20.006   5.339
 5178POPC   GL167057  35.455  19.784   5.721
 5178POPC   GL267058  35.091  19.926   5.803
 5178POPC   C1A67059  35.359  19.634   6.172
 5178POPC   D2A67060  35.410  19.728   6.631
 5178POPC   C3A67061  35.358  19.568   7.042
 5178POPC   C4A67062  35.543  19.651   7.450
 5178POPC   C1B67063  34.876  19.790   6.168
 5178POPC   C2B67064  34.966  19.934   6.545
 5178POPC   C3B67065  35.057  19.994   6.984
 5178POPC   C4B67066  35.138  19.952   7.449
 5179POPC   NC367067   0.040  13.832   5.433
 5179POPC   PO467068  44.466  13.446   5.371
 5179POPC   GL167069  44.583  13.692   5.725
 5179POPC   GL267070  44.587  14.034   5.686
 5179POPC   C1A67071  44.818  13.651   6.126
 5179POPC   D2A67072  44.691  13.770   6.534
 5179POPC   C3A67073  44.908  13.755   6.900
 5179POPC   C4A67074  44.838  13.437   7.185
 5179POPC   C1B67075  44.725  14.163   6.133
 5179POPC   C2B67076  44.623  14.269   6.573
 5179POPC   C3B67077  44.511  14.156   7.012
 5179POPC   C4B67078  44.714  13.908   7.348
 5180POPC   NC367079  43.595  28.992   5.401
 5180POPC   PO467080  43.439  29.644   5.520
 5180POPC   GL167081  43.761  29.401   5.789
 5180POPC   GL267082  43.766  29.042   5.881
 5180POPC   C1A67083  44.036  29.415   6.186
 5180POPC   D2A67084  44.183  29.595   6.625
 5180POPC   C3A67085  43.998  29.410   7.020
 5180POPC   C4A67086  43.929  29.021   7.226
 5180POPC   C1B67087  43.719  28.918   6.315
 5180POPC   C2B67088  43.679  28.991   6.769
 5180POPC   C3B67089  43.505  28.751   7.115
 5180POPC   C4B67090  43.561  28.829   7.573
 5181POPC   NC367091  18.074  16.347   5.502
 5181POPC   PO467092  18.573  16.778   5.309
 5181POPC   GL167093  18.525  16.570   5.761
 5181POPC   GL267094  18.325  16.285   5.940
 5181POPC   C1A67095  18.580  16.681   6.222
 5181POPC   D2A67096  18.578  16.545   6.681
 5181POPC   C3A67097  18.438  16.822   7.019
 5181POPC   C4A67098  18.019  17.016   6.961
 5181POPC   C1B67099  17.995  16.554   6.169
 5181POPC   C2B67100  17.856  16.584   6.622
 5181POPC   C3B67101  18.065  16.469   7.007
 5181POPC   C4B67102  18.469  16.268   7.128
 5182POPC   NC367103  40.721  43.432   5.334
 5182POPC   PO467104  40.585  42.705   5.288
 5182POPC   GL167105  40.694  43.020   5.660
 5182POPC   GL267106  41.022  43.236   5.725
 5182POPC   C1A67107  40.750  43.073   6.114
 5182POPC   D2A67108  40.746  43.260   6.490
 5182POPC   C3A67109  40.617  42.972   6.809
 5182POPC   C4A67110  40.840  42.845   7.166
 5182POPC   C1B67111  41.147  43.428   6.130
 5182POPC   C2B67112  41.179  43.506   6.593
 5182POPC   C3B67113  40.892  43.409   6.959
 5182POPC   C4B67114  41.148  43.240   7.245
 5183POPC   NC367115  43.907  38.359   5.275
 5183POPC   PO467116  44.013  39.011   5.226
 5183POPC   GL167117  44.109  38.725   5.636
 5183POPC   GL267118  43.917  38.423   5.780
 5183POPC   C1A67119  44.187  38.661   6.131
 5183POPC   D2A67120  43.960  38.518   6.489
 5183POPC   C3A67121  43.903  38.817   6.825
 5183POPC   C4A67122  43.863  38.710   7.247
 5183POPC   C1B67123  44.079  38.130   6.108
 5183POPC   C2B67124  44.220  38.061   6.546
 5183POPC   C3B67125  44.185  38.319   6.945
 5183POPC   C4B67126  44.116  38.280   7.390
 5184POPC   NC367127  17.197   9.927   5.343
 5184POPC   PO467128  17.781  10.006   5.079
 5184POPC   GL167129  17.679   9.701   5.529
 5184POPC   GL267130  17.410   9.762   5.759
 5184POPC   C1A67131  17.751   9.509   6.017
 5184POPC   D2A67132  17.930   9.612   6.447
 5184POPC   C3A67133  17.764   9.372   6.787
 5184POPC   C4A67134  17.690   9.201   7.192
 5184POPC   C1B67135  17.189   9.655   6.143
 5184POPC   C2B67136  17.354   9.607   6.550
 5184POPC   C3B67137  17.200   9.630   6.963
 5184POPC   C4B67138  17.467   9.669   7.301
 5185POPC   NC367139  27.642  39.392   5.088
 5185POPC   PO467140  27.235  38.827   5.314
 5185POPC   GL167141  27.324  38.998   5.726
 5185POPC   GL267142  27.685  38.962   5.731
 5185POPC   C1A67143  27.464  39.165   6.151
 5185POPC   D2A67144  27.354  39.448   6.481
 5185POPC   C3A67145  27.531  39.331   6.866
 5185POPC   C4A67146  27.586  39.267   7.291
 5185POPC   C1B67147  27.847  38.822   6.129
 5185POPC   C2B67148  27.805  39.035   6.536
 5185POPC   C3B67149  27.846  38.927   6.974
 5185POPC   C4B67150  28.036  39.016   7.379
 5186POPC   NC367151  35.584  44.261   5.515
 5186POPC   PO467152  35.207  44.881   5.424
 5186POPC   GL167153  35.322  44.628   5.763
 5186POPC   GL267154  35.679  44.695   5.756
 5186POPC   C1A67155  35.136  44.534   6.176
 5186POPC   D2A67156  34.854  44.421   6.523
 5186POPC   C3A67157  35.075  44.457   6.920
 5186POPC   C4A67158  35.225  44.127   7.186
 5186POPC   C1B67159  35.651  44.545   6.183
 5186POPC   C2B67160  35.475  44.436   6.583
 5186POPC   C3B67161  35.575  44.527   7.015
 5186POPC   C4B67162  35.581  44.889   7.254
 5187POPC   NC367163  33.798  12.656   5.427
 5187POPC   PO467164  33.411  13.128   5.338
 5187POPC   GL167165  33.643  13.085   5.704
 5187POPC   GL267166  34.020  13.059   5.731
 5187POPC   C1A67167  33.626  12.898   6.104
 5187POPC   D2A67168  33.682  13.035   6.528
 5187POPC   C3A67169  33.528  12.761   6.839
 5187POPC   C4A67170  33.560  12.841   7.264
 5187POPC   C1B67171  34.108  13.102   6.204
 5187POPC   C2B67172  34.187  13.120   6.677
 5187POPC   C3B67173  34.007  12.941   7.063
 5187POPC   C4B67174  33.996  12.741   7.518
 5188POPC   NC367175  19.350   1.836   5.377
 5188POPC   PO467176  18.890   2.334   5.416
 5188POPC   GL167177  19.150   2.176   5.695
 5188POPC   GL267178  18.962   1.896   5.769
 5188POPC   C1A67179  19.196   2.180   6.129
 5188POPC   D2A67180  19.234   1.983   6.541
 5188POPC   C3A67181  19.084   2.189   6.899
 5188POPC   C4A67182  19.029   2.089   7.332
 5188POPC   C1B67183  18.867   1.770   6.194
 5188POPC   C2B67184  18.712   1.903   6.611
 5188POPC   C3B67185  18.685   1.791   7.033
 5188POPC   C4B67186  18.662   1.746   7.492
 5189POPC   NC367187  26.462   0.076   5.322
 5189POPC   PO467188  25.978  44.540   5.384
 5189POPC   GL167189  26.152  44.849   5.688
 5189POPC   GL267190  26.488  44.716   5.713
 5189POPC   C1A67191  26.270  44.924   6.161
 5189POPC   D2A67192  26.343  44.780   6.640
 5189POPC   C3A67193  26.094  44.906   7.025
 5189POPC   C4A67194  25.800  44.586   7.209
 5189POPC   C1B67195  26.397  44.412   6.070
 5189POPC   C2B67196  26.241  44.264   6.496
 5189POPC   C3B67197  26.439  44.175   6.882
 5189POPC   C4B67198  26.322  44.473   7.189
 5190POPC   NC367199  15.294  15.708   5.402
 5190POPC   PO467200  15.076  14.992   5.385
 5190POPC   GL167201  15.159  15.104   5.831
 5190POPC   GL267202  15.210  15.458   5.855
 5190POPC   C1A67203  15.095  15.029   6.304
 5190POPC   D2A67204  15.375  14.798   6.615
 5190POPC   C3A67205  15.261  14.858   7.044
 5190POPC   C4A67206  15.404  15.187   7.312
 5190POPC   C1B67207  14.786  15.452   6.067
 5190POPC   C2B67208  14.673  15.348   6.520
 5190POPC   C3B67209  14.998  15.248   6.831
 5190POPC   C4B67210  15.008  15.484   7.216
 5191POPC   NC367211  39.914  21.813   5.426
 5191POPC   PO467212  39.754  22.436   5.404
 5191POPC   GL167213  39.919  22.240   5.800
 5191POPC   GL267214  40.230  22.330   5.943
 5191POPC   C1A67215  40.005  22.089   6.304
 5191POPC   D2A67216  40.295  22.232   6.623
 5191POPC   C3A67217  40.300  22.094   7.048
 5191POPC   C4A67218  40.035  21.814   7.281
 5191POPC   C1B67219  39.970  22.598   6.231
 5191POPC   C2B67220  39.889  22.740   6.652
 5191POPC   C3B67221  39.730  22.616   7.056
 5191POPC   C4B67222  39.920  22.306   7.344
 5192POPC   NC367223   9.702   8.717   5.216
 5192POPC   PO467224   9.626   8.123   5.423
 5192POPC   GL167225   9.622   8.504   5.688
 5192POPC   GL267226   9.928   8.562   5.845
 5192POPC   C1A67227   9.468   8.455   6.097
 5192POPC   D2A67228   9.489   8.169   6.457
 5192POPC   C3A67229   9.472   8.290   6.897
 5192POPC   C4A67230   9.486   8.085   7.285
 5192POPC   C1B67231   9.918   8.218   6.158
 5192POPC   C2B67232   9.975   8.246   6.615
 5192POPC   C3B67233   9.925   8.074   7.014
 5192POPC   C4B67234  10.209   7.960   7.316
 5193POPC   NC367235  20.425  23.847   5.547
 5193POPC   PO467236  20.986  23.533   5.506
 5193POPC   GL167237  20.767  23.694   5.908
 5193POPC   GL267238  20.695  24.087   5.918
 5193POPC   C1A67239  20.556  23.624   6.329
 5193POPC   D2A67240  20.415  23.529   6.775
 5193POPC   C3A67241  20.729  23.622   7.112
 5193POPC   C4A67242  20.884  23.417   7.507
 5193POPC   C1B67243  20.437  24.164   6.292
 5193POPC   C2B67244  20.351  24.171   6.752
 5193POPC   C3B67245  20.324  23.912   7.131
 5193POPC   C4B67246  20.497  23.761   7.564
 5194POPC   NC367247  12.832  30.566   5.214
 5194POPC   PO467248  12.773  31.128   5.581
 5194POPC   GL167249  12.994  30.825   5.792
 5194POPC   GL267250  13.039  30.461   5.690
 5194POPC   C1A67251  13.053  30.883   6.216
 5194POPC   D2A67252  12.949  31.052   6.616
 5194POPC   C3A67253  13.084  30.937   7.019
 5194POPC   C4A67254  12.761  30.846   7.350
 5194POPC   C1B67255  13.010  30.376   6.153
 5194POPC   C2B67256  13.095  30.539   6.599
 5194POPC   C3B67257  12.844  30.483   6.986
 5194POPC   C4B67258  12.789  30.341   7.417
 5195POPC   NC367259  21.667  17.536   5.443
 5195POPC   PO467260  21.408  17.058   5.790
 5195POPC   GL167261  21.296  17.517   5.869
 5195POPC   GL267262  21.554  17.752   5.912
 5195POPC   C1A67263  21.109  17.773   6.222
 5195POPC   D2A67264  21.131  17.716   6.693
 5195POPC   C3A67265  21.264  17.291   6.821
 5195POPC   C4A67266  21.467  17.071   7.144
 5195POPC   C1B67267  21.770  17.699   6.321
 5195POPC   C2B67268  21.752  17.522   6.760
 5195POPC   C3B67269  21.496  17.665   7.126
 5195POPC   C4B67270  21.508  17.598   7.591
 5196POPC   NC367271   1.706  42.901   5.514
 5196POPC   PO467272   1.152  43.200   5.413
 5196POPC   GL167273   1.174  43.109   5.823
 5196POPC   GL267274   1.486  43.255   5.847
 5196POPC   C1A67275   0.958  43.248   6.211
 5196POPC   D2A67276   0.682  43.375   6.536
 5196POPC   C3A67277   0.943  43.316   6.876
 5196POPC   C4A67278   1.181  43.216   7.243
 5196POPC   C1B67279   1.416  42.991   6.245
 5196POPC   C2B67280   1.283  42.987   6.675
 5196POPC   C3B67281   1.521  42.909   7.034
 5196POPC   C4B67282   1.623  42.938   7.470
 5197POPC   NC367283  43.770  17.939   5.607
 5197POPC   PO467284  44.272  18.406   5.449
 5197POPC   GL167285  43.964  18.354   5.802
 5197POPC   GL267286  43.732  18.574   5.962
 5197POPC   C1A67287  43.818  18.142   6.246
 5197POPC   D2A67288  43.961  18.030   6.707
 5197POPC   C3A67289  43.684  18.021   7.126
 5197POPC   C4A67290  43.710  18.084   7.605
 5197POPC   C1B67291  44.141  18.520   6.217
 5197POPC   C2B67292  44.032  18.560   6.601
 5197POPC   C3B67293  43.744  18.483   6.891
 5197POPC   C4B67294  43.907  18.476   7.292
 5198POPC   NC367295  30.865  40.305   5.297
 5198POPC   PO467296  30.460  40.809   5.405
 5198POPC   GL167297  30.651  40.671   5.774
 5198POPC   GL267298  31.019  40.616   5.754
 5198POPC   C1A67299  30.792  40.808   6.197
 5198POPC   D2A67300  30.610  41.015   6.560
 5198POPC   C3A67301  30.798  40.921   6.966
 5198POPC   C4A67302  30.983  41.111   7.317
 5198POPC   C1B67303  31.071  40.368   6.165
 5198POPC   C2B67304  31.144  40.392   6.644
 5198POPC   C3B67305  31.071  40.330   7.113
 5198POPC   C4B67306  30.817  40.593   7.401
 5199POPC   NC367307  34.691  18.995   5.398
 5199POPC   PO467308  34.021  18.890   5.553
 5199POPC   GL167309  34.394  18.825   5.823
 5199POPC   GL267310  34.550  19.173   5.878
 5199POPC   C1A67311  34.532  18.853   6.266
 5199POPC   D2A67312  34.365  19.176   6.548
 5199POPC   C3A67313  34.467  19.151   6.971
 5199POPC   C4A67314  34.430  19.388   7.302
 5199POPC   C1B67315  34.807  19.284   6.282
 5199POPC   C2B67316  34.864  19.025   6.667
 5199POPC   C3B67317  34.977  19.066   7.114
 5199POPC   C4B67318  35.277  19.189   7.444
 5200POPC   NC367319  10.111  13.566   5.390
 5200POPC   PO467320   9.605  13.273   5.068
 5200POPC   GL167321   9.638  13.318   5.582
 5200POPC   GL267322   9.721  13.645   5.730
 5200POPC   C1A67323   9.630  13.305   6.112
 5200POPC   D2A67324   9.814  13.249   6.592
 5200POPC   C3A67325   9.787  13.517   6.995
 5200POPC   C4A67326   9.544  13.358   7.336
 5200POPC   C1B67327   9.859  13.778   6.159
 5200POPC   C2B67328  10.032  13.723   6.579
 5200POPC   C3B67329  10.170  13.926   6.944
 5200POPC   C4B67330  10.045  13.924   7.365
 5201POPC   NC367331  35.804   5.160   5.415
 5201POPC   PO467332  36.362   4.832   5.391
 5201POPC   GL167333  36.238   5.005   5.794
 5201POPC   GL267334  36.430   5.299   5.844
 5201POPC   C1A67335  36.095   5.134   6.222
 5201POPC   D2A67336  36.003   5.416   6.580
 5201POPC   C3A67337  36.041   5.204   7.005
 5201POPC   C4A67338  35.789   5.284   7.383
 5201POPC   C1B67339  36.596   5.093   6.244
 5201POPC   C2B67340  36.439   5.143   6.644
 5201POPC   C3B67341  36.565   5.083   7.056
 5201POPC   C4B67342  36.555   5.260   7.440
 5202POPC   NC367343  42.408  23.376   5.307
 5202POPC   PO467344  42.153  24.000   5.468
 5202POPC   GL167345  42.369  23.813   5.772
 5202POPC   GL267346  42.238  23.478   5.792
 5202POPC   C1A67347  42.498  23.731   6.197
 5202POPC   D2A67348  42.410  23.459   6.558
 5202POPC   C3A67349  42.475  23.687   6.936
 5202POPC   C4A67350  42.731  23.995   7.144
 5202POPC   C1B67351  42.038  23.493   6.200
 5202POPC   C2B67352  41.845  23.564   6.615
 5202POPC   C3B67353  41.968  23.730   7.032
 5202POPC   C4B67354  42.059  23.504   7.436
 5203POPC   NC367355   2.999   4.343   5.340
 5203POPC   PO467356   2.287   4.480   5.362
 5203POPC   GL167357   2.534   4.364   5.743
 5203POPC   GL267358   2.695   4.045   5.742
 5203POPC   C1A67359   2.710   4.428   6.184
 5203POPC   D2A67360   2.875   4.515   6.616
 5203POPC   C3A67361   2.673   4.562   7.019
 5203POPC   C4A67362   2.836   4.594   7.429
 5203POPC   C1B67363   2.845   3.908   6.155
 5203POPC   C2B67364   3.002   4.032   6.564
 5203POPC   C3B67365   2.858   4.082   6.993
 5203POPC   C4B67366   2.747   4.062   7.445
 5204POPC   NC367367   6.154  35.523   5.478
 5204POPC   PO467368   5.584  35.304   5.411
 5204POPC   GL167369   5.723  35.578   5.779
 5204POPC   GL267370   5.972  35.372   5.925
 5204POPC   C1A67371   5.935  35.858   6.117
 5204POPC   D2A67372   6.028  35.953   6.577
 5204POPC   C3A67373   5.817  35.650   6.868
 5204POPC   C4A67374   5.975  35.384   7.242
 5204POPC   C1B67375   5.674  35.272   6.224
 5204POPC   C2B67376   5.782  35.094   6.606
 5204POPC   C3B67377   5.618  35.167   6.980
 5204POPC   C4B67378   5.484  35.186   7.388
 5205POPC   NC367379  43.572  24.360   5.518
 5205POPC   PO467380  44.165  24.128   5.395
 5205POPC   GL167381  44.038  24.409   5.746
 5205POPC   GL267382  44.249  24.727   5.825
 5205POPC   C1A67383  43.795  24.625   6.120
 5205POPC   D2A67384  43.728  24.880   6.504
 5205POPC   C3A67385  43.626  24.604   6.834
 5205POPC   C4A67386  43.633  24.352   7.206
 5205POPC   C1B67387  44.264  24.412   6.177
 5205POPC   C2B67388  44.036  24.445   6.537
 5205POPC   C3B67389  44.084  24.355   6.936
 5205POPC   C4B67390  44.258  24.338   7.322
 5206POPC   NC367391  38.290  35.149   5.426
 5206POPC   PO467392  38.735  35.609   5.414
 5206POPC   GL167393  38.436  35.485   5.775
 5206POPC   GL267394  38.070  35.620   5.782
 5206POPC   C1A67395  38.468  35.187   6.142
 5206POPC   D2A67396  38.609  35.222   6.569
 5206POPC   C3A67397  38.418  35.143   6.945
 5206POPC   C4A67398  38.205  35.020   7.339
 5206POPC   C1B67399  38.159  35.579   6.225
 5206POPC   C2B67400  38.267  35.625   6.657
 5206POPC   C3B67401  38.084  35.509   7.080
 5206POPC   C4B67402  38.076  35.492   7.544
 5207POPC   NC367403  11.462  24.155   5.428
 5207POPC   PO467404  11.001  24.630   5.601
 5207POPC   GL167405  11.294  24.509   5.878
 5207POPC   GL267406  11.314  24.886   5.926
 5207POPC   C1A67407  11.307  24.274   6.276
 5207POPC   D2A67408  11.093  24.306   6.681
 5207POPC   C3A67409  11.349  24.370   7.035
 5207POPC   C4A67410  11.561  24.275   7.437
 5207POPC   C1B67411  11.603  24.807   6.247
 5207POPC   C2B67412  11.603  24.587   6.616
 5207POPC   C3B67413  11.595  24.817   6.980
 5207POPC   C4B67414  11.194  24.977   7.105
 5208POPC   NC367415  41.983  28.519   5.255
 5208POPC   PO467416  42.544  28.115   5.434
 5208POPC   GL167417  42.703  28.273   5.800
 5208POPC   GL267418  42.362  28.419   5.866
 5208POPC   C1A67419  42.659  28.215   6.233
 5208POPC   D2A67420  42.433  28.415   6.526
 5208POPC   C3A67421  42.630  28.306   6.900
 5208POPC   C4A67422  42.452  28.226   7.282
 5208POPC   C1B67423  42.036  28.516   6.187
 5208POPC   C2B67424  41.915  28.286   6.553
 5208POPC   C3B67425  42.099  28.290   6.918
 5208POPC   C4B67426  41.978  28.394   7.309
 5209POPC   NC367427  24.405  11.726   5.451
 5209POPC   PO467428  24.586  11.113   5.573
 5209POPC   GL167429  24.322  11.331   5.921
 5209POPC   GL267430  24.364  11.706   5.947
 5209POPC   C1A67431  24.202  11.499   6.368
 5209POPC   D2A67432  24.485  11.479   6.715
 5209POPC   C3A67433  24.425  11.303   7.114
 5209POPC   C4A67434  24.647  10.977   7.327
 5209POPC   C1B67435  24.682  11.710   6.273
 5209POPC   C2B67436  24.863  11.828   6.676
 5209POPC   C3B67437  24.916  11.687   7.087
 5209POPC   C4B67438  24.800  11.484   7.480
 5210POPC   NC367439  28.242  33.105   5.225
 5210POPC   PO467440  28.641  32.637   5.437
 5210POPC   GL167441  28.338  32.836   5.734
 5210POPC   GL267442  28.383  33.194   5.815
 5210POPC   C1A67443  28.337  32.740   6.188
 5210POPC   D2A67444  28.363  32.493   6.576
 5210POPC   C3A67445  28.414  32.805   6.888
 5210POPC   C4A67446  28.248  32.899   7.306
 5210POPC   C1B67447  28.418  33.238   6.277
 5210POPC   C2B67448  28.579  33.269   6.711
 5210POPC   C3B67449  28.393  33.350   7.144
 5210POPC   C4B67450  28.603  33.306   7.609
 5211POPC   NC367451  17.844  33.123   5.446
 5211POPC   PO467452  17.282  33.332   5.234
 5211POPC   GL167453  17.431  33.107   5.711
 5211POPC   GL267454  17.618  32.788   5.752
 5211POPC   C1A67455  17.534  33.245   6.144
 5211POPC   D2A67456  17.774  33.194   6.507
 5211POPC   C3A67457  17.558  33.172   6.853
 5211POPC   C4A67458  17.644  33.143   7.275
 5211POPC   C1B67459  17.807  32.818   6.139
 5211POPC   C2B67460  17.677  32.689   6.542
 5211POPC   C3B67461  17.797  32.749   6.964
 5211POPC   C4B67462  17.568  32.633   7.330
 5212POPC   NC367463  39.685   2.764   5.545
 5212POPC   PO467464  40.339   2.989   5.419
 5212POPC   GL167465  40.113   2.865   5.809
 5212POPC   GL267466  39.942   2.537   5.925
 5212POPC   C1A67467  40.128   2.894   6.248
 5212POPC   D2A67468  40.063   3.266   6.517
 5212POPC   C3A67469  39.904   3.112   6.901
 5212POPC   C4A67470  40.065   2.796   7.188
 5212POPC   C1B67471  39.843   2.422   6.366
 5212POPC   C2B67472  39.785   2.553   6.807
 5212POPC   C3B67473  39.712   2.394   7.234
 5212POPC   C4B67474  39.878   2.210   7.638
 5213POPC   NC367475  36.951   7.329   5.367
 5213POPC   PO467476  36.292   7.280   5.533
 5213POPC   GL167477  36.674   7.432   5.772
 5213POPC   GL267478  37.010   7.658   5.768
 5213POPC   C1A67479  36.922   7.308   6.145
 5213POPC   D2A67480  36.728   7.292   6.558
 5213POPC   C3A67481  36.991   7.225   6.907
 5213POPC   C4A67482  37.041   7.448   7.252
 5213POPC   C1B67483  37.015   7.819   6.203
 5213POPC   C2B67484  37.051   7.709   6.663
 5213POPC   C3B67485  37.004   7.907   7.063
 5213POPC   C4B67486  36.994   7.891   7.532
 5214POPC   NC367487   7.835  14.643   5.434
 5214POPC   PO467488   8.513  14.790   5.320
 5214POPC   GL167489   8.373  14.517   5.686
 5214POPC   GL267490   8.154  14.234   5.580
 5214POPC   C1A67491   8.415  14.347   6.139
 5214POPC   D2A67492   8.375  14.497   6.580
 5214POPC   C3A67493   8.480  14.339   6.952
 5214POPC   C4A67494   8.406  14.459   7.338
 5214POPC   C1B67495   7.939  14.230   5.989
 5214POPC   C2B67496   7.932  14.266   6.432
 5214POPC   C3B67497   7.931  14.300   6.874
 5214POPC   C4B67498   7.972  14.084   7.261
 5215POPC   NC367499  25.749  15.863   5.300
 5215POPC   PO467500  25.164  16.093   5.311
 5215POPC   GL167501  25.151  15.903   5.702
 5215POPC   GL267502  25.435  15.668   5.671
 5215POPC   C1A67503  24.955  15.941   6.136
 5215POPC   D2A67504  24.820  16.215   6.482
 5215POPC   C3A67505  25.012  16.072   6.862
 5215POPC   C4A67506  25.178  15.917   7.259
 5215POPC   C1B67507  25.463  15.888   6.092
 5215POPC   C2B67508  25.359  15.998   6.491
 5215POPC   C3B67509  25.528  15.900   6.888
 5215POPC   C4B67510  25.722  15.955   7.270
 5216POPC   NC367511  28.499  41.736   5.388
 5216POPC   PO467512  29.248  41.605   5.362
 5216POPC   GL167513  29.175  41.468   5.828
 5216POPC   GL267514  28.832  41.278   5.844
 5216POPC   C1A67515  29.138  41.617   6.279
 5216POPC   D2A67516  29.381  41.845   6.613
 5216POPC   C3A67517  29.323  41.686   7.049
 5216POPC   C4A67518  29.406  41.526   7.496
 5216POPC   C1B67519  28.852  41.156   6.270
 5216POPC   C2B67520  28.835  41.347   6.662
 5216POPC   C3B67521  28.924  41.367   7.090
 5216POPC   C4B67522  28.934  41.716   7.397
 5217POPC   NC367523  32.491  14.857   5.597
 5217POPC   PO467524  32.230  14.161   5.474
 5217POPC   GL167525  32.296  14.410   5.825
 5217POPC   GL267526  31.998  14.582   5.712
 5217POPC   C1A67527  32.318  14.221   6.257
 5217POPC   D2A67528  32.369  14.053   6.683
 5217POPC   C3A67529  32.227  14.310   7.031
 5217POPC   C4A67530  32.285  14.550   7.418
 5217POPC   C1B67531  31.905  14.558   6.176
 5217POPC   C2B67532  31.893  14.260   6.563
 5217POPC   C3B67533  31.787  14.094   6.966
 5217POPC   C4B67534  31.833  14.317   7.370
 5218POPC   NC367535  31.053   3.613   5.319
 5218POPC   PO467536  30.517   3.483   5.350
 5218POPC   GL167537  30.618   3.589   5.780
 5218POPC   GL267538  30.952   3.452   5.798
 5218POPC   C1A67539  30.555   3.678   6.249
 5218POPC   D2A67540  30.432   3.442   6.645
 5218POPC   C3A67541  30.281   3.566   7.070
 5218POPC   C4A67542  30.446   3.223   7.340
 5218POPC   C1B67543  31.145   3.500   6.192
 5218POPC   C2B67544  30.925   3.520   6.576
 5218POPC   C3B67545  30.774   3.504   7.038
 5218POPC   C4B67546  30.672   3.920   7.264
 5219POPC   NC367547   1.742  14.277   5.415
 5219POPC   PO467548   2.335  14.050   5.419
 5219POPC   GL167549   2.140  14.081   5.836
 5219POPC   GL267550   1.881  14.343   5.890
 5219POPC   C1A67551   2.108  14.147   6.285
 5219POPC   D2A67552   2.298  14.014   6.649
 5219POPC   C3A67553   2.111  14.124   7.054
 5219POPC   C4A67554   2.152  14.220   7.499
 5219POPC   C1B67555   1.874  14.687   6.220
 5219POPC   C2B67556   2.035  14.790   6.645
 5219POPC   C3B67557   2.164  14.659   7.077
 5219POPC   C4B67558   1.910  14.660   7.447
 5220POPC   NC367559  20.024  25.100   5.397
 5220POPC   PO467560  20.663  25.186   5.447
 5220POPC   GL167561  20.445  25.187   5.820
 5220POPC   GL267562  20.799  25.351   5.912
 5220POPC   C1A67563  20.243  25.132   6.239
 5220POPC   D2A67564  20.444  25.288   6.607
 5220POPC   C3A67565  20.299  25.235   7.019
 5220POPC   C4A67566  20.530  25.573   7.187
 5220POPC   C1B67567  20.751  25.090   6.239
 5220POPC   C2B67568  20.841  24.932   6.630
 5220POPC   C3B67569  20.800  25.051   7.033
 5220POPC   C4B67570  21.017  24.928   7.383
 5221POPC   NC367571  21.013  25.471   5.369
 5221POPC   PO467572  21.084  24.791   5.283
 5221POPC   GL167573  21.172  25.045   5.676
 5221POPC   GL267574  21.389  25.325   5.720
 5221POPC   C1A67575  21.253  25.055   6.154
 5221POPC   D2A67576  21.246  25.261   6.597
 5221POPC   C3A67577  21.356  25.086   7.025
 5221POPC   C4A67578  21.503  25.021   7.489
 5221POPC   C1B67579  21.743  25.484   6.012
 5221POPC   C2B67580  21.800  25.631   6.463
 5221POPC   C3B67581  21.575  25.626   6.857
 5221POPC   C4B67582  21.608  25.466   7.278
 5222POPC   NC367583  28.378  26.307   5.356
 5222POPC   PO467584  28.406  27.061   5.239
 5222POPC   GL167585  28.380  26.915   5.668
 5222POPC   GL267586  28.491  26.582   5.769
 5222POPC   C1A67587  28.351  26.943   6.138
 5222POPC   D2A67588  28.191  27.022   6.580
 5222POPC   C3A67589  28.327  26.826   6.971
 5222POPC   C4A67590  28.237  26.938   7.408
 5222POPC   C1B67591  28.581  26.483   6.213
 5222POPC   C2B67592  28.692  26.657   6.639
 5222POPC   C3B67593  28.668  26.453   7.048
 5222POPC   C4B67594  28.306  26.453   7.346
 5223POPC   NC367595   4.767   3.975   5.032
 5223POPC   PO467596   4.377   4.509   5.127
 5223POPC   GL167597   4.438   4.483   5.630
 5223POPC   GL267598   4.269   4.249   5.809
 5223POPC   C1A67599   4.401   4.622   6.137
 5223POPC   D2A67600   4.401   4.768   6.613
 5223POPC   C3A67601   4.399   4.462   6.980
 5223POPC   C4A67602   4.163   4.394   7.331
 5223POPC   C1B67603   4.160   4.127   6.250
 5223POPC   C2B67604   4.050   4.248   6.684
 5223POPC   C3B67605   3.989   3.989   7.079
 5223POPC   C4B67606   4.086   3.865   7.536
 5224POPC   NC367607   8.406  43.347   5.387
 5224POPC   PO467608   7.907  43.012   5.062
 5224POPC   GL167609   7.998  43.087   5.543
 5224POPC   GL267610   7.862  43.332   5.757
 5224POPC   C1A67611   8.259  43.049   5.960
 5224POPC   D2A67612   8.185  42.842   6.375
 5224POPC   C3A67613   8.276  42.985   6.802
 5224POPC   C4A67614   8.466  42.846   7.196
 5224POPC   C1B67615   7.779  43.075   6.140
 5224POPC   C2B67616   7.827  43.216   6.580
 5224POPC   C3B67617   7.649  43.209   7.026
 5224POPC   C4B67618   7.687  43.249   7.522
 5225POPC   NC367619  21.687  37.109   5.487
 5225POPC   PO467620  21.038  37.153   5.475
 5225POPC   GL167621  21.325  36.955   5.817
 5225POPC   GL267622  21.509  36.659   5.865
 5225POPC   C1A67623  21.561  37.115   6.192
 5225POPC   D2A67624  21.478  37.024   6.636
 5225POPC   C3A67625  21.493  37.238   7.043
 5225POPC   C4A67626  21.582  36.963   7.417
 5225POPC   C1B67627  21.286  36.663   6.263
 5225POPC   C2B67628  21.044  36.711   6.649
 5225POPC   C3B67629  21.272  36.744   7.053
 5225POPC   C4B67630  21.137  36.708   7.486
 5226POPC   NC367631  36.650  25.641   5.512
 5226POPC   PO467632  36.023  25.411   5.398
 5226POPC   GL167633  36.054  25.150   5.760
 5226POPC   GL267634  36.178  24.804   5.751
 5226POPC   C1A67635  36.203  25.271   6.192
 5226POPC   D2A67636  35.980  25.402   6.553
 5226POPC   C3A67637  36.177  25.535   6.889
 5226POPC   C4A67638  36.355  25.269   7.160
 5226POPC   C1B67639  35.942  24.840   6.155
 5226POPC   C2B67640  36.109  24.908   6.609
 5226POPC   C3B67641  35.896  25.109   6.973
 5226POPC   C4B67642  35.721  24.949   7.347
 5227POPC   NC367643  28.055  19.495   5.523
 5227POPC   PO467644  28.528  19.950   5.397
 5227POPC   GL167645  28.453  19.728   5.797
 5227POPC   GL267646  28.096  19.791   5.930
 5227POPC   C1A67647  28.462  19.647   6.258
 5227POPC   D2A67648  28.257  19.722   6.640
 5227POPC   C3A67649  28.461  19.737   7.044
 5227POPC   C4A67650  28.497  19.915   7.476
 5227POPC   C1B67651  28.003  19.441   6.225
 5227POPC   C2B67652  28.184  19.218   6.562
 5227POPC   C3B67653  27.981  19.390   6.937
 5227POPC   C4B67654  27.701  19.245   7.238
 5228POPC   NC367655  38.004  43.494   5.031
 5228POPC   PO467656  38.525  43.092   5.212
 5228POPC   GL167657  38.420  43.301   5.622
 5228POPC   GL267658  38.183  43.061   5.752
 5228POPC   C1A67659  38.469  43.329   6.092
 5228POPC   D2A67660  38.403  43.175   6.524
 5228POPC   C3A67661  38.626  43.063   6.911
 5228POPC   C4A67662  38.534  43.304   7.265
 5228POPC   C1B67663  38.127  42.918   6.187
 5228POPC   C2B67664  38.198  42.709   6.599
 5228POPC   C3B67665  38.123  42.737   7.028
 5228POPC   C4B67666  38.394  42.807   7.344
 5229POPC   NC367667  23.293   6.677   5.028
 5229POPC   PO467668  22.656   6.622   5.363
 5229POPC   GL167669  22.915   6.675   5.758
 5229POPC   GL267670  23.138   6.452   5.736
 5229POPC   C1A67671  23.095   6.849   6.148
 5229POPC   D2A67672  23.076   7.073   6.550
 5229POPC   C3A67673  23.127   6.786   6.860
 5229POPC   C4A67674  23.221   6.756   7.278
 5229POPC   C1B67675  22.967   6.355   6.192
 5229POPC   C2B67676  23.010   6.261   6.656
 5229POPC   C3B67677  23.033   6.267   7.111
 5229POPC   C4B67678  23.064   6.153   7.574
 5230POPC   NC367679   6.800  39.497   5.218
 5230POPC   PO467680   6.413  39.084   5.187
 5230POPC   GL167681   6.519  39.308   5.619
 5230POPC   GL267682   6.806  39.504   5.716
 5230POPC   C1A67683   6.480  39.372   6.089
 5230POPC   D2A67684   6.593  39.548   6.521
 5230POPC   C3A67685   6.404  39.334   6.920
 5230POPC   C4A67686   6.433  39.353   7.372
 5230POPC   C1B67687   6.991  39.421   6.103
 5230POPC   C2B67688   6.993  39.191   6.485
 5230POPC   C3B67689   6.928  39.365   6.891
 5230POPC   C4B67690   6.991  39.392   7.313
 5231POPC   NC367691   6.753   9.524   5.190
 5231POPC   PO467692   6.455  10.141   5.429
 5231POPC   GL167693   6.680   9.821   5.677
 5231POPC   GL267694   6.843   9.483   5.689
 5231POPC   C1A67695   6.702   9.803   6.110
 5231POPC   D2A67696   6.370   9.707   6.395
 5231POPC   C3A67697   6.455   9.747   6.819
 5231POPC   C4A67698   6.562   9.608   7.224
 5231POPC   C1B67699   7.027   9.422   6.118
 5231POPC   C2B67700   6.837   9.487   6.538
 5231POPC   C3B67701   7.031   9.522   6.951
 5231POPC   C4B67702   6.972   9.321   7.349
 5232POPC   NC367703  44.326  15.581   5.200
 5232POPC   PO467704  44.895  15.055   5.388
 5232POPC   GL167705  44.913  15.034   5.839
 5232POPC   GL267706  44.566  15.015   5.868
 5232POPC   C1A67707  44.836  15.144   6.288
 5232POPC   D2A67708   0.058  15.306   6.631
 5232POPC   C3A67709  44.893  15.327   7.035
 5232POPC   C4A67710  44.897  15.255   7.496
 5232POPC   C1B67711  44.200  14.887   6.092
 5232POPC   C2B67712  44.140  14.941   6.530
 5232POPC   C3B67713  44.461  15.159   6.771
 5232POPC   C4B67714  44.467  15.096   7.217
 5233POPC   NC367715   7.722  39.110   5.264
 5233POPC   PO467716   7.244  39.585   5.429
 5233POPC   GL167717   7.380  39.289   5.765
 5233POPC   GL267718   7.625  39.015   5.773
 5233POPC   C1A67719   7.470  39.301   6.219
 5233POPC   D2A67720   7.351  39.521   6.611
 5233POPC   C3A67721   7.447  39.336   7.011
 5233POPC   C4A67722   7.567  39.551   7.369
 5233POPC   C1B67723   7.647  38.808   6.164
 5233POPC   C2B67724   7.512  38.936   6.584
 5233POPC   C3B67725   7.684  38.857   6.973
 5233POPC   C4B67726   7.754  39.056   7.350
 5234POPC   NC367727   4.185  29.696   5.361
 5234POPC   PO467728   3.496  29.793   5.101
 5234POPC   GL167729   3.425  29.852   5.605
 5234POPC   GL267730   3.258  30.157   5.766
 5234POPC   C1A67731   3.580  29.841   6.073
 5234POPC   D2A67732   3.403  29.764   6.516
 5234POPC   C3A67733   3.499  30.006   6.893
 5234POPC   C4A67734   3.755  30.126   7.252
 5234POPC   C1B67735   3.293  30.237   6.197
 5234POPC   C2B67736   3.302  30.397   6.600
 5234POPC   C3B67737   3.095  30.298   6.957
 5234POPC   C4B67738   3.298  30.320   7.325
 5235POPC   NC367739   2.964  11.647   5.579
 5235POPC   PO467740   2.833  11.167   5.177
 5235POPC   GL167741   2.607  11.254   5.651
 5235POPC   GL267742   2.495  11.557   5.881
 5235POPC   C1A67743   2.658  11.147   6.135
 5235POPC   D2A67744   2.993  11.192   6.477
 5235POPC   C3A67745   2.889  10.946   6.847
 5235POPC   C4A67746   2.562  11.049   7.126
 5235POPC   C1B67747   2.825  11.654   6.219
 5235POPC   C2B67748   2.992  11.733   6.638
 5235POPC   C3B67749   2.716  11.606   6.982
 5235POPC   C4B67750   2.985  11.341   7.186
 5236POPC   NC367751   3.517  27.838   5.426
 5236POPC   PO467752   3.924  28.239   5.569
 5236POPC   GL167753   3.808  27.861   5.854
 5236POPC   GL267754   3.443  27.733   5.935
 5236POPC   C1A67755   3.788  27.667   6.280
 5236POPC   D2A67756   3.564  27.550   6.633
 5236POPC   C3A67757   3.726  27.768   6.975
 5236POPC   C4A67758   3.541  27.862   7.335
 5236POPC   C1B67759   3.235  27.375   6.266
 5236POPC   C2B67760   3.261  27.156   6.728
 5236POPC   C3B67761   3.488  27.336   7.132
 5236POPC   C4B67762   3.866  27.431   7.431
 5237POPC   NC367763  11.854  41.857   5.507
 5237POPC   PO467764  11.230  41.565   5.380
 5237POPC   GL167765  11.186  41.410   5.797
 5237POPC   GL267766  11.543  41.333   5.828
 5237POPC   C1A67767  11.182  41.236   6.211
 5237POPC   D2A67768  10.953  41.247   6.577
 5237POPC   C3A67769  11.169  41.208   6.985
 5237POPC   C4A67770  11.129  41.560   7.279
 5237POPC   C1B67771  11.561  41.581   6.203
 5237POPC   C2B67772  11.459  41.477   6.629
 5237POPC   C3B67773  11.548  41.651   7.019
 5237POPC   C4B67774  11.727  41.718   7.413
 5238POPC   NC367775   7.305   5.587   5.618
 5238POPC   PO467776   7.744   5.123   5.248
 5238POPC   GL167777   7.673   4.998   5.762
 5238POPC   GL267778   7.388   5.178   5.872
 5238POPC   C1A67779   7.460   4.891   6.249
 5238POPC   D2A67780   7.344   5.143   6.632
 5238POPC   C3A67781   7.281   4.967   7.074
 5238POPC   C4A67782   7.671   4.978   7.283
 5238POPC   C1B67783   7.134   5.387   6.235
 5238POPC   C2B67784   7.079   5.573   6.681
 5238POPC   C3B67785   7.068   5.441   7.142
 5238POPC   C4B67786   7.284   5.477   7.525
 5239POPC   NC367787  39.664   9.802   5.319
 5239POPC   PO467788  40.219   9.544   5.438
 5239POPC   GL167789  39.841   9.511   5.708
 5239POPC   GL267790  39.584   9.239   5.642
 5239POPC   C1A67791  39.776   9.698   6.145
 5239POPC   D2A67792  39.992   9.843   6.533
 5239POPC   C3A67793  39.887   9.864   6.966
 5239POPC   C4A67794  40.105   9.910   7.371
 5239POPC   C1B67795  39.763   9.173   6.081
 5239POPC   C2B67796  39.674   9.335   6.513
 5239POPC   C3B67797  39.951   9.356   6.858
 5239POPC   C4B67798  40.089   9.403   7.274
 5240POPC   NC367799   2.939  24.702   4.938
 5240POPC   PO467800   2.447  24.330   5.341
 5240POPC   GL167801   2.604  24.462   5.747
 5240POPC   GL267802   2.576  24.137   5.926
 5240POPC   C1A67803   2.787  24.559   6.169
 5240POPC   D2A67804   2.815  24.387   6.615
 5240POPC   C3A67805   2.802  24.641   7.018
 5240POPC   C4A67806   3.179  24.767   7.270
 5240POPC   C1B67807   2.356  24.282   6.317
 5240POPC   C2B67808   2.343  24.490   6.741
 5240POPC   C3B67809   2.341  24.467   7.168
 5240POPC   C4B67810   2.683  24.459   7.493
 5241POPC   NC367811   9.164  13.357   5.143
 5241POPC   PO467812   9.101  13.922   5.442
 5241POPC   GL167813   8.966  13.786   5.794
 5241POPC   GL267814   9.186  13.496   5.806
 5241POPC   C1A67815   8.808  13.652   6.195
 5241POPC   D2A67816   9.003  13.702   6.574
 5241POPC   C3A67817   8.747  13.634   6.941
 5241POPC   C4A67818   8.713  13.359   7.251
 5241POPC   C1B67819   9.341  13.762   6.156
 5241POPC   C2B67820   9.512  13.667   6.578
 5241POPC   C3B67821   9.286  13.689   7.007
 5241POPC   C4B67822   9.250  14.028   7.321
 5242POPC   NC367823  29.359  34.691   5.382
 5242POPC   PO467824  29.086  34.070   5.443
 5242POPC   GL167825  29.322  34.318   5.786
 5242POPC   GL267826  29.225  34.686   5.864
 5242POPC   C1A67827  29.332  34.359   6.247
 5242POPC   D2A67828  29.093  34.391   6.610
 5242POPC   C3A67829  29.264  34.442   6.998
 5242POPC   C4A67830  29.446  34.217   7.340
 5242POPC   C1B67831  29.035  34.802   6.235
 5242POPC   C2B67832  28.703  34.721   6.497
 5242POPC   C3B67833  28.753  34.652   6.913
 5242POPC   C4B67834  28.911  34.609   7.306
 5243POPC   NC367835  37.084  37.154   5.482
 5243POPC   PO467836  36.686  36.665   5.202
 5243POPC   GL167837  37.017  36.657   5.670
 5243POPC   GL267838  37.036  36.960   5.930
 5243POPC   C1A67839  37.080  36.539   6.169
 5243POPC   D2A67840  36.782  36.687   6.524
 5243POPC   C3A67841  36.879  36.648   6.995
 5243POPC   C4A67842  36.671  36.717   7.431
 5243POPC   C1B67843  37.034  37.115   6.349
 5243POPC   C2B67844  37.105  37.169   6.780
 5243POPC   C3B67845  36.992  37.149   7.194
 5243POPC   C4B67846  37.314  37.301   7.472
 5244POPC   NC367847   4.054  31.229   5.584
 5244POPC   PO467848   4.669  31.571   5.409
 5244POPC   GL167849   4.381  31.617   5.766
 5244POPC   GL267850   4.093  31.862   5.713
 5244POPC   C1A67851   4.515  31.565   6.223
 5244POPC   D2A67852   4.705  31.589   6.664
 5244POPC   C3A67853   4.377  31.598   7.002
 5244POPC   C4A67854   4.455  31.610   7.455
 5244POPC   C1B67855   4.006  31.898   6.171
 5244POPC   C2B67856   4.043  31.682   6.590
 5244POPC   C3B67857   3.837  31.697   6.999
 5244POPC   C4B67858   3.999  31.822   7.393
 5245POPC   NC367859  13.269  16.010   5.732
 5245POPC   PO467860  13.662  16.002   5.188
 5245POPC   GL167861  13.828  15.966   5.632
 5245POPC   GL267862  13.716  15.649   5.740
 5245POPC   C1A67863  13.875  15.951   6.123
 5245POPC   D2A67864  13.515  15.951   6.454
 5245POPC   C3A67865  13.502  16.049   6.892
 5245POPC   C4A67866  13.789  15.938   7.183
 5245POPC   C1B67867  13.550  15.543   6.170
 5245POPC   C2B67868  13.692  15.359   6.559
 5245POPC   C3B67869  13.812  15.468   6.986
 5245POPC   C4B67870  13.766  15.473   7.451
 5246POPC   NC367871   9.770   7.639   5.331
 5246POPC   PO467872   9.094   7.530   5.340
 5246POPC   GL167873   9.407   7.629   5.715
 5246POPC   GL267874   9.634   7.386   5.758
 5246POPC   C1A67875   9.659   7.742   6.134
 5246POPC   D2A67876   9.812   7.542   6.546
 5246POPC   C3A67877   9.552   7.467   6.926
 5246POPC   C4A67878   9.459   7.576   7.357
 5246POPC   C1B67879   9.874   7.241   6.112
 5246POPC   C2B67880   9.931   7.031   6.506
 5246POPC   C3B67881   9.876   7.026   6.962
 5246POPC   C4B67882   9.546   7.079   7.277
 5247POPC   NC367883  33.150  39.159   5.330
 5247POPC   PO467884  32.500  39.096   5.282
 5247POPC   GL167885  32.783  39.052   5.680
 5247POPC   GL267886  33.044  39.312   5.808
 5247POPC   C1A67887  32.933  38.870   6.062
 5247POPC   D2A67888  33.050  39.103   6.461
 5247POPC   C3A67889  32.900  38.950   6.857
 5247POPC   C4A67890  32.782  39.028   7.276
 5247POPC   C1B67891  33.226  39.548   6.185
 5247POPC   C2B67892  33.452  39.560   6.607
 5247POPC   C3B67893  33.387  39.618   7.060
 5247POPC   C4B67894  32.985  39.603   7.222
 5248POPC   NC367895   8.672  10.285   4.999
 5248POPC   PO467896   9.194  10.715   5.249
 5248POPC   GL167897   9.123  10.627   5.710
 5248POPC   GL267898   8.980  10.302   5.771
 5248POPC   C1A67899   9.037  10.662   6.169
 5248POPC   D2A67900   9.035  10.499   6.609
 5248POPC   C3A67901   8.998  10.765   7.005
 5248POPC   C4A67902   8.957  10.708   7.493
 5248POPC   C1B67903   8.766  10.223   6.164
 5248POPC   C2B67904   8.587  10.250   6.570
 5248POPC   C3B67905   8.718  10.292   6.987
 5248POPC   C4B67906   8.675  10.302   7.429
 5249POPC   NC367907  32.539  16.468   5.223
 5249POPC   PO467908  32.064  16.972   5.342
 5249POPC   GL167909  32.244  16.838   5.706
 5249POPC   GL267910  32.582  16.998   5.649
 5249POPC   C1A67911  32.137  16.764   6.167
 5249POPC   D2A67912  31.921  16.670   6.553
 5249POPC   C3A67913  32.145  16.649   6.946
 5249POPC   C4A67914  32.091  16.466   7.378
 5249POPC   C1B67915  32.461  17.158   6.076
 5249POPC   C2B67916  32.501  16.948   6.505
 5249POPC   C3B67917  32.483  17.063   6.945
 5249POPC   C4B67918  32.295  16.947   7.343
 5250POPC   NC367919  27.809  33.840   5.356
 5250POPC   PO467920  27.451  33.228   5.521
 5250POPC   GL167921  27.572  33.606   5.802
 5250POPC   GL267922  27.444  33.952   5.715
 5250POPC   C1A67923  27.700  33.563   6.263
 5250POPC   D2A67924  27.712  33.511   6.722
 5250POPC   C3A67925  27.843  33.917   6.867
 5250POPC   C4A67926  27.764  34.134   7.247
 5250POPC   C1B67927  27.318  33.923   6.139
 5250POPC   C2B67928  27.310  33.787   6.563
 5250POPC   C3B67929  27.342  33.791   6.998
 5250POPC   C4B67930  27.265  34.078   7.311
 5251POPC   NC367931  31.802  28.507   5.413
 5251POPC   PO467932  31.493  27.913   5.429
 5251POPC   GL167933  31.467  28.120   5.824
 5251POPC   GL267934  31.466  28.452   5.808
 5251POPC   C1A67935  31.729  28.280   6.182
 5251POPC   D2A67936  31.699  28.489   6.541
 5251POPC   C3A67937  31.472  28.298   6.866
 5251POPC   C4A67938  31.728  28.229   7.235
 5251POPC   C1B67939  31.239  28.407   6.272
 5251POPC   C2B67940  31.013  28.502   6.691
 5251POPC   C3B67941  31.098  28.550   7.147
 5251POPC   C4B67942  31.068  28.321   7.530
 5252POPC   NC367943  22.774  10.021   5.277
 5252POPC   PO467944  22.685   9.365   5.306
 5252POPC   GL167945  22.813   9.562   5.688
 5252POPC   GL267946  22.626   9.842   5.810
 5252POPC   C1A67947  22.837   9.483   6.138
 5252POPC   D2A67948  22.741   9.514   6.575
 5252POPC   C3A67949  23.077   9.551   6.877
 5252POPC   C4A67950  23.032   9.510   7.310
 5252POPC   C1B67951  22.478   9.838   6.239
 5252POPC   C2B67952  22.414   9.959   6.677
 5252POPC   C3B67953  22.686   9.845   7.038
 5252POPC   C4B67954  23.071  10.039   7.211
 5253POPC   NC367955   3.625  30.924   5.288
 5253POPC   PO467956   3.731  31.559   5.509
 5253POPC   GL167957   3.409  31.457   5.809
 5253POPC   GL267958   3.233  31.763   5.849
 5253POPC   C1A67959   3.450  31.276   6.236
 5253POPC   D2A67960   3.521  31.397   6.666
 5253POPC   C3A67961   3.899  31.209   6.835
 5253POPC   C4A67962   4.039  31.283   7.251
 5253POPC   C1B67963   3.141  31.682   6.281
 5253POPC   C2B67964   3.034  31.688   6.723
 5253POPC   C3B67965   3.296  31.619   7.081
 5253POPC   C4B67966   3.464  31.222   7.168
 5254POPC   NC367967  38.542   7.716   5.318
 5254POPC   PO467968  38.194   7.187   5.370
 5254POPC   GL167969  38.394   7.424   5.737
 5254POPC   GL267970  38.318   7.796   5.786
 5254POPC   C1A67971  38.487   7.535   6.182
 5254POPC   D2A67972  38.708   7.365   6.516
 5254POPC   C3A67973  38.535   7.463   6.926
 5254POPC   C4A67974  38.697   7.254   7.306
 5254POPC   C1B67975  38.019   7.812   6.175
 5254POPC   C2B67976  38.025   7.867   6.638
 5254POPC   C3B67977  37.954   7.812   7.090
 5254POPC   C4B67978  38.317   7.690   7.357
 5255POPC   NC367979  19.819  37.351   5.436
 5255POPC   PO467980  20.037  38.010   5.418
 5255POPC   GL167981  19.816  37.800   5.726
 5255POPC   GL267982  20.104  37.641   5.777
 5255POPC   C1A67983  19.722  37.511   6.094
 5255POPC   D2A67984  19.547  37.640   6.502
 5255POPC   C3A67985  19.616  37.482   6.914
 5255POPC   C4A67986  19.783  37.806   7.190
 5255POPC   C1B67987  20.222  37.476   6.161
 5255POPC   C2B67988  20.034  37.467   6.529
 5255POPC   C3B67989  20.122  37.547   6.913
 5255POPC   C4B67990  19.994  37.340   7.251
 5256POPC   NC367991  14.114   8.599   5.391
 5256POPC   PO467992  13.412   8.630   5.429
 5256POPC   GL167993  13.474   8.822   5.818
 5256POPC   GL267994  13.789   8.965   5.710
 5256POPC   C1A67995  13.477   8.949   6.238
 5256POPC   D2A67996  13.234   8.833   6.604
 5256POPC   C3A67997  13.490   8.762   6.941
 5256POPC   C4A67998  13.743   9.091   7.049
 5256POPC   C1B67999  13.990   8.912   6.117
 5256POPC   C2B68000  13.867   8.890   6.565
 5256POPC   C3B68001  14.022   8.681   6.906
 5256POPC   C4B68002  13.858   8.328   7.088
 5257POPC   NC368003  22.069   9.370   5.151
 5257POPC   PO468004  22.330   9.926   5.404
 5257POPC   GL168005  22.145  10.054   5.811
 5257POPC   GL268006  22.054   9.737   5.913
 5257POPC   C1A68007  22.041  10.095   6.276
 5257POPC   D2A68008  21.876   9.906   6.662
 5257POPC   C3A68009  22.063  10.038   7.045
 5257POPC   C4A68010  22.385  10.134   7.367
 5257POPC   C1B68011  22.068   9.562   6.348
 5257POPC   C2B68012  22.265   9.481   6.730
 5257POPC   C3B68013  22.275   9.575   7.132
 5257POPC   C4B68014  21.900   9.576   7.197
 5258POPC   NC368015  41.273   2.068   5.618
 5258POPC   PO468016  40.644   2.109   5.375
 5258POPC   GL168017  40.775   2.081   5.793
 5258POPC   GL268018  40.949   1.773   5.870
 5258POPC   C1A68019  40.735   2.117   6.235
 5258POPC   D2A68020  40.891   2.118   6.640
 5258POPC   C3A68021  40.624   2.116   6.990
 5258POPC   C4A68022  40.724   2.170   7.410
 5258POPC   C1B68023  40.926   1.562   6.268
 5258POPC   C2B68024  40.823   1.388   6.644
 5258POPC   C3B68025  40.990   1.400   7.026
 5258POPC   C4B68026  40.730   1.626   7.231
 5259POPC   NC368027  38.989  13.458   5.412
 5259POPC   PO468028  39.390  14.082   5.266
 5259POPC   GL168029  39.328  13.775   5.628
 5259POPC   GL268030  39.529  13.458   5.650
 5259POPC   C1A68031  39.203  13.538   6.032
 5259POPC   D2A68032  39.093  13.643   6.464
 5259POPC   C3A68033  39.226  13.532   6.873
 5259POPC   C4A68034  39.255  13.814   7.204
 5259POPC   C1B68035  39.664  13.331   6.088
 5259POPC   C2B68036  39.463  13.265   6.458
 5259POPC   C3B68037  39.595  13.163   6.853
 5259POPC   C4B68038  39.598  13.280   7.280
 5260POPC   NC368039  37.739  31.784   5.302
 5260POPC   PO468040  37.495  31.151   5.494
 5260POPC   GL168041  37.681  31.374   5.830
 5260POPC   GL268042  37.909  31.624   5.762
 5260POPC   C1A68043  37.681  31.359   6.276
 5260POPC   D2A68044  37.339  31.215   6.543
 5260POPC   C3A68045  37.348  31.378   6.942
 5260POPC   C4A68046  37.667  31.458   7.260
 5260POPC   C1B68047  38.019  31.924   6.069
 5260POPC   C2B68048  37.903  31.834   6.498
 5260POPC   C3B68049  37.677  31.838   6.902
 5260POPC   C4B68050  37.703  31.963   7.336
 5261POPC   NC368051  13.230  41.486   5.408
 5261POPC   PO468052  12.558  41.407   5.211
 5261POPC   GL168053  12.768  41.582   5.604
 5261POPC   GL268054  13.012  41.859   5.702
 5261POPC   C1A68055  12.925  41.444   6.031
 5261POPC   D2A68056  12.956  41.545   6.500
 5261POPC   C3A68057  12.906  41.323   6.889
 5261POPC   C4A68058  12.544  41.406   7.135
 5261POPC   C1B68059  13.095  41.911   6.168
 5261POPC   C2B68060  13.286  41.898   6.620
 5261POPC   C3B68061  13.024  41.797   7.035
 5261POPC   C4B68062  13.072  41.844   7.500
 5262POPC   NC368063   2.829  28.063   5.352
 5262POPC   PO468064   2.541  27.550   5.107
 5262POPC   GL168065   2.720  27.606   5.593
 5262POPC   GL268066   2.967  27.842   5.799
 5262POPC   C1A68067   2.606  27.602   6.079
 5262POPC   D2A68068   2.498  27.457   6.515
 5262POPC   C3A68069   2.654  27.665   6.906
 5262POPC   C4A68070   2.609  27.381   7.209
 5262POPC   C1B68071   3.117  27.867   6.287
 5262POPC   C2B68072   3.121  27.833   6.777
 5262POPC   C3B68073   3.061  27.699   7.237
 5262POPC   C4B68074   3.144  27.943   7.631
 5263POPC   NC368075  16.827   3.267   5.436
 5263POPC   PO468076  17.076   2.633   5.449
 5263POPC   GL168077  16.791   2.846   5.753
 5263POPC   GL268078  16.941   3.153   5.911
 5263POPC   C1A68079  16.671   2.799   6.203
 5263POPC   D2A68080  16.993   2.700   6.543
 5263POPC   C3A68081  16.787   2.633   6.947
 5263POPC   C4A68082  16.437   2.496   7.219
 5263POPC   C1B68083  16.937   3.239   6.343
 5263POPC   C2B68084  16.677   3.080   6.649
 5263POPC   C3B68085  16.607   3.102   7.087
 5263POPC   C4B68086  17.004   3.047   7.173
 5264POPC   NC368087  20.543   6.442   5.449
 5264POPC   PO468088  20.797   7.078   5.415
 5264POPC   GL168089  20.612   6.842   5.785
 5264POPC   GL268090  20.322   6.971   5.946
 5264POPC   C1A68091  20.494   6.545   6.172
 5264POPC   D2A68092  20.308   6.221   6.512
 5264POPC   C3A68093  20.438   6.233   6.982
 5264POPC   C4A68094  20.757   6.496   7.181
 5264POPC   C1B68095  20.677   7.062   6.249
 5264POPC   C2B68096  20.957   7.122   6.638
 5264POPC   C3B68097  20.804   7.013   7.050
 5264POPC   C4B68098  20.395   6.791   6.976
 5265POPC   NC368099  41.468  17.384   5.413
 5265POPC   PO468100  41.976  17.256   5.628
 5265POPC   GL168101  41.612  17.353   5.917
 5265POPC   GL268102  41.459  17.678   5.863
 5265POPC   C1A68103  41.393  17.452   6.331
 5265POPC   D2A68104  41.387  17.606   6.776
 5265POPC   C3A68105  41.522  17.277   7.082
 5265POPC   C4A68106  41.361  17.144   7.499
 5265POPC   C1B68107  41.800  17.746   6.212
 5265POPC   C2B68108  41.845  17.833   6.679
 5265POPC   C3B68109  41.782  17.755   7.123
 5265POPC   C4B68110  41.811  18.025   7.520
 5266POPC   NC368111   2.477  42.853   5.431
 5266POPC   PO468112   2.785  43.464   5.510
 5266POPC   GL168113   2.670  43.150   5.830
 5266POPC   GL268114   2.846  42.829   5.823
 5266POPC   C1A68115   2.603  43.170   6.306
 5266POPC   D2A68116   2.743  43.305   6.753
 5266POPC   C3A68117   2.580  43.247   7.218
 5266POPC   C4A68118   2.711  43.323   7.676
 5266POPC   C1B68119   2.900  42.702   6.227
 5266POPC   C2B68120   2.665  42.732   6.576
 5266POPC   C3B68121   2.753  42.828   6.971
 5266POPC   C4B68122   2.388  42.724   7.143
 5267POPC   NC368123  42.890  15.398   5.470
 5267POPC   PO468124  43.296  14.908   5.311
 5267POPC   GL168125  43.112  15.026   5.729
 5267POPC   GL268126  43.343  15.292   5.784
 5267POPC   C1A68127  42.862  15.256   6.101
 5267POPC   D2A68128  42.751  15.273   6.552
 5267POPC   C3A68129  42.974  15.276   6.928
 5267POPC   C4A68130  42.882  15.050   7.245
 5267POPC   C1B68131  43.328  15.117   6.184
 5267POPC   C2B68132  43.151  14.944   6.532
 5267POPC   C3B68133  43.248  14.819   6.925
 5267POPC   C4B68134  43.239  14.706   7.339
 5268POPC   NC368135  40.453  13.614   5.491
 5268POPC   PO468136  40.921  13.231   5.250
 5268POPC   GL168137  40.862  13.414   5.762
 5268POPC   GL268138  40.649  13.712   5.930
 5268POPC   C1A68139  40.953  13.464   6.235
 5268POPC   D2A68140  40.751  13.722   6.596
 5268POPC   C3A68141  40.976  13.756   7.011
 5268POPC   C4A68142  41.235  13.674   7.398
 5268POPC   C1B68143  40.444  13.371   6.121
 5268POPC   C2B68144  40.528  13.250   6.539
 5268POPC   C3B68145  40.576  13.401   6.957
 5268POPC   C4B68146  40.473  13.135   7.272
 5269POPC   NC368147  29.901   5.689   5.366
 5269POPC   PO468148  30.089   6.259   5.374
 5269POPC   GL168149  30.025   6.025   5.736
 5269POPC   GL268150  29.672   6.005   5.724
 5269POPC   C1A68151  30.002   6.045   6.201
 5269POPC   D2A68152  29.695   6.032   6.569
 5269POPC   C3A68153  29.833   6.177   6.978
 5269POPC   C4A68154  30.126   6.012   7.261
 5269POPC   C1B68155  29.564   5.760   6.120
 5269POPC   C2B68156  29.476   5.576   6.579
 5269POPC   C3B68157  29.565   5.732   7.035
 5269POPC   C4B68158  29.727   5.769   7.479
 5270POPC   NC368159  32.500   9.730   5.037
 5270POPC   PO468160  32.183  10.064   5.575
 5270POPC   GL168161  32.290   9.928   5.915
 5270POPC   GL268162  32.606  10.070   5.897
 5270POPC   C1A68163  32.222   9.716   6.249
 5270POPC   D2A68164  32.230   9.886   6.650
 5270POPC   C3A68165  32.216   9.570   6.931
 5270POPC   C4A68166  32.033   9.636   7.303
 5270POPC   C1B68167  32.741   9.707   6.148
 5270POPC   C2B68168  32.614   9.534   6.539
 5270POPC   C3B68169  32.776   9.600   6.934
 5270POPC   C4B68170  32.574   9.619   7.298
 5271POPC   NC368171   2.812  21.657   5.450
 5271POPC   PO468172   2.573  21.047   5.319
 5271POPC   GL168173   2.640  21.249   5.722
 5271POPC   GL268174   2.962  21.216   5.819
 5271POPC   C1A68175   2.656  21.402   6.170
 5271POPC   D2A68176   2.679  21.327   6.602
 5271POPC   C3A68177   2.773  21.581   6.976
 5271POPC   C4A68178   2.633  21.346   7.323
 5271POPC   C1B68179   3.133  21.240   6.218
 5271POPC   C2B68180   3.167  21.471   6.626
 5271POPC   C3B68181   3.158  21.222   7.008
 5271POPC   C4B68182   3.076  21.151   7.447
 5272POPC   NC368183  35.532   7.229   5.393
 5272POPC   PO468184  35.179   7.851   5.507
 5272POPC   GL168185  35.412   7.637   5.802
 5272POPC   GL268186  35.371   7.262   5.870
 5272POPC   C1A68187  35.336   7.603   6.234
 5272POPC   D2A68188  35.345   7.432   6.628
 5272POPC   C3A68189  35.653   7.633   6.838
 5272POPC   C4A68190  35.454   7.720   7.209
 5272POPC   C1B68191  35.260   7.073   6.267
 5272POPC   C2B68192  35.132   6.964   6.687
 5272POPC   C3B68193  35.296   7.099   7.071
 5272POPC   C4B68194  35.312   7.302   7.471
 5273POPC   NC368195  19.842   0.022   5.028
 5273POPC   PO468196  20.043   0.474   5.568
 5273POPC   GL168197  19.735   0.636   5.821
 5273POPC   GL268198  19.961   0.893   5.935
 5273POPC   C1A68199  19.668   0.549   6.241
 5273POPC   D2A68200  19.696   0.723   6.623
 5273POPC   C3A68201  19.721   0.419   6.912
 5273POPC   C4A68202  19.587   0.373   7.325
 5273POPC   C1B68203  20.180   0.577   6.230
 5273POPC   C2B68204  20.126   0.282   6.566
 5273POPC   C3B68205  20.222   0.337   7.002
 5273POPC   C4B68206  20.190   0.319   7.444
 5274POPC   NC368207  40.452  32.498   5.382
 5274POPC   PO468208  40.937  32.031   5.340
 5274POPC   GL168209  40.934  32.383   5.663
 5274POPC   GL268210  40.877  32.153   5.933
 5274POPC   C1A68211  41.039  32.590   6.101
 5274POPC   D2A68212  41.223  32.598   6.531
 5274POPC   C3A68213  41.016  32.789   6.892
 5274POPC   C4A68214  40.958  32.630   7.297
 5274POPC   C1B68215  40.891  32.163   6.419
 5274POPC   C2B68216  40.640  32.096   6.825
 5274POPC   C3B68217  40.687  32.071   7.279
 5274POPC   C4B68218  40.462  32.101   7.677
 5275POPC   NC368219  23.545  17.123   5.441
 5275POPC   PO468220  23.883  17.724   5.317
 5275POPC   GL168221  23.701  17.539   5.712
 5275POPC   GL268222  24.012  17.521   5.905
 5275POPC   C1A68223  23.574  17.403   6.143
 5275POPC   D2A68224  23.897  17.335   6.470
 5275POPC   C3A68225  23.787  17.362   6.916
 5275POPC   C4A68226  23.512  17.531   7.224
 5275POPC   C1B68227  23.896  17.816   6.251
 5275POPC   C2B68228  23.864  17.833   6.731
 5275POPC   C3B68229  24.014  17.774   7.154
 5275POPC   C4B68230  24.262  17.985   7.486
 5276POPC   NC368231   1.909  26.307   5.052
 5276POPC   PO468232   2.390  26.001   5.455
 5276POPC   GL168233   2.217  26.228   5.771
 5276POPC   GL268234   1.912  26.057   5.825
 5276POPC   C1A68235   2.170  26.186   6.223
 5276POPC   D2A68236   2.324  26.074   6.585
 5276POPC   C3A68237   2.168  26.288   6.911
 5276POPC   C4A68238   1.944  26.203   7.280
 5276POPC   C1B68239   1.684  25.971   6.178
 5276POPC   C2B68240   1.804  26.082   6.578
 5276POPC   C3B68241   1.894  25.836   6.930
 5276POPC   C4B68242   1.586  25.811   7.259
 5277POPC   NC368243  20.912  31.730   5.011
 5277POPC   PO468244  20.513  32.187   5.390
 5277POPC   GL168245  20.619  32.232   5.818
 5277POPC   GL268246  20.381  32.490   5.867
 5277POPC   C1A68247  20.853  32.112   6.194
 5277POPC   D2A68248  20.847  32.294   6.621
 5277POPC   C3A68249  20.754  32.077   7.014
 5277POPC   C4A68250  20.884  32.155   7.430
 5277POPC   C1B68251  20.638  32.601   6.224
 5277POPC   C2B68252  20.559  32.717   6.652
 5277POPC   C3B68253  20.638  32.596   7.094
 5277POPC   C4B68254  21.014  32.705   7.341
 5278POPC   NC368255   9.937  16.391   5.415
 5278POPC   PO468256   9.469  16.840   5.550
 5278POPC   GL168257   9.754  16.897   5.860
 5278POPC   GL268258   9.847  16.576   5.878
 5278POPC   C1A68259   9.634  16.781   6.308
 5278POPC   D2A68260   9.325  16.634   6.604
 5278POPC   C3A68261   9.479  16.543   6.994
 5278POPC   C4A68262   9.551  16.932   7.134
 5278POPC   C1B68263  10.122  16.753   6.211
 5278POPC   C2B68264  10.031  16.783   6.653
 5278POPC   C3B68265  10.048  16.983   7.033
 5278POPC   C4B68266  10.313  16.945   7.392
 5279POPC   NC368267  27.095  35.254   5.439
 5279POPC   PO468268  27.756  35.127   5.512
 5279POPC   GL168269  27.480  35.279   5.823
 5279POPC   GL268270  27.323  34.952   5.810
 5279POPC   C1A68271  27.591  35.390   6.261
 5279POPC   D2A68272  27.705  35.474   6.690
 5279POPC   C3A68273  27.848  35.142   6.955
 5279POPC   C4A68274  27.745  35.212   7.367
 5279POPC   C1B68275  27.364  34.917   6.246
 5279POPC   C2B68276  27.216  34.737   6.637
 5279POPC   C3B68277  27.338  34.973   7.002
 5279POPC   C4B68278  27.322  34.966   7.464
 5280POPC   NC368279  22.848   7.056   5.456
 5280POPC   PO468280  23.171   7.596   5.279
 5280POPC   GL168281  22.999   7.578   5.757
 5280POPC   GL268282  22.877   7.241   5.913
 5280POPC   C1A68283  22.971   7.648   6.217
 5280POPC   D2A68284  23.228   7.765   6.578
 5280POPC   C3A68285  23.094   7.624   6.972
 5280POPC   C4A68286  23.279   7.237   7.095
 5280POPC   C1B68287  22.674   7.235   6.283
 5280POPC   C2B68288  22.701   7.398   6.706
 5280POPC   C3B68289  22.774   7.217   7.110
 5280POPC   C4B68290  22.444   7.006   7.369
 5281POPC   NC368291  40.397  36.560   5.516
 5281POPC   PO468292  39.836  36.683   5.164
 5281POPC   GL168293  40.046  36.931   5.612
 5281POPC   GL268294  40.199  36.758   5.934
 5281POPC   C1A68295  39.922  37.154   6.037
 5281POPC   D2A68296  39.937  37.227   6.511
 5281POPC   C3A68297  39.897  36.883   6.831
 5281POPC   C4A68298  40.010  36.613   7.218
 5281POPC   C1B68299  40.340  36.988   6.264
 5281POPC   C2B68300  40.418  36.890   6.678
 5281POPC   C3B68301  40.342  36.985   7.092
 5281POPC   C4B68302  40.565  37.247   7.330
 5282POPC   NC368303  13.625   9.874   5.418
 5282POPC   PO468304  14.224   9.831   5.613
 5282POPC   GL168305  13.809   9.739   5.876
 5282POPC   GL268306  13.569   9.423   5.860
 5282POPC   C1A68307  13.478   9.910   6.169
 5282POPC   D2A68308  13.359   9.831   6.611
 5282POPC   C3A68309  13.687   9.986   6.903
 5282POPC   C4A68310  13.810   9.916   7.331
 5282POPC   C1B68311  13.310   9.420   6.268
 5282POPC   C2B68312  13.372   9.320   6.732
 5282POPC   C3B68313  13.532   9.543   7.117
 5282POPC   C4B68314  13.437   9.617   7.560
 5283POPC   NC368315  37.422  32.885   5.574
 5283POPC   PO468316  38.068  32.871   5.430
 5283POPC   GL168317  37.833  33.089   5.785
 5283POPC   GL268318  37.813  32.775   5.891
 5283POPC   C1A68319  37.654  33.111   6.230
 5283POPC   D2A68320  37.757  33.189   6.671
 5283POPC   C3A68321  37.401  33.175   6.955
 5283POPC   C4A68322  37.358  33.018   7.356
 5283POPC   C1B68323  38.054  32.790   6.262
 5283POPC   C2B68324  37.964  32.697   6.683
 5283POPC   C3B68325  37.760  32.823   7.060
 5283POPC   C4B68326  37.839  32.852   7.487
 5284POPC   NC368327  44.361  36.114   5.392
 5284POPC   PO468328   0.039  35.916   5.549
 5284POPC   GL168329  44.713  36.045   5.778
 5284POPC   GL268330  44.479  35.748   5.727
 5284POPC   C1A68331  44.754  36.256   6.183
 5284POPC   D2A68332  44.973  36.227   6.562
 5284POPC   C3A68333  44.753  36.213   6.959
 5284POPC   C4A68334  44.986  36.144   7.356
 5284POPC   C1B68335  44.449  35.854   6.176
 5284POPC   C2B68336  44.339  36.151   6.526
 5284POPC   C3B68337  44.263  36.010   6.960
 5284POPC   C4B68338  44.588  35.821   7.228
 5285POPC   NC368339  32.246  22.472   5.402
 5285POPC   PO468340  31.941  23.080   5.454
 5285POPC   GL168341  32.207  22.980   5.836
 5285POPC   GL268342  32.276  22.621   5.896
 5285POPC   C1A68343  32.290  22.925   6.300
 5285POPC   D2A68344  31.922  22.994   6.573
 5285POPC   C3A68345  32.078  23.090   6.956
 5285POPC   C4A68346  32.404  22.882   7.161
 5285POPC   C1B68347  31.957  22.552   6.257
 5285POPC   C2B68348  32.021  22.470   6.692
 5285POPC   C3B68349  31.956  22.598   7.123
 5285POPC   C4B68350  32.155  22.592   7.531
 5286POPC   NC368351  19.673  35.419   5.245
 5286POPC   PO468352  20.297  35.668   5.334
 5286POPC   GL168353  20.168  35.453   5.695
 5286POPC   GL268354  19.805  35.370   5.747
 5286POPC   C1A68355  20.171  35.372   6.133
 5286POPC   D2A68356  19.862  35.368   6.471
 5286POPC   C3A68357  20.029  35.624   6.829
 5286POPC   C4A68358  19.773  35.479   7.153
 5286POPC   C1B68359  19.489  35.274   6.082
 5286POPC   C2B68360  19.389  35.061   6.489
 5286POPC   C3B68361  19.559  35.070   6.904
 5286POPC   C4B68362  19.799  34.959   7.254
 5287POPC   NC368363  27.029  31.748   5.525
 5287POPC   PO468364  26.532  31.191   5.471
 5287POPC   GL168365  26.652  31.391   5.808
 5287POPC   GL268366  26.997  31.373   5.880
 5287POPC   C1A68367  26.448  31.319   6.175
 5287POPC   D2A68368  26.498  31.047   6.497
 5287POPC   C3A68369  26.644  31.303   6.823
 5287POPC   C4A68370  26.773  31.207   7.212
 5287POPC   C1B68371  26.903  31.626   6.259
 5287POPC   C2B68372  27.125  31.719   6.658
 5287POPC   C3B68373  26.936  31.719   7.054
 5287POPC   C4B68374  26.507  31.675   7.165
 5288POPC   NC368375  39.703   4.472   5.552
 5288POPC   PO468376  40.126   3.942   5.601
 5288POPC   GL168377  40.211   4.353   5.832
 5288POPC   GL268378  40.075   4.704   5.837
 5288POPC   C1A68379  40.184   4.493   6.277
 5288POPC   D2A68380  40.080   4.314   6.673
 5288POPC   C3A68381  40.173   4.527   7.049
 5288POPC   C4A68382  39.888   4.297   7.295
 5288POPC   C1B68383  39.683   4.663   6.138
 5288POPC   C2B68384  39.585   4.437   6.505
 5288POPC   C3B68385  39.680   4.595   6.901
 5288POPC   C4B68386  39.609   4.742   7.302
 5289POPC   NC368387  14.010  14.361   5.540
 5289POPC   PO468388  14.639  14.612   5.620
 5289POPC   GL168389  14.403  14.379   5.866
 5289POPC   GL268390  14.361  14.041   5.775
 5289POPC   C1A68391  14.471  14.410   6.275
 5289POPC   D2A68392  14.208  14.600   6.561
 5289POPC   C3A68393  14.382  14.548   6.928
 5289POPC   C4A68394  14.205  14.767   7.249
 5289POPC   C1B68395  14.093  13.938   6.120
 5289POPC   C2B68396  14.182  14.088   6.533
 5289POPC   C3B68397  14.225  13.999   6.960
 5289POPC   C4B68398  14.189  14.249   7.297
 5290POPC   NC368399  34.241  37.478   5.351
 5290POPC   PO468400  33.815  37.911   5.527
 5290POPC   GL168401  33.787  37.696   5.864
 5290POPC   GL268402  34.016  37.453   5.817
 5290POPC   C1A68403  33.537  37.716   6.175
 5290POPC   D2A68404  33.419  37.960   6.513
 5290POPC   C3A68405  33.451  37.698   6.858
 5290POPC   C4A68406  33.682  37.678   7.204
 5290POPC   C1B68407  34.012  37.487   6.279
 5290POPC   C2B68408  33.914  37.756   6.617
 5290POPC   C3B68409  34.142  37.724   7.008
 5290POPC   C4B68410  34.080  37.349   7.241
 5291POPC   NC368411  15.270  33.378   5.384
 5291POPC   PO468412  14.889  32.743   5.239
 5291POPC   GL168413  15.147  32.945   5.627
 5291POPC   GL268414  15.000  33.215   5.873
 5291POPC   C1A68415  15.316  32.926   6.092
 5291POPC   D2A68416  15.216  33.194   6.480
 5291POPC   C3A68417  15.366  33.005   6.865
 5291POPC   C4A68418  15.255  33.029   7.295
 5291POPC   C1B68419  14.828  33.470   6.199
 5291POPC   C2B68420  14.780  33.506   6.647
 5291POPC   C3B68421  14.950  33.288   6.972
 5291POPC   C4B68422  15.003  33.459   7.368
 5292POPC   NC368423  29.260   0.999   5.019
 5292POPC   PO468424  28.869   1.308   5.391
 5292POPC   GL168425  29.011   1.123   5.808
 5292POPC   GL268426  28.776   0.901   5.951
 5292POPC   C1A68427  29.217   1.052   6.235
 5292POPC   D2A68428  29.257   0.926   6.703
 5292POPC   C3A68429  29.122   1.147   7.137
 5292POPC   C4A68430  29.265   1.249   7.571
 5292POPC   C1B68431  28.724   1.021   6.371
 5292POPC   C2B68432  28.728   0.993   6.823
 5292POPC   C3B68433  28.691   0.896   7.250
 5292POPC   C4B68434  28.754   1.139   7.621
 5293POPC   NC368435  32.626  28.939   5.518
 5293POPC   PO468436  32.020  28.926   5.246
 5293POPC   GL168437  32.185  29.168   5.637
 5293POPC   GL268438  32.014  29.419   5.803
 5293POPC   C1A68439  32.359  29.068   6.069
 5293POPC   D2A68440  32.344  29.150   6.499
 5293POPC   C3A68441  32.556  29.029   6.870
 5293POPC   C4A68442  32.312  29.259   7.167
 5293POPC   C1B68443  31.885  29.191   6.177
 5293POPC   C2B68444  31.858  28.972   6.567
 5293POPC   C3B68445  31.857  29.094   7.009
 5293POPC   C4B68446  31.914  29.205   7.476
 5294POPC   NC368447  36.953  26.284   5.384
 5294POPC   PO468448  37.080  25.609   5.629
 5294POPC   GL168449  36.926  25.960   5.828
 5294POPC   GL268450  37.066  25.793   6.106
 5294POPC   C1A68451  36.615  26.015   6.174
 5294POPC   D2A68452  36.423  25.740   6.488
 5294POPC   C3A68453  36.620  25.776   6.907
 5294POPC   C4A68454  36.657  26.128   7.192
 5294POPC   C1B68455  37.083  26.177   6.309
 5294POPC   C2B68456  36.880  26.200   6.707
 5294POPC   C3B68457  37.153  26.306   7.029
 5294POPC   C4B68458  37.434  25.984   7.049
 5295POPC   NC368459   1.798  37.973   5.618
 5295POPC   PO468460   2.490  37.883   5.471
 5295POPC   GL168461   2.213  37.827   5.846
 5295POPC   GL268462   2.012  37.505   5.764
 5295POPC   C1A68463   2.014  38.008   6.241
 5295POPC   D2A68464   2.227  38.176   6.611
 5295POPC   C3A68465   2.074  37.961   6.942
 5295POPC   C4A68466   1.885  37.853   7.321
 5295POPC   C1B68467   1.974  37.495   6.219
 5295POPC   C2B68468   2.126  37.505   6.648
 5295POPC   C3B68469   1.917  37.436   7.037
 5295POPC   C4B68470   1.753  37.342   7.432
 5296POPC   NC368471   7.820  41.640   5.426
 5296POPC   PO468472   8.389  41.941   5.513
 5296POPC   GL168473   8.200  41.691   5.840
 5296POPC   GL268474   8.025  41.356   5.802
 5296POPC   C1A68475   8.300  41.751   6.248
 5296POPC   D2A68476   8.151  41.883   6.634
 5296POPC   C3A68477   8.378  41.862   7.029
 5296POPC   C4A68478   8.202  41.810   7.447
 5296POPC   C1B68479   8.221  41.248   6.175
 5296POPC   C2B68480   8.228  41.353   6.594
 5296POPC   C3B68481   8.080  41.177   6.955
 5296POPC   C4B68482   8.125  41.313   7.341
 5297POPC   NC368483  35.727  27.415   5.398
 5297POPC   PO468484  36.245  27.642   5.138
 5297POPC   GL168485  36.178  27.677   5.651
 5297POPC   GL268486  35.927  27.453   5.851
 5297POPC   C1A68487  36.258  27.651   6.165
 5297POPC   D2A68488  36.322  27.351   6.528
 5297POPC   C3A68489  36.322  27.533   6.934
 5297POPC   C4A68490  36.182  27.877   7.146
 5297POPC   C1B68491  35.750  27.527   6.228
 5297POPC   C2B68492  35.882  27.574   6.622
 5297POPC   C3B68493  35.776  27.544   6.999
 5297POPC   C4B68494  35.953  27.292   7.294
 5298POPC   NC368495  29.240  28.836   5.426
 5298POPC   PO468496  29.097  28.225   5.398
 5298POPC   GL168497  29.012  28.492   5.743
 5298POPC   GL268498  28.815  28.264   5.926
 5298POPC   C1A68499  29.222  28.737   6.079
 5298POPC   D2A68500  29.150  28.791   6.515
 5298POPC   C3A68501  29.273  28.622   6.925
 5298POPC   C4A68502  28.962  28.548   7.238
 5298POPC   C1B68503  29.167  28.267   6.231
 5298POPC   C2B68504  29.386  28.191   6.601
 5298POPC   C3B68505  29.202  28.057   6.980
 5298POPC   C4B68506  29.438  28.023   7.335
 5299POPC   NC368507   4.458  30.649   5.107
 5299POPC   PO468508   4.122  30.239   5.493
 5299POPC   GL168509   4.173  30.512   5.812
 5299POPC   GL268510   4.413  30.802   5.751
 5299POPC   C1A68511   4.317  30.545   6.204
 5299POPC   D2A68512   4.579  30.659   6.532
 5299POPC   C3A68513   4.219  30.655   6.821
 5299POPC   C4A68514   4.159  30.434   7.208
 5299POPC   C1B68515   4.455  31.040   6.183
 5299POPC   C2B68516   4.427  31.135   6.675
 5299POPC   C3B68517   4.439  30.977   7.136
 5299POPC   C4B68518   4.526  31.112   7.577
 5300POPC   NC368519  30.929  10.939   4.921
 5300POPC   PO468520  30.815  10.809   5.481
 5300POPC   GL168521  30.757  10.763   5.869
 5300POPC   GL268522  30.723  10.416   5.937
 5300POPC   C1A68523  30.787  10.774   6.285
 5300POPC   D2A68524  30.790  10.889   6.670
 5300POPC   C3A68525  30.525  10.739   6.974
 5300POPC   C4A68526  30.762  10.542   7.248
 5300POPC   C1B68527  30.858  10.280   6.363
 5300POPC   C2B68528  30.737  10.274   6.810
 5300POPC   C3B68529  30.382  10.249   7.141
 5300POPC   C4B68530  30.485  10.182   7.589
 5301POPC   NC368531  38.858  43.412   5.316
 5301POPC   PO468532  39.539  43.290   5.381
 5301POPC   GL168533  39.332  43.264   5.818
 5301POPC   GL268534  38.963  43.202   5.772
 5301POPC   C1A68535  39.379  43.309   6.306
 5301POPC   D2A68536  39.364  43.468   6.765
 5301POPC   C3A68537  39.225  43.126   7.066
 5301POPC   C4A68538  39.090  42.695   7.039
 5301POPC   C1B68539  38.941  43.504   6.102
 5301POPC   C2B68540  38.891  43.402   6.556
 5301POPC   C3B68541  38.904  43.506   7.016
 5301POPC   C4B68542  38.939  43.482   7.509
 5302POPC   NC368543   5.041  13.823   5.331
 5302POPC   PO468544   4.966  13.187   5.316
 5302POPC   GL168545   4.871  13.467   5.667
 5302POPC   GL268546   5.206  13.561   5.723
 5302POPC   C1A68547   4.877  13.721   6.075
 5302POPC   D2A68548   4.648  13.922   6.440
 5302POPC   C3A68549   4.888  13.878   6.825
 5302POPC   C4A68550   4.829  13.746   7.239
 5302POPC   C1B68551   5.286  13.370   6.124
 5302POPC   C2B68552   5.393  13.158   6.494
 5302POPC   C3B68553   5.542  13.288   6.863
 5302POPC   C4B68554   5.373  13.567   7.140
 5303POPC   NC368555  32.108  12.477   5.431
 5303POPC   PO468556  32.472  11.843   5.432
 5303POPC   GL168557  32.411  12.075   5.800
 5303POPC   GL268558  32.448  12.440   5.818
 5303POPC   C1A68559  32.486  12.039   6.242
 5303POPC   D2A68560  32.585  11.802   6.625
 5303POPC   C3A68561  32.376  11.933   7.008
 5303POPC   C4A68562  31.965  11.979   7.201
 5303POPC   C1B68563  32.184  12.552   6.172
 5303POPC   C2B68564  31.913  12.445   6.530
 5303POPC   C3B68565  32.048  12.449   6.944
 5303POPC   C4B68566  32.313  12.375   7.259
 5304POPC   NC368567  28.786  12.512   5.329
 5304POPC   PO468568  29.320  12.299   5.309
 5304POPC   GL168569  29.324  12.194   5.771
 5304POPC   GL268570  29.022  12.391   5.775
 5304POPC   C1A68571  29.335  12.127   6.261
 5304POPC   D2A68572  29.159  12.118   6.713
 5304POPC   C3A68573  29.402  12.068   7.107
 5304POPC   C4A68574  29.435  11.719   7.422
 5304POPC   C1B68575  28.993  12.634   6.136
 5304POPC   C2B68576  29.015  12.591   6.587
 5304POPC   C3B68577  29.090  12.565   7.051
 5304POPC   C4B68578  29.264  12.572   7.500
 5305POPC   NC368579   0.687   5.546   5.415
 5305POPC   PO468580   0.310   5.008   5.217
 5305POPC   GL168581   0.405   4.983   5.672
 5305POPC   GL268582   0.421   5.317   5.831
 5305POPC   C1A68583   0.484   4.942   6.150
 5305POPC   D2A68584   0.831   5.006   6.462
 5305POPC   C3A68585   0.727   5.073   6.905
 5305POPC   C4A68586   0.490   4.860   7.226
 5305POPC   C1B68587   0.251   5.389   6.283
 5305POPC   C2B68588   0.337   5.355   6.740
 5305POPC   C3B68589   0.386   5.349   7.211
 5305POPC   C4B68590   0.377   5.500   7.646
 5306POPC   NC368591  14.708   8.809   5.139
 5306POPC   PO468592  14.161   9.062   5.336
 5306POPC   GL168593  14.471   9.090   5.689
 5306POPC   GL268594  14.843   9.136   5.620
 5306POPC   C1A68595  14.457   9.198   6.140
 5306POPC   D2A68596  14.375   8.967   6.526
 5306POPC   C3A68597  14.257   9.161   6.931
 5306POPC   C4A68598  14.135   8.960   7.329
 5306POPC   C1B68599  14.830   8.859   6.002
 5306POPC   C2B68600  14.888   8.855   6.475
 5306POPC   C3B68601  14.705   8.892   6.918
 5306POPC   C4B68602  14.737   8.806   7.354
 5307POPC   NC368603   8.275   6.622   5.278
 5307POPC   PO468604   8.340   6.263   5.819
 5307POPC   GL168605   8.278   6.684   5.873
 5307POPC   GL268606   8.628   6.807   5.771
 5307POPC   C1A68607   8.133   6.651   6.319
 5307POPC   D2A68608   8.222   6.310   6.631
 5307POPC   C3A68609   8.080   6.406   7.037
 5307POPC   C4A68610   8.146   6.837   7.171
 5307POPC   C1B68611   8.634   6.709   6.253
 5307POPC   C2B68612   8.454   6.831   6.679
 5307POPC   C3B68613   8.614   7.033   7.048
 5307POPC   C4B68614   8.577   6.772   7.429
 5308POPC   NC368615   6.064  40.084   5.486
 5308POPC   PO468616   5.581  39.596   5.330
 5308POPC   GL168617   5.779  39.718   5.732
 5308POPC   GL268618   6.134  39.652   5.819
 5308POPC   C1A68619   5.738  39.979   6.130
 5308POPC   D2A68620   5.924  40.158   6.524
 5308POPC   C3A68621   5.785  40.040   6.959
 5308POPC   C4A68622   5.730  40.143   7.414
 5308POPC   C1B68623   6.143  39.704   6.292
 5308POPC   C2B68624   6.153  39.740   6.745
 5308POPC   C3B68625   6.157  39.778   7.216
 5308POPC   C4B68626   6.187  39.732   7.671
 5309POPC   NC368627  24.109   5.028   5.517
 5309POPC   PO468628  24.720   5.116   5.444
 5309POPC   GL168629  24.527   5.093   5.860
 5309POPC   GL268630  24.440   4.761   5.869
 5309POPC   C1A68631  24.718   5.071   6.287
 5309POPC   D2A68632  24.818   5.202   6.710
 5309POPC   C3A68633  24.499   5.363   7.006
 5309POPC   C4A68634  24.613   5.358   7.462
 5309POPC   C1B68635  24.301   4.783   6.297
 5309POPC   C2B68636  24.438   4.833   6.736
 5309POPC   C3B68637  24.238   4.639   7.077
 5309POPC   C4B68638  24.204   4.883   7.463
 5310POPC   NC368639  18.036  24.640   5.507
 5310POPC   PO468640  18.410  24.187   5.176
 5310POPC   GL168641  18.517  24.462   5.558
 5310POPC   GL268642  18.413  24.184   5.710
 5310POPC   C1A68643  18.485  24.646   6.025
 5310POPC   D2A68644  18.184  24.681   6.391
 5310POPC   C3A68645  18.290  24.740   6.829
 5310POPC   C4A68646  17.993  24.704   7.147
 5310POPC   C1B68647  18.388  24.101   6.117
 5310POPC   C2B68648  18.486  24.098   6.526
 5310POPC   C3B68649  18.266  24.219   6.886
 5310POPC   C4B68650  18.500  24.386   7.159
 5311POPC   NC368651   6.367  42.121   5.429
 5311POPC   PO468652   6.305  42.856   5.530
 5311POPC   GL168653   6.571  42.660   5.849
 5311POPC   GL268654   6.670  42.281   5.868
 5311POPC   C1A68655   6.476  42.522   6.262
 5311POPC   D2A68656   6.635  42.207   6.513
 5311POPC   C3A68657   6.456  42.222   6.858
 5311POPC   C4A68658   6.511  42.380   7.224
 5311POPC   C1B68659   6.994  42.431   6.246
 5311POPC   C2B68660   7.076  42.477   6.707
 5311POPC   C3B68661   6.935  42.219   7.010
 5311POPC   C4B68662   6.724  41.926   7.262
 5312POPC   NC368663   2.695  14.122   5.154
 5312POPC   PO468664   3.236  14.469   5.381
 5312POPC   GL168665   3.033  14.239   5.721
 5312POPC   GL268666   2.656  14.235   5.793
 5312POPC   C1A68667   3.057  14.123   6.164
 5312POPC   D2A68668   2.964  13.898   6.547
 5312POPC   C3A68669   3.006  14.153   6.914
 5312POPC   C4A68670   3.035  14.201   7.340
 5312POPC   C1B68671   2.572  14.393   6.242
 5312POPC   C2B68672   2.596  14.421   6.715
 5312POPC   C3B68673   2.574  14.358   7.171
 5312POPC   C4B68674   2.469  14.638   7.524
 5313POPC   NC368675  14.558  11.780   5.373
 5313POPC   PO468676  14.140  12.365   5.426
 5313POPC   GL168677  14.036  12.143   5.821
 5313POPC   GL268678  14.317  11.897   5.818
 5313POPC   C1A68679  14.072  12.175   6.288
 5313POPC   D2A68680  14.313  11.980   6.610
 5313POPC   C3A68681  14.297  12.114   7.033
 5313POPC   C4A68682  14.557  12.067   7.392
 5313POPC   C1B68683  14.538  12.143   6.111
 5313POPC   C2B68684  14.794  12.077   6.477
 5313POPC   C3B68685  14.791  12.232   6.933
 5313POPC   C4B68686  15.070  12.116   7.288
 5314POPC   NC368687  13.477  40.425   5.494
 5314POPC   PO468688  13.385  41.074   5.532
 5314POPC   GL168689  13.622  40.902   5.872
 5314POPC   GL268690  13.776  40.592   5.930
 5314POPC   C1A68691  13.500  40.953   6.280
 5314POPC   D2A68692  13.345  40.745   6.639
 5314POPC   C3A68693  13.579  40.712   7.014
 5314POPC   C4A68694  13.702  40.879   7.436
 5314POPC   C1B68695  13.783  40.530   6.386
 5314POPC   C2B68696  13.977  40.443   6.774
 5314POPC   C3B68697  13.945  40.434   7.203
 5314POPC   C4B68698  13.518  40.385   7.415
 5315POPC   NC368699  35.428  15.284   5.272
 5315POPC   PO468700  35.030  14.925   5.624
 5315POPC   GL168701  35.350  15.099   5.827
 5315POPC   GL268702  35.349  15.469   5.755
 5315POPC   C1A68703  35.358  15.018   6.277
 5315POPC   D2A68704  35.625  15.015   6.620
 5315POPC   C3A68705  35.439  15.077   7.024
 5315POPC   C4A68706  35.104  14.919   7.278
 5315POPC   C1B68707  35.245  15.537   6.194
 5315POPC   C2B68708  35.443  15.496   6.608
 5315POPC   C3B68709  35.569  15.553   7.046
 5315POPC   C4B68710  35.324  15.423   7.388
 5316POPC   NC368711  39.292  35.022   5.080
 5316POPC   PO468712  39.287  34.402   5.312
 5316POPC   GL168713  39.248  34.439   5.758
 5316POPC   GL268714  39.419  34.159   5.821
 5316POPC   C1A68715  39.201  34.750   6.103
 5316POPC   D2A68716  39.459  35.003   6.372
 5316POPC   C3A68717  39.423  34.962   6.830
 5316POPC   C4A68718  39.210  34.811   7.184
 5316POPC   C1B68719  39.580  34.440   6.158
 5316POPC   C2B68720  39.586  34.538   6.570
 5316POPC   C3B68721  39.484  34.432   6.989
 5316POPC   C4B68722  39.519  34.471   7.450
 5317POPC   NC368723  13.791  27.342   5.533
 5317POPC   PO468724  13.344  27.873   5.613
 5317POPC   GL168725  13.554  27.636   5.887
 5317POPC   GL268726  13.880  27.793   5.811
 5317POPC   C1A68727  13.759  27.475   6.247
 5317POPC   D2A68728  13.844  27.648   6.658
 5317POPC   C3A68729  13.655  27.434   6.992
 5317POPC   C4A68730  13.848  27.223   7.306
 5317POPC   C1B68731  13.779  27.981   6.216
 5317POPC   C2B68732  13.482  27.969   6.537
 5317POPC   C3B68733  13.355  27.881   6.939
 5317POPC   C4B68734  13.535  27.818   7.325
 5318POPC   NC368735  15.609  13.934   5.553
 5318POPC   PO468736  14.981  13.685   5.462
 5318POPC   GL168737  15.223  13.791   5.836
 5318POPC   GL268738  15.046  13.616   6.045
 5318POPC   C1A68739  15.446  13.896   6.210
 5318POPC   D2A68740  15.206  13.855   6.587
 5318POPC   C3A68741  15.399  13.837   6.995
 5318POPC   C4A68742  15.179  13.668   7.346
 5318POPC   C1B68743  14.803  13.386   6.316
 5318POPC   C2B68744  14.822  13.514   6.736
 5318POPC   C3B68745  14.925  13.309   7.104
 5318POPC   C4B68746  14.887  13.294   7.548
 5319POPC   NC368747  29.897  15.322   5.394
 5319POPC   PO468748  30.427  14.830   5.382
 5319POPC   GL168749  30.259  15.110   5.742
 5319POPC   GL268750  30.248  15.485   5.763
 5319POPC   C1A68751  29.901  15.188   6.058
 5319POPC   D2A68752  29.676  15.258   6.454
 5319POPC   C3A68753  29.833  15.050   6.809
 5319POPC   C4A68754  29.852  15.116   7.241
 5319POPC   C1B68755  30.371  15.362   6.200
 5319POPC   C2B68756  30.275  15.287   6.657
 5319POPC   C3B68757  30.351  15.277   7.108
 5319POPC   C4B68758  30.361  15.000   7.447
 5320POPC   NC368759  36.660  38.061   5.484
 5320POPC   PO468760  36.198  38.580   5.276
 5320POPC   GL168761  36.365  38.465   5.689
 5320POPC   GL268762  36.328  38.136   5.833
 5320POPC   C1A68763  36.214  38.500   6.140
 5320POPC   D2A68764  36.024  38.684   6.480
 5320POPC   C3A68765  36.098  38.603   6.917
 5320POPC   C4A68766  35.891  38.585   7.330
 5320POPC   C1B68767  36.223  37.954   6.194
 5320POPC   C2B68768  36.272  38.187   6.555
 5320POPC   C3B68769  36.215  38.082   6.936
 5320POPC   C4B68770  36.323  38.304   7.267
 5321POPC   NC368771  19.517  36.402   5.338
 5321POPC   PO468772  18.848  36.192   5.505
 5321POPC   GL168773  19.026  36.166   5.957
 5321POPC   GL268774  19.415  36.097   5.980
 5321POPC   C1A68775  19.108  36.184   6.393
 5321POPC   D2A68776  19.286  36.230   6.780
 5321POPC   C3A68777  19.080  36.232   7.170
 5321POPC   C4A68778  19.154  36.337   7.602
 5321POPC   C1B68779  19.410  35.748   6.281
 5321POPC   C2B68780  19.554  35.708   6.699
 5321POPC   C3B68781  19.435  35.859   7.085
 5321POPC   C4B68782  19.326  35.736   7.438
 5322POPC   NC368783  27.111  13.870   5.499
 5322POPC   PO468784  26.557  13.597   5.214
 5322POPC   GL168785  26.621  13.760   5.661
 5322POPC   GL268786  26.377  13.999   5.754
 5322POPC   C1A68787  26.737  13.711   6.125
 5322POPC   D2A68788  26.845  13.441   6.486
 5322POPC   C3A68789  26.695  13.495   6.900
 5322POPC   C4A68790  26.995  13.577   7.242
 5322POPC   C1B68791  26.276  13.964   6.216
 5322POPC   C2B68792  26.538  13.911   6.613
 5322POPC   C3B68793  26.816  14.002   7.001
 5322POPC   C4B68794  26.858  13.996   7.486
 5323POPC   NC368795  24.078  18.142   5.392
 5323POPC   PO468796  24.679  18.305   5.486
 5323POPC   GL168797  24.621  18.000   5.782
 5323POPC   GL268798  24.252  17.976   5.864
 5323POPC   C1A68799  24.601  17.980   6.220
 5323POPC   D2A68800  24.277  18.035   6.516
 5323POPC   C3A68801  24.364  18.106   6.941
 5323POPC   C4A68802  24.714  18.108   7.225
 5323POPC   C1B68803  24.078  18.329   6.158
 5323POPC   C2B68804  24.260  18.539   6.578
 5323POPC   C3B68805  24.346  18.620   7.050
 5323POPC   C4B68806  24.185  18.538   7.517
 5324POPC   NC368807  32.638  14.051   5.660
 5324POPC   PO468808  32.989  13.537   5.356
 5324POPC   GL168809  33.196  13.523   5.759
 5324POPC   GL268810  33.128  13.887   5.778
 5324POPC   C1A68811  33.139  13.447   6.207
 5324POPC   D2A68812  32.910  13.607   6.583
 5324POPC   C3A68813  33.013  13.438   7.013
 5324POPC   C4A68814  33.048  13.675   7.449
 5324POPC   C1B68815  32.969  13.972   6.208
 5324POPC   C2B68816  33.193  14.135   6.568
 5324POPC   C3B68817  33.048  14.045   6.995
 5324POPC   C4B68818  33.088  14.186   7.425
 5325POPC   NC368819   5.480  17.062   5.616
 5325POPC   PO468820   5.006  16.689   5.400
 5325POPC   GL168821   5.053  16.842   5.774
 5325POPC   GL268822   5.310  16.605   5.854
 5325POPC   C1A68823   5.157  16.963   6.211
 5325POPC   D2A68824   5.022  17.072   6.626
 5325POPC   C3A68825   5.237  17.077   7.011
 5325POPC   C4A68826   5.017  16.910   7.346
 5325POPC   C1B68827   5.003  16.462   6.119
 5325POPC   C2B68828   4.980  16.573   6.513
 5325POPC   C3B68829   4.956  16.624   6.925
 5325POPC   C4B68830   4.955  16.404   7.299
 5326POPC   NC368831  24.642  29.306   5.381
 5326POPC   PO468832  24.020  29.011   5.378
 5326POPC   GL168833  24.364  28.997   5.706
 5326POPC   GL268834  24.619  29.221   5.884
 5326POPC   C1A68835  24.306  28.957   6.176
 5326POPC   D2A68836  24.562  29.168   6.495
 5326POPC   C3A68837  24.375  29.237   6.891
 5326POPC   C4A68838  24.554  29.230   7.286
 5326POPC   C1B68839  24.822  28.902   6.128
 5326POPC   C2B68840  24.967  28.866   6.564
 5326POPC   C3B68841  24.764  28.844   6.991
 5326POPC   C4B68842  24.815  28.779   7.487
 5327POPC   NC368843  19.625   3.451   5.482
 5327POPC   PO468844  20.102   3.825   5.716
 5327POPC   GL168845  19.825   3.591   5.963
 5327POPC   GL268846  19.900   3.244   5.862
 5327POPC   C1A68847  19.584   3.791   6.316
 5327POPC   D2A68848  19.578   3.920   6.755
 5327POPC   C3A68849  19.928   3.774   7.048
 5327POPC   C4A68850  19.986   3.960   7.441
 5327POPC   C1B68851  19.735   3.117   6.251
 5327POPC   C2B68852  19.674   3.377   6.645
 5327POPC   C3B68853  19.751   3.262   7.078
 5327POPC   C4B68854  20.172   3.102   7.179
 5328POPC   NC368855  14.975  16.455   5.105
 5328POPC   PO468856  15.562  16.108   5.326
 5328POPC   GL168857  15.407  16.064   5.735
 5328POPC   GL268858  15.212  16.311   5.822
 5328POPC   C1A68859  15.258  15.876   6.135
 5328POPC   D2A68860  15.154  15.541   6.424
 5328POPC   C3A68861  14.939  15.750   6.765
 5328POPC   C4A68862  15.185  15.941   7.071
 5328POPC   C1B68863  15.562  16.295   6.158
 5328POPC   C2B68864  15.504  16.109   6.585
 5328POPC   C3B68865  15.457  16.351   6.974
 5328POPC   C4B68866  15.478  16.201   7.408
 5329POPC   NC368867  35.982  29.019   5.204
 5329POPC   PO468868  36.356  29.454   5.642
 5329POPC   GL168869  36.294  29.202   5.925
 5329POPC   GL268870  36.229  28.873   5.777
 5329POPC   C1A68871  36.260  29.361   6.325
 5329POPC   D2A68872  36.453  29.282   6.704
 5329POPC   C3A68873  36.210  29.424   7.057
 5329POPC   C4A68874  36.194  29.293   7.481
 5329POPC   C1B68875  36.049  28.860   6.211
 5329POPC   C2B68876  35.968  29.031   6.606
 5329POPC   C3B68877  36.170  28.905   6.948
 5329POPC   C4B68878  36.019  28.744   7.303
 5330POPC   NC368879   7.892  40.754   5.455
 5330POPC   PO468880   8.570  40.643   5.425
 5330POPC   GL168881   8.331  40.546   5.766
 5330POPC   GL268882   8.147  40.829   5.895
 5330POPC   C1A68883   8.389  40.490   6.207
 5330POPC   D2A68884   8.313  40.831   6.489
 5330POPC   C3A68885   8.280  40.713   6.905
 5330POPC   C4A68886   8.034  40.732   7.264
 5330POPC   C1B68887   8.607  40.932   6.042
 5330POPC   C2B68888   8.820  41.026   6.457
 5330POPC   C3B68889   8.626  41.095   6.860
 5330POPC   C4B68890   8.508  40.977   7.278
 5331POPC   NC368891  34.835  14.765   5.229
 5331POPC   PO468892  34.411  14.282   5.410
 5331POPC   GL168893  34.329  14.531   5.749
 5331POPC   GL268894  34.602  14.694   5.706
 5331POPC   C1A68895  34.327  14.316   6.150
 5331POPC   D2A68896  34.159  14.320   6.563
 5331POPC   C3A68897  34.464  14.322   6.886
 5331POPC   C4A68898  34.455  14.597   7.200
 5331POPC   C1B68899  34.759  14.567   6.117
 5331POPC   C2B68900  34.563  14.685   6.529
 5331POPC   C3B68901  34.775  14.820   6.885
 5331POPC   C4B68902  34.928  14.472   7.118
 5332POPC   NC368903  34.800  25.390   5.663
 5332POPC   PO468904  35.187  24.924   5.652
 5332POPC   GL168905  35.546  25.147   5.806
 5332POPC   GL268906  35.655  25.505   5.755
 5332POPC   C1A68907  35.621  25.260   6.217
 5332POPC   D2A68908  35.587  25.013   6.583
 5332POPC   C3A68909  35.357  25.042   6.975
 5332POPC   C4A68910  35.411  25.359   7.248
 5332POPC   C1B68911  35.330  25.681   6.038
 5332POPC   C2B68912  35.141  25.862   6.424
 5332POPC   C3B68913  35.304  25.774   6.858
 5332POPC   C4B68914  35.346  25.853   7.294
 5333POPC   NC368915   4.738  15.413   5.335
 5333POPC   PO468916   4.219  14.919   5.058
 5333POPC   GL168917   4.288  15.266   5.466
 5333POPC   GL268918   4.593  15.104   5.717
 5333POPC   C1A68919   4.289  15.443   5.949
 5333POPC   D2A68920   4.340  15.374   6.431
 5333POPC   C3A68921   4.223  15.689   6.758
 5333POPC   C4A68922   4.125  15.548   7.189
 5333POPC   C1B68923   4.753  15.190   6.183
 5333POPC   C2B68924   4.696  15.097   6.674
 5333POPC   C3B68925   4.593  15.228   7.121
 5333POPC   C4B68926   4.718  15.152   7.561
 5334POPC   NC368927  19.997  30.351   5.602
 5334POPC   PO468928  19.814  30.929   5.441
 5334POPC   GL168929  19.929  30.950   5.846
 5334POPC   GL268930  19.683  31.217   5.935
 5334POPC   C1A68931  20.115  30.743   6.201
 5334POPC   D2A68932  19.933  30.605   6.591
 5334POPC   C3A68933  20.140  30.739   6.956
 5334POPC   C4A68934  20.034  30.560   7.323
 5334POPC   C1B68935  19.668  31.006   6.313
 5334POPC   C2B68936  19.632  30.998   6.752
 5334POPC   C3B68937  19.596  30.744   7.080
 5334POPC   C4B68938  19.746  30.959   7.392
 5335POPC   NC368939   5.887  33.581   5.395
 5335POPC   PO468940   5.814  34.258   5.296
 5335POPC   GL168941   5.901  34.036   5.712
 5335POPC   GL268942   5.655  33.776   5.795
 5335POPC   C1A68943   5.946  33.892   6.180
 5335POPC   D2A68944   5.787  33.819   6.606
 5335POPC   C3A68945   6.008  33.816   7.047
 5335POPC   C4A68946   5.661  33.824   7.368
 5335POPC   C1B68947   5.615  33.487   6.160
 5335POPC   C2B68948   5.439  33.419   6.588
 5335POPC   C3B68949   5.635  33.489   6.980
 5335POPC   C4B68950   5.956  33.256   7.185
 5336POPC   NC368951  15.966  26.409   5.405
 5336POPC   PO468952  15.868  27.122   5.355
 5336POPC   GL168953  15.877  26.875   5.725
 5336POPC   GL268954  15.606  26.618   5.743
 5336POPC   C1A68955  15.962  27.011   6.160
 5336POPC   D2A68956  15.771  26.949   6.563
 5336POPC   C3A68957  16.024  26.690   6.842
 5336POPC   C4A68958  16.092  26.747   7.287
 5336POPC   C1B68959  15.712  26.563   6.200
 5336POPC   C2B68960  15.554  26.482   6.647
 5336POPC   C3B68961  15.684  26.386   7.095
 5336POPC   C4B68962  15.656  26.623   7.496
 5337POPC   NC368963  31.469  18.685   5.659
 5337POPC   PO468964  31.692  19.143   5.226
 5337POPC   GL168965  31.267  19.143   5.659
 5337POPC   GL268966  31.294  19.447   5.821
 5337POPC   C1A68967  31.297  19.112   6.193
 5337POPC   D2A68968  31.584  19.296   6.540
 5337POPC   C3A68969  31.564  19.044   6.923
 5337POPC   C4A68970  31.289  18.666   6.952
 5337POPC   C1B68971  31.218  19.615   6.234
 5337POPC   C2B68972  31.085  19.537   6.641
 5337POPC   C3B68973  31.271  19.464   7.010
 5337POPC   C4B68974  31.465  19.309   7.399
 5338POPC   NC368975  21.101  28.346   5.263
 5338POPC   PO468976  21.732  28.198   5.578
 5338POPC   GL168977  21.328  28.272   5.736
 5338POPC   GL268978  21.185  27.976   5.647
 5338POPC   C1A68979  21.293  28.452   6.142
 5338POPC   D2A68980  21.592  28.314   6.468
 5338POPC   C3A68981  21.679  28.566   6.818
 5338POPC   C4A68982  21.450  28.518   7.199
 5338POPC   C1B68983  21.118  27.957   6.102
 5338POPC   C2B68984  21.063  28.172   6.513
 5338POPC   C3B68985  21.310  28.132   6.886
 5338POPC   C4B68986  21.330  28.033   7.334
 5339POPC   NC368987  31.988  42.558   5.384
 5339POPC   PO468988  32.428  42.059   5.515
 5339POPC   GL168989  32.289  42.294   5.832
 5339POPC   GL268990  31.954  42.136   5.789
 5339POPC   C1A68991  32.461  42.330   6.265
 5339POPC   D2A68992  32.329  42.515   6.672
 5339POPC   C3A68993  32.343  42.347   7.076
 5339POPC   C4A68994  32.299  42.088   7.438
 5339POPC   C1B68995  31.926  42.273   6.193
 5339POPC   C2B68996  31.845  42.552   6.499
 5339POPC   C3B68997  31.874  42.551   6.917
 5339POPC   C4B68998  31.995  42.782   7.254
 5340POPC   NC368999  15.724  16.555   5.227
 5340POPC   PO469000  16.013  17.114   5.450
 5340POPC   GL169001  16.125  16.980   5.846
 5340POPC   GL269002  16.167  16.631   5.803
 5340POPC   C1A69003  16.270  16.886   6.274
 5340POPC   D2A69004  16.284  16.740   6.703
 5340POPC   C3A69005  16.064  16.973   7.046
 5340POPC   C4A69006  15.736  17.194   7.263
 5340POPC   C1B69007  16.091  16.417   6.171
 5340POPC   C2B69008  15.865  16.459   6.564
 5340POPC   C3B69009  15.949  16.468   6.987
 5340POPC   C4B69010  16.231  16.297   7.263
 5341POPC   NC369011  14.687  27.005   5.440
 5341POPC   PO469012  14.540  26.361   5.334
 5341POPC   GL169013  14.649  26.561   5.708
 5341POPC   GL269014  14.351  26.804   5.810
 5341POPC   C1A69015  14.768  26.714   6.098
 5341POPC   D2A69016  14.430  26.834   6.369
 5341POPC   C3A69017  14.397  26.745   6.790
 5341POPC   C4A69018  14.708  26.761   7.125
 5341POPC   C1B69019  14.046  27.046   6.120
 5341POPC   C2B69020  14.156  27.264   6.527
 5341POPC   C3B69021  14.277  27.219   6.963
 5341POPC   C4B69022  14.245  26.914   7.274
 5342POPC   NC369023  38.838  10.754   5.421
 5342POPC   PO469024  38.563  10.229   5.409
 5342POPC   GL169025  38.473  10.466   5.829
 5342POPC   GL269026  38.154  10.631   5.887
 5342POPC   C1A69027  38.513  10.530   6.272
 5342POPC   D2A69028  38.626  10.401   6.674
 5342POPC   C3A69029  38.467  10.585   7.040
 5342POPC   C4A69030  38.412  10.357   7.445
 5342POPC   C1B69031  38.084  10.781   6.250
 5342POPC   C2B69032  38.305  10.859   6.623
 5342POPC   C3B69033  38.077  10.928   6.944
 5342POPC   C4B69034  38.041  10.683   7.311
 5343POPC   NC369035  40.248  41.395   5.363
 5343POPC   PO469036  39.867  41.919   5.328
 5343POPC   GL169037  40.006  41.768   5.723
 5343POPC   GL269038  39.830  41.447   5.726
 5343POPC   C1A69039  39.851  41.734   6.164
 5343POPC   D2A69040  39.678  42.002   6.473
 5343POPC   C3A69041  39.707  41.851   6.891
 5343POPC   C4A69042  39.959  41.669   7.216
 5343POPC   C1B69043  40.153  41.340   6.038
 5343POPC   C2B69044  40.142  41.224   6.483
 5343POPC   C3B69045  40.100  41.281   6.904
 5343POPC   C4B69046  40.291  41.241   7.297
 5344POPC   NC369047  33.548  28.057   5.585
 5344POPC   PO469048  33.876  28.590   5.340
 5344POPC   GL169049  33.928  28.411   5.791
 5344POPC   GL269050  33.953  28.034   5.884
 5344POPC   C1A69051  33.975  28.382   6.266
 5344POPC   D2A69052  33.820  28.638   6.603
 5344POPC   C3A69053  33.809  28.464   7.012
 5344POPC   C4A69054  34.219  28.507   7.189
 5344POPC   C1B69055  33.583  28.047   6.211
 5344POPC   C2B69056  33.560  28.192   6.611
 5344POPC   C3B69057  33.315  28.197   6.989
 5344POPC   C4B69058  33.610  27.991   7.187
 5345POPC   NC369059  23.376  18.774   5.199
 5345POPC   PO469060  23.697  19.296   4.947
 5345POPC   GL169061  23.673  19.119   5.477
 5345POPC   GL269062  23.410  18.892   5.692
 5345POPC   C1A69063  23.827  18.938   5.949
 5345POPC   D2A69064  23.816  18.989   6.430
 5345POPC   C3A69065  23.847  18.729   6.801
 5345POPC   C4A69066  23.932  18.861   7.225
 5345POPC   C1B69067  23.345  18.975   6.151
 5345POPC   C2B69068  23.381  19.237   6.541
 5345POPC   C3B69069  23.584  19.143   6.932
 5345POPC   C4B69070  23.432  18.859   7.190
 5346POPC   NC369071  23.311   1.954   5.315
 5346POPC   PO469072  23.932   1.612   5.404
 5346POPC   GL169073  23.769   1.920   5.754
 5346POPC   GL269074  23.404   2.064   5.818
 5346POPC   C1A69075  23.863   2.148   6.134
 5346POPC   D2A69076  23.738   2.129   6.555
 5346POPC   C3A69077  24.021   2.119   6.849
 5346POPC   C4A69078  23.918   1.990   7.240
 5346POPC   C1B69079  23.387   1.940   6.228
 5346POPC   C2B69080  23.241   2.116   6.615
 5346POPC   C3B69081  23.405   2.100   7.016
 5346POPC   C4B69082  23.207   2.470   7.238
 5347POPC   NC369083  31.053  26.263   5.554
 5347POPC   PO469084  30.439  26.007   5.398
 5347POPC   GL169085  30.545  26.117   5.785
 5347POPC   GL269086  30.825  25.966   5.870
 5347POPC   C1A69087  30.401  25.946   6.187
 5347POPC   D2A69088  30.599  25.885   6.585
 5347POPC   C3A69089  30.412  25.937   6.986
 5347POPC   C4A69090  30.281  25.853   7.429
 5347POPC   C1B69091  30.991  26.054   6.263
 5347POPC   C2B69092  31.093  25.875   6.629
 5347POPC   C3B69093  31.056  26.071   6.999
 5347POPC   C4B69094  30.789  25.986   7.303
 5348POPC   NC369095  16.310   7.171   5.405
 5348POPC   PO469096  15.678   7.274   5.368
 5348POPC   GL169097  15.665   7.457   5.779
 5348POPC   GL269098  16.025   7.397   5.768
 5348POPC   C1A69099  15.773   7.552   6.226
 5348POPC   D2A69100  15.663   7.540   6.682
 5348POPC   C3A69101  15.959   7.662   6.981
 5348POPC   C4A69102  16.128   7.455   7.350
 5348POPC   C1B69103  16.084   7.143   6.121
 5348POPC   C2B69104  16.041   7.206   6.568
 5348POPC   C3B69105  15.916   7.156   6.981
 5348POPC   C4B69106  16.121   6.942   7.314
 5349POPC   NC369107   6.238   6.491   5.345
 5349POPC   PO469108   5.695   6.889   5.465
 5349POPC   GL169109   5.824   6.692   5.836
 5349POPC   GL269110   5.893   6.356   5.754
 5349POPC   C1A69111   6.037   6.572   6.233
 5349POPC   D2A69112   6.194   6.841   6.601
 5349POPC   C3A69113   6.071   6.785   7.032
 5349POPC   C4A69114   6.234   6.574   7.407
 5349POPC   C1B69115   5.583   6.340   6.111
 5349POPC   C2B69116   5.580   6.652   6.448
 5349POPC   C3B69117   5.564   6.616   6.898
 5349POPC   C4B69118   5.518   6.230   7.106
 5350POPC   NC369119  26.870  39.130   5.362
 5350POPC   PO469120  26.759  39.689   5.141
 5350POPC   GL169121  26.849  39.567   5.628
 5350POPC   GL269122  26.557  39.326   5.765
 5350POPC   C1A69123  26.996  39.326   6.029
 5350POPC   D2A69124  26.878  39.158   6.459
 5350POPC   C3A69125  27.012  39.281   6.891
 5350POPC   C4A69126  26.932  39.133   7.325
 5350POPC   C1B69127  26.545  39.499   6.223
 5350POPC   C2B69128  26.575  39.505   6.700
 5350POPC   C3B69129  26.498  39.248   7.082
 5350POPC   C4B69130  26.471  39.346   7.546
 5351POPC   NC369131  44.072  23.633   5.335
 5351POPC   PO469132  43.456  23.885   5.470
 5351POPC   GL169133  43.661  23.610   5.747
 5351POPC   GL269134  43.943  23.849   5.780
 5351POPC   C1A69135  43.825  23.553   6.182
 5351POPC   D2A69136  43.920  23.796   6.539
 5351POPC   C3A69137  44.199  23.624   6.848
 5351POPC   C4A69138  44.053  23.438   7.234
 5351POPC   C1B69139  43.812  24.109   6.120
 5351POPC   C2B69140  43.560  24.226   6.473
 5351POPC   C3B69141  43.593  24.005   6.857
 5351POPC   C4B69142  43.920  23.922   7.166
 5352POPC   NC369143  17.737  10.591   5.312
 5352POPC   PO469144  17.290  10.877   5.069
 5352POPC   GL169145  17.312  10.710   5.556
 5352POPC   GL269146  17.423  10.314   5.619
 5352POPC   C1A69147  17.562  10.648   5.986
 5352POPC   D2A69148  17.657  10.457   6.424
 5352POPC   C3A69149  17.492  10.567   6.887
 5352POPC   C4A69150  17.667  10.731   7.303
 5352POPC   C1B69151  17.372  10.150   6.063
 5352POPC   C2B69152  17.294  10.107   6.524
 5352POPC   C3B69153  17.486  10.057   6.951
 5352POPC   C4B69154  17.419  10.195   7.395
 5353POPC   NC369155  36.953  11.698   5.280
 5353POPC   PO469156  36.994  11.047   5.193
 5353POPC   GL169157  36.925  11.144   5.642
 5353POPC   GL269158  36.593  11.264   5.712
 5353POPC   C1A69159  36.957  11.202   6.110
 5353POPC   D2A69160  36.924  11.438   6.510
 5353POPC   C3A69161  37.165  11.351   6.846
 5353POPC   C4A69162  37.165  11.413   7.249
 5353POPC   C1B69163  36.501  11.435   6.128
 5353POPC   C2B69164  36.457  11.243   6.524
 5353POPC   C3B69165  36.655  11.217   6.907
 5353POPC   C4B69166  36.652  11.293   7.338
 5354POPC   NC369167  43.772   0.839   5.478
 5354POPC   PO469168  43.884   1.580   5.380
 5354POPC   GL169169  43.755   1.417   5.789
 5354POPC   GL269170  44.046   1.329   6.014
 5354POPC   C1A69171  43.549   1.323   6.200
 5354POPC   D2A69172  43.684   1.093   6.579
 5354POPC   C3A69173  43.731   1.286   6.995
 5354POPC   C4A69174  43.687   1.060   7.405
 5354POPC   C1B69175  44.018   0.920   6.203
 5354POPC   C2B69176  44.084   0.720   6.610
 5354POPC   C3B69177  44.024   0.876   7.018
 5354POPC   C4B69178  44.172   1.219   7.265
 5355POPC   NC369179  11.268   5.481   5.425
 5355POPC   PO469180  10.954   6.071   5.228
 5355POPC   GL169181  11.281   5.913   5.673
 5355POPC   GL269182  11.607   6.092   5.742
 5355POPC   C1A69183  11.244   5.779   6.138
 5355POPC   D2A69184  11.481   5.830   6.532
 5355POPC   C3A69185  11.218   5.704   6.903
 5355POPC   C4A69186  11.058   5.663   7.326
 5355POPC   C1B69187  11.411   6.269   6.091
 5355POPC   C2B69188  11.404   6.356   6.534
 5355POPC   C3B69189  11.415   6.166   6.927
 5355POPC   C4B69190  11.155   6.174   7.289
 5356POPC   NC369191  22.388  14.905   5.594
 5356POPC   PO469192  22.672  15.547   5.588
 5356POPC   GL169193  22.310  15.385   5.842
 5356POPC   GL269194  21.921  15.401   5.747
 5356POPC   C1A69195  22.236  15.154   6.232
 5356POPC   D2A69196  22.152  14.857   6.555
 5356POPC   C3A69197  22.378  15.039   6.881
 5356POPC   C4A69198  22.651  14.928   7.198
 5356POPC   C1B69199  21.763  15.273   6.158
 5356POPC   C2B69200  21.878  15.282   6.584
 5356POPC   C3B69201  21.998  15.383   6.989
 5356POPC   C4B69202  21.841  15.223   7.355
 5357POPC   NC369203  22.754  17.105   5.428
 5357POPC   PO469204  23.309  16.736   5.279
 5357POPC   GL169205  23.033  16.725   5.662
 5357POPC   GL269206  22.733  16.515   5.632
 5357POPC   C1A69207  22.854  16.835   6.080
 5357POPC   D2A69208  23.063  17.002   6.464
 5357POPC   C3A69209  23.116  16.871   6.897
 5357POPC   C4A69210  23.006  16.756   7.337
 5357POPC   C1B69211  22.666  16.352   6.069
 5357POPC   C2B69212  22.766  16.561   6.499
 5357POPC   C3B69213  22.676  16.612   6.926
 5357POPC   C4B69214  22.677  16.332   7.276
 5358POPC   NC369215  25.416  27.088   5.309
 5358POPC   PO469216  24.918  26.608   5.370
 5358POPC   GL169217  25.184  26.692   5.780
 5358POPC   GL269218  25.257  27.031   5.784
 5358POPC   C1A69219  25.338  26.672   6.224
 5358POPC   D2A69220  25.124  26.652   6.647
 5358POPC   C3A69221  25.293  26.802   7.047
 5358POPC   C4A69222  25.155  26.798   7.486
 5358POPC   C1B69223  25.386  27.177   6.170
 5358POPC   C2B69224  25.376  27.095   6.601
 5358POPC   C3B69225  25.545  27.243   6.993
 5358POPC   C4B69226  25.339  27.273   7.383
 5359POPC   NC369227  17.638  41.604   5.218
 5359POPC   PO469228  16.971  41.448   5.267
 5359POPC   GL169229  17.331  41.422   5.632
 5359POPC   GL269230  17.670  41.585   5.716
 5359POPC   C1A69231  17.350  41.550   6.115
 5359POPC   D2A69232  17.409  41.431   6.605
 5359POPC   C3A69233  17.153  41.574   6.956
 5359POPC   C4A69234  17.081  41.503   7.377
 5359POPC   C1B69235  17.905  41.484   6.066
 5359POPC   C2B69236  17.921  41.408   6.492
 5359POPC   C3B69237  17.908  41.563   6.893
 5359POPC   C4B69238  17.596  41.473   7.227
 5360POPC   NC369239  13.233   8.265   5.233
 5360POPC   PO469240  13.932   8.086   5.375
 5360POPC   GL169241  13.612   8.193   5.693
 5360POPC   GL269242  13.820   8.450   5.788
 5360POPC   C1A69243  13.410   8.063   6.121
 5360POPC   D2A69244  13.641   7.858   6.496
 5360POPC   C3A69245  13.654   7.856   6.972
 5360POPC   C4A69246  13.717   7.991   7.430
 5360POPC   C1B69247  13.701   8.489   6.208
 5360POPC   C2B69248  13.475   8.366   6.575
 5360POPC   C3B69249  13.332   8.259   6.983
 5360POPC   C4B69250  13.352   8.343   7.430
 5361POPC   NC369251   7.412  28.473   5.471
 5361POPC   PO469252   7.411  29.085   5.180
 5361POPC   GL169253   7.467  29.078   5.669
 5361POPC   GL269254   7.175  29.129   5.937
 5361POPC   C1A69255   7.650  29.125   6.094
 5361POPC   D2A69256   7.522  28.982   6.521
 5361POPC   C3A69257   7.528  29.282   6.839
 5361POPC   C4A69258   7.747  29.347   7.222
 5361POPC   C1B69259   7.152  29.320   6.383
 5361POPC   C2B69260   7.036  29.411   6.816
 5361POPC   C3B69261   7.192  29.407   7.208
 5361POPC   C4B69262   7.335  29.178   7.509
 5362POPC   NC369263  29.932  38.689   4.989
 5362POPC   PO469264  29.889  39.285   5.293
 5362POPC   GL169265  29.784  39.254   5.710
 5362POPC   GL269266  29.751  38.923   5.786
 5362POPC   C1A69267  29.909  39.313   6.140
 5362POPC   D2A69268  29.823  39.531   6.517
 5362POPC   C3A69269  30.085  39.428   6.860
 5362POPC   C4A69270  29.987  39.342   7.259
 5362POPC   C1B69271  29.732  38.830   6.221
 5362POPC   C2B69272  29.869  39.024   6.601
 5362POPC   C3B69273  29.793  38.888   7.020
 5362POPC   C4B69274  29.900  38.876   7.431
 5363POPC   NC369275  18.367  41.033   5.596
 5363POPC   PO469276  18.489  41.666   5.330
 5363POPC   GL169277  18.281  41.672   5.747
 5363POPC   GL269278  18.531  41.452   5.845
 5363POPC   C1A69279  18.335  41.680   6.254
 5363POPC   D2A69280  18.630  41.573   6.586
 5363POPC   C3A69281  18.485  41.498   7.000
 5363POPC   C4A69282  18.404  41.671   7.404
 5363POPC   C1B69283  18.513  41.204   6.221
 5363POPC   C2B69284  18.325  41.158   6.627
 5363POPC   C3B69285  18.065  41.074   6.955
 5363POPC   C4B69286  18.095  41.299   7.276
 5364POPC   NC369287  44.413  39.102   5.445
 5364POPC   PO469288  44.879  39.655   5.388
 5364POPC   GL169289  44.623  39.511   5.748
 5364POPC   GL269290  44.736  39.183   5.837
 5364POPC   C1A69291  44.587  39.481   6.204
 5364POPC   D2A69292  44.471  39.571   6.604
 5364POPC   C3A69293  44.530  39.324   6.962
 5364POPC   C4A69294  44.428  39.507   7.374
 5364POPC   C1B69295  44.627  38.974   6.266
 5364POPC   C2B69296  44.337  38.994   6.599
 5364POPC   C3B69297  44.415  38.807   7.021
 5364POPC   C4B69298  44.616  39.036   7.379
 5365POPC   NC369299   3.489  26.844   5.503
 5365POPC   PO469300   3.199  27.503   5.383
 5365POPC   GL169301   3.398  27.258   5.782
 5365POPC   GL269302   3.150  27.012   5.872
 5365POPC   C1A69303   3.655  27.102   6.211
 5365POPC   D2A69304   3.632  26.798   6.625
 5365POPC   C3A69305   3.701  26.853   7.108
 5365POPC   C4A69306   3.601  27.001   7.550
 5365POPC   C1B69307   3.228  26.819   6.282
 5365POPC   C2B69308   3.145  26.481   6.596
 5365POPC   C3B69309   3.372  26.446   6.979
 5365POPC   C4B69310   3.415  26.501   7.422
 5366POPC   NC369311  18.983   5.297   5.285
 5366POPC   PO469312  19.299   4.751   5.304
 5366POPC   GL169313  19.257   5.032   5.711
 5366POPC   GL269314  19.113   5.370   5.771
 5366POPC   C1A69315  19.306   5.138   6.175
 5366POPC   D2A69316  19.147   5.273   6.576
 5366POPC   C3A69317  18.875   5.015   6.797
 5366POPC   C4A69318  18.894   4.948   7.225
 5366POPC   C1B69319  18.861   5.408   6.165
 5366POPC   C2B69320  18.672   5.475   6.601
 5366POPC   C3B69321  18.815   5.472   7.067
 5366POPC   C4B69322  18.670   5.576   7.510
 5367POPC   NC369323  13.948  10.996   5.489
 5367POPC   PO469324  13.705  10.349   5.505
 5367POPC   GL169325  13.768  10.675   5.843
 5367POPC   GL269326  13.466  10.798   6.056
 5367POPC   C1A69327  13.943  10.664   6.239
 5367POPC   D2A69328  13.777  10.328   6.498
 5367POPC   C3A69329  13.891  10.452   6.876
 5367POPC   C4A69330  13.855  10.816   7.087
 5367POPC   C1B69331  13.307  10.427   6.253
 5367POPC   C2B69332  13.255  10.324   6.675
 5367POPC   C3B69333  13.388  10.539   7.011
 5367POPC   C4B69334  13.643  10.394   7.309
 5368POPC   NC369335   5.119  28.760   5.654
 5368POPC   PO469336   5.043  28.180   5.348
 5368POPC   GL169337   4.874  28.290   5.772
 5368POPC   GL269338   5.215  28.287   5.870
 5368POPC   C1A69339   4.651  28.483   6.176
 5368POPC   D2A69340   4.746  28.668   6.602
 5368POPC   C3A69341   4.863  28.342   6.901
 5368POPC   C4A69342   4.921  28.261   7.321
 5368POPC   C1B69343   5.121  28.298   6.312
 5368POPC   C2B69344   5.335  28.232   6.704
 5368POPC   C3B69345   5.376  28.380   7.128
 5368POPC   C4B69346   5.375  28.215   7.557
 5369POPC   NC369347  15.386  32.503   5.267
 5369POPC   PO469348  15.321  31.906   5.576
 5369POPC   GL169349  15.099  32.119   5.860
 5369POPC   GL269350  15.053  32.442   5.688
 5369POPC   C1A69351  15.198  32.106   6.294
 5369POPC   D2A69352  15.456  31.955   6.624
 5369POPC   C3A69353  15.288  32.109   6.997
 5369POPC   C4A69354  14.982  32.254   7.294
 5369POPC   C1B69355  14.965  32.552   6.158
 5369POPC   C2B69356  14.793  32.545   6.618
 5369POPC   C3B69357  14.978  32.687   7.025
 5369POPC   C4B69358  15.394  32.561   7.221
 5370POPC   NC369359  27.727  38.614   5.363
 5370POPC   PO469360  27.374  38.066   5.330
 5370POPC   GL169361  27.625  38.234   5.681
 5370POPC   GL269362  27.428  38.498   5.791
 5370POPC   C1A69363  27.769  38.275   6.121
 5370POPC   D2A69364  27.582  38.243   6.545
 5370POPC   C3A69365  27.645  38.414   6.968
 5370POPC   C4A69366  27.638  38.152   7.334
 5370POPC   C1B69367  27.376  38.630   6.232
 5370POPC   C2B69368  27.303  38.897   6.608
 5370POPC   C3B69369  27.307  38.869   7.063
 5370POPC   C4B69370  27.569  38.765   7.397
 5371POPC   NC369371  33.883  33.188   5.144
 5371POPC   PO469372  33.497  32.862   5.607
 5371POPC   GL169373  33.821  32.979   5.865
 5371POPC   GL269374  33.968  33.286   5.706
 5371POPC   C1A69375  33.708  32.922   6.307
 5371POPC   D2A69376  33.652  32.618   6.642
 5371POPC   C3A69377  33.632  32.872   7.004
 5371POPC   C4A69378  33.567  32.807   7.451
 5371POPC   C1B69379  33.849  33.403   6.145
 5371POPC   C2B69380  33.823  33.414   6.575
 5371POPC   C3B69381  34.038  33.158   6.874
 5371POPC   C4B69382  33.906  33.173   7.305
 5372POPC   NC369383  16.988  28.662   5.240
 5372POPC   PO469384  16.573  28.044   5.390
 5372POPC   GL169385  16.768  28.214   5.772
 5372POPC   GL269386  16.737  28.568   5.674
 5372POPC   C1A69387  17.014  28.186   6.169
 5372POPC   D2A69388  16.852  28.235   6.574
 5372POPC   C3A69389  16.834  28.057   6.977
 5372POPC   C4A69390  16.387  28.091   7.080
 5372POPC   C1B69391  16.879  28.686   6.074
 5372POPC   C2B69392  16.868  28.762   6.509
 5372POPC   C3B69393  16.657  28.592   6.884
 5372POPC   C4B69394  16.818  28.481   7.275
 5373POPC   NC369395  36.639   9.313   5.301
 5373POPC   PO469396  36.959   8.702   5.409
 5373POPC   GL169397  36.789   8.959   5.693
 5373POPC   GL269398  37.116   9.119   5.740
 5373POPC   C1A69399  36.650   8.784   6.073
 5373POPC   D2A69400  36.687   9.003   6.431
 5373POPC   C3A69401  36.772   8.803   6.784
 5373POPC   C4A69402  36.770   8.683   7.192
 5373POPC   C1B69403  37.145   8.935   6.161
 5373POPC   C2B69404  37.170   9.110   6.573
 5373POPC   C3B69405  37.136   9.088   7.003
 5373POPC   C4B69406  37.058   9.349   7.338
 5374POPC   NC369407  31.108  35.929   5.218
 5374POPC   PO469408  31.679  35.843   5.100
 5374POPC   GL169409  31.401  35.892   5.603
 5374POPC   GL269410  31.395  36.260   5.718
 5374POPC   C1A69411  31.257  35.866   6.051
 5374POPC   D2A69412  31.447  35.907   6.486
 5374POPC   C3A69413  31.234  35.916   6.895
 5374POPC   C4A69414  31.498  35.948   7.256
 5374POPC   C1B69415  31.405  36.379   6.162
 5374POPC   C2B69416  31.444  36.480   6.630
 5374POPC   C3B69417  31.332  36.402   7.082
 5374POPC   C4B69418  31.409  36.331   7.564
 5375POPC   NC369419  31.385  44.088   5.640
 5375POPC   PO469420  31.770  44.485   5.230
 5375POPC   GL169421  31.610  44.727   5.634
 5375POPC   GL269422  31.285  44.587   5.741
 5375POPC   C1A69423  31.591  44.761   6.151
 5375POPC   D2A69424  31.610  44.478   6.568
 5375POPC   C3A69425  31.653  44.655   7.024
 5375POPC   C4A69426  31.827  44.500   7.456
 5375POPC   C1B69427  31.200  44.408   6.169
 5375POPC   C2B69428  31.094  44.285   6.573
 5375POPC   C3B69429  31.292  44.286   6.972
 5375POPC   C4B69430  31.261  44.563   7.338
 5376POPC   NC369431  15.095   4.716   5.511
 5376POPC   PO469432  15.536   4.174   5.308
 5376POPC   GL169433  15.316   4.262   5.726
 5376POPC   GL269434  15.002   4.267   5.817
 5376POPC   C1A69435  15.370   4.270   6.199
 5376POPC   D2A69436  15.315   4.439   6.633
 5376POPC   C3A69437  15.428   4.168   6.977
 5376POPC   C4A69438  15.564   4.354   7.340
 5376POPC   C1B69439  14.895   4.422   6.242
 5376POPC   C2B69440  14.836   4.315   6.702
 5376POPC   C3B69441  14.985   4.382   7.144
 5376POPC   C4B69442  15.032   4.496   7.588
 5377POPC   NC369443  34.027  25.097   5.101
 5377POPC   PO469444  33.548  25.383   5.563
 5377POPC   GL169445  33.832  25.434   5.930
 5377POPC   GL269446  33.599  25.194   6.057
 5377POPC   C1A69447  33.891  25.418   6.404
 5377POPC   D2A69448  33.601  25.243   6.663
 5377POPC   C3A69449  33.628  25.400   7.064
 5377POPC   C4A69450  33.706  25.231   7.450
 5377POPC   C1B69451  33.867  24.916   6.272
 5377POPC   C2B69452  34.060  24.933   6.642
 5377POPC   C3B69453  34.084  25.234   6.898
 5377POPC   C4B69454  34.101  25.482   7.248
 5378POPC   NC369455  43.091   0.764   5.423
 5378POPC   PO469456  42.561   0.372   5.412
 5378POPC   GL169457  42.866   0.355   5.751
 5378POPC   GL269458  43.193   0.523   5.851
 5378POPC   C1A69459  42.791   0.419   6.186
 5378POPC   D2A69460  42.597   0.512   6.583
 5378POPC   C3A69461  42.857   0.539   6.964
 5378POPC   C4A69462  43.007   0.367   7.358
 5378POPC   C1B69463  43.203   0.698   6.273
 5378POPC   C2B69464  43.146   0.356   6.583
 5378POPC   C3B69465  43.340   0.262   6.999
 5378POPC   C4B69466  43.417   0.662   7.232
 5379POPC   NC369467  21.977  33.675   5.242
 5379POPC   PO469468  21.760  34.338   5.439
 5379POPC   GL169469  22.069  34.010   5.662
 5379POPC   GL269470  22.107  33.605   5.720
 5379POPC   C1A69471  22.222  33.936   6.093
 5379POPC   D2A69472  22.089  33.870   6.507
 5379POPC   C3A69473  22.229  34.102   6.859
 5379POPC   C4A69474  21.993  34.106   7.209
 5379POPC   C1B69475  22.301  33.423   6.103
 5379POPC   C2B69476  22.477  33.517   6.475
 5379POPC   C3B69477  22.271  33.502   6.824
 5379POPC   C4B69478  22.258  33.683   7.185
 5380POPC   NC369479  44.309  39.759   5.361
 5380POPC   PO469480  44.227  40.413   5.373
 5380POPC   GL169481  44.587  40.374   5.650
 5380POPC   GL269482  44.698  40.028   5.743
 5380POPC   C1A69483  44.640  40.409   6.109
 5380POPC   D2A69484  44.591  40.191   6.507
 5380POPC   C3A69485  44.832  40.300   6.878
 5380POPC   C4A69486  44.592  40.362   7.242
 5380POPC   C1B69487  44.898  39.892   6.150
 5380POPC   C2B69488  44.917  39.813   6.618
 5380POPC   C3B69489  44.650  39.828   7.027
 5380POPC   C4B69490  44.708  39.904   7.508
 5381POPC   NC369491   2.253  19.201   5.475
 5381POPC   PO469492   1.594  18.903   5.462
 5381POPC   GL169493   1.743  19.085   5.822
 5381POPC   GL269494   1.858  19.394   5.751
 5381POPC   C1A69495   1.945  18.979   6.208
 5381POPC   D2A69496   1.785  18.836   6.595
 5381POPC   C3A69497   1.914  19.057   6.961
 5381POPC   C4A69498   1.993  18.849   7.341
 5381POPC   C1B69499   2.147  19.449   6.120
 5381POPC   C2B69500   2.215  19.284   6.563
 5381POPC   C3B69501   2.291  19.454   6.982
 5381POPC   C4B69502   2.043  19.390   7.354
 5382POPC   NC369503  32.703  43.246   5.509
 5382POPC   PO469504  33.142  42.689   5.539
 5382POPC   GL169505  33.014  42.961   5.856
 5382POPC   GL269506  32.660  42.872   5.936
 5382POPC   C1A69507  32.980  43.033   6.309
 5382POPC   D2A69508  32.891  43.231   6.709
 5382POPC   C3A69509  32.906  43.019   7.092
 5382POPC   C4A69510  33.205  43.098   7.420
 5382POPC   C1B69511  32.575  43.296   6.149
 5382POPC   C2B69512  32.432  43.424   6.614
 5382POPC   C3B69513  32.569  43.471   7.063
 5382POPC   C4B69514  32.690  43.284   7.471
 5383POPC   NC369515  40.362   7.656   5.250
 5383POPC   PO469516  39.801   7.185   5.332
 5383POPC   GL169517  39.808   7.324   5.790
 5383POPC   GL269518  40.126   7.492   5.719
 5383POPC   C1A69519  39.677   7.222   6.256
 5383POPC   D2A69520  39.503   7.188   6.679
 5383POPC   C3A69521  39.724   7.338   7.008
 5383POPC   C4A69522  39.833   7.211   7.401
 5383POPC   C1B69523  40.171   7.381   6.174
 5383POPC   C2B69524  40.070   7.421   6.635
 5383POPC   C3B69525  40.170   7.563   7.088
 5383POPC   C4B69526  40.408   7.765   7.442
 5384POPC   NC369527  21.615  32.475   5.414
 5384POPC   PO469528  21.281  31.887   5.255
 5384POPC   GL169529  21.376  32.103   5.653
 5384POPC   GL269530  21.150  32.378   5.754
 5384POPC   C1A69531  21.465  32.171   6.114
 5384POPC   D2A69532  21.327  31.943   6.513
 5384POPC   C3A69533  21.628  32.026   6.850
 5384POPC   C4A69534  21.739  32.239   7.240
 5384POPC   C1B69535  21.147  32.563   6.198
 5384POPC   C2B69536  21.336  32.457   6.600
 5384POPC   C3B69537  21.253  32.356   7.053
 5384POPC   C4B69538  21.336  32.360   7.536
 5385POPC   NC369539  30.135  30.212   5.137
 5385POPC   PO469540  29.598  29.827   5.387
 5385POPC   GL169541  29.658  29.917   5.829
 5385POPC   GL269542  30.006  29.849   5.911
 5385POPC   C1A69543  29.750  30.137   6.244
 5385POPC   D2A69544  29.582  30.014   6.634
 5385POPC   C3A69545  29.678  30.175   7.042
 5385POPC   C4A69546  29.745  29.804   7.247
 5385POPC   C1B69547  30.179  29.760   6.268
 5385POPC   C2B69548  30.065  29.697   6.678
 5385POPC   C3B69549  30.213  29.794   7.043
 5385POPC   C4B69550  30.220  30.214   7.129
 5386POPC   NC369551  20.876  30.070   5.386
 5386POPC   PO469552  20.470  29.420   5.315
 5386POPC   GL169553  20.674  29.644   5.639
 5386POPC   GL269554  20.447  29.886   5.799
 5386POPC   C1A69555  20.731  29.568   6.087
 5386POPC   D2A69556  20.500  29.600   6.472
 5386POPC   C3A69557  20.636  29.545   6.882
 5386POPC   C4A69558  20.421  29.538   7.277
 5386POPC   C1B69559  20.540  30.053   6.223
 5386POPC   C2B69560  20.693  30.043   6.674
 5386POPC   C3B69561  20.614  29.996   7.138
 5386POPC   C4B69562  20.703  30.118   7.588
 5387POPC   NC369563  31.035  31.741   5.427
 5387POPC   PO469564  30.631  32.328   5.407
 5387POPC   GL169565  30.476  32.247   5.814
 5387POPC   GL269566  30.632  31.963   5.918
 5387POPC   C1A69567  30.488  32.379   6.244
 5387POPC   D2A69568  30.649  32.562   6.592
 5387POPC   C3A69569  30.520  32.375   6.921
 5387POPC   C4A69570  30.292  32.408   7.303
 5387POPC   C1B69571  30.216  31.958   6.179
 5387POPC   C2B69572  30.181  32.053   6.636
 5387POPC   C3B69573  30.314  31.946   7.071
 5387POPC   C4B69574  30.297  31.986   7.564
 5388POPC   NC369575  33.576  25.697   5.212
 5388POPC   PO469576  33.798  26.345   5.458
 5388POPC   GL169577  33.674  26.118   5.835
 5388POPC   GL269578  33.485  25.818   5.813
 5388POPC   C1A69579  33.786  26.119   6.267
 5388POPC   D2A69580  34.115  26.140   6.601
 5388POPC   C3A69581  34.037  26.035   7.015
 5388POPC   C4A69582  33.971  26.340   7.355
 5388POPC   C1B69583  33.489  25.678   6.247
 5388POPC   C2B69584  33.653  25.816   6.666
 5388POPC   C3B69585  33.547  26.132   6.985
 5388POPC   C4B69586  33.678  25.918   7.361
 5389POPC   NC369587  40.765  25.868   5.394
 5389POPC   PO469588  40.774  26.527   5.348
 5389POPC   GL169589  40.845  26.291   5.693
 5389POPC   GL269590  40.531  26.263   5.804
 5389POPC   C1A69591  41.009  26.216   6.086
 5389POPC   D2A69592  41.098  26.041   6.493
 5389POPC   C3A69593  40.852  26.212   6.820
 5389POPC   C4A69594  40.756  26.150   7.244
 5389POPC   C1B69595  40.535  26.076   6.219
 5389POPC   C2B69596  40.631  25.764   6.516
 5389POPC   C3B69597  40.609  25.746   6.945
 5389POPC   C4B69598  40.516  25.461   7.284
 5390POPC   NC369599  14.137  31.606   5.501
 5390POPC   PO469600  14.644  31.180   5.454
 5390POPC   GL169601  14.626  31.434   5.858
 5390POPC   GL269602  14.715  31.770   5.943
 5390POPC   C1A69603  14.650  31.433   6.339
 5390POPC   D2A69604  14.232  31.347   6.488
 5390POPC   C3A69605  14.176  31.236   6.897
 5390POPC   C4A69606  14.396  31.270   7.323
 5390POPC   C1B69607  14.314  31.757   6.161
 5390POPC   C2B69608  14.387  31.822   6.582
 5390POPC   C3B69609  14.558  31.567   6.892
 5390POPC   C4B69610  14.206  31.708   7.141
 5391POPC   NC369611  35.214  16.544   5.323
 5391POPC   PO469612  35.369  15.811   5.360
 5391POPC   GL169613  35.183  16.021   5.675
 5391POPC   GL269614  35.482  15.964   5.850
 5391POPC   C1A69615  35.073  16.070   6.117
 5391POPC   D2A69616  35.292  16.013   6.492
 5391POPC   C3A69617  35.075  16.166   6.824
 5391POPC   C4A69618  35.180  15.868   7.126
 5391POPC   C1B69619  35.612  16.271   6.169
 5391POPC   C2B69620  35.704  16.354   6.617
 5391POPC   C3B69621  35.536  16.218   7.024
 5391POPC   C4B69622  35.208  16.515   7.190
 5392POPC   NC369623  39.192  35.582   5.420
 5392POPC   PO469624  39.089  34.873   5.459
 5392POPC   GL169625  39.239  35.188   5.766
 5392POPC   GL269626  38.952  35.431   5.848
 5392POPC   C1A69627  39.414  35.477   6.117
 5392POPC   D2A69628  39.600  35.471   6.546
 5392POPC   C3A69629  39.398  35.581   6.949
 5392POPC   C4A69630  39.437  35.289   7.242
 5392POPC   C1B69631  38.986  35.224   6.220
 5392POPC   C2B69632  39.114  35.303   6.618
 5392POPC   C3B69633  38.937  35.288   7.022
 5392POPC   C4B69634  39.000  35.204   7.460
 5393POPC   NC369635  35.334  32.510   5.395
 5393POPC   PO469636  35.805  32.010   5.273
 5393POPC   GL169637  35.672  32.019   5.734
 5393POPC   GL269638  35.564  32.343   5.814
 5393POPC   C1A69639  35.773  32.014   6.214
 5393POPC   D2A69640  35.474  32.090   6.596
 5393POPC   C3A69641  35.379  31.974   7.010
 5393POPC   C4A69642  35.278  32.178   7.393
 5393POPC   C1B69643  35.411  32.405   6.204
 5393POPC   C2B69644  35.376  32.582   6.607
 5393POPC   C3B69645  35.150  32.427   6.956
 5393POPC   C4B69646  34.912  32.606   7.280
 5394POPC   NC369647   9.013  38.565   5.341
 5394POPC   PO469648   9.115  37.922   5.402
 5394POPC   GL169649   9.045  38.077   5.825
 5394POPC   GL269650   9.002  38.424   5.833
 5394POPC   C1A69651   9.170  38.145   6.254
 5394POPC   D2A69652   9.059  38.324   6.635
 5394POPC   C3A69653   9.027  38.196   7.066
 5394POPC   C4A69654   8.904  38.446   7.445
 5394POPC   C1B69655   9.035  38.677   6.197
 5394POPC   C2B69656   9.118  38.846   6.593
 5394POPC   C3B69657   9.121  38.690   7.017
 5394POPC   C4B69658   9.401  38.624   7.386
 5395POPC   NC369659  38.624  41.836   5.491
 5395POPC   PO469660  38.058  41.381   5.397
 5395POPC   GL169661  38.308  41.465   5.781
 5395POPC   GL269662  38.704  41.413   5.785
 5395POPC   C1A69663  38.303  41.607   6.225
 5395POPC   D2A69664  38.242  41.383   6.612
 5395POPC   C3A69665  38.208  41.551   7.020
 5395POPC   C4A69666  38.544  41.427   7.274
 5395POPC   C1B69667  38.848  41.685   6.136
 5395POPC   C2B69668  38.692  41.738   6.561
 5395POPC   C3B69669  38.563  41.911   6.946
 5395POPC   C4B69670  38.759  41.892   7.330
 5396POPC   NC369671   1.186  40.132   5.451
 5396POPC   PO469672   1.534  39.465   5.471
 5396POPC   GL169673   1.277  39.712   5.832
 5396POPC   GL269674   0.997  39.974   5.895
 5396POPC   C1A69675   1.198  39.783   6.310
 5396POPC   D2A69676   1.032  39.750   6.724
 5396POPC   C3A69677   1.389  39.759   6.981
 5396POPC   C4A69678   1.571  39.567   7.348
 5396POPC   C1B69679   1.296  40.249   6.115
 5396POPC   C2B69680   1.402  40.205   6.562
 5396POPC   C3B69681   1.171  40.225   6.944
 5396POPC   C4B69682   1.113  40.263   7.384
 5397POPC   NC369683  12.751  17.824   5.477
 5397POPC   PO469684  12.611  17.166   5.405
 5397POPC   GL169685  12.595  17.422   5.771
 5397POPC   GL269686  12.964  17.537   5.852
 5397POPC   C1A69687  12.626  17.285   6.181
 5397POPC   D2A69688  12.806  17.284   6.607
 5397POPC   C3A69689  12.718  17.446   7.022
 5397POPC   C4A69690  13.102  17.386   7.276
 5397POPC   C1B69691  12.940  17.684   6.289
 5397POPC   C2B69692  12.623  17.787   6.626
 5397POPC   C3B69693  12.712  17.959   7.040
 5397POPC   C4B69694  13.133  17.929   7.258
 5398POPC   NC369695  30.068   3.440   5.329
 5398POPC   PO469696  29.551   3.228   5.376
 5398POPC   GL169697  29.733   3.321   5.799
 5398POPC   GL269698  30.122   3.324   5.829
 5398POPC   C1A69699  29.562   3.480   6.230
 5398POPC   D2A69700  29.459   3.401   6.681
 5398POPC   C3A69701  29.695   3.634   7.050
 5398POPC   C4A69702  29.666   3.867   7.480
 5398POPC   C1B69703  30.068   3.433   6.288
 5398POPC   C2B69704  29.955   3.299   6.740
 5398POPC   C3B69705  29.943   3.201   7.209
 5398POPC   C4B69706  30.051   3.502   7.548
 5399POPC   NC369707  16.326   3.557   5.372
 5399POPC   PO469708  16.972   3.571   5.118
 5399POPC   GL169709  16.753   3.738   5.588
 5399POPC   GL269710  16.559   4.002   5.797
 5399POPC   C1A69711  16.762   3.632   6.053
 5399POPC   D2A69712  16.889   3.790   6.451
 5399POPC   C3A69713  16.909   3.514   6.805
 5399POPC   C4A69714  16.872   3.548   7.234
 5399POPC   C1B69715  16.360   3.911   6.257
 5399POPC   C2B69716  16.435   3.743   6.720
 5399POPC   C3B69717  16.428   3.842   7.192
 5399POPC   C4B69718  16.547   4.026   7.634
 5400POPC   NC369719  33.224   9.124   5.141
 5400POPC   PO469720  32.612   9.212   5.486
 5400POPC   GL169721  32.820   9.101   5.849
 5400POPC   GL269722  33.165   9.035   5.752
 5400POPC   C1A69723  32.784   9.124   6.287
 5400POPC   D2A69724  32.988   9.197   6.660
 5400POPC   C3A69725  32.772   9.074   7.025
 5400POPC   C4A69726  32.815   8.633   6.976
 5400POPC   C1B69727  33.228   8.904   6.194
 5400POPC   C2B69728  33.352   8.791   6.615
 5400POPC   C3B69729  33.281   8.986   7.004
 5400POPC   C4B69730  33.126   8.850   7.409
 5401POPC   NC369731   4.458  41.032   5.156
 5401POPC   PO469732   4.991  40.680   5.330
 5401POPC   GL169733   4.962  40.662   5.783
 5401POPC   GL269734   5.043  41.000   5.878
 5401POPC   C1A69735   5.139  40.609   6.187
 5401POPC   D2A69736   5.121  40.902   6.504
 5401POPC   C3A69737   5.056  40.680   6.892
 5401POPC   C4A69738   5.196  40.808   7.315
 5401POPC   C1B69739   4.719  40.894   6.205
 5401POPC   C2B69740   4.654  41.012   6.658
 5401POPC   C3B69741   4.907  41.139   6.995
 5401POPC   C4B69742   4.817  41.163   7.458
 5402POPC   NC369743  22.579  33.406   5.532
 5402POPC   PO469744  22.832  32.862   5.381
 5402POPC   GL169745  22.987  32.912   5.789
 5402POPC   GL269746  22.843  32.604   5.891
 5402POPC   C1A69747  23.102  33.134   6.163
 5402POPC   D2A69748  22.876  33.209   6.541
 5402POPC   C3A69749  23.028  33.243   6.947
 5402POPC   C4A69750  23.073  33.118   7.383
 5402POPC   C1B69751  23.012  32.646   6.277
 5402POPC   C2B69752  23.082  32.749   6.693
 5402POPC   C3B69753  22.897  32.748   7.075
 5402POPC   C4B69754  22.959  32.648   7.559
 5403POPC   NC369755   2.588  18.419   5.447
 5403POPC   PO469756   3.150  18.140   5.501
 5403POPC   GL169757   2.905  18.184   5.823
 5403POPC   GL269758   2.614  18.019   5.743
 5403POPC   C1A69759   2.902  18.423   6.184
 5403POPC   D2A69760   2.681  18.329   6.571
 5403POPC   C3A69761   2.704  18.459   6.999
 5403POPC   C4A69762   2.743  18.222   7.408
 5403POPC   C1B69763   2.448  18.197   6.103
 5403POPC   C2B69764   2.284  18.015   6.442
 5403POPC   C3B69765   2.327  18.017   6.881
 5403POPC   C4B69766   2.326  17.984   7.302
 5404POPC   NC369767  28.404   1.443   5.284
 5404POPC   PO469768  28.269   0.740   5.466
 5404POPC   GL169769  28.336   1.069   5.759
 5404POPC   GL269770  28.560   1.377   5.792
 5404POPC   C1A69771  28.249   1.181   6.200
 5404POPC   D2A69772  28.258   0.966   6.598
 5404POPC   C3A69773  28.074   1.084   6.975
 5404POPC   C4A69774  28.342   1.274   7.187
 5404POPC   C1B69775  28.507   1.606   6.186
 5404POPC   C2B69776  28.522   1.432   6.595
 5404POPC   C3B69777  28.728   1.502   6.992
 5404POPC   C4B69778  28.501   1.762   7.257
 5405POPC   NC369779  41.000  23.895   5.422
 5405POPC   PO469780  40.291  23.911   5.430
 5405POPC   GL169781  40.581  23.877   5.801
 5405POPC   GL269782  40.822  23.581   5.777
 5405POPC   C1A69783  40.632  23.747   6.253
 5405POPC   D2A69784  40.934  23.697   6.603
 5405POPC   C3A69785  40.794  23.789   7.042
 5405POPC   C4A69786  40.445  23.909   7.269
 5405POPC   C1B69787  40.605  23.269   6.012
 5405POPC   C2B69788  40.659  23.156   6.444
 5405POPC   C3B69789  40.652  23.337   6.846
 5405POPC   C4B69790  40.596  23.206   7.248
 5406POPC   NC369791  31.129  13.050   5.262
 5406POPC   PO469792  31.742  12.737   5.295
 5406POPC   GL169793  31.711  12.714   5.702
 5406POPC   GL269794  31.559  13.059   5.693
 5406POPC   C1A69795  31.610  12.630   6.132
 5406POPC   D2A69796  31.383  12.793   6.494
 5406POPC   C3A69797  31.627  12.763   6.881
 5406POPC   C4A69798  31.454  12.726   7.324
 5406POPC   C1B69799  31.512  13.171   6.123
 5406POPC   C2B69800  31.512  13.296   6.556
 5406POPC   C3B69801  31.365  13.185   6.984
 5406POPC   C4B69802  31.699  13.148   7.220
 5407POPC   NC369803  31.467  38.147   5.349
 5407POPC   PO469804  31.779  37.542   5.518
 5407POPC   GL169805  31.569  37.723   5.879
 5407POPC   GL269806  31.241  37.557   5.919
 5407POPC   C1A69807  31.321  37.880   6.284
 5407POPC   D2A69808  31.141  37.678   6.649
 5407POPC   C3A69809  31.373  37.790   7.058
 5407POPC   C4A69810  31.401  37.750   7.531
 5407POPC   C1B69811  31.532  37.399   6.271
 5407POPC   C2B69812  31.620  37.489   6.696
 5407POPC   C3B69813  31.688  37.302   7.108
 5407POPC   C4B69814  31.769  37.414   7.512
 5408POPC   NC369815  30.198  38.971   5.497
 5408POPC   PO469816  30.759  39.407   5.472
 5408POPC   GL169817  30.720  39.190   5.874
 5408POPC   GL269818  30.360  39.098   5.959
 5408POPC   C1A69819  30.832  39.238   6.328
 5408POPC   D2A69820  30.972  39.420   6.735
 5408POPC   C3A69821  30.800  39.334   7.181
 5408POPC   C4A69822  30.890  39.418   7.642
 5408POPC   C1B69823  30.367  39.062   6.410
 5408POPC   C2B69824  30.702  38.828   6.648
 5408POPC   C3B69825  30.687  38.755   7.076
 5408POPC   C4B69826  30.355  39.021   7.189
 5409POPC   NC369827   6.158  40.937   5.394
 5409POPC   PO469828   6.775  41.007   5.192
 5409POPC   GL169829   6.644  40.970   5.607
 5409POPC   GL269830   6.456  41.251   5.718
 5409POPC   C1A69831   6.505  40.680   5.964
 5409POPC   D2A69832   6.386  40.607   6.413
 5409POPC   C3A69833   6.697  40.523   6.736
 5409POPC   C4A69834   6.675  40.517   7.168
 5409POPC   C1B69835   6.774  41.111   6.074
 5409POPC   C2B69836   6.773  40.969   6.486
 5409POPC   C3B69837   6.798  41.113   6.904
 5409POPC   C4B69838   6.716  41.004   7.337
 5410POPC   NC369839   1.795  21.625   5.476
 5410POPC   PO469840   1.912  22.339   5.495
 5410POPC   GL169841   1.890  22.273   5.858
 5410POPC   GL269842   2.015  21.935   5.892
 5410POPC   C1A69843   2.052  22.321   6.231
 5410POPC   D2A69844   1.981  22.041   6.553
 5410POPC   C3A69845   2.037  22.249   6.911
 5410POPC   C4A69846   1.901  22.175   7.282
 5410POPC   C1B69847   1.828  21.642   6.190
 5410POPC   C2B69848   1.596  21.686   6.565
 5410POPC   C3B69849   1.746  21.790   6.969
 5410POPC   C4B69850   1.514  21.836   7.353
 5411POPC   NC369851  11.052  38.515   5.264
 5411POPC   PO469852  11.636  38.251   5.260
 5411POPC   GL169853  11.533  38.302   5.677
 5411POPC   GL269854  11.683  38.601   5.812
 5411POPC   C1A69855  11.383  38.273   6.097
 5411POPC   D2A69856  11.130  38.476   6.427
 5411POPC   C3A69857  11.110  38.370   6.873
 5411POPC   C4A69858  11.449  38.204   7.109
 5411POPC   C1B69859  11.336  38.809   6.079
 5411POPC   C2B69860  11.217  38.982   6.496
 5411POPC   C3B69861  11.471  38.955   6.883
 5411POPC   C4B69862  11.318  38.704   7.181
 5412POPC   NC369863   1.352  28.459   5.241
 5412POPC   PO469864   1.013  27.814   5.361
 5412POPC   GL169865   1.173  28.137   5.629
 5412POPC   GL269866   0.894  28.334   5.623
 5412POPC   C1A69867   1.348  28.296   6.059
 5412POPC   D2A69868   1.507  28.510   6.444
 5412POPC   C3A69869   1.367  28.354   6.821
 5412POPC   C4A69870   1.475  28.192   7.204
 5412POPC   C1B69871   0.855  28.262   6.059
 5412POPC   C2B69872   0.935  28.353   6.490
 5412POPC   C3B69873   0.838  28.385   6.918
 5412POPC   C4B69874   1.033  28.383   7.344
 5413POPC   NC369875   1.654  20.108   5.287
 5413POPC   PO469876   2.164  19.650   5.406
 5413POPC   GL169877   1.934  19.906   5.688
 5413POPC   GL269878   1.578  19.818   5.757
 5413POPC   C1A69879   1.968  19.982   6.130
 5413POPC   D2A69880   2.073  19.776   6.514
 5413POPC   C3A69881   2.233  19.970   6.870
 5413POPC   C4A69882   2.082  19.910   7.266
 5413POPC   C1B69883   1.616  19.601   6.165
 5413POPC   C2B69884   1.581  19.740   6.600
 5413POPC   C3B69885   1.775  19.595   6.961
 5413POPC   C4B69886   1.542  19.323   7.218
 5414POPC   NC369887  19.187  17.423   5.328
 5414POPC   PO469888  18.732  17.162   5.725
 5414POPC   GL169889  19.045  17.487   5.840
 5414POPC   GL269890  19.420  17.539   5.773
 5414POPC   C1A69891  19.234  17.393   6.228
 5414POPC   D2A69892  19.153  17.373   6.620
 5414POPC   C3A69893  18.831  17.626   6.781
 5414POPC   C4A69894  18.806  17.516   7.203
 5414POPC   C1B69895  19.559  17.757   6.182
 5414POPC   C2B69896  19.358  17.840   6.622
 5414POPC   C3B69897  19.288  17.693   7.041
 5414POPC   C4B69898  19.476  17.753   7.438
 5415POPC   NC369899   0.442  21.892   4.955
 5415POPC   PO469900   0.408  21.354   5.368
 5415POPC   GL169901   0.519  21.503   5.751
 5415POPC   GL269902   0.623  21.179   5.827
 5415POPC   C1A69903   0.403  21.546   6.165
 5415POPC   D2A69904   0.343  21.134   6.338
 5415POPC   C3A69905   0.366  21.086   6.797
 5415POPC   C4A69906   0.426  21.435   7.059
 5415POPC   C1B69907   0.829  21.277   6.187
 5415POPC   C2B69908   0.712  21.403   6.578
 5415POPC   C3B69909   0.872  21.225   6.925
 5415POPC   C4B69910   0.763  21.119   7.302
 5416POPC   NC369911   4.670   7.601   5.543
 5416POPC   PO469912   5.339   7.735   5.547
 5416POPC   GL169913   5.190   7.391   5.831
 5416POPC   GL269914   4.905   7.163   5.738
 5416POPC   C1A69915   4.927   7.484   6.198
 5416POPC   D2A69916   4.993   7.648   6.606
 5416POPC   C3A69917   5.326   7.442   6.820
 5416POPC   C4A69918   5.298   7.430   7.247
 5416POPC   C1B69919   4.824   6.986   6.147
 5416POPC   C2B69920   4.707   7.148   6.554
 5416POPC   C3B69921   4.830   7.277   6.951
 5416POPC   C4B69922   4.865   7.206   7.377
 5417POPC   NC369923  28.873  37.236   5.513
 5417POPC   PO469924  28.444  36.750   5.255
 5417POPC   GL169925  28.600  36.834   5.665
 5417POPC   GL269926  28.881  36.616   5.641
 5417POPC   C1A69927  28.543  37.089   6.080
 5417POPC   D2A69928  28.286  37.231   6.461
 5417POPC   C3A69929  28.457  37.092   6.854
 5417POPC   C4A69930  28.401  37.149   7.294
 5417POPC   C1B69931  28.693  36.487   6.041
 5417POPC   C2B69932  28.594  36.656   6.446
 5417POPC   C3B69933  28.643  36.599   6.891
 5417POPC   C4B69934  28.414  36.617   7.281
 5418POPC   NC369935  35.005   8.291   5.473
 5418POPC   PO469936  34.556   8.695   5.304
 5418POPC   GL169937  34.573   8.418   5.747
 5418POPC   GL269938  34.747   8.049   5.816
 5418POPC   C1A69939  34.550   8.270   6.207
 5418POPC   D2A69940  34.586   8.006   6.579
 5418POPC   C3A69941  34.744   8.172   6.922
 5418POPC   C4A69942  34.615   8.301   7.300
 5418POPC   C1B69943  34.863   7.793   6.194
 5418POPC   C2B69944  35.100   7.892   6.602
 5418POPC   C3B69945  34.995   7.736   7.016
 5418POPC   C4B69946  34.606   7.774   7.213
 5419POPC   NC369947   6.155  18.834   5.687
 5419POPC   PO469948   5.663  19.110   5.332
 5419POPC   GL169949   5.612  19.108   5.773
 5419POPC   GL269950   5.614  18.739   5.734
 5419POPC   C1A69951   5.828  19.231   6.203
 5419POPC   D2A69952   5.982  19.414   6.636
 5419POPC   C3A69953   6.037  19.244   7.086
 5419POPC   C4A69954   6.184  19.238   7.534
 5419POPC   C1B69955   5.489  18.816   6.177
 5419POPC   C2B69956   5.696  18.889   6.565
 5419POPC   C3B69957   5.574  18.945   6.961
 5419POPC   C4B69958   5.398  18.640   7.232
 5420POPC   NC369959   9.221   9.514   5.371
 5420POPC   PO469960   8.867  10.027   5.321
 5420POPC   GL169961   8.839   9.802   5.728
 5420POPC   GL269962   8.510   9.840   5.938
 5420POPC   C1A69963   8.995   9.754   6.143
 5420POPC   D2A69964   8.763   9.745   6.501
 5420POPC   C3A69965   8.928   9.841   6.885
 5420POPC   C4A69966   9.038   9.973   7.269
 5420POPC   C1B69967   8.606   9.409   6.091
 5420POPC   C2B69968   8.727   9.234   6.474
 5420POPC   C3B69969   8.747   9.366   6.880
 5420POPC   C4B69970   8.959   9.470   7.263
 5421POPC   NC369971  10.722  16.786   5.451
 5421POPC   PO469972  10.133  16.823   5.326
 5421POPC   GL169973  10.298  16.786   5.737
 5421POPC   GL269974  10.367  16.437   5.772
 5421POPC   C1A69975  10.578  16.982   6.066
 5421POPC   D2A69976  10.512  16.910   6.512
 5421POPC   C3A69977  10.544  17.064   6.921
 5421POPC   C4A69978  10.790  16.863   7.197
 5421POPC   C1B69979  10.569  16.494   6.193
 5421POPC   C2B69980  10.368  16.404   6.589
 5421POPC   C3B69981  10.405  16.551   7.043
 5421POPC   C4B69982  10.409  16.485   7.529
 5422POPC   NC369983  37.650  34.898   5.326
 5422POPC   PO469984  37.525  34.272   5.332
 5422POPC   GL169985  37.524  34.532   5.693
 5422POPC   GL269986  37.297  34.817   5.694
 5422POPC   C1A69987  37.623  34.621   6.128
 5422POPC   D2A69988  37.869  34.626   6.502
 5422POPC   C3A69989  37.648  34.485   6.848
 5422POPC   C4A69990  37.909  34.472   7.213
 5422POPC   C1B69991  37.357  35.048   6.096
 5422POPC   C2B69992  37.585  35.041   6.498
 5422POPC   C3B69993  37.410  35.029   6.902
 5422POPC   C4B69994  37.517  34.784   7.236
 5423POPC   NC369995   2.188  10.030   5.323
 5423POPC   PO469996   1.902   9.368   5.404
 5423POPC   GL169997   1.982   9.460   5.844
 5423POPC   GL269998   2.057   9.801   5.751
 5423POPC   C1A69999   2.020   9.718   6.263
 5423POPC   D2A70000   1.833  10.016   6.576
 5423POPC   C3A70001   1.837   9.876   6.998
 5423POPC   C4A70002   2.044   9.518   7.196
 5423POPC   C1B70003   2.401   9.941   6.004
 5423POPC   C2B70004   2.427   9.986   6.449
 5423POPC   C3B70005   2.299   9.983   6.855
 5423POPC   C4B70006   2.252   9.980   7.309
 5424POPC   NC370007  12.937  28.046   5.425
 5424POPC   PO470008  12.746  27.416   5.124
 5424POPC   GL170009  12.968  27.514   5.604
 5424POPC   GL270010  12.884  27.811   5.856
 5424POPC   C1A70011  13.130  27.434   6.105
 5424POPC   D2A70012  13.327  27.476   6.571
 5424POPC   C3A70013  13.108  27.423   7.019
 5424POPC   C4A70014  12.815  27.466   7.401
 5424POPC   C1B70015  13.057  27.940   6.251
 5424POPC   C2B70016  12.926  27.792   6.648
 5424POPC   C3B70017  12.822  27.872   7.050
 5424POPC   C4B70018  13.015  28.171   7.238
 5425POPC   NC370019  26.133  12.584   5.379
 5425POPC   PO470020  25.839  12.042   5.403
 5425POPC   GL170021  25.911  12.165   5.815
 5425POPC   GL270022  25.700  11.884   5.881
 5425POPC   C1A70023  26.125  12.168   6.240
 5425POPC   D2A70024  26.014  12.268   6.676
 5425POPC   C3A70025  26.280  12.116   7.018
 5425POPC   C4A70026  26.421  11.814   7.317
 5425POPC   C1B70027  25.629  12.080   6.250
 5425POPC   C2B70028  25.786  11.815   6.567
 5425POPC   C3B70029  25.829  11.879   6.998
 5425POPC   C4B70030  25.777  12.295   7.130
 5426POPC   NC370031  10.833  42.616   5.491
 5426POPC   PO470032  10.286  42.917   5.415
 5426POPC   GL170033  10.432  42.994   5.830
 5426POPC   GL270034  10.782  42.981   5.902
 5426POPC   C1A70035  10.350  42.984   6.269
 5426POPC   D2A70036  10.230  43.254   6.620
 5426POPC   C3A70037  10.343  43.169   7.045
 5426POPC   C4A70038  10.261  42.832   7.300
 5426POPC   C1B70039  10.791  43.267   6.290
 5426POPC   C2B70040  10.712  43.378   6.737
 5426POPC   C3B70041  10.873  43.251   7.146
 5426POPC   C4B70042  11.029  43.340   7.603
 5427POPC   NC370043   1.035  14.962   5.212
 5427POPC   PO470044   1.475  15.375   5.318
 5427POPC   GL170045   1.130  15.254   5.633
 5427POPC   GL270046   1.372  15.217   5.835
 5427POPC   C1A70047   0.998  15.179   6.142
 5427POPC   D2A70048   1.083  15.414   6.511
 5427POPC   C3A70049   1.363  15.249   6.830
 5427POPC   C4A70050   1.272  15.233   7.264
 5427POPC   C1B70051   1.521  15.147   6.263
 5427POPC   C2B70052   1.500  14.821   6.567
 5427POPC   C3B70053   1.240  14.767   6.914
 5427POPC   C4B70054   1.405  14.743   7.300
 5428POPC   NC370055  44.458  44.495   5.473
 5428POPC   PO470056  43.988  44.819   5.242
 5428POPC   GL170057  44.298  44.869   5.765
 5428POPC   GL270058  44.678  44.669   5.873
 5428POPC   C1A70059  44.420  44.858   6.246
 5428POPC   D2A70060  44.746  44.738   6.586
 5428POPC   C3A70061  44.570  44.682   7.026
 5428POPC   C4A70062  44.657  44.893   7.378
 5428POPC   C1B70063  44.902  44.386   6.171
 5428POPC   C2B70064   0.053  44.211   6.558
 5428POPC   C3B70065  44.945  44.382   6.937
 5428POPC   C4B70066  44.845  44.448   7.451
 5429POPC   NC370067  12.241  24.506   5.435
 5429POPC   PO470068  11.530  24.619   5.385
 5429POPC   GL170069  11.788  24.616   5.816
 5429POPC   GL270070  12.113  24.788   5.859
 5429POPC   C1A70071  11.798  24.346   6.186
 5429POPC   D2A70072  11.985  24.254   6.581
 5429POPC   C3A70073  11.859  24.340   6.995
 5429POPC   C4A70074  12.045  24.460   7.370
 5429POPC   C1B70075  12.125  24.697   6.330
 5429POPC   C2B70076  12.079  24.758   6.771
 5429POPC   C3B70077  12.422  24.799   7.050
 5429POPC   C4B70078  12.498  24.709   7.506
 5430POPC   NC370079   2.998  19.267   5.113
 5430POPC   PO470080   2.593  18.881   5.423
 5430POPC   GL170081   2.692  18.794   5.837
 5430POPC   GL270082   3.040  18.680   5.744
 5430POPC   C1A70083   2.586  19.053   6.244
 5430POPC   D2A70084   2.724  19.207   6.661
 5430POPC   C3A70085   2.503  18.981   7.017
 5430POPC   C4A70086   2.441  19.098   7.464
 5430POPC   C1B70087   3.072  18.926   6.138
 5430POPC   C2B70088   2.962  18.774   6.547
 5430POPC   C3B70089   3.045  18.901   6.944
 5430POPC   C4B70090   2.892  18.843   7.350
 5431POPC   NC370091  27.915  30.363   5.545
 5431POPC   PO470092  27.273  30.521   5.446
 5431POPC   GL170093  27.493  30.846   5.748
 5431POPC   GL270094  27.870  30.781   5.835
 5431POPC   C1A70095  27.548  30.958   6.203
 5431POPC   D2A70096  27.696  30.745   6.598
 5431POPC   C3A70097  27.599  30.797   7.032
 5431POPC   C4A70098  27.664  31.178   7.233
 5431POPC   C1B70099  27.780  30.460   6.169
 5431POPC   C2B70100  27.809  30.270   6.579
 5431POPC   C3B70101  28.018  30.462   6.935
 5431POPC   C4B70102  28.051  30.702   7.300
 5432POPC   NC370103   0.214  29.702   5.395
 5432POPC   PO470104   0.381  30.304   5.472
 5432POPC   GL170105   0.561  30.104   5.823
 5432POPC   GL270106   0.676  29.771   5.779
 5432POPC   C1A70107   0.435  29.907   6.220
 5432POPC   D2A70108   0.618  29.847   6.662
 5432POPC   C3A70109   0.345  29.785   7.035
 5432POPC   C4A70110   0.396  29.920   7.463
 5432POPC   C1B70111   0.865  29.624   6.220
 5432POPC   C2B70112   0.878  29.411   6.671
 5432POPC   C3B70113   0.834  29.635   7.117
 5432POPC   C4B70114   0.778  29.624   7.604
 5433POPC   NC370115  25.846  18.141   5.163
 5433POPC   PO470116  26.267  18.599   5.418
 5433POPC   GL170117  26.137  18.315   5.726
 5433POPC   GL270118  25.846  18.253   5.684
 5433POPC   C1A70119  26.244  18.082   6.134
 5433POPC   D2A70120  26.282  18.055   6.584
 5433POPC   C3A70121  26.219  18.368   6.913
 5433POPC   C4A70122  26.321  18.253   7.341
 5433POPC   C1B70123  25.769  18.320   6.122
 5433POPC   C2B70124  25.789  18.245   6.578
 5433POPC   C3B70125  25.703  18.331   7.025
 5433POPC   C4B70126  25.807  18.244   7.461
 5434POPC   NC370127  34.094   8.648   5.266
 5434POPC   PO470128  33.576   8.957   5.416
 5434POPC   GL170129  33.686   9.049   5.836
 5434POPC   GL270130  33.958   9.202   5.707
 5434POPC   C1A70131  33.729   8.897   6.247
 5434POPC   D2A70132  33.893   8.687   6.602
 5434POPC   C3A70133  33.741   8.711   7.004
 5434POPC   C4A70134  33.635   8.992   7.340
 5434POPC   C1B70135  34.137   9.164   6.126
 5434POPC   C2B70136  34.271   9.055   6.543
 5434POPC   C3B70137  34.237   8.868   6.942
 5434POPC   C4B70138  34.124   9.062   7.288
 5435POPC   NC370139  18.637  43.949   5.316
 5435POPC   PO470140  18.097  43.545   5.527
 5435POPC   GL170141  18.196  43.777   5.909
 5435POPC   GL270142  18.489  43.989   5.817
 5435POPC   C1A70143  18.118  43.733   6.324
 5435POPC   D2A70144  18.280  43.639   6.683
 5435POPC   C3A70145  18.000  43.796   6.934
 5435POPC   C4A70146  18.089  43.893   7.345
 5435POPC   C1B70147  18.394  44.140   6.222
 5435POPC   C2B70148  18.221  44.175   6.606
 5435POPC   C3B70149  18.322  44.206   7.009
 5435POPC   C4B70150  18.156  44.396   7.360
 5436POPC   NC370151  37.609  28.813   5.389
 5436POPC   PO470152  37.844  29.499   5.217
 5436POPC   GL170153  37.840  29.426   5.690
 5436POPC   GL270154  37.652  29.113   5.817
 5436POPC   C1A70155  37.904  29.407   6.172
 5436POPC   D2A70156  37.820  29.022   6.513
 5436POPC   C3A70157  37.953  29.054   6.942
 5436POPC   C4A70158  38.025  29.438   7.116
 5436POPC   C1B70159  37.441  29.243   6.220
 5436POPC   C2B70160  37.515  29.417   6.605
 5436POPC   C3B70161  37.422  29.133   6.932
 5436POPC   C4B70162  37.571  28.941   7.294
 5437POPC   NC370163  18.840  34.135   5.338
 5437POPC   PO470164  19.076  33.495   5.546
 5437POPC   GL170165  18.971  33.823   5.744
 5437POPC   GL270166  19.277  34.035   5.726
 5437POPC   C1A70167  18.954  33.835   6.175
 5437POPC   D2A70168  19.077  33.973   6.575
 5437POPC   C3A70169  18.898  33.771   6.924
 5437POPC   C4A70170  18.775  34.074   7.187
 5437POPC   C1B70171  19.450  33.723   6.047
 5437POPC   C2B70172  19.306  33.537   6.428
 5437POPC   C3B70173  19.395  33.457   6.833
 5437POPC   C4B70174  19.275  33.602   7.214
 5438POPC   NC370175  36.398  26.608   5.471
 5438POPC   PO470176  36.135  27.177   5.486
 5438POPC   GL170177  36.107  26.929   5.804
 5438POPC   GL270178  35.900  26.647   5.705
 5438POPC   C1A70179  36.273  26.961   6.200
 5438POPC   D2A70180  36.338  26.752   6.592
 5438POPC   C3A70181  36.235  27.011   6.935
 5438POPC   C4A70182  36.489  27.145   7.238
 5438POPC   C1B70183  35.942  26.557   6.151
 5438POPC   C2B70184  35.881  26.454   6.595
 5438POPC   C3B70185  36.025  26.547   6.985
 5438POPC   C4B70186  36.345  26.625   7.278
 5439POPC   NC370187  36.149  43.958   5.278
 5439POPC   PO470188  36.616  43.543   5.412
 5439POPC   GL170189  36.377  43.718   5.776
 5439POPC   GL270190  36.322  44.069   5.791
 5439POPC   C1A70191  36.247  43.783   6.230
 5439POPC   D2A70192  36.311  43.920   6.666
 5439POPC   C3A70193  36.079  43.796   7.020
 5439POPC   C4A70194  36.177  43.854   7.468
 5439POPC   C1B70195  36.001  44.196   6.066
 5439POPC   C2B70196  35.928  44.222   6.504
 5439POPC   C3B70197  36.063  44.346   6.902
 5439POPC   C4B70198  35.878  44.214   7.277
 5440POPC   NC370199  16.448  24.957   5.001
 5440POPC   PO470200  16.827  24.479   5.334
 5440POPC   GL170201  16.859  24.665   5.766
 5440POPC   GL270202  17.125  24.909   5.828
 5440POPC   C1A70203  16.765  24.475   6.176
 5440POPC   D2A70204  16.905  24.388   6.593
 5440POPC   C3A70205  16.632  24.413   7.016
 5440POPC   C4A70206  16.587  24.284   7.480
 5440POPC   C1B70207  17.238  24.683   6.194
 5440POPC   C2B70208  17.361  24.625   6.622
 5440POPC   C3B70209  17.101  24.587   6.997
 5440POPC   C4B70210  17.082  24.347   7.372
 5441POPC   NC370211  12.534  26.343   5.387
 5441POPC   PO470212  12.908  25.762   5.267
 5441POPC   GL170213  12.790  25.930   5.695
 5441POPC   GL270214  13.065  26.150   5.817
 5441POPC   C1A70215  12.770  25.921   6.173
 5441POPC   D2A70216  12.996  26.109   6.540
 5441POPC   C3A70217  12.781  25.971   6.917
 5441POPC   C4A70218  12.607  26.117   7.311
 5441POPC   C1B70219  13.291  26.315   6.150
 5441POPC   C2B70220  13.326  26.598   6.494
 5441POPC   C3B70221  13.383  26.502   6.925
 5441POPC   C4B70222  13.068  26.295   7.199
 5442POPC   NC370223   4.502   6.638   5.332
 5442POPC   PO470224   3.929   6.448   5.604
 5442POPC   GL170225   4.172   6.626   5.889
 5442POPC   GL270226   4.470   6.815   5.799
 5442POPC   C1A70227   4.063   6.564   6.281
 5442POPC   D2A70228   4.308   6.421   6.603
 5442POPC   C3A70229   4.128   6.464   6.973
 5442POPC   C4A70230   4.312   6.539   7.360
 5442POPC   C1B70231   4.590   6.532   6.152
 5442POPC   C2B70232   4.762   6.628   6.552
 5442POPC   C3B70233   4.621   6.753   6.932
 5442POPC   C4B70234   4.764   6.726   7.338
 5443POPC   NC370235   1.395  12.395   5.330
 5443POPC   PO470236   1.650  12.936   5.078
 5443POPC   GL170237   1.588  12.850   5.603
 5443POPC   GL270238   1.238  12.970   5.772
 5443POPC   C1A70239   1.569  12.857   6.116
 5443POPC   D2A70240   1.329  13.009   6.523
 5443POPC   C3A70241   1.436  12.784   6.935
 5443POPC   C4A70242   1.198  12.604   7.292
 5443POPC   C1B70243   1.014  12.796   6.186
 5443POPC   C2B70244   0.804  12.928   6.639
 5443POPC   C3B70245   0.764  12.855   7.139
 5443POPC   C4B70246   0.955  12.986   7.572
 5444POPC   NC370247  40.612   2.646   5.190
 5444POPC   PO470248  41.304   2.801   5.294
 5444POPC   GL170249  41.180   2.582   5.667
 5444POPC   GL270250  40.813   2.607   5.693
 5444POPC   C1A70251  41.096   2.454   6.117
 5444POPC   D2A70252  40.842   2.598   6.469
 5444POPC   C3A70253  40.962   2.549   6.925
 5444POPC   C4A70254  41.072   2.800   7.285
 5444POPC   C1B70255  40.484   2.518   6.020
 5444POPC   C2B70256  40.358   2.413   6.456
 5444POPC   C3B70257  40.435   2.591   6.869
 5444POPC   C4B70258  40.582   2.669   7.302
 5445POPC   NC370259   5.701   5.500   5.432
 5445POPC   PO470260   6.065   6.057   5.114
 5445POPC   GL170261   6.039   5.883   5.619
 5445POPC   GL270262   5.687   5.870   5.784
 5445POPC   C1A70263   6.016   6.036   6.136
 5445POPC   D2A70264   5.797   6.183   6.552
 5445POPC   C3A70265   5.996   6.286   6.959
 5445POPC   C4A70266   5.960   6.137   7.412
 5445POPC   C1B70267   5.699   5.615   6.170
 5445POPC   C2B70268   5.851   5.599   6.602
 5445POPC   C3B70269   5.873   5.774   7.024
 5445POPC   C4B70270   5.530   5.766   7.303
 5446POPC   NC370271   1.561   7.070   5.702
 5446POPC   PO470272   1.883   7.430   5.231
 5446POPC   GL170273   2.049   7.593   5.746
 5446POPC   GL270274   1.916   7.304   5.977
 5446POPC   C1A70275   2.244   7.558   6.220
 5446POPC   D2A70276   1.999   7.229   6.503
 5446POPC   C3A70277   2.067   7.247   6.941
 5446POPC   C4A70278   2.127   7.551   7.272
 5446POPC   C1B70279   1.748   7.629   6.318
 5446POPC   C2B70280   1.715   7.597   6.792
 5446POPC   C3B70281   1.615   7.673   7.235
 5446POPC   C4B70282   1.710   7.453   7.637
 5447POPC   NC370283   8.291  19.306   5.256
 5447POPC   PO470284   7.815  18.859   5.216
 5447POPC   GL170285   8.064  18.874   5.644
 5447POPC   GL270286   8.442  18.998   5.664
 5447POPC   C1A70287   8.201  18.774   6.095
 5447POPC   D2A70288   8.018  18.745   6.517
 5447POPC   C3A70289   8.251  18.827   6.901
 5447POPC   C4A70290   7.951  18.909   7.216
 5447POPC   C1B70291   8.251  19.274   5.976
 5447POPC   C2B70292   8.188  19.197   6.414
 5447POPC   C3B70293   7.937  19.205   6.781
 5447POPC   C4B70294   7.946  19.415   7.204
 5448POPC   NC370295   6.651   4.161   5.330
 5448POPC   PO470296   6.366   4.657   5.671
 5448POPC   GL170297   6.700   4.464   5.906
 5448POPC   GL270298   6.797   4.118   5.827
 5448POPC   C1A70299   6.771   4.391   6.353
 5448POPC   D2A70300   6.531   4.183   6.680
 5448POPC   C3A70301   6.665   4.378   7.050
 5448POPC   C4A70302   6.400   4.494   7.368
 5448POPC   C1B70303   6.970   3.955   6.222
 5448POPC   C2B70304   7.013   4.037   6.682
 5448POPC   C3B70305   6.980   3.950   7.127
 5448POPC   C4B70306   6.799   4.072   7.545
 5449POPC   NC370307  21.304   7.128   5.573
 5449POPC   PO470308  21.375   6.632   5.116
 5449POPC   GL170309  21.378   6.596   5.578
 5449POPC   GL270310  21.700   6.509   5.717
 5449POPC   C1A70311  21.082   6.625   5.949
 5449POPC   D2A70312  20.957   6.650   6.391
 5449POPC   C3A70313  21.250   6.668   6.713
 5449POPC   C4A70314  21.239   6.704   7.166
 5449POPC   C1B70315  21.573   6.660   6.130
 5449POPC   C2B70316  21.797   6.846   6.495
 5449POPC   C3B70317  21.699   6.768   6.912
 5449POPC   C4B70318  21.686   6.472   7.231
 5450POPC   NC370319  26.423   4.423   5.349
 5450POPC   PO470320  25.761   4.122   5.282
 5450POPC   GL170321  25.964   4.342   5.641
 5450POPC   GL270322  26.261   4.165   5.771
 5450POPC   C1A70323  25.901   4.306   6.122
 5450POPC   D2A70324  25.769   4.041   6.514
 5450POPC   C3A70325  25.749   4.254   6.934
 5450POPC   C4A70326  26.033   4.543   7.150
 5450POPC   C1B70327  26.269   3.941   6.189
 5450POPC   C2B70328  26.218   3.774   6.612
 5450POPC   C3B70329  26.218   4.056   6.991
 5450POPC   C4B70330  26.408   4.182   7.371
 5451POPC   NC370331  25.630   0.631   5.315
 5451POPC   PO470332  25.195   0.158   5.448
 5451POPC   GL170333  25.358   0.384   5.794
 5451POPC   GL270334  25.246   0.726   5.765
 5451POPC   C1A70335  25.232   0.294   6.229
 5451POPC   D2A70336  25.057   0.416   6.622
 5451POPC   C3A70337  25.137   0.192   6.990
 5451POPC   C4A70338  25.024   0.403   7.355
 5451POPC   C1B70339  25.181   0.824   6.201
 5451POPC   C2B70340  25.249   0.902   6.645
 5451POPC   C3B70341  25.404   0.615   6.971
 5451POPC   C4B70342  25.513   0.588   7.379
 5452POPC   NC370343  38.958   0.240   5.371
 5452POPC   PO470344  38.291   0.460   5.422
 5452POPC   GL170345  38.436   0.542   5.808
 5452POPC   GL270346  38.703   0.731   5.671
 5452POPC   C1A70347  38.487   0.370   6.240
 5452POPC   D2A70348  38.412   0.418   6.668
 5452POPC   C3A70349  38.420   0.186   7.032
 5452POPC   C4A70350  38.516   0.476   7.339
 5452POPC   C1B70351  38.777   0.846   6.096
 5452POPC   C2B70352  38.789   0.766   6.514
 5452POPC   C3B70353  38.666   0.771   6.925
 5452POPC   C4B70354  38.759   0.944   7.291
 5453POPC   NC370355  20.936  10.473   5.404
 5453POPC   PO470356  21.619  10.615   5.320
 5453POPC   GL170357  21.336  10.542   5.711
 5453POPC   GL270358  21.357  10.202   5.857
 5453POPC   C1A70359  21.238  10.664   6.158
 5453POPC   D2A70360  21.223  10.542   6.603
 5453POPC   C3A70361  21.053  10.845   6.889
 5453POPC   C4A70362  21.313  10.972   7.194
 5453POPC   C1B70363  21.555  10.267   6.268
 5453POPC   C2B70364  21.803  10.407   6.626
 5453POPC   C3B70365  21.588  10.268   6.973
 5453POPC   C4B70366  21.226  10.431   7.158
 5454POPC   NC370367   0.420  32.478   5.197
 5454POPC   PO470368   0.742  31.932   5.416
 5454POPC   GL170369   0.436  32.131   5.634
 5454POPC   GL270370   0.466  32.456   5.724
 5454POPC   C1A70371   0.405  32.049   6.097
 5454POPC   D2A70372   0.268  32.133   6.523
 5454POPC   C3A70373   0.529  32.310   6.862
 5454POPC   C4A70374   0.466  31.979   7.137
 5454POPC   C1B70375   0.296  32.566   6.153
 5454POPC   C2B70376   0.092  32.591   6.581
 5454POPC   C3B70377   0.049  32.354   7.005
 5454POPC   C4B70378   0.311  32.435   7.378
 5455POPC   NC370379  26.740   3.176   5.622
 5455POPC   PO470380  26.522   3.841   5.448
 5455POPC   GL170381  26.674   3.862   5.875
 5455POPC   GL270382  26.915   3.610   5.886
 5455POPC   C1A70383  26.769   3.811   6.327
 5455POPC   D2A70384  26.891   3.786   6.765
 5455POPC   C3A70385  26.574   3.693   7.045
 5455POPC   C4A70386  26.525   3.360   7.327
 5455POPC   C1B70387  26.889   3.311   6.268
 5455POPC   C2B70388  27.058   3.277   6.711
 5455POPC   C3B70389  27.018   3.404   7.158
 5455POPC   C4B70390  26.904   3.127   7.537
 5456POPC   NC370391  18.550  36.602   5.497
 5456POPC   PO470392  18.107  36.074   5.400
 5456POPC   GL170393  18.243  35.904   5.837
 5456POPC   GL270394  18.599  35.860   5.879
 5456POPC   C1A70395  18.108  35.903   6.302
 5456POPC   D2A70396  18.240  35.991   6.733
 5456POPC   C3A70397  18.078  36.079   7.144
 5456POPC   C4A70398  18.264  36.043   7.585
 5456POPC   C1B70399  18.595  36.062   6.315
 5456POPC   C2B70400  18.735  36.149   6.761
 5456POPC   C3B70401  18.595  36.095   7.192
 5456POPC   C4B70402  18.803  35.929   7.582
 5457POPC   NC370403  21.523  24.730   5.408
 5457POPC   PO470404  21.794  24.122   5.505
 5457POPC   GL170405  21.625  24.440   5.812
 5457POPC   GL270406  21.269  24.540   5.826
 5457POPC   C1A70407  21.635  24.709   6.193
 5457POPC   D2A70408  21.365  24.742   6.582
 5457POPC   C3A70409  21.595  24.646   6.981
 5457POPC   C4A70410  21.517  24.530   7.419
 5457POPC   C1B70411  21.342  24.301   6.256
 5457POPC   C2B70412  21.376  24.237   6.728
 5457POPC   C3B70413  21.314  24.136   7.174
 5457POPC   C4B70414  21.375  24.092   7.654
 5458POPC   NC370415  10.296  24.083   5.593
 5458POPC   PO470416   9.885  24.557   5.301
 5458POPC   GL170417   9.911  24.419   5.766
 5458POPC   GL270418   9.895  24.073   5.907
 5458POPC   C1A70419   9.749  24.452   6.216
 5458POPC   D2A70420   9.625  24.296   6.645
 5458POPC   C3A70421   9.564  24.603   6.984
 5458POPC   C4A70422   9.784  24.772   7.370
 5458POPC   C1B70423   9.979  24.013   6.362
 5458POPC   C2B70424  10.093  24.111   6.801
 5458POPC   C3B70425   9.781  24.161   7.145
 5458POPC   C4B70426   9.589  23.929   7.486
 5459POPC   NC370427  34.665  10.770   5.159
 5459POPC   PO470428  34.587  10.143   5.382
 5459POPC   GL170429  34.567  10.390   5.750
 5459POPC   GL270430  34.713  10.751   5.693
 5459POPC   C1A70431  34.423  10.224   6.160
 5459POPC   D2A70432  34.234  10.080   6.568
 5459POPC   C3A70433  34.501  10.145   6.980
 5459POPC   C4A70434  34.888  10.171   7.235
 5459POPC   C1B70435  34.555  10.720   6.126
 5459POPC   C2B70436  34.415  10.604   6.530
 5459POPC   C3B70437  34.331  10.791   6.904
 5459POPC   C4B70438  34.636  10.635   7.170
 5460POPC   NC370439   9.788  29.227   5.364
 5460POPC   PO470440   9.711  28.561   5.340
 5460POPC   GL170441   9.866  28.795   5.768
 5460POPC   GL270442   9.810  29.156   5.860
 5460POPC   C1A70443   9.928  28.912   6.260
 5460POPC   D2A70444   9.826  29.133   6.634
 5460POPC   C3A70445  10.015  28.979   6.982
 5460POPC   C4A70446   9.920  28.829   7.355
 5460POPC   C1B70447   9.484  29.178   6.234
 5460POPC   C2B70448   9.360  29.360   6.672
 5460POPC   C3B70449   9.517  29.266   7.120
 5460POPC   C4B70450   9.517  29.476   7.577
 5461POPC   NC370451  20.631   5.384   5.189
 5461POPC   PO470452  20.798   6.085   5.293
 5461POPC   GL170453  20.708   5.888   5.712
 5461POPC   GL270454  20.413   5.658   5.729
 5461POPC   C1A70455  20.805   5.790   6.162
 5461POPC   D2A70456  20.993   5.650   6.558
 5461POPC   C3A70457  20.820   5.877   6.891
 5461POPC   C4A70458  20.752   5.811   7.277
 5461POPC   C1B70459  20.327   5.568   6.160
 5461POPC   C2B70460  20.473   5.646   6.598
 5461POPC   C3B70461  20.332   5.607   7.046
 5461POPC   C4B70462  20.256   5.854   7.445
 5462POPC   NC370463  30.133  36.147   5.207
 5462POPC   PO470464  29.712  35.780   5.607
 5462POPC   GL170465  30.022  35.989   5.828
 5462POPC   GL270466  29.883  35.785   6.092
 5462POPC   C1A70467  30.211  36.110   6.248
 5462POPC   D2A70468  30.017  36.178   6.661
 5462POPC   C3A70469  30.156  36.093   7.069
 5462POPC   C4A70470  29.989  36.119   7.491
 5462POPC   C1B70471  29.713  36.227   6.249
 5462POPC   C2B70472  29.518  36.316   6.665
 5462POPC   C3B70473  29.699  36.349   7.088
 5462POPC   C4B70474  29.645  36.497   7.512
 5463POPC   NC370475   6.695  11.858   5.309
 5463POPC   PO470476   6.841  12.509   5.346
 5463POPC   GL170477   6.779  12.324   5.752
 5463POPC   GL270478   6.633  12.000   5.793
 5463POPC   C1A70479   6.645  12.394   6.183
 5463POPC   D2A70480   6.461  12.477   6.588
 5463POPC   C3A70481   6.604  12.344   6.982
 5463POPC   C4A70482   6.391  12.163   7.305
 5463POPC   C1B70483   6.690  11.862   6.187
 5463POPC   C2B70484   6.782  12.060   6.562
 5463POPC   C3B70485   6.689  11.851   6.932
 5463POPC   C4B70486   6.691  11.728   7.316
 5464POPC   NC370487  39.160  25.284   5.400
 5464POPC   PO470488  39.719  25.478   5.471
 5464POPC   GL170489  39.679  25.346   5.876
 5464POPC   GL270490  39.438  25.118   5.851
 5464POPC   C1A70491  39.489  25.350   6.299
 5464POPC   D2A70492  39.162  25.490   6.559
 5464POPC   C3A70493  39.359  25.569   6.964
 5464POPC   C4A70494  39.277  25.383   7.374
 5464POPC   C1B70495  39.046  25.073   6.076
 5464POPC   C2B70496  38.980  24.975   6.517
 5464POPC   C3B70497  39.029  25.154   6.925
 5464POPC   C4B70498  38.996  24.964   7.291
 5465POPC   NC370499  37.326  24.906   5.551
 5465POPC   PO470500  37.810  25.438   5.329
 5465POPC   GL170501  37.779  25.400   5.760
 5465POPC   GL270502  37.457  25.339   5.796
 5465POPC   C1A70503  37.761  25.129   6.148
 5465POPC   D2A70504  37.546  25.063   6.537
 5465POPC   C3A70505  37.747  25.017   6.915
 5465POPC   C4A70506  37.447  25.107   7.230
 5465POPC   C1B70507  37.249  25.313   6.197
 5465POPC   C2B70508  37.266  25.520   6.606
 5465POPC   C3B70509  37.560  25.515   6.956
 5465POPC   C4B70510  37.467  25.595   7.427
 5466POPC   NC370511  43.680  21.167   5.452
 5466POPC   PO470512  44.172  21.586   5.241
 5466POPC   GL170513  44.145  21.428   5.672
 5466POPC   GL270514  43.817  21.455   5.866
 5466POPC   C1A70515  44.224  21.583   6.111
 5466POPC   D2A70516  43.951  21.466   6.440
 5466POPC   C3A70517  44.087  21.588   6.829
 5466POPC   C4A70518  44.040  21.417   7.221
 5466POPC   C1B70519  43.981  21.102   6.068
 5466POPC   C2B70520  43.937  20.943   6.474
 5466POPC   C3B70521  43.831  21.121   6.843
 5466POPC   C4B70522  43.848  20.953   7.252
 5467POPC   NC370523  38.835  34.446   5.469
 5467POPC   PO470524  38.152  34.695   5.439
 5467POPC   GL170525  38.379  34.772   5.834
 5467POPC   GL270526  38.755  34.878   5.856
 5467POPC   C1A70527  38.313  34.576   6.247
 5467POPC   D2A70528  38.381  34.696   6.691
 5467POPC   C3A70529  38.417  34.418   7.058
 5467POPC   C4A70530  38.313  34.548   7.499
 5467POPC   C1B70531  38.760  34.780   6.332
 5467POPC   C2B70532  38.889  34.835   6.768
 5467POPC   C3B70533  38.709  34.809   7.197
 5467POPC   C4B70534  38.638  34.906   7.612
 5468POPC   NC370535  44.818  38.508   4.915
 5468POPC   PO470536  44.387  38.295   5.386
 5468POPC   GL170537  44.438  38.360   5.806
 5468POPC   GL270538  44.599  38.702   5.790
 5468POPC   C1A70539  44.626  38.383   6.193
 5468POPC   D2A70540  44.486  38.511   6.567
 5468POPC   C3A70541  44.747  38.412   6.893
 5468POPC   C4A70542  44.597  38.384   7.287
 5468POPC   C1B70543  45.000  38.726   6.051
 5468POPC   C2B70544  44.977  38.648   6.487
 5468POPC   C3B70545  44.924  38.900   6.868
 5468POPC   C4B70546  44.977  38.729   7.249
 5469POPC   NC370547   1.449  24.171   5.627
 5469POPC   PO470548   1.015  23.715   5.427
 5469POPC   GL170549   1.117  23.766   5.850
 5469POPC   GL270550   1.085  24.107   5.982
 5469POPC   C1A70551   1.203  23.628   6.264
 5469POPC   D2A70552   1.416  23.675   6.659
 5469POPC   C3A70553   1.159  23.538   6.991
 5469POPC   C4A70554   1.154  23.629   7.408
 5469POPC   C1B70555   1.416  24.119   6.305
 5469POPC   C2B70556   1.431  24.250   6.713
 5469POPC   C3B70557   1.367  24.030   7.062
 5469POPC   C4B70558   1.313  24.095   7.483
 5470POPC   NC370559  20.564   0.719   5.370
 5470POPC   PO470560  20.600   0.035   5.300
 5470POPC   GL170561  20.493   0.239   5.683
 5470POPC   GL270562  20.552   0.554   5.832
 5470POPC   C1A70563  20.440   0.113   6.113
 5470POPC   D2A70564  20.742   0.025   6.409
 5470POPC   C3A70565  20.605   0.028   6.825
 5470POPC   C4A70566  20.707   0.294   7.169
 5470POPC   C1B70567  20.717   0.535   6.234
 5470POPC   C2B70568  20.579   0.510   6.656
 5470POPC   C3B70569  20.842   0.736   6.941
 5470POPC   C4B70570  20.985   0.750   7.383
 5471POPC   NC370571  27.052  30.946   5.465
 5471POPC   PO470572  26.532  30.476   5.288
 5471POPC   GL170573  26.620  30.699   5.669
 5471POPC   GL270574  26.944  30.593   5.832
 5471POPC   C1A70575  26.548  30.691   6.123
 5471POPC   D2A70576  26.743  30.569   6.520
 5471POPC   C3A70577  26.604  30.763   6.917
 5471POPC   C4A70578  26.685  30.557   7.285
 5471POPC   C1B70579  26.995  30.940   6.167
 5471POPC   C2B70580  27.021  30.995   6.632
 5471POPC   C3B70581  27.091  30.839   7.079
 5471POPC   C4B70582  27.075  30.963   7.547
 5472POPC   NC370583  33.467  13.595   5.337
 5472POPC   PO470584  34.173  13.453   5.330
 5472POPC   GL170585  33.868  13.557   5.681
 5472POPC   GL270586  33.636  13.818   5.764
 5472POPC   C1A70587  33.698  13.418   6.095
 5472POPC   D2A70588  33.902  13.499   6.485
 5472POPC   C3A70589  33.823  13.427   6.920
 5472POPC   C4A70590  33.907  13.745   7.237
 5472POPC   C1B70591  33.452  13.852   6.195
 5472POPC   C2B70592  33.412  13.662   6.634
 5472POPC   C3B70593  33.428  13.702   7.095
 5472POPC   C4B70594  33.366  13.290   7.348
 5473POPC   NC370595  33.588  35.909   5.389
 5473POPC   PO470596  34.081  36.349   5.536
 5473POPC   GL170597  33.776  36.284   5.833
 5473POPC   GL270598  33.851  35.965   5.836
 5473POPC   C1A70599  33.639  36.162   6.272
 5473POPC   D2A70600  33.937  36.276   6.599
 5473POPC   C3A70601  33.869  36.132   7.017
 5473POPC   C4A70602  33.433  36.192   7.141
 5473POPC   C1B70603  34.046  35.838   6.216
 5473POPC   C2B70604  33.920  35.733   6.642
 5473POPC   C3B70605  34.087  35.647   7.090
 5473POPC   C4B70606  34.082  35.650   7.585
 5474POPC   NC370607  21.545  18.527   5.381
 5474POPC   PO470608  21.251  17.919   5.480
 5474POPC   GL170609  21.432  18.234   5.802
 5474POPC   GL270610  21.265  18.574   5.815
 5474POPC   C1A70611  21.453  18.150   6.264
 5474POPC   D2A70612  21.604  18.017   6.686
 5474POPC   C3A70613  21.350  18.149   7.021
 5474POPC   C4A70614  21.405  18.083   7.459
 5474POPC   C1B70615  21.616  18.618   6.145
 5474POPC   C2B70616  21.632  18.529   6.622
 5474POPC   C3B70617  21.542  18.624   7.082
 5474POPC   C4B70618  21.651  18.502   7.549
 5475POPC   NC370619  26.095   3.814   5.279
 5475POPC   PO470620  25.633   3.383   5.440
 5475POPC   GL170621  25.824   3.701   5.721
 5475POPC   GL270622  26.192   3.632   5.785
 5475POPC   C1A70623  25.853   3.662   6.178
 5475POPC   D2A70624  25.784   3.490   6.581
 5475POPC   C3A70625  25.824   3.730   6.942
 5475POPC   C4A70626  25.678   3.502   7.258
 5475POPC   C1B70627  26.403   3.444   6.177
 5475POPC   C2B70628  26.521   3.357   6.630
 5475POPC   C3B70629  26.192   3.350   6.939
 5475POPC   C4B70630  26.077   3.154   7.312
 5476POPC   NC370631  15.034  29.507   5.506
 5476POPC   PO470632  14.922  28.876   5.620
 5476POPC   GL170633  15.135  28.954   5.958
 5476POPC   GL270634  15.316  29.295   5.933
 5476POPC   C1A70635  15.229  28.871   6.379
 5476POPC   D2A70636  15.547  29.074   6.566
 5476POPC   C3A70637  15.396  29.162   6.953
 5476POPC   C4A70638  15.253  29.066   7.357
 5476POPC   C1B70639  15.011  29.345   6.278
 5476POPC   C2B70640  14.894  29.560   6.677
 5476POPC   C3B70641  14.926  29.382   7.105
 5476POPC   C4B70642  15.028  29.502   7.535
 5477POPC   NC370643   3.282  33.924   5.043
 5477POPC   PO470644   3.627  33.664   5.474
 5477POPC   GL170645   3.471  33.872   5.833
 5477POPC   GL270646   3.328  34.213   5.825
 5477POPC   C1A70647   3.330  33.696   6.227
 5477POPC   D2A70648   3.421  33.473   6.611
 5477POPC   C3A70649   3.221  33.600   6.997
 5477POPC   C4A70650   3.319  33.936   7.285
 5477POPC   C1B70651   3.526  34.170   6.260
 5477POPC   C2B70652   3.478  34.003   6.680
 5477POPC   C3B70653   3.624  34.238   7.033
 5477POPC   C4B70654   3.541  34.342   7.484
 5478POPC   NC370655  21.609  20.274   4.964
 5478POPC   PO470656  21.261  20.746   5.342
 5478POPC   GL170657  21.342  20.764   5.803
 5478POPC   GL270658  21.449  20.454   5.951
 5478POPC   C1A70659  21.206  20.887   6.252
 5478POPC   D2A70660  21.347  20.935   6.694
 5478POPC   C3A70661  21.114  20.898   7.085
 5478POPC   C4A70662  21.324  20.904   7.493
 5478POPC   C1B70663  21.529  20.458   6.404
 5478POPC   C2B70664  21.756  20.271   6.750
 5478POPC   C3B70665  21.587  20.164   7.089
 5478POPC   C4B70666  21.279  20.437   7.220
 5479POPC   NC370667  29.963  23.196   5.394
 5479POPC   PO470668  30.220  22.583   5.575
 5479POPC   GL170669  29.969  22.640   5.931
 5479POPC   GL270670  29.867  22.963   5.843
 5479POPC   C1A70671  29.868  22.746   6.349
 5479POPC   D2A70672  29.988  23.041   6.663
 5479POPC   C3A70673  30.001  22.876   7.084
 5479POPC   C4A70674  29.949  22.540   7.372
 5479POPC   C1B70675  29.769  23.234   6.201
 5479POPC   C2B70676  29.491  23.240   6.576
 5479POPC   C3B70677  29.571  23.157   7.014
 5479POPC   C4B70678  29.624  22.930   7.414
 5480POPC   NC370679   5.478  38.344   5.299
 5480POPC   PO470680   6.155  38.196   5.292
 5480POPC   GL170681   5.864  38.254   5.646
 5480POPC   GL270682   5.644  37.975   5.640
 5480POPC   C1A70683   5.837  38.522   6.027
 5480POPC   D2A70684   5.789  38.732   6.452
 5480POPC   C3A70685   6.019  38.574   6.827
 5480POPC   C4A70686   5.780  38.529   7.200
 5480POPC   C1B70687   5.652  38.015   6.090
 5480POPC   C2B70688   5.849  38.209   6.451
 5480POPC   C3B70689   5.793  38.118   6.884
 5480POPC   C4B70690   6.060  38.076   7.247
 5481POPC   NC370691  25.272  32.840   5.384
 5481POPC   PO470692  25.204  33.477   5.529
 5481POPC   GL170693  25.113  33.112   5.806
 5481POPC   GL270694  25.410  32.869   5.864
 5481POPC   C1A70695  25.092  33.027   6.268
 5481POPC   D2A70696  25.249  32.761   6.611
 5481POPC   C3A70697  25.020  32.787   7.017
 5481POPC   C4A70698  25.066  32.841   7.493
 5481POPC   C1B70699  25.521  33.252   6.065
 5481POPC   C2B70700  25.498  33.352   6.494
 5481POPC   C3B70701  25.398  33.172   6.903
 5481POPC   C4B70702  25.021  33.284   7.099
 5482POPC   NC370703   7.110  34.481   5.464
 5482POPC   PO470704   7.180  33.824   5.269
 5482POPC   GL170705   7.191  33.744   5.742
 5482POPC   GL270706   7.160  34.039   5.946
 5482POPC   C1A70707   7.204  33.517   6.178
 5482POPC   D2A70708   7.218  33.408   6.645
 5482POPC   C3A70709   7.102  33.571   7.070
 5482POPC   C4A70710   7.302  33.849   7.353
 5482POPC   C1B70711   7.364  33.962   6.387
 5482POPC   C2B70712   7.494  33.813   6.831
 5482POPC   C3B70713   7.733  34.031   7.180
 5482POPC   C4B70714   7.602  34.190   7.619
 5483POPC   NC370715  28.764   4.229   5.387
 5483POPC   PO470716  28.201   3.995   5.460
 5483POPC   GL170717  28.442   4.131   5.830
 5483POPC   GL270718  28.733   4.385   5.862
 5483POPC   C1A70719  28.235   4.095   6.231
 5483POPC   D2A70720  28.061   4.325   6.528
 5483POPC   C3A70721  28.249   4.261   6.880
 5483POPC   C4A70722  28.267   3.922   7.153
 5483POPC   C1B70723  28.736   4.245   6.283
 5483POPC   C2B70724  28.724   4.374   6.708
 5483POPC   C3B70725  28.670   4.263   7.169
 5483POPC   C4B70726  28.631   4.295   7.628
 5484POPC   NC370727  21.903  10.228   5.336
 5484POPC   PO470728  22.101  10.898   5.454
 5484POPC   GL170729  22.108  10.566   5.738
 5484POPC   GL270730  21.806  10.508   5.888
 5484POPC   C1A70731  22.187  10.584   6.213
 5484POPC   D2A70732  22.369  10.485   6.615
 5484POPC   C3A70733  22.224  10.539   7.033
 5484POPC   C4A70734  22.312  10.633   7.490
 5484POPC   C1B70735  21.732  10.794   6.276
 5484POPC   C2B70736  21.945  10.902   6.682
 5484POPC   C3B70737  21.774  10.782   7.101
 5484POPC   C4B70738  21.640  10.785   7.567
 5485POPC   NC370739  40.325  22.445   5.455
 5485POPC   PO470740  40.153  23.088   5.308
 5485POPC   GL170741  40.158  23.081   5.778
 5485POPC   GL270742  40.007  22.764   5.754
 5485POPC   C1A70743  40.140  23.101   6.279
 5485POPC   D2A70744  40.162  23.178   6.735
 5485POPC   C3A70745  40.189  22.855   7.054
 5485POPC   C4A70746  40.315  22.635   7.406
 5485POPC   C1B70747  39.707  23.011   6.034
 5485POPC   C2B70748  39.541  23.024   6.429
 5485POPC   C3B70749  39.613  23.160   6.831
 5485POPC   C4B70750  39.775  23.107   7.182
 5486POPC   NC370751  39.732  31.816   5.361
 5486POPC   PO470752  39.815  31.155   5.414
 5486POPC   GL170753  40.178  31.316   5.685
 5486POPC   GL270754  40.127  31.680   5.718
 5486POPC   C1A70755  40.332  31.289   6.120
 5486POPC   D2A70756  40.079  31.255   6.490
 5486POPC   C3A70757  40.243  31.293   6.889
 5486POPC   C4A70758  40.070  31.258   7.278
 5486POPC   C1B70759  40.119  31.751   6.167
 5486POPC   C2B70760  40.234  31.750   6.630
 5486POPC   C3B70761  40.002  31.718   7.039
 5486POPC   C4B70762  40.207  31.725   7.442
 5487POPC   NC370763  43.371  22.733   5.355
 5487POPC   PO470764  42.814  23.127   5.354
 5487POPC   GL170765  43.026  23.030   5.715
 5487POPC   GL270766  43.283  23.247   5.814
 5487POPC   C1A70767  42.986  22.944   6.169
 5487POPC   D2A70768  43.051  23.169   6.577
 5487POPC   C3A70769  43.034  22.846   6.885
 5487POPC   C4A70770  42.790  22.792   7.253
 5487POPC   C1B70771  43.433  23.210   6.226
 5487POPC   C2B70772  43.522  22.942   6.588
 5487POPC   C3B70773  43.587  22.961   7.037
 5487POPC   C4B70774  43.232  23.067   7.296
 5488POPC   NC370775  15.398  42.971   5.469
 5488POPC   PO470776  14.747  43.188   5.530
 5488POPC   GL170777  14.957  43.293   5.909
 5488POPC   GL270778  15.277  43.268   5.852
 5488POPC   C1A70779  15.069  43.290   6.361
 5488POPC   D2A70780  14.991  43.067   6.756
 5488POPC   C3A70781  15.073  43.121   7.193
 5488POPC   C4A70782  14.855  43.035   7.578
 5488POPC   C1B70783  15.540  43.096   6.170
 5488POPC   C2B70784  15.510  43.221   6.593
 5488POPC   C3B70785  15.585  43.231   6.991
 5488POPC   C4B70786  15.552  43.006   7.354
 5489POPC   NC370787   6.059  29.868   5.382
 5489POPC   PO470788   5.559  30.203   5.113
 5489POPC   GL170789   5.657  30.156   5.640
 5489POPC   GL270790   5.448  30.274   5.925
 5489POPC   C1A70791   5.808  29.911   6.059
 5489POPC   D2A70792   5.752  29.797   6.543
 5489POPC   C3A70793   5.914  29.861   6.981
 5489POPC   C4A70794   6.221  29.648   7.261
 5489POPC   C1B70795   5.619  30.288   6.348
 5489POPC   C2B70796   5.799  30.295   6.737
 5489POPC   C3B70797   5.615  30.279   7.138
 5489POPC   C4B70798   5.718  30.314   7.575
 5490POPC   NC370799  34.967  26.254   5.501
 5490POPC   PO470800  35.650  26.305   5.394
 5490POPC   GL170801  35.598  26.107   5.817
 5490POPC   GL270802  35.224  26.173   5.930
 5490POPC   C1A70803  35.588  26.162   6.277
 5490POPC   D2A70804  35.380  26.250   6.665
 5490POPC   C3A70805  35.632  26.208   7.002
 5490POPC   C4A70806  35.792  26.285   7.397
 5490POPC   C1B70807  35.055  26.419   6.291
 5490POPC   C2B70808  34.896  26.465   6.696
 5490POPC   C3B70809  35.008  26.179   7.035
 5490POPC   C4B70810  35.282  26.341   7.340
 5491POPC   NC370811  29.766  22.458   5.498
 5491POPC   PO470812  29.037  22.488   5.458
 5491POPC   GL170813  29.312  22.245   5.741
 5491POPC   GL270814  29.342  21.862   5.752
 5491POPC   C1A70815  29.223  22.119   6.176
 5491POPC   D2A70816  29.232  22.275   6.613
 5491POPC   C3A70817  28.987  22.114   6.954
 5491POPC   C4A70818  29.044  22.189   7.389
 5491POPC   C1B70819  29.579  21.732   6.141
 5491POPC   C2B70820  29.424  21.797   6.572
 5491POPC   C3B70821  29.412  21.843   7.025
 5491POPC   C4B70822  29.556  21.738   7.434
 5492POPC   NC370823  16.400  14.387   5.353
 5492POPC   PO470824  17.091  14.257   5.550
 5492POPC   GL170825  16.700  14.265   5.805
 5492POPC   GL270826  16.770  14.598   5.883
 5492POPC   C1A70827  16.570  14.304   6.279
 5492POPC   D2A70828  16.606  14.580   6.625
 5492POPC   C3A70829  16.362  14.366   6.894
 5492POPC   C4A70830  16.461  14.049   7.173
 5492POPC   C1B70831  17.053  14.359   6.186
 5492POPC   C2B70832  16.954  14.198   6.599
 5492POPC   C3B70833  16.884  14.312   7.028
 5492POPC   C4B70834  16.964  14.701   7.222
 5493POPC   NC370835  42.749  33.440   5.466
 5493POPC   PO470836  42.116  33.768   5.669
 5493POPC   GL170837  42.418  33.925   5.908
 5493POPC   GL270838  42.191  34.198   5.954
 5493POPC   C1A70839  42.597  33.748   6.278
 5493POPC   D2A70840  42.571  33.467   6.642
 5493POPC   C3A70841  42.522  33.692   7.035
 5493POPC   C4A70842  42.249  33.617   7.367
 5493POPC   C1B70843  42.380  34.198   6.346
 5493POPC   C2B70844  42.259  33.905   6.660
 5493POPC   C3B70845  42.049  33.984   7.060
 5493POPC   C4B70846  42.003  34.151   7.494
 5494POPC   NC370847  38.022   3.601   5.423
 5494POPC   PO470848  38.725   3.779   5.430
 5494POPC   GL170849  38.483   3.537   5.761
 5494POPC   GL270850  38.622   3.195   5.800
 5494POPC   C1A70851  38.343   3.677   6.181
 5494POPC   D2A70852  38.594   3.856   6.525
 5494POPC   C3A70853  38.510   3.722   6.952
 5494POPC   C4A70854  38.505   3.521   7.363
 5494POPC   C1B70855  38.293   3.162   6.155
 5494POPC   C2B70856  38.191   3.322   6.580
 5494POPC   C3B70857  38.294   3.250   6.998
 5494POPC   C4B70858  38.601   3.001   7.194
 5495POPC   NC370859  31.265  21.944   5.294
 5495POPC   PO470860  31.858  22.299   5.173
 5495POPC   GL170861  31.455  22.270   5.630
 5495POPC   GL270862  31.182  22.159   5.755
 5495POPC   C1A70863  31.485  22.298   6.158
 5495POPC   D2A70864  31.688  22.047   6.528
 5495POPC   C3A70865  31.814  22.091   6.998
 5495POPC   C4A70866  31.797  22.203   7.475
 5495POPC   C1B70867  31.042  22.033   6.132
 5495POPC   C2B70868  31.116  22.187   6.527
 5495POPC   C3B70869  31.297  22.021   6.891
 5495POPC   C4B70870  31.407  21.918   7.307
 5496POPC   NC370871   3.767  28.671   5.579
 5496POPC   PO470872   3.259  28.220   5.348
 5496POPC   GL170873   3.433  28.231   5.764
 5496POPC   GL270874   3.395  28.539   5.924
 5496POPC   C1A70875   3.613  28.183   6.188
 5496POPC   D2A70876   3.538  28.055   6.578
 5496POPC   C3A70877   3.674  28.287   6.928
 5496POPC   C4A70878   3.938  28.162   7.267
 5496POPC   C1B70879   3.577  28.831   6.230
 5496POPC   C2B70880   3.806  28.912   6.591
 5496POPC   C3B70881   3.582  28.843   6.943
 5496POPC   C4B70882   3.451  28.597   7.255
 5497POPC   NC370883  26.427  34.996   5.574
 5497POPC   PO470884  25.835  35.268   5.450
 5497POPC   GL170885  25.967  35.042   5.811
 5497POPC   GL270886  26.176  35.300   5.925
 5497POPC   C1A70887  26.235  34.901   6.208
 5497POPC   D2A70888  26.220  34.764   6.628
 5497POPC   C3A70889  26.009  35.035   6.894
 5497POPC   C4A70890  25.939  35.075   7.316
 5497POPC   C1B70891  25.861  35.281   6.268
 5497POPC   C2B70892  25.980  35.491   6.642
 5497POPC   C3B70893  25.996  35.522   7.077
 5497POPC   C4B70894  25.577  35.484   7.269
 5498POPC   NC370895  17.372  12.978   5.374
 5498POPC   PO470896  17.969  12.666   5.550
 5498POPC   GL170897  17.671  12.871   5.812
 5498POPC   GL270898  17.427  12.611   5.787
 5498POPC   C1A70899  17.452  13.081   6.166
 5498POPC   D2A70900  17.378  13.293   6.582
 5498POPC   C3A70901  17.546  13.103   6.985
 5498POPC   C4A70902  17.395  12.950   7.391
 5498POPC   C1B70903  17.413  12.556   6.227
 5498POPC   C2B70904  17.489  12.791   6.593
 5498POPC   C3B70905  17.230  12.696   6.963
 5498POPC   C4B70906  17.216  12.458   7.362
 5499POPC   NC370907  21.181   7.900   5.356
 5499POPC   PO470908  21.186   8.521   5.476
 5499POPC   GL170909  21.407   8.199   5.754
 5499POPC   GL270910  21.255   7.854   5.875
 5499POPC   C1A70911  21.588   8.081   6.154
 5499POPC   D2A70912  21.327   8.081   6.521
 5499POPC   C3A70913  21.524   8.066   6.919
 5499POPC   C4A70914  21.507   8.424   7.171
 5499POPC   C1B70915  20.923   7.948   6.199
 5499POPC   C2B70916  20.762   8.020   6.622
 5499POPC   C3B70917  21.024   8.002   6.959
 5499POPC   C4B70918  21.272   8.017   7.358
 5500POPC   NC370919  32.147  36.772   5.400
 5500POPC   PO470920  32.434  37.366   5.243
 5500POPC   GL170921  32.351  37.179   5.677
 5500POPC   GL270922  31.987  37.159   5.790
 5500POPC   C1A70923  32.367  37.259   6.147
 5500POPC   D2A70924  32.081  37.247   6.520
 5500POPC   C3A70925  32.220  37.135   6.951
 5500POPC   C4A70926  32.468  36.978   7.311
 5500POPC   C1B70927  32.028  36.857   6.141
 5500POPC   C2B70928  32.105  36.696   6.572
 5500POPC   C3B70929  31.943  36.696   6.984
 5500POPC   C4B70930  31.808  36.383   7.236
 5501POPC   NC370931   6.021   7.897   5.626
 5501POPC   PO470932   5.850   8.527   5.613
 5501POPC   GL170933   5.655   8.419   5.990
 5501POPC   GL270934   6.018   8.360   6.126
 5501POPC   C1A70935   5.621   8.428   6.460
 5501POPC   D2A70936   5.944   8.195   6.720
 5501POPC   C3A70937   6.169   8.439   7.030
 5501POPC   C4A70938   5.968   8.605   7.398
 5501POPC   C1B70939   5.804   7.977   6.256
 5501POPC   C2B70940   5.445   7.931   6.542
 5501POPC   C3B70941   5.564   7.905   6.951
 5501POPC   C4B70942   5.882   8.079   7.245
 5502POPC   NC370943   0.209  39.324   5.342
 5502POPC   PO470944   0.759  39.056   5.409
 5502POPC   GL170945   0.560  39.142   5.767
 5502POPC   GL270946   0.232  39.124   5.804
 5502POPC   C1A70947   0.562  39.136   6.196
 5502POPC   D2A70948   0.335  38.992   6.491
 5502POPC   C3A70949   0.434  39.090   6.878
 5502POPC   C4A70950   0.309  39.134   7.263
 5502POPC   C1B70951   0.088  39.350   6.168
 5502POPC   C2B70952  44.920  39.299   6.558
 5502POPC   C3B70953   0.037  39.430   6.943
 5502POPC   C4B70954  44.928  39.451   7.348
 5503POPC   NC370955  19.484  25.666   5.492
 5503POPC   PO470956  19.904  26.244   5.401
 5503POPC   GL170957  19.812  26.009   5.773
 5503POPC   GL270958  20.141  26.026   5.882
 5503POPC   C1A70959  19.771  25.997   6.249
 5503POPC   D2A70960  19.659  25.745   6.622
 5503POPC   C3A70961  19.645  25.882   7.034
 5503POPC   C4A70962  19.439  25.674   7.328
 5503POPC   C1B70963  20.219  26.209   6.327
 5503POPC   C2B70964  19.971  26.184   6.736
 5503POPC   C3B70965  20.067  26.126   7.203
 5503POPC   C4B70966  20.244  26.057   7.654
 5504POPC   NC370967  35.738  33.305   5.408
 5504POPC   PO470968  35.099  33.026   5.360
 5504POPC   GL170969  35.279  32.846   5.762
 5504POPC   GL270970  35.081  32.556   5.844
 5504POPC   C1A70971  35.487  32.903   6.166
 5504POPC   D2A70972  35.302  33.113   6.544
 5504POPC   C3A70973  35.564  33.282   6.883
 5504POPC   C4A70974  35.594  33.138   7.286
 5504POPC   C1B70975  34.997  32.731   6.256
 5504POPC   C2B70976  34.929  32.795   6.690
 5504POPC   C3B70977  35.175  32.953   7.030
 5504POPC   C4B70978  35.118  33.018   7.519
 5505POPC   NC370979  31.790  14.003   5.453
 5505POPC   PO470980  31.346  13.441   5.374
 5505POPC   GL170981  31.557  13.596   5.717
 5505POPC   GL270982  31.378  13.905   5.746
 5505POPC   C1A70983  31.599  13.690   6.165
 5505POPC   D2A70984  31.474  13.828   6.571
 5505POPC   C3A70985  31.616  13.619   6.934
 5505POPC   C4A70986  31.456  13.578   7.310
 5505POPC   C1B70987  31.138  13.920   6.142
 5505POPC   C2B70988  30.974  13.873   6.567
 5505POPC   C3B70989  31.114  13.825   6.978
 5505POPC   C4B70990  30.905  13.991   7.321
 5506POPC   NC370991  23.198  44.034   5.022
 5506POPC   PO470992  22.776  43.650   5.402
 5506POPC   GL170993  22.806  43.667   5.822
 5506POPC   GL270994  22.799  44.007   5.863
 5506POPC   C1A70995  22.985  43.702   6.226
 5506POPC   D2A70996  22.939  44.062   6.504
 5506POPC   C3A70997  23.033  44.030   6.921
 5506POPC   C4A70998  22.847  43.862   7.262
 5506POPC   C1B70999  22.496  44.068   6.172
 5506POPC   C2B71000  22.446  43.932   6.585
 5506POPC   C3B71001  22.525  44.174   6.956
 5506POPC   C4B71002  22.646  44.333   7.374
 5507POPC   NC371003  36.395  34.912   5.655
 5507POPC   PO471004  36.016  34.428   5.487
 5507POPC   GL171005  36.017  34.621   5.840
 5507POPC   GL271006  36.343  34.478   5.932
 5507POPC   C1A71007  35.989  34.752   6.259
 5507POPC   D2A71008  36.203  34.672   6.668
 5507POPC   C3A71009  36.025  34.501   7.049
 5507POPC   C4A71010  35.968  34.713   7.463
 5507POPC   C1B71011  36.535  34.722   6.260
 5507POPC   C2B71012  36.696  34.593   6.629
 5507POPC   C3B71013  36.615  34.417   7.020
 5507POPC   C4B71014  36.432  34.537   7.399
 5508POPC   NC371015   2.024  11.911   5.424
 5508POPC   PO471016   1.999  12.529   5.427
 5508POPC   GL171017   2.004  12.325   5.795
 5508POPC   GL271018   2.240  12.061   5.860
 5508POPC   C1A71019   1.920  12.284   6.214
 5508POPC   D2A71020   2.212  12.314   6.511
 5508POPC   C3A71021   2.017  12.471   6.882
 5508POPC   C4A71022   1.716  12.445   7.248
 5508POPC   C1B71023   2.192  11.845   6.247
 5508POPC   C2B71024   1.920  11.928   6.628
 5508POPC   C3B71025   1.903  11.918   7.067
 5508POPC   C4B71026   2.228  11.746   7.357
 5509POPC   NC371027   0.439  35.668   5.523
 5509POPC   PO471028   0.056  35.124   5.326
 5509POPC   GL171029   0.130  35.032   5.777
 5509POPC   GL271030   0.396  35.234   5.827
 5509POPC   C1A71031   0.116  35.237   6.231
 5509POPC   D2A71032   0.305  35.484   6.601
 5509POPC   C3A71033   0.192  35.230   6.999
 5509POPC   C4A71034   0.420  34.872   7.188
 5509POPC   C1B71035   0.643  35.424   6.161
 5509POPC   C2B71036   0.886  35.363   6.534
 5509POPC   C3B71037   0.837  35.475   6.950
 5509POPC   C4B71038   0.542  35.457   7.274
 5510POPC   NC371039  21.769  31.022   5.546
 5510POPC   PO471040  21.276  30.450   5.355
 5510POPC   GL171041  21.411  30.492   5.848
 5510POPC   GL271042  21.734  30.704   5.944
 5510POPC   C1A71043  21.207  30.439   6.311
 5510POPC   D2A71044  21.041  30.724   6.670
 5510POPC   C3A71045  21.165  30.646   7.127
 5510POPC   C4A71046  21.453  30.316   7.255
 5510POPC   C1B71047  21.710  30.590   6.375
 5510POPC   C2B71048  21.827  30.527   6.812
 5510POPC   C3B71049  21.718  30.755   7.170
 5510POPC   C4B71050  21.489  31.142   7.276
 5511POPC   NC371051  18.316  17.016   5.602
 5511POPC   PO471052  18.199  17.704   5.361
 5511POPC   GL171053  18.132  17.692   5.771
 5511POPC   GL271054  18.489  17.714   5.891
 5511POPC   C1A71055  18.039  17.525   6.171
 5511POPC   D2A71056  18.212  17.644   6.558
 5511POPC   C3A71057  18.022  17.622   6.960
 5511POPC   C4A71058  18.409  17.819   7.168
 5511POPC   C1B71059  18.688  17.527   6.273
 5511POPC   C2B71060  18.530  17.208   6.542
 5511POPC   C3B71061  18.427  17.328   6.925
 5511POPC   C4B71062  18.315  17.298   7.322
 5512POPC   NC371063   5.924  26.591   4.986
 5512POPC   PO471064   6.096  26.968   5.364
 5512POPC   GL171065   5.878  26.955   5.794
 5512POPC   GL271066   5.530  26.925   5.892
 5512POPC   C1A71067   5.862  27.101   6.228
 5512POPC   D2A71068   6.010  26.984   6.628
 5512POPC   C3A71069   5.837  27.076   7.027
 5512POPC   C4A71070   5.680  26.819   7.389
 5512POPC   C1B71071   5.399  26.889   6.364
 5512POPC   C2B71072   5.356  26.913   6.838
 5512POPC   C3B71073   5.236  27.046   7.258
 5512POPC   C4B71074   5.309  27.058   7.713
 5513POPC   NC371075  15.054  30.117   5.076
 5513POPC   PO471076  15.457  29.687   5.382
 5513POPC   GL171077  15.350  29.879   5.759
 5513POPC   GL271078  15.038  30.040   5.618
 5513POPC   C1A71079  15.233  29.787   6.203
 5513POPC   D2A71080  15.402  29.548   6.557
 5513POPC   C3A71081  15.319  29.681   6.961
 5513POPC   C4A71082  15.489  29.678   7.358
 5513POPC   C1B71083  15.010  30.203   6.036
 5513POPC   C2B71084  15.225  30.299   6.465
 5513POPC   C3B71085  15.128  30.163   6.907
 5513POPC   C4B71086  15.042  29.955   7.306
 5514POPC   NC371087  42.663   2.627   5.711
 5514POPC   PO471088  42.187   2.563   5.240
 5514POPC   GL171089  42.122   2.651   5.736
 5514POPC   GL271090  42.025   2.470   5.971
 5514POPC   C1A71091  42.253   2.851   6.206
 5514POPC   D2A71092  41.947   2.830   6.548
 5514POPC   C3A71093  42.047   2.779   6.963
 5514POPC   C4A71094  42.123   3.001   7.342
 5514POPC   C1B71095  42.441   2.396   6.257
 5514POPC   C2B71096  42.415   2.530   6.652
 5514POPC   C3B71097  42.529   2.382   7.025
 5514POPC   C4B71098  42.315   2.498   7.321
 5515POPC   NC371099  16.146  29.187   5.360
 5515POPC   PO471100  16.373  29.702   5.782
 5515POPC   GL171101  16.127  29.313   5.943
 5515POPC   GL271102  15.802  29.183   5.764
 5515POPC   C1A71103  16.040  29.106   6.371
 5515POPC   D2A71104  16.295  29.042   6.773
 5515POPC   C3A71105  16.109  29.108   7.184
 5515POPC   C4A71106  15.725  29.244   7.330
 5515POPC   C1B71107  15.642  28.862   6.069
 5515POPC   C2B71108  15.689  28.599   6.451
 5515POPC   C3B71109  15.850  28.786   6.840
 5515POPC   C4B71110  15.697  28.763   7.238
 5516POPC   NC371111   5.561  36.475   5.273
 5516POPC   PO471112   5.859  35.901   5.393
 5516POPC   GL171113   5.758  36.158   5.726
 5516POPC   GL271114   5.853  36.495   5.706
 5516POPC   C1A71115   5.559  36.254   6.141
 5516POPC   D2A71116   5.440  36.234   6.587
 5516POPC   C3A71117   5.707  36.164   6.969
 5516POPC   C4A71118   6.080  35.996   7.169
 5516POPC   C1B71119   6.030  36.406   6.095
 5516POPC   C2B71120   5.948  36.444   6.531
 5516POPC   C3B71121   6.089  36.557   6.922
 5516POPC   C4B71122   6.381  36.437   7.220
 5517POPC   NC371123  26.447  34.924   5.019
 5517POPC   PO471124  26.611  35.454   5.440
 5517POPC   GL171125  26.806  35.463   5.819
 5517POPC   GL271126  26.836  35.109   5.885
 5517POPC   C1A71127  27.095  35.458   6.172
 5517POPC   D2A71128  27.205  35.265   6.595
 5517POPC   C3A71129  26.911  35.280   6.949
 5517POPC   C4A71130  26.719  35.645   7.157
 5517POPC   C1B71131  26.735  35.086   6.349
 5517POPC   C2B71132  26.451  35.234   6.699
 5517POPC   C3B71133  26.435  35.210   7.165
 5517POPC   C4B71134  26.359  35.084   7.592
 5518POPC   NC371135  20.185  40.665   5.323
 5518POPC   PO471136  19.546  40.471   5.397
 5518POPC   GL171137  19.726  40.726   5.759
 5518POPC   GL271138  20.021  40.902   5.769
 5518POPC   C1A71139  19.763  40.922   6.215
 5518POPC   D2A71140  19.876  40.704   6.613
 5518POPC   C3A71141  19.807  40.830   7.041
 5518POPC   C4A71142  19.705  40.703   7.456
 5518POPC   C1B71143  20.242  41.091   6.101
 5518POPC   C2B71144  20.154  41.168   6.529
 5518POPC   C3B71145  20.272  41.011   6.925
 5518POPC   C4B71146  20.146  41.015   7.363
 5519POPC   NC371147  43.283  37.703   5.287
 5519POPC   PO471148  42.596  37.594   5.348
 5519POPC   GL171149  42.879  37.684   5.695
 5519POPC   GL271150  43.116  37.404   5.689
 5519POPC   C1A71151  42.962  37.563   6.155
 5519POPC   D2A71152  42.946  37.369   6.573
 5519POPC   C3A71153  42.956  37.604   6.995
 5519POPC   C4A71154  43.139  38.002   7.190
 5519POPC   C1B71155  43.444  37.354   6.026
 5519POPC   C2B71156  43.467  37.498   6.463
 5519POPC   C3B71157  43.420  37.371   6.911
 5519POPC   C4B71158  43.385  37.593   7.314
 5520POPC   NC371159  23.619  40.331   5.217
 5520POPC   PO471160  23.372  39.618   5.379
 5520POPC   GL171161  23.381  39.881   5.800
 5520POPC   GL271162  23.605  40.216   5.782
 5520POPC   C1A71163  23.582  39.932   6.207
 5520POPC   D2A71164  23.642  39.740   6.589
 5520POPC   C3A71165  23.832  39.910   6.923
 5520POPC   C4A71166  23.616  39.818   7.270
 5520POPC   C1B71167  23.961  40.258   6.096
 5520POPC   C2B71168  24.099  40.177   6.534
 5520POPC   C3B71169  23.978  40.401   6.923
 5520POPC   C4B71170  23.923  40.212   7.350
 5521POPC   NC371171   1.569   1.863   5.442
 5521POPC   PO471172   2.314   1.855   5.529
 5521POPC   GL171173   2.001   1.931   5.849
 5521POPC   GL271174   1.989   2.268   5.837
 5521POPC   C1A71175   1.854   2.065   6.278
 5521POPC   D2A71176   1.927   1.892   6.673
 5521POPC   C3A71177   1.883   2.055   7.066
 5521POPC   C4A71178   1.783   1.684   7.327
 5521POPC   C1B71179   2.294   2.361   6.147
 5521POPC   C2B71180   2.324   2.207   6.559
 5521POPC   C3B71181   2.384   2.195   6.980
 5521POPC   C4B71182   2.176   2.404   7.346
 5522POPC   NC371183   1.065  26.094   5.115
 5522POPC   PO471184   1.646  26.236   5.442
 5522POPC   GL171185   1.368  26.102   5.785
 5522POPC   GL271186   1.003  25.992   5.742
 5522POPC   C1A71187   1.285  26.269   6.193
 5522POPC   D2A71188   1.409  26.440   6.570
 5522POPC   C3A71189   1.425  26.161   6.928
 5522POPC   C4A71190   1.431  26.287   7.363
 5522POPC   C1B71191   0.805  26.134   6.146
 5522POPC   C2B71192   0.897  26.363   6.546
 5522POPC   C3B71193   0.818  26.247   6.971
 5522POPC   C4B71194   1.024  25.977   7.242
 5523POPC   NC371195  36.743   4.902   5.640
 5523POPC   PO471196  37.315   5.114   5.506
 5523POPC   GL171197  37.207   5.086   5.910
 5523POPC   GL271198  36.935   5.313   5.901
 5523POPC   C1A71199  37.105   5.107   6.339
 5523POPC   D2A71200  36.901   4.916   6.694
 5523POPC   C3A71201  37.089   4.897   7.109
 5523POPC   C4A71202  36.971   5.006   7.539
 5523POPC   C1B71203  36.736   5.569   6.230
 5523POPC   C2B71204  36.856   5.443   6.664
 5523POPC   C3B71205  36.986   5.404   7.091
 5523POPC   C4B71206  37.009   5.502   7.517
 5524POPC   NC371207  16.561  34.189   5.607
 5524POPC   PO471208  16.811  34.821   5.543
 5524POPC   GL171209  16.612  34.629   5.879
 5524POPC   GL271210  16.888  34.388   5.945
 5524POPC   C1A71211  16.562  34.514   6.301
 5524POPC   D2A71212  16.774  34.681   6.611
 5524POPC   C3A71213  16.589  34.548   6.971
 5524POPC   C4A71214  16.481  34.420   7.405
 5524POPC   C1B71215  17.112  34.334   6.347
 5524POPC   C2B71216  17.141  34.391   6.793
 5524POPC   C3B71217  16.937  34.288   7.214
 5524POPC   C4B71218  16.935  34.467   7.676
 5525POPC   NC371219  21.020   0.107   5.487
 5525POPC   PO471220  21.006   0.740   5.533
 5525POPC   GL171221  21.159   0.614   5.927
 5525POPC   GL271222  21.490   0.789   5.960
 5525POPC   C1A71223  21.187   0.303   6.292
 5525POPC   D2A71224  21.032   0.307   6.723
 5525POPC   C3A71225  21.155   0.063   7.070
 5525POPC   C4A71226  21.573  44.989   7.247
 5525POPC   C1B71227  21.401   0.777   6.364
 5525POPC   C2B71228  21.517   0.522   6.688
 5525POPC   C3B71229  21.333   0.560   7.056
 5525POPC   C4B71230  21.495   0.811   7.366
 5526POPC   NC371231  27.168  19.641   5.312
 5526POPC   PO471232  27.764  19.866   5.458
 5526POPC   GL171233  27.623  19.588   5.783
 5526POPC   GL271234  27.386  19.334   5.664
 5526POPC   C1A71235  27.599  19.749   6.194
 5526POPC   D2A71236  27.727  19.679   6.606
 5526POPC   C3A71237  27.898  19.942   6.929
 5526POPC   C4A71238  28.026  19.878   7.336
 5526POPC   C1B71239  27.178  19.502   6.043
 5526POPC   C2B71240  27.198  19.381   6.499
 5526POPC   C3B71241  27.375  19.494   6.921
 5526POPC   C4B71242  27.535  19.764   7.265
 5527POPC   NC371243  19.370  40.957   5.404
 5527POPC   PO471244  18.690  40.602   5.387
 5527POPC   GL171245  18.915  40.815   5.714
 5527POPC   GL271246  19.205  40.644   5.768
 5527POPC   C1A71247  18.956  40.928   6.172
 5527POPC   D2A71248  18.830  41.077   6.608
 5527POPC   C3A71249  18.991  40.938   6.995
 5527POPC   C4A71250  19.356  41.051   7.209
 5527POPC   C1B71251  19.391  40.574   6.134
 5527POPC   C2B71252  19.338  40.789   6.510
 5527POPC   C3B71253  19.375  40.636   6.890
 5527POPC   C4B71254  19.267  40.516   7.259
 5528POPC   NC371255   0.353   6.209   5.371
 5528POPC   PO471256   0.205   5.541   5.404
 5528POPC   GL171257   0.398   5.818   5.744
 5528POPC   GL271258   0.621   6.056   5.774
 5528POPC   C1A71259   0.653   5.693   6.127
 5528POPC   D2A71260   0.524   5.806   6.551
 5528POPC   C3A71261   0.704   5.700   6.964
 5528POPC   C4A71262   0.405   5.852   7.274
 5528POPC   C1B71263   0.563   6.194   6.188
 5528POPC   C2B71264   0.744   6.284   6.586
 5528POPC   C3B71265   0.681   6.218   6.990
 5528POPC   C4B71266   0.862   6.103   7.373
 5529POPC   NC371267  28.574  39.344   5.459
 5529POPC   PO471268  28.008  38.982   5.306
 5529POPC   GL171269  28.197  38.956   5.780
 5529POPC   GL271270  28.338  39.267   5.889
 5529POPC   C1A71271  28.337  38.972   6.284
 5529POPC   D2A71272  28.403  39.303   6.601
 5529POPC   C3A71273  28.409  39.148   7.027
 5529POPC   C4A71274  28.715  39.207   7.353
 5529POPC   C1B71275  27.985  39.344   6.170
 5529POPC   C2B71276  27.936  39.538   6.598
 5529POPC   C3B71277  27.997  39.469   7.057
 5529POPC   C4B71278  27.991  39.625   7.517
 5530POPC   NC371279  36.579  44.359   5.481
 5530POPC   PO471280  36.805  44.986   5.439
 5530POPC   GL171281  36.740  44.741   5.779
 5530POPC   GL271282  36.930  44.448   5.879
 5530POPC   C1A71283  36.668  44.750   6.187
 5530POPC   D2A71284  36.941  44.666   6.481
 5530POPC   C3A71285  36.997  44.991   6.775
 5530POPC   C4A71286  36.984  44.891   7.183
 5530POPC   C1B71287  37.286  44.551   6.117
 5530POPC   C2B71288  37.387  44.365   6.517
 5530POPC   C3B71289  37.223  44.517   6.877
 5530POPC   C4B71290  37.388  44.589   7.268
 5531POPC   NC371291  16.517   0.313   5.342
 5531POPC   PO471292  16.394   0.707   5.805
 5531POPC   GL171293  16.771   0.547   5.836
 5531POPC   GL271294  16.788   0.190   5.774
 5531POPC   C1A71295  16.843   0.551   6.261
 5531POPC   D2A71296  16.648   0.453   6.675
 5531POPC   C3A71297  16.509   0.718   6.996
 5531POPC   C4A71298  16.629   0.560   7.367
 5531POPC   C1B71299  16.902   0.036   6.193
 5531POPC   C2B71300  16.999   0.082   6.672
 5531POPC   C3B71301  16.797   0.130   7.117
 5531POPC   C4B71302  16.872  44.938   7.592
 5532POPC   NC371303   7.898  13.151   5.376
 5532POPC   PO471304   7.504  12.655   5.322
 5532POPC   GL171305   7.372  12.565   5.745
 5532POPC   GL271306   7.423  12.912   5.817
 5532POPC   C1A71307   7.536  12.525   6.166
 5532POPC   D2A71308   7.495  12.787   6.531
 5532POPC   C3A71309   7.424  12.605   6.925
 5532POPC   C4A71310   7.472  12.784   7.329
 5532POPC   C1B71311   7.442  13.184   6.189
 5532POPC   C2B71312   7.583  13.316   6.589
 5532POPC   C3B71313   7.532  13.162   7.002
 5532POPC   C4B71314   7.282  13.251   7.415
 5533POPC   NC371315  27.709  13.348   5.427
 5533POPC   PO471316  27.494  12.679   5.418
 5533POPC   GL171317  27.403  12.815   5.839
 5533POPC   GL271318  27.504  13.140   5.844
 5533POPC   C1A71319  27.560  12.893   6.276
 5533POPC   D2A71320  27.651  13.015   6.676
 5533POPC   C3A71321  27.479  12.712   6.937
 5533POPC   C4A71322  27.781  12.500   7.199
 5533POPC   C1B71323  27.237  13.296   6.181
 5533POPC   C2B71324  27.335  13.437   6.618
 5533POPC   C3B71325  27.292  13.206   6.997
 5533POPC   C4B71326  27.612  13.035   7.297
 5534POPC   NC371327  37.755  13.167   5.112
 5534POPC   PO471328  37.700  13.786   5.352
 5534POPC   GL171329  37.554  13.814   5.789
 5534POPC   GL271330  37.439  13.478   5.822
 5534POPC   C1A71331  37.690  13.735   6.263
 5534POPC   D2A71332  37.799  13.879   6.687
 5534POPC   C3A71333  37.757  13.670   7.067
 5534POPC   C4A71334  37.654  13.834   7.475
 5534POPC   C1B71335  37.838  13.325   6.011
 5534POPC   C2B71336  38.001  13.341   6.460
 5534POPC   C3B71337  38.009  13.221   6.894
 5534POPC   C4B71338  37.742  13.203   7.263
 5535POPC   NC371339  38.903   8.407   5.345
 5535POPC   PO471340  39.327   7.970   5.572
 5535POPC   GL171341  39.380   8.199   5.914
 5535POPC   GL271342  39.134   8.453   5.889
 5535POPC   C1A71343  39.383   8.043   6.311
 5535POPC   D2A71344  39.468   8.185   6.687
 5535POPC   C3A71345  39.200   8.183   6.980
 5535POPC   C4A71346  39.445   8.138   7.304
 5535POPC   C1B71347  38.922   8.298   6.270
 5535POPC   C2B71348  38.800   8.379   6.687
 5535POPC   C3B71349  38.977   8.676   6.978
 5535POPC   C4B71350  39.400   8.659   7.129
 5536POPC   NC371351  25.607  37.224   5.381
 5536POPC   PO471352  25.274  36.704   5.438
 5536POPC   GL171353  25.287  36.979   5.770
 5536POPC   GL271354  25.372  36.725   5.979
 5536POPC   C1A71355  25.042  37.082   6.157
 5536POPC   D2A71356  25.220  37.091   6.574
 5536POPC   C3A71357  25.153  37.348   6.935
 5536POPC   C4A71358  25.178  37.219   7.357
 5536POPC   C1B71359  25.674  36.824   6.288
 5536POPC   C2B71360  25.677  36.870   6.724
 5536POPC   C3B71361  25.339  36.853   7.018
 5536POPC   C4B71362  25.153  36.605   7.324
 5537POPC   NC371363   5.552  19.556   5.390
 5537POPC   PO471364   6.204  19.674   5.521
 5537POPC   GL171365   6.001  19.904   5.856
 5537POPC   GL271366   5.648  19.811   5.827
 5537POPC   C1A71367   5.850  19.840   6.302
 5537POPC   D2A71368   5.683  19.833   6.728
 5537POPC   C3A71369   6.023  19.794   6.994
 5537POPC   C4A71370   6.249  20.127   7.158
 5537POPC   C1B71371   5.438  19.557   6.166
 5537POPC   C2B71372   5.470  19.374   6.601
 5537POPC   C3B71373   5.569  19.460   7.051
 5537POPC   C4B71374   5.641  19.857   7.308
 5538POPC   NC371375  29.356   4.841   5.432
 5538POPC   PO471376  29.552   5.419   5.456
 5538POPC   GL171377  29.229   5.252   5.825
 5538POPC   GL271378  29.055   4.915   5.879
 5538POPC   C1A71379  28.977   5.308   6.241
 5538POPC   D2A71380  28.978   5.444   6.700
 5538POPC   C3A71381  29.291   5.291   7.010
 5538POPC   C4A71382  29.408   5.074   7.417
 5538POPC   C1B71383  28.849   4.766   6.279
 5538POPC   C2B71384  28.856   4.926   6.722
 5538POPC   C3B71385  28.859   5.061   7.171
 5538POPC   C4B71386  28.947   4.928   7.617
 5539POPC   NC371387  23.407  26.795   5.185
 5539POPC   PO471388  23.955  26.391   5.361
 5539POPC   GL171389  23.772  26.679   5.629
 5539POPC   GL271390  23.993  26.969   5.691
 5539POPC   C1A71391  23.770  26.737   6.087
 5539POPC   D2A71392  23.830  26.558   6.509
 5539POPC   C3A71393  23.650  26.625   6.910
 5539POPC   C4A71394  23.865  26.428   7.242
 5539POPC   C1B71395  23.951  27.228   6.086
 5539POPC   C2B71396  23.835  27.270   6.531
 5539POPC   C3B71397  23.834  27.093   6.942
 5539POPC   C4B71398  23.747  26.922   7.333
 5540POPC   NC371399   2.465  28.994   5.390
 5540POPC   PO471400   3.104  29.195   5.194
 5540POPC   GL171401   3.010  29.314   5.654
 5540POPC   GL271402   2.632  29.375   5.709
 5540POPC   C1A71403   2.943  29.227   6.107
 5540POPC   D2A71404   2.694  29.112   6.466
 5540POPC   C3A71405   2.960  28.972   6.812
 5540POPC   C4A71406   2.699  29.094   7.106
 5540POPC   C1B71407   2.536  29.561   6.131
 5540POPC   C2B71408   2.395  29.585   6.576
 5540POPC   C3B71409   2.511  29.566   7.019
 5540POPC   C4B71410   2.487  29.671   7.465
 5541POPC   NC371411  26.214  28.409   5.434
 5541POPC   PO471412  25.835  27.959   5.752
 5541POPC   GL171413  26.149  28.166   5.880
 5541POPC   GL271414  25.941  28.454   5.844
 5541POPC   C1A71415  26.351  28.296   6.222
 5541POPC   D2A71416  26.425  28.534   6.550
 5541POPC   C3A71417  26.366  28.265   6.917
 5541POPC   C4A71418  26.218  28.442   7.269
 5541POPC   C1B71419  25.779  28.383   6.245
 5541POPC   C2B71420  25.955  28.333   6.615
 5541POPC   C3B71421  25.793  28.444   6.986
 5541POPC   C4B71422  25.749  28.291   7.423
 5542POPC   NC371423   2.361   7.534   5.357
 5542POPC   PO471424   3.024   7.565   5.112
 5542POPC   GL171425   2.747   7.382   5.626
 5542POPC   GL271426   2.442   7.291   5.822
 5542POPC   C1A71427   2.794   7.397   6.152
 5542POPC   D2A71428   3.071   7.492   6.514
 5542POPC   C3A71429   3.017   7.600   6.962
 5542POPC   C4A71430   3.085   7.367   7.332
 5542POPC   C1B71431   2.409   7.080   6.206
 5542POPC   C2B71432   2.501   7.296   6.607
 5542POPC   C3B71433   2.587   7.329   7.037
 5542POPC   C4B71434   2.592   7.381   7.473
 5543POPC   NC371435  23.148  44.826   5.411
 5543POPC   PO471436  22.841  44.228   5.404
 5543POPC   GL171437  22.997  44.460   5.755
 5543POPC   GL271438  22.915  44.784   5.837
 5543POPC   C1A71439  23.010  44.450   6.204
 5543POPC   D2A71440  23.156  44.594   6.609
 5543POPC   C3A71441  23.012  44.527   7.052
 5543POPC   C4A71442  23.262  44.604   7.442
 5543POPC   C1B71443  23.184  44.983   6.150
 5543POPC   C2B71444  23.186   0.126   6.574
 5543POPC   C3B71445  22.883   0.002   6.877
 5543POPC   C4B71446  22.790  44.916   7.327
 5544POPC   NC371447   9.718  16.979   5.197
 5544POPC   PO471448   9.822  17.629   5.252
 5544POPC   GL171449   9.723  17.396   5.666
 5544POPC   GL271450   9.564  17.669   5.794
 5544POPC   C1A71451   9.674  17.299   6.168
 5544POPC   D2A71452   9.706  17.175   6.638
 5544POPC   C3A71453   9.711  17.423   7.032
 5544POPC   C4A71454   9.681  17.466   7.527
 5544POPC   C1B71455   9.951  17.703   6.040
 5544POPC   C2B71456   9.947  17.700   6.525
 5544POPC   C3B71457   9.979  17.936   6.951
 5544POPC   C4B71458   9.995  17.895   7.408
 5545POPC   NC371459  34.618   2.707   5.428
 5545POPC   PO471460  34.094   2.748   5.635
 5545POPC   GL171461  34.469   2.753   5.926
 5545POPC   GL271462  34.631   2.440   5.922
 5545POPC   C1A71463  34.783   2.771   6.302
 5545POPC   D2A71464  34.792   2.547   6.719
 5545POPC   C3A71465  34.828   2.743   7.140
 5545POPC   C4A71466  34.678   3.022   7.489
 5545POPC   C1B71467  34.395   2.442   6.353
 5545POPC   C2B71468  34.274   2.585   6.800
 5545POPC   C3B71469  34.317   2.786   7.210
 5545POPC   C4B71470  34.501   2.571   7.573
 5546POPC   NC371471  40.343  33.178   5.682
 5546POPC   PO471472  40.769  32.863   5.323
 5546POPC   GL171473  40.829  32.914   5.759
 5546POPC   GL271474  40.574  32.717   5.837
 5546POPC   C1A71475  40.790  33.024   6.224
 5546POPC   D2A71476  40.615  33.072   6.665
 5546POPC   C3A71477  40.877  33.299   6.941
 5546POPC   C4A71478  40.980  33.287   7.351
 5546POPC   C1B71479  40.446  32.650   6.231
 5546POPC   C2B71480  40.635  32.557   6.607
 5546POPC   C3B71481  40.509  32.585   7.031
 5546POPC   C4B71482  40.583  32.970   7.230
 5547POPC   NC371483  26.982  27.868   5.434
 5547POPC   PO471484  26.524  27.388   5.502
 5547POPC   GL171485  26.754  27.589   5.797
 5547POPC   GL271486  27.030  27.311   5.784
 5547POPC   C1A71487  26.590  27.820   6.163
 5547POPC   D2A71488  26.341  27.873   6.559
 5547POPC   C3A71489  26.585  27.783   6.938
 5547POPC   C4A71490  26.509  27.534   7.286
 5547POPC   C1B71491  27.224  27.151   6.215
 5547POPC   C2B71492  27.128  27.225   6.694
 5547POPC   C3B71493  27.033  27.446   7.117
 5547POPC   C4B71494  27.178  27.301   7.555
 5548POPC   NC371495  18.222   4.451   5.663
 5548POPC   PO471496  18.633   4.008   5.365
 5548POPC   GL171497  18.600   4.149   5.821
 5548POPC   GL271498  18.600   4.505   6.010
 5548POPC   C1A71499  18.354   4.122   6.210
 5548POPC   D2A71500  18.551   4.127   6.582
 5548POPC   C3A71501  18.268   4.255   6.864
 5548POPC   C4A71502  18.494   4.214   7.222
 5548POPC   C1B71503  18.187   4.625   6.258
 5548POPC   C2B71504  18.014   4.769   6.635
 5548POPC   C3B71505  18.056   4.757   7.055
 5548POPC   C4B71506  18.014   4.450   7.280
 5549POPC   NC371507  17.758  14.730   5.459
 5549POPC   PO471508  17.199  15.238   5.404
 5549POPC   GL171509  17.323  14.941   5.707
 5549POPC   GL271510  17.632  15.142   5.766
 5549POPC   C1A71511  17.171  14.867   6.112
 5549POPC   D2A71512  17.245  15.164   6.471
 5549POPC   C3A71513  17.462  15.019   6.842
 5549POPC   C4A71514  17.280  15.128   7.222
 5549POPC   C1B71515  17.654  15.031   6.201
 5549POPC   C2B71516  17.855  15.206   6.566
 5549POPC   C3B71517  17.956  15.367   6.985
 5549POPC   C4B71518  17.772  15.078   7.254
 5550POPC   NC371519  38.112  23.413   5.414
 5550POPC   PO471520  37.492  23.716   5.485
 5550POPC   GL171521  37.761  23.636   5.797
 5550POPC   GL271522  37.835  23.269   5.814
 5550POPC   C1A71523  37.760  23.867   6.184
 5550POPC   D2A71524  37.525  23.707   6.540
 5550POPC   C3A71525  37.738  23.699   6.915
 5550POPC   C4A71526  37.502  23.587   7.256
 5550POPC   C1B71527  37.789  23.372   6.245
 5550POPC   C2B71528  37.702  23.244   6.664
 5550POPC   C3B71529  37.945  23.245   7.075
 5550POPC   C4B71530  37.872  23.369   7.510
 5551POPC   NC371531  42.757   1.426   5.573
 5551POPC   PO471532  43.391   1.088   5.564
 5551POPC   GL171533  43.059   1.113   5.877
 5551POPC   GL271534  42.824   0.868   5.864
 5551POPC   C1A71535  43.009   1.338   6.276
 5551POPC   D2A71536  43.245   1.370   6.652
 5551POPC   C3A71537  43.274   1.085   6.975
 5551POPC   C4A71538  43.196   1.295   7.367
 5551POPC   C1B71539  42.714   0.913   6.261
 5551POPC   C2B71540  42.859   0.984   6.680
 5551POPC   C3B71541  42.802   1.002   7.146
 5551POPC   C4B71542  43.011   0.844   7.539
 5552POPC   NC371543  27.755  17.246   5.378
 5552POPC   PO471544  27.960  17.979   5.503
 5552POPC   GL171545  27.838  17.612   5.752
 5552POPC   GL271546  27.519  17.396   5.797
 5552POPC   C1A71547  27.942  17.394   6.130
 5552POPC   D2A71548  28.055  17.332   6.549
 5552POPC   C3A71549  27.877  17.614   6.824
 5552POPC   C4A71550  27.686  17.593   7.218
 5552POPC   C1B71551  27.492  17.149   6.169
 5552POPC   C2B71552  27.526  17.278   6.591
 5552POPC   C3B71553  27.724  17.132   6.956
 5552POPC   C4B71554  27.606  17.096   7.364
 5553POPC   NC371555   4.286  37.283   5.436
 5553POPC   PO471556   4.599  37.844   5.652
 5553POPC   GL171557   4.438  37.528   5.860
 5553POPC   GL271558   4.613  37.215   5.848
 5553POPC   C1A71559   4.233  37.634   6.233
 5553POPC   D2A71560   4.283  37.950   6.576
 5553POPC   C3A71561   4.299  37.791   7.003
 5553POPC   C4A71562   4.542  37.714   7.388
 5553POPC   C1B71563   4.687  37.366   6.261
 5553POPC   C2B71564   4.505  37.463   6.632
 5553POPC   C3B71565   4.606  37.380   7.012
 5553POPC   C4B71566   4.243  37.327   7.284
 5554POPC   NC371567  41.836   6.398   5.262
 5554POPC   PO471568  41.462   6.845   5.358
 5554POPC   GL171569  41.351   6.579   5.746
 5554POPC   GL271570  41.660   6.373   5.761
 5554POPC   C1A71571  41.432   6.464   6.219
 5554POPC   D2A71572  41.738   6.583   6.549
 5554POPC   C3A71573  41.547   6.687   6.932
 5554POPC   C4A71574  41.237   6.403   7.110
 5554POPC   C1B71575  41.905   6.212   6.122
 5554POPC   C2B71576  41.803   6.060   6.523
 5554POPC   C3B71577  41.767   6.225   6.973
 5554POPC   C4B71578  41.898   6.561   7.270
 5555POPC   NC371579  31.921  38.721   5.338
 5555POPC   PO471580  31.293  38.580   5.296
 5555POPC   GL171581  31.408  38.555   5.750
 5555POPC   GL271582  31.457  38.214   5.881
 5555POPC   C1A71583  31.549  38.639   6.193
 5555POPC   D2A71584  31.569  38.510   6.619
 5555POPC   C3A71585  31.606  38.792   6.973
 5555POPC   C4A71586  31.573  38.686   7.413
 5555POPC   C1B71587  31.758  38.116   6.271
 5555POPC   C2B71588  31.720  38.028   6.729
 5555POPC   C3B71589  31.690  38.286   7.094
 5555POPC   C4B71590  31.913  38.284   7.468
 5556POPC   NC371591   8.140  10.877   5.563
 5556POPC   PO471592   8.252  10.271   5.237
 5556POPC   GL171593   8.436  10.335   5.697
 5556POPC   GL271594   8.600  10.678   5.770
 5556POPC   C1A71595   8.266  10.335   6.160
 5556POPC   D2A71596   8.025  10.269   6.593
 5556POPC   C3A71597   8.118  10.473   7.012
 5556POPC   C4A71598   8.071  10.457   7.505
 5556POPC   C1B71599   8.538  10.791   6.227
 5556POPC   C2B71600   8.549  10.750   6.709
 5556POPC   C3B71601   8.521  10.712   7.175
 5556POPC   C4B71602   8.477  10.777   7.622
 5557POPC   NC371603   0.456  26.580   5.515
 5557POPC   PO471604   0.372  27.282   5.644
 5557POPC   GL171605   0.656  26.968   5.904
 5557POPC   GL271606   0.714  26.595   5.951
 5557POPC   C1A71607   0.667  26.966   6.334
 5557POPC   D2A71608   0.266  27.102   6.513
 5557POPC   C3A71609   0.091  26.906   6.884
 5557POPC   C4A71610   0.298  26.961   7.288
 5557POPC   C1B71611   0.453  26.485   6.337
 5557POPC   C2B71612   0.537  26.673   6.764
 5557POPC   C3B71613   0.743  26.722   7.164
 5557POPC   C4B71614   0.717  26.800   7.632
 5558POPC   NC371615  32.976  44.200   5.403
 5558POPC   PO471616  33.110  43.536   5.560
 5558POPC   GL171617  33.044  43.923   5.845
 5558POPC   GL271618  33.396  43.971   5.889
 5558POPC   C1A71619  32.761  44.025   6.239
 5558POPC   D2A71620  32.726  43.840   6.684
 5558POPC   C3A71621  32.734  44.051   7.125
 5558POPC   C4A71622  32.726  44.264   7.615
 5558POPC   C1B71623  33.520  44.058   6.269
 5558POPC   C2B71624  33.458  44.116   6.678
 5558POPC   C3B71625  33.184  43.864   6.928
 5558POPC   C4B71626  33.064  43.520   7.171
 5559POPC   NC371627  25.263  13.072   5.309
 5559POPC   PO471628  25.256  12.443   5.271
 5559POPC   GL171629  25.112  12.437   5.705
 5559POPC   GL271630  25.064  12.780   5.748
 5559POPC   C1A71631  25.286  12.483   6.151
 5559POPC   D2A71632  25.562  12.486   6.552
 5559POPC   C3A71633  25.388  12.560   6.963
 5559POPC   C4A71634  25.526  12.687   7.374
 5559POPC   C1B71635  25.076  12.971   6.179
 5559POPC   C2B71636  25.228  12.900   6.603
 5559POPC   C3B71637  25.070  12.958   7.020
 5559POPC   C4B71638  25.063  12.838   7.452
 5560POPC   NC371639  33.442  27.486   5.060
 5560POPC   PO471640  33.120  27.965   5.466
 5560POPC   GL171641  32.962  27.751   5.825
 5560POPC   GL271642  32.762  27.438   5.795
 5560POPC   C1A71643  33.112  27.729   6.240
 5560POPC   D2A71644  33.231  27.802   6.656
 5560POPC   C3A71645  32.884  27.762   6.912
 5560POPC   C4A71646  32.833  27.672   7.326
 5560POPC   C1B71647  32.830  27.288   6.225
 5560POPC   C2B71648  33.041  27.320   6.630
 5560POPC   C3B71649  32.863  27.242   7.044
 5560POPC   C4B71650  32.929  27.184   7.500
 5561POPC   NC371651  42.569  39.101   5.467
 5561POPC   PO471652  41.913  38.905   5.458
 5561POPC   GL171653  42.177  39.174   5.762
 5561POPC   GL271654  42.317  38.853   5.840
 5561POPC   C1A71655  42.351  39.338   6.176
 5561POPC   D2A71656  42.320  39.613   6.539
 5561POPC   C3A71657  42.415  39.438   6.916
 5561POPC   C4A71658  42.416  39.540   7.311
 5561POPC   C1B71659  42.545  38.870   6.193
 5561POPC   C2B71660  42.504  39.054   6.590
 5561POPC   C3B71661  42.282  38.947   6.967
 5561POPC   C4B71662  42.396  39.046   7.418
 5562POPC   NC371663  30.332  13.592   5.373
 5562POPC   PO471664  29.717  13.422   5.321
 5562POPC   GL171665  29.868  13.602   5.709
 5562POPC   GL271666  29.591  13.424   5.820
 5562POPC   C1A71667  29.911  13.581   6.189
 5562POPC   D2A71668  30.063  13.293   6.520
 5562POPC   C3A71669  30.175  13.439   6.933
 5562POPC   C4A71670  30.009  13.756   7.200
 5562POPC   C1B71671  29.349  13.502   6.156
 5562POPC   C2B71672  29.526  13.433   6.521
 5562POPC   C3B71673  29.657  13.592   6.885
 5562POPC   C4B71674  29.632  13.405   7.289
 5563POPC   NC371675  16.094   1.757   5.233
 5563POPC   PO471676  16.337   2.283   5.267
 5563POPC   GL171677  16.242   2.018   5.690
 5563POPC   GL271678  16.214   1.641   5.740
 5563POPC   C1A71679  16.125   1.963   6.172
 5563POPC   D2A71680  16.171   2.090   6.633
 5563POPC   C3A71681  15.811   1.998   6.902
 5563POPC   C4A71682  15.619   2.122   7.284
 5563POPC   C1B71683  16.490   1.611   6.118
 5563POPC   C2B71684  16.318   1.614   6.532
 5563POPC   C3B71685  16.212   1.673   6.972
 5563POPC   C4B71686  16.172   2.038   7.269
 5564POPC   NC371687  29.321  29.396   5.356
 5564POPC   PO471688  28.794  28.856   5.391
 5564POPC   GL171689  28.954  29.078   5.777
 5564POPC   GL271690  29.315  29.176   5.821
 5564POPC   C1A71691  28.992  29.203   6.228
 5564POPC   D2A71692  29.132  29.292   6.653
 5564POPC   C3A71693  28.937  29.014   6.952
 5564POPC   C4A71694  28.742  29.003   7.339
 5564POPC   C1B71695  29.522  29.116   6.261
 5564POPC   C2B71696  29.561  29.014   6.714
 5564POPC   C3B71697  29.389  29.174   7.098
 5564POPC   C4B71698  29.329  28.886   7.427
 5565POPC   NC371699  22.552  10.977   5.468
 5565POPC   PO471700  22.964  10.444   5.233
 5565POPC   GL171701  22.839  10.573   5.630
 5565POPC   GL271702  22.573  10.348   5.706
 5565POPC   C1A71703  22.923  10.741   6.051
 5565POPC   D2A71704  22.799  10.746   6.490
 5565POPC   C3A71705  23.109  10.670   6.813
 5565POPC   C4A71706  23.180  10.799   7.251
 5565POPC   C1B71707  22.626  10.322   6.160
 5565POPC   C2B71708  22.833  10.239   6.573
 5565POPC   C3B71709  22.714  10.349   7.000
 5565POPC   C4B71710  22.794  10.447   7.450
 5566POPC   NC371711  32.260  21.925   5.185
 5566POPC   PO471712  31.932  22.292   5.681
 5566POPC   GL171713  32.306  22.104   5.792
 5566POPC   GL271714  32.389  21.744   5.638
 5566POPC   C1A71715  32.432  22.229   6.216
 5566POPC   D2A71716  32.657  22.226   6.602
 5566POPC   C3A71717  32.467  22.412   6.954
 5566POPC   C4A71718  32.252  22.196   7.242
 5566POPC   C1B71719  32.562  21.727   6.050
 5566POPC   C2B71720  32.394  21.779   6.454
 5566POPC   C3B71721  32.396  21.871   6.883
 5566POPC   C4B71722  32.180  21.698   7.240
 5567POPC   NC371723  28.891  37.617   4.982
 5567POPC   PO471724  29.066  38.024   5.504
 5567POPC   GL171725  29.219  37.572   5.694
 5567POPC   GL271726  29.255  37.766   5.979
 5567POPC   C1A71727  29.333  37.300   6.112
 5567POPC   D2A71728  29.296  37.491   6.547
 5567POPC   C3A71729  29.411  37.278   6.941
 5567POPC   C4A71730  29.166  37.224   7.318
 5567POPC   C1B71731  29.162  37.975   6.321
 5567POPC   C2B71732  29.399  38.123   6.639
 5567POPC   C3B71733  29.247  38.103   7.019
 5567POPC   C4B71734  29.196  37.696   7.095
 5568POPC   NC371735  26.271  14.483   5.635
 5568POPC   PO471736  26.863  14.476   5.364
 5568POPC   GL171737  26.761  14.538   5.781
 5568POPC   GL271738  26.790  14.225   5.964
 5568POPC   C1A71739  26.889  14.705   6.153
 5568POPC   D2A71740  26.974  14.430   6.492
 5568POPC   C3A71741  26.976  14.577   6.913
 5568POPC   C4A71742  27.102  14.368   7.279
 5568POPC   C1B71743  26.500  14.410   6.301
 5568POPC   C2B71744  26.529  14.402   6.753
 5568POPC   C3B71745  26.587  14.397   7.204
 5568POPC   C4B71746  26.648  14.443   7.637
 5569POPC   NC371747  17.101  25.331   5.415
 5569POPC   PO471748  16.447  25.387   5.160
 5569POPC   GL171749  16.652  25.542   5.597
 5569POPC   GL271750  16.720  25.225   5.786
 5569POPC   C1A71751  16.688  25.628   6.092
 5569POPC   D2A71752  16.870  25.475   6.507
 5569POPC   C3A71753  16.630  25.508   6.917
 5569POPC   C4A71754  16.318  25.662   7.275
 5569POPC   C1B71755  16.780  25.004   6.204
 5569POPC   C2B71756  16.995  24.973   6.623
 5569POPC   C3B71757  16.891  25.059   7.054
 5569POPC   C4B71758  16.540  25.184   7.304
 5570POPC   NC371759   8.467  17.634   5.469
 5570POPC   PO471760   8.246  17.080   5.199
 5570POPC   GL171761   8.092  17.331   5.682
 5570POPC   GL271762   8.273  17.644   5.918
 5570POPC   C1A71763   7.986  17.332   6.191
 5570POPC   D2A71764   7.986  17.101   6.610
 5570POPC   C3A71765   8.234  17.286   6.968
 5570POPC   C4A71766   8.173  17.712   7.124
 5570POPC   C1B71767   8.463  17.888   6.251
 5570POPC   C2B71768   8.377  17.933   6.668
 5570POPC   C3B71769   8.643  17.766   6.949
 5570POPC   C4B71770   8.785  17.363   7.073
 5571POPC   NC371771  37.402  21.056   5.445
 5571POPC   PO471772  38.030  21.226   5.574
 5571POPC   GL171773  37.769  21.037   5.898
 5571POPC   GL271774  37.428  21.103   5.950
 5571POPC   C1A71775  37.775  20.716   6.242
 5571POPC   D2A71776  37.869  20.430   6.598
 5571POPC   C3A71777  37.914  20.597   7.029
 5571POPC   C4A71778  37.762  20.510   7.452
 5571POPC   C1B71779  37.406  21.034   6.373
 5571POPC   C2B71780  37.529  20.856   6.763
 5571POPC   C3B71781  37.505  20.919   7.203
 5571POPC   C4B71782  37.652  21.012   7.613
 5572POPC   NC371783  20.706   1.515   5.403
 5572POPC   PO471784  20.250   1.047   5.278
 5572POPC   GL171785  20.297   1.229   5.672
 5572POPC   GL271786  20.629   1.093   5.710
 5572POPC   C1A71787  20.444   1.475   6.058
 5572POPC   D2A71788  20.464   1.487   6.512
 5572POPC   C3A71789  20.749   1.306   6.819
 5572POPC   C4A71790  20.773   1.205   7.239
 5572POPC   C1B71791  20.453   0.975   6.090
 5572POPC   C2B71792  20.566   0.978   6.488
 5572POPC   C3B71793  20.382   0.949   6.898
 5572POPC   C4B71794  20.454   0.737   7.263
 5573POPC   NC371795  25.522  33.807   5.406
 5573POPC   PO471796  24.847  33.961   5.289
 5573POPC   GL171797  25.178  33.921   5.743
 5573POPC   GL271798  25.236  34.173   5.955
 5573POPC   C1A71799  25.417  33.744   6.129
 5573POPC   D2A71800  25.337  33.841   6.563
 5573POPC   C3A71801  25.521  33.670   6.919
 5573POPC   C4A71802  25.467  33.675   7.326
 5573POPC   C1B71803  24.983  34.056   6.268
 5573POPC   C2B71804  24.846  34.026   6.661
 5573POPC   C3B71805  25.077  33.920   7.017
 5573POPC   C4B71806  25.236  34.176   7.338
 5574POPC   NC371807  20.450  33.686   5.271
 5574POPC   PO471808  20.815  34.141   5.558
 5574POPC   GL171809  20.878  33.901   5.951
 5574POPC   GL271810  20.916  33.539   5.848
 5574POPC   C1A71811  20.595  33.650   6.231
 5574POPC   D2A71812  20.306  33.702   6.560
 5574POPC   C3A71813  20.472  33.788   6.964
 5574POPC   C4A71814  20.428  33.436   7.218
 5574POPC   C1B71815  21.081  33.496   6.293
 5574POPC   C2B71816  20.884  33.602   6.694
 5574POPC   C3B71817  20.940  33.595   7.134
 5574POPC   C4B71818  20.983  34.012   7.273
 5575POPC   NC371819  19.519  15.215   5.124
 5575POPC   PO471820  19.114  14.765   5.249
 5575POPC   GL171821  19.188  14.888   5.718
 5575POPC   GL271822  19.100  15.252   5.775
 5575POPC   C1A71823  19.082  14.972   6.195
 5575POPC   D2A71824  18.862  14.878   6.594
 5575POPC   C3A71825  18.995  15.184   6.900
 5575POPC   C4A71826  19.061  15.334   7.346
 5575POPC   C1B71827  19.393  15.375   6.163
 5575POPC   C2B71828  19.507  15.199   6.593
 5575POPC   C3B71829  19.480  15.370   7.035
 5575POPC   C4B71830  19.529  15.396   7.534
 5576POPC   NC371831  23.301  10.751   5.347
 5576POPC   PO471832  23.932  10.683   5.303
 5576POPC   GL171833  23.769  10.606   5.734
 5576POPC   GL271834  23.989  10.833   5.897
 5576POPC   C1A71835  23.461  10.515   6.110
 5576POPC   D2A71836  23.460  10.342   6.580
 5576POPC   C3A71837  23.528  10.448   7.046
 5576POPC   C4A71838  23.668  10.729   7.392
 5576POPC   C1B71839  23.933  10.601   6.280
 5576POPC   C2B71840  23.935  10.606   6.743
 5576POPC   C3B71841  24.044  10.444   7.154
 5576POPC   C4B71842  23.894  10.327   7.567
 5577POPC   NC371843   2.985  40.931   5.636
 5577POPC   PO471844   2.283  41.065   5.532
 5577POPC   GL171845   2.489  40.711   5.777
 5577POPC   GL271846   2.818  40.476   5.836
 5577POPC   C1A71847   2.588  40.784   6.207
 5577POPC   D2A71848   2.477  41.043   6.549
 5577POPC   C3A71849   2.580  40.816   6.904
 5577POPC   C4A71850   2.636  40.930   7.313
 5577POPC   C1B71851   3.083  40.653   6.206
 5577POPC   C2B71852   3.023  40.778   6.636
 5577POPC   C3B71853   3.095  40.984   7.030
 5577POPC   C4B71854   3.112  40.824   7.435
 5578POPC   NC371855  30.114  25.656   5.443
 5578POPC   PO471856  29.577  25.260   5.555
 5578POPC   GL171857  29.631  25.135   5.967
 5578POPC   GL271858  29.676  25.490   6.023
 5578POPC   C1A71859  29.573  25.125   6.416
 5578POPC   D2A71860  29.732  25.252   6.816
 5578POPC   C3A71861  30.141  25.161   6.944
 5578POPC   C4A71862  30.321  24.940   7.236
 5578POPC   C1B71863  30.009  25.377   6.308
 5578POPC   C2B71864  30.180  25.598   6.647
 5578POPC   C3B71865  30.013  25.641   7.037
 5578POPC   C4B71866  29.712  25.474   7.274
 5579POPC   NC371867   3.388  41.694   5.637
 5579POPC   PO471868   3.421  41.098   5.633
 5579POPC   GL171869   3.753  41.339   5.820
 5579POPC   GL271870   3.852  41.717   5.788
 5579POPC   C1A71871   3.753  41.391   6.273
 5579POPC   D2A71872   3.836  41.370   6.713
 5579POPC   C3A71873   3.521  41.442   7.040
 5579POPC   C4A71874   3.421  41.226   7.414
 5579POPC   C1B71875   3.627  41.888   6.192
 5579POPC   C2B71876   3.513  41.747   6.601
 5579POPC   C3B71877   3.569  41.964   6.996
 5579POPC   C4B71878   3.517  41.898   7.417
 5580POPC   NC371879  15.311  28.805   5.379
 5580POPC   PO471880  15.019  28.147   5.255
 5580POPC   GL171881  15.167  28.358   5.615
 5580POPC   GL271882  15.070  28.059   5.771
 5580POPC   C1A71883  15.283  28.455   6.055
 5580POPC   D2A71884  15.249  28.309   6.499
 5580POPC   C3A71885  15.359  28.584   6.863
 5580POPC   C4A71886  15.256  28.542   7.309
 5580POPC   C1B71887  14.896  28.086   6.169
 5580POPC   C2B71888  14.765  28.135   6.612
 5580POPC   C3B71889  14.964  28.218   7.018
 5580POPC   C4B71890  14.948  28.180   7.489
 5581POPC   NC371891  27.759   4.080   5.547
 5581POPC   PO471892  27.285   4.473   5.426
 5581POPC   GL171893  27.445   4.346   5.815
 5581POPC   GL271894  27.769   4.528   5.835
 5581POPC   C1A71895  27.622   4.258   6.240
 5581POPC   D2A71896  27.549   4.457   6.636
 5581POPC   C3A71897  27.760   4.259   6.995
 5581POPC   C4A71898  27.802   4.027   7.364
 5581POPC   C1B71899  27.451   4.742   6.114
 5581POPC   C2B71900  27.154   4.777   6.466
 5581POPC   C3B71901  27.133   4.637   6.894
 5581POPC   C4B71902  27.525   4.696   7.114
 5582POPC   NC371903   6.372  20.125   5.444
 5582POPC   PO471904   6.806  19.734   5.138
 5582POPC   GL171905   6.693  19.782   5.683
 5582POPC   GL271906   6.775  19.519   5.908
 5582POPC   C1A71907   6.472  19.932   6.099
 5582POPC   D2A71908   6.331  19.834   6.557
 5582POPC   C3A71909   6.663  19.923   6.896
 5582POPC   C4A71910   7.104  20.072   6.984
 5582POPC   C1B71911   6.792  19.609   6.370
 5582POPC   C2B71912   7.035  19.569   6.761
 5582POPC   C3B71913   6.829  19.489   7.144
 5582POPC   C4B71914   6.427  19.602   7.231
 5583POPC   NC371915  24.404  39.052   5.360
 5583POPC   PO471916  24.821  39.616   5.561
 5583POPC   GL171917  24.635  39.295   5.825
 5583POPC   GL271918  24.256  39.200   5.831
 5583POPC   C1A71919  24.468  39.361   6.261
 5583POPC   D2A71920  24.333  39.193   6.645
 5583POPC   C3A71921  24.606  39.213   6.982
 5583POPC   C4A71922  24.708  39.618   7.170
 5583POPC   C1B71923  24.076  38.975   6.222
 5583POPC   C2B71924  24.017  38.801   6.678
 5583POPC   C3B71925  24.114  39.065   7.094
 5583POPC   C4B71926  24.389  39.292   7.444
 5584POPC   NC371927  26.868  35.802   5.245
 5584POPC   PO471928  27.056  36.498   5.249
 5584POPC   GL171929  26.908  36.201   5.577
 5584POPC   GL271930  26.554  36.089   5.577
 5584POPC   C1A71931  26.950  35.979   5.990
 5584POPC   D2A71932  27.040  36.112   6.442
 5584POPC   C3A71933  26.872  36.064   6.850
 5584POPC   C4A71934  27.136  35.936   7.179
 5584POPC   C1B71935  26.583  36.350   5.981
 5584POPC   C2B71936  26.541  36.293   6.447
 5584POPC   C3B71937  26.553  36.466   6.876
 5584POPC   C4B71938  26.644  36.416   7.291
 5585POPC   NC371939  33.157  24.790   5.269
 5585POPC   PO471940  33.279  24.208   5.571
 5585POPC   GL171941  33.073  24.322   5.930
 5585POPC   GL271942  32.740  24.401   5.901
 5585POPC   C1A71943  33.068  24.355   6.377
 5585POPC   D2A71944  32.999  24.288   6.799
 5585POPC   C3A71945  33.058  24.698   7.004
 5585POPC   C4A71946  33.499  24.887   7.060
 5585POPC   C1B71947  32.711  24.708   6.217
 5585POPC   C2B71948  32.582  24.796   6.629
 5585POPC   C3B71949  32.561  24.867   7.044
 5585POPC   C4B71950  32.705  24.644   7.392
 5586POPC   NC371951  40.834  35.705   5.329
 5586POPC   PO471952  40.583  36.282   5.137
 5586POPC   GL171953  40.722  36.167   5.606
 5586POPC   GL271954  41.057  36.176   5.789
 5586POPC   C1A71955  40.665  36.093   6.087
 5586POPC   D2A71956  40.909  35.801   6.371
 5586POPC   C3A71957  40.928  35.822   6.838
 5586POPC   C4A71958  40.706  36.046   7.149
 5586POPC   C1B71959  41.195  36.209   6.243
 5586POPC   C2B71960  41.228  36.300   6.724
 5586POPC   C3B71961  41.097  36.446   7.173
 5586POPC   C4B71962  41.228  36.569   7.661
 5587POPC   NC371963  44.796  33.220   5.442
 5587POPC   PO471964  44.138  33.044   5.220
 5587POPC   GL171965  44.311  32.912   5.699
 5587POPC   GL271966  44.655  32.768   5.694
 5587POPC   C1A71967  44.493  33.110   6.146
 5587POPC   D2A71968  44.759  33.413   6.446
 5587POPC   C3A71969  44.668  33.342   6.914
 5587POPC   C4A71970  44.851  33.139   7.281
 5587POPC   C1B71971  44.782  32.698   6.139
 5587POPC   C2B71972  44.628  32.803   6.550
 5587POPC   C3B71973  44.697  32.736   6.985
 5587POPC   C4B71974  44.436  32.863   7.379
 5588POPC   NC371975  12.230   7.000   5.448
 5588POPC   PO471976  11.825   6.483   5.498
 5588POPC   GL171977  11.983   6.680   5.841
 5588POPC   GL271978  11.874   7.034   5.811
 5588POPC   C1A71979  12.168   6.486   6.222
 5588POPC   D2A71980  12.457   6.352   6.544
 5588POPC   C3A71981  12.326   6.294   6.949
 5588POPC   C4A71982  12.234   6.438   7.347
 5588POPC   C1B71983  12.085   6.998   6.223
 5588POPC   C2B71984  12.287   6.844   6.594
 5588POPC   C3B71985  12.262   6.852   7.029
 5588POPC   C4B71986  11.954   6.865   7.338
 5589POPC   NC371987  11.248  12.345   5.385
 5589POPC   PO471988  11.053  11.714   5.361
 5589POPC   GL171989  11.068  12.008   5.752
 5589POPC   GL271990  11.425  12.119   5.824
 5589POPC   C1A71991  11.060  12.127   6.211
 5589POPC   D2A71992  11.298  12.053   6.602
 5589POPC   C3A71993  11.140  11.946   7.005
 5589POPC   C4A71994  11.277  12.021   7.447
 5589POPC   C1B71995  11.642  12.227   6.231
 5589POPC   C2B71996  11.583  12.476   6.625
 5589POPC   C3B71997  11.436  12.387   7.062
 5589POPC   C4B71998  11.741  12.358   7.399
 5590W        W71999  18.499  21.126   4.929
 5591W        W72000  33.155  25.988   0.250
 5592W        W72001  26.683   8.198  13.875
 5593W        W72002  26.956   1.759  12.910
 5594W        W72003   4.918  21.610   2.661
 5595W        W72004  13.392  29.890  11.468
 5596W        W72005   1.463  28.627   0.853
 5597W        W72006  31.771  32.473   4.197
 5598W        W72007  31.973  34.979   1.833
 5599W        W72008  22.082  14.372   0.826
 5600W        W72009   9.285  27.766   4.007
 5601W        W72010  27.959   9.969  14.342
 5602W        W72011   9.415  43.017  14.811
 5603W        W72012   6.448  30.317   9.740
 5604W        W72013  13.536  36.912  10.584
 5605W        W72014  26.100  37.535   0.003
 5606W        W72015   2.731  23.141  14.970
 5607W        W72016  29.615  38.088  13.476
 5608W        W72017   6.634  18.114  13.900
 5609W        W72018  38.391   6.481  11.147
 5610W        W72019  41.489  23.450   2.632
 5611W        W72020   9.554   3.951  12.677
 5612W        W72021  16.779  37.472  14.856
 5613W        W72022  14.048  24.772   2.768
 5614W        W72023  33.427  39.866  10.863
 5615W        W72024   4.224  17.004  13.935
 5616W        W72025  36.360  33.887  13.738
 5617W        W72026  21.963  14.695   3.245
 5618W        W72027   1.685  31.151  11.719
 5619W        W72028  32.868   4.908   1.421
 5620W        W72029  39.053   9.644   1.451
 5621W        W72030  18.806  23.192   4.271
 5622W        W72031  26.052  30.395   0.378
 5623W        W72032  29.873  36.873  13.905
 5624W        W72033  10.602  17.433   4.139
 5625W        W72034  27.107  41.279   1.887
 5626W        W72035   8.469   9.318   0.310
 5627W        W72036  20.426  38.581  11.107
 5628W        W72037  14.554   3.645   0.751
 5629W        W72038  34.984  31.110   3.668
 5630W        W72039  21.456   3.600  10.149
 5631W        W72040   8.220  39.748  11.128
 5632W        W72041  33.013  25.230  10.787
 5633W        W72042   0.470  35.171   0.542
 5634W        W72043  43.740  11.185   1.425
 5635W        W72044  35.200  15.551  12.146
 5636W        W72045   2.704  22.165   0.914
 5637W        W72046   4.844  19.196  11.399
 5638W        W72047  40.637  39.407  14.261
 5639W        W72048  18.676  17.851   3.386
 5640W        W72049   9.193  19.751  12.091
 5641W        W72050  39.636  24.702  14.498
 5642W        W72051  36.878  32.263   9.936
 5643W        W72052   2.329  16.974   3.257
 5644W        W72053  40.933  24.527  14.034
 5645W        W72054  43.469  26.902  12.462
 5646W        W72055   7.852  44.243  13.027
 5647W        W72056  36.575  26.389  10.721
 5648W        W72057  16.522   2.185  11.988
 5649W        W72058   9.825  40.363  10.549
 5650W        W72059  37.149  17.787   1.002
 5651W        W72060  16.147  14.003  12.537
 5652W        W72061  13.863  16.678  10.682
 5653W        W72062  26.229  11.851   3.379
 5654W        W72063  44.962  24.557  13.055
 5655W        W72064  20.204   8.611  13.937
 5656W        W72065  30.151   8.528   2.915
 5657W        W72066   0.264  32.122  12.435
 5658W        W72067  29.760  24.463  14.377
 5659W        W72068   8.339  41.193   4.438
 5660W        W72069   9.257  44.380   3.159
 5661W        W72070  32.309  42.373   2.229
 5662W        W72071  31.139  18.748  14.885
 5663W        W72072   7.259  23.069  11.048
 5664W        W72073  38.929  38.836   4.034
 5665W        W72074  30.980  34.325  12.965
 5666W        W72075  16.097  39.250   1.175
 5667W        W72076   5.441  26.476  13.448
 5668W        W72077  18.630   0.226  12.027
 5669W        W72078  26.716  32.591   4.407
 5670W        W72079  36.791   9.323   1.010
 5671W        W72080  42.363   4.931  11.145
 5672W        W72081  43.288  38.210  12.667
 5673W        W72082   4.288  36.841  12.495
 5674W        W72083  37.854  14.752   2.262
 5675W        W72084  34.958  24.628   4.807
 5676W        W72085  41.073   8.470  13.547
 5677W        W72086  26.905   4.368   4.407
 5678W        W72087  12.701  39.287   2.030
 5679W        W72088   0.808   2.366   3.109
 5680W        W72089   0.351  38.926   4.791
 5681W        W72090  36.696  44.962   3.432
 5682W        W72091  10.549  35.595  14.821
 5683W        W72092   5.375  28.660  11.023
 5684W        W72093  18.286   9.801   1.676
 5685W        W72094  43.806  41.369  12.381
 5686W        W72095  34.476  41.664   3.596
 5687W        W72096  11.657  17.273   4.767
 5688W        W72097  31.458  27.781   3.314
 5689W        W72098   7.332  17.148   0.752
 5690W        W72099  15.125   5.343  13.090
 5691W        W72100  34.353  38.558  12.426
 5692W        W72101   8.882  39.486  11.812
 5693W        W72102  21.114  12.087  13.986
 5694W        W72103  32.945  40.083   3.129
 5695W        W72104  17.385  23.186   2.146
 5696W        W72105  42.755  15.227  14.388
 5697W        W72106  27.159  25.791  13.933
 5698W        W72107  12.831  43.095  14.566
 5699W        W72108   1.797  25.726   4.713
 5700W        W72109   4.342   3.216  11.793
 5701W        W72110  15.509  20.736   2.673
 5702W        W72111  43.337  22.796   0.598
 5703W        W72112  17.056   1.950   3.709
 5704W        W72113  32.930  22.520   1.791
 5705W        W72114  35.551   4.051   5.003
 5706W        W72115  21.883  33.375  13.263
 5707W        W72116  19.263  40.703  13.511
 5708W        W72117  23.503  32.674   1.049
 5709W        W72118  16.065  38.730  13.841
 5710W        W72119   5.134  23.037   4.508
 5711W        W72120  24.618  43.467  11.901
 5712W        W72121  34.871   5.244  11.942
 5713W        W72122  19.495   0.267  12.503
 5714W        W72123  10.598  11.592  13.402
 5715W        W72124   8.143   7.082  11.131
 5716W        W72125  29.498   7.903  11.022
 5717W        W72126   1.018  21.972  13.760
 5718W        W72127  26.498  34.552   4.222
 5719W        W72128   8.779   9.321  13.432
 5720W        W72129   1.722  37.918   2.219
 5721W        W72130  17.002   7.187  12.116
 5722W        W72131   3.941  31.418  11.959
 5723W        W72132  33.387   7.487   1.850
 5724W        W72133  11.377  19.048  12.414
 5725W        W72134  42.328  21.595   1.387
 5726W        W72135  20.083  23.737   1.252
 5727W        W72136  31.316  29.429  14.709
 5728W        W72137   3.760  30.283   0.752
 5729W        W72138  25.992  20.106   1.319
 5730W        W72139  35.314   6.351  13.560
 5731W        W72140  29.049  21.621  11.912
 5732W        W72141   5.061  12.863   1.637
 5733W        W72142  16.107  20.048   4.641
 5734W        W72143  12.095  14.162  14.472
 5735W        W72144  43.426   5.403  11.515
 5736W        W72145   6.313   2.432   1.908
 5737W        W72146  13.146  24.124   0.799
 5738W        W72147  34.835  33.895   2.815
 5739W        W72148  29.071  28.246   1.963
 5740W        W72149  27.899  19.451  13.836
 5741W        W72150   0.302   3.404  13.812
 5742W        W72151  32.049  37.950  12.538
 5743W        W72152  38.989  27.065   2.847
 5744W        W72153  39.365   0.782   3.186
 5745W        W72154  18.213   8.190  14.470
 5746W        W72155   2.297  22.801  10.621
 5747W        W72156  20.308  12.155   2.815
 5748W        W72157  25.774   9.463   0.193
 5749W        W72158  29.946  26.332  13.494
 5750W        W72159   3.924   8.723   3.360
 5751W        W72160   6.777  35.009   5.021
 5752W        W72161   4.224  30.343   3.781
 5753W        W72162  13.200  11.818   1.262
 5754W        W72163  10.400  27.819  12.121
 5755W        W72164  37.422  12.703   4.375
 5756W        W72165  36.875   7.674  10.720
 5757W        W72166   1.967  44.715   3.210
 5758W        W72167   9.853  19.611   1.092
 5759W        W72168  18.796  22.236   1.721
 5760W        W72169  32.036  40.463  12.132
 5761W        W72170  24.429  19.640  12.482
 5762W        W72171  10.042  18.042   1.773
 5763W        W72172   8.836  13.406  12.100
 5764W        W72173   4.012  18.496  14.030
 5765W        W72174  42.493  20.365  13.469
 5766W        W72175  21.691  10.119  12.591
 5767W        W72176  22.033   5.314   3.368
 5768W        W72177  26.642  26.523   1.834
 5769W        W72178  17.109   8.254  12.294
 5770W        W72179  12.858  34.673  14.888
 5771W        W72180  40.391   8.351  12.906
 5772W        W72181  11.584  12.189   1.213
 5773W        W72182   9.322  44.325   1.706
 5774W        W72183  36.594   3.869  13.496
 5775W        W72184  12.122  40.117   3.003
 5776W        W72185  41.951  27.797   0.746
 5777W        W72186   3.697   4.444   1.838
 5778W        W72187   6.826  23.913  12.801
 5779W        W72188  34.622  24.574  12.599
 5780W        W72189  41.378  34.994   4.408
 5781W        W72190  12.273  42.344   2.129
 5782W        W72191  24.736  32.472   4.579
 5783W        W72192   9.278  41.405  11.115
 5784W        W72193   6.119  12.588  11.989
 5785W        W72194  19.814  16.825  12.484
 5786W        W72195   4.931  43.805  12.322
 5787W        W72196  21.848  36.979   2.337
 5788W        W72197   7.365  17.160  10.345
 5789W        W72198  37.049  21.002  13.926
 5790W        W72199  19.048  22.471   3.672
 5791W        W72200   0.343  17.833  12.591
 5792W        W72201  39.947  43.717   3.848
 5793W        W72202  10.094  29.929  10.755
 5794W        W72203  37.536  20.225  13.309
 5795W        W72204   6.643  13.885   2.231
 5796W        W72205  27.908   2.802  13.710
 5797W        W72206  35.107  17.648  11.961
 5798W        W72207  42.434  15.612  11.569
 5799W        W72208   2.268  39.535   1.208
 5800W        W72209  41.985  11.383   4.282
 5801W        W72210  17.700  19.357   4.675
 5802W        W72211  21.616  20.132  13.474
 5803W        W72212   0.296  16.073  12.882
 5804W        W72213  33.353  18.105   4.183
 5805W        W72214  26.845  23.720   4.289
 5806W        W72215  26.676  38.019  11.074
 5807W        W72216  33.223   7.852   1.458
 5808W        W72217  17.269  30.954   1.886
 5809W        W72218  25.117  28.958   4.573
 5810W        W72219   9.750  26.186  12.983
 5811W        W72220  35.992  13.257  10.643
 5812W        W72221  31.130  17.315  11.590
 5813W        W72222  28.185  17.553   0.838
 5814W        W72223   5.173  36.447   4.535
 5815W        W72224   7.348  18.058   4.074
 5816W        W72225  13.527  17.690  14.690
 5817W        W72226   1.638  41.470   3.301
 5818W        W72227  31.472  30.198   0.556
 5819W        W72228  27.362  35.140   0.384
 5820W        W72229   0.910  44.461  14.972
 5821W        W72230  14.520  35.454   4.642
 5822W        W72231   2.515  29.378  14.871
 5823W        W72232   4.451  37.508  10.772
 5824W        W72233  16.680  22.512   3.606
 5825W        W72234  24.430  37.958   3.277
 5826W        W72235  28.217   8.846   2.900
 5827W        W72236  39.012  35.445   2.908
 5828W        W72237  29.349  40.386   0.531
 5829W        W72238   1.950  17.021   2.740
 5830W        W72239  35.943  34.946  12.467
 5831W        W72240  24.114  10.254   5.563
 5832W        W72241  41.077  33.950   1.747
 5833W        W72242  24.120  22.178  14.413
 5834W        W72243  38.098   4.738  11.077
 5835W        W72244   7.608  34.973   1.753
 5836W        W72245   5.681  39.854   0.854
 5837W        W72246  40.775   9.714  13.934
 5838W        W72247  18.062  32.385  14.580
 5839W        W72248  42.711  41.545   0.469
 5840W        W72249  36.924  38.900  13.091
 5841W        W72250  10.794   0.236   2.816
 5842W        W72251  33.440  13.909   2.707
 5843W        W72252  21.625  31.473  12.411
 5844W        W72253  26.027  21.956  12.260
 5845W        W72254   4.511  31.880   1.484
 5846W        W72255  29.929  11.135  11.985
 5847W        W72256  39.910   7.955   3.569
 5848W        W72257   2.734   8.138  12.156
 5849W        W72258  31.129   6.963   1.845
 5850W        W72259  43.745   0.590   3.187
 5851W        W72260   7.513  35.843  10.781
 5852W        W72261  10.630  21.508  11.609
 5853W        W72262  21.890  10.030   4.420
 5854W        W72263  28.475  43.143  10.848
 5855W        W72264   6.399  18.301  11.490
 5856W        W72265   6.764  37.922  11.001
 5857W        W72266  34.308  19.392   2.766
 5858W        W72267  22.615  30.995  12.856
 5859W        W72268  43.069  15.402  11.166
 5860W        W72269   2.544  43.936   1.236
 5861W        W72270   2.974  19.681   1.266
 5862W        W72271  39.005  35.811   1.890
 5863W        W72272  44.874  24.164   2.466
 5864W        W72273  25.400  33.075   1.457
 5865W        W72274   8.291   4.445  11.626
 5866W        W72275   1.086   9.426   3.134
 5867W        W72276   3.541  30.702  12.449
 5868W        W72277   0.812   2.730   3.815
 5869W        W72278   4.899  19.549   1.278
 5870W        W72279  41.983  11.731  13.067
 5871W        W72280  17.614  24.167  14.993
 5872W        W72281  30.322  13.350  13.139
 5873W        W72282   2.372   1.874  12.759
 5874W        W72283  12.261  15.024  12.864
 5875W        W72284  22.056  13.600   4.899
 5876W        W72285  23.516  20.266   2.783
 5877W        W72286   6.222   3.745  14.323
 5878W        W72287  23.003  25.660   3.307
 5879W        W72288  40.350   8.291   1.770
 5880W        W72289  22.293  42.017   1.382
 5881W        W72290  18.607  34.859   3.658
 5882W        W72291  25.922  34.636  14.337
 5883W        W72292  22.191  28.052  12.910
 5884W        W72293  23.749  36.428   2.701
 5885W        W72294  12.504  20.680   0.362
 5886W        W72295  22.920   9.408   1.737
 5887W        W72296  13.781  17.469  11.890
 5888W        W72297  11.833  44.270  10.598
 5889W        W72298  16.290  33.702   0.317
 5890W        W72299  34.670   5.903  13.936
 5891W        W72300   7.701  39.418   4.211
 5892W        W72301  40.555  13.130   2.702
 5893W        W72302   7.940  43.807   0.498
 5894W        W72303  41.366  39.388   2.445
 5895W        W72304  27.897  17.636   1.791
 5896W        W72305  22.210  37.939  12.125
 5897W        W72306  32.119  16.982   4.133
 5898W        W72307   1.803  14.673  12.019
 5899W        W72308  21.511  38.497   3.727
 5900W        W72309   3.712  32.257  14.956
 5901W        W72310  21.688   5.803  10.470
 5902W        W72311  34.502  15.085   4.665
 5903W        W72312  15.552  23.752  14.967
 5904W        W72313  41.948  33.993  14.934
 5905W        W72314  38.189  39.547   1.351
 5906W        W72315   3.361  28.444   0.900
 5907W        W72316  10.236  43.303   1.309
 5908W        W72317   3.116  39.326   2.982
 5909W        W72318  43.993   2.485   0.898
 5910W        W72319  31.436  22.681  13.622
 5911W        W72320   9.247  30.371   2.767
 5912W        W72321  10.383  44.512   2.219
 5913W        W72322  35.406  44.020   0.925
 5914W        W72323  25.095  12.438   4.794
 5915W        W72324  17.209   4.152  14.245
 5916W        W72325  27.536  24.099   0.558
 5917W        W72326   7.841   0.501  11.975
 5918W        W72327  34.933  31.506  11.311
 5919W        W72328  11.101  26.712   0.215
 5920W        W72329  42.308  44.025   3.673
 5921W        W72330   2.333   6.908  14.826
 5922W        W72331  20.894  43.399   3.235
 5923W        W72332  11.292  11.424  12.360
 5924W        W72333   5.082  19.210   2.443
 5925W        W72334  37.452  19.289   1.239
 5926W        W72335  44.931  19.171  11.670
 5927W        W72336  32.471  26.429  14.289
 5928W        W72337   9.778  25.615   0.271
 5929W        W72338  14.191  14.780  13.914
 5930W        W72339   3.054  42.064  11.469
 5931W        W72340  43.342   8.628  13.349
 5932W        W72341  41.695  20.383  13.023
 5933W        W72342  28.243   0.799  14.568
 5934W        W72343  41.842  37.414  12.866
 5935W        W72344  31.927  29.925  12.568
 5936W        W72345  42.822  37.340   2.943
 5937W        W72346  15.008  10.852  14.789
 5938W        W72347  18.243  17.789  12.076
 5939W        W72348  30.108  25.283  11.234
 5940W        W72349  12.461   0.876  13.357
 5941W        W72350  39.957  40.123   0.877
 5942W        W72351  22.553   2.193   3.679
 5943W        W72352   1.283  17.370  12.602
 5944W        W72353  29.675  23.830   3.718
 5945W        W72354  14.432  39.819  14.438
 5946W        W72355   1.441  29.449   2.282
 5947W        W72356  20.103  16.563   1.936
 5948W        W72357  33.218  17.134  11.466
 5949W        W72358   7.656   5.201   4.765
 5950W        W72359  35.361  41.464  10.553
 5951W        W72360  15.756  10.388   3.209
 5952W        W72361  37.955  26.050   4.828
 5953W        W72362  19.808  20.120   4.375
 5954W        W72363   2.322   2.872   2.673
 5955W        W72364  27.444  39.822   0.069
 5956W        W72365  10.976   4.551  10.047
 5957W        W72366  29.693  10.397   1.559
 5958W        W72367  10.215  39.957  11.197
 5959W        W72368  41.832  19.825  13.866
 5960W        W72369   5.820  19.982  14.198
 5961W        W72370   5.983  19.317  13.372
 5962W        W72371  22.507  11.575   0.897
 5963W        W72372  41.438  39.832  11.986
 5964W        W72373   3.753  14.740   4.216
 5965W        W72374  31.670  39.326  13.080
 5966W        W72375   6.920  25.037   2.828
 5967W        W72376   1.043  23.317   1.724
 5968W        W72377  10.754  38.505  12.259
 5969W        W72378  25.989  10.350   1.147
 5970W        W72379   8.524  34.511   4.120
 5971W        W72380   9.982  29.176   2.354
 5972W        W72381   3.138  27.421   0.949
 5973W        W72382  43.298  15.105  12.993
 5974W        W72383  44.430  32.134   2.360
 5975W        W72384  38.999   0.992  12.558
 5976W        W72385  27.924  28.614   4.304
 5977W        W72386  21.526   4.781  10.398
 5978W        W72387  15.564  20.964  13.304
 5979W        W72388  28.514  42.312  14.234
 5980W        W72389  28.774  19.398  11.618
 5981W        W72390  18.035   4.043  10.736
 5982W        W72391  43.551  29.126   2.303
 5983W        W72392  16.653  43.908  13.491
 5984W        W72393  39.295  34.073  13.383
 5985W        W72394  32.056  44.020   2.672
 5986W        W72395   9.444  13.892   3.568
 5987W        W72396  23.992  33.686  12.601
 5988W        W72397  14.448  17.616   3.235
 5989W        W72398  44.845  38.851  13.356
 5990W        W72399   3.691  44.186   2.242
 5991W        W72400  19.667  28.989  12.172
 5992W        W72401  23.470  22.638   3.626
 5993W        W72402  37.555  20.706  12.455
 5994W        W72403  35.241   4.214   2.335
 5995W        W72404  34.070  39.641   1.466
 5996W        W72405  14.802  28.427   3.010
 5997W        W72406  20.593  39.414  12.110
 5998W        W72407  22.679  24.559   0.449
 5999W        W72408  43.516  34.672   3.720
 6000W        W72409  14.217  29.552   3.439
 6001W        W72410  26.585  19.791  12.589
 6002W        W72411  18.034  33.589  12.109
 6003W        W72412  14.193  13.342  13.070
 6004W        W72413   9.918   9.065   4.930
 6005W        W72414  12.150  22.030   2.926
 6006W        W72415  15.052  11.423   3.260
 6007W        W72416  24.585   5.033   2.765
 6008W        W72417  26.902  10.357   1.304
 6009W        W72418   3.755  21.758  13.279
 6010W        W72419   8.387  32.873   0.277
 6011W        W72420  28.154  29.031  10.325
 6012W        W72421  29.956  12.992   1.393
 6013W        W72422  29.155  18.056   2.149
 6014W        W72423  44.432  20.166  12.441
 6015W        W72424  24.038  30.732  12.940
 6016W        W72425  17.362  39.481   2.738
 6017W        W72426  36.182  26.542   4.363
 6018W        W72427   9.181  31.408   2.649
 6019W        W72428  14.207  25.048   3.198
 6020W        W72429  25.870   0.063  11.627
 6021W        W72430  37.974  36.159   0.836
 6022W        W72431  23.109   0.754   0.859
 6023W        W72432  44.850   7.106  11.608
 6024W        W72433  34.363   2.929  14.823
 6025W        W72434  34.489  27.897  12.289
 6026W        W72435   7.264  31.263  12.990
 6027W        W72436  33.832  16.544   3.450
 6028W        W72437  17.515   9.234   1.795
 6029W        W72438  18.453   5.031  14.391
 6030W        W72439  18.559  17.004   0.765
 6031W        W72440  25.539   9.378  11.488
 6032W        W72441  33.108  16.255   2.166
 6033W        W72442  34.704  29.020  13.017
 6034W        W72443  37.489  24.875  13.200
 6035W        W72444  21.625   6.434   2.816
 6036W        W72445  23.770  12.235   0.843
 6037W        W72446  38.637   6.384  12.101
 6038W        W72447  14.752   0.947  12.606
 6039W        W72448  25.314  44.638  12.019
 6040W        W72449  35.579  15.921   0.868
 6041W        W72450   3.278  23.018   3.233
 6042W        W72451  10.096   7.552  14.469
 6043W        W72452   3.580  20.349  12.676
 6044W        W72453   8.138   6.153  11.125
 6045W        W72454  36.910  40.056  14.725
 6046W        W72455   7.726  17.089  14.996
 6047W        W72456  33.350  15.080   1.888
 6048W        W72457  11.697  43.331  14.008
 6049W        W72458   3.753  30.231  14.775
 6050W        W72459  16.340  44.547  14.179
 6051W        W72460  19.635  36.441  10.805
 6052W        W72461  29.821   3.186   4.128
 6053W        W72462  41.393  31.650  14.776
 6054W        W72463  20.648  37.572   0.057
 6055W        W72464  30.060  16.718  13.534
 6056W        W72465  44.843  38.100   3.656
 6057W        W72466  28.957  13.872   2.184
 6058W        W72467   7.479  41.838   0.402
 6059W        W72468  15.835   6.860  10.578
 6060W        W72469   0.814  32.417   4.890
 6061W        W72470  40.328  29.997  14.949
 6062W        W72471  22.697  16.534  12.350
 6063W        W72472  34.922  23.777  11.590
 6064W        W72473  31.538  13.452   0.252
 6065W        W72474  29.869  40.678  13.335
 6066W        W72475  38.149   4.853   0.267
 6067W        W72476  12.807  26.427  10.925
 6068W        W72477  25.298  35.489  13.480
 6069W        W72478  39.422  22.188  13.510
 6070W        W72479  26.134  34.288   3.176
 6071W        W72480   1.384  28.932   2.255
 6072W        W72481  22.176  34.593  10.735
 6073W        W72482  11.622  28.463   4.164
 6074W        W72483   2.729  22.534  10.716
 6075W        W72484   6.709  13.072  11.621
 6076W        W72485  10.329  15.405  13.932
 6077W        W72486  38.422  22.290   4.554
 6078W        W72487   4.608   8.927   4.080
 6079W        W72488  15.804  30.907  10.768
 6080W        W72489   3.028  38.535  12.009
 6081W        W72490  22.633  28.716   2.796
 6082W        W72491   1.726  41.272  12.421
 6083W        W72492  20.828  23.472  12.418
 6084W        W72493  41.012  29.889  14.869
 6085W        W72494  15.511   1.876  12.032
 6086W        W72495  16.196  30.635  12.998
 6087W        W72496  17.129  38.173  11.209
 6088W        W72497  43.228   7.680  13.468
 6089W        W72498   5.856  25.703  13.877
 6090W        W72499  36.126   8.432  14.842
 6091W        W72500   2.731  44.566   3.919
 6092W        W72501  18.503  44.887   4.068
 6093W        W72502   3.429  40.208   1.157
 6094W        W72503   5.634  34.104  12.136
 6095W        W72504   8.494  36.831  12.127
 6096W        W72505  11.135  40.227   1.277
 6097W        W72506  39.926  36.996   1.430
 6098W        W72507  21.582  10.755  11.990
 6099W        W72508  26.701  37.806   1.447
 6100W        W72509  14.862  11.665  14.591
 6101W        W72510  38.358  33.386  11.565
 6102W        W72511  33.771  28.210  12.783
 6103W        W72512  26.863  13.384  14.457
 6104W        W72513   3.842  33.603   2.285
 6105W        W72514  18.666  13.778  13.839
 6106W        W72515  18.814  14.558   2.403
 6107W        W72516  21.713  28.235  12.998
 6108W        W72517  28.134  32.401   0.817
 6109W        W72518  24.743  27.926   0.117
 6110W        W72519  18.961  28.943   1.955
 6111W        W72520  27.712  27.749   0.964
 6112W        W72521  18.938   1.904   2.310
 6113W        W72522  18.222  41.288   0.280
 6114W        W72523  42.236   4.402   3.245
 6115W        W72524  21.517  34.418   2.791
 6116W        W72525  33.309  20.007   1.756
 6117W        W72526  14.897   0.094  13.276
 6118W        W72527   9.452  13.528  14.758
 6119W        W72528  18.544   0.825  13.903
 6120W        W72529  23.272   9.586  13.833
 6121W        W72530  11.440   0.852  12.492
 6122W        W72531  30.862  32.031   4.852
 6123W        W72532  33.537  31.228  13.473
 6124W        W72533  32.416  28.156  14.387
 6125W        W72534  20.864  24.263   2.774
 6126W        W72535  12.951  36.497   1.209
 6127W        W72536  10.176  38.474  12.395
 6128W        W72537  21.561   2.628   2.151
 6129W        W72538   5.828  43.105  14.449
 6130W        W72539  29.926  38.536  12.029
 6131W        W72540  17.512  33.402  10.750
 6132W        W72541  27.530  41.381   3.279
 6133W        W72542  29.527  43.818   0.307
 6134W        W72543  41.619  22.961  12.484
 6135W        W72544  20.665  41.303   1.253
 6136W        W72545  38.785  40.517  12.910
 6137W        W72546  28.266  10.891   2.847
 6138W        W72547  42.870   8.244  10.763
 6139W        W72548  19.700  21.024  12.310
 6140W        W72549  14.212   0.474  12.830
 6141W        W72550   8.275  41.974  14.890
 6142W        W72551  42.090   8.560   3.616
 6143W        W72552  34.120  43.979  13.334
 6144W        W72553  33.426  30.500   4.068
 6145W        W72554  14.814  11.876   0.388
 6146W        W72555   3.820   5.890   1.882
 6147W        W72556  17.787  33.416   3.165
 6148W        W72557   4.692  32.748   0.237
 6149W        W72558   1.340  34.559   2.239
 6150W        W72559   6.594   4.525   1.372
 6151W        W72560   1.354  20.705  13.324
 6152W        W72561   0.847   1.001  11.463
 6153W        W72562  14.600  31.169   3.345
 6154W        W72563  31.479  40.306   2.240
 6155W        W72564  26.521  30.807  13.826
 6156W        W72565  32.161  26.043  12.953
 6157W        W72566   1.424  23.607  11.221
 6158W        W72567  38.145  30.196   1.781
 6159W        W72568  14.911   1.783   3.673
 6160W        W72569  40.498  17.746  12.180
 6161W        W72570  19.965  21.306  14.376
 6162W        W72571  39.807  29.336   3.341
 6163W        W72572  43.340  15.565   3.387
 6164W        W72573  16.071   2.254  14.535
 6165W        W72574  26.788  20.729   2.310
 6166W        W72575  29.885  31.491  14.504
 6167W        W72576   8.243  23.660  10.287
 6168W        W72577  42.915  41.317  12.609
 6169W        W72578  35.112   2.602   3.133
 6170W        W72579  28.702   2.184  11.529
 6171W        W72580  18.712  38.689  10.185
 6172W        W72581   9.123  40.283  13.808
 6173W        W72582  19.532  26.517  11.823
 6174W        W72583  39.396  28.952   3.650
 6175W        W72584  32.438   6.622   3.762
 6176W        W72585  34.955  12.085   0.770
 6177W        W72586  18.408  39.572  11.410
 6178W        W72587  41.826  15.250  12.525
 6179W        W72588   7.267  41.965   2.790
 6180W        W72589  20.851  13.414  13.835
 6181W        W72590  19.753  41.637   4.050
 6182W        W72591   7.697  35.560   3.060
 6183W        W72592  39.664   9.612   1.225
 6184W        W72593  28.894  12.149  13.390
 6185W        W72594  14.577  16.569  14.982
 6186W        W72595  22.989  43.999  13.989
 6187W        W72596  37.631  18.601   1.001
 6188W        W72597   1.318  44.586   1.348
 6189W        W72598  37.674   2.003  14.815
 6190W        W72599  30.977   1.283  12.345
 6191W        W72600  42.055   9.198  13.912
 6192W        W72601  12.180  15.831   2.388
 6193W        W72602  32.341   8.349   4.679
 6194W        W72603  41.443  43.249   0.825
 6195W        W72604  22.192  13.753   1.459
 6196W        W72605  14.265   1.838  10.507
 6197W        W72606  21.898   6.962   1.404
 6198W        W72607  12.745   7.454  14.282
 6199W        W72608  12.821   8.204   3.233
 6200W        W72609  21.790  10.205   2.276
 6201W        W72610  35.357   0.052  10.683
 6202W        W72611   7.283  25.416   1.986
 6203W        W72612  13.341  32.000  10.640
 6204W        W72613  20.340  24.578  11.104
 6205W        W72614  34.257  16.792   3.262
 6206W        W72615  26.831   5.350  14.799
 6207W        W72616   8.201   2.796   0.753
 6208W        W72617  27.068   8.730  12.067
 6209W        W72618  10.508  32.515   3.661
 6210W        W72619  33.924  30.143   3.359
 6211W        W72620  16.335   6.712   3.094
 6212W        W72621   7.658  19.171   0.885
 6213W        W72622  36.220  44.465  14.318
 6214W        W72623  23.950   1.543  11.243
 6215W        W72624  36.103  27.342   1.460
 6216W        W72625   6.878  38.509   1.958
 6217W        W72626  16.358  43.115   1.964
 6218W        W72627  35.969  16.105   2.691
 6219W        W72628   2.152  24.011   1.614
 6220W        W72629  39.834  32.057  11.491
 6221W        W72630  22.767   7.549  12.618
 6222W        W72631   1.955  24.996   0.228
 6223W        W72632  13.210   1.775  14.912
 6224W        W72633  20.349  20.795   3.278
 6225W        W72634  39.879  25.605  12.412
 6226W        W72635  22.772  16.123  12.730
 6227W        W72636  31.570  20.452   0.614
 6228W        W72637   1.754  44.089  11.130
 6229W        W72638  29.453  36.942   0.391
 6230W        W72639  41.090  26.643  14.222
 6231W        W72640  16.813  34.212  11.874
 6232W        W72641  16.843  44.689  11.378
 6233W        W72642  25.053  23.367   3.077
 6234W        W72643  15.758  13.153   0.921
 6235W        W72644  37.679  33.133   3.734
 6236W        W72645   2.708   9.625  10.496
 6237W        W72646  15.083  15.110   1.404
 6238W        W72647  13.821   3.517  13.350
 6239W        W72648  35.780  42.343   3.883
 6240W        W72649  13.341  25.550  12.112
 6241W        W72650  41.084  31.110  11.999
 6242W        W72651  22.418  44.886  13.790
 6243W        W72652  35.861  28.027  13.529
 6244W        W72653  41.760  14.711  12.910
 6245W        W72654  16.246  37.006  14.016
 6246W        W72655  44.394  44.993  13.005
 6247W        W72656  21.165  15.749  13.080
 6248W        W72657   1.639  31.326  14.364
 6249W        W72658  27.581  40.749  13.781
 6250W        W72659  43.833  24.443   0.193
 6251W        W72660  31.570  40.261  12.964
 6252W        W72661  37.064   7.085   0.364
 6253W        W72662  41.726  26.360   2.617
 6254W        W72663  25.954   7.223  14.861
 6255W        W72664  20.558  27.173  11.216
 6256W        W72665  15.302   4.786   4.456
 6257W        W72666   3.928   9.728  12.601
 6258W        W72667   6.958  22.362  10.896
 6259W        W72668  20.446  31.814   1.922
 6260W        W72669  21.176  19.561  10.331
 6261W        W72670  24.468  24.266  14.933
 6262W        W72671  14.651  35.342   3.742
 6263W        W72672   1.885  32.119  14.038
 6264W        W72673  32.145  22.262  12.060
 6265W        W72674  12.182  26.695   3.202
 6266W        W72675  37.329  18.531   3.679
 6267W        W72676   5.776   0.787   1.950
 6268W        W72677  17.038  37.316   2.247
 6269W        W72678  39.770  23.761  14.321
 6270W        W72679  36.559  28.601   3.313
 6271W        W72680  37.918  27.131  10.953
 6272W        W72681  18.945  39.760  11.533
 6273W        W72682  30.857  29.688  10.360
 6274W        W72683  27.373  31.437   0.214
 6275W        W72684  40.508  44.583  14.486
 6276W        W72685  16.829   4.445  12.323
 6277W        W72686  43.997   3.218   2.298
 6278W        W72687  16.099  31.685   2.939
 6279W        W72688  13.371  14.827  14.872
 6280W        W72689  16.805  21.958   1.868
 6281W        W72690   7.601  31.869   2.787
 6282W        W72691  13.842  12.865  10.619
 6283W        W72692   5.533   4.741  13.458
 6284W        W72693  14.454  32.158  13.458
 6285W        W72694   8.596  31.968   1.470
 6286W        W72695  44.443  35.121   4.628
 6287W        W72696  18.105  14.698   2.862
 6288W        W72697  10.603   3.492  12.872
 6289W        W72698  11.603   9.410   2.311
 6290W        W72699  23.536  25.216   4.111
 6291W        W72700  29.618  10.647  10.359
 6292W        W72701  31.029  14.915  13.397
 6293W        W72702   7.194   7.530  10.932
 6294W        W72703  31.293  19.433   1.857
 6295W        W72704  44.709  25.061   3.937
 6296W        W72705  33.180   9.236   4.271
 6297W        W72706  35.755  25.924  12.990
 6298W        W72707  11.471  25.416   5.000
 6299W        W72708  20.269  33.563  14.390
 6300W        W72709  36.580  11.304   1.681
 6301W        W72710  21.010   9.595  13.801
 6302W        W72711  13.663  23.515  14.360
 6303W        W72712  12.952   3.287   2.295
 6304W        W72713   1.862   4.415  12.494
 6305W        W72714  27.586   4.486   0.288
 6306W        W72715  28.418  40.856  12.991
 6307W        W72716  11.344  17.580  11.403
 6308W        W72717  11.599  39.080  11.604
 6309W        W72718   1.067   8.982   2.288
 6310W        W72719  37.641  35.570   2.751
 6311W        W72720  24.758  34.494   2.847
 6312W        W72721   0.683   6.883   1.766
 6313W        W72722  17.308  38.518   0.970
 6314W        W72723  27.985  17.271   0.254
 6315W        W72724  19.107  16.662   4.589
 6316W        W72725  37.403  14.351  11.604
 6317W        W72726  12.642  40.384   1.478
 6318W        W72727  27.757  18.128   2.303
 6319W        W72728  25.488  32.496  11.316
 6320W        W72729  14.637  38.117   1.621
 6321W        W72730  36.063  19.980   3.852
 6322W        W72731  34.114   4.575   4.493
 6323W        W72732  29.094   8.172   2.588
 6324W        W72733  34.014  39.614   3.188
 6325W        W72734  21.590  25.677   4.108
 6326W        W72735   1.920  19.811   0.328
 6327W        W72736  30.451  12.674  10.810
 6328W        W72737  11.121  37.482  12.577
 6329W        W72738  17.819  39.938   4.557
 6330W        W72739  44.363  29.174  10.612
 6331W        W72740  33.132  10.174  13.557
 6332W        W72741  36.902  14.618   1.241
 6333W        W72742  31.917  30.920  14.358
 6334W        W72743  34.607   2.463  13.937
 6335W        W72744   1.951   4.844   0.672
 6336W        W72745   1.990   0.861  10.706
 6337W        W72746  22.181  43.348  14.320
 6338W        W72747   1.334  29.190  12.337
 6339W        W72748  27.251  15.155   0.727
 6340W        W72749  24.750  24.297   1.196
 6341W        W72750  17.358  40.061   3.776
 6342W        W72751  28.559  32.618  14.483
 6343W        W72752  32.176  14.230   0.954
 6344W        W72753  42.467  31.384  10.573
 6345W        W72754  21.945  29.159  11.413
 6346W        W72755  39.748   7.613  10.641
 6347W        W72756  21.212  44.710  13.454
 6348W        W72757  23.514   7.352  14.870
 6349W        W72758  39.281   2.841   0.904
 6350W        W72759  15.369  27.302   3.086
 6351W        W72760   9.725   8.899  11.084
 6352W        W72761  12.545  35.935   0.010
 6353W        W72762  36.390  10.072   4.151
 6354W        W72763  12.421  21.980   1.324
 6355W        W72764  18.337   4.864   3.573
 6356W        W72765  42.447   1.436   0.703
 6357W        W72766  12.382  17.594  13.988
 6358W        W72767  21.154  21.301  14.809
 6359W        W72768  26.602  34.557   1.332
 6360W        W72769  34.177   1.408  12.331
 6361W        W72770  27.546  41.891   3.518
 6362W        W72771  14.898  20.743  11.282
 6363W        W72772   5.317  36.997  11.626
 6364W        W72773  29.236  27.488   1.727
 6365W        W72774  24.694  27.459   3.146
 6366W        W72775  44.342  23.129  11.989
 6367W        W72776  35.623  20.230  13.349
 6368W        W72777  41.048   4.259   3.198
 6369W        W72778  10.030   7.371  13.533
 6370W        W72779  22.908  26.580  14.987
 6371W        W72780  34.860   0.000  13.137
 6372W        W72781   2.610  44.026  12.897
 6373W        W72782  33.634  40.726   4.123
 6374W        W72783  14.644  41.004   0.018
 6375W        W72784   7.413   2.772  13.626
 6376W        W72785  31.459  36.021   3.116
 6377W        W72786  28.094  27.578  13.352
 6378W        W72787  29.072  12.572   4.215
 6379W        W72788  25.701   9.221  14.762
 6380W        W72789  38.498   9.019  14.406
 6381W        W72790   5.912  30.661  14.090
 6382W        W72791  16.538  40.184   1.322
 6383W        W72792  37.453   2.451   3.188
 6384W        W72793   4.505   8.605   1.300
 6385W        W72794  30.921  30.455   0.666
 6386W        W72795  10.691  21.102   9.984
 6387W        W72796  12.782   0.891  14.628
 6388W        W72797  19.346   4.216  13.314
 6389W        W72798   5.201  39.459   4.399
 6390W        W72799  31.844   4.701  11.206
 6391W        W72800  38.766  26.492   4.614
 6392W        W72801   8.769   2.815  13.875
 6393W        W72802   6.420  15.217  13.496
 6394W        W72803  10.526  29.583   2.808
 6395W        W72804  10.105  23.350  13.145
 6396W        W72805   4.012  23.969   0.872
 6397W        W72806   7.933   8.759  10.539
 6398W        W72807  19.505  33.153  13.678
 6399W        W72808  15.593  10.632  13.912
 6400W        W72809  13.328  39.321  12.561
 6401W        W72810  44.876  22.980  13.969
 6402W        W72811  18.609  35.576   3.140
 6403W        W72812   3.385  41.826   0.228
 6404W        W72813  38.357  22.255   0.960
 6405W        W72814  21.076   9.259   1.519
 6406W        W72815  40.464   6.219  11.137
 6407W        W72816  31.130  38.819  12.547
 6408W        W72817  24.859   7.736  11.095
 6409W        W72818  10.269   3.519  12.432
 6410W        W72819  15.218  24.624  12.626
 6411W        W72820  22.186  14.373  13.951
 6412W        W72821  32.558  18.381  12.434
 6413W        W72822  39.630  43.156  11.677
 6414W        W72823  40.814  40.535  13.546
 6415W        W72824  31.059  28.886  10.597
 6416W        W72825  10.863   5.855  10.863
 6417W        W72826  36.837  23.059   3.674
 6418W        W72827  12.191  15.588  13.193
 6419W        W72828  38.371  17.920   1.853
 6420W        W72829  32.492  42.039   3.784
 6421W        W72830  17.524   1.154  11.281
 6422W        W72831  26.843  31.912  12.038
 6423W        W72832   4.714  41.315   0.824
 6424W        W72833   9.721  33.372  14.815
 6425W        W72834  24.097  11.671  13.198
 6426W        W72835  27.903  24.453   3.706
 6427W        W72836  25.158   6.725  12.669
 6428W        W72837  27.930   3.674   1.469
 6429W        W72838  20.692  24.232   1.851
 6430W        W72839  22.608  28.445   4.194
 6431W        W72840  41.804  19.273   0.793
 6432W        W72841  24.180  32.167   1.000
 6433W        W72842  27.969  36.399   3.255
 6434W        W72843  35.528   2.925   3.858
 6435W        W72844   0.409  21.499   2.425
 6436W        W72845  35.397   6.296  12.061
 6437W        W72846  41.309  34.391   3.709
 6438W        W72847  15.142  15.633   2.110
 6439W        W72848   6.697  16.422  13.130
 6440W        W72849   5.280  13.594  14.594
 6441W        W72850  36.837  25.880   3.707
 6442W        W72851  10.379   4.025   1.863
 6443W        W72852  13.454   2.239   3.621
 6444W        W72853  42.863   8.337   1.834
 6445W        W72854  33.372  32.302   4.077
 6446W        W72855  31.953  44.206   3.172
 6447W        W72856  26.275   4.398  13.225
 6448W        W72857  19.759  41.426   2.739
 6449W        W72858  30.720  25.541  12.156
 6450W        W72859  18.776  20.130   2.259
 6451W        W72860  16.254  31.163  11.589
 6452W        W72861  41.853  42.961  11.435
 6453W        W72862  35.452  32.484   1.298
 6454W        W72863   2.945  20.654   3.693
 6455W        W72864  31.920  19.805   4.852
 6456W        W72865  32.368   4.720  13.926
 6457W        W72866  27.388  44.734  10.846
 6458W        W72867   0.759  31.857   1.632
 6459W        W72868  43.254  19.615  12.494
 6460W        W72869  31.517   6.026  13.253
 6461W        W72870  20.002   0.689   1.319
 6462W        W72871  17.095   9.378   3.997
 6463W        W72872  24.663  44.565  11.072
 6464W        W72873  31.154  24.512   1.222
 6465W        W72874  16.729  25.729   4.113
 6466W        W72875  14.793   6.784   4.281
 6467W        W72876  25.412  14.904   1.357
 6468W        W72877  35.983  18.552  11.042
 6469W        W72878  12.019   1.455   4.448
 6470W        W72879  26.946   2.065  12.466
 6471W        W72880  26.564  39.401  13.481
 6472W        W72881  19.724  39.380  14.003
 6473W        W72882  33.913  39.143  12.869
 6474W        W72883  30.540   4.858  12.628
 6475W        W72884  14.605  16.635  13.132
 6476W        W72885   7.588  43.214  13.797
 6477W        W72886  25.581   9.637  11.952
 6478W        W72887  42.635  30.575   2.274
 6479W        W72888  31.111  12.393  10.780
 6480W        W72889  28.597  35.526  14.373
 6481W        W72890  19.371   1.910   0.347
 6482W        W72891   5.459   0.235  11.054
 6483W        W72892  18.321   7.237  12.864
 6484W        W72893  10.305  44.206   0.305
 6485W        W72894  37.925  41.546  13.122
 6486W        W72895  18.198  12.683  13.298
 6487W        W72896  17.144   3.269  10.199
 6488W        W72897   6.000  19.802   0.320
 6489W        W72898  30.234  40.256   2.252
 6490W        W72899  39.606  22.747  12.151
 6491W        W72900  15.796  15.178  10.509
 6492W        W72901  32.019   0.546  11.600
 6493W        W72902   6.757  36.481   4.904
 6494W        W72903  29.573  34.437   3.194
 6495W        W72904  42.757  44.564   0.916
 6496W        W72905  23.761  22.107   1.661
 6497W        W72906  27.583  28.147   2.650
 6498W        W72907   9.258   7.617   0.482
 6499W        W72908  39.852  44.590   2.986
 6500W        W72909   7.327   4.807  10.697
 6501W        W72910  38.594  10.216   2.742
 6502W        W72911   6.475   9.590   4.009
 6503W        W72912  40.125   2.355   4.565
 6504W        W72913   7.795  34.021   0.259
 6505W        W72914  24.200   5.157  11.067
 6506W        W72915  44.424  25.042   1.569
 6507W        W72916  29.678  10.144   0.667
 6508W        W72917  40.656   2.403   1.412
 6509W        W72918  15.918  11.692   1.878
 6510W        W72919  16.021   7.098   3.241
 6511W        W72920  36.147  26.112   4.072
 6512W        W72921   1.254  14.052  13.196
 6513W        W72922   3.446  14.592  14.975
 6514W        W72923   9.377  43.465  12.489
 6515W        W72924  19.138   2.045  12.177
 6516W        W72925  33.497  42.487  13.401
 6517W        W72926  40.658   9.213   4.651
 6518W        W72927  27.123  20.230   0.456
 6519W        W72928  37.260  36.369  12.014
 6520W        W72929  20.395  41.166   3.539
 6521W        W72930  21.147  13.270  11.844
 6522W        W72931   9.423  12.735  14.727
 6523W        W72932  37.562  39.539   0.836
 6524W        W72933   0.915  25.002  10.390
 6525W        W72934  10.301  18.562  10.458
 6526W        W72935   3.923   9.086  11.536
 6527W        W72936  29.517  21.603  11.678
 6528W        W72937  34.681  14.732   1.829
 6529W        W72938  19.532  10.660   0.435
 6530W        W72939   5.266   2.012   1.677
 6531W        W72940  19.086   1.503  12.209
 6532W        W72941  35.052  13.287   3.005
 6533W        W72942   0.556  39.421   2.018
 6534W        W72943  43.002  26.504  12.930
 6535W        W72944  27.472  26.744  13.849
 6536W        W72945  33.149  13.190  10.791
 6537W        W72946  20.428   6.485  13.340
 6538W        W72947  19.100  37.273   4.622
 6539W        W72948  31.423  26.242   3.702
 6540W        W72949  29.647  17.311   2.804
 6541W        W72950  19.626   9.522  11.557
 6542W        W72951  11.382  35.200   1.789
 6543W        W72952  39.301  26.974  12.808
 6544W        W72953  44.877   6.616  11.570
 6545W        W72954   6.164  27.210   0.295
 6546W        W72955   4.913  13.839   3.705
 6547W        W72956  19.590  11.794   4.540
 6548W        W72957  10.122  40.467  13.329
 6549W        W72958  13.080  36.452   5.300
 6550W        W72959  37.564   7.193  12.015
 6551W        W72960  14.261  15.425   2.216
 6552W        W72961  10.934  11.617  11.303
 6553W        W72962   9.550  16.702  14.264
 6554W        W72963  39.598  40.893  12.051
 6555W        W72964   4.913  13.462  13.401
 6556W        W72965   3.519  21.592  10.980
 6557W        W72966  10.717  43.527  14.025
 6558W        W72967   0.953  24.173   5.179
 6559W        W72968   3.808   6.083  11.171
 6560W        W72969  28.615  11.006  13.510
 6561W        W72970  44.897  36.896  14.179
 6562W        W72971  20.764   5.855  13.842
 6563W        W72972   1.330   2.548  12.546
 6564W        W72973  27.477  39.914  14.540
 6565W        W72974   8.251   2.255  12.871
 6566W        W72975   0.246  14.412  12.737
 6567W        W72976  32.031  14.073  10.329
 6568W        W72977  29.549   8.391   2.739
 6569W        W72978  36.080  40.916   3.665
 6570W        W72979  20.540  22.609   4.070
 6571W        W72980   7.584  35.067   3.203
 6572W        W72981  18.551  36.366   1.777
 6573W        W72982  24.198   6.285   2.826
 6574W        W72983   8.789  27.145   5.018
 6575W        W72984  21.147   8.938  13.547
 6576W        W72985  37.515  17.656   0.591
 6577W        W72986   8.140  11.662  13.440
 6578W        W72987  18.798  13.585  14.355
 6579W        W72988   5.498  35.585   0.375
 6580W        W72989  24.967  33.560  11.387
 6581W        W72990  10.917  27.441   2.407
 6582W        W72991   0.411  10.682   2.312
 6583W        W72992  27.669  42.356   4.266
 6584W        W72993  38.379  20.406   4.155
 6585W        W72994  28.241  38.245  13.405
 6586W        W72995  15.004  14.109   0.419
 6587W        W72996   6.453  17.292  12.496
 6588W        W72997   7.178  43.548   3.584
 6589W        W72998  20.714  33.423   4.480
 6590W        W72999  42.587   5.352  11.312
 6591W        W73000  39.251  39.809  14.809
 6592W        W73001   3.862  19.560  11.152
 6593W        W73002  26.642  27.527   4.628
 6594W        W73003  16.131  41.840  11.918
 6595W        W73004   5.341  10.844  12.910
 6596W        W73005  40.009  24.793  12.112
 6597W        W73006  34.994  33.940  11.644
 6598W        W73007   3.101   1.961  11.602
 6599W        W73008   8.122  33.703  12.637
 6600W        W73009  35.906   0.045   1.545
 6601W        W73010  20.978  17.295   0.155
 6602W        W73011  37.256   9.484   4.413
 6603W        W73012  30.030  14.170   3.409
 6604W        W73013  16.709  19.822  14.596
 6605W        W73014  21.593  29.548  13.885
 6606W        W73015  23.554  44.031   1.658
 6607W        W73016  21.581  36.330  10.465
 6608W        W73017   8.890  32.817  11.971
 6609W        W73018   0.818   1.936   2.842
 6610W        W73019  40.424  39.386  12.515
 6611W        W73020  37.475  22.471  13.013
 6612W        W73021  24.550   7.563   4.069
 6613W        W73022  21.509  35.138  14.340
 6614W        W73023  14.910   4.111  14.288
 6615W        W73024  44.201  32.930  13.042
 6616W        W73025  44.533  41.008  13.445
 6617W        W73026   4.323  10.098   4.704
 6618W        W73027  30.012  29.370  11.444
 6619W        W73028  12.208  18.027   4.670
 6620W        W73029  35.911  34.063  11.960
 6621W        W73030   7.673  43.548  12.325
 6622W        W73031  11.836   7.289   2.665
 6623W        W73032   8.451  18.253   2.822
 6624W        W73033   6.522  28.444  14.851
 6625W        W73034  32.442   7.485   0.524
 6626W        W73035  32.296  10.417   2.213
 6627W        W73036  42.399   0.016   2.753
 6628W        W73037   3.189   5.413   1.373
 6629W        W73038  37.487   5.976  11.160
 6630W        W73039  11.705  20.011  11.388
 6631W        W73040  20.656  18.093   3.365
 6632W        W73041  13.656  20.672  11.269
 6633W        W73042  35.652   6.393   0.717
 6634W        W73043  11.369   3.157   4.023
 6635W        W73044   5.444   8.406   0.350
 6636W        W73045   2.484  12.796   0.310
 6637W        W73046  24.109  13.895   4.197
 6638W        W73047   6.689  26.864   1.350
 6639W        W73048  14.385  41.994  14.991
 6640W        W73049  43.554  21.220   2.230
 6641W        W73050  30.964  20.772   3.553
 6642W        W73051  27.975  15.143  13.750
 6643W        W73052  16.561  24.575   4.135
 6644W        W73053  20.126  24.125   2.880
 6645W        W73054  11.444  15.264   1.103
 6646W        W73055  44.432   8.783  13.995
 6647W        W73056  22.651  36.395  13.930
 6648W        W73057  21.006   0.401  12.134
 6649W        W73058  42.481  25.945   1.915
 6650W        W73059  39.764   7.140  12.916
 6651W        W73060  33.250   8.351   1.580
 6652W        W73061  39.624  27.329   0.269
 6653W        W73062  34.858  40.247   3.288
 6654W        W73063  14.910  26.541   4.559
 6655W        W73064  10.526  16.132   4.304
 6656W        W73065  31.102   3.300   1.511
 6657W        W73066  31.472   6.614  12.164
 6658W        W73067  15.616   4.604  10.320
 6659W        W73068   9.682  33.918  12.226
 6660W        W73069   6.934   2.382   2.142
 6661W        W73070  41.426   6.357   3.393
 6662W        W73071  43.413  21.569   0.509
 6663W        W73072  33.316  30.608   0.511
 6664W        W73073  31.690   5.809  11.053
 6665W        W73074  42.078  41.949  12.102
 6666W        W73075   2.524   5.582  11.314
 6667W        W73076  14.373  44.059   0.798
 6668W        W73077  27.965  17.197  10.769
 6669W        W73078  37.823  34.603  11.930
 6670W        W73079   9.406  14.924  13.908
 6671W        W73080  40.074  17.910  14.927
 6672W        W73081  21.879  34.119   3.814
 6673W        W73082  35.964  13.948   0.314
 6674W        W73083   0.233  39.477  14.750
 6675W        W73084  33.674  25.505  13.449
 6676W        W73085  19.311   2.990   4.650
 6677W        W73086   3.321  35.942   3.790
 6678W        W73087  15.664  27.948   0.626
 6679W        W73088  10.733  33.236   2.203
 6680W        W73089  24.461  35.980   3.872
 6681W        W73090  11.271  40.709   1.136
 6682W        W73091  26.958  26.758   0.869
 6683W        W73092   3.168  42.222   2.344
 6684W        W73093  30.055  31.989  14.527
 6685W        W73094   0.769  42.592  13.046
 6686W        W73095  28.414  13.929  13.575
 6687W        W73096  35.990  15.124   3.630
 6688W        W73097  35.412  20.229   0.774
 6689W        W73098  15.165   4.589   3.997
 6690W        W73099  13.534  30.516   2.186
 6691W        W73100   6.180  40.328   1.585
 6692W        W73101  40.081  35.077   1.198
 6693W        W73102  25.091  38.325  11.610
 6694W        W73103  19.793   7.677  13.996
 6695W        W73104   4.576  44.826  11.254
 6696W        W73105  22.884  25.179  10.209
 6697W        W73106  37.353  28.536   2.256
 6698W        W73107  42.911  19.185   2.394
 6699W        W73108   3.310   3.163   3.791
 6700W        W73109  15.106  11.605  12.965
 6701W        W73110  14.128  32.403  13.795
 6702W        W73111  23.512  41.963   2.828
 6703W        W73112   1.896   2.781  11.265
 6704W        W73113  27.391  13.866   3.635
 6705W        W73114  19.284  29.436  14.924
 6706W        W73115  41.885   8.165   5.217
 6707W        W73116  33.574  20.939   4.089
 6708W        W73117  36.331  29.180  14.486
 6709W        W73118  14.320   5.865   3.785
 6710W        W73119  24.697  24.165  14.452
 6711W        W73120  18.821   5.521  13.436
 6712W        W73121  16.036  17.104  12.437
 6713W        W73122  40.472  15.544  11.425
 6714W        W73123  42.745   2.672  12.088
 6715W        W73124  19.270   4.995   0.060
 6716W        W73125  31.526   6.861   3.800
 6717W        W73126  27.794  25.658   4.257
 6718W        W73127  26.701   0.330  10.636
 6719W        W73128   8.635  24.332   0.814
 6720W        W73129  16.922   4.503   2.899
 6721W        W73130   0.239  17.982   0.702
 6722W        W73131  29.771  40.822  11.922
 6723W        W73132  16.993  38.964  11.541
 6724W        W73133  35.906   7.605  12.141
 6725W        W73134  20.117  13.415  13.352
 6726W        W73135  34.936  40.955   2.760
 6727W        W73136  32.962  40.059  13.544
 6728W        W73137  32.190   4.244   2.282
 6729W        W73138   5.498  20.437  11.199
 6730W        W73139  43.235  15.215   0.042
 6731W        W73140  20.255  44.733   3.656
 6732W        W73141   9.164  20.556   2.869
 6733W        W73142  41.992  24.121   2.003
 6734W        W73143  32.032  19.844   3.762
 6735W        W73144  42.801   9.307   2.420
 6736W        W73145   5.895  18.785   5.000
 6737W        W73146  25.647  34.538   3.130
 6738W        W73147  39.417   6.419  14.877
 6739W        W73148  10.121  28.757  12.872
 6740W        W73149  10.222   3.711   2.284
 6741W        W73150  37.598  20.666   1.727
 6742W        W73151  18.739  40.465  14.266
 6743W        W73152  19.216  40.069  14.389
 6744W        W73153  38.812   9.498  10.330
 6745W        W73154  34.501  20.052   4.169
 6746W        W73155  37.026   4.793   9.912
 6747W        W73156  31.506  35.553  12.749
 6748W        W73157   5.645  30.001   3.619
 6749W        W73158  40.478  15.631   3.620
 6750W        W73159  36.344   4.726   1.402
 6751W        W73160  15.396  29.012  11.633
 6752W        W73161  11.704  41.902  13.837
 6753W        W73162  22.944  22.602  14.859
 6754W        W73163   8.674  34.405   2.749
 6755W        W73164  40.824  28.040  10.240
 6756W        W73165  25.947  10.179  14.042
 6757W        W73166  37.598  42.984  14.683
 6758W        W73167  19.026  16.846   1.177
 6759W        W73168   9.621  36.222  12.128
 6760W        W73169  10.830  14.197   2.918
 6761W        W73170  24.129  43.292  13.814
 6762W        W73171  38.403   1.432   3.293
 6763W        W73172   3.274  35.937   4.751
 6764W        W73173  12.179  16.572  14.830
 6765W        W73174  29.975  11.694   1.299
 6766W        W73175  31.135  43.932  14.769
 6767W        W73176  23.180  35.283  14.480
 6768W        W73177  43.194   7.950   2.822
 6769W        W73178  20.041  31.107  13.971
 6770W        W73179  35.919   9.475   4.587
 6771W        W73180  39.605  14.866  10.703
 6772W        W73181  22.109  44.815   1.173
 6773W        W73182  12.397   9.912   1.727
 6774W        W73183  27.596  10.648   1.338
 6775W        W73184  41.874   9.381   1.845
 6776W        W73185  17.565  30.878  12.540
 6777W        W73186  23.506  15.638  10.888
 6778W        W73187  27.456  12.619   0.338
 6779W        W73188   1.886  37.577   4.652
 6780W        W73189  42.041  38.056  14.399
 6781W        W73190  42.987  44.381   0.047
 6782W        W73191  13.523   2.777   3.751
 6783W        W73192  31.616  36.825  12.455
 6784W        W73193  20.516  28.542  11.222
 6785W        W73194  21.315  42.984  14.808
 6786W        W73195  12.874  17.256  13.314
 6787W        W73196  32.345   9.348  11.991
 6788W        W73197   2.641   6.692   2.924
 6789W        W73198  22.305  21.599   9.831
 6790W        W73199  36.863  16.113  14.796
 6791W        W73200  27.483  35.901  11.625
 6792W        W73201  30.212   6.014  14.915
 6793W        W73202  23.515  30.529   0.318
 6794W        W73203   5.450  20.658   1.286
 6795W        W73204  18.979   6.929   0.329
 6796W        W73205   9.670   1.043   3.669
 6797W        W73206  22.088  35.037   2.883
 6798W        W73207  27.877  16.804   2.861
 6799W        W73208  16.324  32.152   0.251
 6800W        W73209   8.807  20.244   1.402
 6801W        W73210   9.364  22.309   4.054
 6802W        W73211  42.029  15.094   2.718
 6803W        W73212  38.818  24.127   4.471
 6804W        W73213   8.439   6.293  12.026
 6805W        W73214  18.568  43.386   0.961
 6806W        W73215  13.761  24.626   3.677
 6807W        W73216  16.715  14.367   2.409
 6808W        W73217  37.582  43.571   2.101
 6809W        W73218  27.174  25.344   2.227
 6810W        W73219  37.836  13.821   2.221
 6811W        W73220  40.360  20.726  12.968
 6812W        W73221  28.231   1.017  11.366
 6813W        W73222  14.098  43.776   4.678
 6814W        W73223   9.092  44.840  10.743
 6815W        W73224  18.607  18.241  10.936
 6816W        W73225  11.712  16.664   0.880
 6817W        W73226  15.626   4.312   0.973
 6818W        W73227  19.276  30.187   0.931
 6819W        W73228   0.186  38.987  14.990
 6820W        W73229   6.267  21.048   5.070
 6821W        W73230  22.212  39.798   3.164
 6822W        W73231  14.199  41.309  14.313
 6823W        W73232  37.833  44.902   2.591
 6824W        W73233  10.665   5.680   0.431
 6825W        W73234   1.342  20.718   1.467
 6826W        W73235  16.664  21.747  12.617
 6827W        W73236   9.733   1.317   3.206
 6828W        W73237  12.468  17.691  12.611
 6829W        W73238  16.043  28.410   3.326
 6830W        W73239  29.897   7.464  12.398
 6831W        W73240  42.530   7.706  13.043
 6832W        W73241   7.309  19.786  13.053
 6833W        W73242   0.366  35.313  11.173
 6834W        W73243  11.593  34.381  13.475
 6835W        W73244  30.535  25.532   0.683
 6836W        W73245  21.078   4.351   1.623
 6837W        W73246   1.926  10.141  13.429
 6838W        W73247  23.619  41.178   4.334
 6839W        W73248  21.499  41.839  12.498
 6840W        W73249  12.620   5.672  10.795
 6841W        W73250  17.064   7.365  11.636
 6842W        W73251  40.094   6.006  14.897
 6843W        W73252  17.704  40.915   3.569
 6844W        W73253  33.953  27.209  12.943
 6845W        W73254  23.037  16.628  14.458
 6846W        W73255  10.762   9.322   1.975
 6847W        W73256  25.534  34.479  12.600
 6848W        W73257  33.987   2.421   1.240
 6849W        W73258   9.774  21.200  14.442
 6850W        W73259   3.818  17.824   2.703
 6851W        W73260  37.434  27.536  10.052
 6852W        W73261  23.658  24.909  13.080
 6853W        W73262   2.916   2.412  10.808
 6854W        W73263  19.166  18.547  13.072
 6855W        W73264   3.976  39.782  11.548
 6856W        W73265  13.858  29.667  11.486
 6857W        W73266  28.511  33.945   1.850
 6858W        W73267  41.869  18.424  13.070
 6859W        W73268   1.940  18.264   2.346
 6860W        W73269  13.181  30.878  13.399
 6861W        W73270  36.002  32.575  13.471
 6862W        W73271  32.050  25.716  11.568
 6863W        W73272  22.450  33.606   5.069
 6864W        W73273   1.227   9.550  10.582
 6865W        W73274  44.965  42.068   4.561
 6866W        W73275  31.550   6.941  12.596
 6867W        W73276   1.760  18.715   1.198
 6868W        W73277  43.105  10.321   3.758
 6869W        W73278   1.904   3.975  13.850
 6870W        W73279  21.047  37.284   2.409
 6871W        W73280  18.286  39.598   1.386
 6872W        W73281  13.267  20.563   2.932
 6873W        W73282   4.355  28.436   3.338
 6874W        W73283  40.026   1.637  12.991
 6875W        W73284  10.191  44.694   1.760
 6876W        W73285  15.236   7.333   4.622
 6877W        W73286  20.022  41.517  11.793
 6878W        W73287  36.796  28.147  11.013
 6879W        W73288  38.099  30.960   1.153
 6880W        W73289  18.542  20.258  10.918
 6881W        W73290   5.005  43.984   4.106
 6882W        W73291  14.398  11.182   1.403
 6883W        W73292  17.242  15.468   2.112
 6884W        W73293  27.907  21.179  10.753
 6885W        W73294  22.617  14.549   0.959
 6886W        W73295  41.745   4.877   4.206
 6887W        W73296   1.893   9.769  12.131
 6888W        W73297  15.658  41.285  12.622
 6889W        W73298   8.182   3.006   1.223
 6890W        W73299  34.151  12.267  13.257
 6891W        W73300  14.877   0.606  13.326
 6892W        W73301  26.860  30.046   1.493
 6893W        W73302   9.239   7.793   3.696
 6894W        W73303  39.547  26.225   0.891
 6895W        W73304  19.229  24.198   4.568
 6896W        W73305  15.786  25.829  10.708
 6897W        W73306   8.122   0.596  10.245
 6898W        W73307   8.937   0.731   4.238
 6899W        W73308  33.818  28.822  11.404
 6900W        W73309  33.488   8.567  11.077
 6901W        W73310  31.964  13.636   1.362
 6902W        W73311   4.515  21.216   1.863
 6903W        W73312   7.037  23.084   1.743
 6904W        W73313  21.219  28.646   2.427
 6905W        W73314  27.215  37.106   3.436
 6906W        W73315  43.190   1.994   4.464
 6907W        W73316   4.892  42.284  11.531
 6908W        W73317  26.295  32.391   1.395
 6909W        W73318   9.811  43.654   4.189
 6910W        W73319   1.016   6.332  12.252
 6911W        W73320  40.511  34.200   2.917
 6912W        W73321  35.395  12.290   4.545
 6913W        W73322  41.478   6.962  11.703
 6914W        W73323   6.058  24.948  13.162
 6915W        W73324  33.539  28.433  11.600
 6916W        W73325  26.058   8.799  11.783
 6917W        W73326  12.308   5.635   0.717
 6918W        W73327  43.404  13.327   5.158
 6919W        W73328   3.912   6.650   2.819
 6920W        W73329  22.406  38.908  13.844
 6921W        W73330  17.590  18.643   1.863
 6922W        W73331  26.014  28.761  12.998
 6923W        W73332  20.592  26.646   4.465
 6924W        W73333  32.857   3.423  11.668
 6925W        W73334  30.331  16.769   4.765
 6926W        W73335  38.752   5.744  14.538
 6927W        W73336  23.034  24.970  13.308
 6928W        W73337  28.727  26.131   1.448
 6929W        W73338  21.959  19.274   2.714
 6930W        W73339  12.768  43.801   1.693
 6931W        W73340  44.286  11.601  14.099
 6932W        W73341  14.624  19.130  10.971
 6933W        W73342  28.145  10.802  12.942
 6934W        W73343   6.567   8.205  10.641
 6935W        W73344  43.968  21.687  11.656
 6936W        W73345  12.701  31.940  12.346
 6937W        W73346  18.616   7.822   4.935
 6938W        W73347   7.617  32.313  13.780
 6939W        W73348  39.418  44.469   4.112
 6940W        W73349  12.131   9.603  12.097
 6941W        W73350  42.225  37.329  11.909
 6942W        W73351   9.178  18.138   5.059
 6943W        W73352  12.304  26.111  12.534
 6944W        W73353  37.330   8.887   1.024
 6945W        W73354  43.947  33.107  12.078
 6946W        W73355  16.076   9.320   2.727
 6947W        W73356  32.357  25.092  13.509
 6948W        W73357  24.500   8.021   2.210
 6949W        W73358  27.845  35.066   0.244
 6950W        W73359  41.795   1.612   0.244
 6951W        W73360  41.046  30.949   3.837
 6952W        W73361  26.829  21.588  11.563
 6953W        W73362  40.484  33.251  10.259
 6954W        W73363  12.080  13.057   0.968
 6955W        W73364  27.721  42.059  13.546
 6956W        W73365  31.482  28.015   1.736
 6957W        W73366  40.468  41.490   0.820
 6958W        W73367  13.662   0.489  13.790
 6959W        W73368   4.048   6.137   3.643
 6960W        W73369  33.387  25.231   5.108
 6961W        W73370   6.669  32.612  11.221
 6962W        W73371  43.894  21.064  13.504
 6963W        W73372  18.202   5.849  11.939
 6964W        W73373  40.921  30.681   1.391
 6965W        W73374   8.183  30.633  11.247
 6966W        W73375  28.912  25.901   0.219
 6967W        W73376  43.738  14.101  11.111
 6968W        W73377   9.634  35.466   1.409
 6969W        W73378  42.864  33.045  10.737
 6970W        W73379  22.614  23.488   4.149
 6971W        W73380  10.544  15.007  14.443
 6972W        W73381  21.819  26.489   1.872
 6973W        W73382  34.453   7.630  10.998
 6974W        W73383  17.474  18.413  10.664
 6975W        W73384   6.149   2.443  13.857
 6976W        W73385  40.097   1.494   3.992
 6977W        W73386  14.740  16.289   0.532
 6978W        W73387   6.496  31.734  11.985
 6979W        W73388  32.068  35.944   4.218
 6980W        W73389   8.738   0.912   5.454
 6981W        W73390  28.494  37.086  13.926
 6982W        W73391  31.428  11.195   2.183
 6983W        W73392  15.102   9.961   4.171
 6984W        W73393  18.162  20.855  14.616
 6985W        W73394   0.740  32.109   2.713
 6986W        W73395  11.422   7.638   4.138
 6987W        W73396  21.559  44.463   4.785
 6988W        W73397  11.664   4.907   4.057
 6989W        W73398  23.995  41.334   2.313
 6990W        W73399  15.262  40.880  10.578
 6991W        W73400  20.178   6.491   5.056
 6992W        W73401  40.711  34.388  14.892
 6993W        W73402  24.415   6.135   4.084
 6994W        W73403  34.469  41.525   1.457
 6995W        W73404  31.599  13.658  13.252
 6996W        W73405  30.727  17.852  10.194
 6997W        W73406  39.065  38.513  14.771
 6998W        W73407  43.565   1.840  10.582
 6999W        W73408  34.224   7.626  12.290
 7000W        W73409  37.872  36.801  12.661
 7001W        W73410   8.344  38.330   3.275
 7002W        W73411   5.897  43.769   4.030
 7003W        W73412  26.381  44.099  14.735
 7004W        W73413   6.453  32.735   0.365
 7005W        W73414  31.289  26.314   2.828
 7006W        W73415  11.803   2.102   2.630
 7007W        W73416  36.781   9.448   4.704
 7008W        W73417  26.004  35.823   4.829
 7009W        W73418  44.307  24.948   3.660
 7010W        W73419  41.467  42.369   3.374
 7011W        W73420  12.761  22.996   0.269
 7012W        W73421   3.052  37.248  10.096
 7013W        W73422  36.492  25.068   2.580
 7014W        W73423  31.872  29.686  13.857
 7015W        W73424  25.096  15.011   2.402
 7016W        W73425  44.981  16.179   1.376
 7017W        W73426  35.794  21.928  14.757
 7018W        W73427  43.938  20.117  10.844
 7019W        W73428   0.444  38.450  11.903
 7020W        W73429  10.342  24.538  11.482
 7021W        W73430  13.069  40.321  13.285
 7022W        W73431  36.178  30.509  12.001
 7023W        W73432  27.032  31.930   3.902
 7024W        W73433  29.716   4.795  14.903
 7025W        W73434  17.339  40.269  10.990
 7026W        W73435  23.122  30.607  10.713
 7027W        W73436  14.261  24.543  14.546
 7028W        W73437  15.246  15.270   2.928
 7029W        W73438  14.996   0.603   2.234
 7030W        W73439  31.805   8.202   2.601
 7031W        W73440  37.013   3.973   2.994
 7032W        W73441  33.838   9.898   3.425
 7033W        W73442  25.980  29.172  14.418
 7034W        W73443   5.126  23.578  13.321
 7035W        W73444  40.781  28.287  13.901
 7036W        W73445  30.020  43.450   0.418
 7037W        W73446  27.355   2.511  13.312
 7038W        W73447  44.864  39.029   4.622
 7039W        W73448  27.924  18.825  13.162
 7040W        W73449   9.387  25.641  11.956
 7041W        W73450  17.845  21.900  11.149
 7042W        W73451  40.348   9.536   3.570
 7043W        W73452  43.883  22.827   2.841
 7044W        W73453  19.967   3.751   1.727
 7045W        W73454  36.692  26.254   2.178
 7046W        W73455  33.550  37.911  14.972
 7047W        W73456  34.441  15.582   0.815
 7048W        W73457  44.820  28.674   1.497
 7049W        W73458  42.873  28.193  12.479
 7050W        W73459  30.162  15.702  12.409
 7051W        W73460  25.365  21.466  11.700
 7052W        W73461  28.521  29.751   1.425
 7053W        W73462  36.111  14.248   2.259
 7054W        W73463  11.774  22.784  14.847
 7055W        W73464  21.652  43.309  10.700
 7056W        W73465  36.624  30.405   4.532
 7057W        W73466   1.813  41.951   2.093
 7058W        W73467  40.117  34.548   4.347
 7059W        W73468  25.401   7.405  13.532
 7060W        W73469  39.518  29.010  11.473
 7061W        W73470  21.573  39.154  14.012
 7062W        W73471   7.114  26.605   1.489
 7063W        W73472  38.023  24.526   1.728
 7064W        W73473  28.520  29.054  13.326
 7065W        W73474   5.605   9.825  13.455
 7066W        W73475  18.767  13.046  10.764
 7067W        W73476   3.298  12.100   0.493
 7068W        W73477  35.294   8.724   9.641
 7069W        W73478  40.673  37.158   1.017
 7070W        W73479  19.006  25.935  13.614
 7071W        W73480  30.094  44.261  10.913
 7072W        W73481  26.964  38.846  12.406
 7073W        W73482   1.529  26.467   0.684
 7074W        W73483  11.664  41.540   4.618
 7075W        W73484  30.051  24.494  12.488
 7076W        W73485  26.919  24.480  12.490
 7077W        W73486   1.551  34.769   3.764
 7078W        W73487  40.352  44.010  13.669
 7079W        W73488  22.402  29.622  12.178
 7080W        W73489  11.462  13.611   1.262
 7081W        W73490   3.860  44.980  10.779
 7082W        W73491  21.873  15.286   0.715
 7083W        W73492  42.442  40.525  11.455
 7084W        W73493  31.796  25.792   1.841
 7085W        W73494  20.204  26.657  12.075
 7086W        W73495  12.729  36.726   5.018
 7087W        W73496   9.753  19.913  11.133
 7088W        W73497   3.433  34.921  12.884
 7089W        W73498  28.601   9.795   1.370
 7090W        W73499   3.456   8.868   0.402
 7091W        W73500   4.847  16.727   2.708
 7092W        W73501  30.766  28.442   1.101
 7093W        W73502  12.768  42.387  11.462
 7094W        W73503  27.905  44.718  12.921
 7095W        W73504  38.417  43.447   2.676
 7096W        W73505  43.644  41.954  10.834
 7097W        W73506   2.989   0.541  10.622
 7098W        W73507   1.891  27.595   2.268
 7099W        W73508   9.633  19.508  14.714
 7100W        W73509   2.733  17.341  13.808
 7101W        W73510   7.403  34.504   1.772
 7102W        W73511  41.782  18.600   3.031
 7103W        W73512  14.362  40.363  14.026
 7104W        W73513   7.244   7.666   1.168
 7105W        W73514  40.590  12.719  12.937
 7106W        W73515  34.526  20.584   0.511
 7107W        W73516   1.842   7.658   3.262
 7108W        W73517  33.302   0.294   5.174
 7109W        W73518  23.672  17.407  11.209
 7110W        W73519  16.004  38.290  10.653
 7111W        W73520  11.664  31.063   0.755
 7112W        W73521  10.896  11.202  13.596
 7113W        W73522  10.246   0.780  14.434
 7114W        W73523  25.624  22.601   2.560
 7115W        W73524  38.696  33.486   3.623
 7116W        W73525   4.213   2.803   1.344
 7117W        W73526  28.940  40.810  10.501
 7118W        W73527  30.502  13.335   4.647
 7119W        W73528  17.328  17.843   3.677
 7120W        W73529  33.458   4.512   1.768
 7121W        W73530  20.692  39.732   2.742
 7122W        W73531  41.466  31.865   4.727
 7123W        W73532   0.914  24.925   0.409
 7124W        W73533  38.939   6.246   3.192
 7125W        W73534   2.366  29.944   1.007
 7126W        W73535   0.878  39.761   2.365
 7127W        W73536   7.944  17.776   0.693
 7128W        W73537  27.257   3.528  11.687
 7129W        W73538   8.783  12.917   2.889
 7130W        W73539   6.313  28.267  10.658
 7131W        W73540   3.465  42.005  14.185
 7132W        W73541  41.349   2.745  12.052
 7133W        W73542  11.369   1.784  14.588
 7134W        W73543  11.192  44.285   4.561
 7135W        W73544  42.310  36.483  13.668
 7136W        W73545  29.198  18.604   2.197
 7137W        W73546   8.299  30.469  13.755
 7138W        W73547  16.678  37.119  13.312
 7139W        W73548  15.575  12.105  12.062
 7140W        W73549  12.891   6.550   1.222
 7141W        W73550  26.010  18.671   3.071
 7142W        W73551  11.703  24.150   4.563
 7143W        W73552  23.555  43.286  11.692
 7144W        W73553  39.220  11.898  12.504
 7145W        W73554  24.058  12.095   0.430
 7146W        W73555  33.177  38.434   1.874
 7147W        W73556  31.657  23.061  13.051
 7148W        W73557  17.751   1.508  13.884
 7149W        W73558   4.882  12.291  14.358
 7150W        W73559  30.609  11.422  14.236
 7151W        W73560  19.121  19.140   0.553
 7152W        W73561  17.400  31.375   3.180
 7153W        W73562  14.885  23.170   0.036
 7154W        W73563  42.095  39.399   0.372
 7155W        W73564  27.040  12.683  11.941
 7156W        W73565  20.574  27.506   2.876
 7157W        W73566  35.620   7.226   2.893
 7158W        W73567  21.799  35.731   3.752
 7159W        W73568  14.199   8.453  11.615
 7160W        W73569   8.142  17.282   3.822
 7161W        W73570  29.008  42.358  13.370
 7162W        W73571  44.340  41.439   2.433
 7163W        W73572  32.878   9.603  14.757
 7164W        W73573  22.980  27.972   3.119
 7165W        W73574   6.612  13.875  13.468
 7166W        W73575  34.796  26.282   0.986
 7167W        W73576  43.148   9.398  14.718
 7168W        W73577  18.705   6.838   1.299
 7169W        W73578  44.399  15.272   1.608
 7170W        W73579  23.591  25.780   2.862
 7171W        W73580  14.674   6.330   3.927
 7172W        W73581  19.354  42.556  13.373
 7173W        W73582  30.982   8.700   4.586
 7174W        W73583  20.054  21.058  13.493
 7175W        W73584  13.181  43.136  10.190
 7176W        W73585  12.330  28.049   2.669
 7177W        W73586  26.713  42.914   3.123
 7178W        W73587   9.148  33.677  13.920
 7179W        W73588  29.214  44.172   1.504
 7180W        W73589  44.502   0.976  12.544
 7181W        W73590  36.986  24.679  12.883
 7182W        W73591  21.206  10.927   4.181
 7183W        W73592  42.911   1.699  11.966
 7184W        W73593   6.827  16.020  14.551
 7185W        W73594  14.582  11.547  11.197
 7186W        W73595  20.120  19.196  13.461
 7187W        W73596  19.101   9.073   2.978
 7188W        W73597   9.147  33.179  14.339
 7189W        W73598  43.554   9.498   4.188
 7190W        W73599  18.796   6.953  13.522
 7191W        W73600  18.718   1.415   2.160
 7192W        W73601  26.649  10.128  13.021
 7193W        W73602  25.655  26.996   0.683
 7194W        W73603  28.604  22.809   1.822
 7195W        W73604  18.581  19.337   3.167
 7196W        W73605  13.361  41.757  14.302
 7197W        W73606  36.355   2.351  14.419
 7198W        W73607  41.950  15.410  14.005
 7199W        W73608  41.707  27.140   2.264
 7200W        W73609  30.459   9.080  11.593
 7201W        W73610  40.320   9.226   5.046
 7202W        W73611  23.960   0.300  12.382
 7203W        W73612  13.351  23.632   0.855
 7204W        W73613   4.989  35.086   1.216
 7205W        W73614  36.356  16.929  10.302
 7206W        W73615  37.247  15.743  14.754
 7207W        W73616  36.684  12.662   1.715
 7208W        W73617  20.624  21.485   2.304
 7209W        W73618  35.717  12.781  14.835
 7210W        W73619  26.723  19.272  12.023
 7211W        W73620  30.093  26.838   0.830
 7212W        W73621  31.610  31.164  10.658
 7213W        W73622   1.834  44.041   0.236
 7214W        W73623   6.715   9.323  13.371
 7215W        W73624  41.880   5.757   0.674
 7216W        W73625   1.867   9.302  11.943
 7217W        W73626  33.466  20.153   3.044
 7218W        W73627  38.961   0.229   3.898
 7219W        W73628   7.910  30.021  13.168
 7220W        W73629  35.684  22.502  11.862
 7221W        W73630  19.973  19.656   4.583
 7222W        W73631   7.155  16.053   1.362
 7223W        W73632  29.563  13.326   1.284
 7224W        W73633  24.963   6.480   0.283
 7225W        W73634  10.423   7.298   3.546
 7226W        W73635  24.192  42.298  13.413
 7227W        W73636  33.358  15.383  11.967
 7228W        W73637  15.191   2.457  13.497
 7229W        W73638   4.181  35.385  12.034
 7230W        W73639  15.032  37.840   1.871
 7231W        W73640  22.801   9.273  13.948
 7232W        W73641  40.738  30.094   0.243
 7233W        W73642  11.425  38.260   4.296
 7234W        W73643  13.799  37.458  12.829
 7235W        W73644  40.318   2.861   4.373
 7236W        W73645  16.509  42.892   4.046
 7237W        W73646  22.734   7.374  10.885
 7238W        W73647  43.393  43.946   0.535
 7239W        W73648   6.240  24.982  13.909
 7240W        W73649  24.626  33.701   2.048
 7241W        W73650   6.137  20.689  11.937
 7242W        W73651  23.156  36.880   3.727
 7243W        W73652  38.256   6.122   4.117
 7244W        W73653  14.814   6.636  14.487
 7245W        W73654  33.197  23.199   4.749
 7246W        W73655  44.013  29.614  12.511
 7247W        W73656  15.758  11.182   2.856
 7248W        W73657   7.812  36.000   0.844
 7249W        W73658  37.315   9.405  12.950
 7250W        W73659  19.666  35.909  12.591
 7251W        W73660  15.703   1.843   1.065
 7252W        W73661  26.827  14.847   3.125
 7253W        W73662  19.780  35.692   1.751
 7254W        W73663   7.705  13.088  10.477
 7255W        W73664  10.695  11.379   2.447
 7256W        W73665   6.241   2.886  11.081
 7257W        W73666   8.284   6.430   4.305
 7258W        W73667  42.474  42.749   2.357
 7259W        W73668   3.859   7.954   0.701
 7260W        W73669   3.842  11.357  10.926
 7261W        W73670   0.517  20.269   3.636
 7262W        W73671  33.517  30.558   0.022
 7263W        W73672  27.570   8.224  13.323
 7264W        W73673   1.712   8.815  13.077
 7265W        W73674  17.343  35.984   3.187
 7266W        W73675   2.006  39.303   1.597
 7267W        W73676  44.359  38.155  12.493
 7268W        W73677  35.500  14.717  10.442
 7269W        W73678   5.965  26.177   4.040
 7270W        W73679  13.032  42.699  14.892
 7271W        W73680  36.037  42.619   3.133
 7272W        W73681  42.351  30.327  10.891
 7273W        W73682  13.627  23.671  12.855
 7274W        W73683  16.149   1.849   4.043
 7275W        W73684   9.792  38.923   1.031
 7276W        W73685  17.828  26.397  12.769
 7277W        W73686   4.582  19.190   1.041
 7278W        W73687  15.236   1.778  10.032
 7279W        W73688  19.242   1.399   2.282
 7280W        W73689  18.553  11.216   1.418
 7281W        W73690  16.263  32.300   1.212
 7282W        W73691  29.635   1.684  11.554
 7283W        W73692  26.324  29.597   3.970
 7284W        W73693   1.782  44.916  14.045
 7285W        W73694  21.062   8.970  14.464
 7286W        W73695  30.557  42.360   4.140
 7287W        W73696  12.907  32.650  13.037
 7288W        W73697   9.773  39.070  13.014
 7289W        W73698  30.000   9.607   2.667
 7290W        W73699  35.055  33.467   0.742
 7291W        W73700  18.579  31.639  13.932
 7292W        W73701   1.961  10.217  11.894
 7293W        W73702  25.973  24.620  12.387
 7294W        W73703  20.173  13.072   4.684
 7295W        W73704  25.486  16.998  11.022
 7296W        W73705  33.453  11.169   0.251
 7297W        W73706  10.383  15.974  13.046
 7298W        W73707  17.369  10.299   3.256
 7299W        W73708  34.492  26.363   3.714
 7300W        W73709  13.402  33.245  13.269
 7301W        W73710  28.039   4.742   0.290
 7302W        W73711  35.813  41.156  12.592
 7303W        W73712  39.334  26.187   4.301
 7304W        W73713  10.867  19.032   1.669
 7305W        W73714   9.423  28.389  13.274
 7306W        W73715  41.563   2.963  13.911
 7307W        W73716  38.792  31.079   4.139
 7308W        W73717  36.825   8.646  12.623
 7309W        W73718  13.901   0.534   2.845
 7310W        W73719  42.043  16.419  10.165
 7311W        W73720  36.692  38.522   2.673
 7312W        W73721  44.583  27.241   3.441
 7313W        W73722   4.450  28.502  11.436
 7314W        W73723  14.619  31.059  13.286
 7315W        W73724  29.105  22.931  13.370
 7316W        W73725   0.720  23.666  11.233
 7317W        W73726  43.931  21.184   4.499
 7318W        W73727  38.324   8.126  14.391
 7319W        W73728  32.430   1.042  10.280
 7320W        W73729  39.888  25.571  13.646
 7321W        W73730  41.244  40.861   2.406
 7322W        W73731  36.284  27.039   4.073
 7323W        W73732  12.589  18.657  12.512
 7324W        W73733  31.986  44.193   0.756
 7325W        W73734  10.814   3.760  10.702
 7326W        W73735   7.674  17.182  12.996
 7327W        W73736  26.628  13.462  13.079
 7328W        W73737  12.210  44.995  11.685
 7329W        W73738   2.721  14.171  13.613
 7330W        W73739   6.898  43.310  11.040
 7331W        W73740  41.476  35.559   1.293
 7332W        W73741  19.614   5.376  14.830
 7333W        W73742   5.468  36.013  13.007
 7334W        W73743  10.384  10.714  11.469
 7335W        W73744   7.269  19.250  11.879
 7336W        W73745  39.206  17.247   1.914
 7337W        W73746   9.404  16.243  12.188
 7338W        W73747  43.738  36.584   1.789
 7339W        W73748  40.511  22.221  12.060
 7340W        W73749  14.664  15.758   2.293
 7341W        W73750  14.967  19.652   5.342
 7342W        W73751  21.230  19.957   5.067
 7343W        W73752  13.166   6.415  11.128
 7344W        W73753  26.414  18.219   0.395
 7345W        W73754   2.127  38.367   0.596
 7346W        W73755  37.216  23.192  14.568
 7347W        W73756   0.956  21.616  13.097
 7348W        W73757   2.354  16.998  13.923
 7349W        W73758  43.450  27.680   0.960
 7350W        W73759  37.815  41.202   3.838
 7351W        W73760  23.667  42.226  13.566
 7352W        W73761   8.057  40.514   3.685
 7353W        W73762  44.013   4.340  12.064
 7354W        W73763  19.304  26.760  12.567
 7355W        W73764  36.331   0.909  12.486
 7356W        W73765   1.929  23.075   4.464
 7357W        W73766  36.152   2.306   2.347
 7358W        W73767   6.526   4.471   0.640
 7359W        W73768  17.914  42.499  13.439
 7360W        W73769   8.328  26.964  14.493
 7361W        W73770  14.241  28.838  10.714
 7362W        W73771  42.259  12.943   2.370
 7363W        W73772   3.440  10.696   4.016
 7364W        W73773  10.853  14.649  14.043
 7365W        W73774  29.931   4.160   0.622
 7366W        W73775  42.407   3.897   3.251
 7367W        W73776  40.113  33.550  11.627
 7368W        W73777  36.051   9.281  12.519
 7369W        W73778  36.028  30.480   2.155
 7370W        W73779  15.305  31.986   1.471
 7371W        W73780  33.098  14.146   4.563
 7372W        W73781   0.423   6.631  14.301
 7373W        W73782  14.164  16.152  11.889
 7374W        W73783  18.622   2.800   0.259
 7375W        W73784  20.079  25.978  10.702
 7376W        W73785  24.512  40.813  13.939
 7377W        W73786   1.518  36.574   1.911
 7378W        W73787  32.621  11.741  12.052
 7379W        W73788   8.647   2.686   3.712
 7380W        W73789   3.320  33.378   3.146
 7381W        W73790   1.699  37.946  10.969
 7382W        W73791  21.480  27.937  12.434
 7383W        W73792  24.868  38.881  13.983
 7384W        W73793  17.740   0.043   0.352
 7385W        W73794  19.735  44.221  12.966
 7386W        W73795  15.984   4.406   1.801
 7387W        W73796  37.968   0.899   0.995
 7388W        W73797  40.745   1.979   9.786
 7389W        W73798   3.523   4.936   1.619
 7390W        W73799  10.097  39.939   1.923
 7391W        W73800  14.696  37.394  11.222
 7392W        W73801  36.495  22.229  11.541
 7393W        W73802  12.367   2.899  13.967
 7394W        W73803  13.223  29.589   4.347
 7395W        W73804   1.322  17.025   2.164
 7396W        W73805   0.062   2.917   0.425
 7397W        W73806  15.803  36.851  13.325
 7398W        W73807  12.151  33.142  14.327
 7399W        W73808   9.610  44.038  11.086
 7400W        W73809  28.655  30.749   0.939
 7401W        W73810  33.008  17.284   1.766
 7402W        W73811  35.761   3.519  12.088
 7403W        W73812  14.675  43.260   0.899
 7404W        W73813  39.863  22.275  12.888
 7405W        W73814  26.579   1.321   3.695
 7406W        W73815  20.480   1.260   2.881
 7407W        W73816   1.558  28.100   0.362
 7408W        W73817  16.779  32.072  13.466
 7409W        W73818  26.458  42.553  11.449
 7410W        W73819   9.722  15.298   2.549
 7411W        W73820  27.188  36.410  13.138
 7412W        W73821  29.806   4.988   3.604
 7413W        W73822   3.801  20.059  13.983
 7414W        W73823   3.520  29.518   2.834
 7415W        W73824  38.834  35.161   3.663
 7416W        W73825   8.443  10.821  14.414
 7417W        W73826   2.209  18.853  11.024
 7418W        W73827  16.112  27.769  14.985
 7419W        W73828   9.829  34.571  10.748
 7420W        W73829  31.076  40.592  10.522
 7421W        W73830  11.470  35.429  12.043
 7422W        W73831  32.868  37.315   4.123
 7423W        W73832  11.312   6.953  13.362
 7424W        W73833   1.040   6.695   0.835
 7425W        W73834   0.534  34.357   2.639
 7426W        W73835   1.355   6.647   0.412
 7427W        W73836   4.213  20.779   3.254
 7428W        W73837   9.182  39.843   1.166
 7429W        W73838   6.540  14.192   0.913
 7430W        W73839   2.554  34.329   2.394
 7431W        W73840  10.826  13.143  13.583
 7432W        W73841  33.001  15.229  14.707
 7433W        W73842  36.390  40.501   4.018
 7434W        W73843  42.732  37.984  12.876
 7435W        W73844  43.956  14.854  10.679
 7436W        W73845   5.784  41.512   2.836
 7437W        W73846   1.625  42.767   0.419
 7438W        W73847   8.436  40.294  14.941
 7439W        W73848  33.786  12.128   2.286
 7440W        W73849   2.065  34.080   3.631
 7441W        W73850  43.507  39.521   3.770
 7442W        W73851  21.089  42.128  12.707
 7443W        W73852  18.415  28.408  13.578
 7444W        W73853   3.433  22.076   2.251
 7445W        W73854  33.994  35.860   4.663
 7446W        W73855   2.228  37.351  11.613
 7447W        W73856   2.235   8.340  12.146
 7448W        W73857   2.043  13.798  13.485
 7449W        W73858  44.110  27.475   2.545
 7450W        W73859  38.079  24.214  14.271
 7451W        W73860  11.057   6.020  13.440
 7452W        W73861  31.752  22.445   2.291
 7453W        W73862  15.394  20.365  10.762
 7454W        W73863  24.243  13.889   1.340
 7455W        W73864  29.530  20.987  14.730
 7456W        W73865  16.130  42.362   0.035
 7457W        W73866  19.442  25.113   4.640
 7458W        W73867  13.651   0.890  12.360
 7459W        W73868  38.204  34.344   0.461
 7460W        W73869  28.453  22.030  10.765
 7461W        W73870  37.893   2.010  11.408
 7462W        W73871  19.713  16.296   0.247
 7463W        W73872  38.319  25.154  12.023
 7464W        W73873  41.538  31.672  10.685
 7465W        W73874   1.023  42.858   3.382
 7466W        W73875   6.403  13.102   2.106
 7467W        W73876   3.756  26.068  13.623
 7468W        W73877   0.952   4.435  14.852
 7469W        W73878  15.079  31.555   4.518
 7470W        W73879   4.190  26.356  12.995
 7471W        W73880   6.337  42.680  13.937
 7472W        W73881  34.963   5.250   1.857
 7473W        W73882  10.139  36.138  13.984
 7474W        W73883  37.074  22.250  10.396
 7475W        W73884  24.625  22.756   1.425
 7476W        W73885  37.306  41.901   3.095
 7477W        W73886   6.527   9.591  12.010
 7478W        W73887   0.838  41.901  12.578
 7479W        W73888  36.934  30.601  13.666
 7480W        W73889  44.253  26.718  14.433
 7481W        W73890   7.787  19.861  14.852
 7482W        W73891  39.750  39.850  14.928
 7483W        W73892  22.164  32.213  11.610
 7484W        W73893  26.547  25.422   4.673
 7485W        W73894  43.862  35.953   1.286
 7486W        W73895  29.255  41.991   3.687
 7487W        W73896  15.854  16.336   2.389
 7488W        W73897   6.971  38.305  14.071
 7489W        W73898  32.475  15.885  12.807
 7490W        W73899  30.561  30.324  14.893
 7491W        W73900  27.375  33.617   2.598
 7492W        W73901   1.258  10.412   0.987
 7493W        W73902  40.903   0.587  10.654
 7494W        W73903  29.932  30.067  13.592
 7495W        W73904  29.858  14.888  14.299
 7496W        W73905  26.662  32.501   0.344
 7497W        W73906   7.717  42.008  14.366
 7498W        W73907  37.323  34.963  13.571
 7499W        W73908  17.677   4.417  11.440
 7500W        W73909  37.907   7.917  11.643
 7501W        W73910  19.561  40.811   0.383
 7502W        W73911  42.335  31.877  14.438
 7503W        W73912   0.735  41.287   2.239
 7504W        W73913   5.711   6.155  14.459
 7505W        W73914  10.869  19.541  11.635
 7506W        W73915   5.857  34.572   0.991
 7507W        W73916  40.799  19.663  12.205
 7508W        W73917  33.016  20.671  11.687
 7509W        W73918  11.877  25.498  14.610
 7510W        W73919  12.581  22.337   0.985
 7511W        W73920  41.585  13.886  12.437
 7512W        W73921  39.474  27.507  13.924
 7513W        W73922  37.559  15.667   0.218
 7514W        W73923  40.315  30.631  13.547
 7515W        W73924  17.891  14.830   3.333
 7516W        W73925  35.497  44.487   0.452
 7517W        W73926  12.677  35.530   9.785
 7518W        W73927  21.361   6.308   1.762
 7519W        W73928  18.094  10.389  12.607
 7520W        W73929  21.839   2.403   1.761
 7521W        W73930  32.025  16.178   4.686
 7522W        W73931  11.175  41.949  11.608
 7523W        W73932  18.696  11.359   0.194
 7524W        W73933  16.097  42.494  10.651
 7525W        W73934  33.832  22.713   3.325
 7526W        W73935  29.885   5.361  12.093
 7527W        W73936  20.259  43.967   0.925
 7528W        W73937  15.640   7.145   4.312
 7529W        W73938  15.092   8.642   0.488
 7530W        W73939  35.202  32.107   4.490
 7531W        W73940  14.134  40.368   0.373
 7532W        W73941   9.250   4.720  11.253
 7533W        W73942  39.827  41.716   3.150
 7534W        W73943  15.388  27.196  13.494
 7535W        W73944  14.440  26.094  11.508
 7536W        W73945  34.881  18.272   1.460
 7537W        W73946  44.070  44.447  13.971
 7538W        W73947  29.668  13.504   3.260
 7539W        W73948   0.544   9.582  10.287
 7540W        W73949  16.598  25.507  11.808
 7541W        W73950  44.435  33.097   4.059
 7542W        W73951  13.382   4.327   1.462
 7543W        W73952  22.311  12.275   4.119
 7544W        W73953  29.203  43.297   1.266
 7545W        W73954  24.054  24.953   4.131
 7546W        W73955  33.573  36.356  12.239
 7547W        W73956  30.193  34.634  12.493
 7548W        W73957  41.906  37.672   3.987
 7549W        W73958  26.644  12.907  11.691
 7550W        W73959  43.570  12.536  12.225
 7551W        W73960   3.964   7.109   4.563
 7552W        W73961  26.058  11.659   1.704
 7553W        W73962  29.173  17.261  12.399
 7554W        W73963  14.086   3.764  11.486
 7555W        W73964  33.988  35.584   3.238
 7556W        W73965  32.950  13.703  10.782
 7557W        W73966  42.743  16.939   3.629
 7558W        W73967  33.919  21.093   3.197
 7559W        W73968  24.664  27.302  13.696
 7560W        W73969  30.208  36.516  13.734
 7561W        W73970  19.254  40.870  11.657
 7562W        W73971  33.080  26.544  11.208
 7563W        W73972  23.141  13.856  11.802
 7564W        W73973   0.454  12.289  14.714
 7565W        W73974  41.554  20.468  12.529
 7566W        W73975  24.969   2.507  14.865
 7567W        W73976  44.382   3.168   4.679
 7568W        W73977  33.363  17.975   1.892
 7569W        W73978   9.935   3.491   2.807
 7570W        W73979   8.328  40.356  12.483
 7571W        W73980  15.549  28.165  13.412
 7572W        W73981   8.744  15.632  13.536
 7573W        W73982   6.018  10.983  11.511
 7574W        W73983   5.492  13.057  13.389
 7575W        W73984   2.200  20.758   4.192
 7576W        W73985  12.766  43.278  12.499
 7577W        W73986  25.261   5.480  10.955
 7578W        W73987  14.774  12.688   3.289
 7579W        W73988   4.283   6.511  11.988
 7580W        W73989  36.823  18.715  12.707
 7581W        W73990  11.742  32.333  10.780
 7582W        W73991  25.650  33.847  13.285
 7583W        W73992  15.050  38.253   2.183
 7584W        W73993  20.906  33.130  13.761
 7585W        W73994   5.690  34.050   1.835
 7586W        W73995  16.219  14.383  14.036
 7587W        W73996   1.972  18.634  10.627
 7588W        W73997  13.225  13.182  12.157
 7589W        W73998  23.567  11.450   3.759
 7590W        W73999  31.182  33.877  14.999
 7591W        W74000  38.345  10.219   2.243
 7592W        W74001   0.341  16.136   2.911
 7593W        W74002  28.562  24.645   2.999
 7594W        W74003  42.834  25.927  12.253
 7595W        W74004   1.961  25.882   3.314
 7596W        W74005  19.356  20.176   2.320
 7597W        W74006  28.058  11.578  13.493
 7598W        W74007  37.421  16.169   0.963
 7599W        W74008  30.691  14.611  13.642
 7600W        W74009   4.049  31.904   2.812
 7601W        W74010  37.083  14.319   1.629
 7602W        W74011  35.855  32.183   1.815
 7603W        W74012   1.296  11.392   1.891
 7604W        W74013  12.313  22.992  14.941
 7605W        W74014  28.922   9.379   1.345
 7606W        W74015  29.464   3.708  10.308
 7607W        W74016  20.254  37.467   4.625
 7608W        W74017  43.634  16.589  13.809
 7609W        W74018   7.937   1.783  10.455
 7610W        W74019  31.586  27.810  11.129
 7611W        W74020  25.740  25.036  13.373
 7612W        W74021  34.064  18.536  10.756
 7613W        W74022  19.608  30.331   2.319
 7614W        W74023   8.919  16.298   3.202
 7615W        W74024  27.679  43.237   0.453
 7616W        W74025  19.035  27.830   0.665
 7617W        W74026   0.235  39.589  12.131
 7618W        W74027  21.150  37.476  14.658
 7619W        W74028   9.092  15.018   1.255
 7620W        W74029  27.425  11.794   2.230
 7621W        W74030  21.222  27.983   3.630
 7622W        W74031  41.006  33.344   2.288
 7623W        W74032  34.287  24.965   0.788
 7624W        W74033  25.102  24.130   2.608
 7625W        W74034  33.805  42.736  13.079
 7626W        W74035   4.938  15.551   0.429
 7627W        W74036  40.829   2.876  14.712
 7628W        W74037  36.229   4.460   4.251
 7629W        W74038  29.481   6.408  11.220
 7630W        W74039  36.041   2.997   4.643
 7631W        W74040  43.293  18.533  13.101
 7632W        W74041  31.187  26.004   0.904
 7633W        W74042  13.157  43.819  13.944
 7634W        W74043   3.002  25.083   3.180
 7635W        W74044  41.782  27.688  11.201
 7636W        W74045  23.729  37.885  12.147
 7637W        W74046  35.919   5.341   4.077
 7638W        W74047  32.636  23.235  11.401
 7639W        W74048  12.633  31.918   1.309
 7640W        W74049  10.371  43.815   4.562
 7641W        W74050  37.596  15.677   0.760
 7642W        W74051  30.554  16.259   4.728
 7643W        W74052  26.391  35.339   0.988
 7644W        W74053  18.700   5.409   4.217
 7645W        W74054  26.606  16.675   4.066
 7646W        W74055  20.937  15.069  13.592
 7647W        W74056  20.269  15.753  13.396
 7648W        W74057  22.812  43.790   3.197
 7649W        W74058  41.446  32.677  12.935
 7650W        W74059  41.470  18.564  13.925
 7651W        W74060  21.449  18.173   4.047
 7652W        W74061   9.159  12.321  10.709
 7653W        W74062   2.363  21.749   4.154
 7654W        W74063  31.942  36.734  10.730
 7655W        W74064   6.277   1.308  12.004
 7656W        W74065  26.978  43.534  14.079
 7657W        W74066  25.993  37.835   4.936
 7658W        W74067  35.653   0.249   4.437
 7659W        W74068  38.865  27.705   3.684
 7660W        W74069  43.591   7.634  14.935
 7661W        W74070  34.022  17.830  13.401
 7662W        W74071  28.938   7.182  11.555
 7663W        W74072  28.189  13.155  14.355
 7664W        W74073  12.120  28.251   0.040
 7665W        W74074  31.294  24.002  11.182
 7666W        W74075  24.148  16.593   3.060
 7667W        W74076  10.806  24.605   1.338
 7668W        W74077  35.417  29.566  13.541
 7669W        W74078  30.106  15.259   1.872
 7670W        W74079  38.829  31.039   2.180
 7671W        W74080  30.171  39.750  12.479
 7672W        W74081  33.482  18.093  14.446
 7673W        W74082  44.505  26.451   0.243
 7674W        W74083  18.932  27.596  10.880
 7675W        W74084   5.476  37.527  10.583
 7676W        W74085   2.814  44.866   2.735
 7677W        W74086   0.727  16.087   4.362
 7678W        W74087   9.132  42.520   2.806
 7679W        W74088  28.421  25.265  14.911
 7680W        W74089  29.168  20.095  12.003
 7681W        W74090   1.903  40.377   2.393
 7682W        W74091  27.003  24.971   4.037
 7683W        W74092  27.072  13.630  14.880
 7684W        W74093  26.772   1.523  13.339
 7685W        W74094  14.609  13.534  13.293
 7686W        W74095  27.867   1.012  12.100
 7687W        W74096  37.120  40.989  11.281
 7688W        W74097  35.413  22.541   4.322
 7689W        W74098   2.910  24.902  10.756
 7690W        W74099  35.863  41.049   4.096
 7691W        W74100  20.951  35.580   2.735
 7692W        W74101   8.098  15.470  11.432
 7693W        W74102  19.046  42.998  12.440
 7694W        W74103   3.421  18.797  11.738
 7695W        W74104  36.766  41.726   1.285
 7696W        W74105  25.801  36.468  12.057
 7697W        W74106  44.570  14.149   3.763
 7698W        W74107  33.719  32.791  12.014
 7699W        W74108  15.423  34.752   2.803
 7700W        W74109  17.727  12.795   2.614
 7701W        W74110  19.212  14.537   3.835
 7702W        W74111  44.567  15.113  14.043
 7703W        W74112  12.704  27.499  11.643
 7704W        W74113  12.338  21.801  10.458
 7705W        W74114  35.833  24.500  12.077
 7706W        W74115  26.481   6.659   4.956
 7707W        W74116  41.634   2.911   0.402
 7708W        W74117   3.422  26.279   2.631
 7709W        W74118  29.180  25.921  14.774
 7710W        W74119  16.737  28.721   2.713
 7711W        W74120  16.818  19.065  11.625
 7712W        W74121  22.458  13.777  12.019
 7713W        W74122   6.472  33.108  10.262
 7714W        W74123   5.751   0.688   2.882
 7715W        W74124  33.110   2.425   3.177
 7716W        W74125  38.340  40.003   4.647
 7717W        W74126   5.119  15.341  13.436
 7718W        W74127  38.567   9.867  13.098
 7719W        W74128   5.955  13.184  11.144
 7720W        W74129  18.239  44.733  12.829
 7721W        W74130  11.438  42.830  12.009
 7722W        W74131  40.052  13.086   4.061
 7723W        W74132  22.446  27.724  12.242
 7724W        W74133  16.663  27.227   2.909
 7725W        W74134  35.347  11.966  11.660
 7726W        W74135  29.203   7.027   1.110
 7727W        W74136  33.065  22.528   4.528
 7728W        W74137  44.453  21.807   2.159
 7729W        W74138  21.327   6.922   3.394
 7730W        W74139   2.715  26.192   1.026
 7731W        W74140  21.193  34.388  13.067
 7732W        W74141  33.052  25.557   4.549
 7733W        W74142   2.580  37.793  10.725
 7734W        W74143  34.379   6.474  11.864
 7735W        W74144  38.761  35.341  12.973
 7736W        W74145   9.587  31.045  13.386
 7737W        W74146   2.270  12.376  13.481
 7738W        W74147  31.563   1.666  14.030
 7739W        W74148  37.554  38.782  10.665
 7740W        W74149  23.178  33.502   2.365
 7741W        W74150  24.259   8.433   1.895
 7742W        W74151  40.751  15.076   0.035
 7743W        W74152  17.628  39.015   2.205
 7744W        W74153  38.644   1.007  10.909
 7745W        W74154  40.901  12.670   1.397
 7746W        W74155  30.601  16.124   4.231
 7747W        W74156   1.863  43.476   0.477
 7748W        W74157   3.354  29.169   3.201
 7749W        W74158  26.178  42.168   2.909
 7750W        W74159  35.469   1.622  14.040
 7751W        W74160   5.608  24.908  12.896
 7752W        W74161  32.083  32.425   1.926
 7753W        W74162  38.939  35.310   2.417
 7754W        W74163  36.357  38.616  12.528
 7755W        W74164  44.320  23.161   1.716
 7756W        W74165  31.624  35.347   5.000
 7757W        W74166  24.325  38.440  12.972
 7758W        W74167  44.257  42.428   2.291
 7759W        W74168  25.563  18.353   2.081
 7760W        W74169  17.739  37.082  14.827
 7761W        W74170  17.882  24.053   4.389
 7762W        W74171  36.605  31.097  11.173
 7763W        W74172  13.532   4.929  12.465
 7764W        W74173  37.896  10.838   1.473
 7765W        W74174  22.591  30.374   0.842
 7766W        W74175   3.904  30.088  13.327
 7767W        W74176  29.482  35.717   0.310
 7768W        W74177  34.343  18.739  13.012
 7769W        W74178  20.288  41.439  14.478
 7770W        W74179  34.365  35.872  11.064
 7771W        W74180  29.896  33.190  12.423
 7772W        W74181   5.758  29.093   3.897
 7773W        W74182  31.184  32.456  10.462
 7774W        W74183  40.758  26.102   3.580
 7775W        W74184  11.849  12.637   3.150
 7776W        W74185  36.958  12.183  13.651
 7777W        W74186   5.968  28.218   4.565
 7778W        W74187  18.789  20.255  12.894
 7779W        W74188  13.653   0.466  11.455
 7780W        W74189  39.326  35.513  12.291
 7781W        W74190  12.839  30.868   2.988
 7782W        W74191  27.733  30.043  14.051
 7783W        W74192  38.086  37.388   4.569
 7784W        W74193  42.282  12.899  11.608
 7785W        W74194  30.117  24.498  13.849
 7786W        W74195  27.938  10.062  13.239
 7787W        W74196  21.497  41.808  14.479
 7788W        W74197  38.826  14.188   0.749
 7789W        W74198  38.399  35.740  11.977
 7790W        W74199  23.795   3.690   3.964
 7791W        W74200  31.007   6.448   5.069
 7792W        W74201  35.035   6.949  11.169
 7793W        W74202   1.225  13.419  13.349
 7794W        W74203   4.170  27.174   2.559
 7795W        W74204  21.123  39.197   0.966
 7796W        W74205  41.768  15.210   0.881
 7797W        W74206  16.886  15.121  14.446
 7798W        W74207  44.147   1.274   0.058
 7799W        W74208  42.093  26.512  10.780
 7800W        W74209  22.011  22.093   1.258
 7801W        W74210   9.262   8.250  14.869
 7802W        W74211   7.097  27.994   3.242
 7803W        W74212  25.130  37.889  12.348
 7804W        W74213   6.743  30.871  13.424
 7805W        W74214  26.175   7.735  14.828
 7806W        W74215  18.483  19.274  12.441
 7807W        W74216  13.978  18.616  11.541
 7808W        W74217  44.634   3.280   4.228
 7809W        W74218   0.008  35.530   1.681
 7810W        W74219  15.748  14.388  12.473
 7811W        W74220  43.855  22.979  14.081
 7812W        W74221   6.304  34.324   4.038
 7813W        W74222  10.179  34.619   1.342
 7814W        W74223  30.756   0.456  14.341
 7815W        W74224   4.729  24.409  14.822
 7816W        W74225  31.417   1.778   0.870
 7817W        W74226  10.145   7.301   4.541
 7818W        W74227  24.082  29.453  14.787
 7819W        W74228  40.095  42.529   0.480
 7820W        W74229  33.514  19.495  14.416
 7821W        W74230   9.385  42.479  14.874
 7822W        W74231  38.508  17.827  11.363
 7823W        W74232  40.914  19.210   3.535
 7824W        W74233  14.196  22.504  12.135
 7825W        W74234  21.307  35.345  13.899
 7826W        W74235  14.694  30.394   3.277
 7827W        W74236   3.866  29.685  14.865
 7828W        W74237  35.977   1.307  12.496
 7829W        W74238  24.329  42.776  11.200
 7830W        W74239  23.746  11.605  10.664
 7831W        W74240  33.132  31.356  14.601
 7832W        W74241  13.839  37.048  13.777
 7833W        W74242   4.436   2.272   4.084
 7834W        W74243  33.615  10.273  13.394
 7835W        W74244  35.335  25.220   0.737
 7836W        W74245  32.547   7.488   4.552
 7837W        W74246  32.308  25.688   1.761
 7838W        W74247  44.197  43.842  10.298
 7839W        W74248  42.404  25.160  14.990
 7840W        W74249  35.600   5.934   0.449
 7841W        W74250  17.547   4.433   2.933
 7842W        W74251  18.180   2.508  13.109
 7843W        W74252  26.471   4.589  12.335
 7844W        W74253  24.856  34.419  12.066
 7845W        W74254   8.493  32.701   2.378
 7846W        W74255  15.730  40.425  12.012
 7847W        W74256   5.343  27.259   1.296
 7848W        W74257  16.040  24.732  11.120
 7849W        W74258  31.093  37.541   4.669
 7850W        W74259  17.697   7.916  14.375
 7851W        W74260  32.884  29.388   1.030
 7852W        W74261  35.943  42.271   0.669
 7853W        W74262  31.158  40.081  14.925
 7854W        W74263  32.005  14.174   1.452
 7855W        W74264  18.618  36.451   0.909
 7856W        W74265  12.870  29.987  10.751
 7857W        W74266  30.008  20.677   3.756
 7858W        W74267  40.453  25.214   0.460
 7859W        W74268   7.639   5.605   3.258
 7860W        W74269   8.351  38.567   2.747
 7861W        W74270   1.368   2.964   2.611
 7862W        W74271  18.630  15.831  13.830
 7863W        W74272  12.403  17.721   3.103
 7864W        W74273  44.919  36.837  11.816
 7865W        W74274  21.250  21.280  12.326
 7866W        W74275  10.608  18.303  14.875
 7867W        W74276  26.414   7.676   0.301
 7868W        W74277  11.219  35.523   3.385
 7869W        W74278  20.852  41.742   1.723
 7870W        W74279  34.832  37.828  11.493
 7871W        W74280  16.294  38.601  14.301
 7872W        W74281  37.940  39.234   2.227
 7873W        W74282   6.414  38.325  10.916
 7874W        W74283  11.594  21.132  12.592
 7875W        W74284   7.859  36.664  11.066
 7876W        W74285  23.433  10.666   3.632
 7877W        W74286  13.209  24.127  14.800
 7878W        W74287  32.951  24.624   2.458
 7879W        W74288  31.609  16.527   2.652
 7880W        W74289  12.115  38.506   1.193
 7881W        W74290  14.580  37.458   1.047
 7882W        W74291  28.500  23.653  13.445
 7883W        W74292  27.978  23.510  12.582
 7884W        W74293  44.695  25.464   3.618
 7885W        W74294  33.329  11.655  11.067
 7886W        W74295  37.116  15.735  11.428
 7887W        W74296  11.396  38.828  11.198
 7888W        W74297  10.879  37.545   4.539
 7889W        W74298  12.846  21.321   1.494
 7890W        W74299  15.618  11.657  12.915
 7891W        W74300  27.635   3.146  11.519
 7892W        W74301  25.435   1.007  11.920
 7893W        W74302  34.079   5.824   0.283
 7894W        W74303  28.447  16.231   3.308
 7895W        W74304  18.774  28.051   2.646
 7896W        W74305  20.708  34.044   0.707
 7897W        W74306  25.631  23.290   5.510
 7898W        W74307  14.832  34.929   1.735
 7899W        W74308  36.863  26.690  12.026
 7900W        W74309  10.094   4.767  12.423
 7901W        W74310  20.013  17.588  13.490
 7902W        W74311  27.813  15.749   4.124
 7903W        W74312  29.590  40.306   4.016
 7904W        W74313  24.677  14.794   1.159
 7905W        W74314   5.975  12.927   2.381
 7906W        W74315  28.203  43.879   0.817
 7907W        W74316  33.015   1.059   4.475
 7908W        W74317  16.095  20.017  12.435
 7909W        W74318  12.298  15.891   4.565
 7910W        W74319  27.890  21.335  13.543
 7911W        W74320  30.437   7.250   3.347
 7912W        W74321  29.183  14.909   3.418
 7913W        W74322  10.643  36.341   0.697
 7914W        W74323  30.668  15.791   4.917
 7915W        W74324  34.413  23.939  11.668
 7916W        W74325  34.063  10.365   3.592
 7917W        W74326  36.526  27.459   0.836
 7918W        W74327  22.814   4.877   0.362
 7919W        W74328  23.794  13.148   0.902
 7920W        W74329  28.442  14.816  11.550
 7921W        W74330  11.405  25.862  12.980
 7922W        W74331  39.339   1.327   3.346
 7923W        W74332  20.694  26.997   0.216
 7924W        W74333  29.527   1.948  10.616
 7925W        W74334  13.204  42.991   1.733
 7926W        W74335  22.448  28.662  14.472
 7927W        W74336  24.133  39.536  14.713
 7928W        W74337  12.187   6.268   4.692
 7929W        W74338  34.515  43.410  12.901
 7930W        W74339  11.763  36.487   4.189
 7931W        W74340  22.091  36.666  13.339
 7932W        W74341  34.628  27.027  13.033
 7933W        W74342  38.756  22.564   0.332
 7934W        W74343  28.997   1.195  14.461
 7935W        W74344  38.507  12.214  11.545
 7936W        W74345  13.430  12.165  13.971
 7937W        W74346   7.234  34.902   0.175
 7938W        W74347   7.663  12.127   3.301
 7939W        W74348  16.083  26.239   3.774
 7940W        W74349  35.942  42.274   1.197
 7941W        W74350  17.415  39.043  10.309
 7942W        W74351   7.236  41.355   3.161
 7943W        W74352  43.526  26.263   4.114
 7944W        W74353  14.378  41.386  12.017
 7945W        W74354  11.334  13.314   2.753
 7946W        W74355   5.932  20.903  12.597
 7947W        W74356  11.901  31.486  12.567
 7948W        W74357  16.302  40.190  11.257
 7949W        W74358   3.625  42.404   1.365
 7950W        W74359  29.238  24.034  12.270
 7951W        W74360   0.346  14.366  11.084
 7952W        W74361  42.764  29.037   1.338
 7953W        W74362   1.885  43.759   2.827
 7954W        W74363  20.047  24.561  12.048
 7955W        W74364  10.189  43.300  11.012
 7956W        W74365   2.473  22.280  13.450
 7957W        W74366  37.506  14.797   3.230
 7958W        W74367  41.287  29.480   2.598
 7959W        W74368  44.904   7.646  12.990
 7960W        W74369  21.036  17.835   1.914
 7961W        W74370  34.496  32.668   3.234
 7962W        W74371  40.053  26.325  11.241
 7963W        W74372  33.308   9.644  13.460
 7964W        W74373  28.932   4.983  14.569
 7965W        W74374  14.662  14.819  12.599
 7966W        W74375  17.297  39.885   1.394
 7967W        W74376  16.716  32.140   1.460
 7968W        W74377  18.219   2.979   3.930
 7969W        W74378  43.224  17.756   3.600
 7970W        W74379  20.286   4.995  12.954
 7971W        W74380  35.466   9.142   4.339
 7972W        W74381  29.983   8.993   5.088
 7973W        W74382  44.875  29.087  11.474
 7974W        W74383  42.068  12.204   2.685
 7975W        W74384   4.804  26.164   4.513
 7976W        W74385  29.163  40.956   2.759
 7977W        W74386  26.860  22.772  13.835
 7978W        W74387  32.853   6.240  11.610
 7979W        W74388   6.226  41.284   2.061
 7980W        W74389  39.040  23.225  14.467
 7981W        W74390  12.741  10.741   2.407
 7982W        W74391  43.511  14.394  12.459
 7983W        W74392  18.803  24.989  14.431
 7984W        W74393  14.575  15.960  11.513
 7985W        W74394  42.996  19.121   1.889
 7986W        W74395  34.677  10.635  12.874
 7987W        W74396   8.210   4.884   0.979
 7988W        W74397  20.639  43.282  12.600
 7989W        W74398   9.415  26.587   2.769
 7990W        W74399  21.358  23.227  11.951
 7991W        W74400  25.109  27.323  10.737
 7992W        W74401   7.199  18.488   2.259
 7993W        W74402  24.967   6.620   2.391
 7994W        W74403   7.233  37.620   3.267
 7995W        W74404  21.518  19.536   2.300
 7996W        W74405  31.531  13.061   2.639
 7997W        W74406  23.259   0.650   3.774
 7998W        W74407  38.845  30.226  13.154
 7999W        W74408   1.809  11.933   4.560
 8000W        W74409  20.575  25.144  11.606
 8001W        W74410   3.910  29.646  10.531
 8002W        W74411  37.990  22.552  12.481
 8003W        W74412  44.335  16.997  13.282
 8004W        W74413  40.000   0.880  13.377
 8005W        W74414  34.473  36.647   4.681
 8006W        W74415   7.605  33.729   1.255
 8007W        W74416   4.280  34.925  11.453
 8008W        W74417  44.448  22.281  11.968
 8009W        W74418  39.399  12.699  11.755
 8010W        W74419  16.610  31.632   2.772
 8011W        W74420   5.304  39.717   2.147
 8012W        W74421  12.985  28.728  14.921
 8013W        W74422  37.201  16.733  14.417
 8014W        W74423   1.252  26.630   0.221
 8015W        W74424  12.814  34.444   1.665
 8016W        W74425  14.544  34.314  14.390
 8017W        W74426  40.822  27.612  13.094
 8018W        W74427  37.520  41.885  13.414
 8019W        W74428  42.435   2.866   1.380
 8020W        W74429  24.170  27.081  14.837
 8021W        W74430  13.902  29.690  13.026
 8022W        W74431  11.162  40.051  13.866
 8023W        W74432   0.916   1.424  14.505
 8024W        W74433  22.670  38.561   3.139
 8025W        W74434   9.284  37.785  11.568
 8026W        W74435   8.785   1.791   2.067
 8027W        W74436  32.539  38.090   3.165
 8028W        W74437   9.250   5.822  14.966
 8029W        W74438  37.586  38.508  12.921
 8030W        W74439  41.406  10.564  11.587
 8031W        W74440  41.087  25.062  14.393
 8032W        W74441  12.801  41.493  12.430
 8033W        W74442  36.057  24.596   3.102
 8034W        W74443   7.296   6.738   3.320
 8035W        W74444   8.969  37.487  10.229
 8036W        W74445  29.609  41.520  12.505
 8037W        W74446  35.869  26.070   1.853
 8038W        W74447  38.105  29.003  14.393
 8039W        W74448  39.834  32.707   4.318
 8040W        W74449  19.290   9.703  12.514
 8041W        W74450  29.369  17.230  10.223
 8042W        W74451  14.100  18.587   4.316
 8043W        W74452   1.249  19.653   1.357
 8044W        W74453  19.169  45.000  13.824
 8045W        W74454  26.152  35.846   4.339
 8046W        W74455  44.789  34.470   1.377
 8047W        W74456  27.191  28.602  11.586
 8048W        W74457  21.312  29.567  11.941
 8049W        W74458  29.091  16.795   1.561
 8050W        W74459  13.725  41.509  12.516
 8051W        W74460   9.352  19.025   3.856
 8052W        W74461  12.300  15.630  14.590
 8053W        W74462   2.555  14.173   2.894
 8054W        W74463  11.562  41.217   1.795
 8055W        W74464  40.882  15.089   4.037
 8056W        W74465  16.085  11.760  13.089
 8057W        W74466  36.926  11.586   3.245
 8058W        W74467   2.998  13.269  12.757
 8059W        W74468  12.140  37.802  13.922
 8060W        W74469  44.328  19.525   1.983
 8061W        W74470  15.542  32.371  14.021
 8062W        W74471   7.353   2.340  11.186
 8063W        W74472  23.005  16.187   4.678
 8064W        W74473  14.335  16.347   2.613
 8065W        W74474  33.997  26.577   2.148
 8066W        W74475  22.342  31.732   3.740
 8067W        W74476   2.020   0.379   1.271
 8068W        W74477  16.727   0.978   4.384
 8069W        W74478   4.410  19.729  13.023
 8070W        W74479  41.260  38.766   4.306
 8071W        W74480  44.571  18.429  12.529
 8072W        W74481  38.361   1.376  11.959
 8073W        W74482  14.671   1.193   3.967
 8074W        W74483   5.731  23.608  14.597
 8075W        W74484  31.024   0.677   2.739
 8076W        W74485  20.090  11.902  12.886
 8077W        W74486   2.894  24.142  12.377
 8078W        W74487  40.153   3.979   0.676
 8079W        W74488  18.767  16.904   3.829
 8080W        W74489  35.348  26.324   0.004
 8081W        W74490  21.969  13.538   3.305
 8082W        W74491   9.992  31.735   2.475
 8083W        W74492  33.827   6.831  10.133
 8084W        W74493  36.194  37.915   3.208
 8085W        W74494  22.183  15.845   4.785
 8086W        W74495  41.955  43.656   3.743
 8087W        W74496  28.082  32.869   0.038
 8088W        W74497   9.271  18.025  11.149
 8089W        W74498  44.161   7.819   1.008
 8090W        W74499  26.722   3.228   3.869
 8091W        W74500  22.659   0.425  11.610
 8092W        W74501  14.970  19.142  10.592
 8093W        W74502  12.379   4.298  11.437
 8094W        W74503  39.910  22.074  13.913
 8095W        W74504  10.988  35.265  11.152
 8096W        W74505  19.673  20.720  14.453
 8097W        W74506  10.093   9.693  10.664
 8098W        W74507  30.914  36.056  11.626
 8099W        W74508   9.408  25.073  10.805
 8100W        W74509  24.306  38.387   3.794
 8101W        W74510   9.472   2.387  10.265
 8102W        W74511  13.078  27.263  13.869
 8103W        W74512   5.139   1.088   4.174
 8104W        W74513  21.472  33.029   4.529
 8105W        W74514  17.516  12.564   3.456
 8106W        W74515  14.734   4.712  10.230
 8107W        W74516  44.289  25.254   4.199
 8108W        W74517  44.208  30.687   2.133
 8109W        W74518  24.680   2.858  13.857
 8110W        W74519  13.309  22.078  13.886
 8111W        W74520  41.851  32.064   1.746
 8112W        W74521  32.220  16.569   9.908
 8113W        W74522  10.027  42.404   4.587
 8114W        W74523  36.748  36.063  12.793
 8115W        W74524  11.801  27.155   0.604
 8116W        W74525  24.311  44.634   3.731
 8117W        W74526  17.292  44.321  13.867
 8118W        W74527   1.656  27.022   1.867
 8119W        W74528  27.282  39.821   2.712
 8120W        W74529  10.739  30.506  12.305
 8121W        W74530  16.214  17.001  14.990
 8122W        W74531  28.198  10.430   4.098
 8123W        W74532  33.901  35.515  14.058
 8124W        W74533  19.283  24.523  14.945
 8125W        W74534  27.419  38.581   0.526
 8126W        W74535  43.374  20.008   3.808
 8127W        W74536  44.591  32.679   0.767
 8128W        W74537  12.175   2.681  12.557
 8129W        W74538  32.638  29.548  14.350
 8130W        W74539  29.289   3.706  11.926
 8131W        W74540  32.454  29.902  12.046
 8132W        W74541   1.973   1.521   0.544
 8133W        W74542   0.208   0.642  13.304
 8134W        W74543  15.004   1.862  11.923
 8135W        W74544  29.864   5.160   0.900
 8136W        W74545  33.130  30.032   1.309
 8137W        W74546  41.375  33.310   0.741
 8138W        W74547  15.227  20.988  13.849
 8139W        W74548   1.511  20.237  11.538
 8140W        W74549  43.716  28.537   0.887
 8141W        W74550  35.298  41.424  12.594
 8142W        W74551  34.413   9.749   1.456
 8143W        W74552  38.987  21.706   2.768
 8144W        W74553  29.441  18.706   3.081
 8145W        W74554  17.933  32.513   4.621
 8146W        W74555  27.932  31.047   1.222
 8147W        W74556   2.448  10.578   2.425
 8148W        W74557  29.543  34.906  12.968
 8149W        W74558  40.154   5.016   1.101
 8150W        W74559  42.030  15.873  13.394
 8151W        W74560  37.364  26.009  11.197
 8152W        W74561   1.532  41.003  11.342
 8153W        W74562   6.854  13.006  13.526
 8154W        W74563  39.532  19.696   2.167
 8155W        W74564  25.491   5.748  12.198
 8156W        W74565  15.276  33.915   4.113
 8157W        W74566  10.814   8.387   3.234
 8158W        W74567   3.734  20.652   1.798
 8159W        W74568   1.816   3.775   2.265
 8160W        W74569  42.677  37.785   2.668
 8161W        W74570  19.184   3.462   2.000
 8162W        W74571   7.624  10.692   0.880
 8163W        W74572  10.255  12.431  12.427
 8164W        W74573  34.191  33.683   4.970
 8165W        W74574  44.753  27.879  13.048
 8166W        W74575  23.690  22.681   2.606
 8167W        W74576  40.067  19.239   0.484
 8168W        W74577  32.388  38.618   4.061
 8169W        W74578   8.765   8.923   9.799
 8170W        W74579   0.403  15.834  12.418
 8171W        W74580   5.408   3.880   0.960
 8172W        W74581   0.406  21.220  11.422
 8173W        W74582  33.525  10.216  12.317
 8174W        W74583  17.868  33.674   0.261
 8175W        W74584  26.565  32.627  10.410
 8176W        W74585  23.208  11.771  10.714
 8177W        W74586  33.551  26.822   0.811
 8178W        W74587  36.819  20.203   1.867
 8179W        W74588   7.432  29.105  12.728
 8180W        W74589  18.521  25.116  12.132
 8181W        W74590  15.383   0.736   4.495
 8182W        W74591  34.629  28.503  12.944
 8183W        W74592  16.370  27.222  12.847
 8184W        W74593   1.433  20.174  10.648
 8185W        W74594   0.977   8.907   5.050
 8186W        W74595  37.247  23.947  12.136
 8187W        W74596  12.088  43.061  14.873
 8188W        W74597   6.553  34.802  13.908
 8189W        W74598  35.522  17.996  11.972
 8190W        W74599   5.114  26.142   1.708
 8191W        W74600  43.205   1.419   2.297
 8192W        W74601   4.374  43.990  14.629
 8193W        W74602  18.990  33.129  12.010
 8194W        W74603  12.125  44.314   9.820
 8195W        W74604  16.593  30.828   4.111
 8196W        W74605  21.290  20.818   1.401
 8197W        W74606  31.082  11.247   0.855
 8198W        W74607  29.122   6.795  13.140
 8199W        W74608  20.689   5.167   3.320
 8200W        W74609   6.989  31.694  14.070
 8201W        W74610   0.244  27.930   2.329
 8202W        W74611  34.591  22.295  14.212
 8203W        W74612  20.688  10.470   3.115
 8204W        W74613   5.430  30.581   4.482
 8205W        W74614  43.025   1.832  10.559
 8206W        W74615  24.941  33.274   1.624
 8207W        W74616  18.281  31.687   4.229
 8208W        W74617  15.307  30.169   3.129
 8209W        W74618  32.431  14.934  13.403
 8210W        W74619  23.810  25.602  14.035
 8211W        W74620  39.559  43.852  12.131
 8212W        W74621  33.003   8.976   4.678
 8213W        W74622  37.976  27.141   3.560
 8214W        W74623   0.385  22.049  10.818
 8215W        W74624  29.862  18.352   0.084
 8216W        W74625  36.520  43.048   4.142
 8217W        W74626  15.948  12.198  11.254
 8218W        W74627  15.771  42.734  13.912
 8219W        W74628  42.489  17.855   0.247
 8220W        W74629   0.850  39.741  13.335
 8221W        W74630  21.050  39.485   0.536
 8222W        W74631  14.573  11.145   2.389
 8223W        W74632  30.991  21.756  11.092
 8224W        W74633  42.439  35.718   0.736
 8225W        W74634  36.882  18.053  10.315
 8226W        W74635  20.268   5.443  12.550
 8227W        W74636  33.103  25.596  11.130
 8228W        W74637   0.764   7.952   4.611
 8229W        W74638  27.607  40.433  14.543
 8230W        W74639   8.340   4.258  13.206
 8231W        W74640  32.453  21.988   4.252
 8232W        W74641   4.349  39.311  10.535
 8233W        W74642  14.853   5.445  13.547
 8234W        W74643   6.800  39.467   0.258
 8235W        W74644  17.724   7.662  13.846
 8236W        W74645  11.100  41.183   1.006
 8237W        W74646  13.796   3.271   3.771
 8238W        W74647  44.120  23.176   0.919
 8239W        W74648  37.719   8.246  12.912
 8240W        W74649  37.504  18.081  14.812
 8241W        W74650  16.046  16.669  14.611
 8242W        W74651  28.805  25.160   1.762
 8243W        W74652  13.118  14.686   3.303
 8244W        W74653  32.944   1.386   2.302
 8245W        W74654  43.022  30.156   4.358
 8246W        W74655  19.195   2.288   2.607
 8247W        W74656  30.770  27.597   4.503
 8248W        W74657   0.474   6.214  13.526
 8249W        W74658  13.799  42.810   0.468
 8250W        W74659  12.590   7.944  14.345
 8251W        W74660  19.615  24.477   1.339
 8252W        W74661   2.614  13.202  14.907
 8253W        W74662  32.137  24.473   3.568
 8254W        W74663  36.128  40.248   0.136
 8255W        W74664  18.468  43.102   2.847
 8256W        W74665  26.934  39.410  12.067
 8257W        W74666  25.475  39.360  13.394
 8258W        W74667  22.923  13.146  12.509
 8259W        W74668  15.547  20.479  14.738
 8260W        W74669  41.860  36.111   4.096
 8261W        W74670  13.797  15.793  12.585
 8262W        W74671  37.868   7.590   0.504
 8263W        W74672  35.218   4.529  12.476
 8264W        W74673  23.283   9.587  11.101
 8265W        W74674  42.057  15.634  12.107
 8266W        W74675   1.983  11.458   3.745
 8267W        W74676  15.968   6.635   4.989
 8268W        W74677  17.760  26.058   4.572
 8269W        W74678  37.297   7.988   3.461
 8270W        W74679  36.570  37.321   2.675
 8271W        W74680  29.198  20.223   2.240
 8272W        W74681  36.902  39.758   3.636
 8273W        W74682  20.124  11.082   1.848
 8274W        W74683  34.482  10.491   0.830
 8275W        W74684  27.525  40.346  13.471
 8276W        W74685   7.534   6.883  15.000
 8277W        W74686  34.407  10.788  13.765
 8278W        W74687  15.257  26.716  14.965
 8279W        W74688   6.737  13.897  14.074
 8280W        W74689  21.365  10.537  12.479
 8281W        W74690  29.450  22.796   3.685
 8282W        W74691  25.261  20.607   3.046
 8283W        W74692  19.695  17.507   2.704
 8284W        W74693  27.380  37.662   4.738
 8285W        W74694   9.872   1.236   2.357
 8286W        W74695  27.512  21.179  14.471
 8287W        W74696  25.562  29.067   1.162
 8288W        W74697  22.030   6.437   4.336
 8289W        W74698   2.377  27.642   1.975
 8290W        W74699  19.455  28.423  14.877
 8291W        W74700   3.050   9.739   4.213
 8292W        W74701  38.042  33.967   3.670
 8293W        W74702   6.840  34.424  14.076
 8294W        W74703  23.974  41.791   3.730
 8295W        W74704  22.820  41.450  14.567
 8296W        W74705  23.472  41.911  13.952
 8297W        W74706   6.755  31.756   4.673
 8298W        W74707  26.231  14.673   3.751
 8299W        W74708  15.301   2.539   1.287
 8300W        W74709  44.979  29.916  14.015
 8301W        W74710  23.964  39.080  12.533
 8302W        W74711  42.478   1.407  11.692
 8303W        W74712  25.048  22.128  12.592
 8304W        W74713  21.288   1.923  13.325
 8305W        W74714  12.058  29.488   5.063
 8306W        W74715  33.492  14.109  11.933
 8307W        W74716  35.304  39.565  14.499
 8308W        W74717  24.130  22.049  13.486
 8309W        W74718   2.447   7.716  12.825
 8310W        W74719   5.604   7.519  12.904
 8311W        W74720  24.267  23.583  13.369
 8312W        W74721  16.332   5.287   4.725
 8313W        W74722  44.412  23.227   4.150
 8314W        W74723  29.684   7.704  11.469
 8315W        W74724  15.646  14.619  13.571
 8316W        W74725  29.591  36.362   3.578
 8317W        W74726  24.566  41.955   0.208
 8318W        W74727   2.006  10.152   0.210
 8319W        W74728  10.685  33.162  14.453
 8320W        W74729  31.879  44.028   3.765
 8321W        W74730  25.248  29.350  13.495
 8322W        W74731   6.731  17.814   1.774
 8323W        W74732  38.528   7.301   0.044
 8324W        W74733  32.049   6.923   3.966
 8325W        W74734  25.871  10.805  12.502
 8326W        W74735  44.030  15.677   1.305
 8327W        W74736   3.183  11.647   4.592
 8328W        W74737   1.507   7.197  10.430
 8329W        W74738   1.390  22.744  11.739
 8330W        W74739  18.138  39.989   2.118
 8331W        W74740  27.657  37.907   0.733
 8332W        W74741  10.855  32.365  13.540
 8333W        W74742  40.395  34.140   3.429
 8334W        W74743   3.930  28.385  11.982
 8335W        W74744   2.253  12.206  13.988
 8336W        W74745  34.377   7.845   4.076
 8337W        W74746   8.269  29.627  11.924
 8338W        W74747  34.022  32.354  11.904
 8339W        W74748   3.426  14.052  12.871
 8340W        W74749  35.962  40.233  11.647
 8341W        W74750  29.625  26.179  13.873
 8342W        W74751  11.741   9.306   0.982
 8343W        W74752  34.441  31.956  10.578
 8344W        W74753  33.468  21.504  12.547
 8345W        W74754  12.330  38.360   3.718
 8346W        W74755  19.596  36.878   0.729
 8347W        W74756   4.538  41.549   4.519
 8348W        W74757  18.389   4.314   1.321
 8349W        W74758  28.898  12.255   1.758
 8350W        W74759  13.355   0.950   1.772
 8351W        W74760  22.328  23.216   3.815
 8352W        W74761  38.152  10.154   3.573
 8353W        W74762  31.361  42.522   0.038
 8354W        W74763  16.277  29.473   3.013
 8355W        W74764  38.968   7.284  12.445
 8356W        W74765  30.987  20.535  12.632
 8357W        W74766  15.444  10.894   1.393
 8358W        W74767   5.303  37.872   0.133
 8359W        W74768  30.471  13.609   2.366
 8360W        W74769   3.959  15.679  12.095
 8361W        W74770  17.901  21.298   5.487
 8362W        W74771  39.446   5.800   4.747
 8363W        W74772  20.275  27.187  12.063
 8364W        W74773  43.938  17.650  11.652
 8365W        W74774  22.638   6.869  13.949
 8366W        W74775  43.532   0.193  11.881
 8367W        W74776   3.956  40.643   0.656
 8368W        W74777  17.866  10.756  10.792
 8369W        W74778  12.388  28.623  13.593
 8370W        W74779  17.359   3.420  10.698
 8371W        W74780  18.643  19.752  12.537
 8372W        W74781  25.366  23.989   3.741
 8373W        W74782  10.404  34.552  11.948
 8374W        W74783  17.592  11.317  14.769
 8375W        W74784  16.010  38.467   2.276
 8376W        W74785  12.612  11.987   4.737
 8377W        W74786  37.021   9.152   1.842
 8378W        W74787  37.789  23.479  11.650
 8379W        W74788  41.453   4.325   1.423
 8380W        W74789   1.716   7.288  11.638
 8381W        W74790  29.256  40.687  12.250
 8382W        W74791  13.533  23.178  11.605
 8383W        W74792   6.107   9.179   4.712
 8384W        W74793  24.562  27.991   2.300
 8385W        W74794  24.179  36.716   4.574
 8386W        W74795  31.070  32.150   2.302
 8387W        W74796   1.068  34.367   2.668
 8388W        W74797   7.724  11.374  10.428
 8389W        W74798  31.840  40.959   4.268
 8390W        W74799   6.807  37.128  13.431
 8391W        W74800  43.158   8.554   1.447
 8392W        W74801  27.882   5.114  13.369
 8393W        W74802  11.127  22.574   2.762
 8394W        W74803  15.290   6.324  11.073
 8395W        W74804   1.846  32.398  11.054
 8396W        W74805  27.979  35.582   2.856
 8397W        W74806  30.083  13.901  12.007
 8398W        W74807  14.186   5.634  13.635
 8399W        W74808  12.332  10.077  12.130
 8400W        W74809  12.349  24.523   0.959
 8401W        W74810   5.985  28.558  13.041
 8402W        W74811  19.042   0.411  14.143
 8403W        W74812  26.894  27.128  10.601
 8404W        W74813   8.128  24.555   2.818
 8405W        W74814   1.951  37.056   4.136
 8406W        W74815  21.784  13.602  14.207
 8407W        W74816  13.155  32.592  12.507
 8408W        W74817  38.049  19.172  14.582
 8409W        W74818  28.714   6.861   2.264
 8410W        W74819  15.856   9.894   1.427
 8411W        W74820  37.182  17.929  11.709
 8412W        W74821   0.473  44.820  13.087
 8413W        W74822  35.849  24.657  11.533
 8414W        W74823  18.119  25.069   4.511
 8415W        W74824  15.724  16.739  10.883
 8416W        W74825  41.036  40.549  14.011
 8417W        W74826  40.231  13.531  14.427
 8418W        W74827   9.087  43.772  11.745
 8419W        W74828  19.794  42.854   4.909
 8420W        W74829   9.295  27.181   5.920
 8421W        W74830  37.814   1.288  14.050
 8422W        W74831  29.474  40.977   4.346
 8423W        W74832  40.215  16.083  12.029
 8424W        W74833   6.803  32.211  10.021
 8425W        W74834   1.451  21.100  10.663
 8426W        W74835  18.057  38.765   0.404
 8427W        W74836  14.673  30.904  14.852
 8428W        W74837  10.330  30.534  10.436
 8429W        W74838  39.084  15.395   2.829
 8430W        W74839   4.747  19.209  13.842
 8431W        W74840  30.128  25.890   0.900
 8432W        W74841  21.697  38.909   3.171
 8433W        W74842  32.340  19.669  10.650
 8434W        W74843  27.098  20.584   2.687
 8435W        W74844  18.078  36.709   1.615
 8436W        W74845  39.786  14.418  13.375
 8437W        W74846  31.467   6.253  14.921
 8438W        W74847   6.164  21.162  11.069
 8439W        W74848  33.547  37.297   1.417
 8440W        W74849  38.149  35.546   2.883
 8441W        W74850  26.876   4.923  11.314
 8442W        W74851  39.730  20.988   1.947
 8443W        W74852  36.516  40.443   0.402
 8444W        W74853   9.168  31.693   2.202
 8445W        W74854  32.308   5.485  12.163
 8446W        W74855  12.392  43.780   3.072
 8447W        W74856  34.867   3.440   1.448
 8448W        W74857  26.813  44.441   0.925
 8449W        W74858  15.909  27.910   3.245
 8450W        W74859  40.757  36.840  12.115
 8451W        W74860  24.079  44.227   1.707
 8452W        W74861   2.868  41.113  14.357
 8453W        W74862  16.118  25.609   1.763
 8454W        W74863   4.032  41.442   4.614
 8455W        W74864  14.643  23.014  13.390
 8456W        W74865  15.770  25.638   4.427
 8457W        W74866  35.572  28.060   1.835
 8458W        W74867  30.142  36.388   2.169
 8459W        W74868   3.046  39.997  11.740
 8460W        W74869  29.206  10.655   2.709
 8461W        W74870  19.272  12.270   1.902
 8462W        W74871   9.091   1.355   4.669
 8463W        W74872   6.960  14.246  13.103
 8464W        W74873   4.639   2.469  14.999
 8465W        W74874   9.842  41.788   2.377
 8466W        W74875  12.954  12.183  14.924
 8467W        W74876  37.228  36.923  10.814
 8468W        W74877   3.956  44.810   2.326
 8469W        W74878  35.444  41.355   3.890
 8470W        W74879   4.138  36.660   3.673
 8471W        W74880  15.773  25.724   5.653
 8472W        W74881  20.539   3.340   3.135
 8473W        W74882  19.304  44.943  14.836
 8474W        W74883   0.792  31.621   5.029
 8475W        W74884  13.609  10.991  11.927
 8476W        W74885  27.491  10.455  12.014
 8477W        W74886  42.730  23.939  11.160
 8478W        W74887  26.665  40.814   1.500
 8479W        W74888  40.521  37.186   2.240
 8480W        W74889   4.730   8.258   3.729
 8481W        W74890  44.392   2.668   4.891
 8482W        W74891  41.512  10.909   3.340
 8483W        W74892  18.427  42.340  13.350
 8484W        W74893  25.282  41.305  13.833
 8485W        W74894   6.316   3.203   4.770
 8486W        W74895  15.905  26.451   2.854
 8487W        W74896  29.700  43.676   0.770
 8488W        W74897  33.609   0.971  11.922
 8489W        W74898  39.902  40.892   4.586
 8490W        W74899  11.171  34.307   5.040
 8491W        W74900  13.567  27.253  14.033
 8492W        W74901  13.460  29.843   1.605
 8493W        W74902  34.290  38.429   2.326
 8494W        W74903  10.400  21.604  11.097
 8495W        W74904  13.848   5.731  14.012
 8496W        W74905  28.390  12.280   1.786
 8497W        W74906  35.625  24.132  12.567
 8498W        W74907  29.178  14.535  13.533
 8499W        W74908  38.967  15.190  13.044
 8500W        W74909  41.895  35.342  14.738
 8501W        W74910  42.310  36.626   2.407
 8502W        W74911   5.406  24.999  14.330
 8503W        W74912  34.449  27.152   0.400
 8504W        W74913  37.977  23.656  14.346
 8505W        W74914   1.276  18.591  11.162
 8506W        W74915   7.670  27.407   0.482
 8507W        W74916  43.174   0.633   3.134
 8508W        W74917  20.051  13.044   1.887
 8509W        W74918  21.085  35.284   3.146
 8510W        W74919  23.229  25.143  13.744
 8511W        W74920  36.057   8.346  11.573
 8512W        W74921  41.252  27.739   2.622
 8513W        W74922   7.702  41.301  12.473
 8514W        W74923  22.627  29.732   3.640
 8515W        W74924  40.109  34.112  12.813
 8516W        W74925   7.852   9.685   0.403
 8517W        W74926   8.893  41.221  12.941
 8518W        W74927   5.197  13.518  12.538
 8519W        W74928  26.603  23.458  13.704
 8520W        W74929  21.514   5.335  14.899
 8521W        W74930  43.270  13.620  14.467
 8522W        W74931  33.165  20.653   1.104
 8523W        W74932  39.603  30.959   3.162
 8524W        W74933  44.891  35.580  14.691
 8525W        W74934  19.097  22.738   1.345
 8526W        W74935  23.502  18.729   4.691
 8527W        W74936  31.407  28.635   4.249
 8528W        W74937  36.936  27.487   2.388
 8529W        W74938   8.873  33.428  12.818
 8530W        W74939  42.331   3.044  12.725
 8531W        W74940  25.259   2.378   1.423
 8532W        W74941  34.242  31.431   0.783
 8533W        W74942  26.526   7.523   3.870
 8534W        W74943  18.647  23.971  11.167
 8535W        W74944  28.742  33.408  13.948
 8536W        W74945   9.170  15.350   0.806
 8537W        W74946  22.596  37.987   1.751
 8538W        W74947  25.290  42.438   1.940
 8539W        W74948  17.127   8.212   0.495
 8540W        W74949   1.474  22.807   1.233
 8541W        W74950  30.447   7.582  13.324
 8542W        W74951  38.859  33.440  11.540
 8543W        W74952  37.747   6.772   0.088
 8544W        W74953  18.764  44.965   1.481
 8545W        W74954  34.972  43.902   5.003
 8546W        W74955   1.937   1.872  11.094
 8547W        W74956   4.383  13.721  13.132
 8548W        W74957  40.786   8.694   4.766
 8549W        W74958  38.891  37.433   4.995
 8550W        W74959   3.294  35.420  11.990
 8551W        W74960  39.568  39.511  13.423
 8552W        W74961  31.667  18.734   1.444
 8553W        W74962  31.637   7.379  12.333
 8554W        W74963  19.025  18.212   4.169
 8555W        W74964  41.560  27.458  10.548
 8556W        W74965  30.050  20.079   3.347
 8557W        W74966  36.931  29.111  12.642
 8558W        W74967   4.161  15.625  10.607
 8559W        W74968   0.729  32.292  12.588
 8560W        W74969   5.722  27.219   2.971
 8561W        W74970  27.238  42.414   0.795
 8562W        W74971  44.773  41.349   0.002
 8563W        W74972  12.731  35.090  13.466
 8564W        W74973  27.683  42.391  11.300
 8565W        W74974  18.161  33.956  14.018
 8566W        W74975  42.311  14.177   3.689
 8567W        W74976  30.803   3.831   4.461
 8568W        W74977   0.360  10.817   3.271
 8569W        W74978   4.416  26.743  13.355
 8570W        W74979  21.153   5.840   1.685
 8571W        W74980   7.188  34.365   3.925
 8572W        W74981   0.711  41.410  12.411
 8573W        W74982  11.620   4.932  13.964
 8574W        W74983  19.441  15.717  10.640
 8575W        W74984  27.435  33.828  13.849
 8576W        W74985  10.849   9.805  13.806
 8577W        W74986  20.515  19.138  12.622
 8578W        W74987  40.240  22.662  10.946
 8579W        W74988  44.034  30.136   3.163
 8580W        W74989  38.850  16.009   4.288
 8581W        W74990  27.093  33.941   4.275
 8582W        W74991  26.608   7.890  14.347
 8583W        W74992   5.153  10.422  11.527
 8584W        W74993  15.713  42.594   4.070
 8585W        W74994  44.203  32.024  14.388
 8586W        W74995   4.946  36.325  14.386
 8587W        W74996  24.538  11.175   4.499
 8588W        W74997  13.419  40.362  11.642
 8589W        W74998  29.484  22.086  11.501
 8590W        W74999  11.245  27.795  13.736
 8591W        W75000  27.891  12.837   0.131
 8592W        W75001   6.386  37.374   2.844
 8593W        W75002   2.441   1.787   0.629
 8594W        W75003  17.794  10.849   0.091
 8595W        W75004  39.994   9.961  14.322
 8596W        W75005  36.592  26.882   3.652
 8597W        W75006  44.053  17.472   1.331
 8598W        W75007  17.828  35.924  13.037
 8599W        W75008  42.710  36.418   1.269
 8600W        W75009  39.416  44.965  13.563
 8601W        W75010   1.489   3.265   3.632
 8602W        W75011  37.990  27.425  14.029
 8603W        W75012  35.032  32.195  12.816
 8604W        W75013  38.944  18.643  11.211
 8605W        W75014   5.325  31.145  12.662
 8606W        W75015   8.890  20.576  14.710
 8607W        W75016  36.095  29.909   1.734
 8608W        W75017  10.581   1.966  11.007
 8609W        W75018  31.423  10.755  14.336
 8610W        W75019  44.858   0.645  14.114
 8611W        W75020  44.201  44.458   0.857
 8612W        W75021  14.934   2.967  11.503
 8613W        W75022  24.455  26.096   2.428
 8614W        W75023   5.490  31.610   3.308
 8615W        W75024  43.028  23.234  14.489
 8616W        W75025  19.550  13.288  14.535
 8617W        W75026   1.819   1.313  14.350
 8618W        W75027  43.417   3.202   3.657
 8619W        W75028  26.129  43.084  10.631
 8620W        W75029  38.198  13.231  11.188
 8621W        W75030   4.834  16.224   0.737
 8622W        W75031   4.809  43.230  10.589
 8623W        W75032  12.207   9.907  11.383
 8624W        W75033  27.619  29.012  13.801
 8625W        W75034   7.111   6.384   2.819
 8626W        W75035  19.103  25.424   4.117
 8627W        W75036  24.194  11.095  11.223
 8628W        W75037  41.538  36.907   1.276
 8629W        W75038  24.914  44.123  11.174
 8630W        W75039  25.797  15.320  14.722
 8631W        W75040   7.913  30.677  14.019
 8632W        W75041  14.047  40.575  13.421
 8633W        W75042  19.175  15.071  12.079
 8634W        W75043  35.339  12.067   3.326
 8635W        W75044   3.974  44.470  12.533
 8636W        W75045  10.222   5.258  12.414
 8637W        W75046  11.212   2.824  12.698
 8638W        W75047  37.545  13.584   3.766
 8639W        W75048  36.794  13.591   1.460
 8640W        W75049  38.085   8.360  13.869
 8641W        W75050   6.807  22.847  10.830
 8642W        W75051  28.168  28.447   1.364
 8643W        W75052  39.503   8.867   9.681
 8644W        W75053   2.315  39.633  10.735
 8645W        W75054  12.443   4.993  13.070
 8646W        W75055  21.307   0.320   3.364
 8647W        W75056  26.068   0.788  10.551
 8648W        W75057  42.403  22.494   0.827
 8649W        W75058  28.870  32.507   1.841
 8650W        W75059  17.559  22.254  10.546
 8651W        W75060  14.301  11.115   2.826
 8652W        W75061  41.527   2.316  14.364
 8653W        W75062  24.246  43.751   1.892
 8654W        W75063  18.414  40.039   1.131
 8655W        W75064  34.335  22.595   3.261
 8656W        W75065  25.601  19.489   3.700
 8657W        W75066  24.318  19.754  10.673
 8658W        W75067  10.542  26.151  11.292
 8659W        W75068   8.951  34.061  13.355
 8660W        W75069   8.227   2.251  11.983
 8661W        W75070   2.728   8.783   0.070
 8662W        W75071  12.026   2.245   0.290
 8663W        W75072  35.995  19.139   1.175
 8664W        W75073   1.217  33.632  10.540
 8665W        W75074  32.178   2.447  11.628
 8666W        W75075  12.724  15.509  11.233
 8667W        W75076  25.547  18.929  14.911
 8668W        W75077  28.026  28.378   2.822
 8669W        W75078   7.797  39.017  14.926
 8670W        W75079  12.369  17.702   4.004
 8671W        W75080   3.059  37.906   0.503
 8672W        W75081  37.417   2.049  13.964
 8673W        W75082  36.852  37.528   1.929
 8674W        W75083   8.423  38.536   1.800
 8675W        W75084  11.366   5.687   3.749
 8676W        W75085  19.076   6.695   3.530
 8677W        W75086  44.115  43.004   3.372
 8678W        W75087   5.773   2.991   0.818
 8679W        W75088  44.704   0.748  14.727
 8680W        W75089  25.057   3.158  13.326
 8681W        W75090  36.136  23.100   1.027
 8682W        W75091  43.396  39.043   3.215
 8683W        W75092  31.922  29.560   1.838
 8684W        W75093  20.735   3.220   0.817
 8685W        W75094  24.992  39.954   4.738
 8686W        W75095   1.583   3.296  13.417
 8687W        W75096  40.025  42.391   3.653
 8688W        W75097  41.025  13.131  14.692
 8689W        W75098  17.170   5.293   4.865
 8690W        W75099  28.664  32.140  13.307
 8691W        W75100  31.377  14.195   3.858
 8692W        W75101  13.315  17.232   1.832
 8693W        W75102   4.726  31.455   0.279
 8694W        W75103  18.671  39.569  10.414
 8695W        W75104  37.881  22.689   2.138
 8696W        W75105   0.810  14.086   1.358
 8697W        W75106   9.853   1.059   0.349
 8698W        W75107  17.294  25.150   2.271
 8699W        W75108  18.480  28.887   3.291
 8700W        W75109  31.646   6.869   1.534
 8701W        W75110  20.929  19.400   2.639
 8702W        W75111  40.596  29.553  14.922
 8703W        W75112  20.005  18.805   0.216
 8704W        W75113  40.490  41.365  10.743
 8705W        W75114  28.291  26.442   2.830
 8706W        W75115  32.932   4.866  13.317
 8707W        W75116  12.881  38.215   5.266
 8708W        W75117   5.338  30.946  13.500
 8709W        W75118  28.742   0.448  10.584
 8710W        W75119  33.507   2.997   1.877
 8711W        W75120   5.403  10.836   4.523
 8712W        W75121  26.408  34.224  12.622
 8713W        W75122  23.001   6.428  12.322
 8714W        W75123  13.476  27.135  12.601
 8715W        W75124   1.933  10.913   1.043
 8716W        W75125  11.882  17.208  13.672
 8717W        W75126   4.289  15.584   1.653
 8718W        W75127  21.499  41.316  12.537
 8719W        W75128   8.608  18.459   0.330
 8720W        W75129   6.337  41.825   0.525
 8721W        W75130  27.564  38.724   0.027
 8722W        W75131  16.656   4.583   0.332
 8723W        W75132  29.339  27.173   0.493
 8724W        W75133   3.767  12.253  10.585
 8725W        W75134  43.046   0.489   2.301
 8726W        W75135   3.901   7.790   1.364
 8727W        W75136   5.276   0.236  13.143
 8728W        W75137  21.012  19.426  12.978
 8729W        W75138   0.852  19.134   4.031
 8730W        W75139  10.507  22.305  12.581
 8731W        W75140  41.859   1.249  14.848
 8732W        W75141  23.632  39.264  14.435
 8733W        W75142  22.110  39.278   3.188
 8734W        W75143  18.016  10.171   0.740
 8735W        W75144  30.466  18.675   3.344
 8736W        W75145  14.462  19.057  10.433
 8737W        W75146  43.851  16.903  13.430
 8738W        W75147  19.561   1.733  10.641
 8739W        W75148   3.853  28.960   1.288
 8740W        W75149  18.982  15.308   4.190
 8741W        W75150  40.927  18.705   4.700
 8742W        W75151   8.569   4.070  10.925
 8743W        W75152  43.949  26.425   1.434
 8744W        W75153  22.702  41.960  14.406
 8745W        W75154   8.450   2.805   3.244
 8746W        W75155  16.435  19.855   1.815
 8747W        W75156  28.027   2.385  13.969
 8748W        W75157  34.302  24.732   2.594
 8749W        W75158  26.926   7.898   2.611
 8750W        W75159   6.925  22.967   4.088
 8751W        W75160  15.649  34.582   0.333
 8752W        W75161  26.441  41.944   3.956
 8753W        W75162  10.710  43.759   4.098
 8754W        W75163  32.667  27.876  11.871
 8755W        W75164  11.918  21.533   0.271
 8756W        W75165  37.030  30.496  12.419
 8757W        W75166  15.196  42.465  12.893
 8758W        W75167  41.847   0.388   2.603
 8759W        W75168  29.385   5.392   4.488
 8760W        W75169  11.086  23.248  13.915
 8761W        W75170  23.288  39.789  10.796
 8762W        W75171  36.038   3.757  12.827
 8763W        W75172  19.671  30.752   4.466
 8764W        W75173  14.894  37.760   3.106
 8765W        W75174  22.113  20.958  10.911
 8766W        W75175   7.176  38.824   2.863
 8767W        W75176   0.049   1.966  10.945
 8768W        W75177   3.026  30.162   3.231
 8769W        W75178  18.982  16.591  10.591
 8770W        W75179  14.463  36.419  14.422
 8771W        W75180  40.973  26.869   1.802
 8772W        W75181  35.117  10.962   3.741
 8773W        W75182   4.791  12.296   4.823
 8774W        W75183   7.533   0.912  11.938
 8775W        W75184   9.874  17.184  14.836
 8776W        W75185  35.031   1.772   3.848
 8777W        W75186  22.288   0.047  11.390
 8778W        W75187  42.762  32.548  10.572
 8779W        W75188  12.344  25.971  14.430
 8780W        W75189  15.297  14.612   4.493
 8781W        W75190  21.508  18.066  11.216
 8782W        W75191   5.518  12.530  13.370
 8783W        W75192  13.741  16.195  12.912
 8784W        W75193  24.731  12.683  13.589
 8785W        W75194  38.306  14.793   5.040
 8786W        W75195  28.264  38.389  12.485
 8787W        W75196   9.071  10.170  12.497
 8788W        W75197  30.144  40.390   1.341
 8789W        W75198  17.557   6.273  10.444
 8790W        W75199  27.205  14.870  13.560
 8791W        W75200  40.156  27.981  12.604
 8792W        W75201  43.833   7.211  11.575
 8793W        W75202  42.988  33.759   5.054
 8794W        W75203  15.046  10.788   3.973
 8795W        W75204  25.975  30.580   2.023
 8796W        W75205  13.749  13.740   4.060
 8797W        W75206  34.479  13.777   0.359
 8798W        W75207  28.188   5.378  14.321
 8799W        W75208  39.051  13.788   5.021
 8800W        W75209  22.297  32.532   0.416
 8801W        W75210  39.619  37.255   1.801
 8802W        W75211  24.051   2.031  13.029
 8803W        W75212  28.981   1.667  11.217
 8804W        W75213   8.968  14.348   2.282
 8805W        W75214  17.044   0.885  10.124
 8806W        W75215  30.185  41.699   3.957
 8807W        W75216  42.995  20.227  13.398
 8808W        W75217  38.105  15.240   1.611
 8809W        W75218  44.815  38.586   0.718
 8810W        W75219   5.411  18.242   0.987
 8811W        W75220  32.451   9.834  14.588
 8812W        W75221  11.398  25.492  14.882
 8813W        W75222  32.965  41.993   3.552
 8814W        W75223  36.466   9.202   0.210
 8815W        W75224   5.679  27.593  10.913
 8816W        W75225   6.435   8.342  13.710
 8817W        W75226  20.012  12.223  12.443
 8818W        W75227  12.365  13.849  10.617
 8819W        W75228   6.829  12.781  11.231
 8820W        W75229  39.419  29.967   3.791
 8821W        W75230  24.706  19.716  11.016
 8822W        W75231  10.682   6.163   3.219
 8823W        W75232   9.157  20.652  14.271
 8824W        W75233   7.611   9.904   1.420
 8825W        W75234  11.384  19.769  14.525
 8826W        W75235  16.862  38.932  12.258
 8827W        W75236   8.157   7.873  11.569
 8828W        W75237  38.127  43.952  12.001
 8829W        W75238   4.720  17.701   0.910
 8830W        W75239  10.342  18.987   4.085
 8831W        W75240  15.305  14.619  13.189
 8832W        W75241  22.188   5.784  13.078
 8833W        W75242  16.752  44.903  10.302
 8834W        W75243  39.219  28.652   0.307
 8835W        W75244  34.078  29.142   0.910
 8836W        W75245  28.615  23.658   0.252
 8837W        W75246  19.404  25.037  11.007
 8838W        W75247  38.395  12.042   0.326
 8839W        W75248  25.769  29.520   0.316
 8840W        W75249  40.795  44.056   1.825
 8841W        W75250  35.568  35.603  11.509
 8842W        W75251  14.634  11.143   1.880
 8843W        W75252  38.620  17.185  12.089
 8844W        W75253  28.852   1.314  10.824
 8845W        W75254   7.679  18.660   2.449
 8846W        W75255  20.561  10.779  12.015
 8847W        W75256   0.209  23.970  11.579
 8848W        W75257  28.957   6.716   0.044
 8849W        W75258  19.294  13.777  14.529
 8850W        W75259  30.082  32.008   3.760
 8851W        W75260  38.845   8.716  12.485
 8852W        W75261  30.361   7.293  14.874
 8853W        W75262  28.057  36.001  12.169
 8854W        W75263  37.904   5.290  13.360
 8855W        W75264  34.052  31.337  12.661
 8856W        W75265  42.486  38.039  14.691
 8857W        W75266   5.912  39.731  10.645
 8858W        W75267  34.996   7.777  13.131
 8859W        W75268  21.650   0.863   2.727
 8860W        W75269  28.628  16.192   4.298
 8861W        W75270   7.857  30.546   4.599
 8862W        W75271  23.624  33.108  11.999
 8863W        W75272  18.075  41.991  13.524
 8864W        W75273  17.830  39.897   1.390
 8865W        W75274   9.707  38.589  11.204
 8866W        W75275  43.308  42.897   2.712
 8867W        W75276  28.446   2.922   3.825
 8868W        W75277  35.021  40.481   4.125
 8869W        W75278  27.768  10.700  10.688
 8870W        W75279   8.549  34.192  10.756
 8871W        W75280  38.514   0.034  14.473
 8872W        W75281   0.328  33.425   2.408
 8873W        W75282  35.337  44.771   4.177
 8874W        W75283  12.245  28.933   1.660
 8875W        W75284   5.433  23.112  13.980
 8876W        W75285  15.990   0.863   2.381
 8877W        W75286   1.885  43.208   2.891
 8878W        W75287  14.709  41.332  11.602
 8879W        W75288  18.854  43.877  12.523
 8880W        W75289  34.174  24.391  11.654
 8881W        W75290  15.214  10.967  13.507
 8882W        W75291  40.848  33.481  10.948
 8883W        W75292  36.860  10.634  10.840
 8884W        W75293   1.499   8.103   4.138
 8885W        W75294   5.201  43.842   1.079
 8886W        W75295  31.181  21.591  14.748
 8887W        W75296  40.651  27.936   3.234
 8888W        W75297   1.765  33.951  14.782
 8889W        W75298   0.979  20.747   0.717
 8890W        W75299   6.438  10.702   4.314
 8891W        W75300  43.779   4.274  12.527
 8892W        W75301  19.047  15.446  12.518
 8893W        W75302  27.646   0.028   2.304
 8894W        W75303   4.859   3.524  14.075
 8895W        W75304   6.663  20.071  13.433
 8896W        W75305  23.770  28.063   4.580
 8897W        W75306  21.040  31.859   2.703
 8898W        W75307  28.177  44.783  11.613
 8899W        W75308  24.122  23.085  13.382
 8900W        W75309  33.290  37.036   0.953
 8901W        W75310  32.056   5.729   2.710
 8902W        W75311  34.973  19.800   3.160
 8903W        W75312   9.221  44.527   2.676
 8904W        W75313  13.891  13.058  11.551
 8905W        W75314   5.253  11.502  11.143
 8906W        W75315  24.501  21.354  11.901
 8907W        W75316  16.266  22.266  11.887
 8908W        W75317   3.292  12.575  11.163
 8909W        W75318  42.581  41.991   4.280
 8910W        W75319  30.227  21.908  12.090
 8911W        W75320  25.083  32.643  14.684
 8912W        W75321  30.627  20.640   2.627
 8913W        W75322   9.860  16.101  13.021
 8914W        W75323  44.846  33.411  12.177
 8915W        W75324   5.453   4.962  10.758
 8916W        W75325   3.213  19.183   2.846
 8917W        W75326  18.060  36.070  13.471
 8918W        W75327  27.986  13.129  11.135
 8919W        W75328  21.540  30.312   4.635
 8920W        W75329  31.884  30.230  11.314
 8921W        W75330  11.924  44.718  10.866
 8922W        W75331  40.038  13.251  13.434
 8923W        W75332  40.205  44.704   0.269
 8924W        W75333  34.564  37.427   1.423
 8925W        W75334  37.855  44.080   3.173
 8926W        W75335   9.379  27.686   4.505
 8927W        W75336  20.029  24.634  12.980
 8928W        W75337   3.244   9.140   0.804
 8929W        W75338  41.837  31.588  12.017
 8930W        W75339   6.870  11.390   0.903
 8931W        W75340   2.187   4.170  11.606
 8932W        W75341  27.283  15.111   3.217
 8933W        W75342  24.913   4.322  12.512
 8934W        W75343  35.106  41.480   0.821
 8935W        W75344  28.415  26.790   4.243
 8936W        W75345  21.317   4.015  10.502
 8937W        W75346   4.191  22.151   1.773
 8938W        W75347  19.526  41.341  11.691
 8939W        W75348  32.428  42.980   2.742
 8940W        W75349  24.048  44.806  12.690
 8941W        W75350  17.834  44.532  12.530
 8942W        W75351  41.827  18.766  12.150
 8943W        W75352  23.140  12.887   2.657
 8944W        W75353   9.838  42.189  14.852
 8945W        W75354  11.280  35.333  11.576
 8946W        W75355   9.187  44.023   3.513
 8947W        W75356  25.659  44.832   4.147
 8948W        W75357  32.972  14.223  11.694
 8949W        W75358  10.023  41.308  11.528
 8950W        W75359  38.014  25.538  14.224
 8951W        W75360   1.410  35.783   4.623
 8952W        W75361  29.665  32.567  13.001
 8953W        W75362  24.335  36.403  12.028
 8954W        W75363  27.665  26.076  12.189
 8955W        W75364   6.539  32.572  13.067
 8956W        W75365  30.506   3.709   2.208
 8957W        W75366  15.778  35.477   0.021
 8958W        W75367  20.682  35.871   2.126
 8959W        W75368   3.718  35.875  14.324
 8960W        W75369  27.174  32.795   0.019
 8961W        W75370  30.859  34.486  14.409
 8962W        W75371  23.036  12.103   0.239
 8963W        W75372  32.646  14.688  14.030
 8964W        W75373  31.165  26.071   4.824
 8965W        W75374  39.361  42.392  14.764
 8966W        W75375  40.549  42.392  14.738
 8967W        W75376   9.243   9.099  14.665
 8968W        W75377  26.533   4.143  11.462
 8969W        W75378   3.428   8.383  14.331
 8970W        W75379   3.471   5.723  13.712
 8971W        W75380   0.423  25.120  14.287
 8972W        W75381  39.512  37.017   4.903
 8973W        W75382  34.173   3.795   0.810
 8974W        W75383  25.230   6.667  13.939
 8975W        W75384  41.294  34.818   0.881
 8976W        W75385  42.056  14.758   3.610
 8977W        W75386  39.914  32.012   1.730
 8978W        W75387  28.114  30.756  14.388
 8979W        W75388   1.184  17.999   0.738
 8980W        W75389  18.356  17.204   3.664
 8981W        W75390  43.323  39.446   0.857
 8982W        W75391  36.457   0.387   3.645
 8983W        W75392  20.332   2.540   4.113
 8984W        W75393  39.057  13.616   3.193
 8985W        W75394  39.358   2.375   3.370
 8986W        W75395  18.037  36.506   4.216
 8987W        W75396  34.867  44.283   3.611
 8988W        W75397  15.085  43.824  11.080
 8989W        W75398  44.104  24.554   1.360
 8990W        W75399   6.013  21.234  14.050
 8991W        W75400   2.687  20.609   2.232
 8992W        W75401  13.310   3.955  12.341
 8993W        W75402  36.084  41.303   0.986
 8994W        W75403  18.511  39.381  13.100
 8995W        W75404  26.033  33.030   4.758
 8996W        W75405  26.197  17.144  11.423
 8997W        W75406  36.424  22.677  14.872
 8998W        W75407  19.333  37.393  13.250
 8999W        W75408  30.953  11.760  11.551
 9000W        W75409  27.047  17.628   4.357
 9001W        W75410  43.770  17.547   2.755
 9002W        W75411  39.069  32.273   3.415
 9003W        W75412  20.993  25.142  12.448
 9004W        W75413  25.817  42.341  11.189
 9005W        W75414  11.836  33.658   3.807
 9006W        W75415  13.143  27.724  13.370
 9007W        W75416  22.785   4.357   2.829
 9008W        W75417  23.774  18.115   4.959
 9009W        W75418   4.212   4.584  13.336
 9010W        W75419   4.323  40.289  12.445
 9011W        W75420  12.645  17.079   1.016
 9012W        W75421   4.485   9.789  11.081
 9013W        W75422  22.574   3.427   4.874
 9014W        W75423  11.826   1.942  14.351
 9015W        W75424  22.936  28.782   0.326
 9016W        W75425  29.081  13.848  14.276
 9017W        W75426  26.549  36.414  12.416
 9018W        W75427  33.762   3.877  14.102
 9019W        W75428   6.129   7.183   5.342
 9020W        W75429  22.701  36.157  14.449
 9021W        W75430  16.068  41.517  11.477
 9022W        W75431   5.124  43.390   3.734
 9023W        W75432  20.735  10.381  11.342
 9024W        W75433  21.707  41.079  13.050
 9025W        W75434  32.581  12.429   0.879
 9026W        W75435  40.073   1.595  13.968
 9027W        W75436  17.788   1.922  12.526
 9028W        W75437  30.435   0.465   0.984
 9029W        W75438  21.138  16.293  10.920
 9030W        W75439   5.124  20.705  14.058
 9031W        W75440  23.902  44.443  14.293
 9032W        W75441  11.810  29.370   4.525
 9033W        W75442  34.851  17.232  11.214
 9034W        W75443  32.360   2.781  13.002
 9035W        W75444  30.115  40.881   1.002
 9036W        W75445   9.908   4.851   1.565
 9037W        W75446   4.575  28.149   4.287
 9038W        W75447  30.357  18.977   4.431
 9039W        W75448  34.337  11.747  13.319
 9040W        W75449  36.539   1.643   0.655
 9041W        W75450   8.481  12.745  12.777
 9042W        W75451  32.914  19.214  12.311
 9043W        W75452  42.105  37.199   4.157
 9044W        W75453  29.824  31.520   3.495
 9045W        W75454  25.553  18.659  11.824
 9046W        W75455  16.689  41.388  10.967
 9047W        W75456  32.068   5.076   4.011
 9048W        W75457   6.863   0.808   4.985
 9049W        W75458  19.691  44.205   4.480
 9050W        W75459  15.257  19.181  14.038
 9051W        W75460   1.330  33.803  13.935
 9052W        W75461  23.659   2.132  11.977
 9053W        W75462  26.458  17.908  11.085
 9054W        W75463  19.471  19.214  14.280
 9055W        W75464  39.730  40.626   0.169
 9056W        W75465  12.943  12.304  13.994
 9057W        W75466  10.267  15.706   1.527
 9058W        W75467   7.477  14.268  13.020
 9059W        W75468  13.708  42.461   4.905
 9060W        W75469  43.342  42.299   0.787
 9061W        W75470  12.798  19.597  12.973
 9062W        W75471  29.484  17.078   0.786
 9063W        W75472  28.711   8.147   3.446
 9064W        W75473  10.849  29.682  10.685
 9065W        W75474  30.689  25.291  14.726
 9066W        W75475   8.061  33.440   2.679
 9067W        W75476  10.087  18.347  12.661
 9068W        W75477   5.290  13.629   4.407
 9069W        W75478  14.687  27.583  11.626
 9070W        W75479   7.954  36.777   4.608
 9071W        W75480  36.428  11.303   4.822
 9072W        W75481   8.286  33.394  14.106
 9073W        W75482   2.215  25.864   1.863
 9074W        W75483  18.448  11.628  10.927
 9075W        W75484  17.263   4.090  12.045
 9076W        W75485  22.543  21.195   2.207
 9077W        W75486   9.967  21.087   1.741
 9078W        W75487  35.705   0.003   3.214
 9079W        W75488  16.917  30.508   0.851
 9080W        W75489  44.984   1.985  13.594
 9081W        W75490   4.763  33.669  13.827
 9082W        W75491  27.475   1.226   1.225
 9083W        W75492  21.294  10.380   2.278
 9084W        W75493   5.296  35.688  14.891
 9085W        W75494  21.003  30.147  12.083
 9086W        W75495  42.954  15.074   0.867
 9087W        W75496  41.359  41.309   1.934
 9088W        W75497  21.478   8.393   4.264
 9089W        W75498  16.969  20.142   4.895
 9090W        W75499  37.768  11.061  10.885
 9091W        W75500  39.024  43.323   1.912
 9092W        W75501  16.423  10.380  14.973
 9093W        W75502  21.757  14.194   0.330
 9094W        W75503  20.754  22.516  12.507
 9095W        W75504  20.772   9.653  11.125
 9096W        W75505  10.755  25.756  13.592
 9097W        W75506   4.958  11.673   1.656
 9098W        W75507  37.557  31.419   4.535
 9099W        W75508   5.836  27.927   1.333
 9100W        W75509  19.703  42.323   1.664
 9101W        W75510  17.526  43.877   1.291
 9102W        W75511  13.338   0.502  13.381
 9103W        W75512  33.202   3.446   3.201
 9104W        W75513  44.787   2.177  14.007
 9105W        W75514  18.004  15.068  14.771
 9106W        W75515  43.434   4.264   3.985
 9107W        W75516  23.954   8.494  14.686
 9108W        W75517  19.011  21.001   1.480
 9109W        W75518  33.530  32.164   1.139
 9110W        W75519  17.845  14.557   1.289
 9111W        W75520   9.311  41.537  12.586
 9112W        W75521  15.174  35.678  14.554
 9113W        W75522  38.122   1.377   4.579
 9114W        W75523  41.018  32.582   2.629
 9115W        W75524  26.255   6.985  11.289
 9116W        W75525  41.470   4.973   4.655
 9117W        W75526  29.558  44.939   1.325
 9118W        W75527  17.600  32.453   1.624
 9119W        W75528  26.976  23.244  12.910
 9120W        W75529  30.059   5.800   3.245
 9121W        W75530   4.723   2.915   1.317
 9122W        W75531  18.792  24.451  11.052
 9123W        W75532  13.727  43.922   3.910
 9124W        W75533  36.007   5.625  12.941
 9125W        W75534  35.989  18.331  14.388
 9126W        W75535   0.198  38.911   0.906
 9127W        W75536   2.661  34.119  13.418
 9128W        W75537  25.024  29.257   2.107
 9129W        W75538  20.980  28.090  12.446
 9130W        W75539  17.859  33.395  13.857
 9131W        W75540  31.149  15.158  11.637
 9132W        W75541  37.802  38.244   0.249
 9133W        W75542  21.314   1.763   0.518
 9134W        W75543  14.239  25.044  12.461
 9135W        W75544  21.742  20.258   3.934
 9136W        W75545  24.099  30.193   1.454
 9137W        W75546  19.104  21.046  13.852
 9138W        W75547  24.242  42.837  13.586
 9139W        W75548  37.903  11.130   1.028
 9140W        W75549   2.235  34.061  14.458
 9141W        W75550  35.838  30.099   4.005
 9142W        W75551  20.238  14.690   0.465
 9143W        W75552  15.760   3.883   0.075
 9144W        W75553  18.230   6.680  12.025
 9145W        W75554  23.324  42.865   3.118
 9146W        W75555  29.375   3.196   1.953
 9147W        W75556   4.847  29.068   3.884
 9148W        W75557   9.659  35.453  11.144
 9149W        W75558   8.857  13.790   1.115
 9150W        W75559   5.734  34.398   2.795
 9151W        W75560   0.715   4.704   3.114
 9152W        W75561  36.111   7.308  10.507
 9153W        W75562  26.183  41.908   4.469
 9154W        W75563  28.557   0.863   4.390
 9155W        W75564  34.466   0.642   9.738
 9156W        W75565  16.837  19.588   1.547
 9157W        W75566  36.741  30.589   3.401
 9158W        W75567  26.202   0.751   0.324
 9159W        W75568   7.954   8.912   3.187
 9160W        W75569  17.750   5.772  11.681
 9161W        W75570   5.852   2.657  13.469
 9162W        W75571  41.465   9.323  12.525
 9163W        W75572  26.508   3.364   3.349
 9164W        W75573   1.919  35.850  13.469
 9165W        W75574  36.354  20.578   4.661
 9166W        W75575  14.077   5.870  12.550
 9167W        W75576  41.123  42.281  12.865
 9168W        W75577  34.581   6.372   3.082
 9169W        W75578  40.970   1.776  13.470
 9170W        W75579  27.903  43.261  12.346
 9171W        W75580   8.366   2.277   0.803
 9172W        W75581   8.516  38.496  11.634
 9173W        W75582  24.919  17.470   4.158
 9174W        W75583  20.561  42.441  12.857
 9175W        W75584  17.575  14.091  14.474
 9176W        W75585  37.408   9.892  11.720
 9177W        W75586   5.027  35.408   3.309
 9178W        W75587  40.573   9.411   0.277
 9179W        W75588  41.053  20.572  14.074
 9180W        W75589  19.831  19.654  13.529
 9181W        W75590   2.296   8.216   4.676
 9182W        W75591   8.368  33.619   2.260
 9183W        W75592  23.628  20.303   1.277
 9184W        W75593  25.099   4.422   3.800
 9185W        W75594  13.049  40.418   3.650
 9186W        W75595  13.868  44.032   0.809
 9187W        W75596  29.812  21.285  10.933
 9188W        W75597  38.655   1.783  14.920
 9189W        W75598   9.545   6.095   1.783
 9190W        W75599  32.082  40.348  13.513
 9191W        W75600  38.062  13.549   2.598
 9192W        W75601  14.010  19.001   0.578
 9193W        W75602  38.637  20.582  10.049
 9194W        W75603  19.574  31.624  12.003
 9195W        W75604  12.545  16.742  12.112
 9196W        W75605  15.730   7.124  14.382
 9197W        W75606  23.587  11.570   2.911
 9198W        W75607   7.426  31.796  12.100
 9199W        W75608  41.804  29.095   3.748
 9200W        W75609  21.755   4.222  14.305
 9201W        W75610  27.097  38.897   1.886
 9202W        W75611   5.438   6.361   3.399
 9203W        W75612  28.976  40.863   4.449
 9204W        W75613  31.866  19.559  11.447
 9205W        W75614  38.087  33.134  13.010
 9206W        W75615   0.870  29.213  11.054
 9207W        W75616  34.436  33.972   1.426
 9208W        W75617  39.876  31.143  13.854
 9209W        W75618  25.184  18.632  10.578
 9210W        W75619  27.068  27.230   4.597
 9211W        W75620  42.991   3.474  11.914
 9212W        W75621  37.968   3.532  11.680
 9213W        W75622  37.561  23.341  13.766
 9214W        W75623   7.342  39.422  12.550
 9215W        W75624   4.410  37.047   0.568
 9216W        W75625  31.285   0.519  14.367
 9217W        W75626  18.900  25.832   3.779
 9218W        W75627  15.402  36.675  10.293
 9219W        W75628  12.745   1.789   2.353
 9220W        W75629  39.341  36.312   2.616
 9221W        W75630  43.862  21.762   2.763
 9222W        W75631  35.479  40.847   3.800
 9223W        W75632  20.845   7.559  14.726
 9224W        W75633  41.988  22.520   1.159
 9225W        W75634  20.683  39.079  10.919
 9226W        W75635  10.919  36.566   1.087
 9227W        W75636  35.060  23.501  12.006
 9228W        W75637  30.756  44.213  12.220
 9229W        W75638  11.713   5.774  11.233
 9230W        W75639   7.295  27.681  11.362
 9231W        W75640  29.832  35.364  12.170
 9232W        W75641  16.393  37.226   0.115
 9233W        W75642  40.962  10.182   3.204
 9234W        W75643   2.735  40.593  13.539
 9235W        W75644  42.047   2.326   2.052
 9236W        W75645   8.560   5.258   4.597
 9237W        W75646  21.586  34.709  11.964
 9238W        W75647  26.201   0.057   3.504
 9239W        W75648   4.634  13.084  14.921
 9240W        W75649   7.272   1.194  13.463
 9241W        W75650   2.942  38.149  13.453
 9242W        W75651  43.310   3.956   0.409
 9243W        W75652   8.689  30.435   3.246
 9244W        W75653  44.470  36.261   2.404
 9245W        W75654  11.136   3.846   1.324
 9246W        W75655  17.125  16.803   1.491
 9247W        W75656  29.598   1.175  11.494
 9248W        W75657  42.020  26.300   3.681
 9249W        W75658  31.957  35.621  14.523
 9250W        W75659  38.337  38.245   0.312
 9251W        W75660  40.719  16.818   1.229
 9252W        W75661  23.243   2.306   4.428
 9253W        W75662  15.224  22.218  13.367
 9254W        W75663  20.051  25.569   3.252
 9255W        W75664   2.263  12.159   4.411
 9256W        W75665  36.495  32.764   4.122
 9257W        W75666   8.926   4.456   3.682
 9258W        W75667  30.414  39.487  14.877
 9259W        W75668   3.378  28.969   0.876
 9260W        W75669  27.651  26.495  14.277
 9261W        W75670  22.687  38.400  11.545
 9262W        W75671   5.995  31.850   3.401
 9263W        W75672  28.506  24.125  11.537
 9264W        W75673  25.486   8.744   3.762
 9265W        W75674  37.959   0.013  13.808
 9266W        W75675  28.572  22.179   4.011
 9267W        W75676  39.507  41.837   4.176
 9268W        W75677   1.528  23.835  14.254
 9269W        W75678  28.325  11.117   2.391
 9270W        W75679  23.047  26.087   1.999
 9271W        W75680  17.512  27.616  12.199
 9272W        W75681   6.994  22.039   2.286
 9273W        W75682  10.745   6.443  14.275
 9274W        W75683  18.154  19.111   0.857
 9275W        W75684  28.077  33.695   4.104
 9276W        W75685  14.290   0.400  14.563
 9277W        W75686  40.557  27.898   2.378
 9278W        W75687  40.099  23.942  11.868
 9279W        W75688  35.606   4.159   1.367
 9280W        W75689  25.272  27.092   4.718
 9281W        W75690   3.641  31.966  14.521
 9282W        W75691  21.583  40.339   2.952
 9283W        W75692  17.732   8.926   4.479
 9284W        W75693  33.343  37.521  11.606
 9285W        W75694  40.498  44.413  10.340
 9286W        W75695   1.906  32.293   4.970
 9287W        W75696  22.140  10.670   4.601
 9288W        W75697  37.978  11.915  11.147
 9289W        W75698  18.633  40.778  12.720
 9290W        W75699  31.463  16.052   1.294
 9291W        W75700  31.397  42.375   4.066
 9292W        W75701   5.883  14.586  12.464
 9293W        W75702  41.209  35.271   3.572
 9294W        W75703   5.116   8.184   1.351
 9295W        W75704  11.627  21.258  10.254
 9296W        W75705  38.967  13.565  12.516
 9297W        W75706  17.780   3.271  13.325
 9298W        W75707  39.667  15.041   5.095
 9299W        W75708   9.557   0.647  11.132
 9300W        W75709  43.193  38.444  14.354
 9301W        W75710  29.452  34.837  11.015
 9302W        W75711  44.985   8.094  11.621
 9303W        W75712  44.067   2.671  14.491
 9304W        W75713  39.869  18.660  13.071
 9305W        W75714   0.701  25.562   1.219
 9306W        W75715  34.534  42.105   2.721
 9307W        W75716   0.015  22.370   3.254
 9308W        W75717  35.356   8.227   3.284
 9309W        W75718  25.004   5.879  12.362
 9310W        W75719  17.091   1.392  11.457
 9311W        W75720  37.186  30.111   4.132
 9312W        W75721  22.242   5.446  13.937
 9313W        W75722  24.398  16.380   1.883
 9314W        W75723  33.200  38.152   4.922
 9315W        W75724  28.926  16.110   1.284
 9316W        W75725  42.197  27.597  13.559
 9317W        W75726  14.828  17.142  13.111
 9318W        W75727  22.516  12.851  12.365
 9319W        W75728  22.206  16.103  11.573
 9320W        W75729  28.503  35.988   4.476
 9321W        W75730   5.847  16.805  14.864
 9322W        W75731   9.074  20.344  12.859
 9323W        W75732  28.635   0.691  11.574
 9324W        W75733  13.763  40.387   1.675
 9325W        W75734   1.919  32.292   0.452
 9326W        W75735  12.807  24.197  11.960
 9327W        W75736  18.070   8.661  14.667
 9328W        W75737  22.582  34.624  13.420
 9329W        W75738   6.158  43.412  11.656
 9330W        W75739  22.295   1.333   2.304
 9331W        W75740  42.073  20.027   2.237
 9332W        W75741   9.874  35.903  10.201
 9333W        W75742   7.823  27.018   2.594
 9334W        W75743   7.633  39.751   2.815
 9335W        W75744  30.446  21.467   1.262
 9336W        W75745  13.798  15.277  11.907
 9337W        W75746  37.625  25.342   2.347
 9338W        W75747  34.386   2.814   4.072
 9339W        W75748   4.824   3.861  14.770
 9340W        W75749  21.850   0.226   1.923
 9341W        W75750  24.949  25.103   4.425
 9342W        W75751  23.393  17.772   1.201
 9343W        W75752  22.010  28.379  14.287
 9344W        W75753  25.862  12.145  13.484
 9345W        W75754  15.991  22.295  12.883
 9346W        W75755  11.415  16.271  10.626
 9347W        W75756  40.301   6.906   0.086
 9348W        W75757  11.756  43.824   5.372
 9349W        W75758  18.086  23.298   0.317
 9350W        W75759  37.538  42.716   3.862
 9351W        W75760  37.363   2.479  14.492
 9352W        W75761  11.191   6.660   0.784
 9353W        W75762  22.829   3.576  11.444
 9354W        W75763  36.404  36.787   4.795
 9355W        W75764   6.417  37.002  11.502
 9356W        W75765  23.183  15.646  14.447
 9357W        W75766  32.992  19.578  12.969
 9358W        W75767  16.237  34.856   1.183
 9359W        W75768   7.732  32.712   3.219
 9360W        W75769  27.497   7.943   4.462
 9361W        W75770  39.955  30.041   4.046
 9362W        W75771  18.944  16.817   0.279
 9363W        W75772  36.391  44.880   0.696
 9364W        W75773   7.680  28.220   1.401
 9365W        W75774   0.090  34.138  11.668
 9366W        W75775  24.530  36.571   0.352
 9367W        W75776  20.534   5.013  14.299
 9368W        W75777   6.860  43.415   1.459
 9369W        W75778  40.685   6.685   4.188
 9370W        W75779  23.882  35.355   1.565
 9371W        W75780  21.653  22.710  10.748
 9372W        W75781   4.214   3.458   3.479
 9373W        W75782  29.619   4.138   5.007
 9374W        W75783   9.102  17.086   3.789
 9375W        W75784  34.436  22.190  12.121
 9376W        W75785  32.921  44.991   1.197
 9377W        W75786  40.671   7.054   0.898
 9378W        W75787  34.509   3.988  14.919
 9379W        W75788   0.683   3.046  12.683
 9380W        W75789   1.218  43.935  11.196
 9381W        W75790  28.174  26.202  14.907
 9382W        W75791  23.231  31.729   4.232
 9383W        W75792   5.228  22.985   1.551
 9384W        W75793  37.636  30.371  13.240
 9385W        W75794  38.755  38.563   2.725
 9386W        W75795  39.399  19.098  13.822
 9387W        W75796   8.401  44.358   1.803
 9388W        W75797  41.786  30.194   0.245
 9389W        W75798  25.108  26.441  11.934
 9390W        W75799  31.950  23.604   1.290
 9391W        W75800  44.713  37.531  13.925
 9392W        W75801  27.065  38.008  13.841
 9393W        W75802  39.757  10.608  12.931
 9394W        W75803   3.294   3.843   2.224
 9395W        W75804  41.842  21.879   4.599
 9396W        W75805  44.502  19.391  13.913
 9397W        W75806  41.821  32.039  14.487
 9398W        W75807  30.688  33.514  14.460
 9399W        W75808  10.081  24.493   2.315
 9400W        W75809  17.270  13.378   0.744
 9401W        W75810  43.745  11.169   0.252
 9402W        W75811  25.150  42.829   1.252
 9403W        W75812  26.051  13.861  10.505
 9404W        W75813  34.608   1.213  12.013
 9405W        W75814  15.020   0.458   4.209
 9406W        W75815  42.500  35.783   4.324
 9407W        W75816  29.127  29.466  12.317
 9408W        W75817  35.298  23.868  12.852
 9409W        W75818  38.578  15.296   3.691
 9410W        W75819  30.323   4.314   1.765
 9411W        W75820  38.322  42.331  12.036
 9412W        W75821  32.034  35.837  12.130
 9413W        W75822  24.690   4.808   4.301
 9414W        W75823  29.678   0.308  12.975
 9415W        W75824   0.938  29.422   3.389
 9416W        W75825  32.028  26.962  13.138
 9417W        W75826  15.091  17.323   4.258
 9418W        W75827  33.561   6.762   4.560
 9419W        W75828   9.958   4.270  11.562
 9420W        W75829   9.735  44.486   0.990
 9421W        W75830  22.538  26.101   1.314
 9422W        W75831  40.903  11.935  10.267
 9423W        W75832  21.815  10.134  13.513
 9424W        W75833  15.369  11.474  13.403
 9425W        W75834   4.950  41.019  14.487
 9426W        W75835  20.311  10.874  13.373
 9427W        W75836   5.846  26.105   3.498
 9428W        W75837  41.391   4.781  11.165
 9429W        W75838  12.879  43.790  13.396
 9430W        W75839  22.442  43.471  12.248
 9431W        W75840   1.446  35.998  10.643
 9432W        W75841  35.328  14.291  11.607
 9433W        W75842   3.039  40.552   1.201
 9434W        W75843   4.690  24.035   0.193
 9435W        W75844   7.329  19.313   2.748
 9436W        W75845  42.500   2.939  10.794
 9437W        W75846  37.879   2.173  11.883
 9438W        W75847  21.189  18.501  13.895
 9439W        W75848  24.537  17.118   4.170
 9440W        W75849  30.018  30.700   0.884
 9441W        W75850  20.511   5.704   0.288
 9442W        W75851  15.205  14.743  14.695
 9443W        W75852  42.315  42.756  14.767
 9444W        W75853  19.771  35.872   3.117
 9445W        W75854  43.692  11.781   3.320
 9446W        W75855  36.956  10.862  12.789
 9447W        W75856  41.068  22.511   4.555
 9448W        W75857  22.192  16.873   4.602
 9449W        W75858   1.446  40.611  12.088
 9450W        W75859  23.936  40.368   1.619
 9451W        W75860  10.938  30.919   3.321
 9452W        W75861  35.680  40.501  11.994
 9453W        W75862  23.490  11.810   3.371
 9454W        W75863   4.171  33.020   2.831
 9455W        W75864  38.931  21.464  14.461
 9456W        W75865  44.311  23.215  10.906
 9457W        W75866  29.120  33.907  11.421
 9458W        W75867   5.049   4.786  11.704
 9459W        W75868  40.300  22.652   2.368
 9460W        W75869  27.477  11.372   2.491
 9461W        W75870  27.123   0.428   4.599
 9462W        W75871  21.298  42.935  10.592
 9463W        W75872   7.425  25.752  14.067
 9464W        W75873   4.152  33.925  13.401
 9465W        W75874  41.433  44.847  11.156
 9466W        W75875   2.833   2.700   3.899
 9467W        W75876  12.132  37.021   9.946
 9468W        W75877  19.151   6.438  11.737
 9469W        W75878  21.689  14.567  13.515
 9470W        W75879   8.226  30.389   0.299
 9471W        W75880  13.668  43.309  10.724
 9472W        W75881  20.566  11.362   2.121
 9473W        W75882  17.529  32.762  11.966
 9474W        W75883   7.575  44.490  12.087
 9475W        W75884   6.895   5.351   3.605
 9476W        W75885  24.171  27.703  12.386
 9477W        W75886   6.201  19.886  10.779
 9478W        W75887  43.018   6.186  13.749
 9479W        W75888  29.076  16.006  10.498
 9480W        W75889  26.182  12.585   0.843
 9481W        W75890   4.398  15.084   1.653
 9482W        W75891  14.921  25.714   4.264
 9483W        W75892  27.170   3.687   0.422
 9484W        W75893   0.755  35.425   1.285
 9485W        W75894   3.465  32.982  10.918
 9486W        W75895  32.231  36.037  11.712
 9487W        W75896  20.226  28.579   1.582
 9488W        W75897   6.863  29.093  12.371
 9489W        W75898  43.357  43.727  12.080
 9490W        W75899   8.998   0.917   4.982
 9491W        W75900   2.193   6.664   3.230
 9492W        W75901  37.807   0.532  13.528
 9493W        W75902  32.851  28.379  14.227
 9494W        W75903  43.591  31.421  11.689
 9495W        W75904  34.798   1.393  10.719
 9496W        W75905  17.663  14.747  13.891
 9497W        W75906   2.582  23.608  10.654
 9498W        W75907  36.562   6.254  11.997
 9499W        W75908  34.443  44.818   1.938
 9500W        W75909  11.337  42.311  14.945
 9501W        W75910   5.766  26.911   0.447
 9502W        W75911  23.499  30.522   2.128
 9503W        W75912  19.484  10.310   4.610
 9504W        W75913  19.789  38.853  14.050
 9505W        W75914  36.327   8.264  14.385
 9506W        W75915  21.655  22.709   0.390
 9507W        W75916  11.218  30.931  12.853
 9508W        W75917  15.545  35.421   3.388
 9509W        W75918   8.425  20.688  14.971
 9510W        W75919  33.159   4.289  12.530
 9511W        W75920  16.370  29.702  12.689
 9512W        W75921  37.092  31.417  12.450
 9513W        W75922   3.806  10.275   0.485
 9514W        W75923   3.888  38.840   2.811
 9515W        W75924  27.161   1.145   2.518
 9516W        W75925   7.836  40.909   2.796
 9517W        W75926  36.632  39.554   1.869
 9518W        W75927  30.400  37.464  12.495
 9519W        W75928  11.437   4.919   4.519
 9520W        W75929   2.272   5.896   1.922
 9521W        W75930  41.904  28.184  12.146
 9522W        W75931  17.311  10.661   4.566
 9523W        W75932  37.864  30.408  11.987
 9524W        W75933  35.886  28.650   0.243
 9525W        W75934   1.569  36.498   0.933
 9526W        W75935  12.195  20.457  11.102
 9527W        W75936  31.481  18.168  12.137
 9528W        W75937   2.723  24.069   3.378
 9529W        W75938   7.902   0.380   2.127
 9530W        W75939  30.732  27.976  14.433
 9531W        W75940  17.296   1.083  10.603
 9532W        W75941  13.488  11.723   3.725
 9533W        W75942  25.652  26.242  12.013
 9534W        W75943  39.036  28.948   3.208
 9535W        W75944  43.411   1.621  11.917
 9536W        W75945   4.804  29.931  14.940
 9537W        W75946   3.522  10.038  14.818
 9538W        W75947  28.565  14.152  12.842
 9539W        W75948  40.659   6.848  12.681
 9540W        W75949  44.484  12.318  12.161
 9541W        W75950  14.788  25.160  13.363
 9542W        W75951   4.400  14.790  11.542
 9543W        W75952  31.550  28.854  13.880
 9544W        W75953   0.484  10.932  12.428
 9545W        W75954  27.500   4.203   2.621
 9546W        W75955   7.355  22.649  11.921
 9547W        W75956   3.346   1.386   0.414
 9548W        W75957  26.958  44.888   2.888
 9549W        W75958   6.179   9.410   0.474
 9550W        W75959  22.761  18.728   2.092
 9551W        W75960   5.196  21.327  12.889
 9552W        W75961  27.919  43.733   0.416
 9553W        W75962  39.372  19.017   1.809
 9554W        W75963   9.662   2.194  11.467
 9555W        W75964   5.006  39.496  14.965
 9556W        W75965  15.066  37.250   2.373
 9557W        W75966  31.197   3.676  12.018
 9558W        W75967  37.289  37.504  12.993
 9559W        W75968  33.662  16.649  14.610
 9560W        W75969   8.785   8.029   3.780
 9561W        W75970   7.819  21.168   5.004
 9562W        W75971  32.066  10.917   2.081
 9563W        W75972  16.564  33.845   4.071
 9564W        W75973   9.780   3.362   3.305
 9565W        W75974  11.373  34.937  11.241
 9566W        W75975   3.269  42.958   0.324
 9567W        W75976  34.123  43.506   4.561
 9568W        W75977  41.790  12.630   0.361
 9569W        W75978  13.276  11.861  11.626
 9570W        W75979  19.782  14.125   1.226
 9571W        W75980  24.792  35.630   4.715
 9572W        W75981  26.650  18.506   4.123
 9573W        W75982  41.600   8.574   5.054
 9574W        W75983  16.218  13.295   0.696
 9575W        W75984  17.566  22.350  11.120
 9576W        W75985  14.559  44.275   4.098
 9577W        W75986  22.605  33.046   0.271
 9578W        W75987  17.852  27.482   3.271
 9579W        W75988  15.004  34.086  13.942
 9580W        W75989  35.453   2.599  10.055
 9581W        W75990  19.378  27.268  12.494
 9582W        W75991  37.923   6.679  11.187
 9583W        W75992  31.956   8.237   3.097
 9584W        W75993  22.468  22.776  14.771
 9585W        W75994   0.479   7.772  14.075
 9586W        W75995  41.888  12.883   5.239
 9587W        W75996   1.382   2.716  11.145
 9588W        W75997  11.838  41.312   0.487
 9589W        W75998  31.897  39.259  10.750
 9590W        W75999  18.859   4.024   4.518
 9591W        W76000  18.841  22.996   3.697
 9592W        W76001  15.859  40.356  10.607
 9593W        W76002  16.813   9.376   3.094
 9594W        W76003   7.470   4.165  14.599
 9595W        W76004  12.013   2.495  13.985
 9596W        W76005  29.020  30.847   0.152
 9597W        W76006  43.773  40.050  13.977
 9598W        W76007   7.803  29.479  12.075
 9599W        W76008  41.952  31.939  12.572
 9600W        W76009  26.804  21.002   4.954
 9601W        W76010   4.926  41.417  12.962
 9602W        W76011   5.157  38.512  12.917
 9603W        W76012  44.165  24.794   2.362
 9604W        W76013  22.968  14.403   1.804
 9605W        W76014  13.255  27.465  12.936
 9606W        W76015   4.852  44.418   4.829
 9607W        W76016  42.030  32.552   1.964
 9608W        W76017  32.288  25.599   1.255
 9609W        W76018  14.120  18.688  10.637
 9610W        W76019   9.715  12.737   3.398
 9611W        W76020   9.618  19.236   0.325
 9612W        W76021  27.712   5.350   0.631
 9613W        W76022  42.970   5.279  14.473
 9614W        W76023  10.643   1.006   1.772
 9615W        W76024   7.026  33.756  14.514
 9616W        W76025  15.606  42.808   1.795
 9617W        W76026  20.696   4.955  10.570
 9618W        W76027  12.194   0.892  12.918
 9619W        W76028  41.037  36.332  11.658
 9620W        W76029  10.089  27.183   2.922
 9621W        W76030  18.004  31.355   3.938
 9622W        W76031  16.066  21.652  11.235
 9623W        W76032  14.608   8.617   4.168
 9624W        W76033  39.255  29.607  11.924
 9625W        W76034  41.524  42.841   3.149
 9626W        W76035  29.405  24.993  10.808
 9627W        W76036  38.982  15.068  12.540
 9628W        W76037   9.808  14.479  12.168
 9629W        W76038  19.351  14.115   1.817
 9630W        W76039   6.885   4.189   0.336
 9631W        W76040  11.313   8.256   4.147
 9632W        W76041  18.785  11.826  14.341
 9633W        W76042   2.095  22.269   1.600
 9634W        W76043  36.625  42.258   3.709
 9635W        W76044   5.807  28.991   4.431
 9636W        W76045  15.650  40.608   4.540
 9637W        W76046  20.107  39.870  14.782
 9638W        W76047  37.331   0.553  13.817
 9639W        W76048  11.650  20.973  13.458
 9640W        W76049   1.470   8.799   1.914
 9641W        W76050  43.018   6.456   4.698
 9642W        W76051   7.423   5.656   1.292
 9643W        W76052  17.960   9.865  14.781
 9644W        W76053   6.188   8.835  11.155
 9645W        W76054  39.419  43.508   3.875
 9646W        W76055  16.136  13.462  12.519
 9647W        W76056  24.097   5.761   2.889
 9648W        W76057  11.139  18.070   0.798
 9649W        W76058  25.378  27.494   4.298
 9650W        W76059  27.946  38.606   4.087
 9651W        W76060  20.946  39.665   1.043
 9652W        W76061  12.216  14.964   4.106
 9653W        W76062  13.311  12.720   1.902
 9654W        W76063  23.463   3.212   1.256
 9655W        W76064  23.336  16.697  13.462
 9656W        W76065  14.577  23.464  14.748
 9657W        W76066  25.073   8.348   4.550
 9658W        W76067  10.952  16.520  12.620
 9659W        W76068  28.750  12.184   4.074
 9660W        W76069  43.448  23.549  11.759
 9661W        W76070  28.904  22.512   4.314
 9662W        W76071   8.263  30.906   2.137
 9663W        W76072   9.032  22.049   2.314
 9664W        W76073  28.008  32.515   1.580
 9665W        W76074  13.747  11.340   0.195
 9666W        W76075  11.903  32.621   3.893
 9667W        W76076  17.838   6.641   2.814
 9668W        W76077  23.097   5.590   4.664
 9669W        W76078  42.369  40.729   1.892
 9670W        W76079  13.768   1.921  13.365
 9671W        W76080  37.075  29.848  13.550
 9672W        W76081  40.948   7.433   5.645
 9673W        W76082  42.789  26.959  13.073
 9674W        W76083  38.797  34.063  11.088
 9675W        W76084  30.304  26.137   4.114
 9676W        W76085   8.788   3.402  12.978
 9677W        W76086   3.836  15.982   3.196
 9678W        W76087  44.491  25.513   2.346
 9679W        W76088  31.031  14.380  13.329
 9680W        W76089  15.267  27.065  14.342
 9681W        W76090  22.044   9.356   0.392
 9682W        W76091  42.281   6.620   4.519
 9683W        W76092  17.534   6.498   4.294
 9684W        W76093  17.927  28.485   4.627
 9685W        W76094  33.191  17.643  12.434
 9686W        W76095  24.166  38.063  14.510
 9687W        W76096  27.570   1.436   2.611
 9688W        W76097  37.115  16.535  13.021
 9689W        W76098  29.990   1.730  11.929
 9690W        W76099  22.558  26.724   2.074
 9691W        W76100   6.197  31.128   1.060
 9692W        W76101   7.247  42.653   1.879
 9693W        W76102  43.386  30.609   1.775
 9694W        W76103  19.068  35.005  14.549
 9695W        W76104  41.628  23.491  14.261
 9696W        W76105  24.908  30.891  14.164
 9697W        W76106  27.397  30.059   0.827
 9698W        W76107  25.143  43.407  11.252
 9699W        W76108  22.862   0.776  13.507
 9700W        W76109  41.103  10.229   0.428
 9701W        W76110  12.896  18.284  10.431
 9702W        W76111   7.357  17.638   4.862
 9703W        W76112  19.051   0.901  13.780
 9704W        W76113  44.310  17.969   4.628
 9705W        W76114  13.182  29.267   0.418
 9706W        W76115   1.243  15.965  12.121
 9707W        W76116  43.701  18.857  12.846
 9708W        W76117  11.242  12.693  12.917
 9709W        W76118   9.078  23.157  13.489
 9710W        W76119  28.547   4.617  10.927
 9711W        W76120  13.091  22.981   3.556
 9712W        W76121   6.448   2.702  13.516
 9713W        W76122   2.152  41.882   2.453
 9714W        W76123  20.593  33.975  14.310
 9715W        W76124  36.096   2.833  10.532
 9716W        W76125  16.225  38.657   1.820
 9717W        W76126   3.888  20.295  13.499
 9718W        W76127  18.201  22.463  10.965
 9719W        W76128  43.620  27.429   4.147
 9720W        W76129  19.223  17.502  12.451
 9721W        W76130  15.842  20.163  13.791
 9722W        W76131  12.892  23.326  10.940
 9723W        W76132  29.838  25.691  13.064
 9724W        W76133  33.864  11.618   1.277
 9725W        W76134  25.387  36.446  11.145
 9726W        W76135  26.642  14.568  10.619
 9727W        W76136  41.927   5.595   2.113
 9728W        W76137  44.725  37.903  12.889
 9729W        W76138  31.453  20.074  12.079
 9730W        W76139  16.636   3.334   0.060
 9731W        W76140  39.423  14.151   1.503
 9732W        W76141  20.601   6.617   1.290
 9733W        W76142   8.368   2.022   1.285
 9734W        W76143   5.250  17.262   1.542
 9735W        W76144   9.986  22.267  14.040
 9736W        W76145   1.311  38.809  10.873
 9737W        W76146  22.110  24.490  11.538
 9738W        W76147  25.845  39.290   2.117
 9739W        W76148  30.544  10.162   3.644
 9740W        W76149  41.902  39.047   4.013
 9741W        W76150  14.577  26.503   4.164
 9742W        W76151  28.467   9.017   3.325
 9743W        W76152  43.310  26.558   3.768
 9744W        W76153  40.382  14.368  14.722
 9745W        W76154   7.038  23.591  11.989
 9746W        W76155  14.594  35.792  12.088
 9747W        W76156  15.294  30.761   1.792
 9748W        W76157   1.939  30.190   0.237
 9749W        W76158  40.561  29.839  13.143
 9750W        W76159   2.344   9.427  14.781
 9751W        W76160  15.859  38.060   0.377
 9752W        W76161  22.621  33.118  14.685
 9753W        W76162   2.018   2.548  13.750
 9754W        W76163  37.399  14.629  14.525
 9755W        W76164   7.038   6.948  11.647
 9756W        W76165   7.427  30.561   1.719
 9757W        W76166   4.571  24.955   1.496
 9758W        W76167   6.438   0.622   1.254
 9759W        W76168  14.027   3.856  10.984
 9760W        W76169  44.532  30.100   3.168
 9761W        W76170  20.022  27.975  11.587
 9762W        W76171  10.589  29.210  10.665
 9763W        W76172   9.132   4.711  10.331
 9764W        W76173  37.151  36.995  13.061
 9765W        W76174   8.204   1.876  11.232
 9766W        W76175  25.427  32.864  11.668
 9767W        W76176  30.525  27.569   4.043
 9768W        W76177  20.902  22.945  12.925
 9769W        W76178  34.532   1.729   1.623
 9770W        W76179   6.886   5.689   2.835
 9771W        W76180   4.209  28.891  11.189
 9772W        W76181   2.810  10.389   2.746
 9773W        W76182  35.671  32.665  11.502
 9774W        W76183  40.732  18.179  12.370
 9775W        W76184  43.925  37.824  11.539
 9776W        W76185  10.106   7.265   1.267
 9777W        W76186   4.293  30.578   0.569
 9778W        W76187  12.241  36.636  10.318
 9779W        W76188  14.138  13.257   3.743
 9780W        W76189  36.079  26.343   2.382
 9781W        W76190   6.697  13.740  14.605
 9782W        W76191  14.567  14.834  12.091
 9783W        W76192   0.408  38.519   2.537
 9784W        W76193   1.541  39.991  10.787
 9785W        W76194  10.182  25.798   3.733
 9786W        W76195  37.497  24.054   3.748
 9787W        W76196  28.490   7.951  11.214
 9788W        W76197   7.722   9.786  14.470
 9789W        W76198  15.112  14.683   2.706
 9790W        W76199  41.847  43.601  12.828
 9791W        W76200   4.816   6.807  12.651
 9792W        W76201  39.941  37.133  10.672
 9793W        W76202  12.120  30.330   2.902
 9794W        W76203   9.273  15.163   0.313
 9795W        W76204  43.222   4.782  10.094
 9796W        W76205  21.815  29.563   1.322
 9797W        W76206  28.689  29.286  12.520
 9798W        W76207  11.611   5.745  12.279
 9799W        W76208  33.650  11.630   0.296
 9800W        W76209  22.593  31.946   1.816
 9801W        W76210  41.017  33.348  13.096
 9802W        W76211  41.910   4.672  14.260
 9803W        W76212  10.429  21.605  13.058
 9804W        W76213   9.770  36.092  10.663
 9805W        W76214   9.445  30.920   5.257
 9806W        W76215  28.076  15.502   3.728
 9807W        W76216   2.721  44.737   4.814
 9808W        W76217  16.991  25.188  12.062
 9809W        W76218  38.318  23.100   0.359
 9810W        W76219   5.520  22.737  10.960
 9811W        W76220   0.492  42.433   3.595
 9812W        W76221   7.166  40.992  11.441
 9813W        W76222  27.877   7.846   1.343
 9814W        W76223  40.464  10.153   0.854
 9815W        W76224  10.663  13.559  13.855
 9816W        W76225  38.391  20.092   0.929
 9817W        W76226  41.990  41.510  10.672
 9818W        W76227  29.190   9.745  14.966
 9819W        W76228   9.807  15.384  10.378
 9820W        W76229  36.906  31.635  10.495
 9821W        W76230   6.430   8.392   2.871
 9822W        W76231  18.629  36.151  14.309
 9823W        W76232  21.627  34.747   0.694
 9824W        W76233  14.559  17.057  12.168
 9825W        W76234  13.792  35.103   1.715
 9826W        W76235  22.183  13.434  12.364
 9827W        W76236  16.256  14.487   2.889
 9828W        W76237   5.209   5.885  10.888
 9829W        W76238   4.828   4.905   1.027
 9830W        W76239  13.241   3.869  14.613
 9831W        W76240   5.871  20.731  13.310
 9832W        W76241  33.483   9.887   3.034
 9833W        W76242  12.693  32.164  14.762
 9834W        W76243   4.892  37.817  14.334
 9835W        W76244  24.685  23.892  13.358
 9836W        W76245  43.652   6.824  13.609
 9837W        W76246  42.361  35.509  11.216
 9838W        W76247   8.360  21.347   3.202
 9839W        W76248  34.321  32.113   4.117
 9840W        W76249  15.096  33.097   0.127
 9841W        W76250  27.569  23.455  13.849
 9842W        W76251  33.954   6.280   2.504
 9843W        W76252   7.278  32.316   9.846
 9844W        W76253  13.085  35.045   2.854
 9845W        W76254  41.930   6.888   2.686
 9846W        W76255  24.652  16.487   2.845
 9847W        W76256  14.049  14.329  11.501
 9848W        W76257  19.721  27.435  12.845
 9849W        W76258   1.168  37.514  14.462
 9850W        W76259  30.710  37.280  11.255
 9851W        W76260  16.516  36.882  14.621
 9852W        W76261  37.475   6.274  10.748
 9853W        W76262  35.913  43.517  12.623
 9854W        W76263  28.215  38.803   0.466
 9855W        W76264   1.296  23.745   3.569
 9856W        W76265   1.798  13.332  10.566
 9857W        W76266  34.462  41.135   3.469
 9858W        W76267  38.881  14.827  10.140
 9859W        W76268  15.149   1.474   4.026
 9860W        W76269   4.369  18.350   2.225
 9861W        W76270  34.586  37.999   2.142
 9862W        W76271  33.139  42.316   2.752
 9863W        W76272  25.496  32.028   3.037
 9864W        W76273  13.249  30.168   1.956
 9865W        W76274   7.860   1.012   4.096
 9866W        W76275   9.540  38.717  13.980
 9867W        W76276  39.071  11.330  11.037
 9868W        W76277  39.048  44.229   1.969
 9869W        W76278  36.429  15.158  10.539
 9870W        W76279   5.369  12.035  13.446
 9871W        W76280   4.316   6.689  12.539
 9872W        W76281  36.360   6.315   0.528
 9873W        W76282  25.990  22.981   3.590
 9874W        W76283  10.621  15.262  11.655
 9875W        W76284  27.241   3.984  13.086
 9876W        W76285  11.195  34.416   2.086
 9877W        W76286  31.001   7.429   1.632
 9878W        W76287  19.084  39.317   3.304
 9879W        W76288   2.852  18.478   0.904
 9880W        W76289  13.993  33.640  13.296
 9881W        W76290  38.891  24.575  12.976
 9882W        W76291  26.592  19.808   0.940
 9883W        W76292   1.028  19.007  14.261
 9884W        W76293   4.039  10.823  13.194
 9885W        W76294  31.103  12.203   2.167
 9886W        W76295   5.630   8.533  11.920
 9887W        W76296  33.994  40.279  12.483
 9888W        W76297  19.959  40.423   3.350
 9889W        W76298  24.337  35.381   3.719
 9890W        W76299  16.108  38.487   3.658
 9891W        W76300   3.515  12.176   2.301
 9892W        W76301  30.058  12.413  10.560
 9893W        W76302  36.890  33.490   4.142
 9894W        W76303   6.843   9.878   3.242
 9895W        W76304   1.760  30.094  10.643
 9896W        W76305  24.511   7.588  11.908
 9897W        W76306  30.202  10.701   2.648
 9898W        W76307  31.920  34.496   4.631
 9899W        W76308  44.733  31.413   2.619
 9900W        W76309  31.393  25.726  14.292
 9901W        W76310  43.015   8.605  12.059
 9902W        W76311  27.770  18.352   3.814
 9903W        W76312  32.023  34.877   3.184
 9904W        W76313  37.962  33.698  11.555
 9905W        W76314   6.707  33.119   1.103
 9906W        W76315  31.820  12.649  12.421
 9907W        W76316  43.562   1.460   1.332
 9908W        W76317  15.007  13.174  11.509
 9909W        W76318   6.397  39.762   0.412
 9910W        W76319   7.721  20.211   1.382
 9911W        W76320  22.695  44.261  13.641
 9912W        W76321   3.098   4.269  14.045
 9913W        W76322  31.608   3.349  12.120
 9914W        W76323   2.330   8.204   0.734
 9915W        W76324  28.068  33.968   4.536
 9916W        W76325  28.608  28.126   4.171
 9917W        W76326  29.617  10.429   3.973
 9918W        W76327  24.424  12.812   4.111
 9919W        W76328  37.229  29.364  13.028
 9920W        W76329   6.487  16.090  10.704
 9921W        W76330   5.494  30.991   0.296
 9922W        W76331   0.795  42.956   5.155
 9923W        W76332  44.419  15.356   3.148
 9924W        W76333  26.805  28.665  14.320
 9925W        W76334  21.446  13.338   1.448
 9926W        W76335  32.562   0.060  11.088
 9927W        W76336  41.405  44.094  11.734
 9928W        W76337  14.882  42.048  11.045
 9929W        W76338  26.901  18.744   3.347
 9930W        W76339   4.443  28.608  10.422
 9931W        W76340  39.011   9.600   4.082
 9932W        W76341  21.048  32.087   4.313
 9933W        W76342  37.841   3.816  14.495
 9934W        W76343  37.043  16.986   5.000
 9935W        W76344  15.640   4.855  14.783
 9936W        W76345  32.117  37.352   0.754
 9937W        W76346   0.240  26.984  14.368
 9938W        W76347  40.864   3.968   3.595
 9939W        W76348  11.832  28.065   0.446
 9940W        W76349   0.957   9.124  14.235
 9941W        W76350  42.439  22.036   2.688
 9942W        W76351  28.660  16.346   0.740
 9943W        W76352  43.850  37.926  10.995
 9944W        W76353  40.703  31.014   4.697
 9945W        W76354  16.757  17.537   4.159
 9946W        W76355  27.247  21.028   4.028
 9947W        W76356  17.744  43.241  12.951
 9948W        W76357   2.938   4.882   4.496
 9949W        W76358  21.060   4.465  13.904
 9950W        W76359  42.982  36.508   3.340
 9951W        W76360  21.079   7.767  11.090
 9952W        W76361  16.225  17.181   2.701
 9953W        W76362  28.518   6.168  13.421
 9954W        W76363  10.162   1.934  11.912
 9955W        W76364   2.469  40.401   9.903
 9956W        W76365   0.458   6.365   2.937
 9957W        W76366  38.577  42.108   2.786
 9958W        W76367  22.580  10.218  14.242
 9959W        W76368  14.826  30.577   1.738
 9960W        W76369   8.057  35.356   3.990
 9961W        W76370  26.730  30.004  12.069
 9962W        W76371  15.359  44.113   3.799
 9963W        W76372  42.120  36.560  13.189
 9964W        W76373  17.743  35.155  14.368
 9965W        W76374   1.733  15.412   3.477
 9966W        W76375  30.235   8.173   5.258
 9967W        W76376  19.950   7.847  13.027
 9968W        W76377  11.421  27.432  10.749
 9969W        W76378   2.225  38.428  14.087
 9970W        W76379   8.860  39.788  14.408
 9971W        W76380  38.471  20.957  12.814
 9972W        W76381   6.953  15.899   2.438
 9973W        W76382  37.795  28.681   0.482
 9974W        W76383  27.146  39.521   3.108
 9975W        W76384  32.199  23.861   2.238
 9976W        W76385  33.160  13.639   4.508
 9977W        W76386  17.560   5.651   2.989
 9978W        W76387  23.775  19.955  13.975
 9979W        W76388  35.783  35.485  13.167
 9980W        W76389  24.272  22.586   2.738
 9981W        W76390  17.201   5.745  12.090
 9982W        W76391  15.715  27.508   0.328
 9983W        W76392   7.135  25.122   1.279
 9984W        W76393  19.254   6.212  11.280
 9985W        W76394  14.288  23.720   0.523
 9986W        W76395  16.832  17.777  10.385
 9987W        W76396  11.830  26.434  10.802
 9988W        W76397   8.453  41.989  11.577
 9989W        W76398  44.156  29.115   1.725
 9990W        W76399  44.071  28.445   1.242
 9991W        W76400  42.374  20.758  11.023
 9992W        W76401  42.699   2.675  13.554
 9993W        W76402  14.679  41.518   2.334
 9994W        W76403  18.518   2.572   1.946
 9995W        W76404  40.923  30.374  12.509
 9996W        W76405   3.412  42.494   3.676
 9997W        W76406  38.622   1.300   4.630
 9998W        W76407  11.246  31.807  14.740
 9999W        W76408  19.937  34.658  13.478
10000W        W76409   5.598   0.958   4.388
10001W        W76410  12.159  19.555  10.510
10002W        W76411   7.164  40.381  13.271
10003W        W76412  38.992  33.696   2.260
10004W        W76413  23.626  41.904   1.831
10005W        W76414  32.180   4.178  12.550
10006W        W76415  38.630  26.525   3.716
10007W        W76416  12.364  33.902  12.897
10008W        W76417  28.671  26.251   3.738
10009W        W76418   1.197   6.847   1.717
10010W        W76419  38.052  44.005   0.784
10011W        W76420  29.639  22.045  12.502
10012W        W76421  18.739  21.752   1.833
10013W        W76422  31.871  42.547  11.815
10014W        W76423   4.712  43.617  10.923
10015W        W76424  23.930  10.141  11.801
10016W        W76425  26.517  29.902  14.868
10017W        W76426  13.358  20.713  13.484
10018W        W76427  12.134  15.823   1.495
10019W        W76428  11.969  43.307   4.164
10020W        W76429   9.749  42.917  14.279
10021W        W76430  40.450  43.834  12.528
10022W        W76431  25.945  14.651  12.870
10023W        W76432  11.355  37.872  13.350
10024W        W76433  10.907  32.208  14.021
10025W        W76434   7.160  32.861   2.346
10026W        W76435  28.097  33.650   3.334
10027W        W76436   5.538  28.640   1.773
10028W        W76437  38.422  39.495   4.434
10029W        W76438  11.887  12.216   0.758
10030W        W76439  14.807  17.514  13.517
10031W        W76440  33.458  26.272  10.950
10032W        W76441   6.351   4.336   3.364
10033W        W76442  35.364  38.328  10.501
10034W        W76443  11.250  35.106  10.748
10035W        W76444  25.835  40.929  12.501
10036W        W76445  14.296  23.530   3.947
10037W        W76446   7.885  11.926   1.735
10038W        W76447   2.262  41.032   0.012
10039W        W76448  31.666  28.054   0.751
10040W        W76449  42.590   7.303   1.010
10041W        W76450   2.598  26.586  12.561
10042W        W76451  40.032  26.003   1.001
10043W        W76452  21.081  42.611  12.927
10044W        W76453   8.790  39.324   2.855
10045W        W76454  23.327  11.284  10.610
10046W        W76455   8.302  31.364   3.066
10047W        W76456  20.939  17.970   0.857
10048W        W76457  43.220  23.139   4.959
10049W        W76458  42.501  20.537  14.097
10050W        W76459  35.855  34.037  12.473
10051W        W76460  16.469  36.545   4.201
10052W        W76461  14.702  31.510   4.137
10053W        W76462  11.737  43.033   2.349
10054W        W76463  33.071  28.571  11.872
10055W        W76464   7.228  12.671   1.679
10056W        W76465  27.710   6.705   4.500
10057W        W76466  19.940  11.792  12.016
10058W        W76467  19.316   4.988   2.724
10059W        W76468  14.282  28.391   1.561
10060W        W76469  27.098  31.455   3.139
10061W        W76470  43.406  10.681   0.925
10062W        W76471  23.940  32.123  12.441
10063W        W76472  12.628  18.840  11.472
10064W        W76473  43.029  27.434   2.719
10065W        W76474  21.326  13.213  13.771
10066W        W76475  32.608  20.654   3.683
10067W        W76476  11.221  17.767   2.324
10068W        W76477  24.090   4.592  10.234
10069W        W76478  39.528  20.807   0.675
10070W        W76479  27.536  23.371   4.608
10071W        W76480  17.586  41.659   2.835
10072W        W76481  41.795  10.383  12.852
10073W        W76482  17.635  40.414   4.359
10074W        W76483  44.278   8.293  14.709
10075W        W76484  20.681  34.675  11.973
10076W        W76485   8.259   3.857   0.786
10077W        W76486  29.366  17.412   2.296
10078W        W76487   5.936  30.462   4.546
10079W        W76488  15.547   5.133   1.417
10080W        W76489  26.809  10.001   2.782
10081W        W76490  40.915   0.400  14.288
10082W        W76491  34.385  36.002  10.573
10083W        W76492   4.901  35.649  13.461
10084W        W76493  33.944   1.589   0.869
10085W        W76494  43.934   1.959   0.023
10086W        W76495   1.237   7.776  14.726
10087W        W76496  17.781  38.983  14.929
10088W        W76497  42.362   9.291   2.673
10089W        W76498  12.217  11.170  13.000
10090W        W76499  23.016  25.431   4.105
10091W        W76500  43.293  36.944  10.862
10092W        W76501  36.001  14.740   2.365
10093W        W76502  15.387  13.058  14.356
10094W        W76503  36.418   5.356  10.405
10095W        W76504  29.491  43.310   4.717
10096W        W76505  12.515   1.949  13.228
10097W        W76506  38.054  41.690  11.739
10098W        W76507   9.491   1.220  12.012
10099W        W76508  29.059   4.674  13.584
10100W        W76509  20.752  30.864  14.534
10101W        W76510  44.781  34.320  12.504
10102W        W76511  29.097  37.172  13.703
10103W        W76512  37.898  11.252  12.936
10104W        W76513  40.893  10.946   2.419
10105W        W76514  24.591   9.666   0.936
10106W        W76515  35.645  34.016   3.236
10107W        W76516  24.455  41.951  12.549
10108W        W76517  40.530  32.738  10.396
10109W        W76518  26.899  10.787   4.530
10110W        W76519  30.158   9.279   3.367
10111W        W76520  40.832  25.681   4.914
10112W        W76521  29.773   6.898   4.547
10113W        W76522   4.713  34.131   0.067
10114W        W76523   1.888   2.319   1.173
10115W        W76524  37.563  33.374   5.441
10116W        W76525  14.617  18.682  10.747
10117W        W76526   8.246  17.258   3.296
10118W        W76527  22.953   6.136  13.349
10119W        W76528  44.524   5.053   0.826
10120W        W76529  31.981  43.520   1.677
10121W        W76530  23.795  21.473  10.556
10122W        W76531  34.291  43.213   4.954
10123W        W76532  40.751   7.724  10.813
10124W        W76533  38.587  15.772  11.492
10125W        W76534   5.775  27.229  13.487
10126W        W76535  35.567  30.544   1.863
10127W        W76536  30.067  23.865  11.961
10128W        W76537   7.247  18.718   4.458
10129W        W76538   5.355  17.477  14.086
10130W        W76539  43.288  37.857   0.273
10131W        W76540   0.374   9.611  13.971
10132W        W76541  40.480  39.010  14.574
10133W        W76542  42.565  23.437  10.773
10134W        W76543   5.762  22.533  12.900
10135W        W76544  43.695   6.067   0.880
10136W        W76545  21.141  44.257  10.774
10137W        W76546  17.998  32.843  14.848
10138W        W76547  40.884   4.508   0.524
10139W        W76548  17.320  13.346  14.849
10140W        W76549  14.307  11.092  13.982
10141W        W76550   7.711  32.233   0.415
10142W        W76551  39.545  25.081   1.353
10143W        W76552   0.217  31.834   2.653
10144W        W76553  10.106  23.064  13.592
10145W        W76554  38.071  13.445  14.571
10146W        W76555   9.139  38.454  13.358
10147W        W76556  11.814  38.604   2.800
10148W        W76557   5.539  15.575  13.042
10149W        W76558  41.074  17.018   0.345
10150W        W76559   8.776  42.071  12.040
10151W        W76560  25.590  14.580  12.461
10152W        W76561  10.772  37.942  12.141
10153W        W76562  43.544  37.060  12.431
10154W        W76563  36.490   0.654  12.936
10155W        W76564  14.598  40.450   4.670
10156W        W76565  43.513   2.323   3.668
10157W        W76566   5.255  19.915   3.674
10158W        W76567  42.015  43.848   4.232
10159W        W76568  32.588   1.748   2.510
10160W        W76569  29.708   6.435   0.980
10161W        W76570  33.400  37.967   1.779
10162W        W76571   9.630  23.254   0.801
10163W        W76572  19.689  36.319  11.298
10164W        W76573  24.959   2.023   1.883
10165W        W76574  19.166  13.446   3.046
10166W        W76575  12.951   3.690  13.022
10167W        W76576  33.561   1.956   1.947
10168W        W76577  43.787  15.335   0.807
10169W        W76578  28.997  10.672  13.562
10170W        W76579   0.072  30.148  12.051
10171W        W76580  33.447   3.676   1.289
10172W        W76581  37.895  33.886  14.322
10173W        W76582  37.342  20.745  11.043
10174W        W76583   5.753  30.626   0.554
10175W        W76584   2.855   6.289   4.903
10176W        W76585  14.343   5.889  11.517
10177W        W76586  28.683  43.258   0.395
10178W        W76587  42.373   8.410   5.294
10179W        W76588  18.681  15.304   1.859
10180W        W76589  38.548  39.918   3.271
10181W        W76590  42.793  17.329   0.335
10182W        W76591  25.553  25.781  14.742
10183W        W76592  32.054  12.241  11.231
10184W        W76593  10.691   8.287  10.601
10185W        W76594  24.068  13.899  11.497
10186W        W76595  14.624  21.292  14.523
10187W        W76596  21.666  33.018   0.195
10188W        W76597  41.006  20.363   2.554
10189W        W76598  31.383   2.473  14.763
10190W        W76599  11.674  38.935  14.302
10191W        W76600  25.501  20.311   3.504
10192W        W76601  15.745  33.009  13.353
10193W        W76602  16.758  43.796  12.096
10194W        W76603  44.872  30.913  13.772
10195W        W76604  12.739  20.302   0.050
10196W        W76605  27.033  31.444  12.107
10197W        W76606  32.445  10.675   0.691
10198W        W76607  25.029  16.949   4.237
10199W        W76608  28.143  39.440   1.290
10200W        W76609  25.931   1.430  13.953
10201W        W76610   4.012  36.633  11.029
10202W        W76611  37.974   2.393   3.232
10203W        W76612  15.675  25.078  10.298
10204W        W76613  38.472  33.113  13.362
10205W        W76614  20.187  21.326   1.728
10206W        W76615  18.660  39.516   1.042
10207W        W76616  32.182  26.231  10.608
10208W        W76617   4.775  43.008  11.610
10209W        W76618   6.667  41.321  14.828
10210W        W76619  34.652  23.380   2.307
10211W        W76620  37.025  39.070  14.002
10212W        W76621  20.607   2.484  11.577
10213W        W76622  41.932  32.120   2.714
10214W        W76623  33.570   7.817   5.147
10215W        W76624  26.025  34.366   4.280
10216W        W76625   2.367  11.755   1.487
10217W        W76626  26.597  43.076  14.959
10218W        W76627  43.526  15.195   3.036
10219W        W76628   4.701  10.751  14.886
10220W        W76629  40.855  36.924   2.860
10221W        W76630  11.239  43.436   2.746
10222W        W76631  13.127  39.977  11.422
10223W        W76632  21.099  27.585   2.743
10224W        W76633  14.613  39.734   1.631
10225W        W76634  22.253   1.958   2.245
10226W        W76635  11.139  18.632   2.133
10227W        W76636  12.633  20.237   3.641
10228W        W76637  37.632  19.689   1.526
10229W        W76638  37.691  41.288  13.586
10230W        W76639  30.728  25.987  13.270
10231W        W76640  36.949  41.461  10.510
10232W        W76641  14.795   5.479  11.618
10233W        W76642  15.578  26.291   3.891
10234W        W76643   3.707  21.709  12.312
10235W        W76644  25.081  15.052   0.979
10236W        W76645   6.091  37.167  13.733
10237W        W76646  32.899  39.588  12.518
10238W        W76647   7.396  16.931   1.225
10239W        W76648  42.315  27.966  11.910
10240W        W76649  16.211  25.011   1.553
10241W        W76650  40.293  40.421   3.269
10242W        W76651  41.475  10.194   2.314
10243W        W76652  35.121  13.870  10.688
10244W        W76653  20.788   1.376  10.017
10245W        W76654  18.798   8.169  14.563
10246W        W76655   8.791  10.317   0.037
10247W        W76656  18.759  20.197  12.080
10248W        W76657  20.038  37.925  12.925
10249W        W76658  26.550   3.453  12.191
10250W        W76659   1.884  32.322   4.069
10251W        W76660  23.520  29.437  13.697
10252W        W76661  20.571  33.672   2.951
10253W        W76662   1.944  30.422   3.816
10254W        W76663   7.808  20.680  12.428
10255W        W76664  28.671  39.303  12.130
10256W        W76665  23.210   3.245  11.500
10257W        W76666  34.004  31.696  10.711
10258W        W76667  24.155   6.863  13.862
10259W        W76668  25.156  41.807  11.409
10260W        W76669   6.914  35.518   3.732
10261W        W76670  15.086   6.360   1.730
10262W        W76671   6.877  19.105  13.443
10263W        W76672   7.250  20.779  10.682
10264W        W76673  28.072  20.061  11.128
10265W        W76674   4.810   6.367   1.861
10266W        W76675  42.711  16.978  11.845
10267W        W76676  25.536  19.985  13.806
10268W        W76677  18.721  20.667   3.909
10269W        W76678  23.956  10.243   1.708
10270W        W76679  14.641  36.514  13.323
10271W        W76680  32.789  17.645  13.784
10272W        W76681  41.588  37.872   3.610
10273W        W76682  38.453  12.817   2.996
10274W        W76683  12.081  26.697   0.184
10275W        W76684   6.745   4.304   4.220
10276W        W76685  27.002  39.826   4.094
10277W        W76686  25.855  10.285   1.952
10278W        W76687  40.489  24.478  14.341
10279W        W76688  10.381  40.941   0.343
10280W        W76689  37.147   1.078  12.002
10281W        W76690  19.505  22.789  13.029
10282W        W76691  26.740  11.203   0.878
10283W        W76692   1.760  39.814  11.217
10284W        W76693   2.734  31.208  13.565
10285W        W76694  35.068  15.818  12.568
10286W        W76695   5.588  44.452  14.942
10287W        W76696   0.787   2.165  13.933
10288W        W76697  36.998  38.752  14.435
10289W        W76698  27.028  41.565  13.845
10290W        W76699  29.014  24.672  14.500
10291W        W76700  41.719   4.646   2.464
10292W        W76701   4.498  43.919  14.114
10293W        W76702  43.489  23.130  11.464
10294W        W76703  26.419  10.130  13.846
10295W        W76704   7.730  17.390   3.167
10296W        W76705   2.957  13.674   4.321
10297W        W76706  41.820  20.199   1.832
10298W        W76707  19.047  24.079   0.085
10299W        W76708  26.700  21.020  14.130
10300W        W76709  37.112  19.240  13.469
10301W        W76710  39.470  17.618   1.329
10302W        W76711  13.178   8.699  11.961
10303W        W76712   4.181  20.228  13.014
10304W        W76713  11.587  24.714   3.396
10305W        W76714  26.088   6.186   1.426
10306W        W76715  19.039  27.000  12.929
10307W        W76716   9.969  44.380  13.678
10308W        W76717   9.237  38.849   3.264
10309W        W76718  37.823  12.153  14.025
10310W        W76719   3.799  20.721   0.848
10311W        W76720  38.365  19.330   1.936
10312W        W76721  13.506   8.010   3.604
10313W        W76722   6.943  42.306  11.967
10314W        W76723   2.423  36.169  10.524
10315W        W76724  24.050  34.407  10.314
10316W        W76725   8.920  26.454   2.795
10317W        W76726  12.562  23.160  11.927
10318W        W76727  34.558  29.436   2.267
10319W        W76728  40.357  42.828  10.619
10320W        W76729  42.819  22.979  14.081
10321W        W76730  36.840  27.980   1.204
10322W        W76731  32.828  27.859  14.387
10323W        W76732  36.783  16.959   3.749
10324W        W76733  19.566  35.457   3.327
10325W        W76734   4.360  22.005   4.119
10326W        W76735  34.679   5.242  11.475
10327W        W76736  10.583  18.735   4.530
10328W        W76737  41.950  43.806  11.036
10329W        W76738  42.560  15.363   4.366
10330W        W76739  30.693  29.989   2.601
10331W        W76740  12.860  13.861   3.844
10332W        W76741   9.320  14.863   0.762
10333W        W76742  39.435  37.764   1.788
10334W        W76743  37.650   9.831   2.098
10335W        W76744  10.620  26.149  12.295
10336W        W76745  36.463  40.817   1.338
10337W        W76746  33.981  15.734   2.383
10338W        W76747  14.907   9.899   2.428
10339W        W76748  23.181  16.022  12.463
10340W        W76749   4.344  20.180   5.055
10341W        W76750  40.062   0.989   0.400
10342W        W76751   3.602  44.285  11.190
10343W        W76752   4.045   9.809  13.988
10344W        W76753  43.938  27.959   1.674
10345W        W76754  17.501  26.201   3.665
10346W        W76755  12.149  20.044   3.573
10347W        W76756  26.977  37.547   2.254
10348W        W76757  28.134  37.432  14.478
10349W        W76758  37.813  26.171   2.433
10350W        W76759   9.626  34.955  14.840
10351W        W76760   5.049   5.777   1.184
10352W        W76761  29.053  26.480  12.596
10353W        W76762  11.773  41.571   3.363
10354W        W76763  22.584  32.269  14.096
10355W        W76764   9.300  34.954   3.633
10356W        W76765  23.513  23.736  14.582
10357W        W76766  23.646  39.528   0.516
10358W        W76767   4.652  12.162  12.879
10359W        W76768   3.573   3.160  11.090
10360W        W76769  22.128  42.718   0.416
10361W        W76770  29.824   8.855   0.576
10362W        W76771  16.866   1.845  11.674
10363W        W76772  35.559   1.856  12.401
10364W        W76773  24.474  33.624   1.568
10365W        W76774  30.588   8.172  10.482
10366W        W76775   4.867  34.515  14.276
10367W        W76776  29.967  10.125  13.895
10368W        W76777  25.676  28.725  12.010
10369W        W76778  22.072   0.934  13.172
10370W        W76779   6.927  35.467  13.967
10371W        W76780  15.339  34.474  14.012
10372W        W76781  19.823  35.989  10.603
10373W        W76782  41.927  15.639  14.779
10374W        W76783  15.529  27.775  11.906
10375W        W76784  41.841   7.790   0.786
10376W        W76785  27.878  13.597  14.471
10377W        W76786  39.153  43.315  13.728
10378W        W76787   5.202  33.296  13.056
10379W        W76788  39.111  40.804   0.381
10380W        W76789  40.660  18.231  10.448
10381W        W76790  12.767  41.733  14.755
10382W        W76791  44.498  16.513   1.213
10383W        W76792  18.680   5.438   0.223
10384W        W76793   3.445   6.683   2.273
10385W        W76794   8.759  43.073  13.553
10386W        W76795  16.538   4.543  12.744
10387W        W76796  30.269  39.439   1.397
10388W        W76797   4.980  42.861   1.618
10389W        W76798  21.110   2.975   2.861
10390W        W76799  10.603   3.696   4.552
10391W        W76800  17.171  31.470   3.645
10392W        W76801  13.414  33.069   2.449
10393W        W76802  34.300  27.041  12.569
10394W        W76803  29.949  20.489  14.130
10395W        W76804  27.025  42.804   1.734
10396W        W76805  27.486  42.056  12.574
10397W        W76806   9.275  16.862   4.242
10398W        W76807  37.995   2.398  14.735
10399W        W76808  31.363   9.898   4.222
10400W        W76809   5.707  38.800   1.775
10401W        W76810  30.571  20.834  10.647
10402W        W76811  36.381  16.358  13.714
10403W        W76812  41.381   0.258   3.392
10404W        W76813  12.135  16.342   3.254
10405W        W76814  11.061  15.160   2.362
10406W        W76815  13.879  38.822   0.673
10407W        W76816  27.522  32.116   4.569
10408W        W76817  30.121  32.460   5.224
10409W        W76818   2.979  21.180  11.558
10410W        W76819  16.857  27.089  11.140
10411W        W76820  30.109  17.890  14.829
10412W        W76821  44.434  33.313  11.922
10413W        W76822  11.134   3.776  12.496
10414W        W76823  25.044   6.840  12.146
10415W        W76824  14.819  24.725  12.314
10416W        W76825  15.568   2.877  12.086
10417W        W76826  10.394  14.325   3.229
10418W        W76827  35.435   6.982   2.478
10419W        W76828  28.386  27.739  11.571
10420W        W76829  14.671  32.525   4.782
10421W        W76830  19.191  16.032   3.765
10422W        W76831  40.359  22.927   1.197
10423W        W76832   7.840  10.363   2.809
10424W        W76833  30.603  17.403  14.261
10425W        W76834   0.216  31.671   0.241
10426W        W76835  30.362  27.286  11.097
10427W        W76836  27.174  38.977   2.949
10428W        W76837  28.704  25.971  13.034
10429W        W76838  21.441  17.843  13.331
10430W        W76839  23.715  24.282  10.531
10431W        W76840  14.602  37.090   0.050
10432W        W76841  34.982   8.655   4.988
10433W        W76842  32.962   7.369  11.793
10434W        W76843  15.390   7.186  10.625
10435W        W76844  20.440   1.466   0.718
10436W        W76845  43.752  17.864   3.528
10437W        W76846  27.021  26.171   1.318
10438W        W76847  27.653   8.030   3.548
10439W        W76848  33.197  43.400   2.244
10440W        W76849  30.109  32.648  13.323
10441W        W76850  24.994  13.706   2.953
10442W        W76851  11.598   5.007   1.143
10443W        W76852  18.152  41.516  13.249
10444W        W76853   9.278  42.492  11.230
10445W        W76854  10.781  28.032   0.448
10446W        W76855  18.255   6.315  11.657
10447W        W76856  16.814  22.042   3.817
10448W        W76857  29.184  21.822   0.744
10449W        W76858   7.209  34.621  12.154
10450W        W76859  26.046  28.161  14.046
10451W        W76860  23.612  12.730   4.521
10452W        W76861   8.686   7.193   3.242
10453W        W76862  38.179  22.971   3.824
10454W        W76863  28.080  10.766   1.450
10455W        W76864   4.374   6.190  13.462
10456W        W76865  11.529  37.826   3.259
10457W        W76866  28.461  12.653  10.559
10458W        W76867  13.631   9.650   1.218
10459W        W76868  37.070  18.568  10.463
10460W        W76869  12.125  24.240  12.619
10461W        W76870  10.764  20.095  14.412
10462W        W76871   2.243  35.104   0.689
10463W        W76872   0.405  17.714  14.476
10464W        W76873  18.641  23.525   0.285
10465W        W76874  18.542  14.446  10.823
10466W        W76875  10.224   0.003  12.048
10467W        W76876  10.558   1.899   3.196
10468W        W76877   9.820  37.496  10.880
10469W        W76878   7.191  14.862   0.829
10470W        W76879  42.377  19.571   2.293
10471W        W76880  35.959  10.733   3.156
10472W        W76881  44.353   6.657   0.448
10473W        W76882   1.447   8.274   0.891
10474W        W76883   8.977   8.231   2.374
10475W        W76884  30.585   2.154  12.556
10476W        W76885  36.278  25.282  10.094
10477W        W76886  23.413   9.256   1.790
10478W        W76887  23.651   6.343   4.567
10479W        W76888  42.134  14.519   4.063
10480W        W76889   9.681   8.029   2.872
10481W        W76890  21.605  10.946  12.910
10482W        W76891  17.798  33.210   2.695
10483W        W76892   1.535  24.670   4.338
10484W        W76893  33.322  23.197   2.677
10485W        W76894  37.798  43.405  14.970
10486W        W76895   2.946  43.387   4.551
10487W        W76896  44.919  21.277   2.401
10488W        W76897  23.206  37.009   1.408
10489W        W76898  41.850   1.471   4.611
10490W        W76899  42.827  42.181   0.779
10491W        W76900   6.298  27.042   3.156
10492W        W76901  40.114   8.921   0.983
10493W        W76902  19.196  28.907   4.965
10494W        W76903  19.762  36.824   2.685
10495W        W76904  43.302  32.560   3.294
10496W        W76905  37.867  42.884  12.528
10497W        W76906  37.364  14.072   0.333
10498W        W76907  35.244  16.700   2.967
10499W        W76908  32.236   6.361  10.252
10500W        W76909   4.220  25.734   2.780
10501W        W76910  18.463  15.628   1.510
10502W        W76911  39.511  37.875   2.291
10503W        W76912   8.763   1.127   1.138
10504W        W76913  20.128   6.657   1.880
10505W        W76914  29.622  19.907   2.247
10506W        W76915   6.455   9.896   4.971
10507W        W76916  21.025  29.528   1.727
10508W        W76917   2.079  41.842  11.651
10509W        W76918  11.731  30.199  14.782
10510W        W76919  38.929  38.586  12.942
10511W        W76920  34.668  43.532   1.154
10512W        W76921  19.817  23.976   3.272
10513W        W76922  29.992   0.499   1.255
10514W        W76923  35.784   1.023  13.359
10515W        W76924  10.673  14.762  11.084
10516W        W76925  19.546  27.434   0.009
10517W        W76926  40.511  14.363   4.526
10518W        W76927  19.555  43.442  14.863
10519W        W76928  24.618  36.947   0.967
10520W        W76929  10.583  35.977   1.416
10521W        W76930  35.583  37.505  14.821
10522W        W76931   7.835  29.056  11.084
10523W        W76932   7.226  38.388   4.646
10524W        W76933   7.195  12.410   0.276
10525W        W76934  28.877  12.949   2.227
10526W        W76935   9.434  25.220  13.434
10527W        W76936  33.612  12.795   4.971
10528W        W76937   3.852  17.490   4.048
10529W        W76938  25.725  40.810   0.729
10530W        W76939   6.251   6.735   4.262
10531W        W76940  16.369  40.850   0.313
10532W        W76941  17.247  27.495   3.776
10533W        W76942   6.767   7.223  14.213
10534W        W76943   0.519  26.212  13.486
10535W        W76944  30.083  36.343  11.016
10536W        W76945  34.645  18.288   0.533
10537W        W76946  23.547  28.402  10.607
10538W        W76947  16.001  39.638  13.029
10539W        W76948   6.691  43.196   0.366
10540W        W76949  10.295  10.547  13.653
10541W        W76950   2.725  24.523  11.103
10542W        W76951   4.814  18.651   3.393
10543W        W76952  16.300  38.101  12.577
10544W        W76953  23.484  13.082   4.141
10545W        W76954  27.791  12.339   4.193
10546W        W76955   1.676  39.959  13.121
10547W        W76956  11.707  39.359  14.702
10548W        W76957  30.040  27.902   0.615
10549W        W76958  38.296  38.339   1.618
10550W        W76959  39.470  26.076  13.868
10551W        W76960   2.103  31.340   3.823
10552W        W76961  32.946  21.208  11.555
10553W        W76962  24.752  28.038   3.759
10554W        W76963  21.793  12.216   4.173
10555W        W76964   7.077  43.022   1.202
10556W        W76965   0.533  23.210  14.378
10557W        W76966  29.447  22.022  12.976
10558W        W76967   1.981  39.789   3.245
10559W        W76968  26.018  16.522  13.340
10560W        W76969   5.789   3.421  13.954
10561W        W76970  25.099   3.446  11.326
10562W        W76971   5.834  32.556  10.741
10563W        W76972  23.202  14.902   4.406
10564W        W76973   4.768  39.477   4.089
10565W        W76974  33.529  44.349   4.145
10566W        W76975  17.755  36.657  12.516
10567W        W76976   1.304  13.182   3.187
10568W        W76977   7.674   8.488   3.209
10569W        W76978  43.427  12.619  11.376
10570W        W76979  19.032   2.801   4.183
10571W        W76980  30.510  14.250   4.097
10572W        W76981  37.502  20.479   4.039
10573W        W76982  34.060   8.952   4.060
10574W        W76983  22.831  19.096  11.902
10575W        W76984  20.096   8.341   0.345
10576W        W76985   2.364   2.383  12.549
10577W        W76986  28.430  36.850  13.425
10578W        W76987  30.166  10.642  14.326
10579W        W76988  28.434   0.526   4.011
10580W        W76989  43.454  20.046  10.650
10581W        W76990  15.239  26.485  13.039
10582W        W76991  37.905  36.315   4.599
10583W        W76992  38.077  31.567   0.369
10584W        W76993   2.360   9.263  10.282
10585W        W76994  26.154  23.718  13.763
10586W        W76995  11.659  29.649  14.463
10587W        W76996  30.813  37.079   4.672
10588W        W76997   9.875  10.616  11.572
10589W        W76998  23.866  21.563   0.305
10590W        W76999   4.354  10.214   0.806
10591W        W77000  16.245  40.464  10.287
10592W        W77001  16.836  27.417  10.734
10593W        W77002  10.420  33.499   2.755
10594W        W77003  21.497  21.644   3.129
10595W        W77004   6.243  24.120  11.992
10596W        W77005  20.258  34.119   0.392
10597W        W77006   6.458  31.225   0.221
10598W        W77007  10.457  32.819   3.252
10599W        W77008  29.545   3.295  13.608
10600W        W77009   5.633   7.726  10.719
10601W        W77010  36.376  21.792   3.620
10602W        W77011  43.855  31.928   2.748
10603W        W77012  12.823  43.873  11.726
10604W        W77013  44.496  19.454   5.057
10605W        W77014   6.430   2.916   0.448
10606W        W77015  25.448  17.941   3.488
10607W        W77016  17.272  16.258  11.164
10608W        W77017  18.861  14.729   4.186
10609W        W77018  18.287   3.325  12.373
10610W        W77019  25.524  17.983   2.966
10611W        W77020  19.480   1.208  13.892
10612W        W77021  41.076   8.808   2.799
10613W        W77022   5.787   6.899  13.475
10614W        W77023  21.915  37.064   0.876
10615W        W77024  30.783  25.628  10.723
10616W        W77025  40.458  33.110   1.904
10617W        W77026  18.728  21.415  12.717
10618W        W77027  15.793  40.924   4.940
10619W        W77028  10.912  38.617   2.559
10620W        W77029  40.989  19.651   0.736
10621W        W77030  18.647  41.768   1.460
10622W        W77031   5.392  35.104   0.142
10623W        W77032  19.457   1.491  13.004
10624W        W77033  23.696   9.103  14.044
10625W        W77034   3.145  14.119  14.839
10626W        W77035  34.371   6.204   0.044
10627W        W77036  14.260  35.770  11.663
10628W        W77037  22.570  30.762  14.535
10629W        W77038  21.613  13.735   4.145
10630W        W77039  11.199  18.646   1.621
10631W        W77040  43.508  42.197   1.346
10632W        W77041  35.413  35.904   0.787
10633W        W77042  15.086  34.478  13.557
10634W        W77043   4.398  44.856  13.513
10635W        W77044  41.590  22.696  11.027
10636W        W77045   9.249  42.553   2.314
10637W        W77046  32.356   1.289  12.945
10638W        W77047  40.531   2.318  12.549
10639W        W77048  24.281  16.334   4.932
10640W        W77049  40.403   5.993  14.046
10641W        W77050   4.879  23.497  14.424
10642W        W77051  35.611  36.337  11.143
10643W        W77052  10.859   8.279  13.825
10644W        W77053   0.236   0.151  11.178
10645W        W77054  19.709   8.552  13.788
10646W        W77055  38.840  16.066   0.710
10647W        W77056  28.101  43.689   1.286
10648W        W77057  12.725  14.189  11.696
10649W        W77058  27.688   9.037   3.616
10650W        W77059  21.896  16.765  13.982
10651W        W77060  24.195  35.070  13.106
10652W        W77061  37.946   7.399  13.362
10653W        W77062   0.941  18.564   3.561
10654W        W77063  29.575  30.560  12.944
10655W        W77064   5.261  23.533   0.838
10656W        W77065  14.754  18.218  11.494
10657W        W77066  37.772  36.519  12.148
10658W        W77067  39.770  27.030  10.777
10659W        W77068  32.645  33.324   1.868
10660W        W77069  31.482   2.496   1.657
10661W        W77070  29.454  39.447   2.698
10662W        W77071  24.315   2.365   1.784
10663W        W77072   0.845  29.939   4.749
10664W        W77073  12.207  11.892  13.527
10665W        W77074  27.077  23.821   2.284
10666W        W77075  15.308  15.707  11.278
10667W        W77076   0.366  28.281   4.173
10668W        W77077  10.809  25.998   4.115
10669W        W77078  22.926   4.002   2.406
10670W        W77079   6.220  41.945  10.643
10671W        W77080   1.518   4.015  10.845
10672W        W77081  22.333  29.624   1.245
10673W        W77082  16.669  19.214  12.427
10674W        W77083  34.121  33.649  11.955
10675W        W77084   4.866  38.669  11.149
10676W        W77085  42.530  31.246  12.601
10677W        W77086   4.699   4.413  13.409
10678W        W77087  34.106  29.283  13.781
10679W        W77088   9.797  12.897  14.373
10680W        W77089  28.208   3.778   4.413
10681W        W77090  39.186  33.045  11.526
10682W        W77091   2.915  30.037  11.254
10683W        W77092   6.644  31.577   1.877
10684W        W77093  34.617  12.760  11.957
10685W        W77094  27.735  38.117   1.392
10686W        W77095  29.225  39.924   2.692
10687W        W77096  20.509  24.616  11.606
10688W        W77097  38.583  10.164  12.297
10689W        W77098  20.668  26.655   0.616
10690W        W77099  28.868  31.209   2.213
10691W        W77100  39.495   4.382  13.967
10692W        W77101  19.621  11.892  12.517
10693W        W77102  14.252  32.509   3.390
10694W        W77103  10.171  26.340  12.119
10695W        W77104   1.293  36.899  14.916
10696W        W77105  20.157  35.103   4.779
10697W        W77106  43.045   7.215  13.609
10698W        W77107  18.999  34.295   1.296
10699W        W77108   1.893  14.566   3.578
10700W        W77109  10.591  26.734   0.263
10701W        W77110  43.755   3.767  13.171
10702W        W77111   7.853   3.292  13.917
10703W        W77112  42.552  15.733  10.648
10704W        W77113  17.802  19.657   1.896
10705W        W77114  11.658  34.074   1.250
10706W        W77115  16.662  22.169  11.041
10707W        W77116   8.794  22.562   0.089
10708W        W77117  27.215  20.983  14.085
10709W        W77118  41.948  16.843  14.495
10710W        W77119  11.498  21.596   1.431
10711W        W77120   9.173   2.723  14.197
10712W        W77121  44.388   8.938  11.435
10713W        W77122   4.234  27.604  12.944
10714W        W77123  10.081  35.048   0.382
10715W        W77124  24.450  27.055   0.288
10716W        W77125  42.331  23.729   4.178
10717W        W77126  16.091  22.885   4.253
10718W        W77127   7.466  31.912   0.057
10719W        W77128  36.355  24.686  10.675
10720W        W77129  11.769  10.617   1.414
10721W        W77130  23.146   6.120  11.911
10722W        W77131  36.515  27.062  11.921
10723W        W77132  28.897  19.058  14.114
10724W        W77133  28.937  13.136  13.109
10725W        W77134  35.123   7.670   4.209
10726W        W77135  16.691  23.090  13.052
10727W        W77136  35.521  36.923  13.528
10728W        W77137   7.664  11.239   4.645
10729W        W77138  24.680  41.982   1.128
10730W        W77139  31.614  30.157   2.806
10731W        W77140   2.734  15.712   4.041
10732W        W77141  25.093  44.393   1.832
10733W        W77142  29.158   1.437  11.640
10734W        W77143  32.548   4.821  12.923
10735W        W77144   6.648  41.195   1.727
10736W        W77145  18.799   2.881  12.063
10737W        W77146  22.086   3.410  13.028
10738W        W77147  30.188  34.838  13.458
10739W        W77148  39.249  19.704  10.331
10740W        W77149  29.578   6.435   4.676
10741W        W77150  44.554  35.962  12.886
10742W        W77151  44.033   7.507  11.918
10743W        W77152  38.603  26.531   2.421
10744W        W77153  13.760  33.240  14.042
10745W        W77154  35.422  21.566   1.370
10746W        W77155  16.727  24.577  13.909
10747W        W77156  10.578   6.404   1.800
10748W        W77157  10.632  10.053   0.794
10749W        W77158  21.179  10.094  13.828
10750W        W77159  26.412  12.245   4.322
10751W        W77160   0.338   2.500   1.794
10752W        W77161  18.600  32.929   4.272
10753W        W77162  26.962   7.745   3.134
10754W        W77163  17.540   4.399  12.969
10755W        W77164   2.154  18.610  12.066
10756W        W77165  10.226   4.648  13.735
10757W        W77166  25.703  24.907   4.760
10758W        W77167   0.495  39.779   0.692
10759W        W77168  13.783  29.401   3.680
10760W        W77169  21.192   1.337  14.076
10761W        W77170  23.756  41.321   3.686
10762W        W77171  11.589   7.700   2.465
10763W        W77172  21.711  33.323   1.878
10764W        W77173  22.631  40.995  13.313
10765W        W77174   4.433   2.740  13.871
10766W        W77175  25.813  41.238  13.763
10767W        W77176   1.136  30.617   1.504
10768W        W77177  13.197  19.307  14.590
10769W        W77178   6.362  17.323   2.850
10770W        W77179  36.597  19.636   0.234
10771W        W77180  30.037  27.406  10.705
10772W        W77181  18.248   3.189   3.330
10773W        W77182  37.578  37.004   0.344
10774W        W77183   9.039  17.169  11.606
10775W        W77184   1.363  13.671   4.387
10776W        W77185  19.683  32.575  13.930
10777W        W77186   0.181  32.032   3.722
10778W        W77187  17.508  44.775  10.758
10779W        W77188   5.585  10.717  11.582
10780W        W77189  37.034  27.116   0.239
10781W        W77190  21.437  16.027  11.949
10782W        W77191  41.951  33.565   0.272
10783W        W77192   4.841   5.703   3.678
10784W        W77193  37.360  28.396   0.428
10785W        W77194   2.101   1.281   4.340
10786W        W77195  32.371  30.011   4.320
10787W        W77196   3.602  16.946  13.861
10788W        W77197  23.322  36.351   0.801
10789W        W77198  14.070  19.320  13.059
10790W        W77199  38.393  11.808   1.652
10791W        W77200  26.909  40.765   2.816
10792W        W77201  36.369  44.613  14.783
10793W        W77202   7.399  15.224   4.372
10794W        W77203   6.734  42.453   1.821
10795W        W77204  37.839  41.529  14.055
10796W        W77205  28.169   7.929  11.827
10797W        W77206  27.483   9.752  13.325
10798W        W77207   0.841  41.212  11.969
10799W        W77208  12.566  17.666   4.481
10800W        W77209  20.913  22.632   1.059
10801W        W77210   1.542   4.429  11.162
10802W        W77211  17.750  32.776  12.846
10803W        W77212  39.401   5.503   3.193
10804W        W77213  25.417  38.312  12.062
10805W        W77214  15.924  24.162   4.554
10806W        W77215   9.172   0.430  10.159
10807W        W77216   3.219  22.202  10.831
10808W        W77217  39.371   7.112   1.892
10809W        W77218  28.196   6.716   3.047
10810W        W77219  36.533   8.775   1.012
10811W        W77220   2.893  21.187   3.658
10812W        W77221   0.981  38.531  12.753
10813W        W77222  31.161  10.133  13.827
10814W        W77223   7.148  23.156  14.372
10815W        W77224  22.480  44.296   5.027
10816W        W77225  38.381  24.261   1.450
10817W        W77226   8.856  40.418  11.489
10818W        W77227  34.812  15.265  14.934
10819W        W77228  14.883  14.190   2.496
10820W        W77229  41.290  23.808   1.318
10821W        W77230  16.655   7.853   3.248
10822W        W77231  14.653  34.656  11.278
10823W        W77232  36.383   6.410   3.170
10824W        W77233  29.251  29.124   0.344
10825W        W77234  11.178  28.210  13.413
10826W        W77235  35.892  44.444  14.697
10827W        W77236  28.974   0.432   0.962
10828W        W77237   3.958  41.313   2.750
10829W        W77238  38.633  43.861  12.001
10830W        W77239  21.169  38.503  11.475
10831W        W77240  23.113  24.117   4.391
10832W        W77241  20.557   0.881  14.892
10833W        W77242   2.856  25.741   1.799
10834W        W77243  22.727  34.030  14.205
10835W        W77244   1.299  33.858   4.826
10836W        W77245  14.073  27.660  14.425
10837W        W77246  29.990   0.951  14.332
10838W        W77247  33.621  33.063   1.428
10839W        W77248  42.215  38.491  14.711
10840W        W77249  34.554  37.463   1.933
10841W        W77250  26.652  16.723  14.764
10842W        W77251  18.186  41.021  12.517
10843W        W77252  24.980  20.507  12.333
10844W        W77253  37.774  10.228  10.767
10845W        W77254   8.705  35.581   3.245
10846W        W77255  30.538  21.352  10.318
10847W        W77256  24.063  39.215   4.135
10848W        W77257   2.583  22.745  13.248
10849W        W77258  40.454  23.349  12.014
10850W        W77259  10.151  19.160   2.316
10851W        W77260  36.560  10.415  13.394
10852W        W77261  23.145  26.469   3.311
10853W        W77262  11.307  34.481  12.569
10854W        W77263  12.829  44.350  11.973
10855W        W77264  26.883  16.470  12.169
10856W        W77265  44.340  44.026  11.188
10857W        W77266  23.486  21.061  10.689
10858W        W77267  27.180   8.797  12.581
10859W        W77268  13.174  37.043  14.405
10860W        W77269  19.500   0.929  11.158
10861W        W77270  42.644  16.264   3.161
10862W        W77271  37.569   2.935  10.553
10863W        W77272  24.061   1.862  14.166
10864W        W77273  35.856  19.368  11.895
10865W        W77274  36.586  19.083  11.517
10866W        W77275  22.739  35.825   0.348
10867W        W77276  13.346  24.253  11.955
10868W        W77277  18.803  39.408   3.735
10869W        W77278  43.502   1.102  13.492
10870W        W77279  20.129  17.619  14.382
10871W        W77280  42.909  15.214  12.650
10872W        W77281   8.729  27.466  14.003
10873W        W77282  19.715   5.339   3.193
10874W        W77283  14.285  16.495  14.060
10875W        W77284  29.205  10.209   1.675
10876W        W77285  32.267   4.384  11.216
10877W        W77286  15.256  14.631   2.199
10878W        W77287  35.825  38.450   2.249
10879W        W77288  37.508  18.345   5.290
10880W        W77289   2.229  26.404  11.128
10881W        W77290  20.013  24.887   2.680
10882W        W77291  31.267  23.680  12.529
10883W        W77292  30.988  19.075  12.251
10884W        W77293  41.093  32.492  12.627
10885W        W77294  36.413  24.964  11.119
10886W        W77295  11.639  37.083  12.707
10887W        W77296  27.434   7.614  10.773
10888W        W77297  37.397   8.973  13.772
10889W        W77298  28.918  29.670   3.767
10890W        W77299  21.230  18.517  14.758
10891W        W77300  39.802  38.775   4.533
10892W        W77301  33.322   0.959  12.370
10893W        W77302  17.925  30.320   1.077
10894W        W77303  13.396  31.082   4.244
10895W        W77304  24.539  24.131  12.633
10896W        W77305  24.975  19.495  13.269
10897W        W77306  28.408  20.483   1.314
10898W        W77307   1.313  26.277   3.405
10899W        W77308  11.685  31.117  12.911
10900W        W77309  14.132   7.867   4.618
10901W        W77310  33.283  16.629   4.539
10902W        W77311  25.595  43.539   3.945
10903W        W77312  23.475  21.518   1.788
10904W        W77313   4.879  29.007   4.927
10905W        W77314   3.022  25.920   1.338
10906W        W77315  10.289  31.058   1.870
10907W        W77316   0.458  15.057  12.992
10908W        W77317   1.803  42.476   1.961
10909W        W77318   0.258  18.508  11.254
10910W        W77319   5.819  34.553   1.541
10911W        W77320  44.715   0.787   0.765
10912W        W77321  23.145  24.078   2.987
10913W        W77322   3.928  24.432   5.458
10914W        W77323  39.116  28.431   4.520
10915W        W77324  41.983   3.810   4.533
10916W        W77325  16.674   7.002   5.058
10917W        W77326   0.392  44.966  14.042
10918W        W77327  18.503  17.271  10.914
10919W        W77328   2.705  20.735  14.511
10920W        W77329   6.120   6.549   4.818
10921W        W77330   2.738  41.106  13.497
10922W        W77331   1.022  32.859   0.474
10923W        W77332  39.694   5.300  12.929
10924W        W77333   2.023  19.764  12.126
10925W        W77334   4.861   8.701  11.892
10926W        W77335  33.491  22.001   4.204
10927W        W77336  23.465  40.846   0.575
10928W        W77337  14.335  17.326  13.639
10929W        W77338  15.564  12.569  11.222
10930W        W77339  22.149  10.904   4.126
10931W        W77340  41.253   6.695  12.072
10932W        W77341   9.625   7.327  14.490
10933W        W77342  11.659  27.212   1.141
10934W        W77343  15.873  13.204   2.993
10935W        W77344  20.153  35.437  11.211
10936W        W77345   4.542  26.644  14.750
10937W        W77346  14.055  34.611  14.435
10938W        W77347  11.685  16.812   1.800
10939W        W77348  38.566  30.576   2.104
10940W        W77349  26.044  28.720   4.232
10941W        W77350   1.855  31.029  14.999
10942W        W77351  36.651  18.989  14.907
10943W        W77352  22.512   2.915   4.232
10944W        W77353  32.462  24.156  12.073
10945W        W77354  19.593  38.845  10.862
10946W        W77355  21.606   3.750   3.849
10947W        W77356  43.116  29.254   4.887
10948W        W77357  36.342  14.736   4.554
10949W        W77358  13.805  25.036   4.078
10950W        W77359  35.663  24.232   3.113
10951W        W77360  40.896  37.782  12.651
10952W        W77361  19.698  35.848   3.654
10953W        W77362  14.442  40.317  14.535
10954W        W77363  22.755  40.925  14.768
10955W        W77364  27.220   6.773  11.231
10956W        W77365  39.819  34.972  13.943
10957W        W77366  26.679  11.866  13.844
10958W        W77367  36.001  25.944   2.676
10959W        W77368  26.142  13.271   4.680
10960W        W77369  36.402  23.485  13.426
10961W        W77370  36.429  34.133   2.693
10962W        W77371  24.348  28.140   1.834
10963W        W77372   5.761  11.569   0.384
10964W        W77373  37.355   5.235   3.312
10965W        W77374  36.458  30.556   2.953
10966W        W77375  23.329  34.984   4.844
10967W        W77376  36.336  15.294   1.197
10968W        W77377  34.660  42.519  10.496
10969W        W77378  40.799   7.301  12.924
10970W        W77379  26.799   2.854  12.918
10971W        W77380  38.516  22.191  14.905
10972W        W77381  35.880  29.067   0.522
10973W        W77382   3.307   6.758   0.002
10974W        W77383  32.173  40.075  11.146
10975W        W77384  40.387  43.047   4.591
10976W        W77385  16.739  28.911  14.417
10977W        W77386  10.378  29.248  14.925
10978W        W77387  37.518  15.818   1.864
10979W        W77388  16.561  12.158   1.428
10980W        W77389  16.299  31.389  13.446
10981W        W77390  15.092  14.066  12.557
10982W        W77391  18.513  29.151  14.874
10983W        W77392  27.141   7.798  13.349
10984W        W77393   0.016   4.831   1.734
10985W        W77394  24.965  32.959   2.461
10986W        W77395  40.417  26.641   4.642
10987W        W77396  17.011  18.822  12.495
10988W        W77397  24.060  39.446  14.183
10989W        W77398  43.815  42.084   3.578
10990W        W77399  37.976  27.734   0.234
10991W        W77400  14.523   1.240   4.443
10992W        W77401  30.232   9.706   1.914
10993W        W77402  22.248   5.855  14.885
10994W        W77403  22.210  26.767  10.069
10995W        W77404  13.113  38.531   4.914
10996W        W77405  18.831  36.981   3.120
10997W        W77406   7.442  17.707   0.802
10998W        W77407  17.808  13.399   0.808
10999W        W77408  33.987  20.253   4.230
11000W        W77409  18.360  13.303  11.741
11001W        W77410  18.150  35.526   3.379
11002W        W77411  21.044   2.900   1.546
11003W        W77412  30.442   3.085   0.147
11004W        W77413  18.687  35.528  11.197
11005W        W77414  28.445  10.334   3.564
11006W        W77415  35.452  22.028  14.039
11007W        W77416  11.651  19.627  11.749
11008W        W77417  36.332   4.165  14.863
11009W        W77418  32.187  23.730   4.077
11010W        W77419  35.138  24.914   4.114
11011W        W77420   1.347   7.292   4.588
11012W        W77421   2.974  17.021   2.357
11013W        W77422  40.770  43.495  12.283
11014W        W77423  12.231  37.342   4.388
11015W        W77424   5.044  16.568   3.664
11016W        W77425   2.978  32.940   2.294
11017W        W77426  35.442  41.994   0.639
11018W        W77427  38.018  22.016  13.604
11019W        W77428  28.211  14.146   1.804
11020W        W77429  28.846   6.062  10.682
11021W        W77430  36.106  17.391   2.189
11022W        W77431   0.157   7.008   1.689
11023W        W77432  19.748  33.176  11.045
11024W        W77433  25.438   8.253   9.832
11025W        W77434  42.923   6.537   2.745
11026W        W77435  30.426  19.403  12.929
11027W        W77436  12.037  36.428  13.961
11028W        W77437  33.643  43.767   2.154
11029W        W77438  21.230  17.447  11.228
11030W        W77439  19.640  34.549  14.026
11031W        W77440  33.085   9.622   3.252
11032W        W77441  37.983  16.750  10.874
11033W        W77442  36.398  18.832   4.544
11034W        W77443  16.542  23.296  11.066
11035W        W77444   2.751  19.124  13.500
11036W        W77445  17.229  16.762  11.212
11037W        W77446  13.835  31.940  12.518
11038W        W77447  29.470  37.609   1.155
11039W        W77448   8.404  38.071   3.735
11040W        W77449  26.410  44.235   2.965
11041W        W77450  42.631  34.584  11.604
11042W        W77451  28.565  23.689   2.810
11043W        W77452   8.097  43.519  12.001
11044W        W77453   9.590  31.012   1.286
11045W        W77454  13.673  12.296   4.477
11046W        W77455   3.288  27.200   0.264
11047W        W77456  42.080  15.542   4.120
11048W        W77457  15.158   4.872  14.584
11049W        W77458  34.549  24.005  14.302
11050W        W77459  26.559  31.158   0.115
11051W        W77460  40.035  14.835   3.752
11052W        W77461   7.119   2.219   3.184
11053W        W77462   3.717   5.010   5.061
11054W        W77463  29.993  26.274  11.111
11055W        W77464  20.824  38.389   4.512
11056W        W77465  28.143  28.713  12.415
11057W        W77466   9.176   3.715   2.225
11058W        W77467  19.921  28.217   2.248
11059W        W77468  32.335  17.669  14.428
11060W        W77469  38.699  18.533  13.651
11061W        W77470   6.426  36.337   3.938
11062W        W77471   3.881  23.062  14.349
11063W        W77472  20.772  22.738  13.388
11064W        W77473   8.237  32.426   0.539
11065W        W77474  28.223  30.404  14.857
11066W        W77475  38.523   5.182  11.616
11067W        W77476   9.598  14.649   0.349
11068W        W77477  40.442  29.614   2.697
11069W        W77478  40.579  26.551  10.673
11070W        W77479   9.797  21.601  11.745
11071W        W77480   3.164  43.827   4.822
11072W        W77481  21.712  25.723  12.944
11073W        W77482  21.155  31.203  14.383
11074W        W77483  43.518  22.582   1.910
11075W        W77484   6.932  26.644   3.700
11076W        W77485  31.884  14.273   4.709
11077W        W77486  41.818  19.456   1.415
11078W        W77487  10.683  18.633  14.504
11079W        W77488   7.526   4.360   2.368
11080W        W77489  42.847  32.321   1.684
11081W        W77490   3.785  21.155   1.123
11082W        W77491  32.332  19.502  14.830
11083W        W77492  37.406  36.696   3.289
11084W        W77493  44.586  24.380  12.067
11085W        W77494  17.084   6.799   2.736
11086W        W77495  28.419   4.283  12.549
11087W        W77496  30.658   4.254  11.499
11088W        W77497   6.319  35.930   1.213
11089W        W77498  29.154   0.673  14.557
11090W        W77499   3.815  32.352  14.237
11091W        W77500  13.164   8.724  10.645
11092W        W77501   0.732  23.566  12.270
11093W        W77502   9.504  32.402  11.172
11094W        W77503  43.805  13.977  11.638
11095W        W77504  37.595   2.345  12.526
11096W        W77505  28.276  12.708   2.824
11097W        W77506  38.381   2.910  13.593
11098W        W77507  30.053  34.810   2.973
11099W        W77508  16.066  13.173  11.008
11100W        W77509  25.064  12.762   0.974
11101W        W77510  11.883  44.976  11.296
11102W        W77511  27.966  21.942  14.385
11103W        W77512  17.310  15.138   0.430
11104W        W77513  38.458  13.726  13.578
11105W        W77514  13.428   2.122  13.017
11106W        W77515  18.462  37.956  11.252
11107W        W77516  42.365  15.700  12.535
11108W        W77517  10.795  11.130  14.484
11109W        W77518  30.184   7.042  12.536
11110W        W77519  42.098   1.239  12.068
11111W        W77520  23.137  23.453   4.769
11112W        W77521  43.110  20.118   4.262
11113W        W77522   0.242  31.986   1.659
11114W        W77523  36.775  26.653   3.171
11115W        W77524  41.825  39.436  12.395
11116W        W77525  22.074   7.843   2.158
11117W        W77526  21.309  11.977  13.507
11118W        W77527  17.217   9.005   0.914
11119W        W77528  29.645  25.658   3.626
11120W        W77529  33.499   3.568   2.788
11121W        W77530  15.152   3.465  12.626
11122W        W77531   0.548  11.893   5.176
11123W        W77532  40.083   3.458  12.506
11124W        W77533  22.062   2.450   2.260
11125W        W77534  40.445  29.698  10.320
11126W        W77535  14.211  41.182  12.453
11127W        W77536  22.393  22.390  11.841
11128W        W77537  24.543   3.922   2.213
11129W        W77538  11.501  28.972  12.047
11130W        W77539  34.404  16.335  12.951
11131W        W77540   1.416  26.034  12.520
11132W        W77541   1.684  25.761   2.158
11133W        W77542   0.446  13.133  14.853
11134W        W77543  25.295  22.427  11.726
11135W        W77544  43.417  34.259   4.960
11136W        W77545   2.945  22.741   1.265
11137W        W77546  29.708  11.858   2.961
11138W        W77547  37.070  44.873  13.603
11139W        W77548  27.103  21.981   0.869
11140W        W77549  11.145  10.672  11.974
11141W        W77550  37.123  42.882   4.130
11142W        W77551  17.704  44.023   1.819
11143W        W77552  13.137  41.073  10.581
11144W        W77553  31.854   7.777   4.176
11145W        W77554  22.173  17.770  12.579
11146W        W77555  20.256  30.218   2.692
11147W        W77556  11.883  36.660  14.456
11148W        W77557  42.846   5.089   1.411
11149W        W77558  43.425  21.352   3.616
11150W        W77559  37.959  31.700  11.151
11151W        W77560  18.286  27.237   4.396
11152W        W77561  35.998   0.937   1.248
11153W        W77562  13.047  44.405   0.730
11154W        W77563  41.662  28.149  10.183
11155W        W77564  21.634   8.620   0.762
11156W        W77565  35.264  33.150  13.338
11157W        W77566  11.803  15.348  12.386
11158W        W77567  36.971  30.477   2.961
11159W        W77568  34.854   4.719  14.468
11160W        W77569  18.199  15.194   2.667
11161W        W77570  12.890  28.634   1.008
11162W        W77571  38.691   9.325   2.238
11163W        W77572  26.053   3.283   5.112
11164W        W77573  17.507   3.455  12.945
11165W        W77574  25.156   3.684   0.694
11166W        W77575   6.475  19.310   3.774
11167W        W77576  37.407  44.354   4.541
11168W        W77577   2.769  31.693   1.690
11169W        W77578  13.843  31.443   2.259
11170W        W77579  44.375  24.281   0.827
11171W        W77580  30.439  15.246   0.239
11172W        W77581  21.602  44.682  12.155
11173W        W77582  11.120  16.808  13.032
11174W        W77583   2.659   4.647   4.125
11175W        W77584  17.144  20.983   2.197
11176W        W77585  44.784   0.172  13.944
11177W        W77586  13.590  23.092  10.234
11178W        W77587   4.527   7.665   2.137
11179W        W77588   2.235  21.761  10.654
11180W        W77589  39.216  42.458  13.789
11181W        W77590  42.918  31.221   4.607
11182W        W77591  15.619  34.879  13.861
11183W        W77592  40.515   3.807   4.561
11184W        W77593  25.675  24.177  13.472
11185W        W77594  26.702  37.065   4.590
11186W        W77595  28.468  32.008   2.163
11187W        W77596  42.062  10.987  13.623
11188W        W77597  23.163  14.141  14.577
11189W        W77598  28.943  31.939   3.136
11190W        W77599   6.155  10.715   1.023
11191W        W77600  36.470  30.158  11.120
11192W        W77601  29.517  10.817  11.319
11193W        W77602  23.459  16.017  12.908
11194W        W77603   6.667  10.379  14.916
11195W        W77604  28.071   9.379   2.711
11196W        W77605  26.858  12.196   2.521
11197W        W77606  42.356   3.449  14.474
11198W        W77607  15.398  42.948  12.875
11199W        W77608   1.337  31.794   0.937
11200W        W77609  10.617  22.128   3.242
11201W        W77610  18.046  16.924   0.902
11202W        W77611  15.102  44.600  13.748
11203W        W77612  16.309  35.468   0.984
11204W        W77613   3.773   4.210   1.387
11205W        W77614  22.808  32.382  12.029
11206W        W77615  27.135  40.770   1.791
11207W        W77616  41.714  43.247  11.839
11208W        W77617  27.898  10.464  14.275
11209W        W77618   6.694  14.864   3.078
11210W        W77619  40.354  29.452  11.655
11211W        W77620  40.929  42.773  11.944
11212W        W77621  30.464  30.637   0.358
11213W        W77622  25.305  38.236   0.313
11214W        W77623   3.628   7.329  12.906
11215W        W77624  31.706  43.441   2.179
11216W        W77625  16.248  25.920   4.215
11217W        W77626  39.085  40.406   2.684
11218W        W77627  40.472   5.198  11.766
11219W        W77628  20.165  34.855   1.822
11220W        W77629   5.699  35.562  12.877
11221W        W77630   4.050   8.269  12.845
11222W        W77631  43.404  23.138   0.215
11223W        W77632   5.594   0.485  14.081
11224W        W77633   3.238  42.892  11.689
11225W        W77634  26.778  25.720   1.352
11226W        W77635  25.317  26.650   5.013
11227W        W77636  35.014  43.255  12.609
11228W        W77637  34.737  19.990  13.034
11229W        W77638   1.022  35.518   1.737
11230W        W77639  14.259  21.059   3.664
11231W        W77640   1.307  13.731   0.902
11232W        W77641  23.018   8.209   3.254
11233W        W77642   5.780  43.244   0.409
11234W        W77643  34.976   7.294   4.672
11235W        W77644   9.684   4.305   1.407
11236W        W77645  21.783  25.198  12.979
11237W        W77646  21.077  42.486   1.627
11238W        W77647  39.896  11.155   2.866
11239W        W77648  41.369   9.230   2.884
11240W        W77649  24.989  36.698  11.319
11241W        W77650   0.434   1.536   3.309
11242W        W77651  24.280  25.833  11.190
11243W        W77652  25.842  26.692  13.083
11244W        W77653  18.348   3.158  14.916
11245W        W77654   4.192  31.552  10.708
11246W        W77655  38.324  36.821   0.295
11247W        W77656  42.322  43.027   4.117
11248W        W77657   0.901  40.770  13.443
11249W        W77658  35.061   9.989  13.059
11250W        W77659  34.537  44.414   4.374
11251W        W77660  42.514  19.116   2.058
11252W        W77661  19.615  36.451   2.362
11253W        W77662  14.761  14.145  12.075
11254W        W77663  17.683  43.019   2.164
11255W        W77664   1.258  28.520  13.620
11256W        W77665  34.750   9.780   5.027
11257W        W77666  23.292  12.286  14.752
11258W        W77667  21.690  30.011   3.642
11259W        W77668  43.709  30.092  10.804
11260W        W77669  15.581  41.912  13.582
11261W        W77670  36.832   8.362  13.066
11262W        W77671  21.158  34.956   0.841
11263W        W77672  18.612  25.313   3.358
11264W        W77673  21.742  40.982  14.973
11265W        W77674  43.505  42.735  13.103
11266W        W77675  37.882   7.804   4.562
11267W        W77676   7.302  14.293   3.620
11268W        W77677  32.473  36.051  10.746
11269W        W77678  12.104   1.317   1.855
11270W        W77679  26.032   8.209  12.598
11271W        W77680  31.159  26.500   3.311
11272W        W77681   4.860   6.379  13.372
11273W        W77682  23.172   2.251  11.120
11274W        W77683  30.546  41.527  12.481
11275W        W77684   1.736  35.335  12.614
11276W        W77685  43.418  19.229   4.718
11277W        W77686  30.737  42.567  11.425
11278W        W77687  32.398  28.648  11.635
11279W        W77688  19.076  42.882  11.103
11280W        W77689   5.133   7.771  14.855
11281W        W77690  13.397  31.881  14.323
11282W        W77691  18.604  18.820   0.447
11283W        W77692  21.626  11.351  11.983
11284W        W77693  27.698  26.831  11.111
11285W        W77694  16.736  29.158  11.044
11286W        W77695  42.575  44.914   4.147
11287W        W77696  17.042   2.754  12.462
11288W        W77697   2.697  37.069   4.676
11289W        W77698  13.577  22.287  12.206
11290W        W77699  15.569  16.523   4.257
11291W        W77700   5.157  25.695   5.084
11292W        W77701   5.417   3.115   0.379
11293W        W77702   3.988  41.789   1.941
11294W        W77703  21.760  11.764   0.282
11295W        W77704  44.238  31.922  12.282
11296W        W77705  34.610  19.193  13.147
11297W        W77706  41.814   2.330   1.582
11298W        W77707  14.655   0.316  12.004
11299W        W77708  35.440  37.580   2.926
11300W        W77709   3.077  14.581  14.007
11301W        W77710  15.811  39.804   3.560
11302W        W77711   4.933  24.107   3.059
11303W        W77712  34.278  39.922   4.093
11304W        W77713   4.093  24.083   3.503
11305W        W77714  25.357   7.860  11.153
11306W        W77715  10.592  10.285  14.007
11307W        W77716   0.209  42.020   2.296
11308W        W77717  39.645   1.631  14.773
11309W        W77718  15.292  19.319   1.692
11310W        W77719   7.586  34.115  11.067
11311W        W77720  15.191  18.082  12.986
11312W        W77721  38.107   9.704   0.283
11313W        W77722   0.635  21.192  13.242
11314W        W77723  24.104  36.986   0.837
11315W        W77724  40.313  39.348   1.454
11316W        W77725  42.786   1.390  10.737
11317W        W77726  16.186  27.996   1.360
11318W        W77727  28.454  22.553  12.565
11319W        W77728  37.933   5.654   2.837
11320W        W77729  38.939   0.941   2.618
11321W        W77730  25.615   6.444   1.659
11322W        W77731  17.351  19.636   3.302
11323W        W77732  25.278  39.405   4.812
11324W        W77733  30.715   1.318   4.518
11325W        W77734  11.054  11.836   0.845
11326W        W77735  37.821  14.653   0.781
11327W        W77736   1.779   1.701  13.962
11328W        W77737  25.883  11.940   2.262
11329W        W77738  21.579  12.280  12.388
11330W        W77739  19.537   1.156   1.455
11331W        W77740  42.571  32.195  12.336
11332W        W77741  39.386   1.353  13.467
11333W        W77742  27.638  39.838   1.807
11334W        W77743  14.330  35.208   4.215
11335W        W77744  22.123  10.962   0.940
11336W        W77745  31.095   7.854   4.852
11337W        W77746  37.520   6.831  11.626
11338W        W77747  23.271  42.254   0.273
11339W        W77748   8.338  42.354  13.775
11340W        W77749   3.345  23.881  12.413
11341W        W77750   0.003   9.403  11.799
11342W        W77751   1.086  41.366   0.326
11343W        W77752  38.351  20.093   3.288
11344W        W77753  39.849  13.270   2.176
11345W        W77754   7.843  38.917  12.680
11346W        W77755   6.716  34.339  12.016
11347W        W77756  33.115   5.510  13.860
11348W        W77757  26.953  33.127   1.426
11349W        W77758  26.404  31.545   1.422
11350W        W77759   6.553  20.193  12.588
11351W        W77760   6.800  25.293  12.078
11352W        W77761  27.077   3.269  12.108
11353W        W77762  30.914  24.192  13.370
11354W        W77763   1.491  37.427  14.889
11355W        W77764  35.534  24.965  10.746
11356W        W77765  21.257  41.808  13.072
11357W        W77766  39.573  24.105  12.507
11358W        W77767  13.828   1.189   1.768
11359W        W77768  15.959  15.766  13.943
11360W        W77769  37.345   0.796   3.578
11361W        W77770  18.690   6.385  14.438
11362W        W77771  34.401  14.561   3.675
11363W        W77772  41.897   1.486   3.513
11364W        W77773  11.791  23.483   3.223
11365W        W77774   3.918  24.572   2.176
11366W        W77775  26.434  44.864  10.484
11367W        W77776   6.470  19.158   1.767
11368W        W77777   1.451   0.984  14.203
11369W        W77778  25.539   5.366  11.377
11370W        W77779  13.645  37.956   1.333
11371W        W77780  31.106  27.178   2.652
11372W        W77781   5.156  44.505   2.803
11373W        W77782   6.256  13.541   4.156
11374W        W77783  22.960  31.473  12.098
11375W        W77784  31.077  10.102   3.480
11376W        W77785  23.566  36.307   3.161
11377W        W77786   0.942  41.752  11.012
11378W        W77787  24.809  41.251  13.028
11379W        W77788  35.547   2.761   2.836
11380W        W77789  33.896  34.602   4.488
11381W        W77790  30.498  32.403   0.773
11382W        W77791  24.698  32.620  13.832
11383W        W77792  16.268  20.563   0.278
11384W        W77793  42.339   9.450   1.150
11385W        W77794  42.758  30.645  13.565
11386W        W77795  19.121  38.870  13.586
11387W        W77796   9.078  36.880   1.260
11388W        W77797  19.610   1.186   3.229
11389W        W77798   2.026  34.654  13.133
11390W        W77799   8.540  17.769   3.406
11391W        W77800  22.510  21.032   1.709
11392W        W77801  34.479  31.633  11.574
11393W        W77802  39.780  21.419  11.467
11394W        W77803  33.540  44.632  12.362
11395W        W77804  17.263  21.827  11.844
11396W        W77805   9.377   6.343  14.310
11397W        W77806  38.507   0.292   1.317
11398W        W77807  22.285  14.693   3.686
11399W        W77808  35.122  41.780  11.558
11400W        W77809  38.888  16.799   2.100
11401W        W77810  17.744  18.775   3.538
11402W        W77811   8.137  34.107  10.432
11403W        W77812  34.568  13.407   2.272
11404W        W77813  42.438   1.256  14.788
11405W        W77814  40.806  21.689   2.444
11406W        W77815  25.202  28.273   0.402
11407W        W77816  40.332  35.530   3.894
11408W        W77817  14.840  36.416   2.821
11409W        W77818  11.568  27.080   3.181
11410W        W77819  31.366   6.475   1.261
11411W        W77820   9.848  24.378  12.073
11412W        W77821  40.762  18.782   3.780
11413W        W77822  34.870  10.946  12.485
11414W        W77823  25.609  11.194   3.363
11415W        W77824   2.846  23.735  11.414
11416W        W77825   1.898  14.582   0.008
11417W        W77826  23.663  23.918  13.117
11418W        W77827  36.406   9.663   1.924
11419W        W77828  35.468  21.637  14.457
11420W        W77829  11.195  27.241   2.867
11421W        W77830  43.001  28.812  13.808
11422W        W77831  13.372  40.396  12.856
11423W        W77832  12.347  41.511   2.231
11424W        W77833  21.116  18.543   5.053
11425W        W77834  29.502  30.945   4.422
11426W        W77835  41.215  14.724  13.039
11427W        W77836  18.583  10.606  14.396
11428W        W77837  16.273  27.977   3.636
11429W        W77838  31.700  31.146   4.648
11430W        W77839  27.263  17.411   0.904
11431W        W77840  22.238  15.030   4.123
11432W        W77841  29.095  31.196  12.117
11433W        W77842  19.038   5.862   2.663
11434W        W77843   7.966  16.215   0.369
11435W        W77844  19.687  41.840  12.959
11436W        W77845  40.307   4.563   2.797
11437W        W77846   3.503  10.815  14.405
11438W        W77847  34.046  30.603   0.134
11439W        W77848   6.848  10.108   1.894
11440W        W77849  40.513  20.562   2.646
11441W        W77850  29.190  20.848  13.858
11442W        W77851  41.015   6.352  14.334
11443W        W77852   6.684  31.397  14.410
11444W        W77853  15.626  22.707  12.002
11445W        W77854   8.961  29.595   4.972
11446W        W77855  40.432  41.236  13.895
11447W        W77856  18.149  11.832   0.348
11448W        W77857   6.904  17.357  13.410
11449W        W77858  19.833  12.578   1.415
11450W        W77859  30.061  39.467  12.900
11451W        W77860  21.708  22.433  11.812
11452W        W77861   2.470  24.532  13.793
11453W        W77862  30.155  24.678  13.360
11454W        W77863  34.398  14.296  11.914
11455W        W77864  20.130  37.838   3.728
11456W        W77865   3.249  44.593   3.666
11457W        W77866  20.906  10.288  14.652
11458W        W77867  32.468  36.356   2.456
11459W        W77868  14.237  13.860  14.939
11460W        W77869  13.504  28.112  14.157
11461W        W77870  18.566  40.719   4.513
11462W        W77871  18.700  31.105   4.769
11463W        W77872  12.659  17.407   1.918
11464W        W77873   1.535   2.727  12.119
11465W        W77874  23.753  39.059   1.313
11466W        W77875  17.580  39.605  12.044
11467W        W77876  21.290  17.440  12.052
11468W        W77877  38.541  17.310   3.238
11469W        W77878  29.047   7.178   1.602
11470W        W77879   4.027  24.111   2.770
11471W        W77880  29.976  12.613  14.609
11472W        W77881  32.766   0.988   9.879
11473W        W77882  36.544  11.849  12.095
11474W        W77883  36.064  14.319   1.752
11475W        W77884  10.611  15.170   3.749
11476W        W77885   7.164   3.190  11.558
11477W        W77886   3.300  31.411  10.721
11478W        W77887  40.998  21.342  11.667
11479W        W77888   9.630  27.835   0.421
11480W        W77889  20.211  38.859   3.758
11481W        W77890  11.198  41.905   2.214
11482W        W77891  20.033  34.080   3.760
11483W        W77892  20.581  11.886  14.887
11484W        W77893  29.527  26.183  12.020
11485W        W77894  28.453   7.218   3.788
11486W        W77895  39.346  35.551  13.278
11487W        W77896  32.640  32.068  13.251
11488W        W77897   0.224  31.357   2.403
11489W        W77898   2.891  35.659   3.705
11490W        W77899  34.091   9.249  13.873
11491W        W77900  14.847  33.448  13.052
11492W        W77901  25.660  43.941  12.604
11493W        W77902  39.929   0.789   1.331
11494W        W77903  36.572  22.753  14.032
11495W        W77904  31.025   1.217   4.021
11496W        W77905  25.410  21.756   1.688
11497W        W77906  44.277  14.639   2.649
11498W        W77907  33.046  22.337   5.027
11499W        W77908  32.091  31.265  13.091
11500W        W77909  43.029  38.633   0.382
11501W        W77910  21.812  18.146  12.616
11502W        W77911   5.756  34.071  13.874
11503W        W77912  10.305  31.602   0.041
11504W        W77913  26.010   9.867   2.262
11505W        W77914  11.191  31.153   1.013
11506W        W77915  33.831  29.544   2.784
11507W        W77916  44.757  39.773   2.952
11508W        W77917  25.173   8.405  12.792
11509W        W77918   2.339  28.227   3.339
11510W        W77919   0.469  30.268   0.738
11511W        W77920  19.020  23.847   1.896
11512W        W77921  18.018  44.638   2.714
11513W        W77922  13.908  43.889   2.938
11514W        W77923   9.343   4.431  10.745
11515W        W77924   3.778  10.239  13.850
11516W        W77925  24.098  23.885   4.082
11517W        W77926  31.751   5.032   3.269
11518W        W77927  15.380  30.468   3.582
11519W        W77928  31.457  44.265  14.303
11520W        W77929  33.377   9.119   1.292
11521W        W77930  44.268  15.755   1.775
11522W        W77931  12.165   6.674   1.198
11523W        W77932  26.544   5.387   0.265
11524W        W77933  31.591   8.790  14.457
11525W        W77934  35.406  16.400   1.246
11526W        W77935  19.077  30.721  11.162
11527W        W77936  17.443  32.575  13.196
11528W        W77937   3.699  11.336  10.433
11529W        W77938  23.475  25.535   2.429
11530W        W77939  20.692  41.796   2.234
11531W        W77940   7.920  34.538  12.543
11532W        W77941   3.753  10.074  10.403
11533W        W77942  39.446  21.636   4.359
11534W        W77943   9.839  31.094   3.112
11535W        W77944  32.845  43.289   2.637
11536W        W77945  32.452  11.594  14.407
11537W        W77946   5.709  11.212  12.857
11538W        W77947  16.663  27.452   1.574
11539W        W77948  24.592  11.615   0.074
11540W        W77949   9.637  20.709  11.638
11541W        W77950  32.673  41.016  13.473
11542W        W77951  38.081  44.459  10.745
11543W        W77952  11.206  11.666   0.387
11544W        W77953   4.441   6.770   2.182
11545W        W77954  22.006   9.764  14.848
11546W        W77955   9.383  37.756  11.067
11547W        W77956   2.697  42.918  12.459
11548W        W77957  43.073  18.100   4.242
11549W        W77958  12.554  35.145  14.030
11550W        W77959   7.822  17.271  12.506
11551W        W77960  36.327  19.672  14.396
11552W        W77961  18.268  38.078  14.714
11553W        W77962  15.622   2.476  10.483
11554W        W77963  20.302  10.054   0.996
11555W        W77964  42.739  22.577  13.419
11556W        W77965  41.417  26.994  11.474
11557W        W77966  15.043  28.056  13.856
11558W        W77967  40.554  18.751   2.318
11559W        W77968  13.718  44.828   0.035
11560W        W77969  33.186  44.310  12.080
11561W        W77970  35.931  28.191   2.498
11562W        W77971  23.936  22.130   2.206
11563W        W77972  43.378  18.194  12.178
11564W        W77973  11.728  14.801  12.892
11565W        W77974   4.730  39.384  14.522
11566W        W77975  23.189  24.170  12.229
11567W        W77976  25.999  27.643  14.029
11568W        W77977  20.601   6.277  14.532
11569W        W77978  41.910  36.352   4.575
11570W        W77979  32.065   7.379   2.171
11571W        W77980  16.228  12.498  11.571
11572W        W77981  10.722   3.727   2.071
11573W        W77982  33.545   5.953  12.909
11574W        W77983  27.129  43.996   3.688
11575W        W77984  26.398  21.571   0.443
11576W        W77985  27.192  15.494   3.552
11577W        W77986   6.198  37.185  11.976
11578W        W77987   5.093  20.863   5.139
11579W        W77988  30.118  38.141  13.429
11580W        W77989  27.193  10.241   2.208
11581W        W77990  33.758  10.548  14.417
11582W        W77991  16.713  40.177  14.930
11583W        W77992  24.368  38.919  14.000
11584W        W77993  14.169  21.571   3.680
11585W        W77994   6.326  43.587   3.102
11586W        W77995  24.580   0.773   0.381
11587W        W77996   9.341  18.341  13.061
11588W        W77997  23.506  39.293  12.131
11589W        W77998  33.925  11.511  13.546
11590W        W77999  13.873  43.258   4.644
11591W        W78000  11.901  14.325  11.149
11592W        W78001  12.233  29.207  11.618
11593W        W78002  10.273   6.786  12.813
11594W        W78003  17.725  18.514   0.392
11595W        W78004  42.365  18.200  13.865
11596W        W78005   1.270   4.492  11.630
11597W        W78006   5.124   9.413   4.569
11598W        W78007  43.624  16.046   2.131
11599W        W78008  41.542   3.449   1.330
11600W        W78009   6.703   8.591  12.050
11601W        W78010  34.034  33.899   0.245
11602W        W78011  23.784  15.699   4.687
11603W        W78012  40.445   2.319   1.895
11604W        W78013  41.844  24.019   1.521
11605W        W78014  14.615  34.413   2.326
11606W        W78015  39.331  19.640   2.639
11607W        W78016  38.801  40.121  14.158
11608W        W78017  35.443  13.597   0.330
11609W        W78018   1.767  41.882   0.272
11610W        W78019  28.168  25.917  12.392
11611W        W78020  30.413   8.958  12.510
11612W        W78021  24.376  30.382  11.217
11613W        W78022  22.717  29.868   0.867
11614W        W78023  38.664   3.816  13.382
11615W        W78024  27.638   9.960   2.359
11616W        W78025   9.307  34.357   3.714
11617W        W78026  37.866   6.432  12.483
11618W        W78027   6.820  21.706  12.506
11619W        W78028   2.681  39.594  14.418
11620W        W78029   0.731  27.311  10.519
11621W        W78030  41.569  31.545  13.746
11622W        W78031  11.974  34.143  11.188
11623W        W78032  20.091   6.181  11.686
11624W        W78033  43.948  44.302  10.158
11625W        W78034   1.393  27.814   2.978
11626W        W78035  26.057   6.210   3.810
11627W        W78036  31.528   4.584   0.260
11628W        W78037   3.126  37.079  11.827
11629W        W78038  11.490  44.182  14.627
11630W        W78039  36.803  34.981  13.452
11631W        W78040  13.841   0.157  11.078
11632W        W78041  33.334  35.893   3.293
11633W        W78042  35.529  24.701   4.373
11634W        W78043  14.295   6.726   2.134
11635W        W78044  38.072  26.224  13.439
11636W        W78045   7.378  16.598   1.669
11637W        W78046   9.908  28.815   2.764
11638W        W78047  24.607  19.287  11.263
11639W        W78048  35.009  32.910   4.548
11640W        W78049   5.466  25.994  13.639
11641W        W78050  19.834  33.581  14.068
11642W        W78051  13.902   0.716   0.616
11643W        W78052   7.379   9.334   2.616
11644W        W78053   5.436  17.121  11.628
11645W        W78054   8.159   5.764   0.851
11646W        W78055  35.129  32.133   3.702
11647W        W78056  33.829  21.731   2.360
11648W        W78057  12.898  39.676  12.536
11649W        W78058  33.857  40.528   3.376
11650W        W78059  31.497  36.193   1.143
11651W        W78060   2.098  21.560   0.442
11652W        W78061  16.987  22.369  14.903
11653W        W78062  21.746  30.237   0.955
11654W        W78063  20.883   8.958  12.383
11655W        W78064   7.718  17.244  13.935
11656W        W78065  39.618  36.827  13.969
11657W        W78066   5.821  26.922  11.692
11658W        W78067   0.592   8.229  13.842
11659W        W78068  18.018  40.316  12.418
11660W        W78069  23.265   5.785   2.539
11661W        W78070  31.613  40.299  11.906
11662W        W78071   4.226   5.362   4.975
11663W        W78072  19.053  34.567   3.148
11664W        W78073  14.683  42.045   2.363
11665W        W78074  20.642  33.883   1.685
11666W        W78075  22.713  34.302   3.259
11667W        W78076   2.803  21.140   0.275
11668W        W78077   2.185  31.937  12.707
11669W        W78078  24.771  39.953  13.207
11670W        W78079  26.267  19.201  10.781
11671W        W78080  41.018  25.840   2.719
11672W        W78081  35.177  25.189  14.816
11673W        W78082   5.990  24.022  11.557
11674W        W78083   6.814  28.159  13.715
11675W        W78084  42.936  38.807   3.352
11676W        W78085  15.637  13.373  12.633
11677W        W78086  17.003  40.089  10.624
11678W        W78087  19.243  38.980  12.392
11679W        W78088   5.294  40.619  14.359
11680W        W78089   6.810  28.109  13.185
11681W        W78090  43.949  15.790  11.964
11682W        W78091  17.032  19.126   3.201
11683W        W78092  10.895  25.752  14.078
11684W        W78093  19.152  24.499  13.134
11685W        W78094  18.797   3.519   4.665
11686W        W78095  24.152  20.808   1.916
11687W        W78096  29.592  29.786   2.837
11688W        W78097  20.082   6.356  12.979
11689W        W78098   1.986   2.449   4.490
11690W        W78099  19.182  10.322  14.247
11691W        W78100  21.263  42.966   0.816
11692W        W78101  43.897  41.743  11.490
11693W        W78102  19.498  20.860   1.581
11694W        W78103  15.902  43.627  14.427
11695W        W78104  18.271   3.183   2.800
11696W        W78105   8.128  42.283   2.774
11697W        W78106  44.996  13.243  11.624
11698W        W78107  40.631   6.567   2.862
11699W        W78108   9.733   6.254   1.208
11700W        W78109   7.416  28.766  13.121
11701W        W78110  23.182  13.915  14.126
11702W        W78111  17.640  10.273  11.639
11703W        W78112  37.385  33.588  12.468
11704W        W78113  36.214  18.489   4.182
11705W        W78114  26.886  42.050   0.964
11706W        W78115   8.777  42.581  12.011
11707W        W78116  15.876  10.817   3.761
11708W        W78117  36.071  28.892   4.704
11709W        W78118  24.736  42.073  13.415
11710W        W78119  37.790  39.243   1.204
11711W        W78120  31.621  39.977  11.483
11712W        W78121  26.159  11.710  11.691
11713W        W78122  41.554  36.815  13.450
11714W        W78123  23.708   1.182   0.343
11715W        W78124  16.646  27.533  13.230
11716W        W78125  27.331  32.764  13.483
11717W        W78126   2.002  26.137   2.826
11718W        W78127  14.554  18.553   3.522
11719W        W78128  11.867  19.793  12.698
11720W        W78129  27.795  31.850  11.142
11721W        W78130  35.993  12.320  11.659
11722W        W78131   5.220  44.344  13.317
11723W        W78132  39.793   7.821  11.127
11724W        W78133  25.613  29.224  12.134
11725W        W78134  38.643   3.206  11.869
11726W        W78135  10.106  17.745   1.356
11727W        W78136  38.280   1.402   1.726
11728W        W78137  15.279  36.158  10.359
11729W        W78138  39.549   6.774  11.998
11730W        W78139  35.581  34.341  13.198
11731W        W78140  13.361   6.643  13.416
11732W        W78141  13.438   4.866   4.486
11733W        W78142  22.449  39.449   3.653
11734W        W78143  20.608  16.344  10.752
11735W        W78144  35.526  39.048   1.660
11736W        W78145  17.370   2.380  12.580
11737W        W78146  19.262  41.500  12.929
11738W        W78147  43.056   7.195  11.288
11739W        W78148  19.760  27.233   3.161
11740W        W78149   6.400  40.801   0.340
11741W        W78150  41.634  37.596  14.864
11742W        W78151  15.556  16.127  13.898
11743W        W78152   4.163   5.365   4.433
11744W        W78153  42.574  39.533   1.303
11745W        W78154  20.063  39.498   4.358
11746W        W78155  20.114  23.557  12.110
11747W        W78156  22.475  36.387   2.383
11748W        W78157   1.431  42.513  10.970
11749W        W78158   7.406   3.926   0.716
11750W        W78159  25.046  39.749  11.406
11751W        W78160  37.005  10.611  11.318
11752W        W78161  20.130  17.793  14.921
11753W        W78162  19.587  31.363  13.917
11754W        W78163  26.512  38.030   4.517
11755W        W78164  11.881   3.264  11.688
11756W        W78165  14.859  11.078   3.559
11757W        W78166  31.642  18.349  14.457
11758W        W78167   4.387  44.445   1.213
11759W        W78168  27.541   8.242   4.017
11760W        W78169  28.744  40.776   2.498
11761W        W78170  40.955  43.318  14.262
11762W        W78171  38.353  24.235   2.370
11763W        W78172  25.154  33.117   2.930
11764W        W78173  36.317  21.246   4.175
11765W        W78174  38.084  10.212  14.096
11766W        W78175  17.211  41.542   3.188
11767W        W78176  41.952  37.637  10.571
11768W        W78177  34.204  24.014   1.855
11769W        W78178  31.140   8.837  10.494
11770W        W78179  10.393  29.995  14.479
11771W        W78180  20.870   4.799   4.942
11772W        W78181  44.354  34.913  13.090
11773W        W78182  16.110  37.458   3.167
11774W        W78183  23.484  34.648  14.868
11775W        W78184  16.873  14.684   1.159
11776W        W78185   2.682  14.958  12.472
11777W        W78186  30.367   3.035   5.121
11778W        W78187  27.818  39.532  12.045
11779W        W78188  10.220  44.522   1.216
11780W        W78189  14.891   9.197   4.803
11781W        W78190  33.555  17.248   3.871
11782W        W78191  31.239  36.496   1.522
11783W        W78192   1.875  43.514  12.528
11784W        W78193  13.085  27.755   1.674
11785W        W78194   3.132  33.384  11.082
11786W        W78195  18.913   0.878  12.937
11787W        W78196   4.636  35.240  13.322
11788W        W78197  10.302  19.554   3.814
11789W        W78198   1.231  18.738   2.434
11790W        W78199  20.371  16.852  12.463
11791W        W78200   6.263   6.878  14.277
11792W        W78201  27.532   0.242  13.434
11793W        W78202  43.410  10.676  13.613
11794W        W78203  39.953  42.389  12.064
11795W        W78204  39.605   3.885   0.447
11796W        W78205  15.199  21.664   0.367
11797W        W78206   3.153   4.436   4.292
11798W        W78207  15.421  10.836   2.273
11799W        W78208  36.570  42.498  11.043
11800W        W78209  23.068  38.153  10.353
11801W        W78210  13.172  39.096   1.287
11802W        W78211  34.596  15.665  13.720
11803W        W78212  39.101  40.218  11.499
11804W        W78213  22.595  33.359   0.721
11805W        W78214  13.572  15.776  14.480
11806W        W78215   5.320  15.107  12.332
11807W        W78216  18.855   0.508   3.310
11808W        W78217   3.391  21.556  13.652
11809W        W78218   5.210  22.668  14.696
11810W        W78219   9.921   8.173  10.814
11811W        W78220  35.603  39.265  10.878
11812W        W78221  35.053  35.171  13.327
11813W        W78222  32.387  11.253   3.581
11814W        W78223   3.800   5.090   0.375
11815W        W78224  11.161  44.960  14.142
11816W        W78225   2.084  30.669   0.303
11817W        W78226  16.059   4.982   1.392
11818W        W78227   9.207  38.033   2.852
11819W        W78228  41.514  23.963   0.697
11820W        W78229  43.270   5.646  14.289
11821W        W78230  44.475  14.776   3.127
11822W        W78231  10.076  22.595   3.757
11823W        W78232  32.928   4.764   3.352
11824W        W78233   5.263  36.772   1.186
11825W        W78234  12.219  22.517   0.129
11826W        W78235  44.956  12.095  11.993
11827W        W78236   6.737  17.413  12.915
11828W        W78237  35.466  37.243   1.329
11829W        W78238   8.177  44.441  14.832
11830W        W78239  27.453  15.711   0.456
11831W        W78240   3.452  42.996   1.823
11832W        W78241  24.755  34.995   4.140
11833W        W78242  19.516  35.553   2.251
11834W        W78243  38.669   1.832  12.105
11835W        W78244  14.885  39.980   1.258
11836W        W78245   5.470  18.474   0.057
11837W        W78246  21.748  28.090  12.017
11838W        W78247  16.103  34.906   4.492
11839W        W78248  36.557  15.213  11.040
11840W        W78249  18.578  19.188  13.323
11841W        W78250  27.713  26.885   3.807
11842W        W78251  10.172  14.683  10.906
11843W        W78252  15.619  13.881  12.478
11844W        W78253   0.767  34.104   3.701
11845W        W78254  30.007  29.616  12.439
11846W        W78255  15.864  14.769  10.830
11847W        W78256  15.286  21.500  13.967
11848W        W78257   8.700  18.545   3.606
11849W        W78258   7.286  17.155  10.857
11850W        W78259  42.007  29.452  10.743
11851W        W78260  17.769   6.453   1.473
11852W        W78261  14.294  29.597  11.221
11853W        W78262   0.212   0.366   2.381
11854W        W78263  16.296   8.634  12.075
11855W        W78264  37.339  35.874   3.660
11856W        W78265   5.881  21.668   5.085
11857W        W78266  26.286  28.556   2.284
11858W        W78267  10.173  26.724  14.945
11859W        W78268  25.307  43.447   1.337
11860W        W78269   1.784  16.180  13.338
11861W        W78270  39.474   2.737  12.600
11862W        W78271  19.165   9.777   4.322
11863W        W78272  14.833  28.695  11.175
11864W        W78273  36.756  43.775  14.033
11865W        W78274  26.441  24.584  11.509
11866W        W78275  18.488  32.528   3.291
11867W        W78276  38.927  26.140  13.934
11868W        W78277  25.417  29.640  14.027
11869W        W78278  23.620  31.169  13.301
11870W        W78279  42.453   5.703  11.642
11871W        W78280  35.449  21.029   0.740
11872W        W78281  19.769  33.561  14.572
11873W        W78282  20.713  31.434   1.679
11874W        W78283   0.003  39.019  12.346
11875W        W78284  30.618  32.250  12.375
11876W        W78285  11.252  29.492   2.810
11877W        W78286  31.431   9.282  14.416
11878W        W78287  36.808  17.080  11.191
11879W        W78288  24.229   0.597   1.822
11880W        W78289  33.368   4.427   4.038
11881W        W78290  20.257  20.810   4.322
11882W        W78291  30.954  18.828  13.441
11883W        W78292  28.819  31.666   2.448
11884W        W78293  10.940  39.713   1.499
11885W        W78294   5.127  32.505  14.026
11886W        W78295  13.352  17.545   1.414
11887W        W78296  20.814  22.113   0.417
11888W        W78297  37.569  43.241   0.734
11889W        W78298  19.073  29.455  14.106
11890W        W78299  44.381  16.326   4.874
11891W        W78300  12.049  20.632   4.010
11892W        W78301  41.502  21.297  14.343
11893W        W78302  13.814  34.528  11.552
11894W        W78303  38.303  15.588   2.361
11895W        W78304   2.197   4.439   0.262
11896W        W78305  13.340  40.910   1.959
11897W        W78306   1.450   1.923  10.892
11898W        W78307  32.319  42.890  13.114
11899W        W78308   7.970  14.675  11.329
11900W        W78309  36.407  19.817   1.811
11901W        W78310  14.526  33.158   0.360
11902W        W78311  30.847   6.665  13.643
11903W        W78312  41.956  16.119  14.948
11904W        W78313   8.359  22.609   4.876
11905W        W78314  31.206   9.365   4.811
11906W        W78315  34.983  40.217   4.571
11907W        W78316  34.594   5.465   4.620
11908W        W78317  25.396  33.354  11.534
11909W        W78318  31.086  43.088   1.749
11910W        W78319  30.660  44.247   5.003
11911W        W78320   4.875   9.155  10.591
11912W        W78321  16.216   5.820  14.291
11913W        W78322  34.624   0.380   0.806
11914W        W78323  40.778   5.543  11.955
11915W        W78324  27.913  34.121   3.191
11916W        W78325   2.991  43.513   2.266
11917W        W78326   1.041  29.449   0.893
11918W        W78327  29.021  22.923   4.597
11919W        W78328  13.685  29.791   2.712
11920W        W78329   5.405  34.236   4.180
11921W        W78330  14.733  26.830  11.086
11922W        W78331   9.205   4.052   4.564
11923W        W78332  17.624  20.453  12.544
11924W        W78333  13.577  19.282  12.834
11925W        W78334  36.553  35.203  11.633
11926W        W78335   1.371  10.649  10.225
11927W        W78336   4.242  35.014  14.098
11928W        W78337  19.929   1.705   2.188
11929W        W78338  22.730  39.017  12.918
11930W        W78339  33.863  42.370   3.782
11931W        W78340  25.107  31.428   3.364
11932W        W78341  17.727  31.875   4.083
11933W        W78342  16.750  41.484   1.243
11934W        W78343  17.543  18.686  13.813
11935W        W78344  37.233  17.989   3.689
11936W        W78345  40.855  22.314   3.775
11937W        W78346  26.365  12.816   4.511
11938W        W78347  17.267   0.958   3.072
11939W        W78348  29.518  38.468   0.388
11940W        W78349  35.840   3.349   2.272
11941W        W78350  23.217   7.074  10.406
11942W        W78351  38.413  15.612  10.991
11943W        W78352  23.529  14.620   3.991
11944W        W78353  15.146  40.994  14.292
11945W        W78354   9.115  16.090  14.608
11946W        W78355  22.482  25.500   4.119
11947W        W78356   8.642  26.456  11.996
11948W        W78357  27.488  35.832   2.694
11949W        W78358  34.830  26.017  11.983
11950W        W78359  40.993  41.273  11.983
11951W        W78360  44.139  12.934   5.069
11952W        W78361   9.744  21.811  13.578
11953W        W78362  39.089   4.944   2.331
11954W        W78363  40.906  24.943   0.808
11955W        W78364   0.638   2.171   4.106
11956W        W78365  13.911  35.953  14.152
11957W        W78366  42.430  25.127  12.476
11958W        W78367  17.121  43.967   3.668
11959W        W78368  31.382  42.963   2.899
11960W        W78369  10.935  25.174   2.688
11961W        W78370  41.755  14.108   3.259
11962W        W78371  39.790  18.352  13.870
11963W        W78372  36.813   4.227   0.040
11964W        W78373   3.595  36.604  12.073
11965W        W78374  15.274  42.438   1.357
11966W        W78375  30.298  36.222   3.099
11967W        W78376  18.060  40.367  10.178
11968W        W78377  23.002  27.858  13.515
11969W        W78378   9.810  30.313   4.724
11970W        W78379  31.658  10.113   0.805
11971W        W78380   3.490   5.440   3.314
11972W        W78381  29.552  42.392  11.134
11973W        W78382  17.543  29.551  12.027
11974W        W78383   4.685  40.743  11.665
11975W        W78384   3.628   6.795   1.405
11976W        W78385  14.790   1.782  13.589
11977W        W78386  36.961  42.924  13.962
11978W        W78387   8.635  36.203   1.756
11979W        W78388   3.953   4.685  12.068
11980W        W78389   9.146   7.629   4.183
11981W        W78390  40.299   2.937  14.354
11982W        W78391  34.043  34.802  12.957
11983W        W78392  36.902  25.982  11.589
11984W        W78393  41.006   6.841  13.073
11985W        W78394  29.778  16.097   1.612
11986W        W78395   0.516  28.465  14.449
11987W        W78396   0.907  20.159  10.708
11988W        W78397  28.892  36.968  13.269
11989W        W78398  12.316  37.528   5.239
11990W        W78399  43.531  40.887  10.701
11991W        W78400  29.676  37.278  14.749
11992W        W78401  34.561   3.888  11.625
11993W        W78402  32.506   4.800   4.067
11994W        W78403   5.907  17.360   3.143
11995W        W78404   4.308  24.722  13.761
11996W        W78405  29.398   0.600  10.430
11997W        W78406   0.872  30.025  13.948
11998W        W78407  18.775   5.623   3.372
11999W        W78408  30.897  30.255  12.956
12000W        W78409  36.936   9.694  14.068
12001W        W78410  13.902   5.761  12.017
12002W        W78411  37.151  10.323  11.711
12003W        W78412  33.207  22.207  13.760
12004W        W78413  24.222  42.717  13.077
12005W        W78414  40.040  23.010  12.057
12006W        W78415  25.597  32.594  10.814
12007W        W78416  23.495  43.519  10.709
12008W        W78417  14.403   9.292   4.630
12009W        W78418  19.621   8.479   3.250
12010W        W78419  22.055  30.643  10.594
12011W        W78420   8.324   6.377   3.299
12012W        W78421  28.121  31.475  14.865
12013W        W78422  16.123  12.159   1.695
12014W        W78423   6.121  13.804  13.419
12015W        W78424  11.542  42.819  14.060
12016W        W78425   2.356   3.444  11.598
12017W        W78426  36.899  31.083   4.079
12018W        W78427  30.444  17.236   4.972
12019W        W78428  26.992  30.500   2.270
12020W        W78429  33.933  44.827  14.349
12021W        W78430  32.170  27.850  12.602
12022W        W78431  42.624  23.273   0.972
12023W        W78432  31.592  19.523  11.020
12024W        W78433  23.528  13.733   4.682
12025W        W78434  13.234   2.070  12.057
12026W        W78435  40.996  15.821  13.499
12027W        W78436  13.602   8.431   0.285
12028W        W78437  30.099  43.188  12.790
12029W        W78438  33.014  21.587   1.704
12030W        W78439   8.696   8.843   0.239
12031W        W78440   4.437  26.979   0.802
12032W        W78441  43.390  16.751  10.923
12033W        W78442   6.175  39.390  11.887
12034W        W78443  39.736  12.153  12.007
12035W        W78444  14.869  41.443   0.206
12036W        W78445  19.201  19.693  11.630
12037W        W78446   8.283  22.947  12.485
12038W        W78447   7.302  16.862   3.607
12039W        W78448  10.717  25.176   3.149
12040W        W78449  43.815  35.387  11.533
12041W        W78450   9.534   4.831  14.256
12042W        W78451   7.930  43.540  11.100
12043W        W78452   6.365  41.520  12.089
12044W        W78453  10.589  34.988   0.479
12045W        W78454  36.487  43.191   2.224
12046W        W78455  15.812   6.719  11.656
12047W        W78456  38.470   1.004   0.871
12048W        W78457  18.099  38.296   3.282
12049W        W78458   6.934   6.223  12.073
12050W        W78459  18.004   1.758   3.751
12051W        W78460  32.712  32.327   4.630
12052W        W78461  16.648  16.594   1.283
12053W        W78462  32.869  27.759  13.074
12054W        W78463  25.669  26.524   2.352
12055W        W78464  22.545  10.575   4.292
12056W        W78465  29.011  10.421   3.166
12057W        W78466   1.501  25.111   0.790
12058W        W78467  40.048   3.109  10.549
12059W        W78468  38.569   0.967   1.774
12060W        W78469  32.640  32.244  11.516
12061W        W78470  26.153  35.321  13.397
12062W        W78471  44.657  29.420  10.258
12063W        W78472  41.000   5.842  11.180
12064W        W78473  40.066  33.829  11.168
12065W        W78474  21.756  34.651   3.198
12066W        W78475  16.790  21.333  12.910
12067W        W78476  13.749  26.166   4.444
12068W        W78477  28.505  41.851   4.040
12069W        W78478  28.891  16.630   2.599
12070W        W78479  24.535  35.553  14.269
12071W        W78480  25.520  44.187  14.892
12072W        W78481  36.085  28.490   3.055
12073W        W78482  44.417  15.214   2.558
12074W        W78483  26.819   8.287   2.216
12075W        W78484  14.015  30.028  11.118
12076W        W78485  29.131  17.763  11.870
12077W        W78486  13.508  21.215   2.275
12078W        W78487  38.924   6.702  13.991
12079W        W78488  31.492  29.127  11.607
12080W        W78489  27.011  11.370   1.290
12081W        W78490  38.006  38.166   4.236
12082W        W78491  21.990  23.365   5.097
12083W        W78492   9.739  11.319  14.543
12084W        W78493  37.857  22.462  10.699
12085W        W78494  22.592  13.568   1.806
12086W        W78495  12.924  17.709  11.668
12087W        W78496  26.545  36.813   1.357
12088W        W78497  22.526  29.736  14.409
12089W        W78498  36.901  11.898   4.256
12090W        W78499  10.752  27.874   1.461
12091W        W78500  21.135   6.871  12.896
12092W        W78501   3.826  25.738  12.322
12093W        W78502  40.786  21.714   3.117
12094W        W78503  17.355  13.037  13.538
12095W        W78504  42.841  42.941   4.162
12096W        W78505  35.154  12.652  10.144
12097W        W78506  22.796  20.620   1.504
12098W        W78507  23.775  42.621  14.456
12099W        W78508  25.071  21.531   5.073
12100W        W78509  39.029   9.145  11.131
12101W        W78510  17.283  35.901  11.519
12102W        W78511  18.854  12.665  14.463
12103W        W78512   5.076  18.836  13.449
12104W        W78513  18.016  16.534  10.633
12105W        W78514  43.763  23.494   4.553
12106W        W78515  20.318   7.213  14.495
12107W        W78516  27.177  16.124  12.938
12108W        W78517  18.251  18.997   1.392
12109W        W78518  28.461   6.403   3.349
12110W        W78519   9.333  14.151  11.924
12111W        W78520  27.477   9.433  10.230
12112W        W78521   7.170  19.277  11.372
12113W        W78522  33.006  18.066  13.326
12114W        W78523  12.657   0.305   1.460
12115W        W78524  17.837  38.816   3.096
12116W        W78525  25.681  38.467  12.513
12117W        W78526  44.849  26.864   2.667
12118W        W78527  23.937  18.171   1.881
12119W        W78528   6.404   1.522  11.181
12120W        W78529   4.272  11.236   2.269
12121W        W78530   4.968  25.276   1.334
12122W        W78531  27.695  44.887  14.782
12123W        W78532   7.724  41.565  10.310
12124W        W78533   5.736  44.742   0.343
12125W        W78534   0.731  17.671  14.888
12126W        W78535  27.179   9.645   4.013
12127W        W78536   0.286  26.491  14.564
12128W        W78537  10.825  38.553  11.737
12129W        W78538   6.991   2.955   0.371
12130W        W78539  35.448  23.244   3.229
12131W        W78540  24.218  12.001   4.692
12132W        W78541  23.641  38.491   0.722
12133W        W78542  20.280  41.614   2.798
12134W        W78543  27.442  39.537   0.544
12135W        W78544  27.638   0.359   0.420
12136W        W78545  24.402  13.812   3.756
12137W        W78546  34.818   7.406   0.771
12138W        W78547   4.811  13.956  13.397
12139W        W78548  34.489  31.349   2.872
12140W        W78549   3.925  30.495   4.532
12141W        W78550  17.121   6.852   3.628
12142W        W78551  14.696  11.571   3.659
12143W        W78552  44.240   3.220   0.956
12144W        W78553  13.088  41.470   2.786
12145W        W78554  15.852  27.639   3.703
12146W        W78555  23.257   2.194  13.480
12147W        W78556  16.206  39.447   3.589
12148W        W78557   3.411  37.095  11.380
12149W        W78558  28.343  19.680   3.323
12150W        W78559  25.675  41.825  10.660
12151W        W78560   3.119   8.472   2.425
12152W        W78561  13.272  35.385  11.036
12153W        W78562  30.606  42.431   0.297
12154W        W78563  16.817  40.114   4.226
12155W        W78564  44.069  13.010  11.693
12156W        W78565  42.317  29.132  13.359
12157W        W78566  16.252  37.663   1.860
12158W        W78567  31.875   9.418   2.330
12159W        W78568  13.233  32.146   0.819
12160W        W78569  37.671  34.110  13.889
12161W        W78570   6.357  34.462   1.794
12162W        W78571  17.209  22.335  14.150
12163W        W78572  22.627  22.489   0.730
12164W        W78573  12.864   9.889   0.872
12165W        W78574  33.782  10.644  12.539
12166W        W78575  27.897  19.687  12.916
12167W        W78576  23.608  11.889  13.319
12168W        W78577  40.482  29.946  11.573
12169W        W78578  13.935  23.028   3.273
12170W        W78579  41.996  35.786   3.649
12171W        W78580   8.792  24.182  12.666
12172W        W78581   6.614  35.703  14.345
12173W        W78582  40.430  42.530  13.416
12174W        W78583  32.831  34.542   1.357
12175W        W78584   0.028  30.447   3.762
12176W        W78585  12.693  42.303  14.747
12177W        W78586  33.963  16.089  10.742
12178W        W78587  14.989   4.448  12.516
12179W        W78588  44.416  18.946  12.681
12180W        W78589  29.844  17.413  14.809
12181W        W78590  17.286  43.251  13.180
12182W        W78591  27.451  41.456   4.867
12183W        W78592   9.316   6.727   3.329
12184W        W78593   3.905  42.786   1.642
12185W        W78594  10.483   5.711  12.536
12186W        W78595   8.390  31.502  10.511
12187W        W78596  29.298  12.750   2.619
12188W        W78597  14.989  13.148   1.004
12189W        W78598  33.172   1.245  10.317
12190W        W78599  22.705  13.027  10.372
12191W        W78600   8.976  13.509   4.157
12192W        W78601  37.945  33.007   4.661
12193W        W78602  19.678  41.607  12.162
12194W        W78603  32.630  24.006   0.866
12195W        W78604  26.459  17.154  13.454
12196W        W78605   9.882  38.124  13.113
12197W        W78606   8.395  39.870   4.232
12198W        W78607  12.204   8.086   1.274
12199W        W78608  30.743  11.483   4.591
12200W        W78609   1.481  10.262  10.589
12201W        W78610   5.388  15.149   1.920
12202W        W78611   9.630  39.956  12.596
12203W        W78612  42.753  42.697   0.852
12204W        W78613  41.029  22.000  11.023
12205W        W78614  29.633  19.594   0.233
12206W        W78615  29.676  40.179   2.593
12207W        W78616  33.222  26.504  13.477
12208W        W78617  44.015  19.907  12.582
12209W        W78618  14.748  41.010  13.076
12210W        W78619  16.694  31.243   0.336
12211W        W78620  26.255  23.470  12.010
12212W        W78621  33.089   9.299  13.819
12213W        W78622  34.131  18.048   0.862
12214W        W78623  44.208  24.023  11.510
12215W        W78624   6.295  27.386   4.139
12216W        W78625   6.565  34.863   3.142
12217W        W78626  43.501  26.684  13.681
12218W        W78627   3.677  37.174  10.944
12219W        W78628   6.168  33.393  14.019
12220W        W78629  27.226  39.566  14.200
12221W        W78630   4.176  19.245  13.136
12222W        W78631   4.718  34.642   0.026
12223W        W78632  30.873  37.393   0.678
12224W        W78633  11.466  30.889   3.267
12225W        W78634  28.257  37.740  13.538
12226W        W78635  38.086   7.130   2.694
12227W        W78636  36.484  17.396  13.582
12228W        W78637  13.702  31.103  12.248
12229W        W78638   3.429  35.848  11.180
12230W        W78639  10.560   4.680   2.317
12231W        W78640  39.968   9.117  12.053
12232W        W78641  34.903  10.231  12.627
12233W        W78642  30.925  27.876   0.925
12234W        W78643   7.438  21.258  11.582
12235W        W78644  26.037  26.729  11.656
12236W        W78645  29.030  41.825  13.311
12237W        W78646  23.735  35.408  11.737
12238W        W78647  44.522   3.224   2.352
12239W        W78648  25.563   2.617  11.744
12240W        W78649  24.716  22.603  13.055
12241W        W78650  32.673  37.063  10.735
12242W        W78651  23.588  23.448   0.003
12243W        W78652   9.658  16.143  14.484
12244W        W78653   2.765  21.209   1.375
12245W        W78654  39.295  36.609   4.020
12246W        W78655   6.397  28.731   5.137
12247W        W78656  20.732  18.734  12.362
12248W        W78657  43.097   0.742   1.727
12249W        W78658  41.579   5.818  13.450
12250W        W78659  32.431   7.948   0.207
12251W        W78660  36.066  29.507   0.899
12252W        W78661  13.291  34.917   0.685
12253W        W78662  38.616  18.114  13.341
12254W        W78663  39.999  22.166   2.257
12255W        W78664  25.150  13.700   3.440
12256W        W78665  35.486  40.347   3.917
12257W        W78666  39.290  27.041   3.349
12258W        W78667  40.657  34.726   5.145
12259W        W78668  11.420  39.058  12.379
12260W        W78669  37.772  22.933  11.644
12261W        W78670  32.008  39.461   4.267
12262W        W78671   0.491  18.275   0.332
12263W        W78672  16.319  27.151  12.080
12264W        W78673  43.951  17.957   1.195
12265W        W78674  39.062   9.187   0.344
12266W        W78675  24.844  15.883   0.747
12267W        W78676  44.374  30.594   2.972
12268W        W78677  13.950  31.436  12.567
12269W        W78678  35.347  25.729   3.311
12270W        W78679   6.130  43.807   0.550
12271W        W78680   4.792  13.182  12.975
12272W        W78681  23.513  12.692   0.815
12273W        W78682  36.688   0.372   1.852
12274W        W78683  18.144  18.654   3.836
12275W        W78684  36.315  22.906   4.865
12276W        W78685  42.399   6.172  11.467
12277W        W78686  19.826  31.757  13.689
12278W        W78687  36.904   6.212  13.853
12279W        W78688  42.800  40.769  12.569
12280W        W78689  11.571  13.664  10.005
12281W        W78690  39.450  33.992  10.571
12282W        W78691  16.553   3.789   1.818
12283W        W78692  35.489  12.309  14.974
12284W        W78693  28.641   0.394   0.358
12285W        W78694  20.708   3.571   0.418
12286W        W78695  30.960  15.119   0.028
12287W        W78696  30.448   6.871   0.172
12288W        W78697  24.813  12.907   0.479
12289W        W78698  13.724  22.659   0.825
12290W        W78699  19.329  43.858   1.935
12291W        W78700  21.469   5.429   1.049
12292W        W78701  28.771  44.913   0.106
12293W        W78702   9.304   2.125   0.799
12294W        W78703  35.617  26.745  14.234
12295W        W78704  18.329  34.035   2.401
12296W        W78705  31.526  30.975  13.289
12297W        W78706   2.583  28.365  14.748
12298W        W78707  26.792  37.382  13.411
12299W        W78708  40.599  40.362   3.701
12300W        W78709  19.677  14.655   1.182
12301W        W78710  11.217  35.119  14.025
12302W        W78711   3.258  18.559   0.217
12303W        W78712  18.542  23.759  13.923
12304W        W78713  33.949  40.353   3.841
12305W        W78714  44.750  33.636   0.721
12306W        W78715   7.778  33.128  11.004
12307W        W78716  42.951  40.328  12.831
12308W        W78717   3.864  35.851   1.229
12309W        W78718   1.710  35.613   2.338
12310W        W78719   0.921  22.285  14.717
12311W        W78720   5.889  17.589   1.198
12312W        W78721  22.161  20.263  13.387
12313W        W78722  23.336  33.219   4.142
12314W        W78723  15.775  27.725  14.206
12315W        W78724  10.508  28.784  12.401
12316W        W78725   4.873  28.921   3.362
12317W        W78726  33.830  12.413   2.765
12318W        W78727   1.706  33.363  12.005
12319W        W78728  41.166  16.524   4.552
12320W        W78729  28.463   0.323  14.886
12321W        W78730   8.987  17.194   0.310
12322W        W78731  35.319  37.027  13.050
12323W        W78732  10.520  29.586  11.536
12324W        W78733  28.896  33.554   3.762
12325W        W78734  38.309   4.173   2.889
12326W        W78735  35.476  27.006   4.401
12327W        W78736   3.551   2.360  12.946
12328W        W78737  31.154   8.538   4.143
12329W        W78738  13.218  33.873  13.656
12330W        W78739   6.885  33.482  10.921
12331W        W78740  15.047   9.369   1.703
12332W        W78741  41.392  15.850   1.676
12333W        W78742  44.543  42.726   0.208
12334W        W78743  22.666  29.035   4.979
12335W        W78744  24.244  20.488   4.627
12336W        W78745  25.297  23.847  12.071
12337W        W78746  19.718  37.797   1.686
12338W        W78747  31.455  34.190   2.713
12339W        W78748   6.209  28.834  13.497
12340W        W78749  25.208   1.153  13.400
12341W        W78750  43.018   1.324  11.613
12342W        W78751   8.396   6.607  11.113
12343W        W78752  39.053  40.987  13.696
12344W        W78753  41.617  20.689   3.745
12345W        W78754  21.479  20.533  11.991
12346W        W78755  21.518  34.407   4.166
12347W        W78756  34.410   2.954   2.589
12348W        W78757  13.310   4.240  11.348
12349W        W78758  31.940  14.838   1.803
12350W        W78759  28.228   7.060   2.225
12351W        W78760   8.316  42.213   1.865
12352W        W78761  43.228  33.119   3.116
12353W        W78762  38.777  28.340   1.331
12354W        W78763   3.538  31.763   2.865
12355W        W78764  40.843  42.905  13.852
12356W        W78765  11.836   5.886  13.134
12357W        W78766  12.130   3.730  12.515
12358W        W78767  31.196  14.584  13.775
12359W        W78768  36.333  32.476   4.739
12360W        W78769  31.953  10.801  13.618
12361W        W78770  40.331   1.762   3.598
12362W        W78771  20.355  22.442  13.423
12363W        W78772  26.176  38.314   3.582
12364W        W78773  33.405   9.324  10.688
12365W        W78774   7.216  28.968  13.549
12366W        W78775   7.064  33.595   1.726
12367W        W78776  10.745  38.760   4.901
12368W        W78777  15.639   0.988   1.792
12369W        W78778  30.098  16.069   3.964
12370W        W78779  39.863  26.600   4.532
12371W        W78780  33.970   0.954  13.268
12372W        W78781  43.803  43.910  11.880
12373W        W78782  37.611  18.261  13.440
12374W        W78783  28.254  34.915   2.122
12375W        W78784  12.078  23.055   4.468
12376W        W78785   8.278  42.958  10.419
12377W        W78786  21.700   3.409  14.902
12378W        W78787   1.876  22.332  11.013
12379W        W78788   7.695  19.400  11.561
12380W        W78789   2.392  21.629  12.562
12381W        W78790  40.929  20.722   3.393
12382W        W78791  38.123  14.171  11.076
12383W        W78792   3.374  27.641   0.510
12384W        W78793  19.092  11.683  14.753
12385W        W78794  40.270   2.503  14.862
12386W        W78795   0.824  33.503  14.087
12387W        W78796  15.244  14.095   2.144
12388W        W78797  31.946  17.332  13.272
12389W        W78798  28.038  29.919   1.407
12390W        W78799   9.364  17.549  14.784
12391W        W78800  34.653  28.544  11.638
12392W        W78801  23.136  44.903   1.965
12393W        W78802  22.508  42.135   4.347
12394W        W78803   8.233  17.835   2.624
12395W        W78804  40.869  34.959   4.263
12396W        W78805  29.480   4.353   3.687
12397W        W78806  30.657  17.051  10.889
12398W        W78807   1.479  11.394  13.714
12399W        W78808  39.848  18.198  12.782
12400W        W78809   7.214  14.723  12.973
12401W        W78810   8.267   3.650   4.651
12402W        W78811   6.350  43.070  14.370
12403W        W78812   7.627  32.190  11.345
12404W        W78813  28.648   9.913  13.961
12405W        W78814   5.422  28.951  11.912
12406W        W78815  37.383  28.059   2.062
12407W        W78816  19.416  25.950  14.940
12408W        W78817  37.613  25.456   1.820
12409W        W78818   5.885  26.397  11.586
12410W        W78819  17.968   6.393  14.520
12411W        W78820  44.265  44.289  14.431
12412W        W78821  20.393  19.831   4.835
12413W        W78822  35.988  27.233   4.964
12414W        W78823   8.007  23.022   2.680
12415W        W78824   2.753  12.169   3.193
12416W        W78825  12.422  34.850   0.102
12417W        W78826  12.179  17.533  14.472
12418W        W78827  15.587  31.117  11.175
12419W        W78828  22.024   8.768  13.954
12420W        W78829  34.323   6.740  10.908
12421W        W78830  34.103  43.317   0.576
12422W        W78831  10.261  25.818  12.150
12423W        W78832  33.831  30.757  14.664
12424W        W78833  30.120  20.307  10.774
12425W        W78834  24.273  42.900  12.193
12426W        W78835  35.120  17.218  11.662
12427W        W78836  35.511  34.497  13.691
12428W        W78837  34.971  25.517  12.078
12429W        W78838   0.305  42.746   1.477
12430W        W78839   3.922   2.941   1.746
12431W        W78840  30.402  44.015  13.794
12432W        W78841  44.229  12.625   2.472
12433W        W78842  39.432  16.470  12.605
12434W        W78843  25.132   6.476   1.925
12435W        W78844   7.368  41.814  13.399
12436W        W78845   6.404   8.001   3.226
12437W        W78846  11.600  25.164  11.189
12438W        W78847  23.371  36.446  13.142
12439W        W78848  22.721  29.910  11.498
12440W        W78849  11.331  22.456  11.112
12441W        W78850  13.174  37.680   2.751
12442W        W78851   9.300   4.932   3.638
12443W        W78852  12.764  20.123  12.808
12444W        W78853  12.200  17.664  11.198
12445W        W78854  33.676   5.942  11.981
12446W        W78855  31.380  21.614   0.235
12447W        W78856   0.900   3.171   3.421
12448W        W78857  36.332  27.487   4.629
12449W        W78858  12.303  20.728  11.518
12450W        W78859  26.167   5.605  14.444
12451W        W78860  22.554   3.388   0.303
12452W        W78861   6.673  37.793   4.564
12453W        W78862  20.946  41.539  13.390
12454W        W78863  16.005   9.913   2.299
12455W        W78864  30.105   4.642  14.349
12456W        W78865  19.022  44.180  11.523
12457W        W78866  31.320  22.156  10.882
12458W        W78867  41.411  23.961   2.656
12459W        W78868   1.105  15.893   0.507
12460W        W78869  33.897  40.103   3.108
12461W        W78870  39.692   5.076  11.980
12462W        W78871  21.067   6.538  14.489
12463W        W78872   6.446  44.527  12.432
12464W        W78873  11.363  24.319   3.715
12465W        W78874  39.820  19.705  12.462
12466W        W78875  39.911   7.447   3.606
12467W        W78876  43.863  33.945   1.219
12468W        W78877  37.690   9.341   5.153
12469W        W78878  31.415  33.941  13.826
12470W        W78879   0.407  31.407  10.717
12471W        W78880   4.251  22.524   9.890
12472W        W78881  19.258  21.358   3.369
12473W        W78882  33.582   6.860  14.812
12474W        W78883  30.633   1.637  12.490
12475W        W78884  10.228  19.245  14.090
12476W        W78885   0.923  20.800  13.027
12477W        W78886  23.986  20.298   3.072
12478W        W78887  31.857  23.754  13.842
12479W        W78888  29.749  41.875   3.722
12480W        W78889  18.719  12.893  14.912
12481W        W78890  17.648  26.177  12.044
12482W        W78891  15.651  43.430   4.537
12483W        W78892   2.519  12.862   4.764
12484W        W78893   1.271   4.345   2.829
12485W        W78894   8.649   4.357  13.849
12486W        W78895  32.164  39.306   1.639
12487W        W78896  40.195  22.439  14.130
12488W        W78897  36.536  10.680  11.560
12489W        W78898   6.768   0.308   0.052
12490W        W78899  36.604  21.039   4.666
12491W        W78900  24.096  41.369   4.080
12492W        W78901   9.791  28.785   3.534
12493W        W78902  16.557  38.523  13.821
12494W        W78903  39.431  44.599   2.705
12495W        W78904   6.251  35.299   4.316
12496W        W78905   9.837  35.817  13.022
12497W        W78906  35.055  34.806  12.383
12498W        W78907  18.552  19.209  14.685
12499W        W78908  44.988  33.987   4.743
12500W        W78909  41.931  40.438  11.582
12501W        W78910  14.702  16.952  13.560
12502W        W78911  12.260  35.626   4.747
12503W        W78912   6.205  22.175  10.852
12504W        W78913  21.470  25.737  13.840
12505W        W78914  21.955  27.705  12.494
12506W        W78915  19.803  13.806  13.620
12507W        W78916  41.916  24.064   2.513
12508W        W78917  10.939  20.220  14.872
12509W        W78918  19.472   7.280  14.025
12510W        W78919  44.485  38.972  12.574
12511W        W78920   4.897   7.853   0.746
12512W        W78921  32.138  35.391   3.163
12513W        W78922  10.825  44.344   0.329
12514W        W78923  37.563   1.951   4.053
12515W        W78924  26.875   6.840  14.868
12516W        W78925  18.524  42.293   4.644
12517W        W78926   4.817   3.039  12.016
12518W        W78927  34.020  28.934   3.630
12519W        W78928  25.957  44.545   1.887
12520W        W78929   8.606  22.183  14.287
12521W        W78930  31.576  36.543   4.132
12522W        W78931   7.617  37.179   3.702
12523W        W78932   4.260   2.014   1.804
12524W        W78933  20.396  35.652  11.674
12525W        W78934  23.216  39.372   0.256
12526W        W78935  19.705  21.623   4.637
12527W        W78936  26.507  16.105  12.163
12528W        W78937   7.249  11.660   0.364
12529W        W78938   1.007  21.747   3.172
12530W        W78939  32.861  44.519   1.449
12531W        W78940  42.396   7.526   1.903
12532W        W78941  21.036   2.267  12.768
12533W        W78942   0.889  16.660  14.917
12534W        W78943  35.678   1.444   2.542
12535W        W78944   8.268  30.973  14.355
12536W        W78945   2.398  19.050   1.246
12537W        W78946  21.693   7.221   3.131
12538W        W78947  31.088  16.064   4.417
12539W        W78948  41.541   1.523  13.061
12540W        W78949   5.577   2.002   0.648
12541W        W78950  44.114  19.603   2.961
12542W        W78951  39.065   7.878  12.755
12543W        W78952  16.279  36.103   0.303
12544W        W78953  17.296  43.327  10.982
12545W        W78954   0.921  25.777   0.783
12546W        W78955  41.745  18.244  11.684
12547W        W78956  10.794  37.601   0.908
12548W        W78957  43.408   5.278   3.706
12549W        W78958   1.955  42.169   1.131
12550W        W78959  40.447  36.382  14.969
12551W        W78960  39.912  19.618  14.854
12552W        W78961  38.879  39.931   4.623
12553W        W78962  41.928   6.696  13.063
12554W        W78963  34.638  10.239  14.854
12555W        W78964  27.087  10.215  11.723
12556W        W78965  11.596  41.724   1.924
12557W        W78966  32.094  42.952  12.619
12558W        W78967  34.060  44.321   4.177
12559W        W78968  32.578  27.249   3.227
12560W        W78969  43.845  10.746  13.920
12561W        W78970  26.635  32.108  10.391
12562W        W78971   9.156  38.376   2.344
12563W        W78972   3.878  33.003  11.198
12564W        W78973   5.237  33.599  11.455
12565W        W78974   6.671  17.187  13.839
12566W        W78975  11.958  42.013  13.350
12567W        W78976  13.085  23.133   4.067
12568W        W78977   6.483  17.453  11.610
12569W        W78978  21.973  33.524  12.395
12570W        W78979   4.473  15.650  12.124
12571W        W78980   1.937  15.882   0.152
12572W        W78981  43.560  42.458   2.840
12573W        W78982  31.199   2.247   0.819
12574W        W78983   4.938  30.406   3.507
12575W        W78984   9.261  29.757   4.104
12576W        W78985   1.659  43.339  14.517
12577W        W78986  34.610  35.229  14.374
12578W        W78987  27.917   4.869  12.620
12579W        W78988  34.849  41.306   2.237
12580W        W78989   8.838  18.913  12.302
12581W        W78990   6.607  33.963  14.212
12582W        W78991   6.866  34.795   2.173
12583W        W78992  29.600  43.481  12.428
12584W        W78993  35.316  18.710  13.433
12585W        W78994  40.846  31.221  10.762
12586W        W78995   7.428  40.443   1.665
12587W        W78996  30.924  22.150   0.874
12588W        W78997  36.533  41.948  14.816
12589W        W78998   3.081  17.638   0.076
12590W        W78999  23.978  40.860   0.378
12591W        W79000  30.577  11.057   0.750
12592W        W79001   0.277  12.745   2.323
12593W        W79002  22.711  35.158  12.881
12594W        W79003  41.360  43.512  12.170
12595W        W79004  19.733  21.274   0.631
12596W        W79005  24.502   5.841   1.854
12597W        W79006  28.516  11.141  12.250
12598W        W79007  21.655  18.782  13.760
12599W        W79008  34.706  38.860  12.214
12600W        W79009  33.009  30.384  10.782
12601W        W79010  21.023  42.772  12.019
12602W        W79011  32.010  38.958   2.946
12603W        W79012   0.769  18.480  11.230
12604W        W79013  18.232   9.097  14.451
12605W        W79014  43.229  22.266  11.577
12606W        W79015   9.500  29.412  12.359
12607W        W79016  11.140   3.775   2.421
12608W        W79017  25.172  14.857  11.444
12609W        W79018   7.609  40.275   2.723
12610W        W79019   5.255  16.677   2.121
12611W        W79020  16.673  16.603   3.163
12612W        W79021  22.988  43.581  10.618
12613W        W79022  41.550  37.434   4.304
12614W        W79023  11.838   4.372  14.598
12615W        W79024  20.511  29.115  11.707
12616W        W79025  43.184  27.028  12.055
12617W        W79026  33.765  16.328   0.740
12618W        W79027  37.941  38.415   4.697
12619W        W79028  31.392   9.891  11.599
12620W        W79029  34.936  15.092   1.501
12621W        W79030  22.591  20.313   3.710
12622W        W79031  20.313  31.679  12.562
12623W        W79032  20.226  14.148  12.131
12624W        W79033  37.128  28.447  14.943
12625W        W79034  14.070  38.845  14.350
12626W        W79035   8.312   9.617   4.373
12627W        W79036   8.312  37.812  12.865
12628W        W79037   3.183  24.223   0.583
12629W        W79038  11.393  36.431  10.557
12630W        W79039  32.415   5.338  10.909
12631W        W79040   9.881  21.060   1.227
12632W        W79041  34.591  33.576   0.488
12633W        W79042  26.681   7.735  12.975
12634W        W79043   8.472  14.666   1.237
12635W        W79044  27.213   4.470  12.922
12636W        W79045  26.205  22.056   1.673
12637W        W79046  27.003  33.531  10.622
12638W        W79047  18.993   8.938   3.923
12639W        W79048   6.746  34.588   4.087
12640W        W79049  28.418  12.317   3.122
12641W        W79050  39.805  37.946   4.622
12642W        W79051  27.903  32.523  12.926
12643W        W79052   1.752   1.479   2.380
12644W        W79053   4.120  24.119  12.045
12645W        W79054   5.971  19.694  13.804
12646W        W79055  37.648  10.419   1.701
12647W        W79056   4.706   5.529  14.867
12648W        W79057  17.043  42.022  10.467
12649W        W79058  23.448  38.862   3.642
12650W        W79059  26.797   8.633  12.912
12651W        W79060  22.059  25.569  10.802
12652W        W79061   0.255   5.947   1.004
12653W        W79062  41.103  39.051  10.435
12654W        W79063   0.380  12.390  12.015
12655W        W79064   1.039  20.095   1.910
12656W        W79065  33.448  13.901  13.406
12657W        W79066  20.294   4.641   1.873
12658W        W79067  26.659  10.414  12.142
12659W        W79068  19.633  22.006   1.393
12660W        W79069  10.373   8.109   4.139
12661W        W79070   3.745  20.986  12.125
12662W        W79071  26.443  44.554  12.306
12663W        W79072  18.782  34.028  13.213
12664W        W79073  12.881  17.172  11.934
12665W        W79074   6.728  20.808  10.720
12666W        W79075  32.447  22.012   0.912
12667W        W79076  33.302   8.774   0.840
12668W        W79077   2.558  13.793  13.274
12669W        W79078  44.924   5.049  13.576
12670W        W79079  21.792   6.434  11.093
12671W        W79080  16.640   3.114  11.943
12672W        W79081  10.676  36.595  12.505
12673W        W79082  30.756  28.928  11.014
12674W        W79083   9.434  17.954  10.662
12675W        W79084   8.862  40.912   3.649
12676W        W79085  26.968  12.866  14.380
12677W        W79086  40.750   0.383  13.740
12678W        W79087  10.392  19.779   4.633
12679W        W79088  32.154   1.923   0.167
12680W        W79089  44.662  37.479  14.464
12681W        W79090  25.220   2.948  13.976
12682W        W79091  27.565  19.835  11.943
12683W        W79092  26.378  15.239   3.697
12684W        W79093  19.103  11.178   3.182
12685W        W79094  41.816   1.873   1.353
12686W        W79095  35.877  43.426   3.832
12687W        W79096  37.427   7.614   4.792
12688W        W79097   4.964  21.104  13.328
12689W        W79098  17.817  20.914  10.236
12690W        W79099  29.501  15.301   3.598
12691W        W79100  22.759  37.250   2.357
12692W        W79101  21.541  42.515   1.373
12693W        W79102  27.393  32.591  13.020
12694W        W79103  26.229   3.938   0.157
12695W        W79104  13.174  10.369   3.229
12696W        W79105   9.441  14.135   3.133
12697W        W79106   1.309  28.115   0.817
12698W        W79107  19.289  43.490   3.321
12699W        W79108   7.722  15.729  12.047
12700W        W79109  21.181   5.730  12.058
12701W        W79110  31.449  41.835  13.037
12702W        W79111   1.329   1.513   0.426
12703W        W79112  16.538  14.392  12.413
12704W        W79113   2.445  39.419  12.852
12705W        W79114  21.603  11.160  13.376
12706W        W79115  43.250   5.486   1.823
12707W        W79116  26.375  18.006   2.543
12708W        W79117  40.231   6.240   3.727
12709W        W79118  15.830  29.124   0.543
12710W        W79119   1.776  18.026  13.589
12711W        W79120  40.935  35.467  14.493
12712W        W79121  12.807  11.189  10.374
12713W        W79122  24.619   8.332   9.994
12714W        W79123  22.283  30.173   2.785
12715W        W79124  25.281  23.690   5.638
12716W        W79125  40.556   9.087  13.591
12717W        W79126  42.253  18.154  11.618
12718W        W79127  16.088  23.746   0.754
12719W        W79128  36.272  27.192  14.292
12720W        W79129  26.508  37.586   3.178
12721W        W79130  34.491  31.097  12.498
12722W        W79131  40.968  33.090   2.744
12723W        W79132  20.843  24.813   2.790
12724W        W79133  39.350  28.202  14.934
12725W        W79134   0.321  40.740  10.642
12726W        W79135   8.176  44.306   4.243
12727W        W79136   1.161   2.865  12.905
12728W        W79137  35.613  37.107   2.817
12729W        W79138  20.637  36.133   4.580
12730W        W79139  19.994   9.946   3.199
12731W        W79140  19.064   1.292   4.277
12732W        W79141  14.172  41.797  13.832
12733W        W79142  16.170  16.355   1.225
12734W        W79143  11.658   0.925   3.564
12735W        W79144  14.572  14.653   4.065
12736W        W79145  36.135  13.546   0.759
12737W        W79146  42.430  18.394   0.898
12738W        W79147  10.363  11.760  14.971
12739W        W79148  28.898   4.383  11.248
12740W        W79149   7.357  17.050   3.130
12741W        W79150  22.505   2.111   5.073
12742W        W79151  40.012  36.075  14.933
12743W        W79152  32.799  11.538   2.743
12744W        W79153  40.536  15.136  10.561
12745W        W79154  34.031  38.074   4.015
12746W        W79155  16.088  28.767  14.815
12747W        W79156   8.080  32.524  13.893
12748W        W79157  38.336  26.812   3.391
12749W        W79158  35.655  33.522   3.790
12750W        W79159  33.484  39.759   3.179
12751W        W79160  33.368  31.044  12.049
12752W        W79161  21.645  28.447  12.398
12753W        W79162  40.826  12.160   3.662
12754W        W79163  34.847  13.002   4.411
12755W        W79164  39.115  20.941   2.287
12756W        W79165  14.424  24.840   2.399
12757W        W79166   8.240  10.355  12.860
12758W        W79167  34.476  28.639   4.492
12759W        W79168  23.862  33.091   4.174
12760W        W79169  24.685  36.388  14.680
12761W        W79170  38.334  25.601  13.416
12762W        W79171  13.327  20.790   4.696
12763W        W79172  22.646   3.883   4.655
12764W        W79173  44.831  11.635   1.749
12765W        W79174  27.402  15.665   4.528
12766W        W79175   0.770  20.466   4.088
12767W        W79176   9.855  30.526  14.971
12768W        W79177  16.019  44.693   3.701
12769W        W79178  31.431  22.046  13.021
12770W        W79179  38.866  37.719   2.981
12771W        W79180   0.967  26.988  13.364
12772W        W79181  38.490  30.597  13.010
12773W        W79182  28.943  25.469  13.875
12774W        W79183   2.748  15.613  11.632
12775W        W79184  17.674  10.746   3.122
12776W        W79185  22.082  16.169  10.681
12777W        W79186  18.726  15.285  12.111
12778W        W79187  30.126  13.703   3.188
12779W        W79188   9.747  31.357  11.568
12780W        W79189  40.512  32.627  10.893
12781W        W79190  34.695  13.245   1.578
12782W        W79191   3.820  35.283   3.742
12783W        W79192  25.774  18.692   0.789
12784W        W79193   2.254  25.935   3.741
12785W        W79194  26.646  23.538   0.395
12786W        W79195  44.230   4.743   2.341
12787W        W79196  26.625   6.927  14.421
12788W        W79197  27.240   8.457   0.885
12789W        W79198  30.014  32.416   4.049
12790W        W79199  22.077  10.264   1.453
12791W        W79200  18.786  17.025   4.344
12792W        W79201   1.703  22.749   2.077
12793W        W79202  18.828  23.747  11.621
12794W        W79203   8.077  42.556  13.281
12795W        W79204  31.403  42.752   4.584
12796W        W79205  30.792  32.836  14.895
12797W        W79206   8.673  31.708   0.791
12798W        W79207  14.765  42.290   0.767
12799W        W79208  15.626  40.302  12.490
12800W        W79209  30.903   3.740   1.324
12801W        W79210  32.639  30.000  13.008
12802W        W79211  29.226  39.430  14.494
12803W        W79212  44.159  12.185   4.647
12804W        W79213  30.872   9.321  11.855
12805W        W79214  12.227  26.147  13.955
12806W        W79215  37.170   5.361   4.641
12807W        W79216   2.447  27.353   1.525
12808W        W79217  36.302   7.391   9.972
12809W        W79218  43.936  24.467  11.584
12810W        W79219   1.566  38.964   4.166
12811W        W79220  34.105  35.719   1.309
12812W        W79221  27.969   2.158   3.616
12813W        W79222   4.241   3.939   3.222
12814W        W79223  31.533  39.441  11.460
12815W        W79224  13.688  24.429  10.523
12816W        W79225   9.204  23.510   4.669
12817W        W79226  40.996  19.506  12.633
12818W        W79227  33.411   4.343   4.992
12819W        W79228  18.969  33.881  13.681
12820W        W79229  33.122  38.515  10.478
12821W        W79230  12.120  35.352  12.843
12822W        W79231  19.318  44.946   2.352
12823W        W79232  16.292  40.781  12.004
12824W        W79233  18.269   1.843  12.258
12825W        W79234  35.853  36.107   2.756
12826W        W79235  10.882   7.848   1.360
12827W        W79236  34.917  26.522  12.036
12828W        W79237  41.488  12.919  12.996
12829W        W79238  43.542  38.417   2.559
12830W        W79239  40.807  31.763   0.193
12831W        W79240  35.930   9.465  12.969
12832W        W79241  29.109  14.497   0.751
12833W        W79242  41.939   3.598   1.688
12834W        W79243  18.313  42.590   2.887
12835W        W79244  24.111  14.622   4.720
12836W        W79245  19.465   0.235   1.027
12837W        W79246  34.597  41.167  11.972
12838W        W79247  28.854  30.086  13.338
12839W        W79248  32.818  24.163  13.573
12840W        W79249  22.385  13.840   3.493
12841W        W79250  44.947  17.218   4.630
12842W        W79251  21.622   7.778  14.073
12843W        W79252  13.403  23.088   1.992
12844W        W79253  21.521   0.910  11.645
12845W        W79254  31.072  40.189   1.633
12846W        W79255  24.767  31.466  13.008
12847W        W79256  26.341  12.149   2.399
12848W        W79257   2.364  19.604  14.401
12849W        W79258  41.043  43.603   1.823
12850W        W79259  42.365  22.252   4.672
12851W        W79260  22.282  23.995   2.815
12852W        W79261  18.705   6.303   2.604
12853W        W79262  19.257  18.030  12.982
12854W        W79263  16.897  43.316   9.977
12855W        W79264  38.022  26.683  14.556
12856W        W79265  14.309  12.458  11.636
12857W        W79266  27.445  41.393  11.785
12858W        W79267   8.887  16.717   1.730
12859W        W79268  21.975  40.775  13.866
12860W        W79269  33.141  15.961  12.743
12861W        W79270   4.491  39.334   2.457
12862W        W79271  21.909  24.850   4.167
12863W        W79272  31.177  39.971  11.226
12864W        W79273  15.849  23.305  13.243
12865W        W79274  13.312  14.205   3.396
12866W        W79275  10.346  43.725   1.042
12867W        W79276  20.455  11.723   1.358
12868W        W79277  30.641  43.445   4.053
12869W        W79278  22.513  38.177  14.485
12870W        W79279  34.578  30.136   2.008
12871W        W79280  16.138  34.198   0.309
12872W        W79281  11.041  35.127  12.006
12873W        W79282  34.038   9.925   3.887
12874W        W79283  44.321  34.111  12.591
12875W        W79284  43.323  34.479  12.543
12876W        W79285   5.326  37.066   0.722
12877W        W79286  43.893  38.077  10.460
12878W        W79287  18.167  29.641  10.700
12879W        W79288  16.816  37.839  12.968
12880W        W79289  13.844  27.216   0.773
12881W        W79290  32.549   5.421   5.299
12882W        W79291  20.041  20.224   2.917
12883W        W79292  20.433   8.426  11.950
12884W        W79293  25.536   0.710   1.796
12885W        W79294  42.004   2.562   0.284
12886W        W79295  42.116  43.160   3.644
12887W        W79296  27.448   2.607   3.867
12888W        W79297  12.261  13.310   2.438
12889W        W79298  37.853  12.275  13.430
12890W        W79299   7.249  23.926  13.105
12891W        W79300  12.702   9.587  12.520
12892W        W79301  10.140  20.567  13.891
12893W        W79302   2.457  20.367  11.168
12894W        W79303  29.951   2.917   1.324
12895W        W79304  17.282  25.509  11.036
12896W        W79305   0.788  28.096   0.668
12897W        W79306  10.208  15.653   1.000
12898W        W79307  22.574  42.386  10.328
12899W        W79308  20.166   6.350  14.274
12900W        W79309  30.502  22.783  11.678
12901W        W79310  23.942  15.858   1.294
12902W        W79311   4.357  36.365   4.124
12903W        W79312  24.578  12.697  12.054
12904W        W79313  27.664  26.206   3.531
12905W        W79314  13.249  21.138   2.752
12906W        W79315  21.157  41.441  10.816
12907W        W79316  20.474   5.312  11.614
12908W        W79317  13.569  21.046  14.916
12909W        W79318  28.956  37.079   3.624
12910W        W79319  26.384  42.182  13.912
12911W        W79320  37.809  22.237   1.012
12912W        W79321  13.060  23.228   1.048
12913W        W79322  40.277  36.733  11.981
12914W        W79323  23.672   3.437   3.081
12915W        W79324  36.339  29.642  11.123
12916W        W79325  36.521  28.720   2.390
12917W        W79326  41.885  26.892  11.639
12918W        W79327  16.856  36.558   1.439
12919W        W79328  35.003  32.010  11.554
12920W        W79329   7.526  40.829   5.075
12921W        W79330  29.604  27.178  12.994
12922W        W79331  21.570  35.269   0.700
12923W        W79332   8.456  25.521  11.043
12924W        W79333  35.561  35.066  11.515
12925W        W79334  44.841  20.095  11.179
12926W        W79335  10.638  34.378  13.858
12927W        W79336  37.007  28.189   0.761
12928W        W79337   2.144  17.696   2.243
12929W        W79338  22.218  26.952  10.613
12930W        W79339  28.519  15.903  12.017
12931W        W79340  12.864  21.609   0.331
12932W        W79341  23.640   2.951  10.638
12933W        W79342  26.954  26.470   3.901
12934W        W79343  15.349  15.706   0.743
12935W        W79344   3.662  43.591  12.668
12936W        W79345  20.459  18.398  10.028
12937W        W79346   9.953   3.913   1.609
12938W        W79347  10.447  32.310  11.164
12939W        W79348  31.810  15.804   0.947
12940W        W79349  20.465  14.780  13.869
12941W        W79350  13.748   9.835   4.078
12942W        W79351  37.310  27.580   1.895
12943W        W79352   2.690   0.947  13.913
12944W        W79353  43.113  10.043  13.925
12945W        W79354  37.604  12.241   0.757
12946W        W79355  13.704  20.093   1.347
12947W        W79356  19.846  30.957   3.281
12948W        W79357   6.080  42.625  14.388
12949W        W79358  38.101   8.304  10.734
12950W        W79359  19.930   5.728  12.224
12951W        W79360  30.446  14.311  13.975
12952W        W79361  10.865  40.325  10.393
12953W        W79362   3.382  25.299   4.573
12954W        W79363  32.111  18.631   2.434
12955W        W79364  25.045   1.348   0.361
12956W        W79365  11.578  14.263   4.505
12957W        W79366  21.539   0.906   2.227
12958W        W79367  22.396  10.062   4.317
12959W        W79368  41.068   1.468  12.007
12960W        W79369  33.501  25.295  13.997
12961W        W79370  27.985   0.329   3.736
12962W        W79371   1.679   2.333  13.354
12963W        W79372  38.934   0.275  11.181
12964W        W79373  31.443  44.997   0.545
12965W        W79374   0.447  42.667  11.558
12966W        W79375   9.553  41.182  11.698
12967W        W79376  31.639   8.720   2.489
12968W        W79377  18.269   3.467  13.412
12969W        W79378  11.911  16.367   0.492
12970W        W79379  15.863   0.267  12.329
12971W        W79380   0.984   0.766   0.392
12972W        W79381  39.420  18.017  13.774
12973W        W79382  44.526  27.963  11.986
12974W        W79383   8.306   9.667  12.344
12975W        W79384  26.162  21.183   1.929
12976W        W79385  44.514   4.746  13.493
12977W        W79386  27.125  30.108   1.936
12978W        W79387   5.889  13.719   1.854
12979W        W79388  36.502   6.525   5.349
12980W        W79389  28.462   4.742  11.839
12981W        W79390  32.170   8.424   2.304
12982W        W79391  16.256  25.009  12.580
12983W        W79392   0.302  20.368  11.231
12984W        W79393  30.936  31.680   2.157
12985W        W79394  42.372  18.856  10.744
12986W        W79395  29.356  41.276   1.988
12987W        W79396  24.317  27.960   0.882
12988W        W79397  30.861   9.397  14.334
12989W        W79398  14.450  23.270   0.306
12990W        W79399   4.849  23.701  10.107
12991W        W79400  25.742  29.544   3.890
12992W        W79401  19.521  27.594   4.089
12993W        W79402  32.230  17.539   3.350
12994W        W79403  36.126  20.235  10.643
12995W        W79404  36.010  12.508  11.179
12996W        W79405  36.662   1.278   4.575
12997W        W79406  19.633  42.876  12.135
12998W        W79407  14.330  10.597   0.299
12999W        W79408  40.610   9.381   1.255
13000W        W79409  30.679  16.670  13.662
13001W        W79410  12.773  22.377  11.081
13002W        W79411  24.116  12.663  14.825
13003W        W79412  23.064  23.419   2.162
13004W        W79413   3.899  13.667  12.960
13005W        W79414  29.685   2.974  12.001
13006W        W79415  14.512  15.464   2.679
13007W        W79416  41.608  17.235  13.293
13008W        W79417  38.823  26.846   3.288
13009W        W79418  38.386  25.904  11.649
13010W        W79419  38.157  33.444  14.235
13011W        W79420  17.621  12.613   5.058
13012W        W79421  43.554  29.552  13.212
13013W        W79422  19.705   2.469  13.292
13014W        W79423  30.812  17.654  13.828
13015W        W79424  30.636  33.675  11.974
13016W        W79425   0.462  35.333  13.730
13017W        W79426  28.095   9.294   0.972
13018W        W79427  24.624   0.676   3.596
13019W        W79428  30.980  32.658   1.335
13020W        W79429  23.873   9.265   4.846
13021W        W79430  32.898  19.924  13.899
13022W        W79431  43.591  14.647   0.342
13023W        W79432  37.471  37.385  10.694
13024W        W79433  12.819  10.081  11.625
13025W        W79434  43.855  43.923   0.321
13026W        W79435  41.424  19.118  13.109
13027W        W79436   7.411  25.547   1.489
13028W        W79437  42.071  39.677   1.326
13029W        W79438   1.214  24.804  13.131
13030W        W79439  15.819   4.081   0.557
13031W        W79440   6.690  19.197  11.010
13032W        W79441  17.745  21.775  13.027
13033W        W79442   9.196  16.716  12.130
13034W        W79443  33.639  12.627   2.320
13035W        W79444   2.309  31.490   2.519
13036W        W79445   1.579  13.249  14.086
13037W        W79446   1.663  39.959   4.108
13038W        W79447  10.518  19.196   1.312
13039W        W79448  41.705  16.788  11.547
13040W        W79449  14.234  15.846   3.041
13041W        W79450  40.289  28.448   3.188
13042W        W79451  29.851   8.723  13.921
13043W        W79452  41.779  32.129   3.725
13044W        W79453  39.200  17.262   3.774
13045W        W79454  30.429  44.399   2.386
13046W        W79455  38.014  15.281  14.532
13047W        W79456  38.561  37.726  14.406
13048W        W79457  34.781  44.464   1.718
13049W        W79458   2.681  14.694   2.399
13050W        W79459  30.496  12.646   1.861
13051W        W79460  13.137  13.440   5.061
13052W        W79461  36.914   9.884  11.934
13053W        W79462  36.487  41.881   2.225
13054W        W79463  27.148   9.115   0.756
13055W        W79464  17.019   1.403  12.539
13056W        W79465  32.145  41.552   2.749
13057W        W79466   4.116  32.507  14.786
13058W        W79467   5.828  39.678   2.761
13059W        W79468  40.490  24.708   1.751
13060W        W79469  32.636  29.049  13.083
13061W        W79470  11.064  18.194   1.856
13062W        W79471  15.346  38.769  14.910
13063W        W79472   3.504  31.961   1.263
13064W        W79473  23.526  10.813   1.817
13065W        W79474  19.088  44.081   1.349
13066W        W79475  21.712  30.994  11.170
13067W        W79476  30.572  29.149  10.585
13068W        W79477   6.186  14.638   2.366
13069W        W79478  27.550   8.704   0.550
13070W        W79479  43.773  29.165  11.783
13071W        W79480  22.154  17.710  12.074
13072W        W79481  31.117  29.341   1.212
13073W        W79482   6.227  42.010  11.398
13074W        W79483  43.357  20.472  12.300
13075W        W79484   7.163  38.145   3.213
13076W        W79485  38.435  40.215   0.302
13077W        W79486  44.359  18.781   4.270
13078W        W79487  12.620  15.760  10.788
13079W        W79488  10.808  28.469  14.077
13080W        W79489  11.632  22.425   1.269
13081W        W79490   5.589  34.183  14.787
13082W        W79491  13.333  44.021  13.445
13083W        W79492  33.845   0.533  14.922
13084W        W79493   4.046  28.769   3.068
13085W        W79494  40.461   2.877  11.704
13086W        W79495  20.209  29.504  11.476
13087W        W79496  23.230  28.709   3.282
13088W        W79497  37.283  12.688   3.872
13089W        W79498  10.466  22.319  10.405
13090W        W79499  12.122  19.669  11.537
13091W        W79500   0.990  40.778  14.691
13092W        W79501  16.450  39.990   1.783
13093W        W79502   0.740  40.376  14.975
13094W        W79503   6.385  30.773   4.431
13095W        W79504  20.535   6.724  14.222
13096W        W79505  35.362  42.049   4.622
13097W        W79506  21.565  36.440  12.409
13098W        W79507  44.575  44.308  11.950
13099W        W79508  19.003   2.395   2.094
13100W        W79509  14.763   4.411   1.418
13101W        W79510  37.698  38.137  12.541
13102W        W79511  34.144  11.720  13.993
13103W        W79512  40.862  38.296   2.654
13104W        W79513  23.038   8.899   1.757
13105W        W79514  16.078   2.441  12.680
13106W        W79515  10.667   1.809  12.056
13107W        W79516  21.784  36.925   2.875
13108W        W79517  39.386  18.633  14.075
13109W        W79518  30.066  34.442   4.766
13110W        W79519  32.843   6.916   3.926
13111W        W79520  37.874  27.930   2.925
13112W        W79521  41.167  30.436   0.982
13113W        W79522  19.055  41.994  11.043
13114W        W79523  38.519  27.614  13.827
13115W        W79524  17.224  17.559  12.937
13116W        W79525  32.696  42.796   4.113
13117W        W79526  23.995  17.619  11.566
13118W        W79527  11.730  31.965   2.617
13119W        W79528   6.730  17.391  11.113
13120W        W79529  32.108  23.977   0.761
13121W        W79530  41.154  17.528   0.290
13122W        W79531  37.893  22.450  13.323
13123W        W79532   5.425  28.972  13.842
13124W        W79533   0.888  42.277  14.425
13125W        W79534  40.131   8.375   4.799
13126W        W79535  40.612  11.429   2.470
13127W        W79536  21.323  22.583  13.238
13128W        W79537  26.924   2.754  13.420
13129W        W79538  26.977  12.839  13.382
13130W        W79539  17.559  38.927   0.391
13131W        W79540  18.764  11.543   1.806
13132W        W79541  21.020  17.100  13.726
13133W        W79542  44.951  42.721  14.639
13134W        W79543   4.437  22.298  13.029
13135W        W79544  28.311  40.957   2.758
13136W        W79545   8.827  40.353  12.359
13137W        W79546   9.292  38.021   1.966
13138W        W79547  11.826  18.055   2.571
13139W        W79548  36.509  31.686   1.716
13140W        W79549   2.860  28.033   1.613
13141W        W79550  33.456  19.644   2.268
13142W        W79551  18.501   9.876  14.822
13143W        W79552   6.415  29.093  14.109
13144W        W79553  12.966  34.178   2.967
13145W        W79554  19.936  28.653  14.786
13146W        W79555  34.276   6.669  13.135
13147W        W79556   9.055  15.393   4.217
13148W        W79557  22.297   9.759   0.586
13149W        W79558  33.929   9.940   4.390
13150W        W79559  37.960  13.371  12.038
13151W        W79560  31.058  11.130  14.471
13152W        W79561  34.065  33.575   1.559
13153W        W79562  38.191  41.259  13.520
13154W        W79563  20.427  38.315   1.058
13155W        W79564  39.768   7.329   4.089
13156W        W79565  44.788   5.241  12.532
13157W        W79566  21.009  38.499   2.679
13158W        W79567  19.138  18.754   2.768
13159W        W79568  21.041  27.068  12.612
13160W        W79569   9.762  24.015  14.584
13161W        W79570  37.811  24.142  12.955
13162W        W79571  19.003  29.155  10.966
13163W        W79572  29.625  43.805   4.649
13164W        W79573  41.781  12.610  13.570
13165W        W79574  10.259   3.214   3.116
13166W        W79575  39.535  13.953   0.075
13167W        W79576  15.028  22.531   0.483
13168W        W79577  25.772  30.490   3.751
13169W        W79578  43.502  16.369   1.743
13170W        W79579  32.511  23.224  14.534
13171W        W79580  24.998  11.928  14.987
13172W        W79581  24.732  23.861   0.288
13173W        W79582  29.680  26.503   4.515
13174W        W79583  20.889  31.611  13.819
13175W        W79584   3.426   1.423  11.631
13176W        W79585  17.663  29.688   1.858
13177W        W79586  36.243   9.346  10.993
13178W        W79587  10.946  30.944  14.455
13179W        W79588  24.768  42.466   3.809
13180W        W79589  14.243  13.333  14.959
13181W        W79590  32.069   8.150  13.900
13182W        W79591  43.646   8.622   3.939
13183W        W79592  24.819  12.390   0.724
13184W        W79593  38.275  37.852  13.995
13185W        W79594  37.858   0.258  11.421
13186W        W79595  15.124  23.992   0.204
13187W        W79596   2.324  38.974   3.091
13188W        W79597  44.920   8.949  14.659
13189W        W79598   2.617  22.763   1.693
13190W        W79599  36.785  31.169  14.483
13191W        W79600  24.658  16.061   3.631
13192W        W79601  30.433   2.707  11.660
13193W        W79602  12.898   4.210  12.139
13194W        W79603  23.075  34.949  12.511
13195W        W79604  40.125   1.640  14.491
13196W        W79605  40.131  27.900  14.489
13197W        W79606   8.883  25.584  10.731
13198W        W79607   8.904   1.415   3.844
13199W        W79608  43.229  13.732   0.986
13200W        W79609   4.862  15.208  13.016
13201W        W79610  20.610  13.353   4.675
13202W        W79611  41.918  30.411   2.836
13203W        W79612  26.475   6.704  13.977
13204W        W79613  14.937  31.342   0.955
13205W        W79614  30.386  34.144  11.964
13206W        W79615  23.192  11.861   2.621
13207W        W79616  25.755  26.575   1.419
13208W        W79617  33.781  32.898  13.644
13209W        W79618  38.982   4.836   3.374
13210W        W79619  39.917   1.495   2.770
13211W        W79620  13.236   0.062   2.737
13212W        W79621  19.787  44.911   3.740
13213W        W79622  36.003  28.347   1.623
13214W        W79623   1.676   2.981  12.538
13215W        W79624  43.246  14.607   1.786
13216W        W79625  25.588   3.166  14.414
13217W        W79626  34.629  20.468  12.444
13218W        W79627   7.810  19.206   3.421
13219W        W79628  24.478  30.720   1.277
13220W        W79629  41.822  38.057   4.324
13221W        W79630  39.995  27.229  11.577
13222W        W79631  23.899  27.784  13.648
13223W        W79632  44.581  30.662   2.499
13224W        W79633   9.478  42.340  12.987
13225W        W79634  29.597  27.763   4.903
13226W        W79635  39.903   5.358  12.428
13227W        W79636  19.747  39.305  14.958
13228W        W79637  23.507  19.246   2.676
13229W        W79638  39.660  41.032  10.791
13230W        W79639  23.733   5.803   1.450
13231W        W79640  28.721  41.726  11.165
13232W        W79641  16.307   3.997  12.891
13233W        W79642   2.789  14.684  10.650
13234W        W79643  12.867  24.712  12.349
13235W        W79644  24.299  23.963  11.665
13236W        W79645  12.731   9.358  14.323
13237W        W79646  27.521  11.770   4.986
13238W        W79647   5.808  44.885   2.192
13239W        W79648   3.897  22.515   2.906
13240W        W79649  22.190  30.604  14.226
13241W        W79650  37.397  21.933   0.974
13242W        W79651  35.501   5.502   1.267
13243W        W79652  14.772  33.598  13.878
13244W        W79653  21.412  18.270  10.756
13245W        W79654  14.629  34.590   3.209
13246W        W79655   2.908   4.897  14.921
13247W        W79656   7.518  38.480   3.341
13248W        W79657  43.013  32.957  13.438
13249W        W79658   2.945  20.077  13.838
13250W        W79659   7.821  22.559  11.590
13251W        W79660   9.356  38.060   3.708
13252W        W79661  17.012  35.539   3.685
13253W        W79662   0.845   8.869  11.619
13254W        W79663  18.727  31.674  11.135
13255W        W79664  17.759  31.645  13.524
13256W        W79665  32.459  26.948   3.629
13257W        W79666   0.688  33.477  12.140
13258W        W79667   9.792  29.209   1.564
13259W        W79668  30.123  15.856   4.758
13260W        W79669  42.882  37.458  11.161
13261W        W79670  20.026  26.995   4.685
13262W        W79671  20.620  44.012   1.285
13263W        W79672  12.288  25.238   4.060
13264W        W79673   3.880  25.119   4.277
13265W        W79674  13.839  31.737  11.684
13266W        W79675  22.950  28.414  12.703
13267W        W79676   9.087  17.445   9.960
13268W        W79677  33.928   3.183   3.591
13269W        W79678  14.284  41.319   0.258
13270W        W79679  13.730  10.411  10.635
13271W        W79680   8.887  33.349  11.977
13272W        W79681  43.434  19.729  14.355
13273W        W79682  20.710  39.060   2.196
13274W        W79683  35.851  19.042  11.034
13275W        W79684   2.361  44.092   4.600
13276W        W79685  18.740  15.058   2.303
13277W        W79686   2.989   6.375   1.754
13278W        W79687  18.553  16.805   1.364
13279W        W79688  40.976  41.887   1.979
13280W        W79689  11.220   6.761  11.682
13281W        W79690  30.615  23.032   2.229
13282W        W79691  18.276  22.159   2.843
13283W        W79692  19.553   2.997  12.559
13284W        W79693  10.204  28.733   0.835
13285W        W79694  30.926  16.657   3.703
13286W        W79695   7.644   0.024  11.088
13287W        W79696  21.581  21.213   2.858
13288W        W79697   3.886  37.748  13.213
13289W        W79698  34.533  41.473   0.427
13290W        W79699  43.967  26.976   1.364
13291W        W79700  42.786  38.863  14.996
13292W        W79701   0.669  26.928   1.591
13293W        W79702  32.364  28.042  10.470
13294W        W79703   9.564  39.446   2.187
13295W        W79704  20.118  30.534  14.349
13296W        W79705  32.869  36.674   1.918
13297W        W79706   4.227  34.463  10.729
13298W        W79707  35.401  27.851   4.595
13299W        W79708  30.164  27.355   0.856
13300W        W79709  33.691  20.196   1.154
13301W        W79710  22.189  21.787  12.899
13302W        W79711  15.640  26.442  13.897
13303W        W79712  44.311  41.505  13.468
13304W        W79713  32.142  18.030  12.522
13305W        W79714  36.695  30.004   4.200
13306W        W79715  25.704  32.904  14.602
13307W        W79716  13.011  42.455  11.911
13308W        W79717  25.572  39.747  12.708
13309W        W79718   9.387  25.708  14.890
13310W        W79719   4.398  41.068   4.654
13311W        W79720   2.490  12.603  11.646
13312W        W79721  44.516  21.630  11.678
13313W        W79722   2.204   1.402   3.827
13314W        W79723  13.715   2.453   1.610
13315W        W79724  37.492   4.326  10.686
13316W        W79725  14.989  42.939  11.237
13317W        W79726   8.836  36.650  10.682
13318W        W79727  19.337  20.503  10.842
13319W        W79728  31.453   4.924  12.481
13320W        W79729  18.800  28.557   1.491
13321W        W79730  19.147  38.565   1.297
13322W        W79731   1.414  11.904   1.890
13323W        W79732  33.198  32.090   1.529
13324W        W79733  18.741  19.874  10.269
13325W        W79734   8.664  27.036   4.128
13326W        W79735  28.989   0.030  11.190
13327W        W79736  17.042  33.460   1.635
13328W        W79737   9.906  28.773   2.001
13329W        W79738   9.639  38.032   3.210
13330W        W79739  16.810  25.472  12.654
13331W        W79740  35.642  31.426  13.120
13332W        W79741  39.455  15.203   0.435
13333W        W79742  39.423  40.415   0.532
13334W        W79743   6.255  20.108  11.671
13335W        W79744  40.449   2.853   1.210
13336W        W79745  34.555  12.352   0.519
13337W        W79746  20.792  16.516  11.205
13338W        W79747  27.100   4.042  14.045
13339W        W79748  14.317  40.684  12.516
13340W        W79749   8.899  22.169  14.763
13341W        W79750   1.071  17.978   2.369
13342W        W79751   4.474  18.643   3.781
13343W        W79752   2.353  23.718  13.490
13344W        W79753  18.007  44.349  14.974
13345W        W79754  29.161   5.724   2.915
13346W        W79755   3.392  32.527  12.119
13347W        W79756  30.018  35.426   3.614
13348W        W79757  34.081  10.374   4.597
13349W        W79758   5.681   7.759  14.698
13350W        W79759  11.830  22.344  12.410
13351W        W79760  35.813  13.359  11.508
13352W        W79761   8.014  38.290   4.666
13353W        W79762  18.296   8.725  13.122
13354W        W79763  28.079  16.484  12.772
13355W        W79764   7.888  39.294  13.890
13356W        W79765  25.994  28.576   2.720
13357W        W79766  35.425  11.329  13.893
13358W        W79767  29.573  25.527   2.550
13359W        W79768  44.112  18.565   4.687
13360W        W79769  35.332  11.522  12.425
13361W        W79770  11.260  37.389   0.771
13362W        W79771  33.068  33.160   2.202
13363W        W79772  36.962  14.312   2.615
13364W        W79773  17.920   8.686   1.538
13365W        W79774  13.057  28.570  12.607
13366W        W79775  17.506   3.945  10.673
13367W        W79776  25.851  31.661   0.332
13368W        W79777  26.494  20.756   0.291
13369W        W79778   9.329  24.534   4.809
13370W        W79779  24.337  36.540  13.287
13371W        W79780  21.253  11.093  14.016
13372W        W79781  36.038  16.361  14.385
13373W        W79782   9.412  23.587   2.384
13374W        W79783  38.335  17.131  14.789
13375W        W79784  17.999  22.687   1.722
13376W        W79785  33.363  27.656   2.218
13377W        W79786  39.529  20.065   5.262
13378W        W79787  22.767  30.228  10.752
13379W        W79788  22.036  17.267  14.024
13380W        W79789  30.512  34.581   4.989
13381W        W79790  33.717   5.800   2.700
13382W        W79791  10.769  11.668  10.314
13383W        W79792  23.794  21.394   4.074
13384W        W79793  14.087  19.700  10.570
13385W        W79794  27.163  18.294   3.248
13386W        W79795  31.274  10.612   1.460
13387W        W79796  13.713  12.307  11.049
13388W        W79797  26.545  37.493   0.877
13389W        W79798  22.654  15.261   2.975
13390W        W79799   4.353  33.458   3.581
13391W        W79800  39.348  41.295  12.966
13392W        W79801  44.238  26.537  11.070
13393W        W79802   0.394   4.823  13.556
13394W        W79803  23.570  20.540   4.638
13395W        W79804  25.132  35.070  14.651
13396W        W79805  31.165  30.385  10.820
13397W        W79806   5.275  41.986   0.036
13398W        W79807   1.079   4.204  12.047
13399W        W79808   9.165  37.020  14.348
13400W        W79809  31.534  19.013  13.487
13401W        W79810  33.515  34.644   5.068
13402W        W79811   4.899   5.361   2.339
13403W        W79812   0.364   1.387  13.905
13404W        W79813  36.507  44.554   2.696
13405W        W79814  30.419   4.328  11.933
13406W        W79815  17.056  21.235   3.577
13407W        W79816  44.217  26.235  11.636
13408W        W79817   7.117  35.352   4.201
13409W        W79818   7.421  44.425   3.718
13410W        W79819  32.245   1.958   0.676
13411W        W79820   3.772  15.954  13.585
13412W        W79821  23.728   9.304   0.015
13413W        W79822  14.253  21.848  13.078
13414W        W79823  43.939  41.335   4.067
13415W        W79824  34.138  29.432   0.231
13416W        W79825  36.014  15.861  10.150
13417W        W79826  35.425   2.142   1.408
13418W        W79827  19.631   8.311   4.631
13419W        W79828   5.825  31.978   2.487
13420W        W79829  34.117  25.103   3.576
13421W        W79830  18.105  35.046  14.742
13422W        W79831  40.535  18.080  13.239
13423W        W79832  20.062   8.754  14.427
13424W        W79833   2.375  19.795   3.822
13425W        W79834  40.416  29.374   2.235
13426W        W79835  19.014  26.461  11.696
13427W        W79836   2.788   3.805   2.336
13428W        W79837   5.888   8.693   0.815
13429W        W79838  40.971  32.305   3.057
13430W        W79839  17.485  13.660  12.179
13431W        W79840  19.795   9.521  11.054
13432W        W79841  11.832  36.154  14.420
13433W        W79842  15.545  40.050  13.342
13434W        W79843  32.343  28.997  13.513
13435W        W79844  41.762  19.128   4.698
13436W        W79845  30.429   0.809  13.411
13437W        W79846   6.381  10.847   2.075
13438W        W79847   2.591  30.161   1.891
13439W        W79848  22.778  41.109  10.934
13440W        W79849   9.235  32.046  12.468
13441W        W79850  40.889  15.440   0.943
13442W        W79851   8.752  16.772   4.081
13443W        W79852  19.871  14.060   4.488
13444W        W79853   0.889  27.664  11.947
13445W        W79854  19.776  15.813   0.471
13446W        W79855  25.422  26.133   4.916
13447W        W79856  36.517  14.300   4.746
13448W        W79857  42.101   8.844   2.786
13449W        W79858  16.679   7.120   2.740
13450W        W79859  28.520   7.717  14.106
13451W        W79860   9.894  17.655  14.016
13452W        W79861  28.333  28.511   3.983
13453W        W79862  16.293   6.952  13.382
13454W        W79863  18.213  41.911  11.727
13455W        W79864  22.276  28.879  11.727
13456W        W79865  42.264  38.818   0.110
13457W        W79866  34.528  30.435  10.783
13458W        W79867   9.535  13.793  11.548
13459W        W79868  39.934   4.692   4.757
13460W        W79869   3.265  14.245  13.552
13461W        W79870   1.916  32.935   4.265
13462W        W79871  32.049  32.949   3.346
13463W        W79872  19.757  22.259   0.959
13464W        W79873   4.308  28.399   3.870
13465W        W79874   5.674  17.868   2.200
13466W        W79875  44.274  25.756   4.307
13467W        W79876  19.312  30.083  14.303
13468W        W79877  43.438  29.525  13.706
13469W        W79878  36.427   4.861  10.622
13470W        W79879   7.181  24.579  13.782
13471W        W79880  10.152  11.199   4.099
13472W        W79881  39.430  33.839   4.714
13473W        W79882  43.214  36.509   1.280
13474W        W79883   4.719  32.481   2.102
13475W        W79884  34.243  33.031  13.407
13476W        W79885  19.810  28.054   0.241
13477W        W79886  17.246  21.527  13.081
13478W        W79887  30.232   2.589  10.254
13479W        W79888   8.954  38.942  13.431
13480W        W79889  33.196  27.414  13.531
13481W        W79890   0.836  36.025   2.748
13482W        W79891  24.594  10.425  11.140
13483W        W79892   0.329  14.904  11.036
13484W        W79893  23.702  25.206  13.518
13485W        W79894  30.698  13.871   0.167
13486W        W79895  21.288  15.387   0.474
13487W        W79896  18.289   8.965   0.028
13488W        W79897  39.758   5.708  14.366
13489W        W79898  39.896   3.766   3.221
13490W        W79899  30.671  29.620   0.426
13491W        W79900   6.314  32.535  12.396
13492W        W79901  19.089   8.805  12.038
13493W        W79902  11.303  10.500   4.781
13494W        W79903  44.288  37.496   3.137
13495W        W79904  11.580   8.261   1.900
13496W        W79905  25.953  26.825  10.770
13497W        W79906  19.289  23.776   4.836
13498W        W79907  23.076  17.849   3.582
13499W        W79908  30.180  43.164  11.151
13500W        W79909  40.360   5.724   1.653
13501W        W79910  29.393  27.889   2.152
13502W        W79911   3.021  41.419   1.200
13503W        W79912  31.665  31.150  11.530
13504W        W79913  27.724  19.141   4.824
13505W        W79914  24.736  35.185  11.144
13506W        W79915   4.656  43.801  12.750
13507W        W79916  12.307  17.756   2.592
13508W        W79917  25.930  18.231   1.692
13509W        W79918   6.056   8.503   1.301
13510W        W79919   8.547  27.337   4.603
13511W        W79920  26.162  40.372   4.515
13512W        W79921  25.988  22.939   1.359
13513W        W79922  31.059  20.074   2.265
13514W        W79923  29.484   5.457   0.686
13515W        W79924   2.280  41.886  12.148
13516W        W79925  44.842   8.431   1.452
13517W        W79926   4.707   7.755   1.665
13518W        W79927   4.863   5.649   2.759
13519W        W79928  43.777  31.095   4.080
13520W        W79929  16.339  18.273   0.931
13521W        W79930  10.846  14.066   2.411
13522W        W79931  43.908  18.088   2.104
13523W        W79932  24.710  18.098   4.579
13524W        W79933  30.128  22.457  14.727
13525W        W79934  12.256  15.505  13.713
13526W        W79935  44.993  43.502  12.355
13527W        W79936  29.809  29.167  11.885
13528W        W79937   7.384  22.736  14.186
13529W        W79938  25.596  37.168  13.158
13530W        W79939  16.160  39.498   4.493
13531W        W79940  32.885  17.009   2.866
13532W        W79941  39.856  35.579  14.387
13533W        W79942  28.373   1.900   0.967
13534W        W79943  37.815  38.999  12.834
13535W        W79944  20.131  12.623  10.547
13536W        W79945  29.724  23.035   4.160
13537W        W79946  13.297  37.343  12.881
13538W        W79947   0.257  41.178   1.822
13539W        W79948   7.961  31.558   4.078
13540W        W79949  10.053  28.057  11.768
13541W        W79950   0.943  16.742  14.015
13542W        W79951  16.219   4.968   2.789
13543W        W79952  12.071  32.358   4.661
13544W        W79953  32.289   8.696   1.828
13545W        W79954  19.649   8.856  12.825
13546W        W79955  23.876  31.235   0.812
13547W        W79956  15.970  12.754  11.981
13548W        W79957  31.206  31.904  11.614
13549W        W79958   3.930  41.336   1.711
13550W        W79959  23.099  19.307  12.299
13551W        W79960  37.313  14.614   3.675
13552W        W79961   7.213  43.367   2.719
13553W        W79962  43.919  26.709  13.336
13554W        W79963  34.943  37.816   4.953
13555W        W79964  19.710  37.508   4.914
13556W        W79965  21.676  34.655  14.321
13557W        W79966  38.083   1.010   2.016
13558W        W79967  26.638  11.725   2.562
13559W        W79968   5.550  14.224   1.201
13560W        W79969  37.240  28.697  12.528
13561W        W79970  40.842  16.718  13.539
13562W        W79971   5.076  25.263  10.674
13563W        W79972  30.017  13.059   3.281
13564W        W79973  13.516  26.025  13.654
13565W        W79974  36.526  16.469   4.251
13566W        W79975   4.516  26.260   4.104
13567W        W79976  43.354  37.027   0.755
13568W        W79977  22.542  12.542  14.841
13569W        W79978  23.137  24.635  11.555
13570W        W79979  35.379   0.717  13.510
13571W        W79980  14.124   9.606  11.087
13572W        W79981  37.674   3.801  12.359
13573W        W79982  40.253  15.076   2.439
13574W        W79983  12.774  26.542  13.156
13575W        W79984  19.164   5.326   0.461
13576W        W79985  33.230  39.641   3.641
13577W        W79986  22.134  19.506  11.410
13578W        W79987  38.959  21.710   4.561
13579W        W79988  17.645   0.862   0.825
13580W        W79989   3.363  10.354   0.192
13581W        W79990  26.295  26.183   5.310
13582W        W79991  11.266  36.511  12.871
13583W        W79992  14.234  30.456   3.048
13584W        W79993  30.447  35.049  13.033
13585W        W79994  14.594  23.288  12.557
13586W        W79995  15.632   5.142  14.353
13587W        W79996  21.216   8.640   4.629
13588W        W79997  17.857  29.361  11.659
13589W        W79998  18.662  16.928  13.033
13590W        W79999  21.964   3.994  13.858
13591W        W80000  28.742  35.015  14.943
13592W        W80001  42.449  27.907   0.848
13593W        W80002  38.958  32.545  10.707
13594W        W80003  20.099   1.963  12.635
13595W        W80004  37.943  27.126  13.620
13596W        W80005  23.056  32.406  14.255
13597W        W80006  31.089  21.831  12.081
13598W        W80007  31.242  13.353  10.852
13599W        W80008  15.051  29.765   4.029
13600W        W80009  35.866  43.811  10.753
13601W        W80010   2.371  21.851  13.702
13602W        W80011  14.022  30.867   1.798
13603W        W80012  36.929  11.659   3.753
13604W        W80013  41.573  32.324   0.775
13605W        W80014  14.950  19.571   4.142
13606W        W80015  39.022  43.880   3.748
13607W        W80016   0.490   1.869   3.725
13608W        W80017   7.581   9.084  13.788
13609W        W80018   2.192  16.692  14.308
13610W        W80019   5.788  41.948   4.598
13611W        W80020  41.091  11.280   1.207
13612W        W80021  34.914   7.420   3.741
13613W        W80022  38.994  27.579   1.915
13614W        W80023  23.810   3.032   4.124
13615W        W80024  10.388  25.023  10.590
13616W        W80025  16.858  12.074  11.668
13617W        W80026  41.415  44.040  12.224
13618W        W80027   5.402  20.794   0.397
13619W        W80028  44.444  18.674   2.590
13620W        W80029  17.342  40.451   1.739
13621W        W80030  40.830  26.090   0.462
13622W        W80031  18.493  29.671  10.300
13623W        W80032  23.428  19.023   3.119
13624W        W80033   4.144   0.480  10.552
13625W        W80034  21.084  13.057   3.389
13626W        W80035  41.663  19.530  14.784
13627W        W80036  32.884  32.860   1.812
13628W        W80037  19.006   8.173  11.083
13629W        W80038   6.631  22.967   0.810
13630W        W80039  34.847  28.840   3.103
13631W        W80040  19.026  25.020  11.976
13632W        W80041   2.260   3.089   1.518
13633W        W80042  10.240  19.155  10.695
13634W        W80043   5.482  22.241   2.294
13635W        W80044   2.479  15.332  14.482
13636W        W80045   0.979  15.757   0.009
13637W        W80046  19.601  24.655   2.343
13638W        W80047  44.574  38.754  14.555
13639W        W80048  16.607  20.187  13.584
13640W        W80049  27.778  30.510  11.452
13641W        W80050  16.797   4.472   1.374
13642W        W80051  40.369  13.321   2.208
13643W        W80052  30.038  23.586  12.400
13644W        W80053  22.805   5.647   2.344
13645W        W80054  36.500  34.309  14.005
13646W        W80055  39.019  28.492  11.430
13647W        W80056  28.539  44.843   2.295
13648W        W80057  42.408   6.168  13.127
13649W        W80058  24.325  43.853  10.389
13650W        W80059  24.622  17.022   2.363
13651W        W80060  43.591  38.026   1.758
13652W        W80061  28.555  14.434   4.511
13653W        W80062  35.322  37.944  12.779
13654W        W80063   3.914  32.775   3.606
13655W        W80064  25.519  12.765   4.933
13656W        W80065  13.428   0.166   0.391
13657W        W80066   5.136   6.846   1.350
13658W        W80067   4.661  15.626  10.764
13659W        W80068  39.819  14.725  11.709
13660W        W80069  38.897  23.416   4.174
13661W        W80070  36.645  41.850  10.764
13662W        W80071   9.937  19.167  14.923
13663W        W80072  12.326  27.014   0.516
13664W        W80073  44.327  38.853   3.885
13665W        W80074  18.643  42.972  13.975
13666W        W80075   7.895  10.852  14.083
13667W        W80076  26.833  39.388   1.843
13668W        W80077  36.749  36.140  12.002
13669W        W80078  34.821  25.642  10.696
13670W        W80079  22.931  38.661  10.236
13671W        W80080  44.239   2.396  11.021
13672W        W80081  25.788  12.584   1.247
13673W        W80082   9.380  24.735  13.562
13674W        W80083   2.025  33.554  14.999
13675W        W80084   5.209   9.387  12.870
13676W        W80085  22.355   0.612   1.277
13677W        W80086  43.562  18.656   3.550
13678W        W80087  36.607  35.457   1.010
13679W        W80088  19.250   0.425   0.081
13680W        W80089  42.404  15.140  12.845
13681W        W80090   2.263   1.984  10.331
13682W        W80091  22.125  24.715  13.536
13683W        W80092  27.476  31.440  11.295
13684W        W80093   6.922   5.163   4.274
13685W        W80094  38.720  23.525  12.884
13686W        W80095  34.543  27.919   1.148
13687W        W80096   4.849  38.927  11.665
13688W        W80097  27.128  13.328   3.771
13689W        W80098   3.181  10.413  14.374
13690W        W80099  41.456   2.752   3.604
13691W        W80100  21.638  24.034   2.382
13692W        W80101   3.265  36.933  14.727
13693W        W80102   2.909   7.268   3.211
13694W        W80103  41.040  14.792  14.382
13695W        W80104  40.779  27.010  10.545
13696W        W80105  20.654  31.316  12.445
13697W        W80106  19.681  25.288  11.778
13698W        W80107   0.888  25.274   2.256
13699W        W80108  20.444   1.142  12.241
13700W        W80109   4.810  30.581  13.757
13701W        W80110  31.071  30.449   3.201
13702W        W80111  12.091  35.357  10.717
13703W        W80112  28.609  19.274  10.662
13704W        W80113  14.305  18.035   3.655
13705W        W80114  31.111  16.590   2.740
13706W        W80115  13.128  17.404  14.302
13707W        W80116  14.533  19.220  14.075
13708W        W80117  29.164   2.225  13.435
13709W        W80118  31.947  41.977   4.436
13710W        W80119  20.596  25.178   0.871
13711W        W80120  33.609  36.538   2.588
13712W        W80121   7.263  18.545   3.148
13713W        W80122  10.638  26.579   3.306
13714W        W80123  35.948   8.022   3.630
13715W        W80124  24.988  22.467  14.904
13716W        W80125  18.117  19.538  12.197
13717W        W80126  33.990  44.762   2.872
13718W        W80127  25.135  31.631  14.536
13719W        W80128  42.368   0.793   0.026
13720W        W80129   7.614  44.424  13.438
13721W        W80130  41.895   2.483  11.172
13722W        W80131   6.874  33.126   1.587
13723W        W80132  30.583  29.195  13.948
13724W        W80133  13.866   9.898  10.676
13725W        W80134  34.792  18.744  13.347
13726W        W80135  31.909  44.459   4.678
13727W        W80136   0.332  28.772  14.084
13728W        W80137  25.691  13.049  10.779
13729W        W80138  15.744  39.186   2.913
13730W        W80139   4.138  23.229  12.964
13731W        W80140  33.295   1.173   0.498
13732W        W80141  19.772  44.050  10.735
13733W        W80142  31.017  12.636   0.175
13734W        W80143  35.936  13.027  11.113
13735W        W80144  41.762  29.990   3.196
13736W        W80145   0.720  44.551  14.487
13737W        W80146   4.964  12.263   0.247
13738W        W80147   7.524  42.712   1.437
13739W        W80148  27.581   5.517   0.139
13740W        W80149  44.914  34.995   1.331
13741W        W80150  35.572  19.044   3.284
13742W        W80151   6.120  37.156   1.163
13743W        W80152  11.917  15.380   4.044
13744W        W80153  11.463   4.778  10.162
13745W        W80154  43.715  13.252   0.335
13746W        W80155  10.119  40.632   3.725
13747W        W80156  34.536  10.668   3.572
13748W        W80157  12.957  22.385   1.371
13749W        W80158  20.688  21.012  10.622
13750W        W80159   6.059   0.929   4.643
13751W        W80160  15.576  41.349   2.180
13752W        W80161   6.688  12.292   2.641
13753W        W80162  43.938  27.584  14.288
13754W        W80163  35.730  40.283  13.868
13755W        W80164  12.282  32.489   3.048
13756W        W80165  37.970  29.130   3.316
13757W        W80166  44.798  24.025  14.114
13758W        W80167  31.914  29.885   3.133
13759W        W80168   5.484  42.503  10.959
13760W        W80169  15.836   2.435  13.845
13761W        W80170  39.676  24.476  13.790
13762W        W80171  14.405  35.289  11.650
13763W        W80172  24.107  16.828   4.091
13764W        W80173  13.623  25.076  14.050
13765W        W80174  24.789   9.406  12.122
13766W        W80175  21.217  22.189  10.075
13767W        W80176  16.843  26.856  13.768
13768W        W80177  43.033  43.757   4.635
13769W        W80178  30.181  29.714   4.975
13770W        W80179  31.875  37.490   3.310
13771W        W80180  36.187   0.450   0.948
13772W        W80181  40.083  43.272  10.628
13773W        W80182  38.570  28.460  11.146
13774W        W80183  39.471  33.679  13.089
13775W        W80184  21.883  20.668   0.282
13776W        W80185   7.790  21.088  14.590
13777W        W80186   4.717  10.908   3.548
13778W        W80187  44.815  35.301  14.232
13779W        W80188  41.430   4.522  10.338
13780W        W80189  29.014  12.680  12.873
13781W        W80190   8.340  31.620  13.991
13782W        W80191  16.368  43.447   2.719
13783W        W80192  33.731   5.395  11.213
13784W        W80193  36.153  29.198   2.534
13785W        W80194  20.099  15.622  14.345
13786W        W80195  17.744  42.275  13.880
13787W        W80196  12.760   4.728  13.963
13788W        W80197  15.289  15.200   0.942
13789W        W80198  11.747  13.162   1.432
13790W        W80199  42.263  40.294   0.894
13791W        W80200  15.256   3.678  12.163
13792W        W80201  33.836  24.998   2.139
13793W        W80202  43.196  28.421  13.544
13794W        W80203  33.043  37.529   3.697
13795W        W80204  14.705  39.390  12.452
13796W        W80205  28.581  21.656   2.686
13797W        W80206  22.768  37.670   3.730
13798W        W80207  17.402  30.759   4.797
13799W        W80208  39.848  27.937  13.547
13800W        W80209   5.765   2.871  12.784
13801W        W80210  27.356  15.094  11.992
13802W        W80211  16.034  16.548   1.945
13803W        W80212  26.728   1.439  14.444
13804W        W80213  43.840  18.313   3.800
13805W        W80214  11.928  11.936   2.388
13806W        W80215  44.166  36.902   3.228
13807W        W80216  35.130   8.297   4.616
13808W        W80217  39.739   4.468  12.778
13809W        W80218   8.800  42.987  13.031
13810W        W80219  37.364  30.518  11.987
13811W        W80220  30.520  29.542   4.505
13812W        W80221   8.447  44.889   0.055
13813W        W80222  23.768   9.370  12.064
13814W        W80223  36.361   0.370   0.465
13815W        W80224  34.958   1.670  13.122
13816W        W80225  41.288   1.241   3.356
13817W        W80226  21.894  33.982   4.307
13818W        W80227   1.770  15.508   3.990
13819W        W80228  10.098  40.086  13.981
13820W        W80229  38.510  44.873  12.964
13821W        W80230   9.464  12.599  11.093
13822W        W80231  13.729   8.157  12.532
13823W        W80232  37.383  44.759  14.927
13824W        W80233  16.907  22.200  12.550
13825W        W80234  16.118   2.304   2.719
13826W        W80235  39.995  12.121   1.971
13827W        W80236  10.374  18.244   0.325
13828W        W80237  17.711  13.508  11.250
13829W        W80238  18.106  41.499  14.808
13830W        W80239  35.521  10.795   0.799
13831W        W80240  34.968  29.685  13.806
13832W        W80241   0.783  26.413   0.239
13833W        W80242  21.375  20.741   0.698
13834W        W80243  26.650  44.731   2.280
13835W        W80244  15.493  37.092   1.289
13836W        W80245  19.773  42.296  14.278
13837W        W80246   4.905  18.599  10.757
13838W        W80247   2.714   7.985   4.939
13839W        W80248  22.897  18.773  13.533
13840W        W80249   8.430  21.435   4.277
13841W        W80250   9.914  42.325  10.550
13842W        W80251  40.336  19.749  11.894
13843W        W80252  35.574  44.949   0.165
13844W        W80253  16.040  42.520  12.175
13845W        W80254  37.577   7.133   0.433
13846W        W80255   7.107  32.011  12.482
13847W        W80256   2.782   9.880  11.914
13848W        W80257   2.814  43.329  12.175
13849W        W80258  30.048  15.190  11.189
13850W        W80259  10.556  20.071  12.481
13851W        W80260   6.393  15.621  11.181
13852W        W80261   2.353  38.627  10.756
13853W        W80262  40.852   5.373  10.952
13854W        W80263  20.002  30.002   3.252
13855W        W80264   5.466  28.766   1.211
13856W        W80265  17.300  20.062  11.111
13857W        W80266  35.830  39.490   2.147
13858W        W80267  11.033  24.536  13.934
13859W        W80268  36.443  42.142   1.022
13860W        W80269  35.631  39.386  12.212
13861W        W80270  35.313  34.406   1.117
13862W        W80271  39.076   4.851  14.559
13863W        W80272  40.917  18.168   0.182
13864W        W80273  18.790  33.804   1.307
13865W        W80274  24.743  27.028   4.643
13866W        W80275  29.748  33.503   1.728
13867W        W80276  42.201  22.183  10.534
13868W        W80277  19.139  19.440  11.158
13869W        W80278   5.921  23.742  13.703
13870W        W80279  39.812  30.705  11.741
13871W        W80280  36.039   0.298  12.194
13872W        W80281  33.818  36.087   3.238
13873W        W80282  26.419  35.023   2.781
13874W        W80283  31.188  19.161   3.254
13875W        W80284  42.766  22.708   4.119
13876W        W80285  21.820  27.251   2.539
13877W        W80286   3.410  39.032   1.933
13878W        W80287  36.381  35.395   4.477
13879W        W80288  42.237   7.640  11.215
13880W        W80289  29.069  31.939  12.582
13881W        W80290  27.756  35.399  11.068
13882W        W80291  40.232  34.580  10.679
13883W        W80292  34.016  17.534   0.529
13884W        W80293  21.707  12.666   0.264
13885W        W80294  12.704  36.094  13.601
13886W        W80295   5.378  27.173  10.988
13887W        W80296  42.886  31.038   4.106
13888W        W80297  32.617  30.074   1.331
13889W        W80298  11.079  18.148   4.057
13890W        W80299  15.938  41.056   3.639
13891W        W80300  25.878   5.324  12.174
13892W        W80301   2.237  36.903  11.256
13893W        W80302  18.253  15.709   2.796
13894W        W80303  43.095  12.557   1.840
13895W        W80304  43.861   0.322   1.811
13896W        W80305  27.519  23.696  11.435
13897W        W80306  24.195   1.446   4.221
13898W        W80307  42.504   5.034  14.520
13899W        W80308   7.237   5.953  11.510
13900W        W80309  27.173   2.925   2.374
13901W        W80310  29.211  17.292   1.624
13902W        W80311  18.389   4.982   4.380
13903W        W80312  36.488  36.273  12.413
13904W        W80313  21.191   4.626  11.184
13905W        W80314   4.026  24.370   4.467
13906W        W80315  41.031   8.086  12.020
13907W        W80316  24.075   6.674  13.361
13908W        W80317  29.768  33.533   5.028
13909W        W80318  12.169  24.576  12.225
13910W        W80319  23.175  25.081  10.625
13911W        W80320  19.207  11.274   1.703
13912W        W80321  11.701   5.793   2.952
13913W        W80322   3.231   9.716  12.164
13914W        W80323  38.849  35.465   4.429
13915W        W80324  35.079   5.807  14.339
13916W        W80325  43.324   9.106   2.158
13917W        W80326  40.303  29.063  13.929
13918W        W80327  22.731  19.290   3.720
13919W        W80328  17.554  15.231   3.341
13920W        W80329  22.744   1.443   0.387
13921W        W80330  19.080   3.976  11.804
13922W        W80331  29.670   0.941  13.896
13923W        W80332  32.451  18.859  14.648
13924W        W80333   8.786  34.040  12.484
13925W        W80334   3.158  12.089  11.879
13926W        W80335  43.271  14.129   2.253
13927W        W80336  43.353  14.805  11.493
13928W        W80337   5.263  41.504  14.805
13929W        W80338  20.260  23.238  14.872
13930W        W80339  16.998  22.800   1.807
13931W        W80340  29.246  11.713  10.636
13932W        W80341   8.954  35.863  11.189
13933W        W80342   5.494  39.525  11.195
13934W        W80343  35.469  14.413  12.566
13935W        W80344   0.372  36.633  12.550
13936W        W80345   4.712  30.585  11.995
13937W        W80346  29.482  16.321  10.525
13938W        W80347  17.045  12.681  12.980
13939W        W80348  12.323   0.455  12.037
13940W        W80349  22.738  23.684  11.563
13941W        W80350  12.947   3.723  12.027
13942W        W80351  26.918   0.355  14.850
13943W        W80352  28.889  39.873  12.875
13944W        W80353   6.963  25.019   1.927
13945W        W80354   4.917   4.652   3.661
13946W        W80355  34.988  18.705  10.799
13947W        W80356  41.783  23.936  14.521
13948W        W80357  41.747  41.407   3.409
13949W        W80358   3.092  27.741   3.243
13950W        W80359  27.235  32.556   4.549
13951W        W80360   2.810  39.039   3.311
13952W        W80361  10.961  24.211  10.575
13953W        W80362  22.032  14.558   4.148
13954W        W80363   1.666   2.284   0.130
13955W        W80364  21.055  33.867  12.988
13956W        W80365  43.381  15.640  14.228
13957W        W80366  41.576  37.544   0.848
13958W        W80367   3.819  22.272  10.085
13959W        W80368  17.714  18.024  10.911
13960W        W80369  38.996  14.554   2.352
13961W        W80370  40.447  28.211  14.823
13962W        W80371  30.697   3.944   1.774
13963W        W80372  11.154   9.981   4.571
13964W        W80373  28.714  41.774   4.497
13965W        W80374  10.605   3.789   0.178
13966W        W80375  29.642   9.272   0.846
13967W        W80376  32.553  21.283  14.497
13968W        W80377  27.456  33.595   0.591
13969W        W80378  24.841  38.742  12.298
13970W        W80379  17.294  36.803  11.535
13971W        W80380  12.707  11.211  14.145
13972W        W80381  31.002  32.196  13.065
13973W        W80382  19.294  26.089   1.762
13974W        W80383   9.208  25.403   4.516
13975W        W80384  19.253  39.766   0.238
13976W        W80385   7.913  43.010   3.663
13977W        W80386  31.285  34.528  10.917
13978W        W80387  37.275  24.416  11.844
13979W        W80388  39.982   5.287   2.294
13980W        W80389  34.537  25.292   1.103
13981W        W80390  26.552  41.354   2.230
13982W        W80391   5.815  18.100   0.268
13983W        W80392  40.485   8.885   0.468
13984W        W80393  40.343  38.483  14.330
13985W        W80394  39.073  42.792  11.118
13986W        W80395  14.584  21.043  12.071
13987W        W80396  40.721  13.381  11.365
13988W        W80397  39.973  29.562   2.471
13989W        W80398  20.081  25.107   1.678
13990W        W80399  21.027   2.580   2.514
13991W        W80400   8.657  31.400  11.448
13992W        W80401  15.871  41.802   3.137
13993W        W80402  24.160  23.199   3.313
13994W        W80403   1.002  26.701   3.667
13995W        W80404   9.737  38.866   4.367
13996W        W80405  13.761  11.275  11.546
13997W        W80406  42.922   3.213   3.133
13998W        W80407  32.846  33.988   3.876
13999W        W80408  39.531   1.766  12.715
14000W        W80409  16.822   9.634  11.600
14001W        W80410  10.263   7.811  11.132
14002W        W80411  44.390  26.136  13.001
14003W        W80412  17.204  27.693  10.481
14004W        W80413   0.419  12.614  13.140
14005W        W80414  35.101   9.656   2.208
14006W        W80415   3.266   6.799   3.591
14007W        W80416   5.940   8.960   4.127
14008W        W80417  36.560  17.414   3.949
14009W        W80418  12.623  39.104  11.610
14010W        W80419  19.731  23.188  14.884
14011W        W80420  21.740  44.540  13.592
14012W        W80421  32.043  30.713   4.295
14013W        W80422  38.622   2.257  11.036
14014W        W80423  15.712  26.412  14.837
14015W        W80424  17.051  20.897  13.865
14016W        W80425  35.142  28.207  14.964
14017W        W80426  28.653  37.530   2.595
14018W        W80427  43.320  36.257   1.749
14019W        W80428  31.098   3.733  14.148
14020W        W80429  42.084  29.954   2.075
14021W        W80430   9.258  12.380   4.971
14022W        W80431  43.568  36.196  12.985
14023W        W80432  19.956  20.632   1.706
14024W        W80433  18.496  23.093  10.478
14025W        W80434   1.839   3.214  11.613
14026W        W80435   8.200   5.795  13.943
14027W        W80436   8.917  44.932  14.805
14028W        W80437   9.399  35.394  11.672
14029W        W80438  19.375  10.300   0.767
14030W        W80439  26.923   5.451   2.897
14031W        W80440  27.024  12.345   0.292
14032W        W80441  24.621  16.996   2.887
14033W        W80442  33.943  35.912  14.761
14034W        W80443  37.505   1.133   2.697
14035W        W80444   8.586  23.296   3.793
14036W        W80445  27.610  30.518   0.274
14037W        W80446   2.722   1.366  13.325
14038W        W80447   4.287  22.392   2.600
14039W        W80448  39.823  30.528   4.203
14040W        W80449   4.859  10.379   0.219
14041W        W80450  32.396  20.615   4.552
14042W        W80451   4.106   6.769   0.486
14043W        W80452  43.361  14.258  13.315
14044W        W80453  14.402  15.005   2.451
14045W        W80454  10.088  23.493  12.009
14046W        W80455  26.678  19.528  10.715
14047W        W80456  26.956   5.620  13.376
14048W        W80457  33.932   4.344   4.913
14049W        W80458   5.139   2.119  10.268
14050W        W80459  19.601   9.722   2.731
14051W        W80460   5.087   3.057   3.712
14052W        W80461  43.272  17.002  13.928
14053W        W80462  41.570  27.233  11.024
14054W        W80463  31.775   6.705   2.453
14055W        W80464  30.035  29.556   2.678
14056W        W80465  10.202   1.354   3.383
14057W        W80466  19.397   9.834  11.195
14058W        W80467  17.631  10.617  12.566
14059W        W80468  24.012  25.609  10.531
14060W        W80469   5.765  42.606   3.801
14061W        W80470  30.890   6.305  12.883
14062W        W80471  29.022  41.223  10.817
14063W        W80472  13.292   5.151   4.084
14064W        W80473  15.072  43.516   2.172
14065W        W80474  15.968  42.947   4.847
14066W        W80475   0.733  33.326   3.287
14067W        W80476   9.442  30.632   2.351
14068W        W80477   8.264  11.594  12.616
14069W        W80478  31.984   0.229  12.035
14070W        W80479   3.540   0.298   1.382
14071W        W80480   5.005  32.390  10.277
14072W        W80481  25.230  12.640   0.440
14073W        W80482   2.284  16.634  12.104
14074W        W80483  37.216  44.007   1.270
14075W        W80484  24.668  17.083   1.437
14076W        W80485  17.265   0.248   1.362
14077W        W80486  12.803  41.265   0.886
14078W        W80487   1.335  34.359   4.695
14079W        W80488  40.728  34.789   0.260
14080W        W80489  28.653  42.763   2.728
14081W        W80490  20.938  31.431  11.842
14082W        W80491  41.305  25.815  13.902
14083W        W80492  32.061  40.448   4.286
14084W        W80493  33.481  29.034  12.507
14085W        W80494   5.204   4.350  13.404
14086W        W80495  10.111  44.996  12.894
14087W        W80496  20.119  24.605   4.648
14088W        W80497  33.096  37.347  11.197
14089W        W80498  41.882  14.172  14.331
14090W        W80499  18.234  10.234   0.069
14091W        W80500  41.526  44.179   0.376
14092W        W80501  39.545  23.476   4.698
14093W        W80502  40.618  20.060   2.732
14094W        W80503  41.057   7.569   4.117
14095W        W80504  18.261   6.789   3.157
14096W        W80505  18.117   3.858  13.848
14097W        W80506  38.806  30.862   5.300
14098W        W80507  35.810   9.163   1.344
14099W        W80508   3.861  23.350   4.655
14100W        W80509   5.246  18.979  11.169
14101W        W80510  28.959   8.651   3.479
14102W        W80511   5.413  22.602   4.563
14103W        W80512  26.920  32.577  14.349
14104W        W80513  22.740  42.517  14.506
14105W        W80514   2.404  28.014   4.840
14106W        W80515  41.311  14.806   4.341
14107W        W80516  43.446  44.518   2.280
14108W        W80517  11.808   6.212  12.188
14109W        W80518  30.514   5.576   4.676
14110W        W80519  21.897  41.080   3.873
14111W        W80520  31.460  24.514   4.244
14112W        W80521  20.877   8.682   2.813
14113W        W80522  27.598   7.595   4.078
14114W        W80523  14.389  25.882  13.886
14115W        W80524  18.075  13.803  14.985
14116W        W80525  26.801  41.314   2.770
14117W        W80526  15.090  24.190  13.489
14118W        W80527  18.760   4.638  13.838
14119W        W80528  43.021  32.267  11.799
14120W        W80529  21.738  21.474  12.127
14121W        W80530   8.407  29.496  14.400
14122W        W80531  37.171   4.805   4.561
14123W        W80532  39.271  19.637   4.520
14124W        W80533   9.192  28.135   0.453
14125W        W80534  31.652  14.502   2.643
14126W        W80535  17.044   0.973  12.901
14127W        W80536  23.309  43.871   2.309
14128W        W80537  11.529  17.552   4.347
14129W        W80538  43.059   5.462   4.431
14130W        W80539  18.507   4.225  14.828
14131W        W80540   3.991  39.264  12.932
14132W        W80541  11.101  11.985  11.602
14133W        W80542  28.142  36.913  11.197
14134W        W80543   0.234  25.528   2.841
14135W        W80544  10.375  16.145   0.765
14136W        W80545  21.015  41.120  12.466
14137W        W80546  38.313  12.238  14.716
14138W        W80547  37.145  20.294  10.911
14139W        W80548   1.471  36.956  10.456
14140W        W80549  39.563  20.562   1.634
14141W        W80550  39.886   4.902   3.805
14142W        W80551   5.669   1.022   0.901
14143W        W80552   6.326  18.178   0.486
14144W        W80553  43.505   7.353  12.524
14145W        W80554   5.181  36.968  12.224
14146W        W80555  31.648   0.080   3.259
14147W        W80556  15.303  21.431  11.662
14148W        W80557  35.392   1.847   2.368
14149W        W80558   5.395  33.518  12.611
14150W        W80559  15.515  30.099  11.028
14151W        W80560  19.087  12.726  12.240
14152W        W80561  13.792  21.693   0.749
14153W        W80562  25.983  11.551  13.907
14154W        W80563   8.079  44.970   4.741
14155W        W80564  32.978   5.653   9.913
14156W        W80565  31.037  30.139  14.783
14157W        W80566   4.201  17.644   2.272
14158W        W80567   3.160  21.680   1.350
14159W        W80568  10.209   8.391  10.459
14160W        W80569  15.137  28.673  14.710
14161W        W80570  15.378   3.297   0.720
14162W        W80571  22.822  38.815  13.514
14163W        W80572  33.341  33.069  10.284
14164W        W80573   1.263  32.911  14.722
14165W        W80574  32.356   3.454   3.460
14166W        W80575  14.229   5.562   4.244
14167W        W80576  32.022   2.177  14.714
14168W        W80577  41.550  35.316  12.574
14169W        W80578   1.214  15.689  14.432
14170W        W80579  32.693  10.661   4.619
14171W        W80580  16.532  22.033   2.817
14172W        W80581  42.617  11.082  11.928
14173W        W80582  42.258  43.076   2.671
14174W        W80583   6.153  32.881  12.014
14175W        W80584   0.971  39.918  12.432
14176W        W80585  28.016  44.277   0.468
14177W        W80586  19.346  14.065  11.988
14178W        W80587  21.172  41.332  12.939
14179W        W80588  28.463  15.699   2.715
14180W        W80589   7.789  24.929   3.781
14181W        W80590  15.634  34.019   4.479
14182W        W80591  16.578  36.854  11.005
14183W        W80592  20.546  34.620  13.771
14184W        W80593  38.051   5.723   1.467
14185W        W80594   9.926   2.050  14.352
14186W        W80595  22.139  11.154   3.660
14187W        W80596   4.420  35.231  14.551
14188W        W80597  34.446  31.878  13.837
14189W        W80598   9.173  25.004   2.332
14190W        W80599  37.477  16.117   0.466
14191W        W80600  16.676  20.162   5.349
14192W        W80601  21.311  14.594  12.545
14193W        W80602  39.000  25.707   3.581
14194W        W80603   9.115   7.782   0.016
14195W        W80604   8.353  42.935   0.548
14196W        W80605  40.520  11.857   1.896
14197W        W80606  36.339  37.765   2.737
14198W        W80607  24.769   8.293   1.863
14199W        W80608  42.895  15.564   1.769
14200W        W80609  39.518  21.450   2.858
14201W        W80610  22.533  38.184   0.373
14202W        W80611  30.467   0.876   1.692
14203W        W80612  31.130  13.157  12.604
14204W        W80613  27.661  27.157   2.260
14205W        W80614   8.571  23.075  13.383
14206W        W80615  41.587  11.055  13.848
14207W        W80616  24.657  14.624  14.592
14208W        W80617  38.452  34.656   1.813
14209W        W80618  19.212  31.998  12.959
14210W        W80619  10.178  17.886  13.563
14211W        W80620   6.038  14.110   1.086
14212W        W80621   9.936  31.615   3.702
14213W        W80622  43.978   4.940   2.749
14214W        W80623  30.255  24.042  12.417
14215W        W80624  35.361  18.526   0.833
14216W        W80625   0.012   7.383   1.345
14217W        W80626  41.398  41.548   4.661
14218W        W80627  31.969  32.315   0.428
14219W        W80628  39.851  29.324   1.455
14220W        W80629   0.307   4.219  13.429
14221W        W80630  32.519   9.391   2.862
14222W        W80631   7.425   3.402   5.001
14223W        W80632  42.949  33.807  11.097
14224W        W80633   1.737  10.216  12.390
14225W        W80634  42.433  44.851   4.663
14226W        W80635   4.700  43.596  13.360
14227W        W80636  29.906  32.161   2.780
14228W        W80637  39.026  12.890   4.873
14229W        W80638  13.405   6.933   4.482
14230W        W80639  16.524  16.699  13.821
14231W        W80640  14.571  31.680   2.733
14232W        W80641  41.922  12.660  13.073
14233W        W80642   0.193   4.729  14.947
14234W        W80643   0.249  29.950   3.931
14235W        W80644   6.649  42.169   0.276
14236W        W80645  41.468  43.831   3.574
14237W        W80646   1.709  34.499  10.901
14238W        W80647  37.623  22.570  11.996
14239W        W80648  12.560  29.112  13.434
14240W        W80649   4.681  13.715   1.233
14241W        W80650  33.430  18.414   4.591
14242W        W80651  39.567  41.504   4.581
14243W        W80652  37.546  20.710  11.943
14244W        W80653  36.482   8.234   1.436
14245W        W80654  21.800  21.562   1.169
14246W        W80655  26.650  27.686  13.426
14247W        W80656  16.101  23.321  14.371
14248W        W80657  25.566   3.455   0.473
14249W        W80658  13.609   2.931   1.776
14250W        W80659  24.071  31.194   3.773
14251W        W80660  21.205  34.455  10.739
14252W        W80661  43.088  21.479   2.267
14253W        W80662  41.630  30.393  10.844
14254W        W80663  34.169  20.956   1.769
14255W        W80664  24.472  38.614  11.332
14256W        W80665   6.204  25.686   1.216
14257W        W80666  37.316  30.533  14.932
14258W        W80667  28.585  27.014  11.098
14259W        W80668   9.405   8.299   1.419
14260W        W80669  11.168  18.589   2.645
14261W        W80670  16.047  17.684   4.248
14262W        W80671   2.729  39.908  12.112
14263W        W80672   9.829   7.064   4.168
14264W        W80673  44.783  39.188  14.738
14265W        W80674   5.967   6.431   2.185
14266W        W80675  43.802   0.252   4.662
14267W        W80676   5.412  13.342  11.957
14268W        W80677   4.341  30.569  14.005
14269W        W80678  11.421  27.998  11.618
14270W        W80679  27.405  11.896  12.911
14271W        W80680  10.675   2.564  11.639
14272W        W80681  14.211  27.741   2.218
14273W        W80682  12.466  43.478  13.434
14274W        W80683  35.108  35.123  10.709
14275W        W80684   7.935  11.662   0.848
14276W        W80685  12.057  19.664   1.838
14277W        W80686  27.742  16.015  10.675
14278W        W80687  24.364  25.314  11.229
14279W        W80688   2.783  30.619   3.289
14280W        W80689  42.685  24.413   1.202
14281W        W80690  40.597  34.257  13.980
14282W        W80691  14.627   3.033   2.631
14283W        W80692  28.779  23.886  11.174
14284W        W80693   9.913  13.677  13.049
14285W        W80694   6.151  41.310  12.525
14286W        W80695  30.308   9.076   9.929
14287W        W80696  19.860  40.607   4.184
14288W        W80697  24.429  16.648  12.502
14289W        W80698  31.575  29.571  14.274
14290W        W80699  38.334  19.569  14.703
14291W        W80700  14.237  24.148   0.786
14292W        W80701  27.762  41.388   9.687
14293W        W80702  16.480   1.666  10.722
14294W        W80703  30.341  14.392   2.697
14295W        W80704   6.767  37.883   2.606
14296W        W80705   0.093  23.471  13.444
14297W        W80706  23.186   9.816   4.115
14298W        W80707  43.555  44.709   3.929
14299W        W80708  13.283  19.037   2.330
14300W        W80709  36.578  32.018   2.113
14301W        W80710  15.618  41.107  13.117
14302W        W80711   6.408  12.998  12.030
14303W        W80712  28.875  17.587  13.889
14304W        W80713  17.960  28.790   3.215
14305W        W80714  23.030  10.955   1.812
14306W        W80715  15.299  27.078   2.431
14307W        W80716   3.204  40.869  13.449
14308W        W80717  29.881  33.879   3.282
14309W        W80718  25.727  23.018   2.261
14310W        W80719  39.567  27.186  12.405
14311W        W80720  18.111  38.812  10.415
14312W        W80721   8.133  19.613   4.255
14313W        W80722  23.788   9.303   4.321
14314W        W80723  41.878  42.821   2.244
14315W        W80724  13.143  11.258  10.772
14316W        W80725  31.358   4.357   2.754
14317W        W80726  25.488   0.939   2.617
14318W        W80727  28.528  36.090  11.916
14319W        W80728  18.950  17.227  13.523
14320W        W80729  18.201  26.311   4.348
14321W        W80730   0.368  33.983  14.903
14322W        W80731  10.086   7.753  15.000
14323W        W80732  15.310  23.701  14.365
14324W        W80733  27.840  20.824  11.908
14325W        W80734  34.222  28.511  14.522
14326W        W80735  40.450  38.494  10.754
14327W        W80736   1.180  11.783   3.887
14328W        W80737  37.095   5.934   1.218
14329W        W80738  11.742  18.503  10.665
14330W        W80739  26.183  40.063   1.267
14331W        W80740  11.386  29.647  13.079
14332W        W80741  10.414   4.227  11.291
14333W        W80742   6.201  12.852   0.460
14334W        W80743  23.693   2.014  11.066
14335W        W80744  38.269  22.116  12.378
14336W        W80745  13.150  26.524  14.332
14337W        W80746  22.829   8.202  13.923
14338W        W80747  29.061  25.641  13.397
14339W        W80748  42.465  43.474   0.786
14340W        W80749  10.736  28.613   0.926
14341W        W80750  40.856  11.147  14.773
14342W        W80751  18.806  13.809  12.884
14343W        W80752  41.710   3.385  11.567
14344W        W80753  22.387  39.024  13.345
14345W        W80754   0.851  29.948   0.896
14346W        W80755   9.161   0.944  10.959
14347W        W80756  44.103  35.897   9.761
14348W        W80757  40.445  25.132   1.447
14349W        W80758  39.551   2.243  13.421
14350W        W80759  39.837   7.935  11.618
14351W        W80760  33.937  19.049   2.633
14352W        W80761  33.968   8.384   3.728
14353W        W80762   2.139  23.996  13.082
14354W        W80763  22.317  18.571   1.096
14355W        W80764  26.646  24.423  13.876
14356W        W80765   4.298  36.208  14.327
14357W        W80766   4.674  17.710  13.339
14358W        W80767   7.421  44.428  13.923
14359W        W80768   7.143   6.594  12.991
14360W        W80769   5.034  32.258   2.879
14361W        W80770  31.266  11.876  13.803
14362W        W80771  44.297  14.849   4.321
14363W        W80772   1.305  38.087   4.633
14364W        W80773  26.127  44.899  13.962
14365W        W80774  18.269  21.368   4.189
14366W        W80775  13.142  35.766  13.809
14367W        W80776   8.656  18.742  14.870
14368W        W80777   0.756  42.791  12.565
14369W        W80778  33.030  15.239  14.201
14370W        W80779  44.015  16.215   1.139
14371W        W80780  26.493  11.377   3.376
14372W        W80781  14.966  27.758  10.333
14373W        W80782  39.295  36.114  14.389
14374W        W80783   0.404  36.041  10.783
14375W        W80784  27.918  42.183   3.196
14376W        W80785  28.934  15.441  12.120
14377W        W80786  20.391   0.341  11.178
14378W        W80787   9.809  25.948   0.683
14379W        W80788  42.782  42.742  11.443
14380W        W80789   8.299   6.441   4.807
14381W        W80790   2.430  27.476   0.125
14382W        W80791  14.903  12.725  13.903
14383W        W80792  39.077  13.710   0.787
14384W        W80793  10.146  12.210  14.835
14385W        W80794   5.194  19.778   4.580
14386W        W80795   9.776  44.357  10.703
14387W        W80796  38.588   8.748  12.044
14388W        W80797   7.751   3.282   1.429
14389W        W80798  40.520  44.936  13.552
14390W        W80799  29.982   1.175   0.401
14391W        W80800  38.103  27.515  14.749
14392W        W80801   3.888  11.688  13.507
14393W        W80802  30.108   7.507   1.548
14394W        W80803  10.880  38.815   1.786
14395W        W80804  29.642  17.577  13.613
14396W        W80805  21.147   0.932  14.381
14397W        W80806  39.894  32.903  13.335
14398W        W80807  44.447  19.030   3.821
14399W        W80808  23.145   1.625   2.145
14400W        W80809   4.257   1.006   4.893
14401W        W80810  29.942  21.801  12.965
14402W        W80811   5.447  22.171   1.373
14403W        W80812   6.391  33.873   2.402
14404W        W80813   0.537  36.336  13.705
14405W        W80814   1.793  18.928  11.831
14406W        W80815   1.377  31.645  12.478
14407W        W80816  38.509  24.789   4.271
14408W        W80817  22.763  37.432  10.750
14409W        W80818  13.568  20.631  14.066
14410W        W80819  22.732  28.274   0.401
14411W        W80820  15.151  18.660  10.268
14412W        W80821  44.447   1.409   1.337
14413W        W80822  10.260  12.002  13.587
14414W        W80823  11.615  12.883   2.759
14415W        W80824  20.142  15.856   5.343
14416W        W80825  20.644  15.635   4.350
14417W        W80826  43.904  30.524   1.747
14418W        W80827  44.006  18.740   0.398
14419W        W80828  12.327   3.390  11.443
14420W        W80829  27.290  20.687  11.911
14421W        W80830  25.541  30.919  11.372
14422W        W80831  38.818   8.605  13.299
14423W        W80832  14.646  30.654   4.759
14424W        W80833  13.128   7.246   3.228
14425W        W80834  32.496  34.775   4.649
14426W        W80835   6.940   9.886   4.249
14427W        W80836  22.075  38.472  14.434
14428W        W80837  11.399  30.421   1.333
14429W        W80838  43.910  21.811   1.848
14430W        W80839  23.400   9.972   2.781
14431W        W80840  37.801  34.129  11.318
14432W        W80841   7.042  20.500  11.884
14433W        W80842  30.999  41.813  12.437
14434W        W80843  12.056  11.292   2.689
14435W        W80844  10.654  18.362  13.830
14436W        W80845  26.964   7.447  11.548
14437W        W80846   9.073  41.317  10.597
14438W        W80847  11.688  11.709  10.274
14439W        W80848  34.656  30.041   2.794
14440W        W80849  39.998  25.632  10.664
14441W        W80850  10.369  34.719   3.940
14442W        W80851  22.473  13.399   2.266
14443W        W80852  10.806   0.295   2.314
14444W        W80853  17.990   4.491  13.213
14445W        W80854   8.437   1.811  12.650
14446W        W80855   2.600  34.846   4.611
14447W        W80856  14.510  20.106  13.360
14448W        W80857   5.778  41.681   1.219
14449W        W80858  24.032  11.477   2.141
14450W        W80859  37.035   0.750   0.942
14451W        W80860  14.886  41.329  10.517
14452W        W80861   3.278   0.002  11.449
14453W        W80862  43.020  34.462   1.893
14454W        W80863  35.098  24.006   3.370
14455W        W80864  41.716   3.708  11.999
14456W        W80865  22.038  10.831  11.765
14457W        W80866  18.660   2.024   1.863
14458W        W80867  23.818  29.004   3.747
14459W        W80868  44.924  29.085  10.576
14460W        W80869  20.107  25.437  10.583
14461W        W80870   5.689  36.389  13.771
14462W        W80871  18.052  37.736   4.069
14463W        W80872  30.941  10.116  10.244
14464W        W80873  30.669  20.300  10.666
14465W        W80874   4.466  31.060   0.450
14466W        W80875  29.320  15.043  13.423
14467W        W80876   5.178  34.491   2.886
14468W        W80877  29.388  15.703  12.183
14469W        W80878  42.935  25.134   4.503
14470W        W80879  29.799  22.102   4.588
14471W        W80880  31.982   5.946   1.748
14472W        W80881  32.378  36.967  14.403
14473W        W80882  43.878   8.293   2.308
14474W        W80883  42.859  18.746   2.670
14475W        W80884   5.382  31.182  14.383
14476W        W80885  42.954  38.690   2.862
14477W        W80886   4.741  40.778  14.956
14478W        W80887  10.857  30.060   0.418
14479W        W80888   5.614  29.682  14.333
14480W        W80889  35.408  14.886   1.381
14481W        W80890  31.397  12.448  11.211
14482W        W80891  11.350  20.083   0.204
14483W        W80892  20.308  27.934   0.386
14484W        W80893  20.616  40.625   3.737
14485W        W80894   7.324   5.824   4.563
14486W        W80895   9.603  12.691   4.298
14487W        W80896  26.005  14.305   2.332
14488W        W80897  38.353  21.680  10.880
14489W        W80898  11.280  29.533  10.926
14490W        W80899   2.772  21.731   2.115
14491W        W80900  30.986  37.830   1.938
14492W        W80901  30.852  11.238  11.521
14493W        W80902   9.160  44.730   0.753
14494W        W80903  31.632  37.879   4.750
14495W        W80904  38.430   5.750   2.771
14496W        W80905  34.954  17.708  11.457
14497W        W80906  40.511  27.471  10.658
14498W        W80907  39.170  13.084   3.078
14499W        W80908  41.453  36.527   4.784
14500W        W80909  11.080  21.591   1.109
14501W        W80910  29.453  38.286  14.875
14502W        W80911  35.842  20.095  12.898
14503W        W80912  26.195  12.327  10.354
14504W        W80913  40.796  12.545  10.474
14505W        W80914  33.998  30.155   1.741
14506W        W80915  22.638   9.367   3.067
14507W        W80916   4.256  11.846   4.909
14508W        W80917  35.869   7.539  12.650
14509W        W80918  39.071   8.409   3.822
14510W        W80919  22.496  15.808  13.851
14511W        W80920  13.957   7.356  12.969
14512W        W80921  28.668  41.302  13.977
14513W        W80922  11.644  25.516   1.478
14514W        W80923  15.417  30.085  12.081
14515W        W80924   8.782   5.370  14.113
14516W        W80925   2.258   7.897  11.910
14517W        W80926  26.947  37.441   4.927
14518W        W80927  22.688  37.093  11.940
14519W        W80928  27.989  39.503  11.140
14520W        W80929  34.958  20.707   0.182
14521W        W80930   5.020  24.681  14.501
14522W        W80931   6.730  38.196  13.132
14523W        W80932  31.481   7.837  12.505
14524W        W80933  35.935   9.930   1.779
14525W        W80934  43.932   0.777  10.875
14526W        W80935  34.985  17.859  12.427
14527W        W80936  25.623  44.698  14.769
14528W        W80937   4.252  40.760   1.440
14529W        W80938  30.203  21.197   2.276
14530W        W80939  22.819  12.764   4.864
14531W        W80940  16.725   8.912  12.035
14532W        W80941  19.933  15.377  13.502
14533W        W80942   9.234  19.350  14.427
14534W        W80943  29.419  37.972   4.020
14535W        W80944  13.516   7.271   2.255
14536W        W80945   9.688  10.417   0.651
14537W        W80946   5.762  20.140  11.508
14538W        W80947  11.592  27.553   3.973
14539W        W80948  34.505  12.143  13.611
14540W        W80949  37.594  41.939   4.127
14541W        W80950  18.649   7.496  11.533
14542W        W80951   2.695   1.303   3.703
14543W        W80952  31.165  39.745  14.514
14544W        W80953  29.022  12.418   4.882
14545W        W80954  32.324  34.766  14.576
14546W        W80955   2.495  13.729   1.632
14547W        W80956  11.354  40.375   4.546
14548W        W80957  36.809   1.154   1.796
14549W        W80958   9.899   2.074   3.691
14550W        W80959  14.803  34.140  11.220
14551W        W80960  43.690  26.248  13.405
14552W        W80961   6.249  41.876   2.946
14553W        W80962   0.727  22.548   3.629
14554W        W80963  28.373  37.887  14.300
14555W        W80964   0.427  41.522  11.998
14556W        W80965  32.888  32.982  14.787
14557W        W80966  29.427  20.406  14.066
14558W        W80967  27.180   0.887   4.197
14559W        W80968  32.967   2.768   2.674
14560W        W80969  29.701  39.311   2.236
14561W        W80970  36.603   1.426   2.676
14562W        W80971  16.243   1.299   2.230
14563W        W80972  35.605  36.434   4.019
14564W        W80973   1.265  11.870  13.731
14565W        W80974  41.936  10.243   0.463
14566W        W80975  41.329  11.999   2.353
14567W        W80976   4.372  18.153   3.916
14568W        W80977  16.973  13.190   1.629
14569W        W80978  14.829  36.048  11.127
14570W        W80979  12.945   5.044   0.283
14571W        W80980  17.298  11.713  13.556
14572W        W80981  38.073  12.786   4.982
14573W        W80982  38.149  15.549   9.997
14574W        W80983  28.579  41.103   0.297
14575W        W80984  41.804  16.782  12.445
14576W        W80985  40.752  27.851   1.903
14577W        W80986  21.557  32.778   3.721
14578W        W80987  23.108  37.884   2.910
14579W        W80988  43.993  16.996   3.648
14580W        W80989  36.099  32.378  11.556
14581W        W80990  42.051  17.668  12.720
14582W        W80991  19.122  28.900   2.449
14583W        W80992  35.160  38.658  12.112
14584W        W80993  16.855  11.720   3.241
14585W        W80994  44.273  23.252  10.391
14586W        W80995  10.157  34.608  13.764
14587W        W80996  25.108  38.828   2.850
14588W        W80997  10.357  11.693   3.991
14589W        W80998  44.758   6.849  12.486
14590W        W80999  43.379  41.384  14.824
14591W        W81000  34.585  31.567   2.388
14592W        W81001   0.673  33.748  12.593
14593W        W81002  30.515  37.963  11.634
14594W        W81003  40.554   7.244  13.388
14595W        W81004  18.241  28.370   3.334
14596W        W81005  35.828  25.225  13.552
14597W        W81006  31.416  16.330  12.425
14598W        W81007  32.404   3.239  13.867
14599W        W81008  41.365  20.719   2.663
14600W        W81009  11.201  19.038   3.812
14601W        W81010  10.583   6.564  13.792
14602W        W81011  35.590  25.118  11.729
14603W        W81012  27.295  13.774   4.632
14604W        W81013  23.237  23.130  14.344
14605W        W81014  21.032  41.344   4.558
14606W        W81015  21.328  17.606  14.946
14607W        W81016   9.698  13.148  12.448
14608W        W81017  32.330  41.586  14.823
14609W        W81018  27.377  28.669   0.826
14610W        W81019  15.566  38.293   2.086
14611W        W81020  27.654  15.266   4.779
14612W        W81021   1.789   0.716   0.947
14613W        W81022  11.084  37.024  11.222
14614W        W81023   9.586  14.104  12.437
14615W        W81024  15.107  18.511   2.167
14616W        W81025  31.675  34.428  13.995
14617W        W81026  31.562  11.477  12.626
14618W        W81027   2.949   5.443  12.541
14619W        W81028  38.642  37.969   3.803
14620W        W81029  37.653  20.487  11.400
14621W        W81030  18.792  44.571  10.160
14622W        W81031  10.334  14.699   0.840
14623W        W81032   4.138  34.880   3.701
14624W        W81033  37.997  24.285   0.732
14625W        W81034  43.356  14.176   3.664
14626W        W81035  35.047  30.075   4.572
14627W        W81036  41.851  26.118  11.036
14628W        W81037  38.089  25.086  13.345
14629W        W81038  27.122  33.031  14.551
14630W        W81039  13.701   8.314  13.028
14631W        W81040  30.858  33.448   3.075
14632W        W81041  34.854   4.945   3.583
14633W        W81042   7.884  34.759  13.027
14634W        W81043   2.783  15.539   0.812
14635W        W81044  38.224  14.731  10.246
14636W        W81045   4.852  43.488   4.176
14637W        W81046   0.912  10.840   4.148
14638W        W81047  34.294  34.424   0.021
14639W        W81048  39.508  38.144   2.748
14640W        W81049  41.751   9.348  12.983
14641W        W81050  43.359  10.188  13.465
14642W        W81051  38.457   4.352  14.047
14643W        W81052  17.155  39.544   0.423
14644W        W81053  20.793  12.938  12.632
14645W        W81054   4.574   9.879  13.892
14646W        W81055   8.738   3.868   4.738
14647W        W81056  20.941  22.674   2.366
14648W        W81057  28.657   2.652   1.912
14649W        W81058  11.074  43.844  11.888
14650W        W81059  33.120  19.144   3.913
14651W        W81060   1.170  30.970  10.583
14652W        W81061  38.913  17.371  14.323
14653W        W81062  10.872  31.507   0.699
14654W        W81063  35.113  40.254   1.182
14655W        W81064  17.301  18.520   4.536
14656W        W81065  41.870   3.957  13.440
14657W        W81066  18.132  11.628  12.297
14658W        W81067  23.934  16.170   0.841
14659W        W81068  31.623  30.155  10.658
14660W        W81069  18.742   2.384   3.960
14661W        W81070  13.547  33.301   3.730
14662W        W81071  26.777  28.677   2.155
14663W        W81072  37.227   3.350  12.295
14664W        W81073  15.526   5.848   4.499
14665W        W81074  42.646   5.670   4.690
14666W        W81075  44.178  39.815  12.995
14667W        W81076  31.439   7.795  10.975
14668W        W81077  35.123   5.649  12.096
14669W        W81078  20.127  15.156   3.214
14670W        W81079  44.974   2.659  14.983
14671W        W81080  29.973  15.800   0.552
14672W        W81081  43.305  24.188  12.383
14673W        W81082  43.598  32.390   2.901
14674W        W81083  16.875  14.707  13.296
14675W        W81084  35.408  22.050   1.009
14676W        W81085  16.497  33.394  11.820
14677W        W81086   1.515   4.341   2.354
14678W        W81087  29.662  33.816   0.394
14679W        W81088  41.643  22.447  12.572
14680W        W81089  39.570  15.695   0.377
14681W        W81090  26.018   9.112   1.570
14682W        W81091   4.722  28.470  12.386
14683W        W81092  25.126  17.569   3.670
14684W        W81093  27.443  42.358   3.232
14685W        W81094  35.078  39.713  12.903
14686W        W81095   9.245  44.375   1.175
14687W        W81096  11.729   0.434  11.138
14688W        W81097  42.713   0.399   1.927
14689W        W81098  40.971  27.176   1.357
14690W        W81099   7.720   3.272  11.527
14691W        W81100  21.401   7.587   4.977
14692W        W81101  19.951  17.074  13.419
14693W        W81102  19.987  27.055   2.699
14694W        W81103  40.382   0.429  10.629
14695W        W81104  15.049  21.316  14.845
14696W        W81105  24.911  10.721   3.615
14697W        W81106  41.163   3.867  11.265
14698W        W81107  40.220  29.639   1.270
14699W        W81108  27.358  44.470  12.316
14700W        W81109  17.115  41.393  12.074
14701W        W81110   3.501  21.929   0.968
14702W        W81111   7.704   2.433   4.460
14703W        W81112   4.426  42.528   3.735
14704W        W81113  40.853  30.152  11.916
14705W        W81114  38.191   3.916  12.461
14706W        W81115  42.566  14.797   3.899
14707W        W81116   5.394  13.779   3.881
14708W        W81117   7.294   0.134  12.573
14709W        W81118  24.528  37.687  10.283
14710W        W81119  44.690  22.636   2.527
14711W        W81120   4.424  23.033  12.537
14712W        W81121   8.665   6.118   1.961
14713W        W81122   6.431  14.783   1.300
14714W        W81123  27.485  41.840   3.017
14715W        W81124  13.311   2.618   3.293
14716W        W81125  15.770  29.770  14.899
14717W        W81126  40.480  37.891   2.778
14718W        W81127  28.776   3.491   3.101
14719W        W81128   1.776   8.077  12.037
14720W        W81129  28.067   5.957  11.880
14721W        W81130   1.271  15.251  10.744
14722W        W81131  25.764  40.929  11.140
14723W        W81132  43.065   5.252  12.648
14724W        W81133  39.435  25.609  13.415
14725W        W81134   0.083  39.835   3.329
14726W        W81135  40.902  32.830   4.491
14727W        W81136   5.001  23.284  13.745
14728W        W81137  28.417  44.891  13.136
14729W        W81138  15.809  40.954  11.890
14730W        W81139   0.472   2.381  12.553
14731W        W81140   6.793  44.380  11.385
14732W        W81141  39.619  36.082   0.334
14733W        W81142  38.383  18.755  14.494
14734W        W81143  17.844  33.442  11.143
14735W        W81144  34.757  35.626  10.755
14736W        W81145  39.792   2.820   1.005
14737W        W81146   5.639  34.961   3.592
14738W        W81147  34.455  43.442   3.223
14739W        W81148  20.174   6.142   1.962
14740W        W81149   1.345   1.545  14.232
14741W        W81150  26.011  31.260   2.799
14742W        W81151  20.150  18.893  14.004
14743W        W81152  30.580   6.826   0.667
14744W        W81153  15.555  30.486  10.685
14745W        W81154   2.498  33.131  13.418
14746W        W81155  28.446   0.164   1.848
14747W        W81156   4.973   9.330   1.749
14748W        W81157  35.565  28.165  12.116
14749W        W81158  19.454  15.899   0.070
14750W        W81159  24.692  34.778   2.407
14751W        W81160  27.126  26.725  11.176
14752W        W81161   3.224  19.607   4.670
14753W        W81162  17.654  12.733  11.522
14754W        W81163  24.481  15.559   2.361
14755W        W81164  35.826  26.669   2.088
14756W        W81165  23.528  28.401  11.516
14757W        W81166   6.205  41.376   3.086
14758W        W81167   2.300  33.100   3.935
14759W        W81168  10.763  38.533   3.062
14760W        W81169  12.490   8.285  11.035
14761W        W81170  24.957  11.903   0.858
14762W        W81171  21.040  20.099  11.508
14763W        W81172  22.506  12.358   2.260
14764W        W81173  15.166   6.799  11.209
14765W        W81174  29.831  14.255   4.895
14766W        W81175   9.482   5.709  11.150
14767W        W81176   6.922  29.343   3.666
14768W        W81177  38.858   8.059   4.168
14769W        W81178   4.532   2.015   2.260
14770W        W81179   4.277  44.770  11.677
14771W        W81180  25.498  23.594   3.170
14772W        W81181  34.811   8.669   3.237
14773W        W81182  33.249  22.584  11.669
14774W        W81183   2.820  32.946  13.045
14775W        W81184   4.507   3.901   1.717
14776W        W81185  38.972  13.450  10.719
14777W        W81186  22.538  27.514  10.629
14778W        W81187   2.027  16.559  13.015
14779W        W81188  32.230  38.106   3.967
14780W        W81189   7.846  36.279  10.714
14781W        W81190   7.322  29.570   0.900
14782W        W81191  38.332   1.965   3.197
14783W        W81192  36.956  34.349  14.789
14784W        W81193  19.090   9.636   4.915
14785W        W81194  44.450  25.764   3.289
14786W        W81195   1.959   3.033  12.076
14787W        W81196  29.004  40.950  12.679
14788W        W81197  43.012  43.130  12.891
14789W        W81198  30.874   9.273  14.849
14790W        W81199  22.788  21.150  11.393
14791W        W81200  18.245   6.739  14.829
14792W        W81201  42.730  13.208   0.306
14793W        W81202  42.426  41.230  10.685
14794W        W81203  42.901  14.258  10.948
14795W        W81204  38.258  39.702   0.331
14796W        W81205  29.657  10.731  10.856
14797W        W81206   5.398  16.531  11.679
14798W        W81207  44.279  11.078  14.170
14799W        W81208  29.114  14.786   2.099
14800W        W81209  34.873  31.373   3.219
14801W        W81210  15.234  32.641  13.022
14802W        W81211  18.615  22.633   2.908
14803W        W81212  26.270  39.075   0.710
14804W        W81213  29.015  25.357   4.873
14805W        W81214   3.123  22.167  12.844
14806W        W81215   5.852  43.828   3.177
14807W        W81216  23.189  29.484   4.475
14808W        W81217  22.053   3.374  11.974
14809W        W81218   8.099  42.142  12.883
14810W        W81219  44.892   5.621   3.844
14811W        W81220   1.854  23.927  11.116
14812W        W81221  27.443   3.681   1.229
14813W        W81222  11.216  22.218   1.031
14814W        W81223   9.178  16.509  12.593
14815W        W81224  30.461   8.431  12.424
14816W        W81225  19.845   2.898  11.145
14817W        W81226  40.589  31.215  13.524
14818W        W81227  40.594  12.210   2.647
14819W        W81228  19.142  41.110   0.291
14820W        W81229  41.634  23.985  14.018
14821W        W81230  36.881  30.929  14.963
14822W        W81231  18.846  19.570  13.545
14823W        W81232  18.015   5.828   4.103
14824W        W81233  24.186   8.213   1.178
14825W        W81234  32.468  34.139   2.866
14826W        W81235   5.730  19.746   3.895
14827W        W81236  33.436  37.381  12.482
14828W        W81237  44.946  37.445  10.090
14829W        W81238  44.940  25.077  14.046
14830W        W81239  25.498   6.758   3.611
14831W        W81240  28.130  12.242   2.244
14832W        W81241  14.683  28.914   2.420
14833W        W81242   3.225  18.836   0.850
14834W        W81243  34.458   8.653  12.579
14835W        W81244  11.613  32.599  13.613
14836W        W81245  44.995   1.903   2.215
14837W        W81246  23.078  35.015   2.598
14838W        W81247  36.801  32.052  11.387
14839W        W81248  17.110  22.781   2.337
14840W        W81249  28.260  30.053  12.103
14841W        W81250  14.595  13.146  13.977
14842W        W81251  35.099  15.583   4.972
14843W        W81252   1.788  41.968   3.315
14844W        W81253  29.370  23.733  10.975
14845W        W81254  38.131  28.580  10.856
14846W        W81255  35.312  10.134   3.183
14847W        W81256   4.646  17.252  12.003
14848W        W81257   5.781  15.116  14.726
14849W        W81258  37.332  18.518  13.061
14850W        W81259  37.585  17.104  14.341
14851W        W81260  26.667  20.532   4.140
14852W        W81261  16.782  44.856   4.231
14853W        W81262  34.321   8.770  13.802
14854W        W81263  37.379   5.845   4.578
14855W        W81264  23.470  32.342   1.447
14856W        W81265   6.425  44.445  14.476
14857W        W81266  17.036   0.232  11.423
14858W        W81267  14.655  15.963   2.764
14859W        W81268  30.646  29.165   2.142
14860W        W81269  42.480   0.869  12.085
14861W        W81270  12.138  41.845   1.354
14862W        W81271  26.871  15.751  10.739
14863W        W81272   4.337  27.467   3.210
14864W        W81273  38.035  29.005   1.222
14865W        W81274  17.534  21.048  11.683
14866W        W81275  40.945  28.104  10.735
14867W        W81276  38.312  34.416  10.612
14868W        W81277  20.718  25.096  13.783
14869W        W81278   7.873  26.682   4.458
14870W        W81279  11.023  19.284  11.125
14871W        W81280  23.696  23.745  10.632
14872W        W81281   5.210   9.243  12.381
14873W        W81282  43.454  40.730   4.918
14874W        W81283  21.263  12.777  12.017
14875W        W81284   5.388  43.378  14.283
14876W        W81285  34.906   0.901   1.934
14877W        W81286  11.283  23.543  12.479
14878W        W81287  17.892  12.527  11.100
14879W        W81288  30.308  19.305  14.799
14880W        W81289   5.159  23.579  11.605
14881W        W81290  31.885  31.243  11.091
14882W        W81291  13.892  40.104   2.124
14883W        W81292  30.107  17.775  12.414
14884W        W81293  25.236   3.676  10.737
14885W        W81294  28.002  11.337  12.968
14886W        W81295  21.318   2.055  10.866
14887W        W81296  35.821   3.785   5.368
14888W        W81297  16.097  39.584   3.113
14889W        W81298  23.722  29.364   2.635
14890W        W81299  40.046  20.538  14.788
14891W        W81300  28.891   2.186   0.173
14892W        W81301  29.850   0.407  14.735
14893W        W81302  18.067  29.571  14.197
14894W        W81303  18.058  11.615   4.540
14895W        W81304  44.182   3.708  11.895
14896W        W81305  12.194  19.669   3.177
14897W        W81306  32.961  11.589  12.457
14898W        W81307  40.258  35.188   2.680
14899W        W81308  24.546  20.201   3.741
14900W        W81309   4.328  14.572   1.743
14901W        W81310  29.735  41.376  11.212
14902W        W81311  27.781  39.160  14.115
14903W        W81312   9.716  29.415   4.326
14904W        W81313  43.861  26.128  10.827
14905W        W81314  33.113   9.477   4.755
14906W        W81315  37.810  17.838   0.205
14907W        W81316  10.648  42.793  11.529
14908W        W81317   1.546  36.745   4.980
14909W        W81318  10.316  38.161  12.855
14910W        W81319   8.866  43.408   0.842
14911W        W81320  29.757  11.903   3.943
14912W        W81321  27.835  26.438   1.062
14913W        W81322  27.377  17.693   3.283
14914W        W81323   8.149  28.626   1.682
14915W        W81324  18.533  18.394   5.073
14916W        W81325  37.113  22.545   3.861
14917W        W81326  42.477  28.957  10.505
14918W        W81327   2.364   0.016   3.373
14919W        W81328  31.502  43.990   0.710
14920W        W81329   8.823  26.915  11.122
14921W        W81330  15.890  29.335  11.202
14922W        W81331  37.094  17.126  10.756
14923W        W81332  22.468  42.912  13.881
14924W        W81333  26.569  20.609   3.289
14925W        W81334   6.234   9.269  14.129
14926W        W81335  31.160  30.542   4.363
14927W        W81336   8.378  38.952   1.467
14928W        W81337  35.972   8.580   0.333
14929W        W81338  21.540  41.716   1.058
14930W        W81339  26.436   2.223  12.498
14931W        W81340  12.104  11.084  12.116
14932W        W81341  33.946  37.480  12.463
14933W        W81342  28.665  10.464   0.192
14934W        W81343   6.834  42.035  10.596
14935W        W81344  34.407  36.109  14.798
14936W        W81345  35.648  21.151  10.752
14937W        W81346  42.834   2.485   0.726
14938W        W81347  44.487   9.613  14.965
14939W        W81348  38.886  18.721  12.229
14940W        W81349   4.191  39.151  14.924
14941W        W81350   5.935  41.507  10.628
14942W        W81351   4.943  29.478  13.333
14943W        W81352  22.208   5.730   1.768
14944W        W81353  31.864  27.408  11.908
14945W        W81354  43.924  23.772  12.887
14946W        W81355  15.671  42.609  13.113
14947W        W81356  35.144  18.467  10.369
14948W        W81357   3.225  44.392   4.139
14949W        W81358  44.458  10.124   3.426
14950W        W81359  18.717  22.991   2.242
14951W        W81360   6.262  23.965  14.007
14952W        W81361  35.334  29.917  14.864
14953W        W81362  42.768   0.627  13.832
14954W        W81363  10.305  22.307   1.679
14955W        W81364  32.612  18.717   1.583
14956W        W81365   3.343   6.232  10.556
14957W        W81366  33.762  25.045  12.358
14958W        W81367  33.261  28.113  14.517
14959W        W81368  17.709  11.494  12.006
14960W        W81369   9.001   6.442   3.630
14961W        W81370  11.343   8.551   0.507
14962W        W81371  18.288  30.357   4.878
14963W        W81372  35.535  28.694   2.939
14964W        W81373   8.333  20.664  12.481
14965W        W81374  29.030  25.007  13.019
14966W        W81375  21.061  12.527   3.417
14967W        W81376  30.599  41.662   0.989
14968W        W81377   8.819  43.952  12.596
14969W        W81378  34.625  40.871   0.357
14970W        W81379   9.887  12.224   0.395
14971W        W81380  29.587   1.248   0.943
14972W        W81381   9.420   4.393   3.660
14973W        W81382  11.026   9.040  11.194
14974W        W81383  30.150  27.687  12.006
14975W        W81384   4.845  17.154  13.439
14976W        W81385  33.655  36.827   1.245
14977W        W81386  26.072  33.321  12.539
14978W        W81387  12.754   7.165   0.502
14979W        W81388  11.959  31.325  10.713
14980W        W81389   5.935  37.123   3.445
14981W        W81390   2.626  16.247  12.040
14982W        W81391  21.485  15.566   0.929
14983W        W81392  35.755  44.678  14.218
14984W        W81393  28.270   1.793  12.448
14985W        W81394  16.518   1.853  13.568
14986W        W81395  37.726  41.013  12.451
14987W        W81396  11.583  32.236   4.821
14988W        W81397  27.907   6.945  14.900
14989W        W81398  14.861  18.049   2.826
14990W        W81399   5.388   3.170  14.763
14991W        W81400  41.063  38.167  10.730
14992W        W81401  24.197  14.530   3.322
14993W        W81402  43.529   4.685  13.274
14994W        W81403  12.295  14.147  13.041
14995W        W81404  10.178   3.949   3.645
14996W        W81405  21.257  16.579  10.020
14997W        W81406  11.219  24.081   0.246
14998W        W81407  42.886  44.123  12.845
14999W        W81408  18.703  15.300  13.791
15000W        W81409   0.658  25.921   4.162
15001W        W81410  42.900  10.417  13.632
15002W        W81411  15.545  30.487   5.088
15003W        W81412  29.496   4.011   0.418
15004W        W81413  33.115   8.008   2.382
15005W        W81414  24.851  39.377   1.235
15006W        W81415   7.212  15.679   4.236
15007W        W81416  41.006  44.845  12.072
15008W        W81417  41.984  24.763   4.897
15009W        W81418  19.546  44.004   3.599
15010W        W81419  14.321  30.655  14.546
15011W        W81420  28.176  14.269  14.075
15012W        W81421  11.762   8.209   0.492
15013W        W81422  32.440  42.869   0.406
15014W        W81423   4.497  15.701   4.562
15015W        W81424  22.543  36.974   4.193
15016W        W81425  44.869   1.516  10.803
15017W        W81426  38.546   9.391   3.759
15018W        W81427  41.008  19.095  10.513
15019W        W81428  26.284  40.758   4.873
15020W        W81429   3.482  44.712  10.537
15021W        W81430  34.223   4.985  10.787
15022W        W81431  36.147  44.584   4.173
15023W        W81432   3.208  19.713  10.717
15024W        W81433   4.746  11.424  13.289
15025W        W81434  13.781  14.477  13.803
15026W        W81435  15.281  10.518   3.198
15027W        W81436  39.922  13.438  11.627
15028W        W81437  44.364  33.632   2.008
15029W        W81438   6.860  21.437   1.067
15030W        W81439  14.420  15.116   4.291
15031W        W81440   2.820  35.340   1.268
15032W        W81441  34.642  36.901   3.251
15033W        W81442  43.967  22.296  14.962
15034W        W81443  10.126   8.582   4.093
15035W        W81444  13.531  11.214  12.971
15036W        W81445   0.933  29.121   4.085
15037W        W81446  18.578   2.030  13.397
15038W        W81447  22.267  19.038   2.352
15039W        W81448  24.500  24.315  13.611
15040W        W81449  27.176  14.665  14.949
15041W        W81450  14.675  38.270   3.605
15042W        W81451  19.823  22.531  11.580
15043W        W81452  20.328  44.104  11.553
15044W        W81453  22.481   9.675   4.891
15045W        W81454  26.178  23.504   3.739
15046W        W81455  43.216  36.047   4.865
15047W        W81456  14.425  32.354   1.150
15048W        W81457  10.383  40.311   3.270
15049W        W81458  31.671  21.832  14.855
15050W        W81459  29.043  19.025  11.369
15051W        W81460  32.262  44.576  10.211
15052W        W81461  41.077  13.355   4.764
15053W        W81462  26.646  20.130  11.362
15054W        W81463   6.318  40.586  12.282
15055W        W81464  38.009  22.237   0.011
15056W        W81465  11.074  19.468   1.858
15057W        W81466  32.109   2.319   1.094
15058W        W81467  23.724  25.978   3.732
15059W        W81468   9.339  17.285   3.374
15060W        W81469   8.395  31.948  11.997
15061W        W81470   9.713  21.310   5.074
15062W        W81471   6.737  23.192   3.660
15063W        W81472  20.462  16.007   4.066
15064W        W81473  33.525  15.778  13.071
15065W        W81474  38.184  17.109   3.794
15066W        W81475  40.156   8.741  13.527
15067W        W81476  16.396   6.189  13.960
15068W        W81477  33.543  17.593   4.273
15069W        W81478   9.278  11.618   2.522
15070W        W81479  21.949  18.206   1.980
15071W        W81480  38.706  29.859  10.485
15072W        W81481  21.721  22.741  12.645
15073W        W81482  31.424  27.543  12.259
15074W        W81483  24.954  43.496  13.457
15075W        W81484  41.741   7.130   2.224
15076W        W81485  34.522  11.665   3.712
15077W        W81486  41.478  39.570   4.667
15078W        W81487   7.302  28.348  10.221
15079W        W81488   3.642  38.621   2.369
15080W        W81489   7.830  43.439   3.356
15081W        W81490  16.783  20.505   4.122
15082W        W81491   8.743   3.311   1.709
15083W        W81492  22.282  38.111  10.756
15084W        W81493   0.502  30.712  12.240
15085W        W81494  36.138  23.890   0.304
15086W        W81495  10.154  31.175   2.710
15087W        W81496   4.711  35.987   1.618
15088W        W81497  26.837  36.439   0.870
15089W        W81498   8.656  10.911  12.090
15090W        W81499   0.778  10.315  13.557
15091W        W81500  37.579   7.988   0.679
15092W        W81501  29.993  11.271  12.902
15093W        W81502   6.622  38.388   0.046
15094W        W81503   3.708   6.258   1.257
15095W        W81504  15.131  12.765   4.602
15096W        W81505   8.778  18.003  11.740
15097W        W81506  33.386  39.454  12.417
15098W        W81507  35.780   9.844  12.366
15099W        W81508  39.010  20.129   4.137
15100W        W81509  33.047  41.556   0.420
15101W        W81510  28.685  10.560   4.052
15102W        W81511  23.071  29.053   4.170
15103W        W81512   8.209  19.154  11.830
15104W        W81513  16.856  13.228  11.715
15105W        W81514  40.538  36.866  11.121
15106W        W81515  44.529   7.320  12.445
15107W        W81516  33.440  28.643   4.450
15108W        W81517   0.730   4.239   2.857
15109W        W81518  39.916  38.287  11.671
15110W        W81519   0.935  29.941   3.417
15111W        W81520  34.907   5.780   3.657
15112W        W81521   4.996  35.666  10.509
15113W        W81522   3.884  31.440   4.752
15114W        W81523  26.162   9.394  13.035
15115W        W81524  24.295  36.273   1.766
15116W        W81525  30.387  21.551   0.360
15117W        W81526  39.410   7.048  10.673
15118W        W81527  24.397  10.292   1.450
15119W        W81528  19.397  32.605   3.726
15120W        W81529  41.904  34.379  10.318
15121W        W81530   0.539   9.681  12.942
15122W        W81531  26.021  44.776   3.088
15123W        W81532  43.458   2.334   2.128
15124W        W81533  22.475  21.246   3.313
15125W        W81534   0.290  43.864  14.003
15126W        W81535  40.846  39.458  10.598
15127W        W81536   0.052   1.745  12.397
15128W        W81537  33.613   1.454   1.849
15129W        W81538  10.144   3.185  12.889
15130W        W81539   7.194  21.008   2.283
15131W        W81540  19.126  21.712  12.484
15132W        W81541  28.385  44.658   1.772
15133W        W81542  28.804  30.913   3.924
15134W        W81543   9.679  31.521   2.817
15135W        W81544   3.274  23.182   1.313
15136W        W81545  32.642   4.989  10.624
15137W        W81546  36.318  23.357   3.665
15138W        W81547  18.808  37.605   3.677
15139W        W81548  14.920  22.192   3.215
15140W        W81549  17.103   6.915   0.022
15141W        W81550  40.931  40.459   4.146
15142W        W81551  41.847   9.330   2.722
15143W        W81552  26.070  34.353  13.920
15144W        W81553  15.854  32.097  14.476
15145W        W81554  34.052   0.174  12.908
15146W        W81555  43.004   3.243  12.897
15147W        W81556  17.148   9.881   3.061
15148W        W81557   6.473  28.216   4.652
15149W        W81558  38.412  27.933   3.814
15150W        W81559  41.065  35.060   3.088
15151W        W81560  26.706  20.415  14.971
15152W        W81561   5.367  39.644  12.247
15153W        W81562  30.846  21.652   1.672
15154W        W81563   6.240  44.392  11.563
15155W        W81564   5.085  32.573  14.934
15156W        W81565  29.131  34.787   1.622
15157W        W81566   8.250  16.980   2.814
15158W        W81567   7.792  28.398  13.036
15159W        W81568   1.439  41.255  12.910
15160W        W81569  29.961  10.652  13.857
15161W        W81570  28.220  20.551   4.498
15162W        W81571  30.162  29.001   1.978
15163W        W81572  28.663  38.066   1.221
15164W        W81573  30.470  12.858  14.410
15165W        W81574  10.737   2.402   3.156
15166W        W81575  39.561  10.135   0.364
15167W        W81576  38.020  43.485   3.855
15168W        W81577  32.154  24.035  10.974
15169W        W81578  44.290  42.019  11.638
15170W        W81579   1.285  23.362  13.003
15171W        W81580  14.209   6.070   4.257
15172W        W81581  25.254  20.507  11.896
15173W        W81582  23.953   9.105   2.627
15174W        W81583   8.667  37.582  13.531
15175W        W81584  32.526  37.689   2.308
15176W        W81585  19.619  35.875   4.705
15177W        W81586  37.496  27.974  12.174
15178W        W81587  32.019  26.082   1.457
15179W        W81588  19.136  13.909  11.537
15180W        W81589  18.757  39.841  13.263
15181W        W81590  40.316  39.515  13.004
15182W        W81591  37.028  26.126  12.517
15183W        W81592   8.440  41.032  10.725
15184W        W81593  43.532  14.993  11.024
15185W        W81594   2.945  10.573  10.715
15186W        W81595  43.516  11.746   5.012
15187W        W81596  23.197   1.795  10.883
15188W        W81597  39.801  20.711   0.222
15189W        W81598  20.387   4.196   1.071
15190W        W81599  25.273   8.724   0.389
15191W        W81600   7.284  38.038  12.668
15192W        W81601  11.239  25.429  13.838
15193W        W81602  32.600  31.078   2.740
15194W        W81603   1.429  34.507  14.920
15195W        W81604  23.239  18.623   0.215
15196W        W81605  43.776   5.015  14.921
15197W        W81606   4.005  41.434   0.261
15198W        W81607  26.237  32.393  10.751
15199W        W81608  25.252  25.272   2.722
15200W        W81609  26.636  21.500   1.398
15201W        W81610  14.783  44.295  12.121
15202W        W81611  37.433  34.359  11.651
15203W        W81612  42.182   5.358  10.938
15204W        W81613   1.543  28.110  13.716
15205W        W81614  28.201  12.149   0.844
15206W        W81615   5.657  34.093   0.851
15207W        W81616  41.830  23.783  12.826
15208W        W81617  41.397  34.086   4.139
15209W        W81618  42.494   9.410   0.323
15210W        W81619  32.169   7.775  12.898
15211W        W81620   9.840  11.407  11.959
15212W        W81621  35.903  38.044   2.778
15213W        W81622  20.162  31.990   3.302
15214W        W81623  23.597   1.481  10.876
15215W        W81624  27.048  17.282  10.642
15216W        W81625  44.249  39.438  12.638
15217W        W81626   7.445   2.997  14.103
15218W        W81627  40.326  23.255  10.786
15219W        W81628  34.170   2.996   3.173
15220W        W81629   3.391   0.666  14.501
15221W        W81630  13.719  32.123  12.037
15222W        W81631  41.086   1.813   0.713
15223W        W81632  25.295   2.440   1.939
15224W        W81633  32.398   4.379   2.749
15225W        W81634  35.345  27.246   2.473
15226W        W81635  32.595  24.303   0.393
15227W        W81636   7.471   3.589  12.401
15228W        W81637  30.140  32.927  12.008
15229W        W81638  16.829   1.428  13.485
15230W        W81639  38.107  39.495  11.166
15231W        W81640  19.063   6.702   4.881
15232W        W81641  11.876   8.613   1.682
15233W        W81642  22.243   9.487  12.473
15234W        W81643  16.943   5.787  10.148
15235W        W81644  10.891  44.230  13.518
15236W        W81645  30.038  33.078   1.929
15237W        W81646  20.228  12.559   1.777
15238W        W81647  39.465   3.233   3.691
15239W        W81648   3.477  15.190   4.291
15240W        W81649  17.663  16.577   3.620
15241W        W81650  24.141  31.651   2.855
15242W        W81651  29.653   2.544   0.541
15243W        W81652  16.708  22.605  12.803
15244W        W81653  41.362  11.730  13.838
15245W        W81654  14.435  18.374   2.886
15246W        W81655  27.174  16.096   0.702
15247W        W81656   5.718   1.076  13.138
15248W        W81657   4.099  27.974  10.209
15249W        W81658  29.035  23.486   2.876
15250W        W81659  33.066  41.255   4.637
15251W        W81660  15.573  24.500   0.168
15252W        W81661  18.363  32.752  12.278
15253W        W81662  11.132  36.830  14.801
15254W        W81663   7.201  32.185   2.725
15255W        W81664  40.963  30.167  13.003
15256W        W81665   1.897  41.337   4.116
15257W        W81666  21.581  34.332  12.331
15258W        W81667  25.111  43.954  14.345
15259W        W81668  20.796  42.993  13.136
15260W        W81669  21.276   4.763  11.692
15261W        W81670   3.332  11.107   1.820
15262W        W81671  37.246  40.678  11.677
15263W        W81672  42.813  30.122  10.637
15264W        W81673   5.896  36.259  12.330
15265W        W81674  32.416  12.901   0.740
15266W        W81675  20.664  31.287  13.322
15267W        W81676  28.629  27.941   0.858
15268W        W81677  17.136   4.649  14.331
15269W        W81678   6.475  29.641   1.754
15270W        W81679  27.560   1.823  11.255
15271W        W81680  33.961   3.036   2.333
15272W        W81681  33.371  26.648  14.011
15273W        W81682  28.048  34.453  12.592
15274W        W81683  23.580   9.425   0.938
15275W        W81684  13.571  15.257  14.367
15276W        W81685   3.427  30.836  10.833
15277W        W81686  26.268  38.445   1.896
15278W        W81687  23.552  25.909  11.383
15279W        W81688  35.988  26.252  11.236
15280W        W81689  24.598  17.580   3.763
15281W        W81690   3.327  42.002   2.829
15282W        W81691   8.710  36.564  12.542
15283W        W81692  37.920  19.701   4.387
15284W        W81693  23.567   8.326   2.453
15285W        W81694  42.065  37.982  13.518
15286W        W81695  22.829   5.696  12.122
15287W        W81696  34.842  33.597   2.193
15288W        W81697   0.466   9.162  13.017
15289W        W81698  39.186  38.908  10.266
15290W        W81699   8.164  33.019   0.716
15291W        W81700  22.275   5.805   4.914
15292W        W81701   1.465  40.879   2.684
15293W        W81702  18.548   8.764   4.100
15294W        W81703  12.345   1.313  14.802
15295W        W81704   2.493  37.768   1.714
15296W        W81705  17.852  29.798   0.926
15297W        W81706  24.480  25.594  10.765
15298W        W81707  40.386   6.399  12.005
15299W        W81708  31.800  32.592  11.895
15300W        W81709   1.548  32.871  11.107
15301W        W81710  20.206  42.424   1.553
15302W        W81711  10.369   2.266   3.533
15303W        W81712  11.860  33.374  11.794
15304W        W81713  22.187  38.772   3.313
15305W        W81714  25.370  38.983  14.019
15306W        W81715   3.901  33.468   4.816
15307W        W81716   8.357  22.157   3.583
15308W        W81717  22.568  24.493   3.186
15309W        W81718  22.313  28.917   3.583
15310W        W81719  44.460  34.038   4.467
15311W        W81720  41.772  20.741   2.346
15312W        W81721  31.884   1.927  11.883
15313W        W81722  13.815  32.838   0.496
15314W        W81723  15.636  43.772   0.848
15315W        W81724  28.444  28.065   2.712
15316W        W81725  40.874  34.493   3.148
15317W        W81726   5.660   1.870  11.394
15318W        W81727  23.005  44.128   0.266
15319W        W81728   6.544  44.003  11.655
15320W        W81729  20.997  30.844  14.054
15321W        W81730  29.919  14.336   0.204
15322W        W81731   7.131   4.894   2.572
15323W        W81732  10.743   9.781   3.685
15324W        W81733   6.651  16.667   0.275
15325W        W81734  31.600  29.361   1.478
15326W        W81735  35.452  28.362   4.686
15327W        W81736   7.732  14.413  11.690
15328W        W81737   2.599  42.057  10.493
15329W        W81738  22.028  42.278  13.222
15330W        W81739  32.573  10.188   1.837
15331W        W81740  44.487  10.357   3.897
15332W        W81741  29.059  40.077  11.122
15333W        W81742   6.894  15.101  13.687
15334W        W81743  24.127   4.505  14.913
15335W        W81744  11.678  22.203   0.786
15336W        W81745  42.834  23.025   0.548
15337W        W81746  31.600  42.988   0.002
15338W        W81747  28.554   7.189  13.396
15339W        W81748   7.974  22.914  12.922
15340W        W81749  30.314  24.894   2.379
15341W        W81750   1.236  13.354   0.049
15342W        W81751  24.019  27.106  11.205
15343W        W81752   9.487   2.251  12.907
15344W        W81753   7.627  39.855  12.525
15345W        W81754  18.552  27.545   1.820
15346W        W81755  25.987  11.434   2.217
15347W        W81756  17.090  37.281  11.585
15348W        W81757  24.621  20.132   4.480
15349W        W81758  36.369  28.118   3.290
15350W        W81759  44.531  12.548  12.635
15351W        W81760   8.067  20.672  12.002
15352W        W81761  38.109  13.979  14.489
15353W        W81762  36.100  12.115   1.316
15354W        W81763  30.556  39.563  10.761
15355W        W81764  11.928  14.920   0.661
15356W        W81765  12.349  20.728  12.403
15357W        W81766  24.181  35.438   2.117
15358W        W81767  26.951   6.456   2.671
15359W        W81768  12.791   1.504   3.636
15360W        W81769   7.833   5.448   1.555
15361W        W81770   8.715  17.368   5.106
15362W        W81771  34.390  31.728  12.580
15363W        W81772  16.705  25.515  10.764
15364W        W81773  21.984  15.884   1.905
15365W        W81774   8.300  19.122  10.967
15366W        W81775   4.600  15.731   0.776
15367W        W81776  34.820  26.534  13.780
15368W        W81777  39.481  25.672   4.446
15369W        W81778  32.987  10.182  14.054
15370W        W81779  29.999  10.534   3.092
15371W        W81780  21.393  24.108   0.459
15372W        W81781   3.743  37.586   1.729
15373W        W81782  39.157  24.385  13.784
15374W        W81783  34.656  16.848  10.919
15375W        W81784  38.855   6.248  11.123
15376W        W81785   5.176  11.762   2.923
15377W        W81786  11.082  34.413  13.510
15378W        W81787  25.662  24.982  13.889
15379W        W81788  11.310  28.570   1.539
15380W        W81789  22.780  28.037  11.911
15381W        W81790   2.989   4.278   2.215
15382W        W81791  19.956   6.235   4.646
15383W        W81792   8.269  20.577  11.549
15384W        W81793   1.109  31.828  10.820
15385W        W81794  40.768  16.849   0.728
15386W        W81795  15.637   2.154   2.971
15387W        W81796  25.543  44.537   2.604
15388W        W81797   4.670  18.511   0.356
15389W        W81798  14.892   7.178  14.422
15390W        W81799   4.344  43.709   4.103
15391W        W81800  43.812  35.060   3.902
15392W        W81801  15.287  26.680  13.530
15393W        W81802   2.898  20.243  11.875
15394W        W81803  38.751  13.134  13.848
15395W        W81804  35.470  43.882  13.115
15396W        W81805  14.584  43.036   1.387
15397W        W81806   4.918  13.548  14.968
15398W        W81807  20.050  24.096  12.878
15399W        W81808   4.532  24.526   0.304
15400W        W81809  18.100  32.085   2.214
15401W        W81810   8.855  18.027   0.489
15402W        W81811  34.621   1.732  11.093
15403W        W81812  40.125  38.965  10.642
15404W        W81813  41.791  25.576   4.218
15405W        W81814  31.142   5.371   1.897
15406W        W81815   7.285   9.238  13.366
15407W        W81816  30.888  22.055  14.886
15408W        W81817  15.332  29.926   0.210
15409W        W81818  23.032   3.970  12.616
15410W        W81819  21.261  10.888   2.196
15411W        W81820   1.855  40.156  14.025
15412W        W81821   8.385  13.694   1.377
15413W        W81822  40.868   0.770   1.428
15414W        W81823  30.110  39.746   0.522
15415W        W81824  13.801  23.253   2.328
15416W        W81825  13.800  26.662  11.229
15417W        W81826   0.453   0.454   1.905
15418W        W81827  12.863  38.337  13.915
15419W        W81828   8.970  10.709  12.492
15420W        W81829  33.231  25.961   3.748
15421W        W81830   4.422  23.099   0.553
15422W        W81831  21.523  17.073  11.013
15423W        W81832  43.807   8.054   4.160
15424W        W81833  13.529   2.907  11.692
15425W        W81834  12.584  24.601   2.789
15426W        W81835  31.054   8.664  12.815
15427W        W81836  28.191  16.778   1.342
15428W        W81837  38.619  31.652  13.267
15429W        W81838  18.674  21.355   4.510
15430W        W81839  23.323   2.499   2.106
15431W        W81840   3.392  24.210   0.120
15432W        W81841   3.197  36.498   4.091
15433W        W81842  41.010  35.378   1.365
15434W        W81843  29.391  39.092   3.770
15435W        W81844   0.160   2.461  12.946
15436W        W81845  35.566  33.418  12.973
15437W        W81846  14.912  23.635   2.803
15438W        W81847  15.179  18.202   3.289
15439W        W81848  29.445  15.940   1.979
15440W        W81849  14.078  22.524  14.663
15441W        W81850   4.502   5.972  13.899
15442W        W81851  25.192   2.923   3.216
15443W        W81852   2.967   7.635  12.165
15444W        W81853   0.529  10.738  13.717
15445W        W81854  13.178  35.971  14.843
15446W        W81855   6.643  26.261  12.093
15447W        W81856  31.593   8.286   1.653
15448W        W81857  13.156  22.731  14.682
15449W        W81858  20.156   7.363  13.508
15450W        W81859   6.463  23.083  12.558
15451W        W81860  12.526   6.590  12.421
15452W        W81861  11.704   0.323  11.640
15453W        W81862  11.756  28.384   3.145
15454W        W81863   3.754   5.439   4.757
15455W        W81864  14.228  20.755  11.634
15456W        W81865   8.269  30.044   4.296
15457W        W81866   8.463  44.740   4.209
15458W        W81867  41.471  36.771   2.239
15459W        W81868  17.257  43.163  14.519
15460W        W81869  34.537  34.329  13.286
15461W        W81870  27.113  15.265  10.735
15462W        W81871  12.589  25.937  14.901
15463W        W81872  31.641  41.569   2.886
15464W        W81873  10.228   2.515  12.399
15465W        W81874  20.160   5.996  10.302
15466W        W81875   5.283  23.762   1.818
15467W        W81876  21.600  34.438  13.849
15468W        W81877   8.150   5.055   4.923
15469W        W81878  25.947  10.107  12.521
15470W        W81879  35.026  16.823  13.372
15471W        W81880  32.070  19.176  14.449
15472W        W81881  43.967  41.585   0.821
15473W        W81882  38.577   2.271  12.407
15474W        W81883  20.472  32.105   0.240
15475W        W81884   0.456   1.617  14.373
15476W        W81885  10.743  37.284   3.593
15477W        W81886  44.466  16.308   1.774
15478W        W81887   9.531  28.599   3.066
15479W        W81888  42.891  28.178   0.817
15480W        W81889   1.799  24.594   2.739
15481W        W81890  32.062   8.971  14.330
15482W        W81891  42.338  23.952  11.578
15483W        W81892   5.227   0.907  12.790
15484W        W81893  32.188  21.066   0.488
15485W        W81894  40.636  38.893   1.980
15486W        W81895  20.737  39.380  13.965
15487W        W81896  22.718   3.076  10.280
15488W        W81897  19.715   1.633   1.386
15489W        W81898  41.842  38.321  12.495
15490W        W81899  31.270  20.606   3.165
15491W        W81900   2.197  30.170   2.854
15492W        W81901  15.377  26.156  11.915
15493W        W81902  12.323  16.336   2.398
15494W        W81903  16.173   8.590   1.950
15495W        W81904  38.170  43.181   1.387
15496W        W81905  22.682  18.893   0.856
15497W        W81906  36.085   5.280   2.747
15498W        W81907   3.848  28.894  12.115
15499W        W81908  42.759  19.899   4.594
15500W        W81909  27.882  31.111   3.420
15501W        W81910  26.134  21.591   3.802
15502W        W81911   7.980   9.925  13.555
15503W        W81912  41.962  37.451   2.167
15504W        W81913  35.845  11.326  10.660
15505W        W81914  28.176  17.848   2.182
15506W        W81915  12.887   9.816   4.091
15507W        W81916  23.711  15.464  13.994
15508W        W81917  16.394  40.292   0.316
15509W        W81918  29.005  30.366   2.008
15510W        W81919  42.668   4.689   2.171
15511W        W81920  13.017  13.237  13.948
15512W        W81921  40.502  24.468  13.502
15513W        W81922  32.887  32.053   1.944
15514W        W81923  32.949  21.269  12.421
15515W        W81924   4.288  31.220   4.071
15516W        W81925  36.059  34.977   1.472
15517W        W81926   1.804  21.694  13.066
15518W        W81927  11.860  19.228  12.474
15519W        W81928  12.161  11.675  13.046
15520W        W81929  11.374  14.589   3.694
15521W        W81930  11.139  44.941  11.557
15522W        W81931  20.024  17.291  14.783
15523W        W81932  31.202  11.187  11.917
15524W        W81933  36.801  10.644   1.697
15525W        W81934  12.691  10.129  12.492
15526W        W81935  23.131  15.514   0.298
15527W        W81936  18.204   6.261   2.360
15528W        W81937  15.180  22.547   1.815
15529W        W81938  44.915  32.836   3.429
15530W        W81939  22.673  10.178  11.569
15531W        W81940  26.742  11.645  10.616
15532W        W81941  17.882  44.024  14.448
15533W        W81942  21.479  17.635  14.229
15534W        W81943   1.590  22.324   1.758
15535W        W81944  15.094  35.161  14.721
15536W        W81945  25.934   9.665  13.413
15537W        W81946   2.750  11.659  12.055
15538W        W81947  29.554  26.904  14.599
15539W        W81948   9.097  30.719   0.660
15540W        W81949  34.366  36.917  12.077
15541W        W81950   9.719   5.700  12.007
15542W        W81951  37.315   1.875   3.167
15543W        W81952  20.764  11.687   4.415
15544W        W81953  33.411  15.765  13.557
15545W        W81954   5.941  15.338   4.543
15546W        W81955  37.464  17.712   3.230
15547W        W81956  39.114  15.312   3.752
15548W        W81957  31.904  36.130  14.302
15549W        W81958  24.116  39.381   4.636
15550W        W81959  35.369  21.156  13.392
15551W        W81960  17.965   4.689   0.308
15552W        W81961  36.914   7.713  13.987
15553W        W81962  29.624  13.447  11.608
15554W        W81963  26.897   6.176   1.681
15555W        W81964  40.334  21.962   3.248
15556W        W81965  40.802   9.801  13.037
15557W        W81966  22.047  43.370   4.838
15558W        W81967  12.755  13.377  12.148
15559W        W81968  34.371  20.585   4.303
15560W        W81969  22.183  12.827   2.696
15561W        W81970  12.703  23.644   2.758
15562W        W81971  42.105   6.171   1.433
15563W        W81972  19.108   1.869  13.059
15564W        W81973   1.250  15.670   2.096
15565W        W81974   2.379  17.262  13.451
15566W        W81975  42.516  22.480  14.765
15567W        W81976  29.670  40.580  10.110
15568W        W81977  14.663  27.211  14.749
15569W        W81978  10.727   0.483  14.638
15570W        W81979  40.987  35.282  14.976
15571W        W81980  13.795   8.698  12.691
15572W        W81981  35.549  42.424  14.361
15573W        W81982  12.100  23.688   9.835
15574W        W81983   3.724   2.948   0.405
15575W        W81984  26.718  32.933   3.157
15576W        W81985  18.844  23.412  14.831
15577W        W81986  38.964   1.037  11.677
15578W        W81987  21.177   3.921  12.895
15579W        W81988  39.912  37.236   3.595
15580W        W81989  31.092  40.647  11.726
15581W        W81990  41.133  41.804   2.450
15582W        W81991   9.379   7.152  13.921
15583W        W81992  29.961  41.203  12.331
15584W        W81993  17.834  18.691  13.380
15585W        W81994   1.017  35.521   3.611
15586W        W81995  13.812  11.269  13.433
15587W        W81996  31.906  37.748  10.755
15588W        W81997  20.558   4.465  13.805
15589W        W81998   5.802  43.932   2.282
15590W        W81999  14.597  27.491   1.928
15591W        W82000  19.845  34.497   0.554
15592W        W82001  21.127  28.648  14.274
15593W        W82002  13.558  13.681  14.417
15594W        W82003  40.539  27.356   4.137
15595W        W82004  20.430  11.251   4.598
15596W        W82005  41.894  21.050  11.535
15597W        W82006  18.961   7.452   4.586
15598W        W82007  18.758  23.658  10.776
15599W        W82008  25.926  34.952   4.960
15600W        W82009  20.244  36.432   4.258
15601W        W82010  29.704  33.880  13.272
15602W        W82011   6.226  15.202  14.310
15603W        W82012  28.058   9.692   3.518
15604W        W82013   8.941  43.393   2.199
15605W        W82014  15.756  21.733  10.800
15606W        W82015  25.859   5.473   0.804
15607W        W82016  34.634  27.591  11.072
15608W        W82017  11.192   0.785   0.409
15609W        W82018  40.043  40.374   2.802
15610W        W82019  19.513  15.681  13.564
15611W        W82020   8.172   7.412   1.325
15612W        W82021  31.504  42.804   1.439
15613W        W82022   6.243  12.335  11.102
15614W        W82023  25.902  15.061   1.181
15615W        W82024  30.768   9.574  10.716
15616W        W82025   8.330   8.808   2.824
15617W        W82026  16.164  22.595   1.420
15618W        W82027  31.230  30.154   1.019
15619W        W82028  34.842   8.742   0.576
15620W        W82029  22.042  26.757   3.142
15621W        W82030  24.759   8.350   5.388
15622W        W82031   1.274   7.744  13.194
15623W        W82032  23.742   2.801  12.541
15624W        W82033  35.310  21.605  13.091
15625W        W82034  29.210   4.388  10.839
15626W        W82035  15.293   7.389   2.744
15627W        W82036  16.312  11.970  11.583
15628W        W82037  41.287  42.934  13.024
15629W        W82038  10.610  43.014  11.063
15630W        W82039  10.750  20.700  10.812
15631W        W82040  11.065  14.226   4.501
15632W        W82041  15.090  15.538  12.230
15633W        W82042  19.401   3.599   3.838
15634W        W82043  42.374  31.989   1.869
15635W        W82044  33.945  23.541   1.790
15636W        W82045  30.513  40.756   2.770
15637W        W82046  18.230  24.146  11.417
15638W        W82047   2.614   0.344   2.620
15639W        W82048  31.531  28.118  14.325
15640W        W82049  28.645  14.965  12.090
15641W        W82050  39.565  38.348   1.807
15642W        W82051   1.798   9.509   0.978
15643W        W82052   3.768  34.916  10.717
15644W        W82053  27.466  38.769   3.319
15645W        W82054  42.755  35.362   0.010
15646W        W82055  13.612  21.496   2.779
15647W        W82056  27.552   8.539   3.540
15648W        W82057  34.903  23.505  12.912
15649W        W82058  21.826   3.368  14.403
15650W        W82059  13.308  15.226  10.658
15651W        W82060   6.264  26.057   3.141
15652W        W82061  20.551  31.723   2.582
15653W        W82062  43.888  34.513   4.299
15654W        W82063  21.439  18.051  13.934
15655W        W82064  41.857   1.214  13.822
15656W        W82065   8.371  12.369  14.554
15657W        W82066   0.676  22.436   0.230
15658W        W82067  20.047  29.509  14.455
15659W        W82068  25.676  25.523  14.289
15660W        W82069  21.063  17.411   2.224
15661W        W82070   6.827  22.626   5.584
15662W        W82071  38.150  37.209   1.977
15663W        W82072  14.057  29.195  12.990
15664W        W82073  38.719  10.391  10.293
15665W        W82074  22.818  17.769  14.864
15666W        W82075  33.978   4.861   2.276
15667W        W82076  18.144  20.303   0.291
15668W        W82077   4.909  21.206  13.883
15669W        W82078  11.080  30.273   4.618
15670W        W82079  22.716  20.705   0.480
15671W        W82080  13.061   7.161   1.965
15672W        W82081  30.839  44.428   3.285
15673W        W82082   1.948  43.929   4.325
15674W        W82083  39.907  32.852  11.991
15675W        W82084  36.155   3.257   0.301
15676W        W82085   4.165   8.302   0.961
15677W        W82086  35.010  40.752   1.269
15678W        W82087  43.702  42.784  11.446
15679W        W82088  32.979  20.080  12.094
15680W        W82089  10.461  20.223  10.682
15681W        W82090  22.473  28.518   0.005
15682W        W82091  23.795  14.084  13.696
15683W        W82092  32.395  25.214   0.350
15684W        W82093  15.818  20.007  12.875
15685W        W82094  26.094   1.818   1.210
15686W        W82095  24.488  14.404  12.972
15687W        W82096  30.294  35.470  11.477
15688W        W82097  14.889   4.072  12.918
15689W        W82098  38.896   3.682  13.875
15690W        W82099  14.589   9.586  11.924
15691W        W82100  39.262  22.558  10.289
15692W        W82101  36.376  19.347  12.921
15693W        W82102  38.528  27.037   4.698
15694W        W82103  41.821   7.705   3.058
15695W        W82104  32.512  35.325   4.689
15696W        W82105   3.032  39.514  11.148
15697W        W82106   9.570  44.769   3.319
15698W        W82107  20.596   6.771  12.911
15699W        W82108   6.376  21.223  12.555
15700W        W82109  10.503  25.957  12.772
15701W        W82110  35.669  33.160  11.609
15702W        W82111  44.252  39.492   3.239
15703W        W82112  10.523  44.170  11.267
15704W        W82113  11.733  42.668   0.007
15705W        W82114   9.629  42.511  13.458
15706W        W82115  25.544   3.300  14.978
15707W        W82116  26.753   6.338   0.028
15708W        W82117  16.750  33.887   2.883
15709W        W82118  32.692  26.549   2.006
15710W        W82119  31.008  11.140  11.062
15711W        W82120   5.324  29.244   1.193
15712W        W82121  16.735  29.323   1.418
15713W        W82122  37.768  18.733  13.283
15714W        W82123  23.668  29.562   0.916
15715W        W82124   8.907  24.687  11.769
15716W        W82125  42.389  31.944  11.387
15717W        W82126  34.088   1.659  13.940
15718W        W82127  40.200  10.698   4.497
15719W        W82128   5.815  15.312   3.244
15720W        W82129  18.467  24.909  10.943
15721W        W82130   6.154   5.464  12.611
15722W        W82131   5.896  16.166   4.745
15723W        W82132  17.712  11.160  13.426
15724W        W82133  17.153  38.998   1.748
15725W        W82134  14.697  23.561  10.365
15726W        W82135  39.507  15.827   4.209
15727W        W82136  40.496  40.661  12.447
15728W        W82137  22.984  18.907  12.596
15729W        W82138  26.607  17.166  10.372
15730W        W82139  36.121   0.874  13.727
15731W        W82140  10.460  39.729   4.631
15732W        W82141  38.202   8.624   0.001
15733W        W82142  18.690  36.496  10.461
15734W        W82143   6.217   4.913  11.349
15735W        W82144  16.218   9.672  12.059
15736W        W82145  32.845  37.168  14.849
15737W        W82146  11.619  15.969  10.978
15738W        W82147  11.684  26.858  10.479
15739W        W82148  40.301  32.584   0.205
15740W        W82149   0.638  19.278  12.448
15741W        W82150  24.767  33.971  13.266
15742W        W82151  11.840  27.939   2.853
15743W        W82152  18.708  28.479  14.024
15744W        W82153  20.535   3.310  14.990
15745W        W82154  22.643  42.091  11.646
15746W        W82155  18.260  11.370  13.581
15747W        W82156  31.040  11.861   0.169
15748W        W82157  22.744  35.885   2.130
15749W        W82158  17.768  42.206   1.175
15750W        W82159  26.604   0.337   4.598
15751W        W82160   6.496  44.841  11.508
15752W        W82161  36.055  17.279   1.677
15753W        W82162   8.007   6.881   1.925
15754W        W82163   3.199  40.487  12.629
15755W        W82164  30.019  22.981   4.637
15756W        W82165  26.933  18.041   4.701
15757W        W82166  42.160  16.144  12.405
15758W        W82167  11.430  43.781   1.576
15759W        W82168  22.994  24.916   4.055
15760W        W82169   9.875  10.745   4.235
15761W        W82170  34.063   8.801   1.182
15762W        W82171  10.801  43.113   2.132
15763W        W82172  37.433  24.158  14.993
15764W        W82173  43.539   5.778   4.640
15765W        W82174   9.199  36.049   2.493
15766W        W82175  34.605  32.675   0.782
15767W        W82176  29.007  30.402  14.510
15768W        W82177  41.877  44.406   2.442
15769W        W82178  12.754   3.971  14.463
15770W        W82179  21.063  26.855  13.101
15771W        W82180  34.354  30.840  14.653
15772W        W82181  40.510  12.378   0.933
15773W        W82182  17.430  38.067   4.233
15774W        W82183  42.216  33.677   1.117
15775W        W82184  27.745  33.732   0.164
15776W        W82185   1.039  32.332  10.750
15777W        W82186   6.793  17.089   3.676
15778W        W82187  10.742   7.306  11.019
15779W        W82188  36.049  43.252   4.291
15780W        W82189  11.463  28.219  10.072
15781W        W82190  20.673  21.642  12.937
15782W        W82191   8.910  31.956  12.901
15783W        W82192   7.230  31.019   4.492
15784W        W82193  37.500  40.390   4.577
15785W        W82194  24.048  13.642   4.631
15786W        W82195   7.722  27.560  12.721
15787W        W82196  13.606  16.746  14.556
15788W        W82197  31.012  37.297   4.226
15789W        W82198   8.808  32.555   0.240
15790W        W82199  29.483   5.547  10.588
15791W        W82200  34.787  43.900  14.959
15792W        W82201  17.035   5.336   2.717
15793W        W82202  21.988  31.609   1.012
15794W        W82203  19.076  27.668   1.837
15795W        W82204  21.654  36.549   3.309
15796W        W82205  11.782   9.707  13.365
15797W        W82206  34.734   4.295   2.399
15798W        W82207  16.650  32.565  13.551
15799W        W82208   8.691  16.082   0.901
15800W        W82209  17.965  24.558   2.211
15801W        W82210  24.612  38.664   4.923
15802W        W82211  31.759  32.922   4.529
15803W        W82212  19.018  22.670  11.250
15804W        W82213   7.001  23.456  10.236
15805W        W82214  15.689  40.550   1.321
15806W        W82215  39.691  37.466   3.160
15807W        W82216   5.802   0.426   3.722
15808W        W82217   3.230  42.919   4.423
15809W        W82218  44.419  19.802   0.535
15810W        W82219  25.230   6.971   2.118
15811W        W82220   7.832   8.255  10.650
15812W        W82221  43.897  27.609  11.207
15813W        W82222  11.407  18.453  11.095
15814W        W82223  19.933  29.931   2.258
15815W        W82224  14.557  32.595   2.957
15816W        W82225  37.622  19.718   2.468
15817W        W82226  30.241   8.770   0.278
15818W        W82227   9.194  19.495  10.743
15819W        W82228  34.686  26.323  11.587
15820W        W82229  19.002  20.119   2.698
15821W        W82230   8.321  40.764   1.452
15822W        W82231  12.140  38.765   2.394
15823W        W82232  27.656  10.386   3.178
15824W        W82233  16.095   5.835  12.927
15825W        W82234   1.188   3.809  12.424
15826W        W82235  42.938  29.706   4.636
15827W        W82236  34.383  33.919   3.761
15828W        W82237   3.434   8.835  13.558
15829W        W82238  13.765  21.173  11.419
15830W        W82239  16.310  39.305   2.727
15831W        W82240  29.470  40.220   3.071
15832W        W82241  20.382  42.991   2.651
15833W        W82242   8.733  34.380  10.283
15834W        W82243  12.158  38.625  12.195
15835W        W82244  27.050  17.274  11.621
15836W        W82245   1.805   6.738   1.284
15837W        W82246  10.597  10.106  12.988
15838W        W82247  40.148  31.172   4.223
15839W        W82248   1.741  15.828  11.208
15840W        W82249  32.238  16.392  13.469
15841W        W82250  10.179  15.773   0.480
15842W        W82251  34.315  14.737  11.000
15843W        W82252  15.772   7.066   0.513
15844W        W82253  24.426  20.750   5.030
15845W        W82254  28.324  29.945  10.328
15846W        W82255  13.384  11.797  14.331
15847W        W82256  27.348  31.854  12.073
15848W        W82257  41.936  21.109  12.026
15849W        W82258  35.942  11.426   1.829
15850W        W82259   1.440  20.723  13.835
15851W        W82260  22.434  14.976   2.247
15852W        W82261  34.092  30.990   0.527
15853W        W82262   3.208  32.763  11.314
15854W        W82263  14.798  25.808  14.254
15855W        W82264  34.105   4.675  13.451
15856W        W82265  12.675  41.822   1.418
15857W        W82266  27.179   7.895   4.062
15858W        W82267  11.234  17.183   1.048
15859W        W82268  24.238  32.560  10.713
15860W        W82269  29.123  38.019  11.209
15861W        W82270  17.762  15.264  14.019
15862W        W82271  16.557  38.182   9.819
15863W        W82272  35.615  29.037  13.867
15864W        W82273  20.594  22.657  11.992
15865W        W82274  31.961   9.018  13.458
15866W        W82275  23.322  12.712   5.003
15867W        W82276  30.031  30.917  14.084
15868W        W82277  32.143  11.333  12.103
15869W        W82278  43.033  16.939  11.442
15870W        W82279  22.668  30.010  12.912
15871W        W82280  39.275  15.302   1.344
15872W        W82281  36.508  24.176  10.625
15873W        W82282  37.463  38.923  13.250
15874W        W82283   1.412   2.814  14.388
15875W        W82284  12.775  36.924   2.279
15876W        W82285  26.753  31.765  11.213
15877W        W82286   7.496   8.681  10.798
15878W        W82287   9.406  35.829   1.691
15879W        W82288  44.181  16.541   4.465
15880W        W82289  18.514   1.907  10.699
15881W        W82290  21.680  42.471   0.471
15882W        W82291  12.312  30.580  12.413
15883W        W82292  21.989  19.556   3.180
15884W        W82293  21.956  20.553  12.223
15885W        W82294  43.136  18.994  12.918
15886W        W82295   0.208  29.705  12.902
15887W        W82296  32.376  35.133   0.835
15888W        W82297  16.082   4.610   3.203
15889W        W82298  19.273  24.206   1.605
15890W        W82299   6.616  21.995  14.895
15891W        W82300   0.921  41.095  13.052
15892W        W82301  27.818  38.986  13.627
15893W        W82302  32.413  29.119  12.583
15894W        W82303   6.405  33.245  13.566
15895W        W82304  44.730  27.924  10.110
15896W        W82305  39.921  27.573  13.166
15897W        W82306  11.320  14.041   3.649
15898W        W82307  22.697   0.202  11.106
15899W        W82308  32.982  37.869   2.424
15900W        W82309   7.408  22.394  12.427
15901W        W82310  28.968  18.796   4.145
15902W        W82311  16.638  44.359   4.402
15903W        W82312  39.337  42.387  10.354
15904W        W82313  12.265  42.513   1.641
15905W        W82314   8.607  23.493   0.510
15906W        W82315  16.904  23.720   2.377
15907W        W82316  12.988  41.590   4.970
15908W        W82317  43.536  44.511  13.979
15909W        W82318  37.159  38.826   3.900
15910W        W82319  34.840  21.710  14.886
15911W        W82320  41.939  23.262  14.988
15912W        W82321  34.848  10.505  13.831
15913W        W82322  38.064  37.305  10.648
15914W        W82323  30.417  35.442   4.787
15915W        W82324  42.231  13.318   0.264
15916W        W82325  40.343   8.611   9.849
15917W        W82326  32.931  25.124   0.720
15918W        W82327  19.675   3.343   0.796
15919W        W82328  18.859  43.945  14.340
15920W        W82329   7.326   3.947   0.192
15921W        W82330  14.403  13.678   3.908
15922W        W82331  30.060  31.905   1.776
15923W        W82332  15.395  24.277  11.926
15924W        W82333  20.578  16.668   4.626
15925W        W82334  29.500  25.673   4.108
15926W        W82335  31.137  18.531   2.333
15927W        W82336  27.046  18.596  11.112
15928W        W82337   3.400  24.381   2.079
15929W        W82338  20.706  41.719   3.137
15930W        W82339  40.468  33.379   1.423
15931W        W82340  40.636   8.631  13.307
15932W        W82341  25.033  16.678  11.699
15933W        W82342  32.418  44.259  12.878
15934W        W82343   8.479  23.011  11.603
15935W        W82344   9.733   6.154   0.687
15936W        W82345  22.239  24.553   3.858
15937W        W82346  14.172  32.183   2.305
15938W        W82347  17.778  35.465   0.884
15939W        W82348  25.757  14.336   5.029
15940W        W82349  35.145   3.756   1.770
15941W        W82350   5.611  22.607  13.751
15942W        W82351  39.072  32.549   4.894
15943W        W82352   6.448   3.771   4.640
15944W        W82353   8.375  36.504   2.870
15945W        W82354  17.871  11.410   0.203
15946W        W82355  17.337  27.412   3.286
15947W        W82356  18.818   5.884  14.345
15948W        W82357  32.842   9.623  11.508
15949W        W82358  31.511  44.999  10.883
15950W        W82359  32.711  13.697  12.455
15951W        W82360  36.917  34.344  10.716
15952W        W82361   6.181  16.633  12.070
15953W        W82362  35.158  37.012  10.738
15954W        W82363  20.155  38.842  14.617
15955W        W82364  25.650  29.057  13.955
15956W        W82365  15.604  10.396  14.586
15957W        W82366  11.762  10.427   2.377
15958W        W82367  21.691   8.688  12.465
15959W        W82368  32.377  40.990   1.447
15960W        W82369  25.248  10.606   0.338
15961W        W82370  41.025  13.137   4.290
15962W        W82371  33.627  21.247   2.356
15963W        W82372   9.623  44.751   2.384
15964W        W82373  19.113   3.176  12.371
15965W        W82374  12.867   5.730   2.723
15966W        W82375  36.774   4.250   2.200
15967W        W82376   9.115  42.513   1.211
15968W        W82377  19.138  11.184   2.657
15969W        W82378  37.792  35.565  11.141
15970W        W82379  40.652  40.893  12.000
15971W        W82380  41.005  15.732  12.164
15972W        W82381  15.228  35.947  12.593
15973W        W82382  11.647   6.836  12.940
15974W        W82383   5.701  13.543  13.276
15975W        W82384   6.535   6.247   4.969
15976W        W82385  10.285  31.793   4.111
15977W        W82386  12.602  29.564  11.652
15978W        W82387  24.461  20.999  14.923
15979W        W82388  42.284  43.990  10.696
15980W        W82389  27.063  14.658   1.387
15981W        W82390   1.859  21.634   2.171
15982W        W82391  35.520  43.332   1.740
15983W        W82392  15.893  24.161  12.840
15984W        W82393  34.982   6.389   3.720
15985W        W82394  42.410   9.334  13.504
15986W        W82395   9.907  21.589   0.301
15987W        W82396  20.602  38.873  12.855
15988W        W82397  42.766   2.370  14.863
15989W        W82398  27.923  17.069  13.480
15990W        W82399  40.189  14.683   1.719
15991W        W82400   4.034  43.200   3.060
15992W        W82401  32.042  26.834   2.742
15993W        W82402  24.093  39.478   0.226
15994W        W82403   3.741  16.630  10.630
15995W        W82404  25.200  40.960  13.152
15996W        W82405  24.630  11.093   0.009
15997W        W82406  38.975  36.590  11.503
15998W        W82407  33.947  21.472  13.371
15999W        W82408   4.333  36.098   1.282
16000W        W82409   7.573  24.677   3.063
16001W        W82410  16.885  21.476  13.974
16002W        W82411  20.640  17.775   3.768
16003W        W82412   5.194  14.434   0.886
16004W        W82413  10.586  21.601  13.920
16005W        W82414  16.525   1.365  14.359
16006W        W82415  17.208  14.100   1.632
16007W        W82416  37.838   0.213  14.565
16008W        W82417   2.310  29.690   2.768
16009W        W82418  37.816  38.055  14.126
16010W        W82419   2.954  30.110   2.302
16011W        W82420  23.070   0.344  13.821
16012W        W82421  21.478   1.747  14.232
16013W        W82422  21.168  24.688   1.416
16014W        W82423  28.155  22.562   1.886
16015W        W82424  43.717  19.300  11.905
16016W        W82425  19.246  44.928  10.560
16017W        W82426  22.662  29.176   4.451
16018W        W82427   8.218  39.872   1.961
16019W        W82428  20.853  19.291  14.834
16020W        W82429  30.482  19.165   2.667
16021W        W82430  25.848  14.813   3.453
16022W        W82431  42.652  16.057   3.620
16023W        W82432  42.455  31.025   1.807
16024W        W82433  20.038  21.246   3.645
16025W        W82434  42.936  34.047   2.831
16026W        W82435   1.147  26.172   0.513
16027W        W82436  42.932  41.924   2.368
16028W        W82437  41.233  31.250  14.034
16029W        W82438  10.829  23.100   3.661
16030W        W82439   1.864  11.156  13.474
16031W        W82440  25.000  10.897   4.546
16032W        W82441   2.849  35.356  10.650
16033W        W82442  22.126  41.372  13.987
16034W        W82443  31.990   6.861  12.348
16035W        W82444  23.668   9.830   1.873
16036W        W82445  31.584  30.533   4.083
16037W        W82446  12.410  43.758   3.578
16038W        W82447  32.443  43.650   2.622
16039W        W82448  15.691  18.015   1.857
16040W        W82449  26.151  42.869   4.188
16041W        W82450  35.280  40.025  11.063
16042W        W82451   5.592  37.246  12.909
16043W        W82452  30.145   4.104   0.081
16044W        W82453  39.950  20.023   4.043
16045W        W82454  19.566   9.281   1.189
16046W        W82455  37.924  43.556   0.475
16047W        W82456  43.154  21.245  11.605
16048W        W82457  10.712   8.457  13.334
16049W        W82458  34.607  25.385   2.009
16050W        W82459  29.553   2.965  14.588
16051W        W82460  38.955  34.764  11.711
16052W        W82461  10.342   1.911   4.147
16053W        W82462  31.360  15.573   3.829
16054W        W82463   6.216  37.574   3.299
16055W        W82464   0.437  20.478   2.324
16056W        W82465  24.241  12.181   2.831
16057W        W82466  39.504  32.188   1.423
16058W        W82467  43.762  35.092  11.956
16059W        W82468  10.272  38.781  11.998
16060W        W82469  30.099   6.248   1.825
16061W        W82470  36.755  20.564  13.885
16062W        W82471  27.398  22.896  13.791
16063W        W82472  23.808  29.066  11.054
16064W        W82473   1.948   8.182   1.692
16065W        W82474  41.793  29.481   3.368
16066W        W82475  33.579  40.680  13.522
16067W        W82476  42.905  42.407   0.297
16068W        W82477  10.378  14.216  10.317
16069W        W82478  42.882   6.378  13.289
16070W        W82479   9.264  19.045   3.354
16071W        W82480  36.531  22.911   0.311
16072W        W82481  13.043  25.016   0.200
16073W        W82482   3.870  18.334  13.428
16074W        W82483  27.779   5.742   4.139
16075W        W82484   8.249  43.043   1.493
16076W        W82485  44.959   6.544   0.233
16077W        W82486  31.376  24.412  10.866
16078W        W82487  13.151   9.080   9.910
16079W        W82488  33.963  15.691   3.395
16080W        W82489   9.242  21.623   0.874
16081W        W82490   5.551  34.386  11.562
16082W        W82491   2.540  40.905  11.660
16083W        W82492  18.541  42.911  12.472
16084W        W82493   3.356  38.052  12.901
16085W        W82494  19.168  41.009  14.780
16086W        W82495  20.290   3.982  12.722
16087W        W82496  31.411  31.007  11.108
16088W        W82497  11.792  11.152   1.357
16089W        W82498  27.687   3.163  12.803
16090W        W82499  28.531  23.477  10.947
16091W        W82500   1.656  25.580   1.415
16092W        W82501  21.529   6.286  14.501
16093W        W82502  11.331  39.520  11.575
16094W        W82503   8.246  28.014  11.401
16095W        W82504  19.514   2.814   1.875
16096W        W82505   2.973  16.748   1.516
16097W        W82506  18.003   1.541   2.778
16098W        W82507  20.540  12.612  11.856
16099W        W82508  28.479  20.161   0.901
16100W        W82509  24.546  39.491   0.482
16101W        W82510  13.395  44.013  12.575
16102W        W82511  21.314  25.993   1.837
16103W        W82512  29.873   6.207  10.932
16104W        W82513   5.248   2.280   4.793
16105W        W82514   1.033   4.425  11.150
16106W        W82515  20.008   1.277  13.815
16107W        W82516  36.622  36.971  14.005
16108W        W82517  16.699  30.388  10.604
16109W        W82518  30.672  21.006  14.023
16110W        W82519   0.851  10.917  14.917
16111W        W82520  20.541  14.304  13.593
16112W        W82521  40.361  42.448   4.282
16113W        W82522  12.783   8.204   4.978
16114W        W82523  39.999  15.553  11.227
16115W        W82524  39.625  37.560  13.523
16116W        W82525  10.236  10.378   3.834
16117W        W82526  29.508  26.190  12.557
16118W        W82527   0.944  27.482  13.524
16119W        W82528  24.012  21.541  11.744
16120W        W82529  40.838  20.883   0.363
16121W        W82530  26.760  16.458  13.046
16122W        W82531   1.694  39.269  14.990
16123W        W82532   8.202   4.960  10.424
16124W        W82533  31.329  29.105  14.308
16125W        W82534   4.187  32.962  13.923
16126W        W82535  32.734  23.495   0.920
16127W        W82536  43.582  30.165   1.956
16128W        W82537  22.001  41.319   3.384
16129W        W82538   7.753   0.416  14.981
16130W        W82539   5.148  13.290  11.474
16131W        W82540  27.599  41.929   4.563
16132W        W82541   6.171  14.322  11.624
16133W        W82542  30.406  15.080  12.183
16134W        W82543  21.834   9.848   0.345
16135W        W82544   8.904  24.711  12.637
16136W        W82545  35.172  26.368  11.226
16137W        W82546  29.651   6.403   3.611
16138W        W82547  42.231  16.810  11.691
16139W        W82548  27.622  33.723  13.369
16140W        W82549  11.874  13.645   1.591
16141W        W82550  17.655  44.776  12.099
16142W        W82551  22.686  41.496   3.791
16143W        W82552  21.772  30.771   4.736
16144W        W82553  28.994  26.713   3.161
16145W        W82554  30.070  33.149  11.558
16146W        W82555  40.532  28.174   3.678
16147W        W82556  31.110  16.951  11.163
16148W        W82557  21.120  25.496   4.875
16149W        W82558   5.583  10.207   3.301
16150W        W82559  30.347  42.367  14.858
16151W        W82560  12.843  11.598   2.671
16152W        W82561   8.840  17.169  13.299
16153W        W82562  19.633  33.700  13.073
16154W        W82563  21.792  24.743   2.688
16155W        W82564  36.137  44.678  13.864
16156W        W82565  16.997  17.787   1.856
16157W        W82566  26.595  18.991   2.681
16158W        W82567  35.943  40.878   1.282
16159W        W82568  32.702  28.813  13.881
16160W        W82569  40.655  28.650   2.760
16161W        W82570  22.009  27.730  14.924
16162W        W82571  22.450  27.515   3.534
16163W        W82572  35.909  10.299   4.133
16164W        W82573  11.452  15.962  14.224
16165W        W82574  38.170   1.872  14.807
16166W        W82575   1.229  14.556   3.427
16167W        W82576  35.591  39.174  11.409
16168W        W82577  18.243  26.060   4.793
16169W        W82578  11.142  39.084   4.139
16170W        W82579  18.143  33.846  14.591
16171W        W82580  43.002   2.429  12.503
16172W        W82581  21.197  35.467   4.214
16173W        W82582   5.777  35.829  14.447
16174W        W82583  37.090  13.231   1.892
16175W        W82584  15.772  24.601  14.297
16176W        W82585  13.830  39.629   1.333
16177W        W82586  32.014  33.016  10.681
16178W        W82587  19.088   0.009  11.882
16179W        W82588   9.616  44.171  11.993
16180W        W82589  18.510   7.650   0.737
16181W        W82590  34.873  24.642  14.008
16182W        W82591   1.609   0.377   3.732
16183W        W82592  31.714  32.132  13.935
16184W        W82593  44.761  15.221   4.399
16185W        W82594  38.945  19.340   3.550
16186W        W82595  11.561  31.555   4.869
16187W        W82596   6.765  10.154   2.813
16188W        W82597  14.165  16.671   1.243
16189W        W82598  14.694  12.837   2.225
16190W        W82599   3.895   7.322  11.267
16191W        W82600  26.469  38.544   4.438
16192W        W82601   9.364   3.113   0.498
16193W        W82602  21.700  18.979   4.004
16194W        W82603   0.681  15.163   0.768
16195W        W82604  34.556  22.949   0.988
16196W        W82605  36.812   7.404  14.394
16197W        W82606  24.892   5.860  14.646
16198W        W82607   8.910   0.180   1.411
16199W        W82608  16.669  11.206  14.466
16200W        W82609   3.384  16.399   0.003
16201W        W82610  15.273   7.117   1.314
16202W        W82611  14.298  36.292  12.515
16203W        W82612  10.974   3.819   3.165
16204W        W82613  21.572  34.159  13.402
16205W        W82614   2.894  12.678   3.171
16206W        W82615  23.054   8.151  12.163
16207W        W82616   7.869   6.253  14.950
16208W        W82617   9.170  30.606  14.382
16209W        W82618  12.663   5.474   0.234
16210W        W82619  25.348  41.109   0.987
16211W        W82620   8.755  32.631   2.811
16212W        W82621  36.658  18.026  11.108
16213W        W82622   4.236  13.257  12.365
16214W        W82623   5.327   7.332   1.382
16215W        W82624  37.653  43.519  13.960
16216W        W82625  31.954  44.477   0.268
16217W        W82626   7.964  16.632  14.814
16218W        W82627   9.810   6.716   4.555
16219W        W82628  11.261  17.242   0.485
16220W        W82629   6.904  33.306   2.337
16221W        W82630  28.809   5.221   1.293
16222W        W82631  29.939   9.392   2.203
16223W        W82632  17.736  11.772   1.138
16224W        W82633  37.253  35.949  14.264
16225W        W82634  20.292  34.505   1.434
16226W        W82635  11.362   6.395  14.795
16227W        W82636  18.115  29.283   3.193
16228W        W82637  17.073  11.582   2.779
16229W        W82638   4.399  21.077   1.364
16230W        W82639  26.601  35.828   4.670
16231W        W82640  26.016  21.001   4.526
16232W        W82641  10.300  29.207  12.646
16233W        W82642   8.156  18.695  13.461
16234W        W82643  31.870  24.809  12.036
16235W        W82644  38.631  25.044   2.476
16236W        W82645  39.333  10.896   3.970
16237W        W82646  36.945   1.020   2.795
16238W        W82647  18.629  19.723   1.976
16239W        W82648   8.605  12.715   0.021
16240W        W82649  28.683  44.832  12.512
16241W        W82650  40.450  29.154  14.417
16242W        W82651   2.874   1.937   4.109
16243W        W82652   7.897   8.894   5.017
16244W        W82653  42.284  42.474   2.755
16245W        W82654  16.742  29.710  14.039
16246W        W82655  42.752   6.840   4.490
16247W        W82656  28.701  29.204   3.085
16248W        W82657  33.114   7.010   2.277
16249W        W82658   1.188  36.569  12.128
16250W        W82659   4.669  42.864  10.925
16251W        W82660  31.958  17.225   0.875
16252W        W82661  40.633  10.662   4.770
16253W        W82662  41.058  22.778   3.722
16254W        W82663  12.129  13.204  13.118
16255W        W82664  34.412  32.861   1.835
16256W        W82665  23.478  40.426  13.453
16257W        W82666  42.048  27.125   1.351
16258W        W82667  12.365  40.453  11.458
16259W        W82668  31.992  20.617  10.253
16260W        W82669  11.289  31.176  14.022
16261W        W82670  23.667   1.785   1.101
16262W        W82671  24.711  10.615  12.398
16263W        W82672  10.845  28.221   2.836
16264W        W82673   6.961  26.521  11.030
16265W        W82674   2.938  16.689  10.835
16266W        W82675  36.143  28.512   3.597
16267W        W82676  17.084  19.442  13.573
16268W        W82677  40.564  32.573   0.685
16269W        W82678  39.008  17.758  10.257
16270W        W82679  37.428  37.049  14.810
16271W        W82680  44.287  28.890  11.056
16272W        W82681  35.953  20.123   0.803
16273W        W82682  42.846   3.971  14.882
16274W        W82683   5.299  33.946   3.762
16275W        W82684  18.781   3.788  13.933
16276W        W82685  34.318  14.099   3.322
16277W        W82686   1.956  19.155   2.446
16278W        W82687  34.606   7.080   1.341
16279W        W82688  38.833  39.901   2.793
16280W        W82689  17.957  26.933   1.816
16281W        W82690   3.991   8.472  11.265
16282W        W82691  36.180  36.488   2.466
16283W        W82692  28.647  38.123   3.735
16284W        W82693  36.339  21.733  13.918
16285W        W82694  10.603  42.489   0.524
16286W        W82695  33.228  22.078   1.816
16287W        W82696  17.145  33.441   3.543
16288W        W82697   4.766  13.919  12.409
16289W        W82698  19.361  41.714   0.962
16290W        W82699  34.605  12.121  13.075
16291W        W82700   6.867  35.411  11.132
16292W        W82701  34.476  20.110   3.183
16293W        W82702  44.737  22.144  11.588
16294W        W82703  40.007  43.509  11.587
16295W        W82704  36.436  24.773   3.420
16296W        W82705   9.154  31.938   2.732
16297W        W82706  13.808  22.740   2.253
16298W        W82707  42.048  23.791  14.972
16299W        W82708  34.794  43.400  14.358
16300W        W82709  28.232   0.537  13.954
16301W        W82710   6.915  33.450   0.768
16302W        W82711  36.574  32.664   1.745
16303W        W82712  43.472  40.544   2.615
16304W        W82713   8.906  40.116   3.244
16305W        W82714  35.893  18.659   3.782
16306W        W82715   6.381  11.911   0.183
16307W        W82716  42.497  34.315   1.898
16308W        W82717  28.141  33.727   4.980
16309W        W82718   7.592  36.097   0.390
16310W        W82719   8.831  37.813   1.670
16311W        W82720  38.839   7.223  11.447
16312W        W82721  17.461  14.142   0.310
16313W        W82722   4.717  22.250   1.774
16314W        W82723  22.277  35.812  14.406
16315W        W82724  26.579   5.809  14.942
16316W        W82725  41.087  12.841   1.907
16317W        W82726  43.996   7.165   2.323
16318W        W82727  11.340  15.705  13.305
16319W        W82728   3.114  36.039  12.650
16320W        W82729  23.620  30.001   2.190
16321W        W82730  14.040  11.336  12.981
16322W        W82731   6.664  35.617   4.297
16323W        W82732  21.024  32.104  13.900
16324W        W82733   7.609  22.375   3.162
16325W        W82734  15.609  34.433  13.541
16326W        W82735   6.633  16.619  10.647
16327W        W82736  22.441  16.235  10.227
16328W        W82737  30.072  11.282  14.914
16329W        W82738  38.864  20.539  11.806
16330W        W82739   3.009  22.683  14.771
16331W        W82740  30.725  33.659   1.707
16332W        W82741  13.936  25.147   2.396
16333W        W82742  10.240  18.142   3.551
16334W        W82743  19.517  34.882   5.106
16335W        W82744  42.487  21.213  13.377
16336W        W82745   5.808  15.415  11.178
16337W        W82746  31.655  36.616   1.847
16338W        W82747  38.300  39.533  14.475
16339W        W82748   2.465  33.923   3.901
16340W        W82749   2.524  36.932  11.717
16341W        W82750  35.030   1.227  14.026
16342W        W82751  36.799  18.515   4.577
16343W        W82752  24.504  35.823   1.958
16344W        W82753  16.161  31.652  11.750
16345W        W82754  21.261  39.328  14.949
16346W        W82755  24.711  19.668  11.965
16347W        W82756  17.862   4.956  14.867
16348W        W82757  11.060   4.427   4.240
16349W        W82758   6.608  24.554   4.077
16350W        W82759  41.192  23.448  13.971
16351W        W82760  33.619  24.149   3.976
16352W        W82761  24.945   9.980   4.214
16353W        W82762  28.393  34.864  13.208
16354W        W82763  44.120  23.971   4.409
16355W        W82764  26.246  17.266  12.765
16356W        W82765  16.081   0.547  10.118
16357W        W82766  28.564   9.793   3.549
16358W        W82767   6.671   2.530  14.473
16359W        W82768   8.817  19.075   4.587
16360W        W82769  15.407  22.177   1.075
16361W        W82770  31.338  29.413  12.994
16362W        W82771  44.100  32.387  14.965
16363W        W82772   6.376   0.581  12.984
16364W        W82773  13.697  18.473  14.832
16365W        W82774  35.397  24.087   2.669
16366W        W82775  21.206  19.795   2.846
16367W        W82776  17.389   8.832  13.383
16368W        W82777   5.371  21.564   2.886
16369W        W82778  34.889   2.608  12.157
16370W        W82779   1.703  26.005  12.954
16371W        W82780  40.889  13.955  13.595
16372W        W82781   4.010  15.521   4.617
16373W        W82782   2.992  30.506  13.026
16374W        W82783   5.429   8.952   0.187
16375W        W82784   0.505   2.144  14.374
16376W        W82785  21.955   2.510  11.617
16377W        W82786  32.622  11.192  12.026
16378W        W82787   0.493  25.959  13.937
16379W        W82788   6.932  30.017   1.910
16380W        W82789  35.094   9.261  12.566
16381W        W82790  35.606  41.487   0.937
16382W        W82791  10.717  23.160  13.105
16383W        W82792  43.907  13.304   1.705
16384W        W82793   1.949  28.496   1.722
16385W        W82794  43.647   9.679   2.677
16386W        W82795  34.642  19.812   2.735
16387W        W82796   4.286  15.760   2.413
16388W        W82797  33.547  15.238   4.025
16389W        W82798   4.991  39.496  11.903
16390W        W82799  17.014  13.662  11.969
16391W        W82800   8.808  31.537  14.783
16392W        W82801  30.724  37.108   1.951
16393W        W82802  40.822  40.034  13.431
16394W        W82803  26.144  42.974  12.047
16395W        W82804  37.612  38.496  13.920
16396W        W82805  23.139  23.329  11.204
16397W        W82806  38.109  12.934  14.715
16398W        W82807  38.451   9.530  14.355
16399W        W82808  22.522   8.159   4.165
16400W        W82809  25.172   0.393  11.547
16401W        W82810   1.253  30.260   2.880
16402W        W82811  23.998  24.329  11.931
16403W        W82812  20.728  24.052  11.779
16404W        W82813  16.034   5.129  14.979
16405W        W82814  37.189  29.921   2.325
16406W        W82815  42.654  36.906   2.708
16407W        W82816   4.578  33.482   4.038
16408W        W82817  19.572  34.180  12.935
16409W        W82818  38.905  19.203   1.893
16410W        W82819  30.983  14.102   5.199
16411W        W82820   9.815  35.510   2.275
16412W        W82821  34.909  16.327  14.885
16413W        W82822  15.864  30.552   2.425
16414W        W82823  18.379  23.509  13.449
16415W        W82824   2.371  40.329   3.707
16416W        W82825  35.488  12.627   2.374
16417W        W82826  44.450  13.589   0.195
16418W        W82827   3.442  19.332  10.969
16419W        W82828  21.983  40.380   1.423
16420W        W82829  19.123  15.619  12.006
16421W        W82830   7.134  26.517   0.013
16422W        W82831  24.002  39.525   2.436
16423W        W82832   8.316  26.626   1.778
16424W        W82833  44.955   6.543   4.419
16425W        W82834  31.354  42.475   3.095
16426W        W82835  27.213  39.021  14.777
16427W        W82836  43.943  32.971   1.746
16428W        W82837  21.648   1.048  13.435
16429W        W82838   8.001   8.432  14.452
16430W        W82839  34.111  10.286   2.661
16431W        W82840   2.897  24.886   0.471
16432W        W82841  19.614   7.734   1.234
16433W        W82842  19.368  34.464   4.596
16434W        W82843   7.149   0.777   0.782
16435W        W82844   6.910   3.771   1.802
16436W        W82845  24.418   5.262   1.401
16437W        W82846   1.675  37.383  10.690
16438W        W82847  11.428  40.291  10.739
16439W        W82848  44.204  31.496  14.473
16440W        W82849  21.730  21.222   4.418
16441W        W82850  36.458  39.092  12.403
16442W        W82851  32.070  18.252   4.821
16443W        W82852  12.766  40.061   2.774
16444W        W82853  19.605  32.397  11.487
16445W        W82854   4.397  12.427  12.511
16446W        W82855  35.606  38.351   4.080
16447W        W82856  13.893  38.825  12.925
16448W        W82857  15.783   5.075  11.039
16449W        W82858  34.092  41.635  13.170
16450W        W82859  22.582  11.056   2.721
16451W        W82860   2.976  44.049   1.508
16452W        W82861   0.696  10.371  14.064
16453W        W82862  13.456  22.650  10.449
16454W        W82863   3.423  42.406  10.501
16455W        W82864  14.842  42.549  13.722
16456W        W82865  35.236   4.201  10.134
16457W        W82866  38.518   3.354   0.886
16458W        W82867  27.086  19.995  14.102
16459W        W82868  44.761  16.736  11.567
16460W        W82869  28.888  19.708   0.431
16461W        W82870  37.157  25.782  12.110
16462W        W82871  30.795  18.383   2.716
16463W        W82872   3.705  29.428   0.341
16464W        W82873  18.373  26.976  12.248
16465W        W82874   5.751  21.500  13.038
16466W        W82875  28.530  13.241   4.836
16467W        W82876  42.054  18.245   2.783
16468W        W82877  16.666  31.649   2.253
16469W        W82878  38.924   4.427  12.147
16470W        W82879  41.055  24.969  12.923
16471W        W82880   3.862  31.462   4.226
16472W        W82881  20.673  30.434   3.768
16473W        W82882  43.357   6.884   0.366
16474W        W82883   0.292  36.019  13.382
16475W        W82884  36.307  18.184   3.775
16476W        W82885  41.453  37.445   1.350
16477W        W82886  15.664   8.230   2.079
16478W        W82887   5.511   9.307   1.839
16479W        W82888   3.215  24.650  14.854
16480W        W82889   0.331  24.484   3.646
16481W        W82890   3.872  29.935   0.328
16482W        W82891   6.413   2.645   4.184
16483W        W82892  22.735  24.223   2.712
16484W        W82893  32.052   1.004   5.361
16485W        W82894   5.438  43.216   4.559
16486W        W82895   3.829  36.742  13.977
16487W        W82896  41.562  27.086  13.786
16488W        W82897   3.642  35.099  13.315
16489W        W82898  13.015  41.703   2.353
16490W        W82899  44.676  19.696  12.404
16491W        W82900  24.995   3.830  13.846
16492W        W82901  35.076  10.713  10.556
16493W        W82902  13.522  36.985  14.800
16494W        W82903  23.980   3.520   1.139
16495W        W82904  21.812  23.840   5.070
16496W        W82905  41.865  35.052   4.594
16497W        W82906  25.242  42.965  12.799
16498W        W82907  23.241  12.968  13.914
16499W        W82908  18.014  24.532  11.659
16500W        W82909  16.802   3.977  14.582
16501W        W82910   8.367   0.969  12.529
16502W        W82911   3.560   6.209   3.684
16503W        W82912  21.174  16.219  13.989
16504W        W82913  17.338  31.539   2.235
16505W        W82914   4.226  21.810  14.527
16506W        W82915  36.751  30.576  12.863
16507W        W82916  43.162   5.218  10.659
16508W        W82917   9.239  29.129   1.409
16509W        W82918  34.088  34.053   3.361
16510W        W82919   0.261  14.874   0.830
16511W        W82920   4.314  33.273  11.214
16512W        W82921  33.116  10.139   3.970
16513W        W82922   0.900  43.874   1.127
16514W        W82923   8.230  40.273  11.110
16515W        W82924  13.541  38.561  11.985
16516W        W82925  44.337  22.988   3.720
16517W        W82926  25.709  10.800   1.211
16518W        W82927   8.258  31.138  12.975
16519W        W82928   6.096  21.942   0.011
16520W        W82929   4.960  17.620  12.214
16521W        W82930  25.557  34.655  13.092
16522W        W82931  34.640  27.480   3.501
16523W        W82932  38.375  37.165   0.748
16524W        W82933  20.003   3.779  11.301
16525W        W82934  42.420  23.060  13.764
16526W        W82935  37.228  17.912   2.769
16527W        W82936   6.661   1.698  10.362
16528W        W82937  41.167   5.562   3.743
16529W        W82938  27.091  17.687  13.002
16530W        W82939  44.158  16.215   0.256
16531W        W82940   5.650  39.361   4.707
16532W        W82941  34.772  34.995   2.187
16533W        W82942  32.540  17.121   0.868
16534W        W82943   3.376  28.497   3.699
16535W        W82944  29.293  25.125   1.881
16536W        W82945  37.595  43.426   4.592
16537W        W82946  44.520  42.865   2.456
16538W        W82947  26.064  26.462   5.680
16539W        W82948   0.571  29.391   3.806
16540W        W82949  10.780  17.204   1.263
16541W        W82950  43.313  35.395  13.793
16542W        W82951  24.904  24.720   5.208
16543W        W82952  29.183   5.818   4.279
16544W        W82953   3.952  28.136  10.764
16545W        W82954  22.767  34.786   0.807
16546W        W82955  23.499  29.740   0.408
16547W        W82956  16.210  31.571   1.983
16548W        W82957   1.422  30.122   0.298
16549W        W82958  41.553  18.794   0.909
16550W        W82959   4.764  41.259  11.542
16551W        W82960  35.003   6.638  11.569
16552W        W82961  21.501   5.401  10.747
16553W        W82962  35.278  20.617  10.650
16554W        W82963   7.858   8.700   4.164
16555W        W82964  10.133  18.745   0.223
16556W        W82965  34.294   6.616   1.850
16557W        W82966   6.353  25.957   2.166
16558W        W82967  38.922  18.929  14.600
16559W        W82968  14.669   0.298   3.171
16560W        W82969   2.293  24.032   2.149
16561W        W82970  20.070  41.945   1.469
16562W        W82971  23.949  10.347  12.982
16563W        W82972  33.651  42.384   4.251
16564W        W82973   5.241  25.652   1.622
16565W        W82974  37.600  19.223  13.271
16566W        W82975  31.483  44.821   0.068
16567W        W82976  15.812  38.389   2.786
16568W        W82977  38.912  15.036   2.148
16569W        W82978  16.350  44.709   3.292
16570W        W82979  26.806  12.095   4.011
16571W        W82980  42.569  15.805   4.072
16572W        W82981   9.190   6.756   0.227
16573W        W82982   0.520   7.579   3.301
16574W        W82983  33.731  44.203   3.668
16575W        W82984  38.443  40.833   3.155
16576W        W82985  21.540  37.795  12.896
16577W        W82986  39.801  20.071   1.031
16578W        W82987  14.105  44.908  13.348
16579W        W82988  33.878  42.921  13.975
16580W        W82989  28.398  11.981  13.387
16581W        W82990  28.670  28.190   1.319
16582W        W82991  26.131  33.598  11.225
16583W        W82992  44.335  31.118   2.388
16584W        W82993  18.181  36.163   0.770
16585W        W82994  32.685  29.591  13.337
16586W        W82995  34.713  22.557   0.387
16587W        W82996  28.179  44.017   3.066
16588W        W82997  43.541   7.194  11.156
16589W        W82998  37.953  23.160  12.070
16590W        W82999  38.029  32.844  13.449
16591W        W83000   8.576  18.619   1.724
16592W        W83001  15.769  38.622  11.387
16593W        W83002  14.376  15.220  10.525
16594W        W83003  11.283  16.617   4.102
16595W        W83004  24.603  28.478   2.481
16596W        W83005  20.726   4.801  11.060
16597W        W83006  23.047  19.586  11.875
16598W        W83007  12.107  38.678  12.804
16599W        W83008   7.244  32.069  11.650
16600W        W83009   6.869  40.003   0.340
16601W        W83010  29.159  20.157  14.745
16602W        W83011  20.125   4.622  11.046
16603W        W83012   9.745  22.097  11.518
16604W        W83013   6.846  13.498  13.720
16605W        W83014  30.642  18.426  11.043
16606W        W83015  36.960  33.135   1.483
16607W        W83016  13.643   0.999  11.399
16608W        W83017  32.096  26.067   4.806
16609W        W83018  29.194  16.136   4.632
16610W        W83019   8.567  33.627   3.920
16611W        W83020  20.123  15.271  13.966
16612W        W83021  40.686  33.078   4.069
16613W        W83022   6.235   1.780  10.051
16614W        W83023  32.929  16.737   1.942
16615W        W83024  28.407  19.703  10.376
16616W        W83025   2.006  33.703   1.487
16617W        W83026  11.889  19.902  14.492
16618W        W83027  19.457   4.109  14.447
16619W        W83028  22.122   0.260  10.535
16620W        W83029  36.888   5.390  11.135
16621W        W83030  38.278  12.271  12.330
16622W        W83031  14.361  40.793   5.023
16623W        W83032  21.093   9.012   0.361
16624W        W83033   6.803   0.902   3.968
16625W        W83034  35.461  22.727   2.324
16626W        W83035  31.944  15.118   3.137
16627W        W83036   7.236  36.546   1.442
16628W        W83037   5.340  34.385  13.847
16629W        W83038  32.958   8.822  13.618
16630W        W83039  28.685   2.266  13.273
16631W        W83040  28.915  33.079  10.768
16632W        W83041   4.489   6.289   1.401
16633W        W83042  29.293  24.278  14.326
16634W        W83043  15.842  19.120   0.754
16635W        W83044   1.791   1.142  12.944
16636W        W83045  42.044  40.875  10.651
16637W        W83046  28.037  27.522   2.223
16638W        W83047   2.282  29.965   3.743
16639W        W83048  14.275   6.456  14.531
16640W        W83049  35.980  42.394   4.479
16641W        W83050  18.763  13.163   3.374
16642W        W83051  34.108  33.406  11.053
16643W        W83052  25.188  39.740   4.320
16644W        W83053  31.616   0.466   0.716
16645W        W83054  41.667  44.372  10.986
16646W        W83055   1.383  29.291  13.892
16647W        W83056  30.138  34.799   3.479
16648W        W83057  40.578  22.776  13.966
16649W        W83058  40.559  35.133   3.149
16650W        W83059  16.348  23.508   1.392
16651W        W83060   8.936  35.168   0.822
16652W        W83061   9.470  34.505  12.141
16653W        W83062  30.299  36.795   0.328
16654W        W83063  34.492  29.533  13.023
16655W        W83064   3.259  32.417   0.571
16656W        W83065   2.931  11.455  12.932
16657W        W83066   9.840   6.954  13.790
16658W        W83067  39.318  28.468   2.261
16659W        W83068  25.088  29.509   1.667
16660W        W83069  43.086  40.802  12.986
16661W        W83070  17.682  14.887  12.914
16662W        W83071   3.598  37.551   4.135
16663W        W83072  18.283   6.444  14.126
16664W        W83073   6.441  11.585  12.604
16665W        W83074   6.761   2.994  12.688
16666W        W83075  15.045  24.141  14.229
16667W        W83076   6.508  10.323  13.076
16668W        W83077  19.325  21.093  11.941
16669W        W83078  23.700  44.659   0.408
16670W        W83079   6.356  30.680   1.840
16671W        W83080  22.446   8.751  12.049
16672W        W83081   5.404  12.283  11.686
16673W        W83082  36.746   2.861   1.271
16674W        W83083  42.599   3.426   4.130
16675W        W83084  44.379  34.967   2.164
16676W        W83085  20.278   7.268  13.008
16677W        W83086   1.632  36.631   2.830
16678W        W83087  11.616  39.042   1.094
16679W        W83088  13.881   5.935   0.332
16680W        W83089  24.738  21.136   4.937
16681W        W83090   6.211  14.017  10.306
16682W        W83091  10.877   6.259  10.527
16683W        W83092  17.803  39.147  10.684
16684W        W83093  39.463  11.680   4.614
16685W        W83094  12.727  35.631   0.958
16686W        W83095  39.992  23.680  10.465
16687W        W83096  32.539  20.058  11.827
16688W        W83097  29.696   8.984   1.411
16689W        W83098  30.329  23.397  14.836
16690W        W83099  12.735  18.710   2.402
16691W        W83100  33.223   9.288  14.971
16692W        W83101  34.159  25.796  13.472
16693W        W83102  16.629  36.073   2.292
16694W        W83103  27.656  23.639  14.333
16695W        W83104  24.662   6.811  12.525
16696W        W83105  33.072  44.084  13.864
16697W        W83106   7.286  25.959  14.520
16698W        W83107  17.413  34.892   1.963
16699W        W83108   2.798   0.764  11.493
16700W        W83109  25.552  11.825   1.728
16701W        W83110   1.757  24.436  11.114
16702W        W83111   1.961  18.990   3.965
16703W        W83112   7.186  24.887  12.920
16704W        W83113  35.764  32.906  14.284
16705W        W83114  15.717   7.904   3.337
16706W        W83115  39.085  25.638   4.092
16707W        W83116   3.268   7.190   1.336
16708W        W83117   7.301  15.084  11.999
16709W        W83118   3.834  44.717  12.108
16710W        W83119  21.709  22.612   4.836
16711W        W83120   0.906  38.091  10.610
16712W        W83121  27.374  21.921  14.869
16713W        W83122  21.557  35.039   2.205
16714W        W83123  15.661   0.845  12.606
16715W        W83124   3.386   7.206   0.242
16716W        W83125   5.399  23.245  10.774
16717W        W83126  35.871   6.711  13.042
16718W        W83127   4.694  30.082  10.684
16719W        W83128  12.325   3.010   1.467
16720W        W83129  14.913  29.398   0.104
16721W        W83130  29.882  38.819  10.784
16722W        W83131  29.207  25.149  14.700
16723W        W83132  20.812  20.635   1.336
16724W        W83133  40.057  23.465  11.711
16725W        W83134   6.382  15.800  10.267
16726W        W83135  33.286  40.242  12.047
16727W        W83136  30.467  21.111   2.728
16728W        W83137  19.707  34.174   2.832
16729W        W83138  12.136  19.106  10.265
16730W        W83139   8.621  40.637  11.077
16731W        W83140  39.050  37.091   3.571
16732W        W83141  19.323  37.964  13.984
16733W        W83142  17.216  41.971   1.449
16734W        W83143  21.223   8.359  12.120
16735W        W83144   8.906  40.275   0.889
16736W        W83145  20.819  11.164  13.761
16737W        W83146  23.041   3.298   0.125
16738W        W83147   5.868  29.036  10.175
16739W        W83148   7.301  21.340  10.269
16740W        W83149   0.412  42.524   2.323
16741W        W83150  41.813  33.548   1.759
16742W        W83151  14.201  43.607  10.546
16743W        W83152  24.275  19.556   2.766
16744W        W83153   8.226  13.540  13.892
16745W        W83154   1.813  29.546   1.895
16746W        W83155  12.398  32.405   1.669
16747W        W83156   7.749  40.728   4.534
16748W        W83157   8.238  29.391  11.065
16749W        W83158   1.486   1.933  11.398
16750W        W83159   5.925   0.938   2.448
16751W        W83160  38.097  15.598   2.837
16752W        W83161  28.785  26.020   1.949
16753W        W83162  41.827  38.468   1.790
16754W        W83163  18.287  38.181   4.255
16755W        W83164   9.186  19.499  13.426
16756W        W83165  37.528  43.308   3.681
16757W        W83166   7.822  40.110  14.375
16758W        W83167  33.946  42.409   1.359
16759W        W83168  15.363  13.229   4.571
16760W        W83169   0.199  31.160  12.089
16761W        W83170  15.142  24.742   0.005
16762W        W83171  14.127   6.778  14.004
16763W        W83172  44.859  19.349   3.747
16764W        W83173  21.970  42.446  11.982
16765W        W83174  21.741   4.295  14.818
16766W        W83175   1.909  35.435  12.092
16767W        W83176   2.668  19.816   0.832
16768W        W83177  18.428  36.379   0.166
16769W        W83178  15.202   7.169   2.242
16770W        W83179  32.894  38.522  13.993
16771W        W83180  21.040  11.980  12.978
16772W        W83181  20.636  30.806  13.576
16773W        W83182  18.260  28.733  13.971
16774W        W83183  37.051  37.881   2.836
16775W        W83184  10.185  20.086  12.114
16776W        W83185   2.601  41.847  11.661
16777W        W83186   9.274  37.504   2.811
16778W        W83187  14.484   4.296  14.993
16779W        W83188   6.409  13.713  12.538
16780W        W83189  35.901  17.492   5.592
16781W        W83190  44.979   3.453   2.845
16782W        W83191  10.686  12.138  14.773
16783W        W83192  43.916   4.968  14.047
16784W        W83193  38.727  39.811  14.549
16785W        W83194  33.600  17.486   3.407
16786W        W83195  23.593  44.795   4.662
16787W        W83196  26.683  23.615   3.818
16788W        W83197  13.891  33.128   2.637
16789W        W83198  21.984  33.039   4.612
16790W        W83199  28.972   5.507  11.892
16791W        W83200  40.863   8.913  11.330
16792W        W83201  30.645  39.904   1.472
16793W        W83202   5.505  14.313  12.998
16794W        W83203   6.781   2.250  14.903
16795W        W83204  43.300  34.668  13.825
16796W        W83205  23.272  20.006  13.816
16797W        W83206  33.697  17.379  14.924
16798W        W83207  24.814  40.900  13.511
16799W        W83208  41.342   5.860   2.626
16800W        W83209  32.072  41.937  14.123
16801W        W83210  14.810  11.385   4.526
16802W        W83211  32.563  10.213   4.289
16803W        W83212   6.943  16.301  13.563
16804W        W83213  29.870  43.404  11.465
16805W        W83214  38.333  24.536   3.827
16806W        W83215  14.165  35.136  14.494
16807W        W83216  16.333  14.852   3.242
16808W        W83217  42.582  17.110  13.382
16809W        W83218  32.936   5.195   3.020
16810W        W83219  23.305   7.379   3.426
16811W        W83220  20.843  22.145   3.241
16812W        W83221  26.317  31.689  10.357
16813W        W83222  30.621  30.098   3.097
16814W        W83223  40.902   7.675   3.199
16815W        W83224  19.082  16.081  11.099
16816W        W83225  33.164   3.786  11.444
16817W        W83226   3.133  31.403   0.375
16818W        W83227  35.640  26.222   4.152
16819W        W83228   4.421  33.880   2.314
16820W        W83229   2.527  23.557   0.339
16821W        W83230  24.704   9.759  12.952
16822W        W83231   7.694   6.844   2.771
16823W        W83232  32.918  29.928  12.569
16824W        W83233  25.856  25.547   9.828
16825W        W83234  39.882  29.214  11.801
16826W        W83235  31.468   0.896  11.923
16827W        W83236   3.675  14.128  11.916
16828W        W83237  36.985   6.974  11.674
16829W        W83238  39.431  24.468  10.783
16830W        W83239  21.648   1.661  14.708
16831W        W83240  11.022  23.605   5.047
16832W        W83241  14.123  32.609   3.871
16833W        W83242   9.563  20.808  13.406
16834W        W83243  15.826   8.866   0.317
16835W        W83244  15.245  35.962  11.501
16836W        W83245  42.989  17.350   2.877
16837W        W83246  35.327  25.482   1.432
16838W        W83247  29.478  15.542  13.529
16839W        W83248   2.445  29.527   0.696
16840W        W83249  28.656  39.313   1.164
16841W        W83250   3.225  20.240  14.873
16842W        W83251  39.295  26.724  12.337
16843W        W83252  24.754   2.332   4.161
16844W        W83253   6.417  16.356   3.810
16845W        W83254  34.580   8.265   0.548
16846W        W83255  19.752  30.204  10.645
16847W        W83256  28.408  39.505  10.605
16848W        W83257  29.572  23.752  12.562
16849W        W83258  35.541  25.399   3.703
16850W        W83259  20.619  29.917  13.980
16851W        W83260  11.715  40.715  14.846
16852W        W83261  24.703  17.539   2.265
16853W        W83262  37.597  35.409  13.530
16854W        W83263  44.443   6.341  10.779
16855W        W83264   5.693   8.884   4.557
16856W        W83265  18.373  29.873   4.949
16857W        W83266  31.486  39.125   4.694
16858W        W83267  27.729  25.720   0.370
16859W        W83268   6.289  17.602  13.138
16860W        W83269  32.701  25.623  14.518
16861W        W83270  38.586  24.240  10.814
16862W        W83271  10.375  30.780   5.414
16863W        W83272  31.981  41.848   3.209
16864W        W83273  28.192  13.791   0.425
16865W        W83274   7.239   2.302   3.682
16866W        W83275  17.176   9.305  11.398
16867W        W83276  38.236  32.845  10.723
16868W        W83277   2.314  19.173   4.594
16869W        W83278  23.256   9.074  11.091
16870W        W83279  27.796  19.995  14.780
16871W        W83280  23.051  24.628   3.135
16872W        W83281   2.261  31.515  11.158
16873W        W83282   4.877  41.886   1.744
16874W        W83283  42.769   7.526   1.459
16875W        W83284   6.772  28.923  14.798
16876W        W83285  32.564  40.509  13.368
16877W        W83286   6.512  30.042   2.408
16878W        W83287  37.041  40.740  13.037
16879W        W83288  10.249   2.829  11.413
16880W        W83289  29.043  29.286  10.521
16881W        W83290  35.644  32.778   0.407
16882W        W83291  15.676  16.603  10.361
16883W        W83292  30.775  20.485   3.100
16884W        W83293   8.700  25.931  13.406
16885W        W83294  22.168  22.202   2.153
16886W        W83295   1.886   5.911   4.062
16887W        W83296  12.547  22.999   1.855
16888W        W83297   2.688  32.188  13.415
16889W        W83298  44.309   8.282   0.207
16890W        W83299  34.471  18.617  12.524
16891W        W83300   9.830  37.849   0.787
16892W        W83301   0.028  12.681  14.492
16893W        W83302  17.143  14.639   2.793
16894W        W83303  35.775  27.156   2.241
16895W        W83304  23.285   5.187  13.441
16896W        W83305  25.029  20.763  13.855
16897W        W83306   1.973   0.831   4.584
16898W        W83307   2.763   5.880   3.756
16899W        W83308  17.583  12.702   1.582
16900W        W83309  39.585   8.745   1.937
16901W        W83310  24.171  14.646  12.508
16902W        W83311  16.552  18.838   2.750
16903W        W83312  28.634  35.627   1.351
16904W        W83313  29.061  31.515  10.913
16905W        W83314  21.092  25.864   4.006
16906W        W83315  31.555  35.671  12.231
16907W        W83316   2.223  20.459   2.467
16908W        W83317  25.424   2.659  14.385
16909W        W83318  25.048  24.945   2.367
16910W        W83319  23.585  36.476   0.357
16911W        W83320   0.149  24.634   1.749
16912W        W83321   0.722   0.633   4.096
16913W        W83322  27.845   9.283   1.447
16914W        W83323  19.116  37.483   1.213
16915W        W83324  39.456  26.557   3.295
16916W        W83325   9.397  25.466  11.467
16917W        W83326  33.267  42.345   3.880
16918W        W83327  26.742  43.971  13.931
16919W        W83328  38.482  22.813   3.312
16920W        W83329  41.898  39.891   0.874
16921W        W83330   0.264  24.201  14.298
16922W        W83331   3.268  20.546   3.230
16923W        W83332  43.391  25.265   4.263
16924W        W83333  21.526   1.217  11.195
16925W        W83334  20.130  18.205   2.047
16926W        W83335  27.544  42.838   0.832
16927W        W83336  43.348  28.518  11.269
16928W        W83337  27.311  34.553   1.149
16929W        W83338  41.436  20.854  11.024
16930W        W83339   3.383  14.196  12.325
16931W        W83340  26.873   4.840  10.806
16932W        W83341  27.470   8.339  12.003
16933W        W83342  17.345   2.603  11.984
16934W        W83343  26.218   9.768  14.297
16935W        W83344  32.559  40.006   1.143
16936W        W83345  27.630   8.738  11.226
16937W        W83346  35.530  39.800  14.921
16938W        W83347  18.438  12.255   0.388
16939W        W83348  44.327  26.129  10.655
16940W        W83349  26.259   1.441   2.888
16941W        W83350  11.864   3.028  11.075
16942W        W83351  10.330  35.395   1.867
16943W        W83352  23.612  22.196  12.597
16944W        W83353  22.847  17.763   1.317
16945W        W83354  38.316  32.081  13.275
16946W        W83355   1.114  42.055   2.651
16947W        W83356  22.806  33.430   2.915
16948W        W83357  36.984   0.524   3.246
16949W        W83358  27.331  36.757  12.496
16950W        W83359  34.333  20.951  12.400
16951W        W83360   4.426  14.317  10.723
16952W        W83361   8.357   6.030   1.533
16953W        W83362  38.597  35.971   2.219
16954W        W83363   7.430   1.256   1.854
16955W        W83364  22.464  37.488  12.213
16956W        W83365  10.139  38.359  11.072
16957W        W83366  37.562  10.119  14.300
16958W        W83367  26.479   6.153   4.129
16959W        W83368  15.674  13.186  13.942
16960W        W83369  33.045  36.478   3.903
16961W        W83370  11.599  41.430   2.856
16962W        W83371  16.632  10.738   2.597
16963W        W83372  10.831  11.919  12.993
16964W        W83373  41.395  26.192  10.277
16965W        W83374  12.326   0.249   3.642
16966W        W83375   7.676  35.589  11.195
16967W        W83376  24.943  29.118  14.489
16968W        W83377  25.271  40.150  11.157
16969W        W83378  40.146  40.028  11.923
16970W        W83379  35.418  18.219  12.430
16971W        W83380  24.990  21.283  13.859
16972W        W83381  43.829  32.627  13.282
16973W        W83382  17.252   8.359  13.194
16974W        W83383  13.151  29.711  14.090
16975W        W83384   5.339  10.465  14.993
16976W        W83385  16.306  20.651  13.243
16977W        W83386  27.087  14.651  11.974
16978W        W83387  25.507  18.606  13.829
16979W        W83388  42.756  34.527  10.608
16980W        W83389  12.506   2.526   2.280
16981W        W83390  39.131   0.477  12.516
16982W        W83391  16.840   2.033   0.233
16983W        W83392  41.850  14.126   4.279
16984W        W83393   2.354   8.747  10.609
16985W        W83394  43.371   7.212   5.308
16986W        W83395   6.021  28.486  11.680
16987W        W83396  19.773  15.239   4.135
16988W        W83397   6.620  27.860   3.072
16989W        W83398  20.663  38.597  14.521
16990W        W83399  30.735   4.279   4.208
16991W        W83400   4.477  29.359  13.569
16992W        W83401  37.901   1.801  13.137
16993W        W83402  25.714  15.705  13.329
16994W        W83403  37.547  13.319  12.981
16995W        W83404  26.815  17.209   0.723
16996W        W83405  27.527  10.968  12.046
16997W        W83406  10.625   5.002   4.039
16998W        W83407  39.914   0.652   3.085
16999W        W83408  34.588   1.227  11.151
17000W        W83409  44.066  32.487   0.790
17001W        W83410  12.697  18.128  11.865
17002W        W83411  13.841   3.823  11.929
17003W        W83412  17.093  30.111  13.448
17004W        W83413  18.237  17.950  14.954
17005W        W83414  34.362  15.070   0.881
17006W        W83415   3.024  28.622  14.829
17007W        W83416  22.111  26.553   3.615
17008W        W83417  36.004  16.728   3.399
17009W        W83418  32.839  24.401  14.926
17010W        W83419  34.476  11.203  10.846
17011W        W83420   1.496  15.879   3.321
17012W        W83421  18.363  31.156   3.071
17013W        W83422   0.469  34.537   3.165
17014W        W83423   7.931  24.222   0.200
17015W        W83424  12.735   1.865  13.691
17016W        W83425   4.552  26.915  11.904
17017W        W83426  39.177  37.352   3.135
17018W        W83427  18.660  38.408  11.516
17019W        W83428  22.832  22.089  11.134
17020W        W83429  24.614  13.717   4.233
17021W        W83430  28.494   4.191   4.953
17022W        W83431  24.638  42.583  13.375
17023W        W83432  17.329  30.857   4.279
17024W        W83433  34.409   1.692  14.379
17025W        W83434  32.952  39.289  11.562
17026W        W83435  37.854  25.754  13.359
17027W        W83436   4.935  14.000  11.919
17028W        W83437  37.836  27.388   1.364
17029W        W83438   4.781  41.946   0.258
17030W        W83439   2.827  42.471  11.220
17031W        W83440  39.335  11.069   3.458
17032W        W83441  21.086  26.701  13.937
17033W        W83442  14.194  34.844   3.140
17034W        W83443  43.783  22.782   0.013
17035W        W83444  20.623  27.389   3.370
17036W        W83445  31.193  21.137   2.311
17037W        W83446  20.994  39.006   2.904
17038W        W83447  25.197  29.160   3.607
17039W        W83448   0.323  14.756   2.551
17040W        W83449  19.415  33.622   3.347
17041W        W83450  33.093  22.221   3.719
17042W        W83451   0.778  19.762  12.522
17043W        W83452  36.289  40.873  11.525
17044W        W83453   4.938  20.068  14.329
17045W        W83454  41.552  44.713   1.649
17046W        W83455  32.751   4.035   0.445
17047W        W83456  42.271  34.910   3.856
17048W        W83457  23.106  26.713  13.770
17049W        W83458  33.022  43.652  12.905
17050W        W83459  23.479   5.921  11.548
17051W        W83460   6.925  35.544  13.336
17052W        W83461  44.987  33.334   3.244
17053W        W83462  39.107  41.965  13.921
17054W        W83463  33.463  26.456   3.814
17055W        W83464   4.053  14.938  12.091
17056W        W83465  24.485  14.770   0.065
17057W        W83466  16.090  21.553  14.397
17058W        W83467  24.547   4.513   2.853
17059W        W83468  12.116  36.413  11.877
17060W        W83469  22.999   4.754  10.668
17061W        W83470  32.598  29.079   0.410
17062W        W83471  44.289  21.065  13.850
17063W        W83472  38.868  14.313  10.667
17064W        W83473  25.996   1.236   0.397
17065W        W83474  33.188  32.816  12.927
17066W        W83475  41.657  20.987   1.272
17067W        W83476  10.956   2.293  14.729
17068W        W83477  43.148  19.456   1.285
17069W        W83478  29.419  32.364  11.610
17070W        W83479  18.249  29.448   2.702
17071W        W83480  24.938  24.631  14.492
17072W        W83481  41.079  26.218   1.310
17073W        W83482   6.683   0.284   2.830
17074W        W83483  43.721  36.056   3.601
17075W        W83484  21.820  29.049   1.893
17076W        W83485   7.192  19.698  12.073
17077W        W83486  32.849  37.099   0.702
17078W        W83487  25.134  41.046   2.347
17079W        W83488  12.493  35.067   2.836
17080W        W83489   1.252  14.535  12.003
17081W        W83490   7.318  13.285  10.757
17082W        W83491  31.577  34.960  14.018
17083W        W83492  31.155  41.458   2.202
17084W        W83493   9.235   5.326  12.118
17085W        W83494   6.212  19.174   3.208
17086W        W83495   6.742  35.135  12.483
17087W        W83496  23.794  38.574  10.778
17088W        W83497  40.399  24.610   3.104
17089W        W83498  38.614  15.293   0.799
17090W        W83499  44.056  25.572  14.362
17091W        W83500  44.334  22.579   1.669
17092W        W83501  35.925  35.820  14.483
17093W        W83502  14.751   7.844   0.304
17094W        W83503   0.103   0.415  14.540
17095W        W83504  19.790  35.092   3.037
17096W        W83505  21.419  19.581   4.683
17097W        W83506  23.452  38.561  11.193
17098W        W83507  38.588   9.181   1.270
17099W        W83508   2.193  31.925   3.215
17100W        W83509  26.620  24.997   2.341
17101W        W83510  35.017  24.567   1.461
17102W        W83511  30.606  37.646   2.769
17103W        W83512   7.940  35.381   0.811
17104W        W83513  13.576   0.061   4.103
17105W        W83514  15.653  23.237   4.126
17106W        W83515  40.893  41.871  13.629
17107W        W83516  19.805  12.700  11.200
17108W        W83517   4.896   8.891   2.283
17109W        W83518  38.516  14.169  14.239
17110W        W83519  16.214   9.860   0.353
17111W        W83520  26.977  24.732   3.587
17112W        W83521  27.998  44.544  14.060
17113W        W83522   5.701  40.935  14.941
17114W        W83523   3.261  32.359   2.055
17115W        W83524  25.044  33.023   0.381
17116W        W83525  23.632  39.575  14.977
17117W        W83526  30.710  40.055   3.254
17118W        W83527   9.185  14.571   3.370
17119W        W83528  32.508  44.737   3.537
17120W        W83529  22.600  40.336   4.193
17121W        W83530   0.972  11.204   2.797
17122W        W83531  21.153  36.412   4.638
17123W        W83532   7.836   0.269  10.666
17124W        W83533  28.098  11.902   4.156
17125W        W83534  28.659  20.203  14.525
17126W        W83535  38.528  15.612   5.367
17127W        W83536  36.822  31.973   3.977
17128W        W83537  25.144   7.343  11.198
17129W        W83538  18.210  15.329  14.337
17130W        W83539  22.721  12.757  14.415
17131W        W83540  30.359  13.785  14.775
17132W        W83541  14.101  13.712  11.009
17133W        W83542  17.060  24.643   4.260
17134W        W83543  35.131  25.434  11.098
17135W        W83544  14.672  26.013   2.927
17136W        W83545  34.829  41.253  14.395
17137W        W83546  19.804  10.955  13.387
17138W        W83547  37.772  31.167   1.864
17139W        W83548  10.751  37.099  14.569
17140W        W83549   9.021  20.758  12.003
17141W        W83550  34.685   5.406   3.393
17142W        W83551  33.665   2.000  13.053
17143W        W83552   4.172  18.380  12.894
17144W        W83553  36.517  15.183   0.248
17145W        W83554  28.359  11.720   3.734
17146W        W83555  16.334  19.334   1.794
17147W        W83556  17.678  22.043  13.482
17148W        W83557  11.536  10.700  14.124
17149W        W83558  41.445  18.608   3.399
17150W        W83559  33.064   1.195   5.102
17151W        W83560  42.312  13.910  11.604
17152W        W83561   5.675  36.556  14.806
17153W        W83562   9.156  21.456   1.935
17154W        W83563   3.882   7.245  14.579
17155W        W83564  33.938  38.610  12.952
17156W        W83565  20.714  21.195   3.260
17157W        W83566  28.877  42.530   2.301
17158W        W83567  25.062  34.917   2.748
17159W        W83568  41.119  33.502   0.344
17160W        W83569  40.894  28.584   3.823
17161W        W83570  44.954  43.652   3.640
17162W        W83571   7.829  10.014   5.041
17163W        W83572  33.541   4.668  14.524
17164W        W83573  18.224  18.597  13.024
17165W        W83574  42.671  21.798   3.156
17166W        W83575  41.332   8.250   2.621
17167W        W83576  41.927  44.725  11.988
17168W        W83577   8.647   1.880  14.915
17169W        W83578  21.962  44.830   3.151
17170W        W83579  28.418  18.695   3.862
17171W        W83580  23.075   2.909   1.348
17172W        W83581  15.735  18.168  11.639
17173W        W83582  30.223   8.164  11.388
17174W        W83583   0.723  21.084   2.871
17175W        W83584  21.332  29.034  11.274
17176W        W83585   3.001  14.154   2.641
17177W        W83586   5.120   8.714  14.843
17178W        W83587  28.632  11.880   4.538
17179W        W83588  18.048  14.675   1.750
17180W        W83589  26.341  37.131  12.489
17181W        W83590   7.874  18.696   0.808
17182W        W83591  23.181  30.158   1.976
17183W        W83592   2.391  44.499  11.688
17184W        W83593  36.852  20.118  12.745
17185W        W83594   6.701   9.727  10.744
17186W        W83595   5.904  41.912  14.311
17187W        W83596   2.728  20.132  12.340
17188W        W83597  24.268  42.507   2.892
17189W        W83598  40.437   1.200  11.645
17190W        W83599  17.615   1.400   1.446
17191W        W83600  44.702   5.689  14.952
17192W        W83601  16.525  39.073  11.348
17193W        W83602  43.330  29.739   2.845
17194W        W83603   8.165  21.556  12.539
17195W        W83604  37.505  11.395  11.195
17196W        W83605  33.621  37.092  11.658
17197W        W83606  16.073  43.494   3.134
17198W        W83607  40.644  21.743  14.443
17199W        W83608  29.515   4.476   1.439
17200W        W83609  37.256  29.487   3.786
17201W        W83610  28.871  43.837   1.732
17202W        W83611  40.406  27.750   1.138
17203W        W83612  30.150   1.813  12.409
17204W        W83613  20.249  35.045   1.345
17205W        W83614   6.412  34.767  10.799
17206W        W83615  34.333   6.187   0.578
17207W        W83616   7.329  41.347  13.954
17208W        W83617  27.524  33.076   0.697
17209W        W83618  18.282  20.148  13.951
17210W        W83619   3.772  16.860   0.424
17211W        W83620  11.191  26.959  10.773
17212W        W83621  28.464  32.417  10.644
17213W        W83622  42.959   5.629  11.581
17214W        W83623  36.055  33.466  13.678
17215W        W83624   0.659  18.181  12.385
17216W        W83625  36.405  22.080  12.062
17217W        W83626  17.356  31.050  14.797
17218W        W83627  18.553  27.055  12.821
17219W        W83628  37.595  29.502   2.198
17220W        W83629   3.228  23.186   2.169
17221W        W83630   4.335  36.379   3.294
17222W        W83631   4.474   8.364   4.172
17223W        W83632  20.636  19.805  13.875
17224W        W83633  10.080  41.661   3.477
17225W        W83634   6.737  20.381  14.365
17226W        W83635  37.890  25.214   3.706
17227W        W83636  43.349  38.068   3.359
17228W        W83637  43.878  16.253   4.774
17229W        W83638  24.471   5.309  10.664
17230W        W83639   4.042   2.590   4.082
17231W        W83640  16.705  20.534  11.395
17232W        W83641  43.347   1.331   1.791
17233W        W83642  11.261  24.975  14.140
17234W        W83643  39.785   8.264   0.592
17235W        W83644   6.645  44.600  12.918
17236W        W83645  42.048  24.540   0.308
17237W        W83646  34.079  27.694   1.182
17238W        W83647  20.049  18.424   0.568
17239W        W83648  33.809  11.142   1.021
17240W        W83649   9.795  41.540   4.727
17241W        W83650  28.535  39.743   1.416
17242W        W83651  30.097   2.386  11.045
17243W        W83652  39.061  16.496  10.109
17244W        W83653  25.695   5.285  13.928
17245W        W83654  23.939  31.652  13.338
17246W        W83655  25.044  20.793   0.281
17247W        W83656  41.512  11.359  14.273
17248W        W83657  23.941  11.088   3.747
17249W        W83658  33.674  14.357   5.001
17250W        W83659  14.018   4.344   0.218
17251W        W83660  25.776  37.833  11.183
17252W        W83661   4.019  27.661  13.491
17253W        W83662   7.666  29.640   3.462
17254W        W83663  26.516  27.723   2.670
17255W        W83664   2.810  40.292   4.206
17256W        W83665  37.167   0.749  10.748
17257W        W83666  44.563  18.181  11.265
17258W        W83667   2.615   7.153  14.477
17259W        W83668  19.755  40.524  10.687
17260W        W83669  16.079   1.090  12.408
17261W        W83670   2.170  29.945  12.867
17262W        W83671   4.969  23.434   2.465
17263W        W83672   9.822  27.050  14.103
17264W        W83673  24.490  14.238  14.928
17265W        W83674  34.502  17.828  11.699
17266W        W83675  21.058  44.497  13.910
17267W        W83676  28.079  29.029  10.850
17268W        W83677  22.060  29.620  14.179
17269W        W83678  36.849  16.485   3.381
17270W        W83679  30.905  29.930   4.076
17271W        W83680  40.208  27.683   2.711
17272W        W83681  20.963   0.611   4.270
17273W        W83682  41.731  30.176  12.083
17274W        W83683   3.847   3.173   1.260
17275W        W83684  15.909  44.944   4.873
17276W        W83685  22.732  11.171  12.923
17277W        W83686  23.624   1.031  11.122
17278W        W83687  23.660  25.502   4.611
17279W        W83688  38.525  24.627  11.179
17280W        W83689  41.300  19.060  12.605
17281W        W83690   0.749  23.246   0.780
17282W        W83691  43.178  35.192   4.573
17283W        W83692  35.839  35.022  14.101
17284W        W83693  10.156  42.033  13.432
17285W        W83694  37.560  19.179   1.752
17286W        W83695   3.309  44.500  11.554
17287W        W83696  11.132  13.572   0.499
17288W        W83697   3.149   6.325  11.827
17289W        W83698   5.769  36.367  10.586
17290W        W83699   4.214   6.334  11.017
17291W        W83700   1.689  37.523   4.119
17292W        W83701   6.007  14.133  14.740
17293W        W83702  39.038   8.949   3.067
17294W        W83703  36.985   0.904  13.629
17295W        W83704  38.351  35.887  11.131
17296W        W83705  38.889  18.716  11.736
17297W        W83706   7.187  21.021   1.395
17298W        W83707  34.650  13.644  12.925
17299W        W83708  17.011  30.232   1.278
17300W        W83709  25.694   2.023   4.543
17301W        W83710  28.271  37.763  11.682
17302W        W83711  13.316  29.130   3.709
17303W        W83712   8.356  27.663  10.554
17304W        W83713  32.600  17.607   3.735
17305W        W83714  20.690  12.414  14.809
17306W        W83715  22.252  28.159  14.706
17307W        W83716  34.551  39.144  10.259
17308W        W83717  36.544   1.310   1.366
17309W        W83718  36.584  35.954  11.009
17310W        W83719  20.370  29.527  11.965
17311W        W83720  39.410   5.300  12.506
17312W        W83721  33.656  19.067  11.566
17313W        W83722  39.243  26.546  13.965
17314W        W83723  16.276  19.535   4.656
17315W        W83724  44.797  15.134   2.889
17316W        W83725  11.919  44.884   4.931
17317W        W83726  41.820   3.261  12.908
17318W        W83727  30.328  31.921   1.317
17319W        W83728  33.129   3.399  10.294
17320W        W83729   0.720  41.645   1.250
17321W        W83730   5.818   1.820  10.890
17322W        W83731  30.715  30.821   1.319
17323W        W83732  36.991  42.727   2.682
17324W        W83733  20.582   8.033   4.011
17325W        W83734  23.610  29.108   4.509
17326W        W83735  37.891   5.080   4.169
17327W        W83736  29.019  34.493  13.710
17328W        W83737  37.080  18.291  14.540
17329W        W83738  24.463  12.332   2.273
17330W        W83739  32.448  25.216   1.957
17331W        W83740  27.567  25.582  11.552
17332W        W83741  25.186  23.759  12.770
17333W        W83742  24.453  10.351  11.677
17334W        W83743   5.799  40.593   4.414
17335W        W83744  15.561  19.260  11.340
17336W        W83745  39.871  34.161   4.654
17337W        W83746  38.026  23.110   4.833
17338W        W83747  41.403  27.026  14.874
17339W        W83748  15.909  23.863   4.990
17340W        W83749   1.848  25.963  10.845
17341W        W83750  22.270   2.580   2.723
17342W        W83751  22.444  30.549  12.042
17343W        W83752  20.099  32.390  11.622
17344W        W83753  42.759   8.682   4.512
17345W        W83754  44.564   2.401  12.755
17346W        W83755  26.770   4.465   1.347
17347W        W83756  42.763  14.094   1.324
17348W        W83757  20.850  12.188   2.620
17349W        W83758  32.130  25.737  13.798
17350W        W83759  39.425   3.178   2.754
17351W        W83760  24.763  18.798   0.893
17352W        W83761  28.211  20.027   4.397
17353W        W83762  39.472  10.967  13.527
17354W        W83763  41.207  28.578   2.911
17355W        W83764  37.094  15.331   4.982
17356W        W83765  24.641  39.840  11.700
17357W        W83766  40.720  16.165  12.071
17358W        W83767   8.245  36.224   3.289
17359W        W83768  32.751  13.994   4.215
17360W        W83769  42.510  40.996  11.734
17361W        W83770  32.309  38.656   4.987
17362W        W83771  29.115  38.492  11.467
17363W        W83772  31.963  22.960   0.948
17364W        W83773  33.544  30.338   9.992
17365W        W83774   0.345   2.171  13.306
17366W        W83775  27.910   9.762   0.170
17367W        W83776  28.045  19.611   1.691
17368W        W83777  35.060  42.338   0.890
17369W        W83778  23.630  36.881  12.602
17370W        W83779   8.654  24.808   0.631
17371W        W83780   3.441  25.186  13.615
17372W        W83781  11.413   9.079  13.076
17373W        W83782  32.814   7.316   0.840
17374W        W83783  13.741  33.860   9.905
17375W        W83784  29.278  37.868  13.151
17376W        W83785   6.565  19.099  12.551
17377W        W83786  30.313  37.036  11.042
17378W        W83787   7.227  17.629   1.695
17379W        W83788  36.840  10.666   3.800
17380W        W83789   6.307  23.462  13.892
17381W        W83790   0.239   1.748  14.826
17382W        W83791   9.241   0.253  12.107
17383W        W83792  35.866  16.461  10.723
17384W        W83793  39.761  40.671   1.628
17385W        W83794   9.112   3.000   3.671
17386W        W83795  33.939  31.965   0.235
17387W        W83796  23.391  10.334   4.237
17388W        W83797  38.303  32.283  10.736
17389W        W83798  23.328  41.897  11.140
17390W        W83799  30.386  29.092   4.739
17391W        W83800   3.878  27.592   1.815
17392W        W83801  34.411  34.420  12.381
17393W        W83802  39.118   8.784   1.687
17394W        W83803  37.368  41.609  13.849
17395W        W83804  36.085  20.808   2.915
17396W        W83805   0.819  37.483  14.041
17397W        W83806  23.125  40.781   1.131
17398W        W83807  25.246  23.190  10.650
17399W        W83808  14.310  40.617  14.939
17400W        W83809  39.041   1.876   0.867
17401W        W83810  13.776  19.786   3.646
17402W        W83811  16.814  21.113  12.436
17403W        W83812  20.981  21.640  12.550
17404W        W83813  41.830  38.144  10.504
17405W        W83814  11.211  19.822   3.144
17406W        W83815  22.989  21.599  11.543
17407W        W83816  13.655  26.727   0.708
17408W        W83817  28.948  43.135   4.631
17409W        W83818  42.833   7.759   9.571
17410W        W83819   3.103  33.954   4.583
17411W        W83820  23.571  33.952  10.727
17412W        W83821  16.591  18.050   4.491
17413W        W83822  26.142  15.185   2.832
17414W        W83823  26.973   8.962  14.980
17415W        W83824   6.957   2.992  13.474
17416W        W83825  16.748  33.794  12.589
17417W        W83826   5.315  23.496   9.975
17418W        W83827   6.637  13.881   4.023
17419W        W83828  20.604  43.545   1.081
17420W        W83829  38.375  40.811  13.815
17421W        W83830  29.283  31.560  10.460
17422W        W83831  19.317  35.915  10.672
17423W        W83832  15.587   1.682  13.201
17424W        W83833   9.639  14.724   3.578
17425W        W83834  37.623  21.168  11.188
17426W        W83835   9.897  12.771   3.895
17427W        W83836  33.798  35.154   2.787
17428W        W83837   1.361  29.857  11.570
17429W        W83838  38.685   3.909   3.825
17430W        W83839  27.517  33.492   2.124
17431W        W83840   7.062  14.635   2.286
17432W        W83841  32.139  38.293  13.313
17433W        W83842  31.406  25.206   4.637
17434W        W83843   7.867  33.677  11.038
17435W        W83844  23.270   0.140   4.309
17436W        W83845  17.203   9.958  13.613
17437W        W83846  36.355  18.151  11.915
17438W        W83847   5.889  42.837  11.074
17439W        W83848  42.408  12.308  12.563
17440W        W83849  36.504  17.202   1.932
17441W        W83850  15.880  23.361   4.945
17442W        W83851   2.025   7.431  12.879
17443W        W83852  17.329  43.228   4.216
17444W        W83853  12.795  13.625  10.846
17445W        W83854  22.232  25.422   1.429
17446W        W83855  18.676  10.936  12.071
17447W        W83856   6.994  38.791  11.116
17448W        W83857  25.264  11.489   3.998
17449W        W83858   6.699  36.860   3.966
17450W        W83859  32.854  42.280   4.194
17451W        W83860  31.431  36.488   2.336
17452W        W83861  23.933   1.070  13.193
17453W        W83862  16.798  28.980   1.780
17454W        W83863  21.602  40.973   4.289
17455W        W83864  31.151  35.534   2.407
17456W        W83865   4.272  34.023   2.791
17457W        W83866  36.846  44.682  11.599
17458W        W83867   7.938  22.832  11.168
17459W        W83868  10.819  11.371   0.805
17460W        W83869  28.902  19.374   4.893
17461W        W83870  14.789  15.735  12.590
17462W        W83871  18.624  22.635   0.798
17463W        W83872   2.435  16.160   2.236
17464W        W83873   8.221   2.725   1.668
17465W        W83874   0.398  35.054  12.395
17466W        W83875   6.891  32.180   5.010
17467W        W83876   7.790  21.123   2.726
17468W        W83877  26.553  36.299   1.333
17469W        W83878  26.063  33.337   4.312
17470W        W83879  16.443  15.371  14.249
17471W        W83880  43.480   3.861  12.626
17472W        W83881  12.413  23.879  10.217
17473W        W83882  26.690  20.014  10.874
17474W        W83883  34.216   9.367   2.154
17475W        W83884  14.343  24.909  11.592
17476W        W83885  10.700  13.220   1.501
17477W        W83886  21.527  10.356   4.199
17478W        W83887  12.334   6.160  10.616
17479W        W83888  24.095  33.893  10.856
17480W        W83889  10.671  43.937   3.197
17481W        W83890  23.528  11.870  12.475
17482W        W83891  40.082   1.996   4.150
17483W        W83892  21.562   3.400  11.062
17484W        W83893  30.668  12.879  11.624
17485W        W83894   3.186  27.589  13.900
17486W        W83895   4.597  15.123   3.700
17487W        W83896  19.017  22.737   4.118
17488W        W83897  11.186  44.341   2.691
17489W        W83898  42.801  20.159  13.871
17490W        W83899  25.990  42.387  14.157
17491W        W83900  15.696  38.007  11.384
17492W        W83901  12.530  37.362  13.852
17493W        W83902   0.151   6.460   3.333
17494W        W83903  24.737  10.638   0.301
17495W        W83904   0.189  33.944  11.101
17496W        W83905  25.230  41.933  13.474
17497W        W83906  24.457   9.234   2.583
17498W        W83907   6.156  40.371   2.099
17499W        W83908  38.911  21.864   9.632
17500W        W83909  38.435  32.580   1.749
17501W        W83910  26.137  43.209  14.762
17502W        W83911  11.376  43.902  12.815
17503W        W83912  20.079  34.448  12.136
17504W        W83913  40.195  20.440  12.086
17505W        W83914  18.083  27.144  12.661
17506W        W83915  23.105  18.522  14.349
17507W        W83916  26.917   3.476  12.552
17508W        W83917   6.530  25.435   3.900
17509W        W83918  14.455  34.419  14.885
17510W        W83919  33.561  21.209   5.044
17511W        W83920  23.605  14.779  10.747
17512W        W83921   9.831  31.288  12.463
17513W        W83922  12.186  39.084  11.937
17514W        W83923  21.153   8.985  11.577
17515W        W83924   3.912  19.799   1.341
17516W        W83925  26.234  32.834   4.307
17517W        W83926   2.234  10.700  14.389
17518W        W83927  11.834   2.800   3.117
17519W        W83928  13.171  37.777  11.493
17520W        W83929  15.386   4.237   4.279
17521W        W83930  34.711  40.140  13.836
17522W        W83931  29.249  33.501  13.878
17523W        W83932  25.699   9.839  10.332
17524W        W83933  42.203   2.271  12.919
17525W        W83934  43.480  13.383  14.855
17526W        W83935   9.659   1.809   1.019
17527W        W83936  22.801  32.153  14.628
17528W        W83937  11.898   3.580   4.595
17529W        W83938  22.833   2.433   1.828
17530W        W83939  20.969  15.881  11.224
17531W        W83940  13.978  22.326  13.080
17532W        W83941  26.475   4.527  10.677
17533W        W83942  13.563  33.031  12.077
17534W        W83943  23.540  32.013   0.469
17535W        W83944  10.118  28.482  10.605
17536W        W83945  32.919  18.204   0.716
17537W        W83946   0.597  40.813   1.686
17538W        W83947   4.750  27.554   0.645
17539W        W83948  40.300  24.773  12.912
17540W        W83949  32.614  28.372  12.012
17541W        W83950  23.043  18.780   4.424
17542W        W83951  18.333  11.604   4.078
17543W        W83952  42.311  33.071   2.284
17544W        W83953  19.626  32.918  11.488
17545W        W83954  11.839  10.901  14.497
17546W        W83955  32.759  20.871   1.376
17547W        W83956  43.937   7.500   3.267
17548W        W83957  42.852  16.133  14.787
17549W        W83958  32.582   4.021   5.318
17550W        W83959  28.825   4.887   3.849
17551W        W83960  41.314  26.732  11.057
17552W        W83961  20.806  21.139   4.146
17553W        W83962  21.400  20.602   3.284
17554W        W83963   4.681  11.379   4.374
17555W        W83964  29.529  27.170   3.656
17556W        W83965  23.484   0.735  11.534
17557W        W83966  21.721  12.668  10.811
17558W        W83967   5.581  14.664   4.534
17559W        W83968  35.005   3.509  14.348
17560W        W83969  12.187  36.476   3.881
17561W        W83970   0.299   3.685  14.226
17562W        W83971  19.955   9.767  11.868
17563W        W83972  33.098  36.095  11.183
17564W        W83973  21.003  36.937  12.808
17565W        W83974  36.631  23.145  10.584
17566W        W83975  36.339   2.278  12.141
17567W        W83976  26.198  36.790   2.175
17568W        W83977  29.467  15.161   0.360
17569W        W83978   9.769  28.484  11.925
17570W        W83979  29.995  15.294   2.857
17571W        W83980  10.229  38.868  11.120
17572W        W83981  44.451  38.424   4.593
17573W        W83982  17.341  12.376   4.667
17574W        W83983  35.374  33.203  10.698
17575W        W83984   4.714  28.632   4.119
17576W        W83985  10.241  25.952   0.386
17577W        W83986  32.843  26.645  13.966
17578W        W83987   3.779  10.360  11.270
17579W        W83988  13.237  18.649  14.740
17580W        W83989  24.921  16.828  14.245
17581W        W83990  31.097  18.833  14.361
17582W        W83991  19.236  19.489  13.094
17583W        W83992  20.395  24.970  10.723
17584W        W83993  43.287  33.245  11.764
17585W        W83994  19.562  28.572  10.835
17586W        W83995  20.235  13.891   4.174
17587W        W83996  29.058  42.747  13.004
17588W        W83997  22.513   8.292   3.268
17589W        W83998   2.424  38.012   2.585
17590W        W83999  42.596  25.584  10.748
17591W        W84000  13.836  34.589  12.926
17592W        W84001  12.419  37.835   2.312
17593W        W84002   4.161  24.592  11.078
17594W        W84003  16.243  22.649   0.355
17595W        W84004  10.795  36.003  11.722
17596W        W84005  16.252  17.718  14.522
17597W        W84006  33.457  15.870   2.260
17598W        W84007   6.658  27.128   0.368
17599W        W84008  15.834  24.088  11.058
17600W        W84009  23.439   9.636   1.425
17601W        W84010  18.158   5.238   1.379
17602W        W84011  24.238  15.117  13.436
17603W        W84012  33.221   5.365  10.302
17604W        W84013  34.012  17.844  11.166
17605W        W84014  42.799   3.013  11.209
17606W        W84015   4.392  29.125   3.209
17607W        W84016  33.665   4.329  12.496
17608W        W84017  14.029  10.789  11.615
17609W        W84018  33.551  43.941   0.419
17610W        W84019  24.181  28.016   0.308
17611W        W84020  34.337  19.267  14.582
17612W        W84021   8.300   3.603  13.843
17613W        W84022  20.333  22.686  14.262
17614W        W84023   6.412  32.230   4.788
17615W        W84024  16.315  16.119  13.200
17616W        W84025  30.888  27.935  14.951
17617W        W84026   5.648  32.870   2.757
17618W        W84027   9.156   5.435  13.121
17619W        W84028  27.677  36.067   0.203
17620W        W84029  37.517  32.457   1.348
17621W        W84030  37.042   9.618  11.494
17622W        W84031  29.031  30.598   3.024
17623W        W84032  29.606  14.248  11.316
17624W        W84033  33.636  38.163   3.664
17625W        W84034  42.023  41.582   2.470
17626W        W84035  19.178   9.883   2.332
17627W        W84036   3.886  18.053  14.988
17628W        W84037   7.277  16.044   3.269
17629W        W84038  40.511  36.445   4.083
17630W        W84039  27.412  38.308   0.989
17631W        W84040   5.374   2.517   2.740
17632W        W84041  11.689  42.355  12.390
17633W        W84042  29.937   0.369   3.892
17634W        W84043   5.869  41.394  14.292
17635W        W84044   4.841  31.946   5.002
17636W        W84045  23.564   8.675  13.769
17637W        W84046  12.578   8.232  12.209
17638W        W84047  20.322  13.835  13.626
17639W        W84048  33.375  38.353   3.244
17640W        W84049  37.516  35.894   0.812
17641W        W84050  28.904  35.126   0.905
17642W        W84051  38.254  19.630  12.005
17643W        W84052   7.806  10.064   3.694
17644W        W84053  13.806  39.533  12.426
17645W        W84054   2.464   7.259  13.560
17646W        W84055   7.452  18.703  13.859
17647W        W84056  34.474  17.374   0.301
17648W        W84057  40.976  36.847   4.643
17649W        W84058   5.826  21.643   1.858
17650W        W84059   2.788  28.062  10.934
17651W        W84060  11.393  20.268  13.761
17652W        W84061  30.902  34.970   0.856
17653W        W84062   1.107   0.467  14.103
17654W        W84063  19.521  16.171  13.328
17655W        W84064  21.772  23.019   0.882
17656W        W84065   3.327  12.545   0.263
17657W        W84066  12.308   1.048  12.122
17658W        W84067  21.538  14.735   4.166
17659W        W84068  25.172   4.151   1.011
17660W        W84069   7.231  31.931  14.481
17661W        W84070  27.208   0.938  11.205
17662W        W84071   2.258  42.228  14.115
17663W        W84072   7.857   8.650   0.768
17664W        W84073  33.368  25.034  11.554
17665W        W84074  19.119  26.637   2.627
17666W        W84075  29.511   8.196  11.983
17667W        W84076   7.315   7.289  11.928
17668W        W84077  15.198  40.316  14.985
17669W        W84078  10.916  43.873   2.748
17670W        W84079  20.705  23.568  11.434
17671W        W84080  15.214  44.603   3.664
17672W        W84081  40.193   6.388   4.565
17673W        W84082  35.588  15.729   4.920
17674W        W84083  36.876  36.043  14.653
17675W        W84084  31.086  34.082   0.471
17676W        W84085  19.805   8.767  10.947
17677W        W84086  36.394  15.713   2.063
17678W        W84087  29.726  41.647   0.876
17679W        W84088  10.683  24.180   4.109
17680W        W84089  28.209  22.044  12.140
17681W        W84090  11.410  10.731  11.542
17682W        W84091  27.585  31.413  12.297
17683W        W84092  16.784   2.501   0.459
17684W        W84093  12.547  28.250  14.412
17685W        W84094  33.657  13.128   0.696
17686W        W84095  44.367  11.282   4.278
17687W        W84096   7.500  23.808  11.836
17688W        W84097   6.867  12.709   4.846
17689W        W84098  25.746   2.283   2.826
17690W        W84099   8.500  37.351  11.161
17691W        W84100  18.106  35.656  13.825
17692W        W84101  10.677   4.615   0.353
17693W        W84102  14.821  11.737   4.138
17694W        W84103   0.372  34.849   2.767
17695W        W84104   7.224   0.419   2.900
17696W        W84105  41.579   5.237   3.846
17697W        W84106   2.252   5.908   3.683
17698W        W84107   3.731  27.592   0.886
17699W        W84108  26.865  43.399   2.391
17700W        W84109  12.853  18.982  14.807
17701W        W84110  40.689  30.029  14.482
17702W        W84111  44.782  23.505  14.050
17703W        W84112  32.352  10.871  12.420
17704W        W84113  11.618  18.205  14.828
17705W        W84114  12.727   8.428   1.879
17706W        W84115  34.320  25.192  11.239
17707W        W84116  28.080  22.031   4.705
17708W        W84117  21.165  25.927  11.593
17709W        W84118   9.455  22.506  13.069
17710W        W84119  42.247   7.035   2.284
17711W        W84120  10.102  15.850  10.428
17712W        W84121  28.878  16.722   4.978
17713W        W84122   0.377  38.137   4.301
17714W        W84123   3.373  20.415   0.787
17715W        W84124  31.876  15.322  13.138
17716W        W84125  15.751  36.925  13.859
17717W        W84126  17.027  14.105  14.331
17718W        W84127  27.494  35.525  11.987
17719W        W84128  26.115  13.634   0.808
17720W        W84129   4.680  31.239   3.683
17721W        W84130  23.186  32.045  13.005
17722W        W84131   7.702  23.824   1.634
17723W        W84132  28.108   0.890   4.134
17724W        W84133  28.035  40.546  11.905
17725W        W84134  18.513  40.054  10.781
17726W        W84135  23.463  37.535   0.212
17727W        W84136  21.277  15.303  14.496
17728W        W84137  16.239  36.887   3.291
17729W        W84138   8.994  11.693  14.514
17730W        W84139  29.616  15.973  11.547
17731W        W84140  35.540  44.102   2.315
17732W        W84141   0.454  33.776  13.851
17733W        W84142  36.976   3.129   0.876
17734W        W84143   5.185  27.111   2.839
17735W        W84144   6.871   2.763  14.912
17736W        W84145  44.706   7.441   1.761
17737W        W84146   8.915  30.645   9.917
17738W        W84147  26.679  11.462  13.478
17739W        W84148  27.081  24.752  13.938
17740W        W84149  40.413  41.299   4.024
17741W        W84150  12.676   0.202  13.764
17742W        W84151  26.191  24.303   4.084
17743W        W84152  11.933  44.028  11.525
17744W        W84153   3.308  33.423   5.015
17745W        W84154  33.474  16.209  12.381
17746W        W84155  44.836  16.324  13.623
17747W        W84156  40.572   5.734  13.640
17748W        W84157  13.081   4.688   4.119
17749W        W84158  21.240  10.797   4.682
17750W        W84159   8.100  42.167   4.516
17751W        W84160  29.225   2.837   0.369
17752W        W84161  12.148  14.344   4.180
17753W        W84162  23.173  42.154  11.931
17754W        W84163  34.625  33.403  11.086
17755W        W84164   9.420   5.936   3.699
17756W        W84165  35.864  15.203   2.616
17757W        W84166  12.358   1.742  11.156
17758W        W84167   2.532  21.370  13.821
17759W        W84168  39.008  11.176  13.421
17760W        W84169  40.406  37.787   5.192
17761W        W84170  30.054  30.666  11.135
17762W        W84171  23.560   7.373   4.788
17763W        W84172   0.698  12.820   3.284
17764W        W84173  42.667  43.014  14.474
17765W        W84174  10.928   6.467  12.033
17766W        W84175  17.207  42.303   0.317
17767W        W84176  41.774  16.076   2.423
17768W        W84177  41.825  25.629   2.308
17769W        W84178   6.919   5.339  10.349
17770W        W84179   0.151   8.671  13.020
17771W        W84180   8.189   4.190   4.584
17772W        W84181  18.019   3.599  12.966
17773W        W84182  26.938  26.606  10.700
17774W        W84183  40.353  14.217  11.639
17775W        W84184   1.307  37.919  14.799
17776W        W84185  32.001   0.507  13.480
17777W        W84186  40.838  12.880   4.750
17778W        W84187  19.566   4.508  11.414
17779W        W84188  15.780  14.459   3.136
17780W        W84189  10.774  21.465   1.679
17781W        W84190  25.041  12.357  13.904
17782W        W84191   8.525  28.792  14.922
17783W        W84192  14.840   1.657   4.883
17784W        W84193  11.862  23.593  13.858
17785W        W84194  25.010  40.855  10.763
17786W        W84195  40.313   8.709   3.389
17787W        W84196  38.958  18.690  10.214
17788W        W84197  20.983  25.799   3.509
17789W        W84198  42.812  26.111   4.820
17790W        W84199  44.868  22.028  12.085
17791W        W84200  29.035  26.729  13.051
17792W        W84201  42.504  22.564  13.886
17793W        W84202   7.883  27.640  14.592
17794W        W84203  11.370  20.830  11.628
17795W        W84204  15.078   8.457   4.932
17796W        W84205   6.886  33.412  13.398
17797W        W84206  24.245  28.710  14.316
17798W        W84207   4.118  17.750   1.426
17799W        W84208   4.355  34.321   0.453
17800W        W84209  32.906  22.230  11.595
17801W        W84210  33.179   0.100  13.834
17802W        W84211  18.917   5.896  12.137
17803W        W84212   4.934  26.892   0.033
17804W        W84213  41.820  32.236   4.604
17805W        W84214  34.909  30.433   4.246
17806W        W84215   3.942  12.759  10.378
17807W        W84216  30.830  36.998   1.419
17808W        W84217  33.113  42.249  13.136
17809W        W84218  33.927  43.821  12.497
17810W        W84219   4.700   8.759   3.603
17811W        W84220  17.965   6.260  12.106
17812W        W84221   9.828   8.709   3.624
17813W        W84222  31.679  35.856   1.535
17814W        W84223  35.351  40.930  12.434
17815W        W84224  30.951  17.705  10.635
17816W        W84225  35.023  22.569  14.973
17817W        W84226  33.102   2.219   3.733
17818W        W84227  10.325   1.768   3.661
17819W        W84228   4.827  13.106   2.295
17820W        W84229  10.555  35.042  11.882
17821W        W84230   4.592  31.759  10.428
17822W        W84231  22.693   3.236  14.728
17823W        W84232  23.547  37.171  13.435
17824W        W84233  41.268  24.539   0.860
17825W        W84234  43.459   5.694  11.048
17826W        W84235   6.722  21.782  11.965
17827W        W84236  16.073  33.060  14.018
17828W        W84237  10.214  16.717   4.493
17829W        W84238   0.461  13.242  13.103
17830W        W84239  30.550  31.781   4.518
17831W        W84240  10.273  21.625   1.826
17832W        W84241   5.866  34.976   4.550
17833W        W84242  28.666  20.709  10.645
17834W        W84243  23.781  15.653   0.828
17835W        W84244  10.252  29.200  13.144
17836W        W84245  41.905  17.757  11.684
17837W        W84246  40.569  16.672  10.773
17838W        W84247  15.332   1.514   3.551
17839W        W84248  21.952  21.613  13.350
17840W        W84249  30.921   3.528  12.464
17841W        W84250   1.921  18.754  12.495
17842W        W84251  39.051  44.850   1.071
17843W        W84252  39.616  13.169  12.018
17844W        W84253  35.103  19.579   2.702
17845W        W84254   0.003  27.515   2.137
17846W        W84255   5.432  40.740   3.926
17847W        W84256   3.385  14.281   4.425
17848W        W84257  43.971  29.553   4.887
17849W        W84258   9.240  36.019   4.096
17850W        W84259  29.594  12.663   1.625
17851W        W84260  39.905  10.159  13.634
17852W        W84261  15.070  26.587   0.451
17853W        W84262  17.570  34.483   4.084
17854W        W84263  37.242   8.003  12.896
17855W        W84264  28.989  27.619  14.700
17856W        W84265  26.079  44.041   1.935
17857W        W84266  43.211  18.830  13.506
17858W        W84267   0.258  29.543   2.899
17859W        W84268  43.625  31.152  10.584
17860W        W84269  39.052   6.353  14.369
17861W        W84270   8.173  21.111  12.264
17862W        W84271  35.884  42.282  13.992
17863W        W84272  15.664   4.622   1.475
17864W        W84273  14.738   9.914   0.890
17865W        W84274   5.535   1.888  11.884
17866W        W84275  35.081   5.470   4.950
17867W        W84276  28.591  18.571   2.868
17868W        W84277   2.285  36.153   1.664
17869W        W84278   8.300   7.771   3.600
17870W        W84279   1.976  34.438  11.741
17871W        W84280  25.750   2.463   1.680
17872W        W84281   3.898  21.679   3.790
17873W        W84282   1.384  14.182  10.689
17874W        W84283   6.780   4.412   3.672
17875W        W84284  24.704   0.425   0.016
17876W        W84285  19.815  13.870   1.688
17877W        W84286  43.859  10.437  13.489
17878W        W84287  36.168  32.904  11.611
17879W        W84288  37.248  17.774  13.381
17880W        W84289  18.007   8.890   3.274
17881W        W84290  14.661  19.499   3.197
17882W        W84291  29.474   2.473   2.245
17883W        W84292   5.649  25.978  14.334
17884W        W84293  22.566  24.738  11.146
17885W        W84294  41.253  35.531  13.005
17886W        W84295  40.972  31.724  10.813
17887W        W84296  39.743  23.752   2.423
17888W        W84297  18.102  20.717   2.559
17889W        W84298  37.435  27.521  10.988
17890W        W84299  29.978  41.260   4.163
17891W        W84300  36.018  21.542  12.552
17892W        W84301  15.774  34.551  12.088
17893W        W84302  30.175  16.025  12.829
17894W        W84303  30.540   4.862  14.570
17895W        W84304  23.397  14.197   1.377
17896W        W84305  22.287  33.529  11.974
17897W        W84306   5.370  37.823   3.749
17898W        W84307   1.979   6.671  11.062
17899W        W84308  35.501  30.615  12.439
17900W        W84309  29.556  28.278   1.228
17901W        W84310  17.117   8.148   1.875
17902W        W84311  10.575  27.601   0.299
17903W        W84312  22.905  19.862   0.992
17904W        W84313  33.852  36.990   1.954
17905W        W84314  27.216  39.014   0.335
17906W        W84315  13.840  39.956  12.139
17907W        W84316  39.228   4.305  14.429
17908W        W84317   9.433  17.622  13.762
17909W        W84318  31.183  41.047   1.866
17910W        W84319   8.154   5.902   4.166
17911W        W84320  40.565  37.911  14.924
17912W        W84321  30.809  14.026  13.029
17913W        W84322  21.325   4.857   2.691
17914W        W84323   4.033   4.096  11.363
17915W        W84324  12.464  13.085  14.089
17916W        W84325  21.461  21.638   3.644
17917W        W84326  17.604   3.883   0.841
17918W        W84327  38.866  28.045  11.191
17919W        W84328  33.163  31.354  12.985
17920W        W84329   0.023  14.603  10.741
17921W        W84330  28.580   3.342  13.847
17922W        W84331   8.714  19.756   2.392
17923W        W84332   9.121  34.853  11.948
17924W        W84333  23.696  21.040   0.366
17925W        W84334  21.015   9.905   4.233
17926W        W84335  27.945  42.416  11.730
17927W        W84336  29.906  41.789   4.355
17928W        W84337  15.944  32.641  11.842
17929W        W84338   4.906  13.652  13.923
17930W        W84339   3.172  30.944   2.652
17931W        W84340  24.024  14.346  11.254
17932W        W84341  18.428  25.236   2.876
17933W        W84342  30.160  43.511  10.772
17934W        W84343  25.148  42.802  13.795
17935W        W84344  30.424  27.795   3.576
17936W        W84345  33.412   9.753   2.154
17937W        W84346  27.282  25.341  13.563
17938W        W84347  15.691  18.078   4.563
17939W        W84348  13.183  26.683  10.677
17940W        W84349   2.578  14.430  12.406
17941W        W84350  30.802  32.822   0.829
17942W        W84351  22.595  41.988   0.769
17943W        W84352  31.396  14.123   2.844
17944W        W84353  24.735   8.324  13.062
17945W        W84354  16.215  28.215   1.841
17946W        W84355   6.231   7.668   4.284
17947W        W84356   9.599   2.746   4.519
17948W        W84357   7.770  27.812   2.696
17949W        W84358   2.002  15.012   3.103
17950W        W84359  36.367  29.651   3.418
17951W        W84360  10.843  41.425  13.366
17952W        W84361  30.451   3.777   3.068
17953W        W84362  13.810  39.982   2.625
17954W        W84363  22.710  39.338  13.805
17955W        W84364  36.587  31.930  10.209
17956W        W84365  21.496   9.723  14.958
17957W        W84366  13.629  42.716   1.872
17958W        W84367   1.955  32.892  12.043
17959W        W84368   3.993   4.073  13.903
17960W        W84369  42.375  28.150  12.884
17961W        W84370  12.747  41.406  11.408
17962W        W84371  10.578   6.684  13.225
17963W        W84372  37.910  13.674  12.458
17964W        W84373  36.951  22.148   3.296
17965W        W84374   4.844  22.257   0.064
17966W        W84375  31.401  35.687   0.276
17967W        W84376  14.398  40.558  13.028
17968W        W84377  17.073  14.627  13.823
17969W        W84378  44.590  10.577   0.068
17970W        W84379  32.023  29.611   0.821
17971W        W84380  44.208  35.335   1.187
17972W        W84381  23.597   2.549  11.010
17973W        W84382  30.586  11.991   0.898
17974W        W84383   9.523  28.039  11.884
17975W        W84384  21.738  14.749  10.347
17976W        W84385   6.761  35.084   4.519
17977W        W84386  36.376  22.117   1.834
17978W        W84387  43.340  18.714   4.044
17979W        W84388  33.938   4.034   3.294
17980W        W84389  14.270  21.399   1.475
17981W        W84390  36.416  18.844  12.999
17982W        W84391  38.294  23.490   2.884
17983W        W84392  33.513   9.302   0.811
17984W        W84393  20.296  26.904  13.455
17985W        W84394  19.578  20.825   0.819
17986W        W84395  15.323  35.781  14.025
17987W        W84396  38.470   2.832  11.546
17988W        W84397  38.140   0.563   1.767
17989W        W84398  33.501  18.947   4.518
17990W        W84399  14.217   8.416  13.887
17991W        W84400  23.211  40.532  12.985
17992W        W84401  38.018  44.455   3.947
17993W        W84402  42.009  30.936   4.205
17994W        W84403  44.997  35.611  13.786
17995W        W84404  43.037   6.766   3.191
17996W        W84405  31.232  42.740  12.127
17997W        W84406  12.626  14.177  12.606
17998W        W84407   8.775  12.125  14.275
17999W        W84408  11.453  31.588  12.218
18000W        W84409  28.704   0.229  11.943
18001W        W84410  25.894  41.760   1.022
18002W        W84411  23.883   4.442  11.543
18003W        W84412  15.000  13.718  12.011
18004W        W84413  29.173  33.577   4.267
18005W        W84414  12.054  43.696   1.358
18006W        W84415  42.062  21.586  12.173
18007W        W84416  13.629   0.142   1.878
18008W        W84417  38.920  40.720   1.806
18009W        W84418   0.819  40.466  13.864
18010W        W84419  13.169   0.561  14.474
18011W        W84420  19.183  38.077  12.412
18012W        W84421  39.851   9.377  14.279
18013W        W84422  28.737  23.091   4.985
18014W        W84423  22.785  31.023  10.938
18015W        W84424  42.897  26.015  12.769
18016W        W84425  12.925   7.300  12.926
18017W        W84426  17.003  30.531   1.698
18018W        W84427  42.451  28.812  14.805
18019W        W84428   6.289   7.208   4.047
18020W        W84429  31.459  20.293  12.566
18021W        W84430   8.242  33.904   0.813
18022W        W84431  44.814  36.368  13.374
18023W        W84432  23.691  41.595  14.382
18024W        W84433  17.838  36.907   3.243
18025W        W84434  34.889  35.450  12.932
18026W        W84435  31.814  29.079  14.494
18027W        W84436  17.615  16.833  14.781
18028W        W84437   2.913  21.213   0.840
18029W        W84438  22.884  38.888  14.053
18030W        W84439  35.562  19.388   2.859
18031W        W84440   0.933  40.526   0.420
18032W        W84441  40.905   4.132   2.223
18033W        W84442  13.375  24.966   2.231
18034W        W84443   7.214  11.841  13.746
18035W        W84444  41.322   5.381  13.442
18036W        W84445  15.782  27.205  14.309
18037W        W84446   2.036  35.216   4.100
18038W        W84447  27.014   4.615  13.386
18039W        W84448  22.976   5.705  11.602
18040W        W84449  10.843  24.654  12.158
18041W        W84450   6.338  10.413  14.011
18042W        W84451   9.069  12.882  13.940
18043W        W84452  44.447  24.191   1.688
18044W        W84453  43.073  15.298   2.689
18045W        W84454   8.945  31.259   1.992
18046W        W84455  26.507   5.370  13.500
18047W        W84456  29.889  17.914  13.973
18048W        W84457   1.747  11.401  13.022
18049W        W84458  22.702   1.936   1.972
18050W        W84459  41.914  13.633  14.373
18051W        W84460  12.824  22.937   1.399
18052W        W84461   3.137  25.439  13.282
18053W        W84462   5.128   5.248  13.932
18054W        W84463  12.906  27.391   4.158
18055W        W84464  23.804  16.197  10.748
18056W        W84465   4.090  32.349  11.046
18057W        W84466  12.580  36.508  13.935
18058W        W84467   1.962   5.759  11.939
18059W        W84468   6.411   3.598   3.596
18060W        W84469  28.159  25.993   3.643
18061W        W84470  20.650  19.795  11.190
18062W        W84471  20.712  44.604  14.301
18063W        W84472  31.551  11.887  12.315
18064W        W84473  30.414  11.892  14.273
18065W        W84474  34.378  30.572  12.565
18066W        W84475   7.854  31.150   3.195
18067W        W84476  33.670  44.699   2.475
18068W        W84477  36.461  32.086  12.673
18069W        W84478  33.099  34.333  12.051
18070W        W84479  27.025  42.698  12.190
18071W        W84480  23.301  23.657   0.406
18072W        W84481  27.910   7.681  10.079
18073W        W84482  27.192  41.351  14.848
18074W        W84483  27.533  39.464  10.596
18075W        W84484  35.971  25.178  10.952
18076W        W84485   7.911  20.763   0.031
18077W        W84486   3.686  11.917   1.652
18078W        W84487  37.743  36.984  10.908
18079W        W84488   0.031   4.281   3.604
18080W        W84489  14.075  21.758   2.776
18081W        W84490  44.359  33.128   2.125
18082W        W84491  24.098  18.491   0.493
18083W        W84492  38.014  22.707   1.654
18084W        W84493   5.065  18.739  12.555
18085W        W84494  17.357  12.569   2.951
18086W        W84495  15.082  10.628  13.902
18087W        W84496  34.420  26.637   0.836
18088W        W84497  19.308  41.606  11.285
18089W        W84498   8.245  38.342   0.899
18090W        W84499   5.829  32.135  13.581
18091W        W84500  12.658  44.270   3.012
18092W        W84501  33.505   0.880  14.688
18093W        W84502  29.985  29.336   4.064
18094W        W84503  35.515  44.794   4.685
18095W        W84504  38.578  19.036   4.445
18096W        W84505   2.735  43.037   4.026
18097W        W84506  16.582   9.408   2.631
18098W        W84507  44.795  15.582  14.817
18099W        W84508   1.387   5.419   0.786
18100W        W84509  35.655  19.800  12.497
18101W        W84510  17.585  25.153  14.749
18102W        W84511  35.972  15.979  10.646
18103W        W84512   3.279  26.256  11.881
18104W        W84513  20.573  24.275  13.410
18105W        W84514  19.782  40.884  11.647
18106W        W84515  25.676  22.375  10.781
18107W        W84516  11.271  38.087   3.656
18108W        W84517  11.361  16.129   4.631
18109W        W84518   4.310   5.887   1.672
18110W        W84519  39.839  32.980  12.480
18111W        W84520  19.387   1.954  11.093
18112W        W84521   2.294  30.355   0.684
18113W        W84522  44.559  38.973  12.057
18114W        W84523  35.539  15.377   2.254
18115W        W84524  29.384  31.503  14.375
18116W        W84525  10.742  15.524   2.204
18117W        W84526  36.877   2.456   0.296
18118W        W84527  16.200  41.536   2.826
18119W        W84528  10.788  14.802   1.650
18120W        W84529  17.404  26.551  11.380
18121W        W84530  37.157  24.340   4.638
18122W        W84531  32.477   1.914  14.693
18123W        W84532  37.709  16.497  12.328
18124W        W84533  33.888  20.279  12.000
18125W        W84534  15.021  36.260  13.076
18126W        W84535  15.684  34.562  10.195
18127W        W84536  42.976  37.836  11.505
18128W        W84537  14.121  14.075   4.058
18129W        W84538  42.731  38.044   1.299
18130W        W84539  20.130  25.717   1.045
18131W        W84540  17.280  26.675  13.970
18132W        W84541  30.423   3.781   3.570
18133W        W84542  32.991   5.583   4.581
18134W        W84543  16.363  25.434  12.965
18135W        W84544  16.361  39.160  13.901
18136W        W84545  17.529  28.359  13.271
18137W        W84546  22.662  28.557   5.229
18138W        W84547  23.193   5.706   0.252
18139W        W84548  16.962  42.000   3.273
18140W        W84549  16.716  32.490  12.595
18141W        W84550   8.547   8.741  13.251
18142W        W84551  12.513  38.357   3.201
18143W        W84552   3.153  30.352  10.086
18144W        W84553  39.502  34.988   2.904
18145W        W84554  43.535  10.081   3.542
18146W        W84555  28.911  13.121  11.147
18147W        W84556   0.120  32.635   0.660
18148W        W84557  19.174   5.820   0.650
18149W        W84558  40.308  26.087  10.561
18150W        W84559  27.608  32.353   4.127
18151W        W84560   1.943   0.715   1.891
18152W        W84561   2.815  28.166   3.146
18153W        W84562  17.692  20.243   4.564
18154W        W84563  12.179  19.998   1.437
18155W        W84564   3.136   4.778  12.996
18156W        W84565  10.559  43.285   1.714
18157W        W84566  18.592  17.752  10.711
18158W        W84567  22.531  43.888  11.480
18159W        W84568   8.652   3.053  10.568
18160W        W84569  12.594  12.723  13.270
18161W        W84570  30.945  30.135   5.084
18162W        W84571  34.033  21.043   4.765
18163W        W84572  17.176  11.420   5.012
18164W        W84573  42.629  22.211   0.380
18165W        W84574   8.356  27.575  12.166
18166W        W84575   4.325  34.650  12.896
18167W        W84576  17.997  26.803   3.882
18168W        W84577  35.321  15.590   4.502
18169W        W84578   5.966  38.977   1.358
18170W        W84579  38.808  27.031  10.889
18171W        W84580   3.571  25.164  12.864
18172W        W84581  20.827  22.569   4.490
18173W        W84582  16.638  28.047  13.161
18174W        W84583  12.912  37.895   2.375
18175W        W84584  19.573  27.746  12.462
18176W        W84585   6.382  13.526   3.224
18177W        W84586  16.511  16.634   4.421
18178W        W84587  13.172   0.199  11.542
18179W        W84588   1.800  32.969  11.549
18180W        W84589  37.303  25.668  10.804
18181W        W84590   6.387  38.893   1.749
18182W        W84591  30.248  11.784  12.574
18183W        W84592  24.117  25.457   1.923
18184W        W84593  38.366  14.407  12.858
18185W        W84594  22.670  43.500  14.525
18186W        W84595  24.141  16.338   3.878
18187W        W84596   4.247  33.871  12.555
18188W        W84597  44.198  39.712   0.373
18189W        W84598  21.507  31.203   0.981
18190W        W84599  22.472  19.624  13.909
18191W        W84600  28.612  39.050  13.051
18192W        W84601  14.586   0.831  14.408
18193W        W84602  44.276  21.705   0.807
18194W        W84603  38.403  17.200  13.403
18195W        W84604  29.468  25.917  10.682
18196W        W84605  28.933   6.278  14.760
18197W        W84606  20.074  31.987   4.222
18198W        W84607  21.816  24.553   3.569
18199W        W84608  16.245  21.343   3.076
18200W        W84609   6.546  30.755  12.123
18201W        W84610  24.640   8.225   2.707
18202W        W84611  16.101  18.737  14.348
18203W        W84612  16.893  21.462   2.038
18204W        W84613  39.715  33.624  10.852
18205W        W84614  20.482  33.271  13.375
18206W        W84615   7.296  24.228  12.053
18207W        W84616  12.468   9.093   4.484
18208W        W84617  35.935  21.088   0.340
18209W        W84618   2.535  28.407   0.261
18210W        W84619  39.381  14.708  11.141
18211W        W84620  26.749  30.130  11.136
18212W        W84621   5.273  41.530   1.770
18213W        W84622  22.760   2.432  13.426
18214W        W84623  44.664  38.389   1.426
18215W        W84624   8.948  24.558   3.858
18216W        W84625  24.097  37.376   2.784
18217W        W84626   9.478  19.632   0.703
18218W        W84627  38.457   3.707  11.074
18219W        W84628  27.008   9.107  12.994
18220W        W84629  40.390  15.759   3.125
18221W        W84630   1.987  35.476  13.095
18222W        W84631  22.736  20.156   1.718
18223W        W84632  21.529   3.268  12.062
18224W        W84633  17.651  23.713  13.904
18225W        W84634  30.941  36.856   2.875
18226W        W84635  22.013   1.392  11.183
18227W        W84636  15.063  14.391   3.681
18228W        W84637  34.585  14.651  13.859
18229W        W84638  32.089   9.326   4.182
18230W        W84639   2.384  12.152  14.510
18231W        W84640  26.083  26.236   4.437
18232W        W84641  42.490  11.177   2.672
18233W        W84642  15.377  11.253  11.291
18234W        W84643  24.241   0.231   2.347
18235W        W84644  21.958  31.899   1.446
18236W        W84645   0.305  36.546  13.284
18237W        W84646  31.985  19.730  14.307
18238W        W84647  13.757   2.266   4.489
18239W        W84648  24.479  25.264   4.123
18240W        W84649  24.773  19.327   4.706
18241W        W84650  22.828   3.794  12.165
18242W        W84651   0.642  31.188   3.625
18243W        W84652  20.716   3.393  13.667
18244W        W84653   6.319  36.366   0.405
18245W        W84654  37.815   8.874   4.997
18246W        W84655  17.770  29.933   4.286
18247W        W84656  30.976   6.658  12.089
18248W        W84657   4.142  26.453   2.294
18249W        W84658   6.462  43.280   1.190
18250W        W84659  25.089  34.918   4.533
18251W        W84660  39.705  18.749  13.561
18252W        W84661  28.956  26.193  13.466
18253W        W84662  41.446  29.469   0.228
18254W        W84663  27.409  17.748  11.108
18255W        W84664  32.016   6.871   4.956
18256W        W84665  31.929  44.720  14.495
18257W        W84666  39.835  13.818   2.781
18258W        W84667  43.605  20.950  10.886
18259W        W84668   3.147  23.671  11.990
18260W        W84669  10.824  12.560   3.271
18261W        W84670  21.346   9.169   3.282
18262W        W84671  39.105  23.749   4.991
18263W        W84672  40.057  38.749  11.508
18264W        W84673   8.621   7.378  13.483
18265W        W84674  29.650  18.729  12.787
18266W        W84675  36.133  27.444   3.258
18267W        W84676   7.869  14.240  10.880
18268W        W84677   0.493  34.405  11.427
18269W        W84678   3.033  28.640   3.265
18270W        W84679   0.357  32.469   3.401
18271W        W84680  37.044   9.293  14.384
18272W        W84681  10.930  18.211   2.367
18273W        W84682  24.461   5.506   2.608
18274W        W84683  31.962  41.041  10.810
18275W        W84684  17.441  12.121   3.207
18276W        W84685  30.453   1.692   3.686
18277W        W84686  32.169  35.748  12.904
18278W        W84687  42.786  35.918   1.157
18279W        W84688  19.291  37.662   0.755
18280W        W84689   0.450   8.721   3.665
18281W        W84690  36.635  20.254  10.797
18282W        W84691   8.321  36.499   0.208
18283W        W84692  11.359  28.395  13.877
18284W        W84693  24.743  43.704   1.769
18285W        W84694  21.470   2.637  14.890
18286W        W84695  38.884  24.161   0.455
18287W        W84696   4.439   0.112  13.031
18288W        W84697  37.407  42.682  10.563
18289W        W84698  38.816  39.993   0.015
18290W        W84699   1.899   7.861   2.703
18291W        W84700   8.961   5.419   0.921
18292W        W84701  34.405  12.935   0.225
18293W        W84702  21.605   8.689  14.271
18294W        W84703  36.243  19.604  10.281
18295W        W84704  18.225  26.683  12.990
18296W        W84705   5.812   0.775  13.563
18297W        W84706  16.039  23.672   1.822
18298W        W84707  35.607   5.935   3.283
18299W        W84708  13.318  23.256  13.890
18300W        W84709  42.218  20.173  11.613
18301W        W84710   9.774  40.831   2.380
18302W        W84711  14.759  13.318  12.674
18303W        W84712   2.848   8.776  11.533
18304W        W84713  19.449  38.937   3.287
18305W        W84714  20.605  20.824  11.946
18306W        W84715  36.598  11.860   0.003
18307W        W84716  24.020   6.482  10.787
18308W        W84717  27.218  10.542   1.691
18309W        W84718   5.930   9.904   1.363
18310W        W84719  18.268  24.120   1.384
18311W        W84720  16.608   6.308   3.366
18312W        W84721  16.347   1.797  11.643
18313W        W84722  13.304  39.055   0.468
18314W        W84723  31.868  42.045   1.765
18315W        W84724  18.339  24.075   2.874
18316W        W84725  19.813  24.545   1.864
18317W        W84726   0.996   8.952  10.694
18318W        W84727  21.579  24.546   3.126
18319W        W84728  33.125  32.537  10.893
18320W        W84729  10.255   3.524   1.799
18321W        W84730  19.283  27.692   1.366
18322W        W84731  10.781  41.066   4.549
18323W        W84732  17.620  24.782  12.055
18324W        W84733  37.865  36.473   1.810
18325W        W84734  13.482  12.635   1.313
18326W        W84735  10.116  42.239  11.959
18327W        W84736  39.628  30.933  12.154
18328W        W84737  21.271  26.190   3.207
18329W        W84738  44.222  37.312   1.826
18330W        W84739  36.061  39.073   0.314
18331W        W84740   1.745   3.168   1.785
18332W        W84741  36.394  31.741   4.178
18333W        W84742  10.180  31.692  13.127
18334W        W84743  25.691  18.683   1.714
18335W        W84744  22.648  28.894   1.883
18336W        W84745  31.128   1.686  11.027
18337W        W84746  20.109   7.852   2.078
18338W        W84747  43.365   6.856   2.741
18339W        W84748   4.883  35.863  13.939
18340W        W84749   3.227  31.506   2.492
18341W        W84750  21.630  14.359   2.256
18342W        W84751   7.858  19.160   2.838
18343W        W84752  21.162   0.188  13.656
18344W        W84753  35.253  21.540   0.874
18345W        W84754  20.627  20.955   3.710
18346W        W84755  21.790  32.539  12.903
18347W        W84756   2.492  24.359   1.806
18348W        W84757  14.229   4.705  11.259
18349W        W84758  17.089  30.474   2.689
18350W        W84759   0.377  41.087   0.809
18351W        W84760  30.991  13.350   0.907
18352W        W84761  26.116  16.151   1.390
18353W        W84762  22.060  26.350   4.083
18354W        W84763  37.964   3.749   0.403
18355W        W84764  44.259  12.344  10.718
18356W        W84765  14.666  13.572   0.182
18357W        W84766  23.509  28.804   4.107
18358W        W84767  17.201  20.765   0.416
18359W        W84768  24.747  40.066   2.376
18360W        W84769  15.812  22.433  12.405
18361W        W84770  12.436  24.774  12.631
18362W        W84771  12.727   5.932   4.105
18363W        W84772  26.079   4.093   3.737
18364W        W84773  24.571  41.248  11.615
18365W        W84774  40.892  41.966  14.126
18366W        W84775  16.740   5.725  10.653
18367W        W84776  20.978   7.353  10.750
18368W        W84777  32.946  24.518   3.483
18369W        W84778  36.547  43.932  14.503
18370W        W84779  34.988   0.710   3.840
18371W        W84780   8.894  22.184   4.243
18372W        W84781  34.401  29.172  13.383
18373W        W84782  16.710   3.031   0.474
18374W        W84783  40.397   0.471   1.386
18375W        W84784  25.394  14.622  11.079
18376W        W84785  25.820  10.355   5.117
18377W        W84786  34.497   9.651   2.835
18378W        W84787  17.258  33.064   1.408
18379W        W84788  31.507  25.933  11.622
18380W        W84789  21.112  33.929   1.459
18381W        W84790  16.606  39.127  11.857
18382W        W84791   5.468  42.607   0.980
18383W        W84792  35.573  35.378  14.509
18384W        W84793  13.234  20.810   0.840
18385W        W84794  14.185  24.019   4.124
18386W        W84795   0.006  27.189  13.522
18387W        W84796  42.397  40.765   3.251
18388W        W84797  12.530  40.091  12.471
18389W        W84798  16.656   7.326  13.395
18390W        W84799   8.745  13.104   0.916
18391W        W84800  39.951   0.146   0.172
18392W        W84801  16.046  27.015  10.717
18393W        W84802  44.205  24.655   1.851
18394W        W84803   2.114  13.308  14.828
18395W        W84804  13.811  23.659   4.150
18396W        W84805  40.409  34.893   4.061
18397W        W84806  10.724  39.713   2.677
18398W        W84807  20.259  35.275   4.298
18399W        W84808   0.624   0.887   2.129
18400W        W84809  37.856  14.293  13.078
18401W        W84810  42.672   0.394   4.269
18402W        W84811   6.114  23.631   4.017
18403W        W84812   7.481  37.077  11.067
18404W        W84813  33.595  15.718  12.565
18405W        W84814  15.304   6.714  13.823
18406W        W84815   2.302   0.460   0.799
18407W        W84816  33.200   3.080  13.951
18408W        W84817  23.047   2.901   1.864
18409W        W84818   1.367  28.677  14.543
18410W        W84819  36.407  36.148   4.039
18411W        W84820  42.292  23.316   3.075
18412W        W84821  35.315  21.195   3.416
18413W        W84822  26.928   0.759   9.870
18414W        W84823  28.511  12.819   3.327
18415W        W84824  32.122  34.810   4.262
18416W        W84825  37.554  16.546  13.269
18417W        W84826   9.914  12.699   1.277
18418W        W84827  43.405  43.498  10.731
18419W        W84828   1.741  32.519   4.523
18420W        W84829  36.514  30.733   4.169
18421W        W84830  38.345  37.782   4.177
18422W        W84831  23.899  19.279   3.035
18423W        W84832  32.757  44.134  11.900
18424W        W84833   2.482   5.173  11.636
18425W        W84834  33.152  22.139  11.121
18426W        W84835  34.440  41.001   2.941
18427W        W84836  43.268  34.523   1.361
18428W        W84837  42.852   6.112  12.836
18429W        W84838  29.115  24.543  10.704
18430W        W84839  17.862  32.905   1.738
18431W        W84840  42.425   8.467   2.057
18432W        W84841  31.138  29.679  11.251
18433W        W84842   2.541   0.743  13.422
18434W        W84843  20.108  17.884  11.104
18435W        W84844   4.236  32.359   2.178
18436W        W84845  38.566  12.665  14.511
18437W        W84846   6.171   1.189  14.435
18438W        W84847   1.327  40.616   3.217
18439W        W84848  15.157  37.795  14.889
18440W        W84849  44.624  17.057  12.435
18441W        W84850   3.954  38.331   0.461
18442W        W84851  20.570  13.777  14.077
18443W        W84852  12.118  24.997   1.884
18444W        W84853  21.970  25.522   0.306
18445W        W84854   6.948  10.107  12.870
18446W        W84855  31.480  31.993  13.046
18447W        W84856   1.583  17.229   4.533
18448W        W84857  38.536   2.449   1.340
18449W        W84858  33.356  37.414   3.272
18450W        W84859  29.505  16.056  11.000
18451W        W84860  23.691   9.732   2.395
18452W        W84861  35.625  43.264  10.813
18453W        W84862  12.209   3.151   4.589
18454W        W84863  18.646   9.189   2.749
18455W        W84864  33.545  14.581   0.635
18456W        W84865  20.101  16.610  12.082
18457W        W84866  20.811   2.366   1.675
18458W        W84867   4.209   6.782  11.522
18459W        W84868  33.607   3.578   3.502
18460W        W84869  43.057   9.780   1.649
18461W        W84870  19.668  28.102  11.184
18462W        W84871   0.852   4.653   3.621
18463W        W84872  32.344  12.603  14.547
18464W        W84873  29.427  15.245   2.670
18465W        W84874  18.047   7.408   2.934
18466W        W84875   1.507  33.412  12.491
18467W        W84876  31.662  20.218  10.696
18468W        W84877  35.032  16.633   1.972
18469W        W84878  38.608  14.740  10.586
18470W        W84879  32.668  42.903  12.184
18471W        W84880  31.976  15.608  15.000
18472W        W84881   8.642  21.780   4.634
18473W        W84882  27.925  24.045  14.835
18474W        W84883   0.823  36.341  12.522
18475W        W84884  21.479  22.149   4.759
18476W        W84885   3.255   3.922   4.204
18477W        W84886  44.302  12.833  10.876
18478W        W84887   4.858   2.002  14.094
18479W        W84888  35.896  16.918   2.021
18480W        W84889  18.334  11.840   3.189
18481W        W84890   3.990  13.488  13.442
18482W        W84891  37.461   4.248  12.013
18483W        W84892  20.275  12.992  12.838
18484W        W84893  13.700  10.059  11.987
18485W        W84894  20.470  33.171   2.897
18486W        W84895  32.763  25.930   2.819
18487W        W84896  19.608   2.040  12.892
18488W        W84897  40.954   9.326  13.253
18489W        W84898   0.933  28.723  11.089
18490W        W84899  12.340  25.068  13.959
18491W        W84900  41.117  20.103  10.727
18492W        W84901  41.531  29.183  14.709
18493W        W84902  10.320  33.312   4.888
18494W        W84903   8.452  38.742  11.163
18495W        W84904   4.853  38.830  10.621
18496W        W84905   4.672  19.732   4.426
18497W        W84906  21.931  27.474   3.598
18498W        W84907  40.046  39.377  14.894
18499W        W84908  25.570  40.348   0.592
18500W        W84909  20.322  12.062  13.815
18501W        W84910  21.740  31.707   3.722
18502W        W84911  44.923   0.616   4.240
18503W        W84912   0.643   6.747  12.065
18504W        W84913  44.151  35.001  12.266
18505W        W84914   1.523  13.515   0.446
18506W        W84915  16.074   8.906  11.691
18507W        W84916  22.417   7.642   2.508
18508W        W84917  38.047   6.371  10.760
18509W        W84918  25.166  19.979  13.402
18510W        W84919  44.711  42.197   2.277
18511W        W84920  27.929  28.937  14.205
18512W        W84921  29.509   3.845   3.657
18513W        W84922  37.546  15.660  11.846
18514W        W84923  21.684  33.392  13.735
18515W        W84924  35.110  33.063   2.527
18516W        W84925   3.915  33.100   0.814
18517W        W84926  12.231  32.098   2.671
18518W        W84927   6.862   3.700   4.974
18519W        W84928  16.491   9.303   0.622
18520W        W84929  12.895  15.592   0.260
18521W        W84930   1.011  10.390  10.824
18522W        W84931  12.610  31.414  11.057
18523W        W84932  38.611  42.938  15.000
18524W        W84933  28.594  44.955   1.390
18525W        W84934  10.768   2.206   4.970
18526W        W84935   9.613  40.372  13.377
18527W        W84936  41.018  37.488   2.211
18528W        W84937   2.740  35.675  12.771
18529W        W84938  36.051  27.663   4.208
18530W        W84939  12.283  38.966  13.604
18531W        W84940   0.022  36.870   3.098
18532W        W84941  11.234  43.991   4.982
18533W        W84942  42.819  22.652   0.194
18534W        W84943  40.326  40.255  14.276
18535W        W84944  11.220  33.572   0.514
18536W        W84945   3.032  22.545   4.080
18537W        W84946  30.388  44.648   4.747
18538W        W84947  42.745   5.605  12.041
18539W        W84948  33.039  39.790   1.176
18540W        W84949  32.522   1.890  10.370
18541W        W84950  14.429  44.022  14.924
18542W        W84951  38.674  38.128  10.701
18543W        W84952  24.784   0.861   4.937
18544W        W84953  21.461  33.091   3.303
18545W        W84954  24.968  37.457  11.617
18546W        W84955  19.323  19.021   3.592
18547W        W84956  28.551  11.106  14.377
18548W        W84957  14.204   8.486  12.438
18549W        W84958  19.320  23.084  11.017
18550W        W84959  13.005  42.018  13.469
18551W        W84960  40.906  16.544  14.189
18552W        W84961  42.885  17.843   2.596
18553W        W84962  14.338  32.042   3.695
18554W        W84963  31.534  22.735   2.726
18555W        W84964  23.239  12.731  14.370
18556W        W84965  15.462  13.538   2.814
18557W        W84966  42.000  33.147   3.639
18558W        W84967  43.838  30.437   0.463
18559W        W84968   8.396  32.958  12.090
18560W        W84969  12.269   7.492  12.383
18561W        W84970  13.300  34.885  11.187
18562W        W84971  35.114   5.740  13.141
18563W        W84972  22.717  20.843  10.132
18564W        W84973  30.584  32.518  11.281
18565W        W84974  30.518  28.611   3.969
18566W        W84975  34.544  21.586   4.665
18567W        W84976  17.403  38.521   4.633
18568W        W84977  28.226  18.559  13.677
18569W        W84978  17.220  10.252   0.361
18570W        W84979  29.030  15.843   0.338
18571W        W84980  16.945  36.402  14.218
18572W        W84981   9.626  23.459  12.901
18573W        W84982  17.786  19.218  13.775
18574W        W84983   7.255  21.384  12.410
18575W        W84984  32.441  33.021   3.015
18576W        W84985  28.430  36.502  11.630
18577W        W84986  16.013  29.696   0.873
18578W        W84987  39.063  27.672   4.149
18579W        W84988   3.250  44.532   0.332
18580W        W84989   5.188  20.494  12.498
18581W        W84990  34.264  25.580   1.606
18582W        W84991  28.564  24.774   1.464
18583W        W84992  28.381   3.291   4.525
18584W        W84993   0.269   3.787   0.129
18585W        W84994  23.581  21.651   3.695
18586W        W84995  34.916   5.964   4.971
18587W        W84996  25.675  19.162  12.615
18588W        W84997  29.027  11.157  12.401
18589W        W84998  14.358  29.044  14.064
18590W        W84999  25.590   6.410   5.075
18591W        W85000  20.177  39.306  13.342
18592W        W85001  17.829  30.580  10.688
18593W        W85002  18.857   2.065  11.051
18594W        W85003  40.037   8.280  13.816
18595W        W85004  34.594  32.473  12.092
18596W        W85005   3.940  36.124  14.713
18597W        W85006   6.483  29.081   4.388
18598W        W85007   2.814  39.259  14.789
18599W        W85008  10.691  36.567  14.746
18600W        W85009  21.117  22.148  12.478
18601W        W85010  17.848  39.257   2.715
18602W        W85011   9.323  38.285  13.825
18603W        W85012  35.422  31.690  11.673
18604W        W85013  21.145   5.731  13.523
18605W        W85014  44.332  21.416  13.487
18606W        W85015  32.079  30.766   1.288
18607W        W85016  11.212  22.073   2.890
18608W        W85017  12.539   6.129   2.813
18609W        W85018  17.442   7.639  12.947
18610W        W85019  33.270  28.728  12.867
18611W        W85020  10.649  41.072   2.269
18612W        W85021   7.275   1.704  13.669
18613W        W85022  22.531  34.977   2.622
18614W        W85023  40.992  12.794  14.300
18615W        W85024  16.103  10.446   1.869
18616W        W85025  13.794   7.818  13.069
18617W        W85026  42.115  12.674   4.771
18618W        W85027  19.163  21.202   2.484
18619W        W85028  42.828  39.470   2.426
18620W        W85029   7.395   2.211   2.301
18621W        W85030  25.182   1.341   1.337
18622W        W85031  41.653  33.497  10.309
18623W        W85032  34.115   7.340   1.381
18624W        W85033  14.884  29.745   0.477
18625W        W85034  33.886  37.940  14.574
18626W        W85035  31.608  22.454   0.321
18627W        W85036  25.843   9.552   1.374
18628W        W85037  25.743  12.317  10.101
18629W        W85038  14.933  29.948  12.082
18630W        W85039  38.547  37.084   1.668
18631W        W85040   7.048  10.759  10.437
18632W        W85041   7.272  12.617  12.394
18633W        W85042  24.541  40.511   2.219
18634W        W85043  22.750  44.427   4.586
18635W        W85044   2.348  15.922  11.722
18636W        W85045   2.355   2.223   1.424
18637W        W85046  26.088  35.386   0.239
18638W        W85047  19.608  23.941   1.320
18639W        W85048  39.012  33.546   3.195
18640W        W85049  41.030  17.238   1.172
18641W        W85050  12.797   5.354  13.492
18642W        W85051  24.485  18.814  13.512
18643W        W85052  10.644  40.099   1.268
18644W        W85053   5.705  26.451  12.862
18645W        W85054  38.212  15.194   5.384
18646W        W85055  18.496  21.901   1.404
18647W        W85056  18.245  24.973  11.718
18648W        W85057   5.226  36.061   2.831
18649W        W85058  27.207  17.696  12.470
18650W        W85059  17.225  11.032   3.730
18651W        W85060  30.603  33.005  10.703
18652W        W85061  11.144  29.661  14.346
18653W        W85062  11.724  24.071  13.946
18654W        W85063  10.304  36.424  11.884
18655W        W85064   3.741  20.782  10.344
18656W        W85065  10.902   9.887  11.566
18657W        W85066  12.341  24.712   3.598
18658W        W85067  20.175   6.581   0.957
18659W        W85068  28.312  13.293  12.449
18660W        W85069   4.086  23.241   2.003
18661W        W85070  41.956  23.701  13.308
18662W        W85071  35.811  31.361  11.503
18663W        W85072   5.159  22.625   0.725
18664W        W85073   4.415  33.770   1.439
18665W        W85074  39.027   9.024   4.623
18666W        W85075  27.848  39.038   2.273
18667W        W85076   9.813  12.161  12.545
18668W        W85077  32.941   7.293  14.259
18669W        W85078   6.445  32.525   1.826
18670W        W85079   2.484  28.150   1.950
18671W        W85080  42.500  21.705   0.386
18672W        W85081  43.842  43.106   4.807
18673W        W85082   4.406  32.881   1.027
18674W        W85083   7.947  10.263  14.346
18675W        W85084  36.430   5.255   1.425
18676W        W85085  39.417  17.494  12.303
18677W        W85086   7.673  34.109   1.620
18678W        W85087  16.619  37.110   2.508
18679W        W85088   0.043  27.019  14.826
18680W        W85089   3.149   9.072  11.201
18681W        W85090  10.298  25.251  11.075
18682W        W85091  34.021   1.070   0.889
18683W        W85092  36.881  12.882  10.848
18684W        W85093  34.015  17.903   3.570
18685W        W85094  26.590   8.435  11.929
18686W        W85095   2.890   7.902  12.591
18687W        W85096  12.638  31.516   3.503
18688W        W85097  21.956   8.975  11.155
18689W        W85098  17.735  22.283   3.428
18690W        W85099  39.000  30.845  14.274
18691W        W85100   2.190   8.942   3.959
18692W        W85101  11.867  13.317   3.668
18693W        W85102   7.652   3.208   0.457
18694W        W85103   1.962  21.556  13.553
18695W        W85104  22.745  38.941  11.084
18696W        W85105  32.945  30.072  13.467
18697W        W85106  17.045   8.668   1.910
18698W        W85107  40.005   2.374   1.181
18699W        W85108  14.668  27.720   4.494
18700W        W85109  13.614  18.448   3.137
18701W        W85110  36.137  10.823  12.437
18702W        W85111  22.673  15.565  14.360
18703W        W85112   0.945  16.141   1.720
18704W        W85113  26.223   0.611  11.020
18705W        W85114  28.535   5.853   0.917
18706W        W85115  38.518   7.943   1.737
18707W        W85116  39.303  38.586   3.703
18708W        W85117   7.969  19.215   1.865
18709W        W85118  15.504  24.526  13.479
18710W        W85119   5.927   6.074  11.370
18711W        W85120  27.335  40.524   3.083
18712W        W85121  41.122  32.921  11.959
18713W        W85122  26.662  12.197   2.006
18714W        W85123   6.442   4.390  11.208
18715W        W85124  33.906  30.701  13.373
18716W        W85125   2.672   5.894  12.612
18717W        W85126  26.381  27.125  12.574
18718W        W85127   4.687  28.059  14.038
18719W        W85128  20.040   3.765   0.863
18720W        W85129  17.095   2.812   3.402
18721W        W85130  38.048  36.561  11.609
18722W        W85131  11.560  36.018   4.098
18723W        W85132   0.383  19.936   3.244
18724W        W85133   5.756  11.926   4.707
18725W        W85134  38.774  33.021  12.534
18726W        W85135  14.932  16.684  11.423
18727W        W85136  32.095  31.426  10.664
18728W        W85137  28.689  14.245  11.497
18729W        W85138  38.380  42.959   2.424
18730W        W85139  42.873  25.421  12.085
18731W        W85140  19.054  36.930  11.545
18732W        W85141  20.073  28.677   2.612
18733W        W85142  42.461   5.623  12.462
18734W        W85143   0.448  28.999   4.131
18735W        W85144  12.181  32.247  11.040
18736W        W85145  40.338  24.272  13.012
18737W        W85146  40.886  29.450   4.831
18738W        W85147  23.126  35.621  14.115
18739W        W85148  30.563  32.116   3.538
18740W        W85149  29.497  32.026  14.396
18741W        W85150  17.753  19.035   0.452
18742W        W85151  22.155  22.472  12.712
18743W        W85152  18.435  20.261  12.495
18744W        W85153  20.261  27.738  13.440
18745W        W85154  40.621  27.529   0.419
18746W        W85155  16.765  31.197   3.803
18747W        W85156  35.492  16.553  13.366
18748W        W85157  14.330  21.990   2.208
18749W        W85158  13.620  27.437   4.001
18750W        W85159  23.925  16.740  12.504
18751W        W85160  24.402  25.570   2.396
18752W        W85161  43.830  24.515  13.376
18753W        W85162  38.005  12.054  11.662
18754W        W85163  16.477  18.773   0.974
18755W        W85164   8.342  23.983  12.503
18756W        W85165  26.732  35.939   0.240
18757W        W85166   9.266   7.346   1.901
18758W        W85167   8.800  40.768  14.532
18759W        W85168  39.426   6.521  14.003
18760W        W85169  25.183   3.815  12.156
18761W        W85170  10.827  31.208   2.249
18762W        W85171  40.931  15.665  11.648
18763W        W85172   6.608  14.850   4.222
18764W        W85173  17.394  19.329   3.713
18765W        W85174  10.069   8.062  14.583
18766W        W85175  27.861  42.763   0.405
18767W        W85176   8.080  33.845   1.827
18768W        W85177   0.907  30.652   2.751
18769W        W85178   1.072  23.657  10.827
18770W        W85179  40.388  21.949  13.361
18771W        W85180  14.611  22.734  11.946
18772W        W85181   8.036  12.549   3.252
18773W        W85182  20.190   1.921  11.606
18774W        W85183  19.877  34.566   1.088
18775W        W85184  20.174   5.252  14.610
18776W        W85185  15.131  28.642   0.607
18777W        W85186  29.080  39.116   1.815
18778W        W85187  25.585   3.924  13.028
18779W        W85188   4.694   4.575   0.100
18780W        W85189   8.398   4.211   0.460
18781W        W85190  26.910  40.029   2.310
18782W        W85191   1.814  19.305   0.296
18783W        W85192  34.384  18.302   1.389
18784W        W85193   2.687  14.080  11.634
18785W        W85194  18.639  20.268   1.784
18786W        W85195   1.348  30.370  11.681
18787W        W85196   5.721   9.645   0.430
18788W        W85197   6.309  37.034  13.295
18789W        W85198  40.549  22.765   3.689
18790W        W85199  38.280  11.243   2.354
18791W        W85200   9.684  40.308   0.214
18792W        W85201  10.134  41.872   4.437
18793W        W85202   6.827  30.667  11.695
18794W        W85203  36.052  11.842   4.166
18795W        W85204  32.670   8.237  11.469
18796W        W85205  26.642  37.453   1.859
18797W        W85206   7.394  28.448   3.222
18798W        W85207  13.571  10.062  12.606
18799W        W85208  23.136  34.448   3.590
18800W        W85209  29.513  44.445   1.201
18801W        W85210   8.794  11.359   1.721
18802W        W85211  22.684  44.709  11.187
18803W        W85212  19.366   4.953  12.104
18804W        W85213   1.008  12.038   2.479
18805W        W85214  13.651   8.934   1.803
18806W        W85215  17.863  38.659  14.175
18807W        W85216   9.768  15.892  12.312
18808W        W85217  24.193  12.967   0.546
18809W        W85218  21.828  24.299  11.155
18810W        W85219  25.766  24.140   1.208
18811W        W85220  12.517   4.818  10.569
18812W        W85221  42.804   7.302   4.701
18813W        W85222  39.097  24.190  11.612
18814W        W85223  14.414  21.144   1.917
18815W        W85224  30.871  40.073  10.822
18816W        W85225  10.400   6.366  12.066
18817W        W85226  23.636  15.872   3.328
18818W        W85227  24.192  16.867  12.077
18819W        W85228  15.829  24.200   1.789
18820W        W85229  15.311  36.036   5.419
18821W        W85230   6.957  24.968  12.464
18822W        W85231   3.937  14.567   2.709
18823W        W85232   5.971  38.522   0.216
18824W        W85233  17.490   8.218   3.697
18825W        W85234  21.816  12.829   3.804
18826W        W85235  10.139  43.361   0.310
18827W        W85236  36.862  34.507   4.287
18828W        W85237   6.234  38.784   0.744
18829W        W85238  24.535  39.770   3.724
18830W        W85239  21.362  16.690  13.861
18831W        W85240  39.938  25.155  12.984
18832W        W85241  18.186   4.443  11.048
18833W        W85242  38.746  34.489   2.919
18834W        W85243  17.632  35.127   1.253
18835W        W85244  21.034  28.592   4.781
18836W        W85245  20.587  40.413  11.110
18837W        W85246   5.853  28.452   1.334
18838W        W85247  15.861   2.911  10.639
18839W        W85248  43.815  33.668   3.776
18840W        W85249  30.907   7.745   0.495
18841W        W85250   2.454  13.236   5.158
18842W        W85251  22.262   1.758  10.448
18843W        W85252   2.453  33.645   2.871
18844W        W85253  21.635   5.599   1.538
18845W        W85254   1.866   6.272  12.711
18846W        W85255   8.312   9.375  14.271
18847W        W85256  16.535   0.920   1.964
18848W        W85257  17.262  29.913  12.574
18849W        W85258  34.036  18.357  12.537
18850W        W85259  23.176  24.092   1.320
18851W        W85260  14.563  41.459  14.788
18852W        W85261  42.825  29.898  11.634
18853W        W85262  33.347  31.682  13.368
18854W        W85263   8.907   9.862  13.347
18855W        W85264  35.343  30.008  11.963
18856W        W85265  10.376  17.321  14.427
18857W        W85266  25.625  11.162   3.872
18858W        W85267  36.071  33.496  13.161
18859W        W85268  22.559  26.608   4.513
18860W        W85269  21.984   6.057  14.409
18861W        W85270  13.527  24.168  13.280
18862W        W85271  38.394  11.416   4.504
18863W        W85272  13.538  21.129  13.227
18864W        W85273   2.913  43.321  11.682
18865W        W85274  22.437  24.906  10.287
18866W        W85275   9.597  33.376  12.493
18867W        W85276  27.497  10.384  11.012
18868W        W85277  38.892  42.850  13.910
18869W        W85278  34.135  16.575   0.472
18870W        W85279  43.371  16.362   0.399
18871W        W85280  30.469  21.021   3.718
18872W        W85281  19.201  25.729  14.516
18873W        W85282  19.075   1.669   0.904
18874W        W85283  44.432  18.991   4.752
18875W        W85284  17.728  37.132  11.554
18876W        W85285  40.288   9.045   3.799
18877W        W85286  43.619  30.713   1.324
18878W        W85287  40.567  39.200   4.250
18879W        W85288  21.717  12.960  10.294
18880W        W85289  31.153  35.154  13.350
18881W        W85290  40.125  15.204  10.876
18882W        W85291   6.372  18.784  12.190
18883W        W85292   6.574  44.234  13.864
18884W        W85293  44.156  42.920   0.544
18885W        W85294   7.816  22.088  12.533
18886W        W85295  22.641  39.024   3.414
18887W        W85296  21.539  41.206  10.571
18888W        W85297  11.749  27.402   2.820
18889W        W85298  12.597  30.689  14.845
18890W        W85299  33.473  20.724  14.335
18891W        W85300  30.404  32.053  11.948
18892W        W85301   7.810  42.723  12.862
18893W        W85302   7.885  36.529   0.483
18894W        W85303  25.688   8.369  14.437
18895W        W85304  25.282  13.769  12.934
18896W        W85305  30.893  31.182  14.563
18897W        W85306  42.711  35.008   2.680
18898W        W85307   8.314  23.475  12.462
18899W        W85308  28.453  22.137   0.669
18900W        W85309  31.394   6.974  13.075
18901W        W85310   0.144  11.131  13.663
18902W        W85311  35.177  14.724   2.738
18903W        W85312  19.152  12.926   3.114
18904W        W85313  26.453  31.971   3.172
18905W        W85314  24.080  19.681   2.296
18906W        W85315  38.492  19.686   1.255
18907W        W85316  16.261   7.345   1.402
18908W        W85317  32.406  13.949  11.047
18909W        W85318  17.206  39.337  14.882
18910W        W85319  17.104  32.467  11.721
18911W        W85320  13.431   2.541   2.408
18912W        W85321  35.077  33.262  14.695
18913W        W85322  27.677   2.929  14.566
18914W        W85323  25.232  19.635  11.934
18915W        W85324  24.061   8.891  12.081
18916W        W85325   7.314  12.110   0.664
18917W        W85326  14.600  29.077   1.948
18918W        W85327   0.516  28.601  14.929
18919W        W85328  26.594  44.349  10.797
18920W        W85329  19.580  11.748  13.916
18921W        W85330  18.004  25.441   0.983
18922W        W85331  13.661  44.684  13.078
18923W        W85332  15.751  28.553  12.935
18924W        W85333  14.060  41.524   4.568
18925W        W85334  30.128  35.447   1.670
18926W        W85335  41.402  28.691   3.931
18927W        W85336  41.097  41.429  13.463
18928W        W85337   2.808   1.104  10.504
18929W        W85338  10.944  28.398  14.912
18930W        W85339  38.764   7.565   0.455
18931W        W85340  15.730  28.111   1.639
18932W        W85341  17.859  13.856   2.740
18933W        W85342  44.449   3.485  14.243
18934W        W85343  35.398  40.985  10.732
18935W        W85344   7.764  25.583   1.869
18936W        W85345  43.966  37.619  10.184
18937W        W85346  13.181  26.900  12.958
18938W        W85347   4.449   1.836  10.765
18939W        W85348  24.779  14.227   2.128
18940W        W85349  30.616  44.629  13.813
18941W        W85350  39.875  21.871   3.617
18942W        W85351  35.993  27.163  13.619
18943W        W85352  41.838  35.577   4.093
18944W        W85353  30.902  37.463  12.465
18945W        W85354  20.774   8.281  12.866
18946W        W85355  37.488  24.777   9.914
18947W        W85356   7.629  18.690  14.384
18948W        W85357   1.565  39.042  13.534
18949W        W85358  22.221  12.563  11.093
18950W        W85359  34.736  13.592   0.982
18951W        W85360  43.359   2.280  11.226
18952W        W85361  30.894  26.486   0.868
18953W        W85362  16.747   8.965   4.500
18954W        W85363  44.215  37.898  13.832
18955W        W85364  15.920   7.903   2.432
18956W        W85365   1.976  19.774   1.654
18957W        W85366  37.812  20.758  14.407
18958W        W85367   7.945  15.286   3.212
18959W        W85368   4.442   7.276   4.356
18960W        W85369  20.991  12.047   3.105
18961W        W85370  22.226  41.100   2.755
18962W        W85371  44.156  42.612  11.624
18963W        W85372  12.341  39.592  11.661
18964W        W85373  16.152  10.358  14.522
18965W        W85374  35.014  34.209  13.489
18966W        W85375  31.138  36.858  14.932
18967W        W85376  21.568  39.828   2.791
18968W        W85377  44.431  33.773  12.188
18969W        W85378  15.317  32.478   1.297
18970W        W85379  10.725  41.651   1.431
18971W        W85380  30.534  24.723   1.913
18972W        W85381  21.321  24.087  11.730
18973W        W85382  14.246  43.443   1.797
18974W        W85383  30.398  36.979  13.895
18975W        W85384  16.213  11.463  11.491
18976W        W85385  44.846  38.745   3.181
18977W        W85386  39.227  37.321  13.299
18978W        W85387   5.970  36.018  12.857
18979W        W85388  42.120  12.788   1.887
18980W        W85389  13.666  31.913  10.189
18981W        W85390  28.039   5.258   0.238
18982W        W85391  33.918  25.114  14.343
18983W        W85392  24.488   8.330   0.549
18984W        W85393   6.807   6.592   3.226
18985W        W85394   4.049  14.217  14.171
18986W        W85395  14.959  26.518   3.026
18987W        W85396  15.072  42.913   0.053
18988W        W85397   3.903  21.428  11.930
18989W        W85398  34.518  24.590   1.695
18990W        W85399  22.009  34.397  12.015
18991W        W85400   1.369  26.158  10.770
18992W        W85401  30.529  24.255   2.760
18993W        W85402  24.764  28.040  11.134
18994W        W85403  37.148  31.192   1.832
18995W        W85404  41.729  21.329  13.891
18996W        W85405   6.393  43.053   2.958
18997W        W85406  26.690  27.234   3.650
18998W        W85407  21.010  11.189   3.760
18999W        W85408  19.508  38.480  12.257
19000W        W85409  39.519  18.108   1.146
19001W        W85410  35.269  36.131  14.835
19002W        W85411   4.470  38.318   1.344
19003W        W85412  15.833  37.016   0.406
19004W        W85413  18.060   5.781   1.655
19005W        W85414  17.737  37.368  12.009
19006W        W85415   7.729  42.930   0.610
19007W        W85416   8.778  28.019  14.839
19008W        W85417  15.756   2.639   1.537
19009W        W85418  12.795   6.435  14.511
19010W        W85419  20.450  14.098   0.805
19011W        W85420  11.637  27.061  14.780
19012W        W85421  42.536  21.674  14.012
19013W        W85422  21.130  20.122   4.568
19014W        W85423  38.083   9.289   1.272
19015W        W85424  33.595  12.174   4.585
19016W        W85425  25.885  37.975  10.702
19017W        W85426  17.656  14.380  13.014
19018W        W85427  10.358   9.853  11.670
19019W        W85428   1.543  29.100  12.790
19020W        W85429  18.217  22.964  10.880
19021W        W85430  19.962   1.982  14.617
19022W        W85431  18.024  22.156  14.767
19023W        W85432   9.574  36.521  13.499
19024W        W85433  10.835   7.333  11.519
19025W        W85434  12.261  35.868   0.869
19026W        W85435  14.871   1.064  13.099
19027W        W85436  15.340  17.173  12.987
19028W        W85437   3.689  31.865  13.029
19029W        W85438  39.255  32.920  10.901
19030W        W85439  23.523  30.463   1.212
19031W        W85440  27.060  35.912   1.800
19032W        W85441  22.978  17.503  11.668
19033W        W85442  17.097  34.086   4.720
19034W        W85443   8.292  34.037   3.783
19035W        W85444  12.720   0.631   3.322
19036W        W85445  24.442  39.580   4.217
19037W        W85446  38.947  38.413  11.140
19038W        W85447   8.785   1.754   5.036
19039W        W85448   1.646  20.278  13.645
19040W        W85449  35.939  24.491  14.719
19041W        W85450  17.066  12.801   1.983
19042W        W85451  18.382  37.805  13.027
19043W        W85452  17.270  26.615  10.907
19044W        W85453   0.749  14.718  14.277
19045W        W85454  40.924   7.700   1.403
19046W        W85455  31.944  10.650   3.325
19047W        W85456  30.196  23.716  11.500
19048W        W85457  21.673   1.738   3.588
19049W        W85458   6.851  26.743   2.838
19050W        W85459  39.061  16.335   4.633
19051W        W85460  33.617  34.956  11.636
19052W        W85461  21.535  10.713   1.218
19053W        W85462   6.666  18.162   4.808
19054W        W85463  24.729  11.193  12.108
19055W        W85464   2.867  27.227   3.370
19056W        W85465  19.185   1.219   0.022
19057W        W85466  36.462   1.403  11.195
19058W        W85467  20.600  33.890  13.319
19059W        W85468  32.741   4.822  11.561
19060W        W85469  41.563   8.168   4.728
19061W        W85470  11.654  31.116   0.217
19062W        W85471  20.331  44.413  11.123
19063W        W85472  35.270   1.026   2.893
19064W        W85473  13.384  31.009  11.452
19065W        W85474  34.116  31.572  11.201
19066W        W85475  34.946  14.354  14.454
19067W        W85476  17.843  27.622  12.596
19068W        W85477   9.877  28.116   0.008
19069W        W85478  25.119   7.420   3.671
19070W        W85479  21.189  23.477  10.612
19071W        W85480  24.488  41.486   1.419
19072W        W85481  30.512  13.423   0.438
19073W        W85482   1.076   3.298  13.569
19074W        W85483  23.519  12.809  13.487
19075W        W85484  17.175  28.042   1.765
19076W        W85485   2.222   5.373  13.807
19077W        W85486  44.506  32.989  13.478
19078W        W85487  43.249  32.643  11.519
19079W        W85488  16.110   2.503  14.978
19080W        W85489  22.899   4.370   1.283
19081W        W85490  10.281  34.277  10.653
19082W        W85491  13.528   1.183   1.318
19083W        W85492  16.249   5.819   3.878
19084W        W85493  33.648   4.377   1.298
19085W        W85494  26.066  35.969   2.525
19086W        W85495   9.099  43.256  14.435
19087W        W85496  27.632  42.872  13.153
19088W        W85497  32.336  15.801   3.588
19089W        W85498  18.586   7.443   1.746
19090W        W85499  27.651  25.595   1.266
19091W        W85500  37.690  30.117  13.956
19092W        W85501  40.505   9.715  14.384
19093W        W85502   6.700  23.450   1.862
19094W        W85503  16.697   4.220  13.709
19095W        W85504  35.931  18.850  14.497
19096W        W85505   5.010  15.198   4.032
19097W        W85506   2.743  40.566   0.757
19098W        W85507  30.455  15.727   0.441
19099W        W85508  26.005  17.846  10.810
19100W        W85509  30.338  33.011   0.481
19101W        W85510  17.211  13.679   0.282
19102W        W85511  25.142   4.635   5.087
19103W        W85512  22.295   2.484  12.012
19104W        W85513   0.754   8.302  11.879
19105W        W85514   1.964  31.108   2.450
19106W        W85515  40.083   4.779   2.231
19107W        W85516  27.216   9.881  10.401
19108W        W85517  27.940  24.525  13.398
19109W        W85518  38.541  36.299   3.328
19110W        W85519  22.535  39.839   2.757
19111W        W85520  36.675  18.530  12.217
19112W        W85521  15.801  35.917  10.204
19113W        W85522  29.947  12.060  13.938
19114W        W85523  28.902  37.720   3.191
19115W        W85524  31.593  34.682   0.491
19116W        W85525  34.336  20.024   1.823
19117W        W85526   8.241   3.899   3.193
19118W        W85527  28.872   0.101  13.277
19119W        W85528  26.628   2.858   0.765
19120W        W85529  20.582   7.008  13.368
19121W        W85530  43.592  19.151   1.241
19122W        W85531  25.455  18.300  10.285
19123W        W85532  34.145   9.744  10.537
19124W        W85533   0.648   8.676   2.278
19125W        W85534  16.130   5.935  13.436
19126W        W85535  13.496   8.175  10.690
19127W        W85536  32.909   0.885  13.552
19128W        W85537  25.761  28.125   2.830
19129W        W85538  27.997  39.844   3.488
19130W        W85539  38.494  15.073  13.774
19131W        W85540  14.289  41.383   3.170
19132W        W85541  44.859  28.676  11.955
19133W        W85542  21.297  34.533   1.416
19134W        W85543  35.072  12.322   1.308
19135W        W85544   2.764   8.143   1.592
19136W        W85545  33.904  31.869   3.252
19137W        W85546   1.256   5.842   3.382
19138W        W85547  26.516  43.382  11.266
19139W        W85548  27.521  39.307   0.068
19140W        W85549  36.011  18.682   0.390
19141W        W85550  36.396   8.685  12.928
19142W        W85551  14.389   8.784  10.785
19143W        W85552  33.762  29.621   4.605
19144W        W85553  29.867  16.685   0.880
19145W        W85554  20.618  33.373  10.702
19146W        W85555  25.156  22.569   3.659
19147W        W85556  36.371  10.829  14.178
19148W        W85557  42.328  19.705   4.404
19149W        W85558  30.424  13.893   1.360
19150W        W85559  30.653   5.812  10.674
19151W        W85560  39.770  40.230  12.696
19152W        W85561  20.453   2.179  11.965
19153W        W85562  13.926  42.801  12.115
19154W        W85563  25.744  26.936   4.894
19155W        W85564   6.386  19.446  14.021
19156W        W85565  14.674  10.356   0.639
19157W        W85566  41.396  18.334   0.138
19158W        W85567  36.650  23.911   0.270
19159W        W85568   0.985   2.032  11.613
19160W        W85569  18.570  12.461  13.606
19161W        W85570   2.430   4.898   4.564
19162W        W85571   0.764  27.971  13.428
19163W        W85572  33.623  27.838   1.781
19164W        W85573  41.646  37.321  13.493
19165W        W85574  22.139  23.793  12.868
19166W        W85575  34.629  16.132   3.890
19167W        W85576  43.659  39.683   0.269
19168W        W85577  43.486   3.274  10.487
19169W        W85578   5.842  29.904   4.536
19170W        W85579  32.114  44.690   0.682
19171W        W85580  14.349   3.213  14.323
19172W        W85581  11.279   0.982   2.304
19173W        W85582   3.795  13.681   0.641
19174W        W85583  30.194   0.407  12.098
19175W        W85584  44.264   7.225   2.871
19176W        W85585  39.866   3.247   4.732
19177W        W85586  29.528  15.576  11.214
19178W        W85587   2.930   5.696   2.705
19179W        W85588  44.465  38.872  14.058
19180W        W85589  35.852  40.367  12.972
19181W        W85590  30.513   1.920  12.078
19182W        W85591  13.685  19.291  14.356
19183W        W85592  22.209  38.382   2.965
19184W        W85593  35.065   7.732  12.642
19185W        W85594   9.623  29.310  13.755
19186W        W85595  42.407  18.686  14.309
19187W        W85596  23.425   1.173   3.899
19188W        W85597  36.849  17.147  13.864
19189W        W85598  24.473  40.489   1.336
19190W        W85599   4.969  21.435   1.673
19191W        W85600  10.752  18.165  14.295
19192W        W85601   1.808  40.274   0.938
19193W        W85602   5.341   2.697  10.412
19194W        W85603  21.519  17.024   3.075
19195W        W85604  32.287   4.877  12.462
19196W        W85605  35.607  12.815  11.981
19197W        W85606  42.553  20.607   0.985
19198W        W85607  16.102   0.885  10.531
19199W        W85608  25.019  15.568   3.663
19200W        W85609  32.138  14.260  14.549
19201W        W85610  29.720  19.098   3.269
19202W        W85611  39.964  11.309  14.002
19203W        W85612  16.111  11.797   4.875
19204W        W85613  44.817  11.674   2.827
19205W        W85614  12.293  10.601  12.119
19206W        W85615  37.512  18.687  11.266
19207W        W85616  25.997  41.872  14.807
19208W        W85617  35.999   2.513   3.933
19209W        W85618   6.486  40.698   1.845
19210W        W85619  30.708  35.747  14.477
19211W        W85620  42.964  27.560   3.336
19212W        W85621  26.131  22.485   2.704
19213W        W85622   2.292   8.919  14.774
19214W        W85623   3.193  35.787   1.840
19215W        W85624  33.558  29.538  13.114
19216W        W85625  29.837  42.991  12.377
19217W        W85626  30.165  13.191  10.809
19218W        W85627  32.815   0.316   2.789
19219W        W85628  27.089   9.946  14.785
19220W        W85629  27.056  15.787  11.575
19221W        W85630   5.397   8.692  11.496
19222W        W85631  30.187   5.776   4.100
19223W        W85632  21.600  12.906   2.198
19224W        W85633  43.565  34.602   2.725
19225W        W85634  42.821  43.217  11.253
19226W        W85635   2.301  33.465   4.753
19227W        W85636   9.366  24.821   3.133
19228W        W85637  21.645  32.037   1.021
19229W        W85638   4.812  29.215  12.338
19230W        W85639  44.569   9.110   0.051
19231W        W85640  16.807  15.779  12.500
19232W        W85641  42.954  14.163   1.823
19233W        W85642   0.623  16.071  14.762
19234W        W85643  15.158   9.360  12.651
19235W        W85644  17.566  33.258  12.972
19236W        W85645  20.697   9.223  13.554
19237W        W85646  39.368  42.006  11.592
19238W        W85647   4.564   7.109   4.859
19239W        W85648   7.724  44.700   0.513
19240W        W85649  32.341  24.666  12.174
19241W        W85650  19.494  44.370  14.976
19242W        W85651  36.794  26.188  12.052
19243W        W85652   7.929  35.610  14.292
19244W        W85653  20.830  31.004   2.978
19245W        W85654  18.256  11.888  11.368
19246W        W85655  43.220   1.440   0.462
19247W        W85656  44.233   6.728   2.129
19248W        W85657  29.522  36.866   3.340
19249W        W85658  38.930  33.996  14.931
19250W        W85659   3.949   9.606   2.418
19251W        W85660  39.740  10.495   4.642
19252W        W85661  34.060  34.318  13.108
19253W        W85662   8.102  26.508   1.293
19254W        W85663  29.848  27.168  11.130
19255W        W85664  27.677  24.535  14.880
19256W        W85665  37.435  29.234  12.502
19257W        W85666  29.761  19.624   3.435
19258W        W85667   0.789  30.342   3.132
19259W        W85668  10.819  34.404  12.430
19260W        W85669  38.677  14.544   3.257
19261W        W85670  44.868   6.661   2.944
19262W        W85671  26.963  23.504   0.926
19263W        W85672  37.054   1.864  13.607
19264W        W85673  17.205  24.713  12.870
19265W        W85674  14.896  37.759  13.350
19266W        W85675  38.494   1.001   2.328
19267W        W85676  34.611   5.238  12.396
19268W        W85677   8.191  43.122  10.905
19269W        W85678  13.003  10.895  13.871
19270W        W85679  26.016  15.995   4.278
19271W        W85680  16.825   6.221   0.418
19272W        W85681  33.041   4.797  12.815
19273W        W85682  33.960  40.538   2.114
19274W        W85683  26.494  44.019  10.407
19275W        W85684  27.395  39.907  13.227
19276W        W85685  19.969   6.773  11.817
19277W        W85686   4.928  24.216  14.280
19278W        W85687   9.457  17.293   0.534
19279W        W85688  21.598  23.527  10.917
19280W        W85689  29.475   6.882   2.690
19281W        W85690  28.825  29.831   2.324
19282W        W85691  21.056  13.747  12.518
19283W        W85692  36.669   0.901  12.082
19284W        W85693  29.064  38.912  10.381
19285W        W85694  33.441   0.703   4.424
19286W        W85695  33.264  21.604  11.486
19287W        W85696  41.407  35.604  14.876
19288W        W85697  39.360  31.877   3.260
19289W        W85698  17.627   5.998   4.389
19290W        W85699  40.329  20.177  13.081
19291W        W85700  20.102   9.318  14.345
19292W        W85701  20.184  29.911   0.886
19293W        W85702  37.084  36.135   0.104
19294W        W85703   1.259  16.020   4.466
19295W        W85704  26.592  37.702  14.011
19296W        W85705  15.034  21.685  14.401
19297W        W85706  15.120  24.444   0.440
19298W        W85707  12.754   0.338  12.382
19299W        W85708  23.086  41.033   2.662
19300W        W85709  22.367  29.092  12.206
19301W        W85710  28.886  22.130  10.456
19302W        W85711  29.138   4.922  13.112
19303W        W85712  40.276  10.056   3.617
19304W        W85713  15.293  16.478   1.248
19305W        W85714  43.840  32.051   1.657
19306W        W85715  42.508  39.427   4.591
19307W        W85716  41.429   6.723   4.330
19308W        W85717  28.313  33.561   2.850
19309W        W85718  28.066  36.367   1.420
19310W        W85719  44.932  22.577   0.720
19311W        W85720   4.952  38.403   1.175
19312W        W85721   1.677  37.486   1.846
19313W        W85722  18.196   8.663  14.168
19314W        W85723  35.412  40.599  11.088
19315W        W85724   6.671  32.851  12.635
19316W        W85725   8.085  21.910  12.119
19317W        W85726  42.871  38.428  13.940
19318W        W85727   5.633   8.805  13.360
19319W        W85728  32.541  30.436   4.040
19320W        W85729  27.191  44.733   1.410
19321W        W85730   8.910   0.699   1.393
19322W        W85731   4.644  31.307  11.252
19323W        W85732   7.821  36.037   2.178
19324W        W85733  10.372  40.471  13.783
19325W        W85734  19.280   7.668   0.283
19326W        W85735  34.619  38.980  13.461
19327W        W85736  11.143  30.425   1.777
19328W        W85737  34.076  12.670  13.580
19329W        W85738  26.646   6.940   5.363
19330W        W85739  18.028   2.430   2.629
19331W        W85740  11.841  40.760   1.745
19332W        W85741  28.028  22.896  11.524
19333W        W85742  27.747  37.127   1.195
19334W        W85743  19.514  38.993   0.369
19335W        W85744  20.627  41.744  11.688
19336W        W85745  22.714  25.778   2.845
19337W        W85746   9.598  39.950   1.944
19338W        W85747   5.165   9.837  12.095
19339W        W85748  18.231  17.657   1.906
19340W        W85749  41.221  21.501   4.243
19341W        W85750   4.598   5.069   0.066
19342W        W85751  11.327  29.964   1.935
19343W        W85752  31.550  12.752   4.031
19344W        W85753  16.940  30.964   2.857
19345W        W85754  34.874  17.068   1.714
19346W        W85755  19.487  43.053   3.579
19347W        W85756  10.920  34.535   5.572
19348W        W85757   8.309  31.962  14.386
19349W        W85758  20.237   6.577  11.421
19350W        W85759  15.803  35.517  10.936
19351W        W85760  13.074  30.674   1.940
19352W        W85761  21.637  37.025  11.638
19353W        W85762  41.625  33.019  11.945
19354W        W85763  17.909  41.919   2.181
19355W        W85764   4.977   0.451   3.252
19356W        W85765  31.558   0.022  11.841
19357W        W85766  16.241  41.547  13.794
19358W        W85767  31.127  13.782   3.111
19359W        W85768  11.762  20.714   2.339
19360W        W85769  36.412  19.002  12.437
19361W        W85770  27.546   0.807  13.433
19362W        W85771  11.832  37.110   3.378
19363W        W85772  22.195   5.427   0.192
19364W        W85773  19.712  10.781   0.918
19365W        W85774  15.768  21.982   1.863
19366W        W85775  30.165   7.711   2.374
19367W        W85776  43.267  12.358   1.383
19368W        W85777  11.919  27.692  11.977
19369W        W85778  25.623  16.550  12.473
19370W        W85779  30.562  11.227  14.712
19371W        W85780   6.839  21.007   1.895
19372W        W85781  24.671  15.734   4.395
19373W        W85782  17.295  32.032  10.515
19374W        W85783   9.740  44.057  14.009
19375W        W85784  39.984  15.667  12.232
19376W        W85785  25.120   0.786   3.675
19377W        W85786  29.331  24.198   1.729
19378W        W85787  39.501  14.802  13.597
19379W        W85788  17.167   5.350  10.623
19380W        W85789  19.224  40.861   3.434
19381W        W85790   0.823  35.577  11.107
19382W        W85791   4.390  36.471  10.678
19383W        W85792  19.073  34.554  11.948
19384W        W85793   9.829   2.321  12.049
19385W        W85794   4.692   3.318   3.326
19386W        W85795  41.764  18.068  12.569
19387W        W85796  26.127  12.028  14.902
19388W        W85797  44.276  30.048  11.675
19389W        W85798  25.025  43.322   3.197
19390W        W85799  39.632   4.765   0.236
19391W        W85800  24.490  23.553   2.404
19392W        W85801  31.580  10.381  11.538
19393W        W85802   1.815  26.305   3.563
19394W        W85803  24.687  35.401   1.196
19395W        W85804  35.885   3.453   1.338
19396W        W85805  23.705   0.687   0.152
19397W        W85806  11.759  37.380   4.612
19398W        W85807  14.784  29.597  12.441
19399W        W85808  19.552   3.194   2.256
19400W        W85809  12.346  41.373   1.303
19401W        W85810  31.966  38.722  10.605
19402W        W85811  28.445  12.662  11.681
19403W        W85812  21.573  21.995   0.991
19404W        W85813   0.395  39.903   2.241
19405W        W85814   3.411  42.454  11.472
19406W        W85815  26.671  24.743  12.977
19407W        W85816  19.813   4.773  12.984
19408W        W85817  23.429   3.044   3.279
19409W        W85818  20.654   0.395  11.625
19410W        W85819  35.367  15.412  12.688
19411W        W85820  15.828   9.442  12.380
19412W        W85821   7.356  10.998  11.182
19413W        W85822  14.885  23.727  13.340
19414W        W85823   8.700  44.024  11.047
19415W        W85824  40.083   6.712  10.531
19416W        W85825  32.747  44.387   3.796
19417W        W85826  21.095   2.309   1.239
19418W        W85827  42.657  41.545   1.383
19419W        W85828  29.786  34.489  14.431
19420W        W85829  20.397  10.099  11.671
19421W        W85830  21.246  12.673   4.671
19422W        W85831   0.097  18.630   1.929
19423W        W85832  44.335  33.164  11.134
19424W        W85833   3.780  33.350   4.316
19425W        W85834  31.221   8.430  14.606
19426W        W85835   0.850  44.394   4.461
19427W        W85836  17.190   6.732  12.841
19428W        W85837   2.335  41.941   1.405
19429W        W85838   7.765  28.119  10.128
19430W        W85839  24.125   6.558   4.564
19431W        W85840  24.257  28.037  11.155
19432W        W85841  11.413  14.330   0.024
19433W        W85842  14.323  35.360  10.787
19434W        W85843   1.455  32.559   0.325
19435W        W85844   0.473  21.969  12.526
19436W        W85845  35.423  37.495  10.638
19437W        W85846  19.002  19.282  12.410
19438W        W85847  17.400  10.010  14.930
19439W        W85848   2.664  42.465  14.311
19440W        W85849  42.874  28.050   3.183
19441W        W85850  26.620  40.305   2.877
19442W        W85851  18.988  23.150   0.271
19443W        W85852  42.354  20.819  11.980
19444W        W85853   5.062  37.347  14.465
19445W        W85854  28.123  38.119   2.522
19446W        W85855  39.910  38.533   1.450
19447W        W85856  15.389  30.792   2.317
19448W        W85857  20.728  14.930  12.060
19449W        W85858  10.877  38.807  11.148
19450W        W85859  21.750  43.381  14.636
19451W        W85860  29.972  27.960   0.071
19452W        W85861  31.398  14.833  14.973
19453W        W85862  25.562  39.999  14.137
19454W        W85863   5.603   0.515  10.609
19455W        W85864  22.439  41.819  13.937
19456W        W85865   2.395   7.754   2.576
19457W        W85866  38.253  15.696   1.436
19458W        W85867  18.148  15.834   4.193
19459W        W85868   8.107  32.914  14.249
19460W        W85869   4.663  10.144   2.990
19461W        W85870  27.156  35.873  12.120
19462W        W85871  22.809  21.723   9.767
19463W        W85872   3.504  31.059   0.251
19464W        W85873  38.143  36.262   2.205
19465W        W85874  10.414  30.882   2.347
19466W        W85875  20.236  11.721   4.535
19467W        W85876  22.163  20.787  14.825
19468W        W85877  17.663   4.109  13.989
19469W        W85878  16.256  27.075   3.160
19470W        W85879   9.154  22.758  10.842
19471W        W85880  20.554  33.401   3.394
19472W        W85881   0.009  38.685  11.196
19473W        W85882  30.334  38.027  14.049
19474W        W85883  21.460  19.424  14.799
19475W        W85884  19.223  37.909   4.114
19476W        W85885  36.767   1.833   2.933
19477W        W85886  12.143  34.135  12.473
19478W        W85887  43.067  18.272   1.881
19479W        W85888   4.131  31.015  14.055
19480W        W85889   8.694  28.125  11.662
19481W        W85890  19.804   2.997   4.579
19482W        W85891  35.221   3.347   2.077
19483W        W85892  33.817  42.524   0.072
19484W        W85893  23.894  25.759   3.284
19485W        W85894  35.881  38.070  14.095
19486W        W85895   4.009  12.745  10.877
19487W        W85896  12.901  11.145   0.599
19488W        W85897  30.207  36.351   0.021
19489W        W85898  32.971  16.696   2.445
19490W        W85899  26.237  30.210  11.104
19491W        W85900  41.973  40.192   1.310
19492W        W85901   6.395  31.098  12.615
19493W        W85902  25.887  34.439  10.955
19494W        W85903  41.250  21.624   3.336
19495W        W85904  31.407  15.398  10.381
19496W        W85905  13.439   2.021   2.581
19497W        W85906  43.475  36.679  13.122
19498W        W85907  29.426  42.580  11.593
19499W        W85908   4.265   9.065   3.651
19500W        W85909  17.894  39.923   9.996
19501W        W85910   5.205   7.768   1.687
19502W        W85911  20.909  40.402   2.453
19503W        W85912  16.880  17.060   3.423
19504W        W85913   4.631  21.040  14.325
19505W        W85914  34.574   4.879  14.879
19506W        W85915   3.499  14.878   2.682
19507W        W85916  40.076   7.838   1.726
19508W        W85917  23.939  21.699  14.459
19509W        W85918  27.878  11.232  13.873
19510W        W85919  17.693  14.516  12.045
19511W        W85920  16.501  35.657   0.447
19512W        W85921  44.980   9.683   1.679
19513W        W85922  39.731   4.313  11.074
19514W        W85923   6.258   4.927   2.603
19515W        W85924  22.057  31.417   4.041
19516W        W85925  43.718  34.454   1.044
19517W        W85926  18.533  24.138  14.522
19518W        W85927  11.600  23.120  11.234
19519W        W85928  40.827   8.399   2.615
19520W        W85929  42.021  38.326   3.202
19521W        W85930  38.070   1.850   1.924
19522W        W85931   5.935  22.540   1.239
19523W        W85932  26.672  15.764  13.477
19524W        W85933   6.268  38.339   1.024
19525W        W85934  18.184  27.165  13.779
19526W        W85935  10.679  26.924  10.709
19527W        W85936  42.357  25.700   2.361
19528W        W85937  20.306  33.827  11.604
19529W        W85938   9.991  33.505  12.167
19530W        W85939  25.620  24.983   1.123
19531W        W85940  20.237   9.175   3.168
19532W        W85941   8.215  19.215  13.901
19533W        W85942  35.551   2.325   3.174
19534W        W85943  23.641  16.904  11.333
19535W        W85944  27.507  31.615  10.792
19536W        W85945  31.201   2.460   3.666
19537W        W85946  16.830  33.068   2.643
19538W        W85947   4.001   8.077  11.616
19539W        W85948  27.888  20.405  14.010
19540W        W85949   5.244   0.430   0.821
19541W        W85950  23.997  13.005   3.315
19542W        W85951  34.349  20.719  14.286
19543W        W85952  44.131  36.430  12.064
19544W        W85953  26.994  38.552   3.197
19545W        W85954  18.985  19.623   1.523
19546W        W85955  22.018  34.319  11.146
19547W        W85956  22.505  37.018  10.010
19548W        W85957   5.174  24.710   0.709
19549W        W85958   7.644  18.846  12.506
19550W        W85959  43.149  13.057  11.283
19551W        W85960  25.259   3.738   1.701
19552W        W85961   5.368  42.493  13.056
19553W        W85962  32.770  27.932   4.476
19554W        W85963  13.398  35.031  10.705
19555W        W85964  14.166  36.811  11.652
19556W        W85965   0.332  22.484  13.468
19557W        W85966  11.064  20.334   3.225
19558W        W85967  41.728  23.614   0.350
19559W        W85968  26.559  38.902   1.855
19560W        W85969  27.087  43.464   3.732
19561W        W85970  40.779   2.682  13.698
19562W        W85971  33.251  12.490   1.464
19563W        W85972  23.249   9.281  14.252
19564W        W85973   0.141  16.563  12.885
19565W        W85974   7.165   7.323   4.052
19566W        W85975  26.446  42.776   1.157
19567W        W85976  20.310  18.474  13.732
19568W        W85977   2.314   3.348   2.887
19569W        W85978   4.437  44.794  12.601
19570W        W85979  29.464  32.786   0.984
19571W        W85980  41.125  44.391  12.572
19572W        W85981   7.172  27.982   1.407
19573W        W85982  35.016  16.028  12.094
19574W        W85983  29.699  32.555   0.101
19575W        W85984   7.439  36.900   4.610
19576W        W85985  19.427   9.608  10.311
19577W        W85986   9.721  18.595   4.603
19578W        W85987  12.456  30.565   3.201
19579W        W85988  19.059  21.805  11.513
19580W        W85989   9.277  34.611   1.342
19581W        W85990   1.230  39.698  13.014
19582W        W85991  16.806  43.715   2.730
19583W        W85992  16.855  40.990  12.908
19584W        W85993   9.128  40.385  13.218
19585W        W85994   7.760  23.473  10.397
19586W        W85995  43.618  34.402  11.565
19587W        W85996  20.791  18.465  14.455
19588W        W85997  17.747   2.262   4.776
19589W        W85998  44.087  42.445   2.789
19590W        W85999  14.758  25.158  14.297
19591W        W86000  29.448  20.182   4.837
19592W        W86001  10.802  33.902   1.268
19593W        W86002  14.590  15.745  10.213
19594W        W86003  38.105   2.220   1.165
19595W        W86004  34.190  17.091   0.734
19596W        W86005  32.114  30.426   2.292
19597W        W86006  28.490  28.677   0.175
19598W        W86007   6.390   6.435  13.845
19599W        W86008  19.154   9.400  11.346
19600W        W86009   7.638  28.831  10.675
19601W        W86010  20.066  16.860   3.594
19602W        W86011   3.468  27.659  14.336
19603W        W86012  28.530  27.335   2.141
19604W        W86013   5.955  37.019   4.739
19605W        W86014  36.953  32.827  11.207
19606W        W86015  10.171  34.820   2.751
19607W        W86016   8.458  20.936   1.433
19608W        W86017  37.057  12.710  13.546
19609W        W86018   5.646   0.289  13.544
19610W        W86019  43.062  16.086  14.278
19611W        W86020  11.100  21.076   2.741
19612W        W86021  18.724  32.421   1.751
19613W        W86022   0.686  37.763   4.116
19614W        W86023   2.347  12.193   1.770
19615W        W86024  11.051  23.313   1.337
19616W        W86025  14.322  39.880   0.353
19617W        W86026  39.067   5.781  11.025
19618W        W86027  23.491   3.786  14.761
19619W        W86028  40.306  18.603  13.926
19620W        W86029  40.933  34.012   3.751
19621W        W86030   1.369   6.177  14.533
19622W        W86031  17.938  33.368  11.638
19623W        W86032  39.702  40.713  12.898
19624W        W86033   5.797  20.279   0.163
19625W        W86034  16.716  44.250  10.863
19626W        W86035  19.323  43.408   4.157
19627W        W86036  36.065  10.287  14.323
19628W        W86037  21.059  42.259   4.745
19629W        W86038  14.669  41.838  11.501
19630W        W86039  27.921  33.489  12.812
19631W        W86040  19.069  33.526  14.360
19632W        W86041  34.944  43.414   1.895
19633W        W86042   3.386  24.502  14.374
19634W        W86043  43.041  40.922   3.665
19635W        W86044  12.771  33.745  13.876
19636W        W86045  37.462  40.784   2.674
19637W        W86046  28.884   5.428   2.584
19638W        W86047  42.703  44.808  11.595
19639W        W86048   3.461  18.722   2.888
19640W        W86049  22.744  10.872  12.392
19641W        W86050  40.586   0.606   0.901
19642W        W86051   8.750  32.327  12.019
19643W        W86052  42.236  14.261   3.142
19644W        W86053  40.097   2.874   3.899
19645W        W86054  33.123  24.768   1.424
19646W        W86055  14.529  28.093  13.418
19647W        W86056  43.794  14.572  14.538
19648W        W86057  35.533  20.224   4.347
19649W        W86058  23.771  14.541  14.241
19650W        W86059  24.041  10.631  13.380
19651W        W86060  16.304   1.465  14.835
19652W        W86061  36.779  25.962  12.947
19653W        W86062  25.437  19.106   2.030
19654W        W86063  26.494   1.214   2.216
19655W        W86064  38.598  16.645   9.888
19656W        W86065  19.336  11.096  11.575
19657W        W86066  19.814  11.703   3.203
19658W        W86067  19.513  15.402  12.271
19659W        W86068  43.120  30.542  11.259
19660W        W86069  14.628  24.119  12.462
19661W        W86070  24.031   2.388  14.061
19662W        W86071  19.130  29.497  12.648
19663W        W86072  31.538  14.400  12.005
19664W        W86073  36.541  17.198   9.869
19665W        W86074  33.463   2.543   2.796
19666W        W86075  18.382  24.325  12.869
19667W        W86076   2.769  29.692   2.526
19668W        W86077  24.869  21.506  11.569
19669W        W86078   4.263   1.148  12.992
19670W        W86079  26.677  20.016   2.732
19671W        W86080  11.520   2.658   1.688
19672W        W86081  28.858  44.315  12.633
19673W        W86082   2.876  21.493   2.602
19674W        W86083  36.697  17.687   1.290
19675W        W86084  43.707  38.128   4.234
19676W        W86085  22.708  44.467   0.553
19677W        W86086  34.312  27.367   2.284
19678W        W86087  30.608  12.282   2.307
19679W        W86088  25.712   0.578   0.440
19680W        W86089  38.356  19.897   4.110
19681W        W86090  41.751  30.238   3.670
19682W        W86091   1.612   9.748   2.405
19683W        W86092   8.264   5.339  14.236
19684W        W86093  24.493   4.368   0.735
19685W        W86094  27.595   3.810  13.905
19686W        W86095  24.289  13.291   0.933
19687W        W86096  26.390  30.706  11.168
19688W        W86097  17.740   1.360   0.948
19689W        W86098  29.411  18.259  11.945
19690W        W86099  23.442  30.312   2.599
19691W        W86100  19.725  23.734  10.705
19692W        W86101  23.374  19.843   9.395
19693W        W86102  23.477  39.009   0.879
19694W        W86103   3.939  25.800  10.977
19695W        W86104  28.707  40.945   3.100
19696W        W86105   8.159  15.128   2.782
19697W        W86106   3.361  20.962   3.792
19698W        W86107  15.669  25.541   2.727
19699W        W86108  11.634  33.119  14.375
19700W        W86109  44.330  21.012   1.768
19701W        W86110  22.333  19.947   0.800
19702W        W86111   0.445  28.247   3.305
19703W        W86112  22.115  40.330   0.905
19704W        W86113  14.329   3.434   5.036
19705W        W86114  24.689   1.371   4.079
19706W        W86115  33.096  33.239  14.280
19707W        W86116   0.841  22.480  13.842
19708W        W86117  20.263  20.679   2.740
19709W        W86118  14.185  17.495   3.654
19710W        W86119  37.043   2.069   4.152
19711W        W86120  12.779  30.160   3.207
19712W        W86121  23.626  12.840  14.977
19713W        W86122  34.809  40.512  11.691
19714W        W86123  37.041   5.873   1.747
19715W        W86124  22.028  27.660   1.235
19716W        W86125  42.450  36.579   3.364
19717W        W86126   5.664  16.091   2.755
19718W        W86127  32.409  39.538   4.604
19719W        W86128  36.067  21.379   3.635
19720W        W86129  36.135  10.085  11.056
19721W        W86130  43.371   8.175   2.236
19722W        W86131  12.430  31.117  10.697
19723W        W86132  31.964  16.375  14.296
19724W        W86133  25.783  39.130  14.342
19725W        W86134  25.686  13.207   1.737
19726W        W86135  36.085  17.246  11.950
19727W        W86136   1.914  20.061   2.594
19728W        W86137  21.834  21.228  11.265
19729W        W86138  11.344   3.994   4.172
19730W        W86139  29.528  29.605   4.206
19731W        W86140  41.516  18.015  12.074
19732W        W86141  27.078  33.958   1.857
19733W        W86142  32.113  41.641   3.664
19734W        W86143  37.748  35.999   1.979
19735W        W86144  29.144  13.500   3.256
19736W        W86145  39.813   1.201  14.998
19737W        W86146   3.595  33.022  12.581
19738W        W86147  44.883   1.003  13.447
19739W        W86148  20.514  36.855  14.340
19740W        W86149  33.407  41.946  10.911
19741W        W86150  10.910  44.303  12.189
19742W        W86151  41.109   5.041   3.721
19743W        W86152  15.216  20.103  14.991
19744W        W86153  31.615  19.204   4.139
19745W        W86154  18.569   5.164  10.494
19746W        W86155   0.889  18.677  13.105
19747W        W86156   1.219  27.953  14.334
19748W        W86157   3.519  15.165  11.401
19749W        W86158  12.251  18.192   2.849
19750W        W86159  28.768  27.182  10.639
19751W        W86160   6.431  27.381   0.758
19752W        W86161   2.394  31.011   4.110
19753W        W86162  38.956  39.509  10.766
19754W        W86163  33.444  21.834   0.039
19755W        W86164  12.671  14.708  11.666
19756W        W86165  11.287  37.369   4.793
19757W        W86166  30.762  26.572  10.663
19758W        W86167  12.760  34.244  14.061
19759W        W86168  11.250  30.600   4.983
19760W        W86169   1.683   2.324  11.131
19761W        W86170  17.632   6.736  13.103
19762W        W86171  11.786  37.081  11.463
19763W        W86172   3.413  35.359  13.987
19764W        W86173   4.910  34.351   4.901
19765W        W86174   3.924  13.616  14.768
19766W        W86175  18.648   2.358   3.448
19767W        W86176  23.514  34.727  11.947
19768W        W86177  29.501   3.726   3.102
19769W        W86178  23.036  13.195  14.581
19770W        W86179   7.726  36.662  12.516
19771W        W86180  33.583   9.361  11.600
19772W        W86181  33.129   9.483   1.813
19773W        W86182  41.535  18.522  12.484
19774W        W86183   0.987  37.990  14.379
19775W        W86184  38.796  42.855   1.778
19776W        W86185  12.127  32.893   0.857
19777W        W86186   7.993  33.721   4.063
19778W        W86187  28.005   1.022   1.849
19779W        W86188  37.035  27.571  13.943
19780W        W86189  26.687   3.356  13.011
19781W        W86190  26.946  41.879  12.542
19782W        W86191   0.069  22.043  13.461
19783W        W86192  16.969  36.738   5.038
19784W        W86193  32.960  17.009  11.932
19785W        W86194  29.305  43.067  12.479
19786W        W86195  24.487  40.015   4.524
19787W        W86196  20.689   9.940   1.400
19788W        W86197  39.621  25.112  12.057
19789W        W86198  10.680  38.979   3.328
19790W        W86199  39.058  39.834   3.262
19791W        W86200   2.738  14.748  12.009
19792W        W86201  21.115   3.803  13.863
19793W        W86202  24.075  44.224  13.372
19794W        W86203  43.245   0.233   1.801
19795W        W86204   7.979  13.865   0.091
19796W        W86205   6.055  18.614  11.810
19797W        W86206  16.049  28.289   0.909
19798W        W86207   7.278  37.165   4.179
19799W        W86208  22.280  43.923  13.489
19800W        W86209  34.234  28.790  13.883
19801W        W86210  24.068   8.990  14.430
19802W        W86211  43.916   1.079   3.144
19803W        W86212  35.555  20.645  14.438
19804W        W86213  23.582  30.529   3.462
19805W        W86214  38.545  20.886   5.491
19806W        W86215  32.676   7.808  11.766
19807W        W86216  21.397   4.678  12.187
19808W        W86217  33.858  11.864  13.157
19809W        W86218  42.838   1.871  13.362
19810W        W86219  36.504  21.539  10.129
19811W        W86220   5.490   6.010   1.377
19812W        W86221  38.524  29.638   1.735
19813W        W86222  31.129  33.695  11.756
19814W        W86223  12.753  13.687  12.858
19815W        W86224   5.851  20.818   2.986
19816W        W86225   3.865  12.171   1.258
19817W        W86226  41.885  14.170  11.681
19818W        W86227  11.125  35.737  11.297
19819W        W86228  24.766  37.575  14.861
19820W        W86229  31.382  13.619  12.524
19821W        W86230  24.441  33.283   4.994
19822W        W86231  21.701  18.840   1.391
19823W        W86232  31.936  11.671  14.703
19824W        W86233  20.067  13.220  12.430
19825W        W86234  26.079   5.472   4.282
19826W        W86235  38.443   7.133  12.523
19827W        W86236  29.200   6.830   3.527
19828W        W86237  26.334  16.641   5.048
19829W        W86238  32.575  22.269   3.796
19830W        W86239   3.934   2.525   2.662
19831W        W86240   9.024  38.761  13.942
19832W        W86241   4.822   7.956  11.143
19833W        W86242  33.909  20.651  14.645
19834W        W86243   8.267   8.649  14.040
19835W        W86244  29.673  19.300   2.410
19836W        W86245   9.883  20.987  13.766
19837W        W86246  33.820   3.092  12.956
19838W        W86247  12.476  38.757  11.193
19839W        W86248  12.614  37.366  10.633
19840W        W86249  29.666   4.150  13.575
19841W        W86250  40.852  29.504   0.869
19842W        W86251  41.070  11.099  13.872
19843W        W86252  40.042   9.696  13.457
19844W        W86253  34.933  20.639   1.372
19845W        W86254  19.564  27.907  14.798
19846W        W86255  24.981   5.197  10.645
19847W        W86256  15.034   3.853  14.990
19848W        W86257  10.036  39.386  11.118
19849W        W86258  31.844  32.933  12.307
19850W        W86259  41.451   0.711   0.266
19851W        W86260  42.483  33.916   4.153
19852W        W86261  38.384  20.786  11.069
19853W        W86262  43.974  41.907   4.445
19854W        W86263   3.932  29.926  14.404
19855W        W86264  25.344   6.635   1.239
19856W        W86265  28.881   7.060  10.816
19857W        W86266   1.214  32.177   2.923
19858W        W86267  16.113  26.587   3.357
19859W        W86268  34.913   0.302   1.247
19860W        W86269  12.152  26.540   0.692
19861W        W86270  44.358  41.273  13.016
19862W        W86271  22.424  10.709  11.432
19863W        W86272  17.262  15.055  14.047
19864W        W86273  20.541  11.588  13.971
19865W        W86274   9.542  10.639  13.297
19866W        W86275   5.245  14.370  14.679
19867W        W86276  11.904  15.169   0.196
19868W        W86277   4.023  27.255   4.625
19869W        W86278  25.006  38.943   4.688
19870W        W86279  36.570  26.870  13.935
19871W        W86280  38.877  24.605   0.798
19872W        W86281  42.770  39.704   4.217
19873W        W86282  22.077  14.562  12.176
19874W        W86283  11.354  29.612  13.595
19875W        W86284   9.810  35.113   3.700
19876W        W86285  40.989   0.198   2.340
19877W        W86286   2.408  40.956   2.647
19878W        W86287   8.401  40.330   0.733
19879W        W86288  21.124  19.321   0.378
19880W        W86289   2.825  12.617  12.032
19881W        W86290   7.929  23.028   0.466
19882W        W86291   7.870   6.273  10.697
19883W        W86292  39.835  21.553   2.156
19884W        W86293   1.350  23.160  10.634
19885W        W86294  23.119  31.953   0.821
19886W        W86295  23.509   8.635  10.073
19887W        W86296  44.519   6.680  14.034
19888W        W86297  25.833   8.786   0.744
19889W        W86298  16.276  24.750  11.585
19890W        W86299  25.608   7.591  11.525
19891W        W86300  20.299  19.606  12.561
19892W        W86301   0.625  29.621  11.184
19893W        W86302  27.696  30.948  12.073
19894W        W86303  17.173  17.140   4.216
19895W        W86304   1.398  10.739   2.026
19896W        W86305   5.869   3.436   4.903
19897W        W86306  31.000  12.135   3.991
19898W        W86307  41.863  12.234   4.587
19899W        W86308  24.158  27.927  14.285
19900W        W86309  17.161  20.400  13.905
19901W        W86310  22.561  22.872  10.580
19902W        W86311  43.235   4.259  13.395
19903W        W86312  30.343   6.414   0.426
19904W        W86313   1.558  14.177   4.147
19905W        W86314  35.555   5.039  11.126
19906W        W86315  32.826  33.210   0.246
19907W        W86316  23.295  16.614   4.741
19908W        W86317  22.709  31.956   2.321
19909W        W86318  30.139  11.441   2.284
19910W        W86319   5.353  28.235  14.503
19911W        W86320  42.585  17.407   1.883
19912W        W86321  42.480  38.911  13.367
19913W        W86322  14.018  23.041  11.078
19914W        W86323  15.296  21.199   2.603
19915W        W86324  19.716  31.665  14.778
19916W        W86325  33.016  43.955  12.436
19917W        W86326  32.206  20.137   4.151
19918W        W86327   1.940   8.986   2.101
19919W        W86328  21.495  36.550  11.894
19920W        W86329  11.663   4.482  12.101
19921W        W86330  14.812   9.426   0.790
19922W        W86331  36.550   2.877   1.915
19923W        W86332  26.679  20.164   1.898
19924W        W86333  31.179   7.575   1.171
19925W        W86334  38.555  24.097  12.470
19926W        W86335  37.636  29.379  13.377
19927W        W86336  30.623  17.276  12.386
19928W        W86337  34.455  28.232   4.157
19929W        W86338  22.788  18.166   4.958
19930W        W86339  32.129   4.732   0.954
19931W        W86340  16.365  44.804  11.562
19932W        W86341  30.875   8.292  13.154
19933W        W86342  13.246   9.840   3.377
19934W        W86343  14.982  40.614   5.091
19935W        W86344  19.281  21.720  14.804
19936W        W86345  42.044  22.211   4.253
19937W        W86346   0.429  25.025  13.776
19938W        W86347  41.349  44.954  13.977
19939W        W86348  13.120  35.887   1.854
19940W        W86349  27.131  33.616  13.488
19941W        W86350  21.419  20.450   0.240
19942W        W86351  13.756   8.391   0.794
19943W        W86352  19.624  23.464   1.135
19944W        W86353  23.694  43.863  11.032
19945W        W86354  13.807  31.806  10.697
19946W        W86355  30.341  41.009   4.930
19947W        W86356  35.459  32.352   4.097
19948W        W86357  27.622  27.641  11.933
19949W        W86358  41.442  24.008  11.110
19950W        W86359  30.556  19.910   4.779
19951W        W86360  41.461  17.283   3.131
19952W        W86361  20.164  27.576   1.769
19953W        W86362  26.192   4.220  12.060
19954W        W86363  22.310  41.594   1.783
19955W        W86364  18.010   6.735  13.453
19956W        W86365  11.106  13.807   1.595
19957W        W86366  11.188  22.953  12.389
19958W        W86367  12.630  24.980   1.122
19959W        W86368  36.100  34.451  11.705
19960W        W86369  11.609   3.439  13.133
19961W        W86370   4.512   2.526  10.581
19962W        W86371  20.550  19.900  14.685
19963W        W86372  44.875  34.114  14.783
19964W        W86373  35.071  11.811  12.072
19965W        W86374  33.392  21.200  10.188
19966W        W86375  39.379  30.597  11.466
19967W        W86376  43.970  40.243  14.455
19968W        W86377  29.416   7.619   0.318
19969W        W86378  34.648   9.813  10.483
19970W        W86379  20.241  17.727   1.839
19971W        W86380  21.787  12.629  11.335
19972W        W86381  13.604  41.010   4.096
19973W        W86382  26.582  24.890   4.642
19974W        W86383   4.782   5.696  11.108
19975W        W86384  30.851  24.611  11.620
19976W        W86385  14.147   0.713  10.704
19977W        W86386  36.643  22.196   2.697
19978W        W86387  39.622  37.533  11.428
19979W        W86388  13.543   9.661  13.838
19980W        W86389  36.312  36.476  13.833
19981W        W86390  18.526  16.305   1.479
19982W        W86391  11.795   3.170  14.900
19983W        W86392  20.267  29.292  13.441
19984W        W86393   6.644   3.223   2.376
19985W        W86394  13.876   2.335   2.607
19986W        W86395  10.416  31.258   1.047
19987W        W86396  34.480  21.956   0.613
19988W        W86397  16.126  37.387  11.764
19989W        W86398  12.607   6.778  13.943
19990W        W86399  40.440  35.934   4.783
19991W        W86400  29.699  35.994  11.138
19992W        W86401  19.815   9.061   4.089
19993W        W86402  11.181  16.188  13.385
19994W        W86403  32.589  37.774  13.870
19995W        W86404  40.341   8.091   2.636
19996W        W86405  18.772   8.371   1.493
19997W        W86406   6.435  43.521  11.219
19998W        W86407  17.216  39.770   2.235
19999W        W86408   5.301  31.852   2.687
20000W        W86409  17.345  20.867   4.514
20001W        W86410  36.257   1.272   0.897
20002W        W86411  34.559   2.476  13.042
20003W        W86412   4.984   3.269   0.072
20004W        W86413  19.410  10.208  12.480
20005W        W86414  10.653  34.330   4.286
20006W        W86415   8.267  23.074   4.584
20007W        W86416  36.080  31.625  11.103
20008W        W86417  20.173  10.054   1.926
20009W        W86418  38.019  29.898  12.014
20010W        W86419  36.090  31.829  12.406
20011W        W86420  22.423  37.998  12.607
20012W        W86421  21.740  35.018   0.259
20013W        W86422  17.767  33.713  14.277
20014W        W86423  35.464   2.618  11.936
20015W        W86424  44.121  19.753  13.868
20016W        W86425  25.037   2.607   4.580
20017W        W86426  16.202  27.215   1.633
20018W        W86427  37.578  20.951  13.945
20019W        W86428   2.210   7.696   2.103
20020W        W86429  29.018  41.641  12.845
20021W        W86430  10.716  18.281   3.706
20022W        W86431  28.180   6.780   3.552
20023W        W86432  30.175  31.723  11.576
20024W        W86433  17.299  37.370   1.796
20025W        W86434  31.683  30.876  14.977
20026W        W86435  22.613  11.087   1.034
20027W        W86436  19.741  40.533  13.374
20028W        W86437  38.172  15.616   0.021
20029W        W86438  22.987  39.293  12.567
20030W        W86439   7.448  37.222  13.924
20031W        W86440  44.252  17.683   4.181
20032W        W86441  10.218  22.562   2.701
20033W        W86442  20.679  41.504  12.964
20034W        W86443  35.476  13.376   2.733
20035W        W86444  40.728  42.776  11.006
20036W        W86445  15.855   2.333   1.134
20037W        W86446  34.893  39.318   2.257
20038W        W86447  12.887  28.791   0.491
20039W        W86448  44.806   6.345  13.606
20040W        W86449  32.112  27.583  10.460
20041W        W86450   6.096   7.397  12.780
20042W        W86451   3.192  21.299  12.936
20043W        W86452  38.544   3.200  12.360
20044W        W86453   8.181   4.444   0.054
20045W        W86454  36.830  14.611  12.012
20046W        W86455  22.757   2.903   0.364
20047W        W86456  23.630   2.333  13.012
20048W        W86457  12.674  14.794   4.248
20049W        W86458  24.231  16.184   3.371
20050W        W86459  26.253   6.644  13.264
20051W        W86460  30.817  15.622  12.163
20052W        W86461  20.428  44.729  13.330
20053W        W86462  24.996  39.300  11.663
20054W        W86463  44.494   5.733   4.128
20055W        W86464  13.900  41.018   3.664
20056W        W86465  36.664  35.054  10.763
20057W        W86466   9.807   3.753   0.720
20058W        W86467   4.709  38.532   3.883
20059W        W86468   6.294  42.388  10.345
20060W        W86469  30.166  44.838   2.233
20061W        W86470  19.667  39.235   4.585
20062W        W86471   5.463  40.344   2.976
20063W        W86472  43.730  12.733   2.450
20064W        W86473  11.754  17.027  14.926
20065W        W86474   0.338   2.197   2.745
20066W        W86475  15.372  38.462   2.525
20067W        W86476  13.711  24.974   0.943
20068W        W86477  23.967   1.208  14.875
20069W        W86478  14.353  44.035   3.698
20070W        W86479  31.857   8.262  12.153
20071W        W86480  24.538   7.523  14.919
20072W        W86481  13.385  13.210  14.319
20073W        W86482  40.584  24.120  10.103
20074W        W86483   5.721   3.331   4.081
20075W        W86484  19.251  17.694   0.411
20076W        W86485  18.298  15.228  11.234
20077W        W86486  35.817  10.893   1.838
20078W        W86487  37.028  36.750   4.258
20079W        W86488  41.230   7.765   2.384
20080W        W86489  26.570  17.829  12.855
20081W        W86490  29.579   8.181  13.505
20082W        W86491  31.527   8.162  10.644
20083W        W86492  41.920  22.573   0.638
20084W        W86493  20.679   0.835  11.339
20085W        W86494  14.719   0.436  12.884
20086W        W86495  18.246  30.755   4.563
20087W        W86496  36.796  16.407  14.369
20088W        W86497   7.594  18.346   1.697
20089W        W86498  37.273   8.781   1.526
20090W        W86499   6.816  26.231  12.979
20091W        W86500  19.816  29.037   3.583
20092W        W86501   1.337  24.652   3.432
20093W        W86502  20.008  28.246  10.615
20094W        W86503  11.706   3.965  10.980
20095W        W86504  44.635  25.500   1.404
20096W        W86505   6.899  20.729  13.952
20097W        W86506   7.935   8.404   1.249
20098W        W86507   4.291  35.676   0.953
20099W        W86508  25.510  27.654  10.787
20100W        W86509  44.624  17.671  11.173
20101W        W86510  21.238   2.020   3.619
20102W        W86511   4.219  26.590  13.817
20103W        W86512  27.985  22.709  13.431
20104W        W86513  37.563  17.718  12.593
20105W        W86514  34.792  44.977  14.141
20106W        W86515  25.113  31.324  13.396
20107W        W86516  10.845  17.756  13.069
20108W        W86517  36.180  22.411  10.742
20109W        W86518  31.594  32.541   0.132
20110W        W86519  38.400   8.387   2.760
20111W        W86520  30.823  40.374  11.336
20112W        W86521  34.077  40.349   0.716
20113W        W86522  31.444  19.029   2.816
20114W        W86523  32.594  26.305  11.269
20115W        W86524  40.070  11.825  13.788
20116W        W86525   4.217  16.600   0.364
20117W        W86526  26.912  23.135   1.362
20118W        W86527  41.296  14.666  12.006
20119W        W86528  23.746  24.854  10.676
20120W        W86529  12.804  18.493   0.550
20121W        W86530  40.267  20.638   1.159
20122W        W86531  40.966  13.202  12.331
20123W        W86532  27.448  25.368   3.051
20124W        W86533  37.888  36.153   1.343
20125W        W86534  44.218  40.606  11.179
20126W        W86535   4.783  41.312  14.902
20127W        W86536  37.037   1.876  10.495
20128W        W86537  22.465  43.898  13.978
20129W        W86538  16.505  11.694   0.359
20130W        W86539  35.939  16.022   3.239
20131W        W86540  28.864  18.068  11.119
20132W        W86541  44.476  20.761   1.340
20133W        W86542  15.737  22.629   0.197
20134W        W86543   4.713  20.324   3.767
20135W        W86544  44.533  17.551  13.416
20136W        W86545   5.215  16.768   1.228
20137W        W86546  10.857   6.095   2.274
20138W        W86547  34.528  11.225   4.955
20139W        W86548  31.275  29.637  13.452
20140W        W86549  14.091  16.903  14.397
20141W        W86550  21.043   4.722   4.073
20142W        W86551  33.516  30.614   4.879
20143W        W86552  34.502  15.892   1.213
20144W        W86553  31.375   3.392  14.812
20145W        W86554   1.221  31.699   2.774
20146W        W86555  28.569  26.562  10.785
20147W        W86556  40.815  13.876   1.858
20148W        W86557  14.452  43.884  12.211
20149W        W86558  35.921  13.411   0.318
20150W        W86559   6.621   0.857   1.692
20151W        W86560   4.082  10.085  10.964
20152W        W86561  40.116  26.161  13.010
20153W        W86562  34.434   4.369   1.897
20154W        W86563   6.452  15.261   4.521
20155W        W86564  24.022   6.695  14.376
20156W        W86565   7.602  22.520   2.254
20157W        W86566  20.591  31.071  11.994
20158W        W86567  16.765  44.888   0.353
20159W        W86568  42.685  26.599   0.013
20160W        W86569  11.665  13.461  13.126
20161W        W86570   1.427   3.992   3.164
20162W        W86571   9.284  26.649   0.942
20163W        W86572  23.983  14.870   0.212
20164W        W86573   6.244  21.625   2.433
20165W        W86574  16.750  10.340  10.241
20166W        W86575  30.461  31.523   2.334
20167W        W86576  31.855  42.459   4.249
20168W        W86577  27.180  21.646  12.897
20169W        W86578  10.995  24.096   4.527
20170W        W86579  27.419   6.297   1.689
20171W        W86580   4.098  12.799  14.482
20172W        W86581  13.329  39.039  12.062
20173W        W86582  36.131   5.961   3.258
20174W        W86583   2.196  12.352  12.073
20175W        W86584   0.517  10.606  12.018
20176W        W86585  44.888   7.024  14.331
20177W        W86586   0.960  36.893   4.113
20178W        W86587   5.963  15.589   0.565
20179W        W86588   2.249  26.624  13.857
20180W        W86589  23.940  39.990  11.652
20181W        W86590   6.712  23.057   2.228
20182W        W86591  23.581  26.323   2.824
20183W        W86592  35.998  17.245   1.155
20184W        W86593  29.495  28.120  13.337
20185W        W86594  40.269  36.405  11.127
20186W        W86595  43.343  36.852   4.315
20187W        W86596   4.400  17.024   4.931
20188W        W86597  34.555  39.626  12.839
20189W        W86598  12.764  36.638  14.488
20190W        W86599  26.172  27.485  13.328
20191W        W86600  14.516  38.435   1.213
20192W        W86601   0.816  18.005  10.540
20193W        W86602   7.035  25.060  13.537
20194W        W86603  22.579  44.175   1.895
20195W        W86604  18.331   9.908  12.604
20196W        W86605  26.670  33.216  13.845
20197W        W86606  28.763  35.355  11.659
20198W        W86607  35.303   4.816   3.366
20199W        W86608  33.170  39.501  11.970
20200W        W86609   9.827  13.814   4.178
20201W        W86610  22.167  25.029   3.636
20202W        W86611  40.193  33.009  11.583
20203W        W86612  24.886   3.324  13.776
20204W        W86613  26.104  10.443  12.979
20205W        W86614   9.218   0.035   2.689
20206W        W86615  11.672  44.172   9.606
20207W        W86616  40.113  35.944  14.059
20208W        W86617   3.137  26.131   5.161
20209W        W86618  42.432  11.585  13.935
20210W        W86619  16.793  26.429  12.492
20211W        W86620  19.366  11.635   4.108
20212W        W86621  39.988  25.692   3.654
20213W        W86622  26.541  36.405   0.430
20214W        W86623  37.001  40.508  10.821
20215W        W86624  19.187  24.139   0.579
20216W        W86625   4.376  38.670   3.500
20217W        W86626   0.270  26.130  10.812
20218W        W86627  12.284  14.546   1.688
20219W        W86628  14.543  12.434   1.916
20220W        W86629  11.284  20.478  12.863
20221W        W86630  14.989   6.335  14.096
20222W        W86631  27.536  39.921   0.926
20223W        W86632   0.852   2.482   4.514
20224W        W86633  22.585  38.571  13.113
20225W        W86634  12.200  14.590   3.380
20226W        W86635  30.289  32.488  14.508
20227W        W86636  24.725  30.536   3.734
20228W        W86637  23.141  40.989   3.710
20229W        W86638  43.436  44.342  11.217
20230W        W86639   6.327   5.789   4.739
20231W        W86640  33.915   4.342   1.930
20232W        W86641  29.233  40.809  14.501
20233W        W86642   8.161  42.521   1.447
20234W        W86643  31.634  16.077  12.795
20235W        W86644   8.869  28.562   0.541
20236W        W86645  32.126  43.762   2.203
20237W        W86646  42.781  30.147  13.415
20238W        W86647  10.767  16.651  11.424
20239W        W86648   5.354  41.905  14.489
20240W        W86649   2.717   4.640  14.034
20241W        W86650   0.424   2.776  10.862
20242W        W86651  25.352  40.326   4.840
20243W        W86652  37.866  39.993   0.983
20244W        W86653  17.650   0.710  14.002
20245W        W86654  28.159   2.907  10.900
20246W        W86655  12.355  25.578  11.120
20247W        W86656  13.429   8.363  13.647
20248W        W86657   1.064   2.852  11.971
20249W        W86658   9.630   6.829  14.269
20250W        W86659  11.884  30.232   4.082
20251W        W86660   4.845   7.899  12.830
20252W        W86661  41.498   4.275  11.208
20253W        W86662  16.795   8.684   0.387
20254W        W86663  27.082   0.255   0.334
20255W        W86664  34.308   9.234  10.513
20256W        W86665  16.520  33.485   2.671
20257W        W86666   9.453  23.191  14.366
20258W        W86667   9.049  25.121   1.496
20259W        W86668  27.522  23.700   3.053
20260W        W86669   6.321  29.607  11.206
20261W        W86670  29.020  21.471   1.737
20262W        W86671  39.922   4.588  12.085
20263W        W86672  32.461  26.915   4.513
20264W        W86673  38.811  19.693  14.869
20265W        W86674  12.395   0.769  11.136
20266W        W86675  31.140  34.570  11.418
20267W        W86676  22.594  11.766  13.065
20268W        W86677  12.455  19.201  10.742
20269W        W86678  34.470  24.391   2.177
20270W        W86679   2.672  41.938  13.955
20271W        W86680   8.133   2.344   4.143
20272W        W86681  11.680  17.169   0.815
20273W        W86682  27.455  11.969  11.857
20274W        W86683   5.375  29.359  10.279
20275W        W86684  13.751  10.969  10.600
20276W        W86685  10.005  20.084  11.607
20277W        W86686  30.972  22.683  13.346
20278W        W86687  22.878   9.512  13.508
20279W        W86688  36.545  44.071   4.054
20280W        W86689  10.244   7.120  12.395
20281W        W86690  26.512  39.890   0.291
20282W        W86691  44.488  35.479  13.030
20283W        W86692  17.809  28.996  10.695
20284W        W86693  17.668   9.290  10.723
20285W        W86694  23.967  32.452  12.032
20286W        W86695  22.627  41.572  11.662
20287W        W86696   7.974  42.055  11.769
20288W        W86697  18.936   8.381   2.102
20289W        W86698   3.361   7.924   3.771
20290W        W86699  20.076  34.580   3.870
20291W        W86700   5.766  16.375  11.984
20292W        W86701  39.083  36.047   0.339
20293W        W86702  36.370  22.945   2.320
20294W        W86703  10.416  20.162   2.786
20295W        W86704  16.948  41.346   4.541
20296W        W86705  17.054  31.451   0.687
20297W        W86706  19.792   1.675   0.520
20298W        W86707   5.493  19.287   2.116
20299W        W86708  29.577  15.122  11.001
20300W        W86709  12.443  30.954   4.052
20301W        W86710  10.109  32.482  14.918
20302W        W86711   0.261   4.251   2.626
20303W        W86712  11.389  12.047  14.349
20304W        W86713   0.787  30.580  13.136
20305W        W86714  24.711  19.497  14.868
20306W        W86715  13.687  42.301  12.971
20307W        W86716   0.055  41.826  11.099
20308W        W86717  18.788  21.081  11.938
20309W        W86718  24.648  20.103  11.579
20310W        W86719  43.910  35.982  11.899
20311W        W86720   0.521  26.968   3.721
20312W        W86721  18.057  20.117  14.434
20313W        W86722  39.052  33.806   1.745
20314W        W86723  30.393  30.445   3.389
20315W        W86724   1.005  11.503   5.000
20316W        W86725  29.422  10.301  12.084
20317W        W86726  10.643  17.711   4.583
20318W        W86727  21.614  40.967  13.544
20319W        W86728  35.444  32.085  13.980
20320W        W86729  34.452   6.759   4.014
20321W        W86730  27.109  18.542  13.888
20322W        W86731   4.415  21.499  14.936
20323W        W86732  20.227  17.372   2.218
20324W        W86733  33.642  22.703   1.247
20325W        W86734   1.307  25.365   4.817
20326W        W86735   5.891  21.281  10.649
20327W        W86736  11.295  32.339  13.289
20328W        W86737  35.168   5.068  11.523
20329W        W86738  41.342  34.040   1.303
20330W        W86739  18.226  10.214  14.483
20331W        W86740  25.488   6.748   2.529
20332W        W86741  19.213  42.034  12.922
20333W        W86742  17.246   4.393   2.180
20334W        W86743  44.307   7.223   0.476
20335W        W86744   0.999  10.808  11.123
20336W        W86745   7.118  37.400  13.094
20337W        W86746   0.296   4.739  12.099
20338W        W86747  34.697  32.656  11.607
20339W        W86748   6.850  27.625   1.640
20340W        W86749   7.932   5.682  12.783
20341W        W86750  22.993  41.563   4.953
20342W        W86751  27.241  27.149   3.642
20343W        W86752   4.339  43.868  13.623
20344W        W86753  19.116  37.436   3.241
20345W        W86754  33.610   9.338   1.718
20346W        W86755  33.078  34.121   3.445
20347W        W86756  18.641  30.439   0.559
20348W        W86757  38.034  33.101  13.885
20349W        W86758  43.836  36.333  10.463
20350W        W86759  40.000  32.244   2.192
20351W        W86760  11.952  39.060  12.380
20352W        W86761  26.968  23.530  14.977
20353W        W86762   4.849  32.445  12.168
20354W        W86763   2.883   2.807   1.380
20355W        W86764  29.154   2.528   1.750
20356W        W86765  15.290   2.328  11.701
20357W        W86766   8.744  10.978  13.815
20358W        W86767   6.452  27.184  13.836
20359W        W86768  21.366  38.710   4.190
20360W        W86769   1.945  38.922   0.295
20361W        W86770  10.459  11.820   3.503
20362W        W86771  12.895   4.698   5.609
20363W        W86772   6.470  17.010   0.820
20364W        W86773  15.085  35.334  14.188
20365W        W86774  12.451  12.162  14.033
20366W        W86775  22.284  43.859  11.928
20367W        W86776   7.942   3.549   2.935
20368W        W86777   2.863  31.364  11.667
20369W        W86778  40.868  23.274  13.312
20370W        W86779  11.578  42.828   5.438
20371W        W86780  28.142   7.441   4.135
20372W        W86781   2.249  29.498  11.214
20373W        W86782   6.147   0.846   0.891
20374W        W86783  24.256  11.861  10.724
20375W        W86784  24.740  11.556   1.384
20376W        W86785   9.096   8.152   3.343
20377W        W86786   0.034  30.661  12.036
20378W        W86787  11.952  40.387  10.661
20379W        W86788  17.750  17.576   3.528
20380W        W86789  15.913  38.465  11.860
20381W        W86790  25.221  11.708   1.299
20382W        W86791  27.590  34.899   1.383
20383W        W86792   0.358  16.711   2.147
20384W        W86793  25.045  28.437  11.265
20385W        W86794  26.755  23.154   4.022
20386W        W86795  33.557  29.805   9.968
20387W        W86796  33.690  21.261  11.064
20388W        W86797  28.003  24.437  11.570
20389W        W86798   8.147   5.831  10.691
20390W        W86799   3.427  22.662   1.427
20391W        W86800  15.822  43.285  14.841
20392W        W86801  12.600  33.896  12.384
20393W        W86802  14.178  28.105  14.949
20394W        W86803  15.718  19.539  10.080
20395W        W86804  30.189  19.167  11.570
20396W        W86805   3.170  22.698  14.231
20397W        W86806  30.495   6.684  12.836
20398W        W86807  26.272  11.072  12.343
20399W        W86808  27.854   2.300  11.564
20400W        W86809  42.348  10.122  14.779
20401W        W86810  28.464   1.404   2.312
20402W        W86811  21.338   6.475  14.031
20403W        W86812  21.740  23.615  14.244
20404W        W86813  41.729  41.918   3.261
20405W        W86814  33.918  32.658  10.389
20406W        W86815  15.991  12.950  11.485
20407W        W86816  40.810  19.093  12.432
20408W        W86817  33.400  18.692  10.266
20409W        W86818  23.589   2.656  14.370
20410W        W86819  32.854  39.144  14.976
20411W        W86820  18.751  38.872  11.906
20412W        W86821  25.567  11.128   2.334
20413W        W86822  13.680   8.568  11.697
20414W        W86823  27.156  37.975   2.921
20415W        W86824  14.259   8.361   2.484
20416W        W86825  23.112   0.869  11.923
20417W        W86826  16.189   5.324   0.461
20418W        W86827   8.393  26.438   2.826
20419W        W86828   6.887  22.487   3.837
20420W        W86829  41.896  25.778   3.684
20421W        W86830  38.128  17.685  12.628
20422W        W86831   3.890   3.800   0.775
20423W        W86832   3.547  40.463   0.277
20424W        W86833  40.331  35.485  11.078
20425W        W86834  36.301   7.440   0.713
20426W        W86835  23.556   0.804  13.000
20427W        W86836  39.460  14.043  14.524
20428W        W86837  28.653   3.254   0.833
20429W        W86838  17.645  14.342   2.851
20430W        W86839  23.435  31.343   4.629
20431W        W86840  38.501   3.341  13.347
20432W        W86841  33.012  28.946   2.732
20433W        W86842  14.729  44.720   3.838
20434W        W86843  19.083  15.507   3.734
20435W        W86844  16.359  34.439  12.120
20436W        W86845   6.613  35.994   1.790
20437W        W86846   4.807  41.304  13.925
20438W        W86847  40.521   8.112   3.983
20439W        W86848  29.925  28.136   3.301
20440W        W86849  40.874  17.344   0.700
20441W        W86850  13.518  23.292  11.113
20442W        W86851   3.996  15.993  11.291
20443W        W86852   4.732  33.607   0.083
20444W        W86853   0.289  13.264   0.317
20445W        W86854  42.356  36.528  14.399
20446W        W86855  12.571  19.716  10.755
20447W        W86856  26.623  38.900  13.392
20448W        W86857  32.812  12.170   2.813
20449W        W86858  29.913  22.126  10.663
20450W        W86859  33.511  30.652  11.650
20451W        W86860  41.873  44.382  14.340
20452W        W86861  31.292  12.891  14.333
20453W        W86862  21.536  39.175  13.489
20454W        W86863  31.639  44.831   4.136
20455W        W86864  24.473  22.415  14.780
20456W        W86865  38.011  17.847   0.706
20457W        W86866  24.705  25.695   3.643
20458W        W86867  28.767  43.329   4.156
20459W        W86868  36.800  21.788   1.063
20460W        W86869   8.776  41.545  13.773
20461W        W86870   5.840  21.345   2.874
20462W        W86871  27.633  36.806   3.226
20463W        W86872  21.754  17.154   1.743
20464W        W86873  32.466   1.800   9.867
20465W        W86874  21.235   1.238   0.401
20466W        W86875  16.780  37.989   3.472
20467W        W86876  41.442   2.239  11.130
20468W        W86877  32.524  12.186   1.980
20469W        W86878  13.225  26.561   2.850
20470W        W86879   1.667  11.898   3.730
20471W        W86880  41.406   8.416   1.768
20472W        W86881  25.637  42.239  12.116
20473W        W86882  32.140  39.425   3.144
20474W        W86883  21.520  36.914  12.608
20475W        W86884  15.496   0.503   1.927
20476W        W86885  42.778  12.223  11.729
20477W        W86886  30.188   8.728  12.087
20478W        W86887  36.999  22.519   0.040
20479W        W86888  38.001  24.657  12.818
20480W        W86889   0.894  24.491   4.770
20481W        W86890   6.918   9.916  12.235
20482W        W86891  42.715  41.032   0.389
20483W        W86892   0.882  15.651  12.394
20484W        W86893   3.221  26.928  14.827
20485W        W86894  10.892   0.859  14.311
20486W        W86895  26.173  36.896  11.180
20487W        W86896  20.795  39.420  14.723
20488W        W86897  25.275  35.253  12.380
20489W        W86898  29.702  19.705   4.948
20490W        W86899   6.772   2.816  12.201
20491W        W86900   4.426  28.219  13.623
20492W        W86901  27.159   9.781   2.450
20493W        W86902  33.628   8.459  12.595
20494W        W86903  41.094   3.167   4.232
20495W        W86904  32.201   6.771   9.872
20496W        W86905  12.457  20.534   1.755
20497W        W86906  30.055   6.810  14.505
20498W        W86907  25.247  10.598   2.813
20499W        W86908  37.846  10.637  12.011
20500W        W86909  18.310  13.372   1.661
20501W        W86910  43.218   3.490  14.028
20502W        W86911  15.826   3.368   4.003
20503W        W86912  38.497   0.545  11.056
20504W        W86913   7.449  31.503   3.132
20505W        W86914  40.049   5.653  13.875
20506W        W86915  19.676  17.614   0.107
20507W        W86916  10.909  24.135  11.829
20508W        W86917  15.846  16.614  12.340
20509W        W86918   3.165  19.367  12.760
20510W        W86919  19.618  28.949   4.058
20511W        W86920  21.430  23.429   3.678
20512W        W86921  30.296  15.105   4.358
20513W        W86922  30.877   5.122   1.009
20514W        W86923  19.717   6.345   1.726
20515W        W86924   0.253  11.442   2.615
20516W        W86925  35.916  25.060   2.882
20517W        W86926  42.100  32.322   0.845
20518W        W86927  27.977  25.456  12.483
20519W        W86928  13.434  13.020  13.343
20520W        W86929  36.992   5.209  14.130
20521W        W86930   3.746   2.284   3.687
20522W        W86931  25.742  34.302   2.642
20523W        W86932  21.182  14.683  12.044
20524W        W86933  36.597  13.112   1.448
20525W        W86934  41.683   9.187  11.594
20526W        W86935  37.148  34.277  12.980
20527W        W86936  31.014   0.747  14.005
20528W        W86937  36.792   6.699  12.069
20529W        W86938  42.386  40.353  10.385
20530W        W86939  13.808  44.370   2.210
20531W        W86940  16.757  43.413   1.785
20532W        W86941  39.809   1.242  14.451
20533W        W86942  37.275  19.490  14.518
20534W        W86943   2.247  40.538  14.852
20535W        W86944  23.918  12.068  12.911
20536W        W86945  37.887   5.557   0.976
20537W        W86946   0.431  43.472   3.527
20538W        W86947   9.005   2.001  11.590
20539W        W86948  18.286  19.282  13.743
20540W        W86949  30.697   2.446   2.810
20541W        W86950  42.627  21.856   2.214
20542W        W86951   7.570  37.982   4.520
20543W        W86952   7.786  17.040   3.519
20544W        W86953  10.891  17.862   2.766
20545W        W86954  18.309  17.301  12.211
20546W        W86955  44.252  19.344   9.805
20547W        W86956  12.392  19.199  14.875
20548W        W86957   0.332  34.705   2.259
20549W        W86958  23.511  21.505   4.493
20550W        W86959  20.054  41.619   0.309
20551W        W86960  31.252   5.739   2.931
20552W        W86961   5.155  17.952   2.344
20553W        W86962  23.194  34.081   3.244
20554W        W86963  25.497  25.188   4.364
20555W        W86964  33.050   0.724   0.476
20556W        W86965  27.536   8.250   0.338
20557W        W86966  41.581  18.135  13.442
20558W        W86967  31.178  15.697   4.852
20559W        W86968  21.463  40.415  12.072
20560W        W86969  33.377  29.000  11.645
20561W        W86970  34.975  22.471   2.221
20562W        W86971  17.163   9.680  12.105
20563W        W86972  38.516  36.993   2.258
20564W        W86973  16.197  13.210  12.062
20565W        W86974  14.819   4.339   2.339
20566W        W86975  15.548  17.267   2.166
20567W        W86976   0.801  25.479  11.276
20568W        W86977  16.457  10.383   4.852
20569W        W86978  20.309  11.825  13.350
20570W        W86979   6.403  28.223  12.124
20571W        W86980  43.708   9.037  12.915
20572W        W86981  24.659   1.722   0.245
20573W        W86982  40.469   5.232   1.460
20574W        W86983  16.766  25.693   0.376
20575W        W86984  41.503  18.267   1.781
20576W        W86985  26.536   1.024  10.489
20577W        W86986  14.351  23.453   3.423
20578W        W86987  26.546  41.744   4.825
20579W        W86988  15.363  36.150  14.433
20580W        W86989  25.968   1.938   1.689
20581W        W86990  41.528  31.625  14.255
20582W        W86991  21.099   6.393   0.441
20583W        W86992  17.080  12.703  10.717
20584W        W86993  33.288  12.161   2.141
20585W        W86994  42.968   5.048   1.917
20586W        W86995  43.588   6.657   5.351
20587W        W86996   6.457  42.496   0.727
20588W        W86997  35.935   1.599   3.885
20589W        W86998   4.643   5.228   4.588
20590W        W86999   7.392  18.713  12.927
20591W        W87000  16.098  29.313  12.914
20592W        W87001   1.526  19.943   1.842
20593W        W87002  15.735   0.158  10.968
20594W        W87003   2.733  23.313  11.884
20595W        W87004  41.269  40.459  14.469
20596W        W87005   3.230  25.749   0.320
20597W        W87006  22.192  24.982   1.749
20598W        W87007  32.525  27.211  14.841
20599W        W87008  16.764  17.728   2.330
20600W        W87009   2.666  10.827   4.527
20601W        W87010   5.285  29.280  14.508
20602W        W87011  29.161  21.638  10.850
20603W        W87012  35.727   2.833   4.303
20604W        W87013  16.847  35.981  13.937
20605W        W87014   4.780  15.318  13.849
20606W        W87015  30.537  21.513  11.180
20607W        W87016  21.112  44.481   0.764
20608W        W87017  12.506  28.431  11.626
20609W        W87018  25.118  38.695   0.509
20610W        W87019  25.498  21.183   3.618
20611W        W87020  39.103  27.157   1.655
20612W        W87021  25.874  27.487   1.302
20613W        W87022   2.492  37.472  13.153
20614W        W87023  26.095  30.560  14.496
20615W        W87024  39.946  28.629  11.009
20616W        W87025   7.344  38.803  14.781
20617W        W87026  27.777  32.582   4.563
20618W        W87027  22.773  39.184   0.456
20619W        W87028  16.294   9.834   2.721
20620W        W87029  43.985  22.031   2.328
20621W        W87030  24.708  27.256  13.094
20622W        W87031  21.081  32.874   3.588
20623W        W87032  38.865   4.459   2.246
20624W        W87033  15.303  20.561  13.516
20625W        W87034  41.409  19.385   3.773
20626W        W87035  23.540  39.050   1.826
20627W        W87036   4.864  22.081  12.827
20628W        W87037  29.540   2.736   5.206
20629W        W87038  26.117  12.060  12.114
20630W        W87039  26.188  40.434   2.642
20631W        W87040   8.158  18.688   2.717
20632W        W87041  17.166   2.088  14.827
20633W        W87042  30.666  37.586  14.918
20634W        W87043  17.351  20.783   1.402
20635W        W87044   3.946  22.194   2.232
20636W        W87045  11.755  12.068   4.552
20637W        W87046   7.212   5.555  12.943
20638W        W87047  27.133  26.229   3.442
20639W        W87048  31.583   5.161   1.570
20640W        W87049  32.314  23.135   0.002
20641W        W87050  41.045   9.734   1.262
20642W        W87051  18.664  14.883  11.102
20643W        W87052  40.056  13.798   3.743
20644W        W87053  38.031  35.437  10.706
20645W        W87054  21.740  44.185   2.797
20646W        W87055  35.332  38.328   2.342
20647W        W87056   6.811  18.121  12.392
20648W        W87057   9.908   6.781  10.960
20649W        W87058  11.749  10.904   0.467
20650W        W87059   5.851  20.071  12.880
20651W        W87060   6.186  38.871  10.834
20652W        W87061  42.848  30.998  11.228
20653W        W87062   7.157  34.488   1.279
20654W        W87063  17.037  44.580  10.608
20655W        W87064  27.675  20.676  10.536
20656W        W87065  30.640   3.750  11.583
20657W        W87066  20.555  11.262   1.611
20658W        W87067   7.272  35.994  14.572
20659W        W87068  14.139   2.718  12.497
20660W        W87069   0.597   2.761   3.345
20661W        W87070  16.986  11.803   0.540
20662W        W87071  16.355  16.693  12.448
20663W        W87072   8.097  31.965   4.429
20664W        W87073  12.070  11.773   0.982
20665W        W87074  43.804  14.801   0.804
20666W        W87075  17.795  43.532  10.959
20667W        W87076  43.162   0.314   4.372
20668W        W87077  22.934  38.809   2.751
20669W        W87078   0.200  33.036   2.726
20670W        W87079  21.765  43.835  12.815
20671W        W87080  43.450  18.049   1.221
20672W        W87081   5.293  17.299   4.630
20673W        W87082   1.750  29.962   3.753
20674W        W87083   4.733  25.891  11.282
20675W        W87084  40.209   6.402  13.807
20676W        W87085   4.562  20.555   1.511
20677W        W87086   7.330  35.333  10.909
20678W        W87087  34.351  27.521  11.934
20679W        W87088  16.038   1.856  13.407
20680W        W87089   7.628   3.349   4.154
20681W        W87090  35.478   5.481  12.579
20682W        W87091   9.196   8.751   4.185
20683W        W87092  21.272  33.097  11.253
20684W        W87093   5.258   6.143   4.219
20685W        W87094   1.898   8.493   0.707
20686W        W87095  40.306  26.369   4.213
20687W        W87096  29.204  40.006  13.688
20688W        W87097  37.979  24.765  11.914
20689W        W87098  14.201  20.496   2.480
20690W        W87099  26.088  41.706   3.115
20691W        W87100  24.740  43.812  13.100
20692W        W87101  14.579  29.161  11.196
20693W        W87102  34.147   6.339   3.847
20694W        W87103  24.311  13.153  12.019
20695W        W87104   1.398  29.683   4.687
20696W        W87105  37.427  34.361  10.836
20697W        W87106  16.018   5.683   0.790
20698W        W87107   6.014   4.994  10.763
20699W        W87108  10.811  39.841  13.474
20700W        W87109   8.397  31.565  11.042
20701W        W87110  33.007  24.692   1.941
20702W        W87111  43.546  33.615  13.050
20703W        W87112  19.568   3.174   4.127
20704W        W87113  32.913   2.254  13.422
20705W        W87114  42.625   1.913  11.605
20706W        W87115  26.729   5.321  11.027
20707W        W87116   8.832  24.417  12.207
20708W        W87117   1.938  30.480   4.703
20709W        W87118   6.802   8.233   0.716
20710W        W87119  19.607  26.045  14.459
20711W        W87120  34.924   7.820   4.679
20712W        W87121   0.715  27.907  11.522
20713W        W87122   8.693  19.341  11.889
20714W        W87123  16.005   2.850   3.387
20715W        W87124  23.834  44.621  11.753
20716W        W87125  41.241  22.259  12.865
20717W        W87126  11.080  18.195  11.885
20718W        W87127  18.628  25.570   2.212
20719W        W87128  20.080  17.315   4.043
20720W        W87129  34.843  34.899   3.552
20721W        W87130   2.753  36.557   4.570
20722W        W87131  24.920  30.000  14.174
20723W        W87132  44.285  39.032  11.437
20724W        W87133  35.740  43.943  12.377
20725W        W87134  35.857  43.526  12.070
20726W        W87135  41.963  18.199   3.291
20727W        W87136  13.311  26.792  13.917
20728W        W87137   9.102  21.202   0.607
20729W        W87138   4.282  17.872  14.211
20730W        W87139  13.294  14.674   4.785
20731W        W87140   1.384  42.358   1.677
20732W        W87141  31.959  36.114   3.728
20733W        W87142  39.515  28.635  10.680
20734W        W87143  10.282  25.763  11.101
20735W        W87144  34.980  23.004  13.063
20736W        W87145   0.325  39.258  10.478
20737W        W87146  38.040  42.423  13.957
20738W        W87147  17.322  27.222  13.097
20739W        W87148  16.416  17.897   2.720
20740W        W87149  28.388  36.360   1.915
20741W        W87150   5.408  17.249   3.283
20742W        W87151  24.145  26.972  12.116
20743W        W87152  20.644  27.693   4.622
20744W        W87153   0.809   9.817   1.398
20745W        W87154  35.939   8.439  14.058
20746W        W87155  28.817   4.228   4.550
20747W        W87156  10.740  26.502  13.051
20748W        W87157  34.586  25.210  11.916
20749W        W87158  43.905  32.673   3.430
20750W        W87159  40.834   5.491   1.742
20751W        W87160  13.232  24.189  11.191
20752W        W87161  41.316  36.432  11.221
20753W        W87162  43.932  25.998  13.789
20754W        W87163  17.474  32.940  14.858
20755W        W87164  41.007  35.992   1.893
20756W        W87165  23.409  33.572  13.826
20757W        W87166  36.231  42.410  13.388
20758W        W87167  18.605  12.271  12.600
20759W        W87168  25.249  21.050   4.978
20760W        W87169  21.553  39.373   1.832
20761W        W87170  33.043  20.274  12.587
20762W        W87171  36.104   5.881   4.215
20763W        W87172  42.735  27.099   3.402
20764W        W87173  19.051  41.915  14.678
20765W        W87174  30.580  37.949  12.494
20766W        W87175  13.629  11.096  14.763
20767W        W87176  38.556   4.946   4.645
20768W        W87177   0.044  15.676   0.292
20769W        W87178  38.230  23.906   1.097
20770W        W87179  39.888  18.209  10.960
20771W        W87180  44.928  26.530  14.964
20772W        W87181  34.363  37.849  14.442
20773W        W87182  43.967  39.913   3.407
20774W        W87183  41.260  37.592  14.492
20775W        W87184  13.439  22.075  11.732
20776W        W87185  21.941   3.206   4.313
20777W        W87186  13.558  16.580   1.046
20778W        W87187  12.446  44.405  12.328
20779W        W87188  31.758  34.977  12.549
20780W        W87189  36.801  18.258   1.884
20781W        W87190   8.088  41.761   3.161
20782W        W87191  12.750   8.931  13.953
20783W        W87192  39.620  16.757   1.320
20784W        W87193   6.637   0.921  12.070
20785W        W87194   9.308  27.800  11.150
20786W        W87195  43.844  43.332  11.059
20787W        W87196  41.813   4.722  12.048
20788W        W87197  17.399   0.565  13.308
20789W        W87198  25.935  27.687   2.658
20790W        W87199  42.471  10.892   0.260
20791W        W87200   2.778  12.818  14.550
20792W        W87201  41.205  30.588   2.323
20793W        W87202   6.449  31.636   3.285
20794W        W87203  32.473  21.862   2.283
20795W        W87204  16.645  25.454   4.576
20796W        W87205  26.595  44.468   0.436
20797W        W87206  35.288  13.721  14.862
20798W        W87207  10.606  20.662   4.886
20799W        W87208  39.295  21.315  11.292
20800W        W87209  12.655   3.785   3.635
20801W        W87210  38.943  40.050  13.138
20802W        W87211  14.260  27.197   2.191
20803W        W87212   2.974  18.965   4.175
20804W        W87213  37.776  23.304   3.842
20805W        W87214  35.599  16.147   0.328
20806W        W87215  28.187  28.976   1.174
20807W        W87216  25.341  24.049  11.187
20808W        W87217  25.924   8.833  13.953
20809W        W87218  41.336   9.670  13.923
20810W        W87219  28.503  31.092   2.607
20811W        W87220  32.392  16.686  10.627
20812W        W87221   5.942  33.407  10.633
20813W        W87222   4.525  38.438  10.738
20814W        W87223  37.030   9.776  10.469
20815W        W87224  31.630   5.980  12.746
20816W        W87225  38.393  42.814   4.778
20817W        W87226   5.363  20.723   3.256
20818W        W87227  27.912  12.405  12.300
20819W        W87228  10.944  41.417  13.875
20820W        W87229  41.183  18.666   5.147
20821W        W87230  43.422  37.923  10.665
20822W        W87231   4.427  38.869  11.406
20823W        W87232  39.274   3.409  10.836
20824W        W87233  22.068  38.912  14.711
20825W        W87234  34.953  27.446   1.739
20826W        W87235   4.406  16.836  14.911
20827W        W87236  16.032  35.543   3.485
20828W        W87237  12.770  15.951  11.511
20829W        W87238  18.831  17.787   3.894
20830W        W87239  10.457  11.300  12.484
20831W        W87240  44.371  17.481  12.521
20832W        W87241  36.775  40.204   4.207
20833W        W87242  17.678  24.715   0.958
20834W        W87243  33.049  32.106  10.604
20835W        W87244  23.105  26.724   3.800
20836W        W87245   3.817  43.919   4.163
20837W        W87246  35.091  13.200   0.766
20838W        W87247   8.136  36.063   0.453
20839W        W87248   2.846  29.062   4.768
20840W        W87249  32.506  11.172   4.595
20841W        W87250   3.347   0.068   3.517
20842W        W87251  39.390  22.471   3.028
20843W        W87252  29.546  15.798   3.713
20844W        W87253   2.292  22.964  12.810
20845W        W87254  23.192   4.429   3.179
20846W        W87255   5.420  12.729   0.773
20847W        W87256  35.159   1.167  11.974
20848W        W87257  28.642   5.749   2.228
20849W        W87258  41.797   3.061   0.879
20850W        W87259  29.398  25.925   3.247
20851W        W87260  12.370   7.640  14.725
20852W        W87261  36.972   5.486  12.163
20853W        W87262   2.134   2.491  12.111
20854W        W87263  18.305  29.447   1.071
20855W        W87264  41.112  21.154   4.682
20856W        W87265  23.134  44.220   3.281
20857W        W87266   5.742   1.928  14.413
20858W        W87267  16.302   2.459   3.740
20859W        W87268  18.338  13.628  12.932
20860W        W87269  15.406   2.258   0.849
20861W        W87270  33.081  28.098  12.167
20862W        W87271  27.097  20.194  10.318
20863W        W87272   1.230  14.059  12.167
20864W        W87273   2.308   6.834   3.707
20865W        W87274   7.092   4.551   2.112
20866W        W87275  44.763  20.147   0.734
20867W        W87276  36.328  12.587   2.369
20868W        W87277   0.158   9.809  10.024
20869W        W87278  24.691  33.814   2.535
20870W        W87279   8.098  23.505   3.793
20871W        W87280  27.405  29.441   3.284
20872W        W87281   3.260  24.797   4.564
20873W        W87282  20.725  29.507  11.457
20874W        W87283  21.048   6.649   3.730
20875W        W87284   6.477  25.964   2.673
20876W        W87285  35.947  21.157  12.063
20877W        W87286  35.341  15.027  14.897
20878W        W87287  37.829   9.303  12.935
20879W        W87288  37.589  38.999  12.353
20880W        W87289  36.874  17.601  10.015
20881W        W87290  13.200  13.860   2.789
20882W        W87291  36.450  13.685  12.281
20883W        W87292   4.430  10.913   0.312
20884W        W87293  34.671  33.473   3.685
20885W        W87294  34.353  18.237   4.472
20886W        W87295  29.614   1.953  13.590
20887W        W87296  14.311  17.112  14.802
20888W        W87297  24.210   6.509   1.887
20889W        W87298  17.291   3.739  14.518
20890W        W87299   7.799  26.542   1.860
20891W        W87300  19.761  21.961   0.522
20892W        W87301  26.237  23.876   1.325
20893W        W87302  29.202  18.528  12.950
20894W        W87303  38.115  20.178   3.726
20895W        W87304  27.167   8.991  11.236
20896W        W87305  24.052  36.499   3.125
20897W        W87306  10.428  16.155  10.688
20898W        W87307   2.378  11.292  13.583
20899W        W87308  25.545  43.197   0.827
20900W        W87309  37.124  33.779   2.353
20901W        W87310   8.689   6.207  14.602
20902W        W87311   4.416  41.921  14.458
20903W        W87312  38.269  22.353   1.946
20904W        W87313  14.134  22.547  11.085
20905W        W87314  23.647  31.806   4.519
20906W        W87315  13.526  12.787  10.069
20907W        W87316   5.193  12.308  12.949
20908W        W87317  21.442   1.396   0.927
20909W        W87318  11.872  32.828  13.997
20910W        W87319  24.124   6.227  11.226
20911W        W87320  35.202  44.971   2.317
20912W        W87321  29.709  38.925   4.137
20913W        W87322   5.800   7.029  12.955
20914W        W87323  25.102  40.497  14.778
20915W        W87324  17.747   5.837   0.231
20916W        W87325  10.396  28.834   2.199
20917W        W87326  17.461   9.233   0.338
20918W        W87327  28.491   4.837   1.546
20919W        W87328  19.259  40.538  14.074
20920W        W87329  39.203  15.811   1.351
20921W        W87330  21.120  32.373   1.759
20922W        W87331  18.205  17.612   2.800
20923W        W87332  15.558  17.712  12.930
20924W        W87333  39.365  21.093   3.226
20925W        W87334  40.484   3.391  10.768
20926W        W87335  22.522  22.607  12.293
20927W        W87336  41.037  33.848  13.106
20928W        W87337  33.527  16.056   4.964
20929W        W87338  28.050  40.969  12.161
20930W        W87339  15.690   6.752  11.131
20931W        W87340   6.688  40.256   2.829
20932W        W87341  40.578  31.404   4.392
20933W        W87342   8.246  10.457  10.447
20934W        W87343   8.798  19.868   3.340
20935W        W87344  34.561  34.795   1.729
20936W        W87345  24.610   3.914   4.491
20937W        W87346   4.238  12.296  12.011
20938W        W87347   0.678  40.742  14.279
20939W        W87348  43.013  12.206  10.785
20940W        W87349  32.216  17.820   5.073
20941W        W87350  16.599  29.842   2.826
20942W        W87351  17.371  36.431  11.906
20943W        W87352  20.248  40.782  14.901
20944W        W87353  42.294  22.118   3.733
20945W        W87354  36.388   0.790  14.770
20946W        W87355  12.239  11.172   2.167
20947W        W87356  28.759  23.894   4.516
20948W        W87357  43.819  18.731   1.724
20949W        W87358  18.212  35.518  14.953
20950W        W87359  18.759  21.695   3.533
20951W        W87360  44.025  11.877   5.056
20952W        W87361  34.505   0.486  11.561
20953W        W87362  23.701  10.870  11.211
20954W        W87363  37.908  27.674  12.936
20955W        W87364  21.168  34.620   0.428
20956W        W87365  31.133  32.052  13.566
20957W        W87366  21.324   2.416   1.697
20958W        W87367  43.493  39.784   4.635
20959W        W87368   6.633   5.795  12.028
20960W        W87369  15.728   2.063  14.221
20961W        W87370  19.164  39.837   2.449
20962W        W87371  10.792  40.577  10.844
20963W        W87372  25.518  40.154  14.615
20964W        W87373   8.948  34.377  12.096
20965W        W87374  40.879   1.234  13.527
20966W        W87375  32.424  10.798  13.829
20967W        W87376   1.465  36.134   0.348
20968W        W87377   1.710  40.558  11.588
20969W        W87378  38.103   1.001  10.282
20970W        W87379   8.918  11.155   3.258
20971W        W87380  44.683   7.746   0.808
20972W        W87381  33.199  36.797  14.782
20973W        W87382  26.278  26.152   1.811
20974W        W87383   3.910  36.063   3.302
20975W        W87384  18.279  37.080   4.930
20976W        W87385  17.173  25.551   1.985
20977W        W87386   3.379   9.357   4.043
20978W        W87387  23.463   4.834  11.427
20979W        W87388   0.348  22.188   3.626
20980W        W87389  12.836  37.689   5.356
20981W        W87390  34.382  14.088  12.950
20982W        W87391  30.052  24.480   4.816
20983W        W87392   1.942   6.290   4.658
20984W        W87393  23.265  38.996   4.369
20985W        W87394  32.994  13.102   1.924
20986W        W87395  44.914  15.832  13.443
20987W        W87396  23.253  28.081  14.849
20988W        W87397  42.321   2.416  13.833
20989W        W87398  41.847   2.922   3.940
20990W        W87399   6.412  43.228  12.056
20991W        W87400  33.506  40.011   2.273
20992W        W87401  31.131  13.261   2.362
20993W        W87402  16.050  18.612   1.248
20994W        W87403  43.542  38.517   0.810
20995W        W87404  38.635  31.609  12.421
20996W        W87405  36.338  36.036  14.952
20997W        W87406  44.178  36.364  10.035
20998W        W87407  42.846  18.638   4.942
20999W        W87408  33.462  36.640   0.299
21000W        W87409   6.252   6.499   0.555
21001W        W87410  15.280   7.775   3.109
21002W        W87411  30.020  28.073   4.841
21003W        W87412   2.983  18.568   1.800
21004W        W87413  21.768  14.701   3.718
21005W        W87414  17.324   1.803   0.250
21006W        W87415   5.913  42.729   2.241
21007W        W87416  23.036  32.109   0.333
21008W        W87417   8.500   0.047   5.051
21009W        W87418  22.257  37.525   3.808
21010W        W87419  17.215  42.919   3.736
21011W        W87420  27.541  31.363  13.433
21012W        W87421   2.990  24.239   3.791
21013W        W87422  37.811   4.905   1.108
21014W        W87423  34.073   8.344   1.423
21015W        W87424  15.919   8.254   1.635
21016W        W87425  11.201  31.633   0.249
21017W        W87426  17.104  37.393  13.473
21018W        W87427   0.378  20.744  14.696
21019W        W87428  19.988  25.774   4.155
21020W        W87429  33.603  31.078  12.555
21021W        W87430   7.941  28.345   2.676
21022W        W87431  32.271  28.326  14.869
21023W        W87432  33.772  15.553   4.342
21024W        W87433  28.024   8.711   3.365
21025W        W87434   1.710  33.506   1.857
21026W        W87435  14.139  29.374   4.456
21027W        W87436  17.977  38.016  11.096
21028W        W87437   2.168  35.705   4.195
21029W        W87438  12.068  21.287   3.884
21030W        W87439  39.576  11.915   3.287
21031W        W87440  36.155   6.203   4.897
21032W        W87441   8.229  16.609  12.131
21033W        W87442  17.982  43.848   4.588
21034W        W87443  39.960  42.867   4.846
21035W        W87444  39.000  43.995   1.498
21036W        W87445  41.106   7.281  11.546
21037W        W87446  44.256  40.036  14.966
21038W        W87447   8.355  19.061   1.447
21039W        W87448  33.856  12.938   2.706
21040W        W87449  38.979  41.240   3.130
21041W        W87450   3.253  42.313  10.992
21042W        W87451  15.968   7.496   4.099
21043W        W87452   9.231  24.610   2.672
21044W        W87453  34.644  31.127   1.386
21045W        W87454  41.535  18.711  11.691
21046W        W87455  27.453  34.091   2.902
21047W        W87456  15.694  42.116   2.738
21048W        W87457  12.688  39.002  14.272
21049W        W87458  42.070  36.993  14.322
21050W        W87459  31.957  35.451  12.459
21051W        W87460  11.269  27.101  13.521
21052W        W87461  22.067  44.014   1.268
21053W        W87462  16.951  11.383   0.273
21054W        W87463  33.640  24.514  12.385
21055W        W87464   9.778  30.985   0.434
21056W        W87465  36.555  33.147   1.928
21057W        W87466  12.358  22.922   3.118
21058W        W87467  43.497  37.620  13.293
21059W        W87468  17.309  20.430   2.290
21060W        W87469  39.306  16.744  11.777
21061W        W87470  16.252  18.558  13.475
21062W        W87471   6.814  14.575  12.397
21063W        W87472   1.417  10.744   4.224
21064W        W87473  18.185  21.484  12.996
21065W        W87474  32.123  19.645  12.259
21066W        W87475  34.059  39.513  14.980
21067W        W87476  36.562  23.272  13.900
21068W        W87477  19.110  36.496   2.297
21069W        W87478   9.921  34.467   3.769
21070W        W87479  33.616  28.117   2.211
21071W        W87480  12.744  19.510   4.997
21072W        W87481   0.963   1.867  12.116
21073W        W87482  19.594  28.268   1.846
21074W        W87483  19.810  25.471   3.696
21075W        W87484  34.915   6.281   4.564
21076W        W87485  25.897  24.708   0.406
21077W        W87486  21.083  44.327   5.023
21078W        W87487   8.554  20.505   3.676
21079W        W87488  43.929  22.992  11.712
21080W        W87489  39.605  44.968   3.322
21081W        W87490  40.905  17.760  13.385
21082W        W87491  19.294  20.634  11.520
21083W        W87492  10.735  21.216   4.970
21084W        W87493   2.476   0.996   4.560
21085W        W87494  17.281  15.655  14.705
21086W        W87495  37.436  22.996  10.984
21087W        W87496  34.218  29.124   4.755
21088W        W87497  38.912  22.911  13.964
21089W        W87498   6.618  29.028   3.908
21090W        W87499   8.718   8.210   0.917
21091W        W87500  10.258  36.894   9.820
21092W        W87501  36.589  35.532  13.455
21093W        W87502  34.672  37.987  14.821
21094W        W87503  10.141  42.624  13.515
21095W        W87504  39.015  25.571  14.355
21096W        W87505  12.659  39.881   0.802
21097W        W87506   2.649  39.894   1.382
21098W        W87507  36.810   4.890   2.679
21099W        W87508  36.336  14.329   3.295
21100W        W87509  25.789  22.489  11.642
21101W        W87510  16.306  34.610  13.134
21102W        W87511  31.315  29.964  13.040
21103W        W87512  30.983  28.789  14.554
21104W        W87513  39.623  44.733  11.951
21105W        W87514   8.556  18.083   1.712
21106W        W87515  27.938  26.072  14.459
21107W        W87516  16.352   8.467  11.084
21108W        W87517  11.059  37.928   1.756
21109W        W87518  24.175  15.256   3.827
21110W        W87519   1.235   1.831  13.034
21111W        W87520  36.324   1.669   4.520
21112W        W87521  38.863  10.830  13.776
21113W        W87522  43.751  42.315   4.072
21114W        W87523  14.980  17.736   3.218
21115W        W87524  21.173   7.708  13.509
21116W        W87525  16.377  15.881  12.042
21117W        W87526  30.107  11.909  10.655
21118W        W87527  13.889   9.222   2.335
21119W        W87528  22.858  11.071   2.280
21120W        W87529   9.033  31.298  12.154
21121W        W87530  23.848  20.464  11.333
21122W        W87531   4.733  44.807   2.768
21123W        W87532  20.100  36.404   2.069
21124W        W87533  18.063  23.698  12.122
21125W        W87534  37.708  10.226   3.269
21126W        W87535   4.842  37.904   3.817
21127W        W87536   2.921   5.761   4.238
21128W        W87537  31.052  25.436   3.529
21129W        W87538  21.294  31.786  11.628
21130W        W87539  29.032  17.329   0.217
21131W        W87540   7.776  38.062   4.034
21132W        W87541  24.224   2.918  12.423
21133W        W87542  31.500  21.749   3.677
21134W        W87543  27.033  39.264   0.730
21135W        W87544  28.470  23.777   2.250
21136W        W87545  25.697  11.726  11.975
21137W        W87546  19.780   7.900   4.937
21138W        W87547  44.373  11.350   2.690
21139W        W87548  13.169  41.392  14.642
21140W        W87549  25.200  15.322  13.955
21141W        W87550  22.919   2.751   2.340
21142W        W87551  30.484  24.212   1.887
21143W        W87552  41.048  23.030   4.370
21144W        W87553   7.436   3.468  11.916
21145W        W87554  37.316  24.449   0.856
21146W        W87555   0.479  16.835  12.573
21147W        W87556  30.057  24.647  14.883
21148W        W87557  32.456  18.950  14.095
21149W        W87558  16.359  12.269  12.403
21150W        W87559  43.279  40.578  12.496
21151W        W87560  40.231  26.466   1.685
21152W        W87561   5.446  31.707  14.981
21153W        W87562  30.181   9.412  10.309
21154W        W87563  16.244  37.773  12.105
21155W        W87564  41.481  21.283  13.447
21156W        W87565   8.082   5.220   0.545
21157W        W87566  38.735   8.843  13.776
21158W        W87567  39.461  12.411  13.513
21159W        W87568  38.935  37.042  14.582
21160W        W87569  37.470   7.547  12.961
21161W        W87570  31.504  19.747  14.068
21162W        W87571  38.270  11.919  13.418
21163W        W87572  10.100  32.724   2.908
21164W        W87573  15.637  21.735   1.315
21165W        W87574  30.078  33.999   4.434
21166W        W87575  10.422  30.952   3.147
21167W        W87576   9.370  11.716   2.027
21168W        W87577  12.139  25.160   4.535
21169W        W87578  16.613  23.623  13.054
21170W        W87579  27.721  40.465   2.273
21171W        W87580  42.865  32.891  12.425
21172W        W87581  34.976  20.689   1.880
21173W        W87582  18.230   4.390   2.306
21174W        W87583  10.203   0.890   0.905
21175W        W87584   6.191  41.296   3.586
21176W        W87585  10.800   7.787  11.249
21177W        W87586  44.621  20.547   3.615
21178W        W87587  35.739   1.679   9.776
21179W        W87588   8.832  38.033   4.977
21180W        W87589  13.188  42.972  11.930
21181W        W87590   9.398  14.028  14.802
21182W        W87591  15.019  12.824  12.009
21183W        W87592  10.401  13.790  12.443
21184W        W87593   5.253  34.653  11.228
21185W        W87594  35.443  19.124   4.489
21186W        W87595  38.117  30.542   0.380
21187W        W87596  29.846  34.428   2.707
21188W        W87597   3.679  21.665   0.421
21189W        W87598  22.932   5.320   1.151
21190W        W87599  29.153  17.779  12.389
21191W        W87600  16.156  35.505  12.626
21192W        W87601  14.764   7.773  10.732
21193W        W87602  44.307  41.103   2.826
21194W        W87603  39.359  27.687  14.976
21195W        W87604  15.576   6.244   1.650
21196W        W87605  35.712  38.077  12.375
21197W        W87606  20.639  31.499   3.073
21198W        W87607  31.265  40.117   3.915
21199W        W87608   0.127   5.323  14.443
21200W        W87609  42.885  10.245   0.924
21201W        W87610  14.119  44.186  11.693
21202W        W87611   9.624   9.595   0.271
21203W        W87612  31.512  26.767  14.519
21204W        W87613  25.628  30.168  13.355
21205W        W87614  37.560  29.446   4.764
21206W        W87615  13.213  27.748   3.377
21207W        W87616  30.885  41.937   1.936
21208W        W87617  38.250   9.349   3.054
21209W        W87618  23.366  12.303   4.688
21210W        W87619  18.180  38.043  12.114
21211W        W87620   5.406  41.305   4.186
21212W        W87621   6.315  21.088   4.124
21213W        W87622   4.777  20.471   5.007
21214W        W87623   5.731  32.300   3.394
21215W        W87624  43.191  23.017   3.045
21216W        W87625  27.166  30.892   1.947
21217W        W87626  28.507  22.160   2.648
21218W        W87627  16.789  25.981   2.676
21219W        W87628  18.094  16.097  14.732
21220W        W87629  43.803   8.886  13.408
21221W        W87630  10.839  31.920  11.068
21222W        W87631  33.885  28.196   0.324
21223W        W87632  11.608  15.956   1.416
21224W        W87633  35.534  38.969  11.862
21225W        W87634  37.088   3.497   3.181
21226W        W87635  34.040  15.721   3.930
21227W        W87636   2.966  16.334  12.417
21228W        W87637  30.978  23.573   2.916
21229W        W87638  44.476  30.103  14.854
21230W        W87639  21.635  41.279  11.578
21231W        W87640   2.026  43.945  14.778
21232W        W87641   1.539  32.482  12.260
21233W        W87642  31.408  12.325  13.521
21234W        W87643   0.792  13.658  11.424
21235W        W87644   9.982   4.046  11.091
21236W        W87645  38.845   6.898  12.108
21237W        W87646   9.335  40.068  10.676
21238W        W87647  29.605  22.516  11.239
21239W        W87648  14.902   9.188  11.994
21240W        W87649  37.400  20.032  11.294
21241W        W87650  32.338   2.068  12.106
21242W        W87651  39.141  17.167  12.014
21243W        W87652  43.567  37.277   2.376
21244W        W87653  35.517  23.100  10.672
21245W        W87654  10.818  18.889   2.888
21246W        W87655  29.192   5.443  13.125
21247W        W87656  41.803  17.784   2.722
21248W        W87657  29.218  15.065  14.869
21249W        W87658   0.335  30.624   1.692
21250W        W87659  18.825   2.529  13.386
21251W        W87660  43.531   7.967  13.774
21252W        W87661   9.322   4.678   2.296
21253W        W87662  10.768   8.445   2.318
21254W        W87663   6.799  11.346   0.023
21255W        W87664  38.565  16.000  13.740
21256W        W87665  32.346  33.493   9.958
21257W        W87666  14.298  29.968   3.710
21258W        W87667  12.674  19.613   4.495
21259W        W87668  39.019  42.247  14.340
21260W        W87669   2.489  39.074  12.460
21261W        W87670  23.957   4.957  11.483
21262W        W87671  17.405  19.966   2.058
21263W        W87672  20.574   8.371   3.160
21264W        W87673  24.962  21.181   3.581
21265W        W87674  30.117   8.858  13.507
21266W        W87675   6.033  13.713   0.766
21267W        W87676  42.848  11.635   0.458
21268W        W87677  22.123   1.649   2.669
21269W        W87678  38.991  14.413   3.696
21270W        W87679   9.909  43.046  13.782
21271W        W87680   5.269   4.761  10.230
21272W        W87681   3.410   2.231   5.239
21273W        W87682  13.572  18.093  13.601
21274W        W87683  25.202   8.954   2.903
21275W        W87684  22.095  25.841   4.109
21276W        W87685  21.515  11.347  14.414
21277W        W87686   6.252  28.609   2.255
21278W        W87687  20.803  25.921   1.777
21279W        W87688  14.231  13.442   3.277
21280W        W87689  12.013  20.713   0.513
21281W        W87690   7.165  12.363  11.533
21282W        W87691   6.241  24.028   2.868
21283W        W87692  14.737  19.231  12.472
21284W        W87693  22.316   9.493   4.354
21285W        W87694  37.632   7.840  12.554
21286W        W87695  15.514  27.854  11.093
21287W        W87696  20.050   0.016  13.071
21288W        W87697  22.144   6.165  12.265
21289W        W87698  23.537  14.483  12.057
21290W        W87699   7.186   0.919  12.815
21291W        W87700   7.936  42.774   2.803
21292W        W87701  43.508  25.357  10.585
21293W        W87702   0.047  40.060   0.703
21294W        W87703  42.747  37.493  14.489
21295W        W87704  13.923  20.020   4.128
21296W        W87705  42.284   6.519  12.188
21297W        W87706  41.328  20.517   4.200
21298W        W87707  30.627  16.334  12.801
21299W        W87708  18.515  32.124  11.256
21300W        W87709   7.913  42.870   1.104
21301W        W87710  40.417  20.947   5.381
21302W        W87711  32.877   9.544  14.237
21303W        W87712  43.794  34.761   0.028
21304W        W87713   7.436  19.319  12.374
21305W        W87714  34.643  21.280  11.947
21306W        W87715  18.646   7.357   1.189
21307W        W87716  28.154   6.430   4.594
21308W        W87717  30.088   9.353   3.870
21309W        W87718   3.453  37.861  12.441
21310W        W87719  21.646  38.046  13.327
21311W        W87720  27.227  32.137  14.286
21312W        W87721  19.259  23.016   1.760
21313W        W87722   4.076  21.539   4.257
21314W        W87723   6.966  11.863   4.293
21315W        W87724  20.966  42.781  13.963
21316W        W87725  19.586  18.314  13.283
21317W        W87726  29.315  36.998   2.821
21318W        W87727   7.485   0.407   2.419
21319W        W87728   4.893   7.165   0.453
21320W        W87729  43.390   9.836   3.110
21321W        W87730  24.120  33.740  11.349
21322W        W87731  15.220  32.911  12.138
21323W        W87732  13.215  42.467  13.577
21324W        W87733  34.403  10.717   1.609
21325W        W87734  41.458  16.328  12.952
21326W        W87735  10.058  12.453   1.720
21327W        W87736  35.140  43.904  11.624
21328W        W87737   5.714  21.707  13.509
21329W        W87738  14.055   9.244   1.852
21330W        W87739  40.518  10.639   2.177
21331W        W87740  27.611  35.975   4.168
21332W        W87741  36.413  33.013  12.085
21333W        W87742   1.298   3.421   1.699
21334W        W87743  35.108  25.435  12.948
21335W        W87744  19.303  26.741   1.726
21336W        W87745  42.352  26.318   0.302
21337W        W87746   4.530   3.958  14.321
21338W        W87747  29.682  16.326  14.903
21339W        W87748  38.659  23.162   3.758
21340W        W87749  16.561  29.392  14.376
21341W        W87750  22.489  16.806  11.944
21342W        W87751  10.248  40.955   1.147
21343W        W87752   1.690   6.997  14.490
21344W        W87753  37.241  26.043  14.324
21345W        W87754  31.314  27.371  13.081
21346W        W87755  29.944   9.362   1.668
21347W        W87756  32.581   8.146  10.499
21348W        W87757  38.077  25.878   1.596
21349W        W87758  25.727  39.898   3.721
21350W        W87759  12.902  34.354   4.721
21351W        W87760  33.477  35.484  12.859
21352W        W87761  40.299  40.021   0.460
21353W        W87762  31.488  17.774   1.012
21354W        W87763  17.329  17.062  13.000
21355W        W87764  22.758  35.117   3.596
21356W        W87765  37.883  25.057  14.114
21357W        W87766  29.028  29.355  14.533
21358W        W87767  36.907  19.507  12.091
21359W        W87768   7.187  18.317  11.046
21360W        W87769  18.754  39.311   2.856
21361W        W87770  25.144  30.872  13.664
21362W        W87771  38.781  27.549  11.060
21363W        W87772  28.399  44.487  12.816
21364W        W87773  35.682  37.811   0.692
21365W        W87774  22.793  31.042  13.785
21366W        W87775  12.408   6.350  14.862
21367W        W87776  13.210  28.462  14.497
21368W        W87777  41.905  35.583  10.525
21369W        W87778   9.634   4.398  11.173
21370W        W87779  19.008  18.851  12.094
21371W        W87780  35.843   8.812   3.193
21372W        W87781   2.764  36.395  14.363
21373W        W87782  22.275  23.043   4.309
21374W        W87783  41.491  17.768   4.459
21375W        W87784  41.951  10.082   3.108
21376W        W87785   5.745  30.872   3.399
21377W        W87786  44.266  23.576   1.402
21378W        W87787  30.960  30.836   3.988
21379W        W87788   0.684  21.001  12.029
21380W        W87789  33.667  38.612   0.375
21381W        W87790  12.514  36.851  10.695
21382W        W87791  17.593  11.361   3.865
21383W        W87792  12.661  26.995   4.376
21384W        W87793  27.144  10.691  12.963
21385W        W87794  34.324  36.133   1.983
21386W        W87795  12.468  42.375   2.637
21387W        W87796  15.270   6.976   3.614
21388W        W87797  25.205  19.403  10.200
21389W        W87798  17.262   5.872   3.724
21390W        W87799  36.129  15.060  12.958
21391W        W87800  28.870  22.382   4.817
21392W        W87801   2.329  32.384   0.768
21393W        W87802  38.922  37.038   0.082
21394W        W87803  37.703  26.424   0.973
21395W        W87804  43.230  33.219  13.041
21396W        W87805  23.240   4.659   0.102
21397W        W87806  31.603  28.608  10.710
21398W        W87807  11.572  28.054   3.847
21399W        W87808  39.978  37.086   4.650
21400W        W87809   4.933   9.513  13.904
21401W        W87810   0.996  35.959   1.325
21402W        W87811  32.461  31.147  14.356
21403W        W87812  34.558  24.080   4.157
21404W        W87813  18.292  38.316  10.238
21405W        W87814   1.773  12.891  14.929
21406W        W87815   3.839  30.580  13.866
21407W        W87816   1.905  43.409   4.551
21408W        W87817  31.069  39.937  14.025
21409W        W87818  40.904  40.713   0.709
21410W        W87819  36.072   9.752  14.354
21411W        W87820  12.016  10.454  13.447
21412W        W87821  38.867   8.330  13.751
21413W        W87822  43.449  28.959  10.492
21414W        W87823   1.238  27.074  14.192
21415W        W87824  10.754  26.038   0.817
21416W        W87825  10.578  26.071   4.578
21417W        W87826  25.588  41.666   4.556
21418W        W87827  23.391  16.130   2.051
21419W        W87828  32.155  43.613   0.441
21420W        W87829   1.349  15.224  11.589
21421W        W87830  35.754  26.651  12.474
21422W        W87831  39.913  11.660  13.267
21423W        W87832  21.356  44.211  13.579
21424W        W87833  27.402   0.548  12.990
21425W        W87834  34.109  10.162   1.751
21426W        W87835  23.999  20.472  11.870
21427W        W87836  27.727  42.653   2.912
21428W        W87837  21.635  21.724  12.950
21429W        W87838  34.394  41.229   2.464
21430W        W87839  42.508  25.739  13.004
21431W        W87840  37.343  25.686  13.419
21432W        W87841  17.128  23.999   0.206
21433W        W87842  43.553  21.637  13.864
21434W        W87843  15.008  30.758  12.381
21435W        W87844  21.073  13.756  11.741
21436W        W87845  19.466  37.523  11.906
21437W        W87846  41.009  11.837  14.250
21438W        W87847  42.846  25.101  13.883
21439W        W87848  41.313  39.600  12.427
21440W        W87849   5.352   3.700  14.593
21441W        W87850  11.588  10.877   0.958
21442W        W87851  16.015  27.580   2.468
21443W        W87852   3.708  19.731  10.688
21444W        W87853  12.150  24.443  11.727
21445W        W87854  29.970  15.819   2.013
21446W        W87855   2.192  37.492   4.240
21447W        W87856  36.135   7.144  12.857
21448W        W87857  12.246   8.810   2.712
21449W        W87858   4.446  33.005  14.417
21450W        W87859   3.457  34.186   0.474
21451W        W87860  21.845  17.327   0.611
21452W        W87861  12.732  21.685   0.939
21453W        W87862   5.194  36.054   1.797
21454W        W87863  24.563  13.297  12.442
21455W        W87864   0.090  24.670   4.836
21456W        W87865  19.518  22.016   2.249
21457W        W87866  32.066  31.474   0.797
21458W        W87867  13.555  33.591   0.323
21459W        W87868   3.574  17.738  10.987
21460W        W87869  15.849  13.829  10.765
21461W        W87870  12.138  35.515   0.420
21462W        W87871  39.577  36.557  14.417
21463W        W87872  38.246  26.415  12.430
21464W        W87873   0.473  35.423   3.482
21465W        W87874   0.381  13.282   3.392
21466W        W87875   5.958  34.559   3.730
21467W        W87876  21.530  35.817  14.056
21468W        W87877  11.110   4.756  11.814
21469W        W87878  37.095  26.482  14.574
21470W        W87879  18.250  20.619   1.135
21471W        W87880   4.192  27.975   1.082
21472W        W87881  25.092   2.260  11.693
21473W        W87882  44.016   1.518   3.468
21474W        W87883  26.836  37.253  11.587
21475W        W87884  36.849  35.308  13.064
21476W        W87885  44.942  31.499  13.382
21477W        W87886  20.471  16.820   2.824
21478W        W87887   6.203  21.681  11.851
21479W        W87888   2.857  25.921  14.057
21480W        W87889  27.225   7.582   5.386
21481W        W87890   6.965  10.607   1.846
21482W        W87891   3.680  42.575  11.015
21483W        W87892  16.248  13.105   3.350
21484W        W87893  38.081   2.964   2.456
21485W        W87894  31.588  44.837   1.870
21486W        W87895  16.302  29.430   3.567
21487W        W87896  29.542  30.920  12.339
21488W        W87897  16.149  32.174  13.806
21489W        W87898  25.174  37.937  14.915
21490W        W87899  11.378   8.488   3.307
21491W        W87900   7.363  10.156  12.320
21492W        W87901  16.041  23.532   5.405
21493W        W87902  10.174  12.792   3.183
21494W        W87903  40.686  44.734  14.991
21495W        W87904  19.712   4.268  12.928
21496W        W87905  36.213   7.926  14.798
21497W        W87906   0.897  31.230   1.457
21498W        W87907   4.706  16.964   0.377
21499W        W87908   9.292  25.800  10.467
21500W        W87909  29.648  25.949   2.801
21501W        W87910  26.473  14.079   1.644
21502W        W87911  19.902  33.272   4.020
21503W        W87912  23.536  27.452   0.716
21504W        W87913  31.046   4.477  10.154
21505W        W87914  30.358  41.829   1.882
21506W        W87915  28.417  42.782  14.486
21507W        W87916  38.252  30.473   0.893
21508W        W87917  35.218   7.459  10.303
21509W        W87918  33.477  13.391   2.666
21510W        W87919  37.717  32.224   5.042
21511W        W87920  27.006  37.262   0.191
21512W        W87921   9.271  20.693   0.563
21513W        W87922  11.330  23.559   4.048
21514W        W87923  10.927  35.598   3.841
21515W        W87924  18.548   6.237   0.749
21516W        W87925  10.152  42.339   0.294
21517W        W87926  20.631  10.811   0.870
21518W        W87927  23.009  24.383   0.889
21519W        W87928  29.175  32.185  11.164
21520W        W87929  41.564  19.221  11.905
21521W        W87930   9.805   8.989   4.086
21522W        W87931  34.144   4.398   1.460
21523W        W87932  37.317  39.034  11.066
21524W        W87933   1.238  20.619  10.842
21525W        W87934  33.530   7.794   4.635
21526W        W87935   5.036   4.006  14.321
21527W        W87936  35.937  43.143   3.129
21528W        W87937  10.242   0.139  11.066
21529W        W87938  10.692  29.409   1.428
21530W        W87939  29.066  18.464   2.692
21531W        W87940   9.387  37.506   4.770
21532W        W87941   7.213  30.528  14.303
21533W        W87942  14.175  14.798   0.967
21534W        W87943   8.169   8.449   3.340
21535W        W87944   2.440  43.963  13.397
21536W        W87945  18.446  37.372  13.289
21537W        W87946   5.175  23.573  12.429
21538W        W87947  28.047  24.246  13.823
21539W        W87948  31.433  41.116   0.257
21540W        W87949  34.631   1.506  14.821
21541W        W87950  36.557   8.691  14.941
21542W        W87951   5.232  17.881  14.379
21543W        W87952  39.143  25.447   0.937
21544W        W87953   5.110  14.018  14.318
21545W        W87954  40.025  18.245   0.321
21546W        W87955   1.255  34.592   1.266
21547W        W87956  44.838  42.845  13.608
21548W        W87957   2.791   6.561   2.198
21549W        W87958   2.181  44.937   0.572
21550W        W87959  26.428   4.905   1.888
21551W        W87960  21.525  16.584   2.839
21552W        W87961  23.536  27.654   2.618
21553W        W87962  18.197  16.018   0.718
21554W        W87963   7.333  40.027  12.917
21555W        W87964  33.558  24.198   0.694
21556W        W87965  20.908  28.727  11.892
21557W        W87966  44.441  19.349   3.403
21558W        W87967  34.992  33.460  13.010
21559W        W87968   4.728  16.719   2.196
21560W        W87969  34.653  34.741  14.201
21561W        W87970   3.186  28.571   4.564
21562W        W87971  33.718   4.840  10.752
21563W        W87972  32.035  36.286  10.518
21564W        W87973  11.647  28.159  14.362
21565W        W87974  22.659  18.577   4.071
21566W        W87975  35.889  30.695  14.752
21567W        W87976  16.234   7.355   3.677
21568W        W87977  38.551  36.591   2.902
21569W        W87978   4.257  25.920   2.186
21570W        W87979  31.627  25.565  13.836
21571W        W87980   4.953  19.523   0.342
21572W        W87981  33.114  41.488   3.694
21573W        W87982  27.659  23.607   3.848
21574W        W87983  32.823   3.268  12.532
21575W        W87984  19.030  40.463  12.543
21576W        W87985  44.905  38.015  12.403
21577W        W87986  15.926   7.173   1.823
21578W        W87987  42.512   6.505   1.428
21579W        W87988   4.823   3.715   0.277
21580W        W87989  18.254   1.364   0.416
21581W        W87990  35.819  21.654  14.063
21582W        W87991  33.137  41.492  13.877
21583W        W87992  14.700   3.964  11.560
21584W        W87993  37.991  40.824  11.098
21585W        W87994  38.066   7.838   3.654
21586W        W87995  16.305  24.244  13.875
21587W        W87996  25.690   6.148  10.655
21588W        W87997  15.830  37.541   0.414
21589W        W87998   6.398  18.923   2.788
21590W        W87999  27.883  14.680  13.983
21591W        W88000  32.071   0.985   1.742
21592W        W88001   5.788   6.523  13.033
21593W        W88002   9.328  34.918  11.480
21594W        W88003  35.184  44.328   2.645
21595W        W88004  19.693  29.966   3.779
21596W        W88005  31.280  38.317  14.067
21597W        W88006  41.197  29.871   4.772
21598W        W88007  37.082  18.812  14.671
21599W        W88008  34.209  44.515  14.952
21600W        W88009  32.928   6.375  12.105
21601W        W88010  33.043  18.726   4.744
21602W        W88011  28.107  23.283  11.169
21603W        W88012  23.113  28.977   4.682
21604W        W88013  17.758   8.819   0.237
21605W        W88014  35.217   9.200  13.442
21606W        W88015  14.324  32.104   0.304
21607W        W88016  20.701  42.129  14.927
21608W        W88017  42.077  36.062  13.245
21609W        W88018  42.054  31.083  12.055
21610W        W88019  27.651  11.628   1.333
21611W        W88020   1.220  36.144   0.822
21612W        W88021  20.185   6.432   2.401
21613W        W88022  44.309   7.832   4.539
21614W        W88023  31.125  22.206   3.335
21615W        W88024  36.526   5.768  12.182
21616W        W88025   6.129  40.320  11.873
21617W        W88026   1.333  35.830   2.661
21618W        W88027  17.634  33.831  12.923
21619W        W88028  24.554  25.299   2.814
21620W        W88029   8.378  37.004   2.900
21621W        W88030  26.673  29.592  11.734
21622W        W88031  30.616  25.689   3.456
21623W        W88032  10.129   5.739   2.442
21624W        W88033  28.359  43.485  12.331
21625W        W88034  43.292  32.476  14.445
21626W        W88035  27.012  38.038   3.413
21627W        W88036  11.690  31.462  11.127
21628W        W88037  22.041   3.202  11.088
21629W        W88038   2.808  37.679   0.895
21630W        W88039  32.838  29.631   1.502
21631W        W88040   3.812  13.233   0.322
21632W        W88041   8.702  42.893  10.741
21633W        W88042   6.804   1.929  12.486
21634W        W88043  41.463  13.553   0.505
21635W        W88044  35.553  32.902  12.986
21636W        W88045   7.428  27.990   0.965
21637W        W88046  17.729  34.637  12.560
21638W        W88047   5.720  13.329  13.771
21639W        W88048  28.156  37.542   4.488
21640W        W88049  23.668  40.957  11.183
21641W        W88050  30.130  27.118  12.859
21642W        W88051  12.395  24.088   2.743
21643W        W88052  42.787  13.999  11.384
21644W        W88053  34.925  25.470   0.490
21645W        W88054  16.679  22.579   1.256
21646W        W88055  29.373  24.302   2.644
21647W        W88056  27.397   8.245  12.501
21648W        W88057  12.571   3.008   1.998
21649W        W88058   4.246  24.884   4.590
21650W        W88059  39.806  33.150   2.144
21651W        W88060   5.750  40.596   1.835
21652W        W88061  34.342  35.034  13.838
21653W        W88062   4.862  33.896  10.988
21654W        W88063  16.563  11.825   4.554
21655W        W88064   7.838   2.551   2.868
21656W        W88065  43.621  29.137   4.696
21657W        W88066  10.156  28.540  11.581
21658W        W88067  16.329  36.041  13.859
21659W        W88068  42.857  11.775   3.277
21660W        W88069  17.824  16.232   4.338
21661W        W88070  26.663  43.783   3.671
21662W        W88071  40.095   2.975   2.505
21663W        W88072  11.251  32.830   1.038
21664W        W88073  37.885   5.968  12.261
21665W        W88074  42.985  31.808   1.716
21666W        W88075   3.401  42.927  13.769
21667W        W88076   6.830  34.251  14.561
21668W        W88077   7.495  30.093  13.503
21669W        W88078  12.597  36.029   1.801
21670W        W88079  22.261  37.439   2.454
21671W        W88080  12.514   2.943  11.623
21672W        W88081  18.159  24.702  12.127
21673W        W88082   7.309  32.431  14.565
21674W        W88083  31.369  26.409  12.967
21675W        W88084  20.073  21.267   4.518
21676W        W88085  35.555  39.332   4.310
21677W        W88086   7.455  40.492  11.565
21678W        W88087  43.778  43.351   3.158
21679W        W88088  20.695   5.856  14.835
21680W        W88089   6.881  15.587   3.718
21681W        W88090  17.816  37.857  13.910
21682W        W88091   6.880   3.188   4.923
21683W        W88092   8.242   8.881   0.512
21684W        W88093  35.426  23.713  11.475
21685W        W88094  25.905  33.307   1.478
21686W        W88095  18.327   0.180  14.943
21687W        W88096  14.616  21.862   3.531
21688W        W88097  28.636  41.453   3.187
21689W        W88098  27.979  23.931   1.466
21690W        W88099   3.383  39.554   1.785
21691W        W88100  30.078  29.493   2.148
21692W        W88101  16.708   1.733  12.158
21693W        W88102  34.046  19.084   4.645
21694W        W88103  17.807  13.565  13.011
21695W        W88104  16.813  11.145   2.859
21696W        W88105  27.469   1.353  11.059
21697W        W88106   4.698  26.447   2.339
21698W        W88107  26.067   4.281   1.488
21699W        W88108   9.862  17.826  10.972
21700W        W88109  32.962  39.908   2.118
21701W        W88110  30.634  29.117  12.434
21702W        W88111  37.980   3.284   0.904
21703W        W88112  35.605  28.165   2.894
21704W        W88113  14.900   5.812   1.253
21705W        W88114  28.017  33.389   0.467
21706W        W88115  39.797  22.506  10.695
21707W        W88116  30.742   2.674   1.501
21708W        W88117   8.819  15.147   3.623
21709W        W88118  39.607  18.146   0.625
21710W        W88119  11.286   2.987  14.897
21711W        W88120  39.387  22.283   0.873
21712W        W88121  43.338  24.054  10.510
21713W        W88122   0.923  40.622   3.651
21714W        W88123  14.443  18.796  11.696
21715W        W88124  43.185   4.342   1.764
21716W        W88125  41.169  11.798   1.187
21717W        W88126  15.560  36.286   5.022
21718W        W88127  19.106  23.640   4.371
21719W        W88128  12.636  10.577   3.706
21720W        W88129  18.313  29.142  11.889
21721W        W88130  39.301  20.515  11.549
21722W        W88131  21.267  40.580  10.441
21723W        W88132   4.436  37.987  11.985
21724W        W88133  14.849  43.262   3.963
21725W        W88134  43.527   9.163   2.660
21726W        W88135  15.628  11.672   0.893
21727W        W88136   7.341  25.209   3.735
21728W        W88137   9.820  34.595   0.515
21729W        W88138  14.745  26.647   3.714
21730W        W88139  25.444  26.609   3.625
21731W        W88140  34.656  40.767   3.832
21732W        W88141  16.629  33.351  12.808
21733W        W88142   0.602   9.591   3.250
21734W        W88143  30.183  35.908   2.372
21735W        W88144  15.732  43.334  11.374
21736W        W88145  16.172  40.499   1.154
21737W        W88146  20.288  22.671   3.618
21738W        W88147   4.053  22.468  10.911
21739W        W88148  14.192  23.640   0.032
21740W        W88149   4.529  18.701   1.238
21741W        W88150  11.176   7.927   4.512
21742W        W88151  22.115   5.442   0.708
21743W        W88152  35.703  43.703   1.257
21744W        W88153  26.474  22.074  12.483
21745W        W88154  27.474  42.517   1.696
21746W        W88155  10.384   1.744  14.249
21747W        W88156  14.084   0.392   1.930
21748W        W88157  38.445  31.791   4.610
21749W        W88158   7.471  15.034   4.843
21750W        W88159   9.311  12.405   3.370
21751W        W88160  42.071  41.124   3.101
21752W        W88161  37.005   9.193   2.625
21753W        W88162  33.941   6.318  12.834
21754W        W88163  17.321  42.397   3.624
21755W        W88164  20.771  42.071  10.796
21756W        W88165  33.006  28.586   3.138
21757W        W88166  11.415   3.996   3.396
21758W        W88167  35.397  31.852  12.985
21759W        W88168  19.239  18.905  11.193
21760W        W88169  37.959  13.799   4.169
21761W        W88170  42.057  18.498  12.565
21762W        W88171   5.193   2.166  12.995
21763W        W88172  41.153   5.745  11.680
21764W        W88173  44.302  24.157   3.209
21765W        W88174   4.744  13.124   3.184
21766W        W88175  17.177   9.216  11.885
21767W        W88176  17.558  19.172   3.239
21768W        W88177  34.146  41.839  14.823
21769W        W88178  27.972  20.542  14.489
21770W        W88179  32.137  16.896  13.425
21771W        W88180  11.900  19.031   2.675
21772W        W88181   3.860  33.793  13.797
21773W        W88182   2.901  28.104  12.888
21774W        W88183   6.094  24.712   2.702
21775W        W88184  26.328  23.792   4.181
21776W        W88185   3.261   9.623   1.760
21777W        W88186  25.634  39.772  13.681
21778W        W88187  35.106  40.537   0.738
21779W        W88188  38.298  42.554   2.795
21780W        W88189  29.073  42.478   3.701
21781W        W88190  42.499   6.890   0.188
21782W        W88191   9.904   8.985  13.965
21783W        W88192  33.212  15.175  10.946
21784W        W88193  41.632  36.997   0.746
21785W        W88194  13.527  44.785   2.380
21786W        W88195  31.896  21.233   2.884
21787W        W88196  36.411  24.546  12.026
21788W        W88197   5.662  43.221   2.415
21789W        W88198  27.616  19.085   0.907
21790W        W88199  15.343  22.119   1.577
21791W        W88200  16.039  27.162   4.838
21792W        W88201   8.232  33.235   4.017
21793W        W88202  28.179   5.557  12.247
21794W        W88203   5.394  38.391   2.850
21795W        W88204  25.002  27.411  12.130
21796W        W88205   8.239  29.143   0.658
21797W        W88206  30.845  22.482   4.728
21798W        W88207   9.861  22.933  12.932
21799W        W88208  40.740  10.059  11.102
21800W        W88209  35.374   2.262  13.462
21801W        W88210  34.929  41.556  13.553
21802W        W88211  41.747  14.845   1.753
21803W        W88212   6.220   2.517  13.092
21804W        W88213  29.231  36.171  11.007
21805W        W88214  37.924  10.383  14.558
21806W        W88215   0.419  17.335  12.522
21807W        W88216   1.454  39.085  12.160
21808W        W88217  14.735  27.479   3.031
21809W        W88218  43.507  36.202   2.238
21810W        W88219  39.202  18.642  13.603
21811W        W88220  44.824  34.412   4.471
21812W        W88221  41.579  31.165  11.909
21813W        W88222  37.951  21.594   3.626
21814W        W88223  35.623  23.495  12.981
21815W        W88224  29.273   9.776  10.666
21816W        W88225  25.000  10.435   0.748
21817W        W88226   6.148  18.065  12.982
21818W        W88227  43.755  17.387  11.265
21819W        W88228   9.559  15.487   3.247
21820W        W88229  13.273  28.459  11.163
21821W        W88230   6.307  16.855  13.993
21822W        W88231  28.437  10.848   3.691
21823W        W88232   4.273  34.672   1.813
21824W        W88233  43.647  24.241   1.277
21825W        W88234   3.262   7.230  10.638
21826W        W88235  25.680  20.472  10.773
21827W        W88236  37.897  23.286   0.613
21828W        W88237   7.641  40.024   0.524
21829W        W88238  27.526   6.180  10.634
21830W        W88239  12.502  34.411  14.567
21831W        W88240   7.778   4.795   1.253
21832W        W88241   0.654  44.016   4.829
21833W        W88242  22.747  13.111   0.951
21834W        W88243   2.798  19.938  12.817
21835W        W88244  35.316  22.619  10.689
21836W        W88245   2.409  28.084  13.193
21837W        W88246  25.030  31.323   3.893
21838W        W88247  13.816  12.402   2.696
21839W        W88248   3.521   8.207  11.480
21840W        W88249  40.415  10.568   3.582
21841W        W88250   0.171  24.993  12.340
21842W        W88251  28.664  44.204   3.775
21843W        W88252  38.533   8.347   1.432
21844W        W88253  39.595   2.707   3.732
21845W        W88254  10.123  33.054  14.744
21846W        W88255  44.405  41.620   4.045
21847W        W88256  24.684  30.321   0.313
21848W        W88257  20.992  15.301   4.548
21849W        W88258  21.144   3.990  14.831
21850W        W88259  41.382  40.245  12.680
21851W        W88260  16.887   0.510  13.378
21852W        W88261  18.078  38.345   2.381
21853W        W88262  38.448  32.478   3.720
21854W        W88263  16.079  20.601  14.796
21855W        W88264  13.318   2.585  14.248
21856W        W88265  35.331  24.125   1.462
21857W        W88266  13.814  44.221  12.823
21858W        W88267  21.327   8.923   2.465
21859W        W88268  18.122  19.289   2.256
21860W        W88269   4.990  42.417  10.829
21861W        W88270  44.534  28.643  14.331
21862W        W88271  37.595  44.798  11.960
21863W        W88272  44.360   0.446   4.892
21864W        W88273  23.502  37.375   4.105
21865W        W88274  23.962   8.379  12.051
21866W        W88275  23.649  27.361  11.541
21867W        W88276  24.026  19.245  10.702
21868W        W88277  24.519  30.590   3.261
21869W        W88278  24.018  20.946   0.776
21870W        W88279   0.756   3.794  12.019
21871W        W88280   7.658   5.806  13.772
21872W        W88281  30.948  36.859  12.074
21873W        W88282   4.809  21.199   0.890
21874W        W88283  32.458  12.112  13.059
21875W        W88284  13.257  35.853  11.872
21876W        W88285  24.799  28.444   1.462
21877W        W88286   4.435  34.407   2.267
21878W        W88287  39.839  40.171   1.783
21879W        W88288  44.640   9.040   2.226
21880W        W88289  34.447  14.283   4.518
21881W        W88290  40.928   8.299  14.025
21882W        W88291  11.738  11.678   1.378
21883W        W88292   0.677  34.906  12.844
21884W        W88293  11.708  29.622   1.382
21885W        W88294   7.194   7.680  13.066
21886W        W88295   0.315   2.390  13.880
21887W        W88296  24.948  40.252  11.555
21888W        W88297  27.947   0.323  14.889
21889W        W88298   6.862  25.142   4.482
21890W        W88299  20.258  18.309   1.551
21891W        W88300  11.702  27.525   4.851
21892W        W88301  42.865  31.441  11.993
21893W        W88302  26.627  43.811   4.541
21894W        W88303  25.884  15.630   2.901
21895W        W88304   2.303  34.566  14.300
21896W        W88305  37.829  25.214  12.095
21897W        W88306  23.467  14.225  11.603
21898W        W88307  40.864  38.843  11.301
21899W        W88308   7.888  43.812  11.635
21900W        W88309  30.488  36.613   3.988
21901W        W88310  35.919  43.987  12.865
21902W        W88311  20.518   9.600   1.039
21903W        W88312  37.431   9.964   1.640
21904W        W88313  43.380   4.152  14.865
21905W        W88314  12.357  44.894   1.347
21906W        W88315   9.743  37.922   4.876
21907W        W88316   4.387  40.362   2.350
21908W        W88317  28.976  18.944   2.856
21909W        W88318  20.423  18.646  12.777
21910W        W88319  35.498  39.487   3.429
21911W        W88320  28.188   3.207  11.918
21912W        W88321  18.627   4.210  11.701
21913W        W88322  15.813  16.715   0.179
21914W        W88323   6.161  28.838   4.082
21915W        W88324  19.632  31.157  12.179
21916W        W88325   2.251  28.047   3.836
21917W        W88326  13.506  38.527   0.486
21918W        W88327  40.281   6.809  14.568
21919W        W88328   0.267  32.083  11.916
21920W        W88329  42.379  44.956  13.603
21921W        W88330   5.139  10.270  10.738
21922W        W88331  33.497  15.221   4.639
21923W        W88332   6.779   0.385   4.682
21924W        W88333  36.446  12.824  13.493
21925W        W88334   5.803  22.200   3.618
21926W        W88335   2.026  22.719   4.107
21927W        W88336  24.354  36.773  14.579
21928W        W88337  30.730  35.010   4.752
21929W        W88338  30.534  12.413   4.577
21930W        W88339  39.925  40.486   4.227
21931W        W88340  11.177  15.689   4.424
21932W        W88341  29.231   8.204   3.567
21933W        W88342  41.207   0.191  10.859
21934W        W88343   1.462  35.759  11.983
21935W        W88344  39.144   6.881   0.682
21936W        W88345  42.573  10.384  11.246
21937W        W88346  32.128  10.142   5.072
21938W        W88347  36.169   7.640   4.127
21939W        W88348  33.088   1.563   4.573
21940W        W88349  32.917  22.816   2.219
21941W        W88350  13.757  32.410   3.207
21942W        W88351  10.363  24.461   3.787
21943W        W88352  27.492   4.737  12.101
21944W        W88353  44.005   2.867  13.492
21945W        W88354   0.860  19.412   5.284
21946W        W88355  31.017  38.863   3.412
21947W        W88356  35.030  22.755   2.655
21948W        W88357  31.522  30.520  14.605
21949W        W88358  33.999   0.754  11.475
21950W        W88359  28.261  10.658  11.573
21951W        W88360   6.037   1.373  12.462
21952W        W88361  21.604  18.671   4.872
21953W        W88362  25.942  22.032   1.221
21954W        W88363   6.862  43.001   4.488
21955W        W88364   9.540   9.219  12.461
21956W        W88365  24.267  44.370  11.968
21957W        W88366  43.310  22.110  13.053
21958W        W88367  15.343  32.546   3.398
21959W        W88368  34.674  32.417   3.799
21960W        W88369  14.195  28.595   3.795
21961W        W88370  35.574   4.746  11.536
21962W        W88371  24.224  34.598  12.909
21963W        W88372  36.095   1.846  12.438
21964W        W88373  25.145  41.769   4.188
21965W        W88374  10.142   5.574   1.225
21966W        W88375  44.714  38.254   3.188
21967W        W88376   4.167  18.907   0.889
21968W        W88377   9.115   0.527   2.577
21969W        W88378  21.611  44.685  13.117
21970W        W88379  32.817  33.061   2.648
21971W        W88380   8.075  32.029   2.882
21972W        W88381  35.135  29.679   3.603
21973W        W88382   7.767  11.021   1.856
21974W        W88383   8.413  12.911   3.319
21975W        W88384  38.082  23.525   4.478
21976W        W88385  43.431  35.365   4.165
21977W        W88386   5.827   2.713  10.815
21978W        W88387  40.468   6.354   0.962
21979W        W88388  35.956  28.598   4.103
21980W        W88389  41.999   0.605  10.014
21981W        W88390   6.255   7.528   3.125
21982W        W88391   7.144  27.430  10.510
21983W        W88392  15.265  40.779   4.207
21984W        W88393  12.877   5.460   4.258
21985W        W88394  37.229  24.810  13.904
21986W        W88395  25.964  39.616  10.697
21987W        W88396  27.134  18.307   0.720
21988W        W88397  20.189  28.158  11.114
21989W        W88398  35.537   6.217  13.998
21990W        W88399  23.007   6.619  11.840
21991W        W88400  13.155  24.982  14.264
21992W        W88401  28.419  32.591   3.736
21993W        W88402   5.234  43.051  13.900
21994W        W88403   4.425  28.867   3.667
21995W        W88404  19.154  30.335   4.792
21996W        W88405  21.500  26.966  12.400
21997W        W88406  41.789   6.149   1.007
21998W        W88407  10.141  16.096  13.484
21999W        W88408  42.884  30.367  14.881
22000W        W88409   8.595  10.222   3.459
22001W        W88410  35.595  26.681  11.133
22002W        W88411  18.069  42.992  12.308
22003W        W88412  30.191  38.447   2.412
22004W        W88413  34.580   3.059   0.300
22005W        W88414  40.275  14.128   0.491
22006W        W88415  43.753   6.093   4.105
22007W        W88416  25.788   2.932   1.422
22008W        W88417   3.210  41.677   3.248
22009W        W88418   8.296  27.968  14.578
22010W        W88419  35.054  34.480  13.946
22011W        W88420  17.997  19.951  13.036
22012W        W88421  42.274  39.126  12.571
22013W        W88422  12.848  28.755  12.154
22014W        W88423   4.291  13.273   2.216
22015W        W88424  12.625  28.694   4.156
22016W        W88425  35.161  25.528   2.828
22017W        W88426  29.570  17.698   1.540
22018W        W88427  31.813  30.872   2.214
22019W        W88428  39.853  37.592  12.244
22020W        W88429  38.075  12.752   3.339
22021W        W88430  43.940   1.944   0.875
22022W        W88431  17.629  43.463   4.766
22023W        W88432   2.233  23.116  11.414
22024W        W88433  29.383  12.551  11.598
22025W        W88434   8.443  27.580   2.375
22026W        W88435  40.992  34.242   0.919
22027W        W88436  36.368  42.367   1.498
22028W        W88437   8.611  40.868   4.094
22029W        W88438  43.507   7.351   3.604
22030W        W88439  15.097  32.085  14.779
22031W        W88440  42.056  26.617   4.624
22032W        W88441  37.389  32.445  10.333
22033W        W88442  13.739  28.461   2.476
22034W        W88443   0.394  29.719   0.689
22035W        W88444  15.850  30.921  12.541
22036W        W88445  40.845  12.337   4.647
22037W        W88446  41.461  26.987   1.741
22038W        W88447   3.776  13.978   4.697
22039W        W88448  12.025  32.526  11.580
22040W        W88449  34.714   7.447  12.408
22041W        W88450  37.655  29.897  13.435
22042W        W88451  38.783  38.466  13.442
22043W        W88452  28.866  35.022  13.015
22044W        W88453  31.712   9.229   0.258
22045W        W88454   9.861  14.752   2.098
22046W        W88455  30.066  40.230  12.533
22047W        W88456  28.019  36.675   2.820
22048W        W88457   5.160   1.943   4.392
22049W        W88458   7.465   4.108  11.192
22050W        W88459  26.476  26.569   0.088
22051W        W88460  32.567  33.618   2.875
22052W        W88461  12.051   8.175  12.289
22053W        W88462  42.585  34.502   3.838
22054W        W88463  40.104   8.613  11.966
22055W        W88464   0.761  36.940   0.764
22056W        W88465  35.732   8.087  11.218
22057W        W88466  29.573  23.685  12.057
22058W        W88467  39.895  23.698   1.368
22059W        W88468  43.027   8.466   2.806
22060W        W88469  39.002  37.801   1.012
22061W        W88470  19.329  26.195  11.143
22062W        W88471   7.880  29.993  14.852
22063W        W88472  25.385   3.177   4.636
22064W        W88473  32.578  13.794   3.101
22065W        W88474  19.277   6.778   3.065
22066W        W88475  37.971  16.316  10.584
22067W        W88476  24.183  36.022   2.299
22068W        W88477  18.258  21.509  10.940
22069W        W88478  40.939  42.395   2.043
22070W        W88479  28.614  21.685  12.188
22071W        W88480  17.290  25.599  12.429
22072W        W88481  29.151  30.933  12.642
22073W        W88482  17.214   5.740   4.545
22074W        W88483  35.719  10.659   2.307
22075W        W88484   9.921  38.000  14.486
22076W        W88485   1.228  15.798  13.161
22077W        W88486  26.598  10.767   1.139
22078W        W88487  17.411   9.781  10.746
22079W        W88488  39.358  12.849  13.245
22080W        W88489  39.548  27.282  13.383
22081W        W88490  16.090  18.548  14.855
22082W        W88491  35.365   0.300  13.861
22083W        W88492  30.634  37.452   1.226
22084W        W88493  27.222  29.000   3.919
22085W        W88494   5.639   9.169   2.803
22086W        W88495  22.460   4.908  12.505
22087W        W88496   3.888  40.455   1.211
22088W        W88497  34.501  40.021   4.567
22089W        W88498   7.764  42.353   1.126
22090W        W88499  17.610  21.250   1.585
22091W        W88500   7.247   7.372  11.423
22092W        W88501  25.543  29.737  12.307
22093W        W88502  18.822   5.740   1.477
22094W        W88503  15.725  30.141   4.524
22095W        W88504  31.120  11.680   2.136
22096W        W88505  13.731  17.055  11.581
22097W        W88506   0.751   9.402  10.720
22098W        W88507   4.829   1.745  14.561
22099W        W88508  10.837  39.420   4.462
22100W        W88509  29.942  30.567  14.465
22101W        W88510  36.350  43.505  13.387
22102W        W88511   4.874  11.811   4.637
22103W        W88512  36.140  38.337  12.100
22104W        W88513  26.450  29.140   1.245
22105W        W88514   7.921   2.073   3.726
22106W        W88515  24.179  23.366   4.145
22107W        W88516  16.753  21.067   1.292
22108W        W88517  42.828  28.490  10.728
22109W        W88518   3.906  18.077   2.241
22110W        W88519  33.679   5.784  13.908
22111W        W88520  16.920  19.070  14.302
22112W        W88521  23.951  42.455   4.711
22113W        W88522  39.992  22.746  13.107
22114W        W88523  17.880  24.717  10.753
22115W        W88524  15.665  24.607   4.573
22116W        W88525  16.866  15.513  12.062
22117W        W88526  40.927  28.101  13.014
22118W        W88527  36.809  18.993  11.975
22119W        W88528  36.522  35.779  12.305
22120W        W88529   0.214  14.134   0.039
22121W        W88530  18.754  11.687  11.355
22122W        W88531  40.578   8.367  12.008
22123W        W88532  29.731  26.360  10.681
22124W        W88533  11.760  22.752  13.817
22125W        W88534  23.585  24.885  11.559
22126W        W88535  15.209  16.211  14.802
22127W        W88536  43.013  20.072  10.921
22128W        W88537  14.636  33.069   4.504
22129W        W88538  21.033   2.481   3.007
22130W        W88539   7.051  24.573   1.703
22131W        W88540  30.463  24.151  11.509
22132W        W88541  35.639  32.554   3.653
22133W        W88542   1.662  18.013   3.646
22134W        W88543  20.634  28.126  13.947
22135W        W88544  36.526  17.353  13.023
22136W        W88545  17.491  43.452   0.838
22137W        W88546   7.175  34.498  13.093
22138W        W88547  18.251  17.687  11.151
22139W        W88548  41.288  22.993  13.381
22140W        W88549  12.553  35.905   2.713
22141W        W88550  17.518  38.624  12.390
22142W        W88551  16.155  34.554  14.463
22143W        W88552  36.932  24.177   2.412
22144W        W88553   8.965  13.656  12.555
22145W        W88554   9.832  28.238  13.748
22146W        W88555   8.876  31.399  10.355
22147W        W88556  31.441  24.139  14.561
22148W        W88557  29.939  35.264  13.038
22149W        W88558  34.095  22.530  14.326
22150W        W88559   0.208  23.696  11.132
22151W        W88560  38.249   1.709  13.537
22152W        W88561  21.292  44.271   0.316
22153W        W88562  15.348  24.993  11.114
22154W        W88563  39.397   2.612   4.211
22155W        W88564  30.181  39.879  14.062
22156W        W88565  24.427  28.080  12.655
22157W        W88566   1.549  43.777   4.612
22158W        W88567   7.750   0.302   1.301
22159W        W88568  25.166  32.616   2.847
22160W        W88569   3.459  14.237   3.375
22161W        W88570   3.479  25.689   1.387
22162W        W88571  42.678  42.360  13.365
22163W        W88572  28.533  37.263   0.887
22164W        W88573  35.329  35.902  11.130
22165W        W88574  34.524   5.213  12.928
22166W        W88575  13.685  13.732   4.567
22167W        W88576  26.280  28.685  14.306
22168W        W88577  12.903  18.003   0.377
22169W        W88578   2.975  39.443  11.988
22170W        W88579  25.229   7.153   1.250
22171W        W88580  28.052  26.035   2.214
22172W        W88581  13.105  23.601  10.515
22173W        W88582  26.996   7.379   1.795
22174W        W88583  11.046  18.998  14.469
22175W        W88584  38.812   2.134  14.021
22176W        W88585  29.084  43.366  13.647
22177W        W88586   1.068  17.220   4.542
22178W        W88587  40.658  39.187  10.178
22179W        W88588  24.938  10.668  13.339
22180W        W88589  33.921  36.628   0.027
22181W        W88590  34.019  19.847  11.128
22182W        W88591  42.282   1.811   0.369
22183W        W88592  39.592   3.359  10.430
22184W        W88593  11.921  34.234  12.018
22185W        W88594   3.087   3.684  12.500
22186W        W88595  14.395  24.384   4.491
22187W        W88596  40.023  22.934  14.785
22188W        W88597   1.515  33.568   0.277
22189W        W88598  21.113  32.599  14.049
22190W        W88599  26.169  18.098  11.482
22191W        W88600  10.319  40.721  12.923
22192W        W88601   4.313  10.293  11.405
22193W        W88602  40.877  12.943  13.314
22194W        W88603  12.531  38.319  12.043
22195W        W88604   7.810  24.642   0.987
22196W        W88605  39.371  21.032  10.589
22197W        W88606  15.778  10.088  10.507
22198W        W88607  18.644   1.534  12.479
22199W        W88608  39.590  20.966  13.444
22200W        W88609  25.498  14.269  10.728
22201W        W88610  21.498   7.160   4.548
22202W        W88611   0.486  38.572   1.200
22203W        W88612  22.641   4.813   1.900
22204W        W88613  16.974  25.146  13.017
22205W        W88614  41.543  31.597  12.445
22206W        W88615  10.360  39.276  11.932
22207W        W88616  10.457  37.612  14.683
22208W        W88617   4.313  35.503   2.917
22209W        W88618  26.105  24.494  11.889
22210W        W88619  23.962  15.396  11.103
22211W        W88620  23.409  21.488   5.384
22212W        W88621  20.005  12.678   2.239
22213W        W88622  12.718  11.623   1.334
22214W        W88623  22.571  33.114  12.088
22215W        W88624   3.793   8.598  11.704
22216W        W88625  16.904  23.216   0.715
22217W        W88626   8.206  27.652   3.675
22218W        W88627  34.924   3.018  13.545
22219W        W88628  42.995  21.305   5.021
22220W        W88629  13.025   7.769   1.490
22221W        W88630  21.352  20.392  10.725
22222W        W88631  44.003  11.630   1.353
22223W        W88632  16.026  42.320  11.685
22224W        W88633   6.612   5.306   1.634
22225W        W88634  43.298  44.407   2.768
22226W        W88635  10.172  20.097   2.323
22227W        W88636  44.941  25.155  14.561
22228W        W88637  27.921  43.726  14.339
22229W        W88638  19.080  30.211   2.398
22230W        W88639   9.272  27.159   0.873
22231W        W88640  42.904   8.819   2.232
22232W        W88641  14.541  13.867   4.742
22233W        W88642   7.455  30.597  11.718
22234W        W88643  30.618  41.784  11.259
22235W        W88644  30.325  43.094  13.279
22236W        W88645  10.143   8.699   0.380
22237W        W88646  17.761   4.221   3.735
22238W        W88647   8.669   9.099   2.555
22239W        W88648  28.999  33.383   0.399
22240W        W88649  24.257  19.147  13.049
22241W        W88650  21.053  31.133   4.748
22242W        W88651  37.087  30.931  12.124
22243W        W88652  44.923  30.944  14.960
22244W        W88653  14.655  36.930   0.979
22245W        W88654   2.934  24.399  10.660
22246W        W88655  31.228  43.637   2.245
22247W        W88656  27.731  23.684   2.569
22248W        W88657  12.913   3.886   4.575
22249W        W88658  29.967  12.270  12.586
22250W        W88659  38.259  38.527   0.751
22251W        W88660  17.518  14.769  11.610
22252W        W88661  23.217  42.219   1.661
22253W        W88662   4.205  42.292  13.599
22254W        W88663  15.854   4.173   3.514
22255W        W88664  22.930  40.365  12.438
22256W        W88665  14.668  39.859   0.805
22257W        W88666  29.263  43.969   0.771
22258W        W88667   4.127   8.760   2.727
22259W        W88668  11.810   6.314  13.841
22260W        W88669  10.796  41.585   2.313
22261W        W88670  41.061  21.372   3.756
22262W        W88671  25.408  42.065   2.310
22263W        W88672  11.045   4.905  10.462
22264W        W88673  12.207  40.062   4.025
22265W        W88674  31.019  44.060   3.628
22266W        W88675  32.971  28.559   2.141
22267W        W88676  39.276  24.967  10.665
22268W        W88677   1.354  43.229   2.356
22269W        W88678  12.665  21.884  11.055
22270W        W88679   3.097  24.691   9.858
22271W        W88680  19.615  37.209   3.367
22272W        W88681  42.053   4.871  13.405
22273W        W88682  31.539  26.505  11.156
22274W        W88683  27.067  23.284   4.431
22275W        W88684  17.607  25.697   3.766
22276W        W88685  14.289  33.605   0.068
22277W        W88686  18.731  27.152  10.678
22278W        W88687  10.371  26.501  10.636
22279W        W88688   9.625  10.146  11.625
22280W        W88689  38.966  29.869   4.799
22281W        W88690  13.243  18.033  12.961
22282W        W88691  16.726   9.397  11.143
22283W        W88692   1.179  13.594  12.877
22284W        W88693   7.477  29.592   1.733
22285W        W88694   4.112  33.518  10.804
22286W        W88695  26.500  16.164   4.210
22287W        W88696  33.137  10.992  13.312
22288W        W88697   2.373  16.963  14.979
22289W        W88698  32.415  44.587  14.466
22290W        W88699  34.652  12.056  14.660
22291W        W88700  28.328  10.302  14.032
22292W        W88701   2.040  35.448   3.270
22293W        W88702  33.422  28.981  11.094
22294W        W88703  32.349  35.289  14.651
22295W        W88704   6.353  39.254   0.494
22296W        W88705  29.836   9.656   0.549
22297W        W88706  24.206  24.976   4.965
22298W        W88707  23.151   5.957   3.863
22299W        W88708  41.708  40.323  13.090
22300W        W88709   9.350   6.208   3.280
22301W        W88710  36.966  27.172   0.763
22302W        W88711  29.011  17.957   2.657
22303W        W88712  10.876  10.849   4.142
22304W        W88713  24.110  24.999   2.774
22305W        W88714  44.967  32.718  14.505
22306W        W88715  35.974  21.501   1.290
22307W        W88716  13.362  16.079   0.339
22308W        W88717  24.216   6.401   3.675
22309W        W88718  33.069  23.446  14.779
22310W        W88719  12.050  20.225   2.436
22311W        W88720  33.174   8.336  11.421
22312W        W88721   3.503   8.899   5.048
22313W        W88722  14.357  11.999  14.038
22314W        W88723  20.652  17.200   2.447
22315W        W88724  35.007   5.756   4.511
22316W        W88725   1.681  14.184   0.924
22317W        W88726  43.394   2.988   1.397
22318W        W88727  40.521  13.719  10.490
22319W        W88728  39.509  15.779   0.889
22320W        W88729  35.966   9.917   0.868
22321W        W88730  28.486   0.639   4.968
22322W        W88731  38.622  18.767   0.914
22323W        W88732  21.309  27.668  11.181
22324W        W88733  13.792   1.641   0.045
22325W        W88734   0.699  25.827  10.906
22326W        W88735  43.893  41.091   4.541
22327W        W88736   6.465  44.054  11.147
22328W        W88737  26.366  27.428   0.540
22329W        W88738  37.273  27.466  14.413
22330W        W88739  10.743   4.274   4.663
22331W        W88740   4.220  36.574   0.603
22332W        W88741  11.261  26.096   0.972
22333W        W88742  11.100  29.511   3.920
22334W        W88743  33.880   2.550   0.684
22335W        W88744  44.834  32.869   0.320
22336W        W88745  44.761   2.743  13.103
22337W        W88746  18.183  43.527   2.695
22338W        W88747   8.670   7.395   4.183
22339W        W88748  12.861  37.588  11.062
22340W        W88749  34.226  44.944   3.296
22341W        W88750   1.290  36.920   0.919
22342W        W88751  44.833  37.024  14.672
22343W        W88752  43.906   8.578  14.463
22344W        W88753  11.151  32.643  13.879
22345W        W88754   3.352  34.085   4.177
22346W        W88755  33.811  31.988  11.094
22347W        W88756  33.478  32.196   3.318
22348W        W88757   8.821  29.492  12.933
22349W        W88758  34.132  23.121  10.756
22350W        W88759  18.806  28.216  14.445
22351W        W88760   3.685  29.952  12.861
22352W        W88761   4.732   4.793  14.635
22353W        W88762  13.933  31.524   1.302
22354W        W88763  23.195   3.088   0.815
22355W        W88764  37.604  15.461   2.839
22356W        W88765   7.820  19.776  14.322
22357W        W88766   0.586  44.838   4.371
22358W        W88767  34.521  36.497   1.389
22359W        W88768  31.983  20.666  10.764
22360W        W88769  44.304   9.831  12.896
22361W        W88770  21.650  27.192  11.645
22362W        W88771   1.069  24.430  13.888
22363W        W88772  15.714  11.643   5.209
22364W        W88773  43.814   8.655  11.601
22365W        W88774  16.580  20.833   2.799
22366W        W88775  31.469   6.896  10.910
22367W        W88776  14.265  27.112  14.377
22368W        W88777  30.583  16.884  14.812
22369W        W88778  22.638  12.426  12.097
22370W        W88779  19.520   4.769  13.416
22371W        W88780  13.356   7.395   2.787
22372W        W88781  42.803  39.826   0.038
22373W        W88782   3.801  43.166  13.976
22374W        W88783  35.999  14.167   4.706
22375W        W88784  29.123   3.590  12.419
22376W        W88785  30.535   2.898   0.619
22377W        W88786   0.539  14.554  10.643
22378W        W88787   8.944   6.316  11.982
22379W        W88788  17.941  21.605   9.648
22380W        W88789   9.973  16.865  12.706
22381W        W88790  17.160  39.625  13.281
22382W        W88791  12.268  40.496   0.541
22383W        W88792   0.843  27.090  13.861
22384W        W88793  19.262  34.195  13.961
22385W        W88794  27.799  36.461  14.893
22386W        W88795  30.934  35.600  10.696
22387W        W88796  31.546  35.844   3.584
22388W        W88797  27.259  30.184  11.160
22389W        W88798  36.034  43.214   4.813
22390W        W88799  32.769   8.994  14.083
22391W        W88800  44.233   7.813  14.492
22392W        W88801   2.427  22.836   9.997
22393W        W88802  44.989  21.784  13.012
22394W        W88803   1.787  26.461  10.776
22395W        W88804  29.735  33.627  10.725
22396W        W88805   5.653  38.412   2.374
22397W        W88806  39.985   7.075  12.008
22398W        W88807  31.111  30.926  10.710
22399W        W88808  41.335  16.621   3.637
22400W        W88809  35.621  15.098   1.813
22401W        W88810  37.495  36.189   3.262
22402W        W88811  34.042   8.245  11.382
22403W        W88812  39.511  23.108  14.714
22404W        W88813  30.200  14.988  12.969
22405W        W88814  25.056   6.114   3.244
22406W        W88815  36.144  41.053  14.314
22407W        W88816   5.177   7.255   2.829
22408W        W88817   1.200  12.739   2.288
22409W        W88818  11.658  38.329  11.172
22410W        W88819  23.315  38.360  10.749
22411W        W88820  39.060  38.307  13.878
22412W        W88821   9.953  15.238   4.235
22413W        W88822   6.246  19.799   2.266
22414W        W88823  28.218  15.821  10.638
22415W        W88824  19.931   1.237  11.064
22416W        W88825   7.379  44.897   0.172
22417W        W88826  27.634   2.434  14.338
22418W        W88827   5.393   4.400   1.861
22419W        W88828  26.069  31.508   2.334
22420W        W88829   5.675   4.913   3.184
22421W        W88830  12.690  35.829   0.496
22422W        W88831  11.891  32.354  12.070
22423W        W88832  36.821   5.650   3.825
22424W        W88833   1.672  16.682  14.287
22425W        W88834  44.467  22.549   4.660
22426W        W88835  11.860  24.693   0.198
22427W        W88836  22.411   7.592  14.486
22428W        W88837  16.283  23.262   2.623
22429W        W88838  40.116  31.578  11.207
22430W        W88839  15.828   8.598   0.767
22431W        W88840  10.437  42.736   3.988
22432W        W88841  41.510  30.527   1.913
22433W        W88842  40.497  11.791  14.100
22434W        W88843  16.268  41.909   0.305
22435W        W88844  34.591   6.125   2.627
22436W        W88845  17.229  39.209   4.030
22437W        W88846   5.183  27.583   2.148
22438W        W88847   5.667  30.033  14.777
22439W        W88848  23.663  11.343  12.435
22440W        W88849  34.508  23.776   5.039
22441W        W88850  11.131   9.589   0.407
22442W        W88851  42.875  27.072   0.347
22443W        W88852  31.050   6.703   3.643
22444W        W88853  38.455  38.577   4.604
22445W        W88854  44.569  32.387  14.457
22446W        W88855  19.595  16.614   4.849
22447W        W88856  13.568   9.334   2.713
22448W        W88857  22.231  30.039   0.968
22449W        W88858  14.467  32.539  12.024
22450W        W88859  32.952   7.304  12.315
22451W        W88860  19.161  22.521  10.790
22452W        W88861  37.348  33.387  10.654
22453W        W88862  25.278   8.291   1.827
22454W        W88863  35.465  17.270   4.952
22455W        W88864  24.688  21.460   2.507
22456W        W88865  32.703   6.112  11.117
22457W        W88866  19.290  14.321  14.459
22458W        W88867  30.807  15.858  11.697
22459W        W88868  26.174  38.191  11.080
22460W        W88869   1.215   1.256   4.772
22461W        W88870  12.285  33.015  11.619
22462W        W88871  26.152  35.052  11.616
22463W        W88872   8.831  36.638  14.398
22464W        W88873  30.411  23.263   3.723
22465W        W88874   4.973  31.131   1.224
22466W        W88875  36.644  34.753  14.296
22467W        W88876  27.038   7.897   1.712
22468W        W88877  26.475  16.292   0.994
22469W        W88878  35.785  41.554  13.391
22470W        W88879  44.494   0.847   4.541
22471W        W88880  38.771  10.772   0.613
22472W        W88881  35.627  33.018   2.347
22473W        W88882  27.625   4.299   3.126
22474W        W88883  30.314  35.617  14.787
22475W        W88884  25.905  43.883   1.482
22476W        W88885  37.836  28.673   4.097
22477W        W88886  38.428  33.635  13.433
22478W        W88887  35.450  32.387  13.037
22479W        W88888  35.385  11.287  10.934
22480W        W88889   2.784  24.691   4.435
22481W        W88890  34.520  13.600  13.433
22482W        W88891   1.224  11.287   0.417
22483W        W88892   6.773  26.960   0.855
22484W        W88893   4.756  10.115  11.687
22485W        W88894   0.507  40.041  14.161
22486W        W88895  11.215  20.982  12.983
22487W        W88896  38.769  23.650   3.601
22488W        W88897   3.266  30.418  10.597
22489W        W88898  32.994  42.271  11.013
22490W        W88899  16.738   6.714   0.332
22491W        W88900   5.011  13.562   3.257
22492W        W88901   3.364  25.886  13.358
22493W        W88902  31.359  42.142   2.704
22494W        W88903   7.273  11.099   1.711
22495W        W88904   0.822  29.879  11.557
22496W        W88905  33.887  33.173   1.895
22497W        W88906  17.395  15.097  14.550
22498W        W88907  10.330  24.068   0.656
22499W        W88908  15.421  12.223  12.540
22500W        W88909  18.503   5.427   2.821
22501W        W88910  24.077  36.329  11.061
22502W        W88911  25.476  21.122  14.868
22503W        W88912  17.652  44.490  11.669
22504W        W88913   5.214   0.420   0.026
22505W        W88914  13.089  19.689  12.051
22506W        W88915  21.182  39.942   2.383
22507W        W88916  26.080   9.700  12.081
22508W        W88917   3.201  24.013   2.418
22509W        W88918  33.143  15.686  10.778
22510W        W88919  29.527  43.519  13.409
22511W        W88920  38.925  42.962   4.709
22512W        W88921   1.420   3.164   1.225
22513W        W88922   1.814  25.259   2.317
22514W        W88923  38.999  13.849  14.413
22515W        W88924  38.304  38.079  11.666
22516W        W88925  24.501  44.311   3.170
22517W        W88926  12.221  30.947  12.016
22518W        W88927  29.553  30.434   0.758
22519W        W88928   6.119  33.486  11.124
22520W        W88929  36.049  26.681  11.525
22521W        W88930  28.471  19.102   2.746
22522W        W88931  31.522  33.561  11.052
22523W        W88932  33.183  21.241  11.102
22524W        W88933  32.395  43.770  12.190
22525W        W88934  10.271  32.483  13.019
22526W        W88935  27.541  11.087   9.855
22527W        W88936  13.804  17.265   1.658
22528W        W88937   4.640  40.509  14.529
22529W        W88938   5.652   6.833   2.193
22530W        W88939  26.998   8.071   4.535
22531W        W88940  10.901  31.426  11.286
22532W        W88941  25.952  16.751  11.660
22533W        W88942  43.622   1.141  11.073
22534W        W88943  17.227  19.811  14.648
22535W        W88944  18.417  18.228   3.740
22536W        W88945  36.855  25.099  13.134
22537W        W88946   6.862  44.545  10.912
22538W        W88947  31.931  33.821   4.466
22539W        W88948  40.188  21.238  10.687
22540W        W88949   5.936  44.294  12.646
22541W        W88950  24.972   5.266  11.620
22542W        W88951  28.003  24.958  14.924
22543W        W88952  19.729  37.538  14.430
22544W        W88953  35.407  25.036   2.680
22545W        W88954   9.990  26.241  11.608
22546W        W88955  25.405   0.820   4.207
22547W        W88956   7.252   5.105  13.172
22548W        W88957  35.773  35.911  12.427
22549W        W88958  26.514  27.081   0.174
22550W        W88959  36.381  25.681   3.188
22551W        W88960  15.959  42.316  14.538
22552W        W88961  23.654  13.244  13.754
22553W        W88962   1.850  18.160  14.111
22554W        W88963  38.100  35.959  12.785
22555W        W88964  17.476  17.842   0.520
22556W        W88965  39.884  43.356  11.107
22557W        W88966  42.551  27.457  10.743
22558W        W88967  40.639   4.887   0.218
22559W        W88968  44.017  13.801   3.189
22560W        W88969  10.743   9.353  13.566
22561W        W88970  28.332  33.292   3.645
22562W        W88971  19.673  10.458  13.372
22563W        W88972  28.979  23.544  13.962
22564W        W88973  16.903  29.759   2.167
22565W        W88974  29.696   7.637  10.608
22566W        W88975  20.960  34.093   4.083
22567W        W88976  27.411  21.202  13.432
22568W        W88977  38.079  32.384  14.267
22569W        W88978  12.544   1.473   3.167
22570W        W88979  42.455  19.586   4.952
22571W        W88980  10.300   0.235   0.312
22572W        W88981  30.564  44.198  10.115
22573W        W88982  40.032   8.228  14.688
22574W        W88983  16.055  14.740  11.313
22575W        W88984  24.973  12.680  11.159
22576W        W88985  20.208   1.326  13.333
22577W        W88986  24.456  25.153  12.921
22578W        W88987  15.198   2.703  13.967
22579W        W88988  25.153  14.103   0.710
22580W        W88989  21.549   3.822   1.865
22581W        W88990  13.571   8.665   2.241
22582W        W88991  24.728   7.076   1.193
22583W        W88992  31.156  34.375  14.838
22584W        W88993  13.851   1.341   3.558
22585W        W88994  13.708   9.061  11.856
22586W        W88995   6.225   5.456   0.335
22587W        W88996  33.118  32.206   4.995
22588W        W88997  12.180  27.691  13.815
22589W        W88998  41.285   1.448  10.728
22590W        W88999  24.656   4.891  10.946
22591W        W89000  13.263  19.572   0.483
22592W        W89001  32.119  40.246   3.786
22593W        W89002  33.931  13.657  14.107
22594W        W89003  14.697  16.190  12.818
22595W        W89004   6.320  32.088   4.271
22596W        W89005  39.548  10.429  13.371
22597W        W89006  39.722  17.792   2.773
22598W        W89007   2.166  43.675  13.787
22599W        W89008  13.853  20.237   0.821
22600W        W89009  38.634  35.029   4.590
22601W        W89010  37.898  13.244   0.572
22602W        W89011  14.074  32.340  11.730
22603W        W89012  28.323  29.659   2.345
22604W        W89013  40.463  14.697   2.175
22605W        W89014  29.821  33.123  11.097
22606W        W89015   6.460  38.376  13.906
22607W        W89016  31.119  38.329   1.577
22608W        W89017   1.355  17.202  12.075
22609W        W89018  32.894  20.071  13.069
22610W        W89019  37.952  29.171   1.972
22611W        W89020  37.525  37.903  12.122
22612W        W89021  40.525  14.212  13.909
22613W        W89022  13.919  25.192  11.493
22614W        W89023  34.074  27.960   2.037
22615W        W89024  37.835  20.194   3.284
22616W        W89025  37.079  12.282   2.602
22617W        W89026  31.533   7.313   4.546
22618W        W89027   7.387  33.014   1.498
22619W        W89028  13.114   0.952   2.766
22620W        W89029  18.293   8.911   3.688
22621W        W89030  28.055  40.531  13.851
22622W        W89031  43.512   6.610   3.280
22623W        W89032  15.488  23.684   9.929
22624W        W89033  18.597  29.069   2.333
22625W        W89034   3.716  28.665   4.536
22626W        W89035  28.191  34.992   4.496
22627W        W89036   9.748  29.901  10.367
22628W        W89037   4.786   9.764  12.999
22629W        W89038  22.205  23.251   0.679
22630W        W89039  20.954  32.594   2.211
22631W        W89040  37.223  18.909   0.969
22632W        W89041  10.720   3.728  13.396
22633W        W89042  36.489   6.422  12.475
22634W        W89043  20.903   3.608   1.258
22635W        W89044  34.480  19.380   3.672
22636W        W89045  44.801  36.037   5.096
22637W        W89046  20.279   9.789  12.252
22638W        W89047   6.238   2.245  14.331
22639W        W89048  35.107  29.678  11.614
22640W        W89049  30.370  25.143  13.403
22641W        W89050  12.052   1.345   3.098
22642W        W89051  20.264   0.979  10.686
22643W        W89052  19.402  39.970  11.494
22644W        W89053  27.079  23.420  11.601
22645W        W89054  40.039  31.126   3.361
22646W        W89055  28.363  28.332   4.981
22647W        W89056  20.399  31.698   5.161
22648W        W89057  38.868   8.803   2.143
22649W        W89058  29.487  31.696  13.890
22650W        W89059  39.422   4.263   3.597
22651W        W89060  29.198  28.634  12.964
22652W        W89061  42.124   1.361   1.127
22653W        W89062  27.186   4.264  12.003
22654W        W89063  35.787  10.576   0.374
22655W        W89064  14.409  36.536   0.724
22656W        W89065  34.195   2.409  12.614
22657W        W89066   1.453  38.440   4.281
22658W        W89067  44.901  44.942   1.274
22659W        W89068   5.834   3.198  11.026
22660W        W89069  14.172  36.413   4.631
22661W        W89070  16.736  24.485   3.244
22662W        W89071  20.129  11.804  14.243
22663W        W89072  21.445  42.810   2.777
22664W        W89073   7.258  33.953  11.414
22665W        W89074  14.582  30.973   0.906
22666W        W89075  37.714  29.491  12.874
22667W        W89076  34.911   8.286   2.360
22668W        W89077  10.049   7.577  12.528
22669W        W89078   8.513  41.901  14.059
22670W        W89079   4.648   4.114   4.133
22671W        W89080  34.381  41.500  14.500
22672W        W89081  33.698  32.451   3.710
22673W        W89082  13.270   4.923  14.845
22674W        W89083  41.448  21.177   0.374
22675W        W89084  36.528  12.161  11.689
22676W        W89085  19.424   8.325   2.342
22677W        W89086  13.669  24.028   0.709
22678W        W89087  34.359  38.490   3.965
22679W        W89088  17.326  19.171  10.713
22680W        W89089   8.101  31.071  10.521
22681W        W89090  44.662  12.186  11.580
22682W        W89091  23.495  31.611   0.856
22683W        W89092   6.460  11.946  13.845
22684W        W89093  31.037  23.190  14.273
22685W        W89094  30.418  40.562   1.845
22686W        W89095  36.829  21.711   2.741
22687W        W89096  21.732  18.824  12.003
22688W        W89097  30.591  21.260  12.424
22689W        W89098  27.788  25.174   1.622
22690W        W89099  40.294  38.773   4.382
22691W        W89100   1.883  31.714   3.552
22692W        W89101   1.320   2.461  14.759
22693W        W89102   7.664   9.085   2.266
22694W        W89103  20.227  35.930   1.837
22695W        W89104   0.777   5.459  12.542
22696W        W89105  44.481   6.775   2.591
22697W        W89106  21.708  16.856  13.516
22698W        W89107   4.634  24.000   5.197
22699W        W89108  33.601  12.106   0.535
22700W        W89109  41.947  29.575  14.430
22701W        W89110  39.489  44.967   4.298
22702W        W89111   9.663  39.991   2.890
22703W        W89112  40.024   5.747  10.715
22704W        W89113  20.681  27.529   0.959
22705W        W89114  12.628  16.778  14.608
22706W        W89115   5.675  18.967  11.789
22707W        W89116  25.262  28.015   0.875
22708W        W89117  25.795  11.826  12.475
22709W        W89118  26.252   2.466   4.277
22710W        W89119   9.902   9.608  12.451
22711W        W89120  11.630  23.942  11.307
22712W        W89121   6.698  44.067  13.016
22713W        W89122  44.477  28.647  12.821
22714W        W89123   9.605  37.499   3.208
22715W        W89124   7.332  22.103  12.893
22716W        W89125   5.924  23.634   1.212
22717W        W89126   5.258  18.430  13.695
22718W        W89127  27.418   5.372  13.306
22719W        W89128  30.360  37.167   1.583
22720W        W89129  14.802  32.725  12.413
22721W        W89130  39.810  18.649  11.769
22722W        W89131  35.004  27.422   2.787
22723W        W89132  32.511  39.786  14.442
22724W        W89133  29.141  32.290  13.423
22725W        W89134  20.846  29.113   0.938
22726W        W89135  40.547  21.013   1.356
22727W        W89136  34.152  14.573   2.741
22728W        W89137   5.412  32.346   1.865
22729W        W89138  13.195  42.136  13.978
22730W        W89139  27.982  39.234  10.720
22731W        W89140  35.548  41.257  13.025
22732W        W89141  25.998  15.345  11.529
22733W        W89142  42.406   7.252  14.838
22734W        W89143  25.525  27.983   4.183
22735W        W89144   0.316  24.213   3.204
22736W        W89145  13.020  12.033   5.061
22737W        W89146  11.280  22.745   1.052
22738W        W89147  37.275   8.682  12.363
22739W        W89148  34.380  39.951  13.434
22740W        W89149  21.039  12.223   4.519
22741W        W89150   3.927  23.038  12.433
22742W        W89151  13.725  37.066   1.697
22743W        W89152  24.689   4.783   1.276
22744W        W89153   2.757  20.524  10.769
22745W        W89154   6.233   4.469   2.371
22746W        W89155   6.943  32.592   1.653
22747W        W89156  19.231  37.527  10.721
22748W        W89157   9.991  38.626   2.755
22749W        W89158  33.600  44.425   1.357
22750W        W89159  22.227   6.710  14.954
22751W        W89160  27.244  43.020  10.304
22752W        W89161   6.950  25.600   3.584
22753W        W89162  42.192   5.713  12.972
22754W        W89163  14.634   8.183  12.493
22755W        W89164  21.012  14.756  12.955
22756W        W89165  24.585  26.448  10.647
22757W        W89166  10.319  12.211  12.919
22758W        W89167  16.055   6.354   3.341
22759W        W89168  33.874  33.811  11.457
22760W        W89169  31.913   9.709  12.465
22761W        W89170  44.676  13.235   2.673
22762W        W89171  43.822  25.509   1.700
22763W        W89172  41.192   9.695   0.615
22764W        W89173  16.279  26.185   0.851
22765W        W89174  28.525   9.795   2.223
22766W        W89175  42.087  22.724  12.468
22767W        W89176  33.796  10.254   1.333
22768W        W89177  29.029  24.977   1.328
22769W        W89178  31.128  17.134  12.411
22770W        W89179  24.248  22.804  12.975
22771W        W89180  37.292  17.099  14.765
22772W        W89181  38.348  29.128   0.304
22773W        W89182  21.202  13.681   3.390
22774W        W89183  36.862   1.844   2.422
22775W        W89184  18.086  41.784  10.719
22776W        W89185  28.685  36.505   2.338
22777W        W89186   1.493   1.924   2.232
22778W        W89187  22.923   9.373   4.049
22779W        W89188  21.004   0.859   4.726
22780W        W89189  39.591  21.127   4.571
22781W        W89190   0.406  36.954  12.037
22782W        W89191  22.183   8.850  11.604
22783W        W89192  26.522  31.409  14.631
22784W        W89193  13.559  27.036   1.177
22785W        W89194  25.719  42.783   3.559
22786W        W89195  32.323  37.892   1.868
22787W        W89196  39.269   7.676  13.293
22788W        W89197  37.940  42.999   3.716
22789W        W89198  17.677   0.275  10.714
22790W        W89199  43.215  13.256   3.176
22791W        W89200  27.809  34.026  12.412
22792W        W89201  23.382  26.508  11.106
22793W        W89202  16.172   9.854  10.775
22794W        W89203   7.575  25.145  13.508
22795W        W89204  44.763  25.351   2.995
22796W        W89205  29.278   5.107  14.965
22797W        W89206  41.809  15.660  10.765
22798W        W89207  16.005  19.063  11.194
22799W        W89208  29.430  35.817  12.378
22800W        W89209  41.335   0.423   4.321
22801W        W89210  43.352  22.621   3.423
22802W        W89211  33.650   7.098   1.233
22803W        W89212   5.238  20.319   4.759
22804W        W89213  44.385   2.501   3.558
22805W        W89214  13.782  31.737   1.802
22806W        W89215  39.945  23.219   3.145
22807W        W89216  21.952  31.438  12.031
22808W        W89217  18.649  24.638  13.197
22809W        W89218  20.177  17.810   3.970
22810W        W89219  37.135   9.213  13.413
22811W        W89220  43.828  15.844   3.656
22812W        W89221  10.813   5.767  10.343
22813W        W89222  37.872  36.057   2.844
22814W        W89223  44.485   0.360   4.374
22815W        W89224  12.194  26.575   5.039
22816W        W89225   7.777  14.620   4.697
22817W        W89226   4.347  30.230  14.369
22818W        W89227  36.032  21.694   1.773
22819W        W89228  23.096  36.683   4.207
22820W        W89229  13.458  30.634   1.134
22821W        W89230  27.703  22.660   2.522
22822W        W89231  33.956  23.543  12.803
22823W        W89232  20.288  22.025   0.509
22824W        W89233   1.915   1.653   1.362
22825W        W89234   8.758  24.785  14.242
22826W        W89235  39.539  25.143   5.056
22827W        W89236  20.022  41.450   4.470
22828W        W89237  17.390  42.311  10.728
22829W        W89238   9.896  16.117  13.952
22830W        W89239   1.715  24.635  14.952
22831W        W89240  20.244  14.288   1.412
22832W        W89241  14.794  29.246   4.634
22833W        W89242   7.232  38.565   1.071
22834W        W89243  13.076  21.055   5.088
22835W        W89244   1.232  42.777  12.913
22836W        W89245   1.282   3.910   0.829
22837W        W89246  25.749  37.508   4.588
22838W        W89247  44.463  38.899   4.939
22839W        W89248  12.799  12.280  13.096
22840W        W89249  42.109  17.179   1.803
22841W        W89250  22.496  35.832  14.879
22842W        W89251  17.045  27.568   4.226
22843W        W89252  29.630   9.367  11.345
22844W        W89253  12.067   9.144   3.642
22845W        W89254  31.906  18.920   3.602
22846W        W89255  16.635   6.226  12.370
22847W        W89256   6.820  10.369   4.145
22848W        W89257  16.292   9.057  13.999
22849W        W89258  12.168  27.975   1.712
22850W        W89259  20.667  30.519   1.323
22851W        W89260  25.195  23.311  10.153
22852W        W89261  21.922  43.520   1.391
22853W        W89262   5.453  17.514  10.795
22854W        W89263  31.908  29.389  11.728
22855W        W89264  37.628  31.837   0.511
22856W        W89265  34.061  20.832   0.437
22857W        W89266  10.118   5.412  11.797
22858W        W89267   8.002  29.519  13.106
22859W        W89268  39.095  42.927  10.627
22860W        W89269  43.033   8.277  12.474
22861W        W89270  40.197   4.759  13.523
22862W        W89271  30.564  41.457  10.841
22863W        W89272  18.121  10.659   3.375
22864W        W89273  22.295   4.860   3.566
22865W        W89274  12.648  11.472   4.672
22866W        W89275  15.269  17.475  12.523
22867W        W89276  13.579  32.135   4.161
22868W        W89277  13.679  43.930  11.574
22869W        W89278  27.832   3.412   3.258
22870W        W89279  32.838  42.818  14.443
22871W        W89280   3.382  20.203   2.528
22872W        W89281  23.249  13.124   4.679
22873W        W89282  11.990   1.650  10.805
22874W        W89283  25.629  23.255  13.453
22875W        W89284  19.755  27.438   1.450
22876W        W89285  25.339  16.236  11.683
22877W        W89286  35.968  23.706  11.194
22878W        W89287  13.502  34.392  11.931
22879W        W89288  34.089  42.324  12.909
22880W        W89289  28.821  15.289   3.415
22881W        W89290  33.530  36.388  12.765
22882W        W89291   3.985   0.617   3.104
22883W        W89292  17.606   9.360  12.158
22884W        W89293  15.724   0.302  14.863
22885W        W89294   8.966  43.294   3.251
22886W        W89295  33.561  38.093  13.533
22887W        W89296  13.368   5.857   0.331
22888W        W89297  13.691   9.684   3.067
22889W        W89298  37.901  29.476   2.926
22890W        W89299  38.323  28.910  11.862
22891W        W89300  29.893  42.016  14.308
22892W        W89301   7.230  26.581   0.910
22893W        W89302  24.975  41.688   2.859
22894W        W89303  10.783   7.325   0.557
22895W        W89304  18.655   0.578   2.373
22896W        W89305  35.571  18.889   0.555
22897W        W89306  25.691  42.017   3.172
22898W        W89307   3.418  24.404  11.529
22899W        W89308  21.281  29.090  14.001
22900W        W89309  20.670   9.687   3.756
22901W        W89310  21.076  31.988  12.051
22902W        W89311  39.321  30.944   2.298
22903W        W89312  27.636  36.568   2.304
22904W        W89313   9.055  22.068  13.941
22905W        W89314  12.121   2.216  13.490
22906W        W89315   7.115  41.512  11.688
22907W        W89316  18.508  38.539  10.638
22908W        W89317  11.393  17.397  11.917
22909W        W89318  41.856  19.560  10.702
22910W        W89319  26.388  15.622   3.027
22911W        W89320  43.902  14.667  13.571
22912W        W89321  21.889   4.615   1.215
22913W        W89322  42.983  18.259   1.370
22914W        W89323  24.587  21.617   3.444
22915W        W89324   7.433  18.168  10.613
22916W        W89325  28.525  23.272  13.102
22917W        W89326  26.375  41.537  14.562
22918W        W89327   3.372  28.273  13.090
22919W        W89328  22.553   0.264   3.554
22920W        W89329  32.952  25.519   3.662
22921W        W89330   4.983  31.402  10.309
22922W        W89331  22.212  40.175   4.519
22923W        W89332  33.584  44.359  10.676
22924W        W89333  33.321  42.020   3.146
22925W        W89334   0.876  34.771  12.392
22926W        W89335  19.747   1.607  12.607
22927W        W89336  27.200  10.724  10.714
22928W        W89337   7.641  17.662   3.902
22929W        W89338   9.415  24.647  11.943
22930W        W89339   0.546   5.201  12.098
22931W        W89340  44.409  20.997   3.769
22932W        W89341  35.988  12.414   0.076
22933W        W89342  43.254  14.242   3.154
22934W        W89343   3.537  38.022  14.324
22935W        W89344   5.978   4.210  12.940
22936W        W89345  39.408  26.285  12.578
22937W        W89346  23.458   3.628  13.462
22938W        W89347  36.168  24.086   3.180
22939W        W89348   9.574  21.125   0.343
22940W        W89349  20.058   1.206  11.885
22941W        W89350  39.994  40.970   4.066
22942W        W89351  19.491  40.486   3.182
22943W        W89352   9.516   3.857   5.017
22944W        W89353  14.321   1.034   5.247
22945W        W89354   6.665  34.128   4.359
22946W        W89355   4.061   4.857  10.661
22947W        W89356  40.530   6.333  12.509
22948W        W89357  29.883  37.619   0.857
22949W        W89358  26.043  31.485  14.423
22950W        W89359  15.853  17.286  11.072
22951W        W89360  44.411  34.443   4.135
22952W        W89361  36.415  31.228   4.230
22953W        W89362  25.549  41.434   4.105
22954W        W89363  18.772  41.381  13.993
22955W        W89364  35.616  32.198  13.505
22956W        W89365   0.376  19.322   0.368
22957W        W89366  18.778  29.458   1.265
22958W        W89367  15.727   3.807  10.912
22959W        W89368  23.734  10.122   0.352
22960W        W89369  41.345  19.626  10.660
22961W        W89370  15.215  28.616   4.188
22962W        W89371  18.672  35.667  13.452
22963W        W89372   8.874   1.236   3.329
22964W        W89373  20.286  34.309   0.870
22965W        W89374   2.244   6.696   0.303
22966W        W89375  26.228  14.633   4.252
22967W        W89376  28.212  40.450   4.647
22968W        W89377  44.290  22.737   3.283
22969W        W89378  42.227  13.415   2.204
22970W        W89379  16.713   9.212  10.659
22971W        W89380   4.653  24.813  12.059
22972W        W89381  40.840   3.225  11.697
22973W        W89382   6.880  10.652   4.580
22974W        W89383  33.416  37.790   1.294
22975W        W89384  22.216  25.715  13.104
22976W        W89385  22.018  42.326   0.083
22977W        W89386  17.835  42.722   1.187
22978W        W89387   2.823   8.614   1.369
22979W        W89388  42.460  27.014  12.598
22980W        W89389   9.707   7.833  14.273
22981W        W89390   9.759  13.539   0.211
22982W        W89391  28.958   5.875  14.411
22983W        W89392   5.725  17.757   4.412
22984W        W89393  14.805  36.452   5.445
22985W        W89394  41.623  12.574   4.933
22986W        W89395  28.160   6.029   1.229
22987W        W89396  16.385  38.261  12.047
22988W        W89397  42.304  28.798   0.641
22989W        W89398   8.694  15.336   1.398
22990W        W89399   0.442  44.937   1.282
22991W        W89400  30.066  30.943   1.606
22992W        W89401  34.372  21.002   2.938
22993W        W89402  40.438  23.083   2.678
22994W        W89403  26.750  34.985   1.084
22995W        W89404  17.778  16.393   0.026
22996W        W89405  34.329  43.489  11.179
22997W        W89406  43.208  40.884   0.458
22998W        W89407  13.600  32.166  11.519
22999W        W89408   8.324  14.544  11.695
23000W        W89409  13.113   2.431  13.383
23001W        W89410  31.332  13.183  13.909
23002W        W89411  29.940  42.616   3.023
23003W        W89412  38.824  27.529   1.408
23004W        W89413  42.521  33.638  14.046
23005W        W89414  36.088  39.831  14.831
23006W        W89415  37.558  26.166  13.414
23007W        W89416   7.632  30.225  10.717
23008W        W89417  43.352  43.979  11.616
23009W        W89418  15.073   2.723  11.954
23010W        W89419   4.052  19.422   1.007
23011W        W89420  15.665  35.505   3.868
23012W        W89421  24.195  14.362  11.740
23013W        W89422  14.067  19.653  13.464
23014W        W89423  39.383  27.765  13.405
23015W        W89424   4.200  41.787  11.033
23016W        W89425  33.044  17.428   4.113
23017W        W89426   5.784  35.279   3.209
23018W        W89427  24.487  23.341   3.690
23019W        W89428  38.695   5.803  12.392
23020W        W89429   2.758  23.722   2.675
23021W        W89430  25.297   3.757   0.149
23022W        W89431  24.287  19.221   4.151
23023W        W89432  34.055  35.976  14.273
23024W        W89433  22.778   8.653   0.232
23025W        W89434  25.191  10.392  12.949
23026W        W89435  42.756   1.678  13.843
23027W        W89436  34.600   6.662   2.651
23028W        W89437  31.486  10.742   2.439
23029W        W89438  39.144  37.736  10.483
23030W        W89439  29.169  34.872   2.316
23031W        W89440  16.497  22.528  14.738
23032W        W89441  34.005  14.185  14.810
23033W        W89442  13.348  12.592  13.698
23034W        W89443   5.783  19.695   1.975
23035W        W89444  16.908   5.205   3.888
23036W        W89445  27.511  24.989  10.852
23037W        W89446  30.236   6.813  11.526
23038W        W89447  21.921  29.624   4.117
23039W        W89448   9.122  36.732  11.475
23040W        W89449   8.391   6.344  13.400
23041W        W89450  29.675  27.123  12.479
23042W        W89451  34.425   2.427   0.664
23043W        W89452  19.779   0.786  10.762
23044W        W89453  21.256  16.686   2.399
23045W        W89454  34.503  37.286   2.909
23046W        W89455  32.608  20.103  13.507
23047W        W89456   4.117  23.311   2.647
23048W        W89457  34.642  13.093   1.082
23049W        W89458  36.523  34.982   1.234
23050W        W89459  22.409  41.046  12.303
23051W        W89460  43.334  36.090  12.535
23052W        W89461   2.792  31.034   4.725
23053W        W89462  23.908  35.829  13.438
23054W        W89463  39.378   9.677  11.878
23055W        W89464   0.090  27.491  13.091
23056W        W89465  35.605  19.337  12.744
23057W        W89466  25.168  39.777  14.442
23058W        W89467   4.367   7.176   0.342
23059W        W89468  37.322  24.269  13.989
23060W        W89469   9.153  20.153  14.539
23061W        W89470  34.482  14.610   4.907
23062W        W89471  37.440   7.328  13.444
23063W        W89472  10.908  19.629   4.622
23064W        W89473  11.619  15.831   4.959
23065W        W89474   0.057   5.789  10.568
23066W        W89475   9.337  35.072  13.372
23067W        W89476  33.887  27.152   3.349
23068W        W89477   1.538  39.192   0.521
23069W        W89478  25.758  40.720  13.833
23070W        W89479  36.065  20.738   1.987
23071W        W89480  17.679   1.050   4.017
23072W        W89481  41.247  16.189  14.422
23073W        W89482  39.449  40.255   4.309
23074W        W89483  22.900  44.291  12.367
23075W        W89484  32.773  34.801   0.841
23076W        W89485  40.986  42.558   1.430
23077W        W89486   1.915  16.001   1.876
23078W        W89487   3.872   5.707  12.115
23079W        W89488  12.231  21.914  11.803
23080W        W89489  43.904  44.221  12.981
23081W        W89490  37.151  36.104   1.121
23082W        W89491   5.463  29.089  12.399
23083W        W89492  34.700  24.474  14.492
23084W        W89493  44.986  40.531   3.599
23085W        W89494  15.670  42.329  10.388
23086W        W89495  35.876   0.530   0.369
23087W        W89496  23.821   0.446  13.371
23088W        W89497  22.252  27.083  14.049
23089W        W89498   8.675   2.379   4.174
23090W        W89499  13.402  41.070   0.318
23091W        W89500   8.325   3.231  13.441
23092W        W89501  31.249  10.908   3.735
23093W        W89502   2.059  25.433  12.388
23094W        W89503  22.083   3.681  13.465
23095W        W89504  36.145  24.168   4.505
23096W        W89505  36.469  18.142   1.483
23097W        W89506  28.899  25.612  10.927
23098W        W89507  13.528  36.900   4.728
23099W        W89508  42.929  22.197   1.839
23100W        W89509  40.447  33.800  14.223
23101W        W89510  12.979  11.916   3.710
23102W        W89511  26.671  41.999  13.004
23103W        W89512  28.181  22.718   1.397
23104W        W89513  30.108  39.251   4.058
23105W        W89514   7.994   7.643   4.895
23106W        W89515  23.994  13.441   0.485
23107W        W89516   0.283   9.861   0.351
23108W        W89517  42.497  26.664  13.499
23109W        W89518   5.809   9.015  12.019
23110W        W89519  25.271  30.053   3.190
23111W        W89520  22.494  39.000   1.902
23112W        W89521  14.190  22.597   0.613
23113W        W89522  25.125  38.591  14.985
23114W        W89523  44.687  38.804   0.073
23115W        W89524  35.026  11.818  14.405
23116W        W89525  22.246   3.313   2.509
23117W        W89526  10.104  10.086  13.915
23118W        W89527  39.587  42.424   1.898
23119W        W89528  38.839   1.429   1.775
23120W        W89529  37.880   6.690  12.938
23121W        W89530  23.604  28.596   2.674
23122W        W89531  33.257  33.955  14.886
23123W        W89532  11.660  35.067   3.164
23124W        W89533  13.769  25.584  13.277
23125W        W89534  29.741  39.797   2.945
23126W        W89535  31.692   7.176  10.514
23127W        W89536  43.796  27.470   4.632
23128W        W89537  27.966  17.158   3.302
23129W        W89538  27.942  40.788   3.660
23130W        W89539   8.519  34.897   2.006
23131W        W89540  43.472  44.588   9.769
23132W        W89541  20.638  36.987  11.914
23133W        W89542  31.170  14.089  10.233
23134W        W89543  43.810  33.891  11.451
23135W        W89544   0.226  38.137  13.859
23136W        W89545   6.384   5.062  13.468
23137W        W89546  21.918  36.860  12.922
23138W        W89547   7.446  41.284  13.456
23139W        W89548  20.998   1.246  11.095
23140W        W89549   1.631  17.855   2.379
23141W        W89550  15.050  35.903   0.823
23142W        W89551   8.186  12.665  14.171
23143W        W89552  13.448  16.150  12.499
23144W        W89553  43.793  11.108  14.318
23145W        W89554  37.377  23.798   2.340
23146W        W89555  13.819   2.590  13.911
23147W        W89556  33.436  31.617   3.258
23148W        W89557  12.736  42.773   1.868
23149W        W89558  28.728  12.299  14.649
23150W        W89559  44.200  17.303   0.740
23151W        W89560   6.339  43.359   0.711
23152W        W89561   4.300  24.849  13.267
23153W        W89562   5.384  18.252   1.997
23154W        W89563  26.073  25.725  12.657
23155W        W89564  43.481  34.860   1.672
23156W        W89565   4.776  16.774   4.073
23157W        W89566  26.262   2.712  12.408
23158W        W89567   1.404  20.620  12.822
23159W        W89568  10.404  30.947  14.333
23160W        W89569   6.153   5.379  13.880
23161W        W89570  19.009  36.444  13.632
23162W        W89571  28.658  38.015   2.757
23163W        W89572   3.753  35.095  14.961
23164W        W89573  14.446  39.498  13.809
23165W        W89574  36.080  44.929  13.421
23166W        W89575  19.485  43.981   2.616
23167W        W89576  19.492  32.879   2.778
23168W        W89577   3.753  19.206  12.017
23169W        W89578  43.316  39.170  12.454
23170W        W89579  37.246  30.490  11.056
23171W        W89580  35.631  43.592   2.205
23172W        W89581  27.192  23.600   1.398
23173W        W89582  34.696  23.646  13.903
23174W        W89583  11.376  14.907   0.739
23175W        W89584  40.335   7.077   4.117
23176W        W89585  27.589  27.929  12.512
23177W        W89586  15.604  24.976   3.608
23178W        W89587  33.530  10.647  12.063
23179W        W89588   5.808  21.121   1.904
23180W        W89589   9.590   8.299  11.607
23181W        W89590  42.714   4.874  11.503
23182W        W89591  35.978  17.441   9.820
23183W        W89592  34.892  30.987  12.930
23184W        W89593  38.636  22.687   0.995
23185W        W89594  29.191  18.596  14.037
23186W        W89595  44.745  24.649   0.909
23187W        W89596  44.982   7.123   4.025
23188W        W89597   6.464  17.020   1.610
23189W        W89598  28.637  21.610  11.052
23190W        W89599   2.768  13.130  12.020
23191W        W89600  21.994  40.252   0.388
23192W        W89601  20.166  31.353   0.320
23193W        W89602  33.824  30.508  12.599
23194W        W89603  21.096  37.010  14.860
23195W        W89604  15.312  43.399   4.955
23196W        W89605   5.242   9.129  13.320
23197W        W89606  44.723   0.531   2.321
23198W        W89607  26.455   0.481   1.544
23199W        W89608  42.926  24.158  13.344
23200W        W89609  32.968  40.936  11.636
23201W        W89610   3.740  35.136  12.066
23202W        W89611  16.076  33.158   4.442
23203W        W89612  39.441  14.586  14.511
23204W        W89613  42.924  40.280  11.500
23205W        W89614  43.329   7.390   0.300
23206W        W89615  44.412  13.325   3.144
23207W        W89616  26.030  23.796   2.279
23208W        W89617  21.912   0.731  11.958
23209W        W89618   5.781  21.831   2.741
23210W        W89619  40.867  19.196   4.529
23211W        W89620  42.315  10.595  13.864
23212W        W89621  21.765   7.986  12.253
23213W        W89622  14.855  39.674   5.008
23214W        W89623  31.403   1.802   5.082
23215W        W89624   2.473  20.864  13.854
23216W        W89625  33.941  22.538  14.886
23217W        W89626  10.737   4.711  13.579
23218W        W89627  11.095   7.417   4.470
23219W        W89628  15.781  31.534  14.382
23220W        W89629  18.337  37.639   1.948
23221W        W89630   2.500  25.090   4.186
23222W        W89631  37.043  34.981   4.108
23223W        W89632  14.794  44.285   0.969
23224W        W89633  19.709   5.435  11.064
23225W        W89634  11.114  14.303  13.480
23226W        W89635  34.983  18.852   2.363
23227W        W89636  35.844  42.482  14.787
23228W        W89637  38.315  41.345  14.013
23229W        W89638   1.071  29.975  14.931
23230W        W89639  10.023  16.504  14.250
23231W        W89640  15.796   7.668   2.882
23232W        W89641  23.095  21.154  10.330
23233W        W89642  31.103  21.991  12.594
23234W        W89643   2.748   1.664  11.395
23235W        W89644  41.897  41.175  11.055
23236W        W89645  43.237  24.990  12.974
23237W        W89646  36.492   9.176   1.750
23238W        W89647  41.718  18.958   0.409
23239W        W89648  19.732  25.642  12.191
23240W        W89649  33.489  16.052   0.407
23241W        W89650   2.069  35.690   1.918
23242W        W89651  44.712  18.073   0.678
23243W        W89652   5.096   2.649   2.289
23244W        W89653   9.272  18.045  14.894
23245W        W89654  25.452   3.377   3.361
23246W        W89655  37.445  18.596  14.998
23247W        W89656  19.090   9.158  12.842
23248W        W89657   2.587  38.810  14.739
23249W        W89658   3.476  22.227  11.983
23250W        W89659  10.670  43.530  11.134
23251W        W89660   2.391  28.429   2.391
23252W        W89661  12.730  23.528   4.108
23253W        W89662   4.422  33.342  12.624
23254W        W89663   7.622  30.957   0.004
23255W        W89664  38.517  14.679   1.459
23256W        W89665  33.432  27.345  14.771
23257W        W89666  29.494  39.827  11.197
23258W        W89667  40.095  41.130   0.747
23259W        W89668  36.882  22.183  11.892
23260W        W89669  21.650  37.405   5.067
23261W        W89670  15.681   4.905   4.089
23262W        W89671  13.397  36.012  12.806
23263W        W89672  29.714   5.315  14.764
23264W        W89673  33.183   4.981  10.681
23265W        W89674  41.555  39.874   1.331
23266W        W89675  43.777  11.901  14.602
23267W        W89676  42.043  41.794  12.853
23268W        W89677  19.024  23.619   0.889
23269W        W89678  38.275  14.030   2.461
23270W        W89679   0.961  17.688  14.409
23271W        W89680  24.248   7.727   2.647
23272W        W89681  15.055  40.917   1.014
23273W        W89682  38.436  10.771  14.925
23274W        W89683  25.969  40.337   3.616
23275W        W89684   8.097  31.987  10.245
23276W        W89685  25.222   1.053   4.658
23277W        W89686  35.291  38.644   3.763
23278W        W89687  17.762  34.374  12.139
23279W        W89688  41.487   1.304   3.814
23280W        W89689   9.292  26.396   1.849
23281W        W89690  36.566  11.614  10.044
23282W        W89691  31.055   3.178   0.519
23283W        W89692  40.069   6.108  14.401
23284W        W89693  40.749  14.644   0.377
23285W        W89694  27.612  26.746   5.137
23286W        W89695  18.402   4.160   3.102
23287W        W89696   7.129   5.674  11.974
23288W        W89697  16.070   1.458   2.703
23289W        W89698  27.925   0.423   4.274
23290W        W89699  35.321  36.556   3.626
23291W        W89700   3.683  33.437  12.128
23292W        W89701  38.597  17.379   1.839
23293W        W89702  31.436  16.511  12.998
23294W        W89703  40.989  22.664  14.312
23295W        W89704  23.673  33.122  13.893
23296W        W89705  35.864  15.082   1.130
23297W        W89706  43.053  10.742   2.315
23298W        W89707  39.302   8.490  13.512
23299W        W89708   8.984  24.637   0.289
23300W        W89709  36.436  11.233  13.014
23301W        W89710   8.740  13.194   0.294
23302W        W89711   3.887  40.922   3.114
23303W        W89712  20.974  18.020  14.897
23304W        W89713  43.505  34.824   2.206
23305W        W89714  12.055  27.180   1.507
23306W        W89715  13.287  43.927  10.897
23307W        W89716  39.029  26.967  14.800
23308W        W89717  15.797  24.082   9.867
23309W        W89718   0.738  43.257  11.202
23310W        W89719  29.228  13.843   3.647
23311W        W89720  44.956  16.186   1.898
23312W        W89721   4.504  17.669  11.363
23313W        W89722  20.809  38.419   3.147
23314W        W89723  12.279  36.393   3.381
23315W        W89724   4.812   1.715   4.720
23316W        W89725  41.960  33.889  10.500
23317W        W89726   6.693   4.801   2.860
23318W        W89727  17.536  13.170  14.393
23319W        W89728  10.929   3.347   1.300
23320W        W89729   8.228  25.778   3.717
23321W        W89730   5.562  26.879  13.149
23322W        W89731  20.445  18.784   0.686
23323W        W89732   0.577  27.905  10.021
23324W        W89733  10.767   3.030   0.447
23325W        W89734  33.455  43.492   1.353
23326W        W89735  41.414  44.804  12.574
23327W        W89736  22.998  28.445   0.809
23328W        W89737  30.664  35.664   4.362
23329W        W89738  41.818  23.030   1.451
23330W        W89739   2.458   6.342   9.820
23331W        W89740  11.947  27.295  10.682
23332W        W89741   3.448  27.454   4.007
23333W        W89742  22.502   2.273   0.996
23334W        W89743  39.421  25.060   0.223
23335W        W89744  36.760  39.394   1.267
23336W        W89745  20.621  40.843  13.903
23337W        W89746  11.225   9.568   3.715
23338W        W89747   7.584   2.371  13.984
23339W        W89748  38.781  23.180   0.891
23340W        W89749  29.676   9.125  13.635
23341W        W89750   1.858  17.221   4.084
23342W        W89751  27.021  38.610   0.100
23343W        W89752   6.385  26.899  10.760
23344W        W89753  17.646  20.461   2.700
23345W        W89754  19.453   3.860  14.920
23346W        W89755   4.968  26.914  11.181
23347W        W89756  21.681  23.582   2.167
23348W        W89757  34.106  42.038  11.494
23349W        W89758  15.160  29.472  14.285
23350W        W89759  29.701  17.014   2.341
23351W        W89760  26.062  12.594  13.943
23352W        W89761  13.529  32.995  14.435
23353W        W89762  38.671  11.366  13.075
23354W        W89763  38.384  31.086  12.473
23355W        W89764  35.608  40.515  13.418
23356W        W89765  17.742  41.228  10.247
23357W        W89766  32.675   6.812  14.258
23358W        W89767  44.056  26.412  14.970
23359W        W89768   9.705  35.306  13.944
23360W        W89769  37.844   1.726   0.485
23361W        W89770  27.912  30.590   5.095
23362W        W89771  28.160  25.634   4.674
23363W        W89772  32.213  42.485  12.799
23364W        W89773  39.895  21.597   4.092
23365W        W89774   2.479   3.448  10.875
23366W        W89775  32.113  14.855   5.283
23367W        W89776  15.572  36.364   3.641
23368W        W89777  32.920  42.484  12.724
23369W        W89778   1.889  40.324  12.041
23370W        W89779   1.870  33.633   4.997
23371W        W89780  38.330   8.737  13.438
23372W        W89781  44.895  30.235   2.400
23373W        W89782  41.735  28.638   3.527
23374W        W89783  19.207  38.270   1.771
23375W        W89784   8.170  12.956  13.135
23376W        W89785  41.342  19.513  12.271
23377W        W89786   3.752   5.192   4.124
23378W        W89787   3.288   0.813   4.164
23379W        W89788  13.682   1.786  11.950
23380W        W89789  30.474  13.029  11.173
23381W        W89790  25.231   3.500   3.829
23382W        W89791   1.896  19.653   3.695
23383W        W89792  22.457  12.668   1.819
23384W        W89793  42.932  14.693  11.874
23385W        W89794   7.943  14.669  14.468
23386W        W89795   0.966  32.157  13.918
23387W        W89796  43.494  33.944   2.186
23388W        W89797  26.582   6.922  12.104
23389W        W89798  44.964  31.916  13.966
23390W        W89799   8.768  10.791  11.077
23391W        W89800  11.294   6.172   0.648
23392W        W89801  39.141   2.117   0.416
23393W        W89802  10.327  34.889   1.852
23394W        W89803  28.600  20.742  12.165
23395W        W89804   7.203  33.877  10.835
23396W        W89805   7.254  26.943   2.141
23397W        W89806  26.036  32.483   0.968
23398W        W89807  24.743  14.759   2.104
23399W        W89808  22.667  12.611   2.695
23400W        W89809  31.110   9.763  12.012
23401W        W89810   3.516   0.377   2.287
23402W        W89811  32.401  26.600   0.548
23403W        W89812  28.155  21.676   9.396
23404W        W89813  28.034   2.989   2.852
23405W        W89814   6.084  20.621   4.113
23406W        W89815  14.810  37.020   3.570
23407W        W89816  33.600  42.546   4.740
23408W        W89817  20.189   7.827   0.379
23409W        W89818  25.816  44.323   1.186
23410W        W89819  32.932  38.646   2.883
23411W        W89820  30.661  36.459  12.543
23412W        W89821   6.347  16.212  14.384
23413W        W89822  20.990  44.914   4.962
23414W        W89823  22.056  25.500   4.498
23415W        W89824   0.826  17.310  12.867
23416W        W89825  22.527  19.002  14.375
23417W        W89826  42.164  42.966  14.308
23418W        W89827  28.941  21.614   2.285
23419W        W89828   9.092  15.252   1.750
23420W        W89829  21.097  24.106  14.660
23421W        W89830   7.045  36.927   4.958
23422W        W89831  40.756  37.380   2.649
23423W        W89832  37.972   8.423  11.641
23424W        W89833  39.516  41.841  12.071
23425W        W89834  39.519   1.521  11.066
23426W        W89835  22.001  43.396   3.173
23427W        W89836  19.998  40.987  10.747
23428W        W89837  15.047  41.420   3.895
23429W        W89838  30.697  42.306   2.723
23430W        W89839   6.762  29.973   0.044
23431W        W89840   6.234  37.973  10.560
23432W        W89841  25.605   9.231   0.621
23433W        W89842  17.336  19.523  12.025
23434W        W89843   2.992  34.638  11.215
23435W        W89844   6.725  30.560  11.170
23436W        W89845  35.525  12.668  11.087
23437W        W89846   9.003  35.110  10.673
23438W        W89847  12.161  38.511  13.359
23439W        W89848   4.218   8.424  14.054
23440W        W89849  19.599  23.233   2.092
23441W        W89850  16.021   1.218  14.450
23442W        W89851  36.037   4.435  10.664
23443W        W89852   8.493   4.892  11.428
23444W        W89853  22.691  37.883   0.777
23445W        W89854  41.409  20.001  13.617
23446W        W89855  44.456  13.723   2.746
23447W        W89856  21.061  39.878   0.208
23448W        W89857  35.109   9.643   4.121
23449W        W89858  12.690   8.663  14.940
23450W        W89859  17.035  38.418  12.174
23451W        W89860  19.015  29.034   3.273
23452W        W89861  27.969  30.833  10.171
23453W        W89862  22.235  38.505   4.805
23454W        W89863  12.725  10.684  14.968
23455W        W89864   6.331   4.691  10.472
23456W        W89865  29.469  34.763  13.762
23457W        W89866  43.925  10.922  12.482
23458W        W89867  10.353  40.914  11.639
23459W        W89868  44.086  32.189   1.225
23460W        W89869  27.614  12.348  11.508
23461W        W89870   0.390   7.616   4.731
23462W        W89871  44.229  41.380  11.229
23463W        W89872   9.870  10.000  10.985
23464W        W89873  26.161   4.944   3.052
23465W        W89874  37.364   6.360  14.794
23466W        W89875  24.898  33.092  14.878
23467W        W89876  37.866  37.525  12.098
23468W        W89877  14.250  23.077   4.696
23469W        W89878  44.510  41.432  12.224
23470W        W89879  16.867  44.988  13.456
23471W        W89880  14.151  42.925  13.407
23472W        W89881  10.586  12.120   4.179
23473W        W89882   2.293  26.058  14.611
23474W        W89883   9.995   0.304  12.461
23475W        W89884   4.446  12.705   2.216
23476W        W89885  37.660  34.991   4.191
23477W        W89886   4.367  43.109   1.718
23478W        W89887  40.926  41.742   0.653
23479W        W89888   8.016   7.109  13.078
23480W        W89889  28.795   3.484   1.836
23481W        W89890   1.742   7.868   0.781
23482W        W89891   7.629  30.649  12.636
23483W        W89892   6.960   7.817   3.791
23484W        W89893  40.985   2.800   1.389
23485W        W89894   3.558   4.180  11.268
23486W        W89895  21.003  14.594   3.291
23487W        W89896  13.619   0.974   2.744
23488W        W89897  18.274  27.660   3.602
23489W        W89898  11.510   9.261   4.914
23490W        W89899  29.564  34.446  14.895
23491W        W89900  15.296  37.329  13.030
23492W        W89901  24.032  12.622  10.318
23493W        W89902  11.156  30.851   2.843
23494W        W89903  20.031  21.792  11.056
23495W        W89904  29.349  44.978   1.791
23496W        W89905  27.868  25.085   3.151
23497W        W89906  18.403  38.999   4.279
23498W        W89907   8.293  13.684   3.697
23499W        W89908  31.045  37.498   3.738
23500W        W89909  20.770  18.766  14.872
23501W        W89910   9.587   5.425   4.532
23502W        W89911   9.664  38.413   4.101
23503W        W89912  21.160   7.613   2.232
23504W        W89913  14.052   7.335   2.314
23505W        W89914  22.449  22.105   9.796
23506W        W89915  32.440  15.065   2.887
23507W        W89916  30.668  13.732  14.355
23508W        W89917  33.895  30.608   2.638
23509W        W89918  27.873  23.738   0.742
23510W        W89919   7.168  21.038  11.127
23511W        W89920   5.315  44.528  10.608
23512W        W89921  22.969  32.999  10.750
23513W        W89922   0.363  19.730   0.689
23514W        W89923  40.564  17.350   1.965
23515W        W89924  39.723  30.230  11.573
23516W        W89925   1.283  13.675   2.365
23517W        W89926  44.270  14.655  13.928
23518W        W89927  22.258  21.186  13.368
23519W        W89928  44.618  32.850   1.271
23520W        W89929   7.402   7.141   1.723
23521W        W89930   2.463  39.826   3.655
23522W        W89931  25.071  28.642   2.708
23523W        W89932  15.660  27.683   2.842
23524W        W89933  44.842  20.607  11.137
23525W        W89934  10.762   9.554   0.825
23526W        W89935  37.139  30.760  14.507
23527W        W89936  20.558  30.964   0.824
23528W        W89937  14.793   6.520   2.098
23529W        W89938  32.310   4.038  10.829
23530W        W89939  30.437   3.870   4.078
23531W        W89940  18.063  32.237   1.719
23532W        W89941   6.785  23.137  11.239
23533W        W89942  43.595  21.959   4.107
23534W        W89943  16.653  32.172  13.961
23535W        W89944  22.282   5.035   2.664
23536W        W89945  40.362  12.247  13.535
23537W        W89946  23.769  42.975   1.221
23538W        W89947  14.840  24.106   2.112
23539W        W89948  29.029   3.612  14.758
23540W        W89949   9.920  17.482   2.812
23541W        W89950  12.865  43.884   3.299
23542W        W89951  38.975   0.485   4.887
23543W        W89952  13.186  11.538   2.242
23544W        W89953  34.593  37.920   3.196
23545W        W89954  41.492  37.386  10.571
23546W        W89955  18.195  23.017   2.939
23547W        W89956   2.148  34.872  10.073
23548W        W89957  18.974  11.242   4.172
23549W        W89958  13.850  14.090   3.207
23550W        W89959  23.171  26.468  13.316
23551W        W89960  42.989  32.900  14.875
23552W        W89961  24.159  23.207  11.990
23553W        W89962  30.078  18.824  12.517
23554W        W89963   6.954   1.869   3.608
23555W        W89964  37.936  41.901  12.699
23556W        W89965  10.051  39.405  12.347
23557W        W89966  16.207  16.585  11.556
23558W        W89967  31.501   8.147   4.177
23559W        W89968  14.174  31.987   0.819
23560W        W89969  37.390   1.935   2.549
23561W        W89970   2.928  31.864   2.209
23562W        W89971   1.659  26.929   0.913
23563W        W89972  26.742  37.921  12.566
23564W        W89973   9.839  24.144   0.495
23565W        W89974   1.941  11.711  11.572
23566W        W89975  17.309   7.150  13.112
23567W        W89976  17.543  36.582   2.366
23568W        W89977  23.314  29.027   2.726
23569W        W89978  17.974  34.895   4.155
23570W        W89979  26.467   8.516   3.339
23571W        W89980  27.108  13.661  12.955
23572W        W89981  13.857  31.882   0.160
23573W        W89982   9.947  21.073  11.843
23574W        W89983  15.082  36.490  11.277
23575W        W89984  27.985  43.319   1.765
23576W        W89985  34.547  22.807  14.361
23577W        W89986  30.997  36.924   0.890
23578W        W89987   4.732  28.163   1.871
23579W        W89988  11.490  18.217  12.433
23580W        W89989  26.962  33.019   4.582
23581W        W89990   0.293   6.427  11.300
23582W        W89991  36.656  18.208   4.188
23583W        W89992  29.675   7.404  11.058
23584W        W89993  10.866  13.132   0.364
23585W        W89994  35.859  44.191  14.026
23586W        W89995   6.938  24.527   1.191
23587W        W89996  20.005  23.046  14.458
23588W        W89997  18.580  39.180   3.326
23589W        W89998  20.569  29.114  14.990
23590W        W89999   5.206   1.564   3.987
23591W        W90000  14.608  32.344  14.928
23592W        W90001  15.270  22.473  14.070
23593W        W90002  29.655   4.269  14.996
23594W        W90003  19.222  32.681   4.809
23595W        W90004  14.290  35.095   5.103
23596W        W90005  40.355  36.792   0.465
23597W        W90006  19.768  29.103  13.559
23598W        W90007   5.075  33.588   4.095
23599W        W90008  28.254  38.072   1.542
23600W        W90009  34.421   4.247  12.913
23601W        W90010  30.241  22.107   1.812
23602W        W90011   5.331  23.066   2.414
23603W        W90012  32.714  38.214   4.056
23604W        W90013  25.434   6.645  10.665
23605W        W90014  24.772  21.534   3.913
23606W        W90015  17.689  40.369  14.695
23607W        W90016  27.712  25.120  14.359
23608W        W90017   8.012  12.340  11.967
23609W        W90018  21.829  13.814  12.428
23610W        W90019  19.787  17.791  12.034
23611W        W90020  37.028  10.087  11.289
23612W        W90021  44.430   6.164  12.432
23613W        W90022  24.062   2.457  12.736
23614W        W90023   6.225  39.246   0.994
23615W        W90024   8.692   3.535  14.462
23616W        W90025  12.501  30.389   3.969
23617W        W90026  10.611  13.848   1.736
23618W        W90027  12.262   5.368   4.639
23619W        W90028  36.625  23.159   1.903
23620W        W90029   9.583   3.907  11.532
23621W        W90030   1.006  44.571   2.694
23622W        W90031  23.497  33.213   1.125
23623W        W90032   1.365  17.150   3.537
23624W        W90033  11.277  34.921   2.194
23625W        W90034   2.748  28.138  14.311
23626W        W90035   7.877   0.464   2.785
23627W        W90036  19.542  40.529   2.251
23628W        W90037  13.645  10.559  12.543
23629W        W90038  38.570  12.507   0.894
23630W        W90039  33.663  39.929   1.387
23631W        W90040  11.643  38.352  14.920
23632W        W90041  21.482   5.687  11.609
23633W        W90042  32.589  29.330  10.071
23634W        W90043  27.069  35.851   4.427
23635W        W90044   4.484   5.746   4.606
23636W        W90045  20.695  37.468   4.321
23637W        W90046  28.608   4.839   4.819
23638W        W90047  44.135  24.051   1.247
23639W        W90048  20.158  37.953  13.470
23640W        W90049  41.288  15.743   4.478
23641W        W90050  29.661  33.873  13.787
23642W        W90051  31.404  34.053  12.831
23643W        W90052  28.183  39.770  13.361
23644W        W90053  16.064  22.617   0.873
23645W        W90054  28.054   6.592  11.091
23646W        W90055  23.387  38.072   4.827
23647W        W90056   5.986  28.156  13.396
23648W        W90057  31.445  41.494   1.002
23649W        W90058  34.398  24.521  14.958
23650W        W90059  42.810  10.291  14.959
23651W        W90060  28.175  27.045   2.365
23652W        W90061  28.000  13.949   9.949
23653W        W90062  25.076  11.632   1.815
23654W        W90063  18.563  38.582   0.494
23655W        W90064  29.690  39.971   1.769
23656W        W90065  14.028  17.927   3.227
23657W        W90066  33.383  14.058  12.891
23658W        W90067   9.295  20.170  12.406
23659W        W90068  17.538  17.293   3.894
23660W        W90069  43.979   8.477  12.106
23661W        W90070  37.681  32.738   5.083
23662W        W90071   2.625  41.315  14.774
23663W        W90072   5.936  35.382  12.074
23664W        W90073  27.241  10.039   4.987
23665W        W90074  34.770  11.253   4.482
23666W        W90075  10.838  35.127  14.384
23667W        W90076  32.590  41.426   0.233
23668W        W90077  30.865  16.558  14.527
23669W        W90078   6.794  28.129   4.031
23670W        W90079  23.756  27.972  14.956
23671W        W90080  30.843   1.882  12.971
23672W        W90081  34.847  30.108  14.954
23673W        W90082  25.071  39.018   0.921
23674W        W90083  34.343  30.216  11.230
23675W        W90084  26.640   4.707   0.489
23676W        W90085  17.480  21.547  14.392
23677W        W90086  43.444  30.607  13.926
23678W        W90087  25.011  20.174  14.721
23679W        W90088  27.605  14.906  11.581
23680W        W90089  28.178  39.939  13.886
23681W        W90090  28.620  21.541  13.044
23682W        W90091   8.813  35.133   2.997
23683W        W90092  27.961  12.731  10.291
23684W        W90093  41.770  38.502  14.416
23685W        W90094  20.443  39.035  11.368
23686W        W90095  39.108  39.098  13.405
23687W        W90096  14.091  42.558   2.058
23688W        W90097  43.903  23.017   4.197
23689W        W90098  43.688  13.774   3.624
23690W        W90099  34.729   6.537  12.846
23691W        W90100  31.274   5.932   1.278
23692W        W90101  36.533  13.115   4.119
23693W        W90102  17.443  27.921  14.622
23694W        W90103   0.287  22.299  12.177
23695W        W90104  30.332  34.460  14.407
23696W        W90105   4.763  31.960   3.249
23697W        W90106   4.479  24.390  13.374
23698W        W90107  16.624  17.207   2.322
23699W        W90108  16.271  14.619   4.327
23700W        W90109  12.989  38.511   0.631
23701W        W90110  26.482  21.655  11.172
23702W        W90111   0.968  44.938   1.234
23703W        W90112  41.402   5.188   0.903
23704W        W90113  43.892   3.516  10.751
23705W        W90114  44.042   7.269   1.415
23706W        W90115  27.048  16.833   3.175
23707W        W90116  16.187  12.402  14.852
23708W        W90117  44.060  38.543   0.728
23709W        W90118  27.748  34.917   2.283
23710W        W90119   5.868  13.818  13.899
23711W        W90120  37.064  11.198  11.428
23712W        W90121  19.284   7.869   2.651
23713W        W90122  24.560  21.752   2.095
23714W        W90123  33.911   8.196   2.351
23715W        W90124  32.902  29.027  11.068
23716W        W90125  38.377  43.777  13.883
23717W        W90126  36.831  36.508  13.803
23718W        W90127  43.760  27.785   3.796
23719W        W90128  27.424  16.122   3.259
23720W        W90129  39.162  11.685  13.796
23721W        W90130  12.320  25.468  13.297
23722W        W90131  27.153  37.116   3.941
23723W        W90132  26.112   3.728  12.214
23724W        W90133   8.370  19.259  12.818
23725W        W90134   8.340  40.385   4.108
23726W        W90135   2.564   8.803   4.268
23727W        W90136  25.199  38.740   4.245
23728W        W90137  39.435  20.039   0.255
23729W        W90138  16.584  30.970  13.335
23730W        W90139  30.000  15.165   3.392
23731W        W90140  25.019   5.188   1.439
23732W        W90141   5.340  30.153  11.472
23733W        W90142  41.036  35.832  13.951
23734W        W90143  31.242   5.003   3.156
23735W        W90144  38.170  42.102   0.829
23736W        W90145  20.669  35.605   1.688
23737W        W90146  40.418   7.855  13.072
23738W        W90147  30.499  14.800   3.725
23739W        W90148  41.917  15.691   0.734
23740W        W90149  27.951  40.059  12.032
23741W        W90150   4.160  26.981   3.046
23742W        W90151  39.027  20.473  13.736
23743W        W90152  41.554  33.103   1.178
23744W        W90153  20.795  22.149   4.161
23745W        W90154  36.478  23.662   1.846
23746W        W90155  15.395   6.566  13.300
23747W        W90156  33.371   0.776  10.501
23748W        W90157  13.030  23.272  12.153
23749W        W90158  39.410  20.092  13.738
23750W        W90159  33.293  17.615   1.020
23751W        W90160  41.480   2.444   0.243
23752W        W90161  19.819   4.362  13.413
23753W        W90162  26.071  41.888  11.021
23754W        W90163  30.210  40.068   3.128
23755W        W90164  22.023   0.999   3.700
23756W        W90165   7.005  39.577  11.546
23757W        W90166  35.825  39.579  14.436
23758W        W90167   2.798   9.338   0.002
23759W        W90168  12.957  42.432   0.541
23760W        W90169  42.491  35.204   3.196
23761W        W90170  15.799  11.168   1.698
23762W        W90171  20.668  26.170  11.512
23763W        W90172  37.599  21.615  12.870
23764W        W90173  19.563  43.112  14.465
23765W        W90174  30.217  44.975   3.124
23766W        W90175  11.676   8.088  10.472
23767W        W90176  12.593  32.919  12.084
23768W        W90177  44.466  15.798  13.117
23769W        W90178   2.437   0.009  11.835
23770W        W90179  29.293  23.079   0.795
23771W        W90180  35.372  38.216   0.564
23772W        W90181  28.950  20.425  12.393
23773W        W90182   0.554  42.962   1.066
23774W        W90183  16.291  12.704   1.941
23775W        W90184  29.405  19.700   1.763
23776W        W90185  18.183  30.654   0.724
23777W        W90186  31.603  30.636   4.596
23778W        W90187   9.797  38.064   0.306
23779W        W90188  11.167  35.106   1.329
23780W        W90189   2.678  24.449   1.331
23781W        W90190  11.739  11.379  13.038
23782W        W90191  14.185  35.642  14.657
23783W        W90192  32.325  24.302  11.608
23784W        W90193  35.600  30.350   0.463
23785W        W90194  32.055   8.130   3.613
23786W        W90195  22.513  23.021  13.441
23787W        W90196  20.601  24.166  14.798
23788W        W90197  40.544  25.611   2.687
23789W        W90198  34.144  15.242   4.138
23790W        W90199  21.586  44.460   3.205
23791W        W90200  21.552  25.633  11.141
23792W        W90201  44.085  29.253  12.163
23793W        W90202  19.154  40.385   3.606
23794W        W90203  19.994  14.725  11.213
23795W        W90204  27.435  27.478   1.310
23796W        W90205  24.375  40.345  14.541
23797W        W90206  24.751  41.282  13.892
23798W        W90207   2.209  37.110   0.919
23799W        W90208  18.939  28.638  12.753
23800W        W90209  22.063  33.320   2.247
23801W        W90210  21.972   1.429   0.914
23802W        W90211  37.391  10.781   4.541
23803W        W90212  11.477  16.038   0.102
23804W        W90213  30.371  14.353  12.945
23805W        W90214  25.146  36.330  11.638
23806W        W90215  28.441  29.480   0.113
23807W        W90216   2.443   6.772   4.221
23808W        W90217  44.029  39.507   3.734
23809W        W90218  24.704   6.909   0.438
23810W        W90219  34.938  38.434  10.797
23811W        W90220  14.174  36.537  12.084
23812W        W90221  40.965  41.346  12.939
23813W        W90222  24.763  43.932  12.066
23814W        W90223  22.190  16.374   4.372
23815W        W90224  12.386   4.750  10.052
23816W        W90225  21.558   9.419  13.020
23817W        W90226  18.808  14.071   3.710
23818W        W90227  32.444   5.246   4.342
23819W        W90228  24.063   7.330  12.042
23820W        W90229  42.373  28.707   2.818
23821W        W90230  26.662  14.747  11.638
23822W        W90231  17.732  40.469  11.983
23823W        W90232  28.205  36.043   9.947
23824W        W90233  37.837   7.417  11.641
23825W        W90234  37.712  19.268  10.672
23826W        W90235  24.537   5.675   3.819
23827W        W90236  26.107  44.405  11.027
23828W        W90237   5.263  40.121   0.695
23829W        W90238  15.047  11.153  10.927
23830W        W90239  40.885  27.160  11.504
23831W        W90240  32.895  43.933   3.620
23832W        W90241   9.144  13.649   2.461
23833W        W90242   6.860   0.766   0.327
23834W        W90243  21.856   2.837  12.047
23835W        W90244  19.346  44.593   3.728
23836W        W90245  20.550  24.944   3.861
23837W        W90246  15.923  40.174   1.793
23838W        W90247   1.296  24.380  14.380
23839W        W90248  15.146  24.644  10.756
23840W        W90249  20.083  23.604   2.693
23841W        W90250  11.898  38.754  11.310
23842W        W90251  36.721  10.033  12.422
23843W        W90252   2.369  11.757   0.961
23844W        W90253  34.068  25.177  11.938
23845W        W90254  28.443  42.321  11.666
23846W        W90255   9.831  17.329  11.139
23847W        W90256  25.020  37.432   3.155
23848W        W90257  11.648  20.302   1.414
23849W        W90258  22.836  36.339   0.421
23850W        W90259   9.099  41.605   2.924
23851W        W90260  13.810  42.933   3.201
23852W        W90261  29.465   9.009  12.367
23853W        W90262  21.364   0.429   2.067
23854W        W90263  21.307   6.728  12.401
23855W        W90264  41.920  41.243  13.320
23856W        W90265   7.797  32.929   1.140
23857W        W90266  19.919  35.373  12.161
23858W        W90267  20.204  36.200  12.377
23859W        W90268  34.178  37.174   4.171
23860W        W90269  44.516  30.208  13.037
23861W        W90270   0.460  11.558  13.525
23862W        W90271  23.107  36.874   0.850
23863W        W90272  36.070  20.673  14.582
23864W        W90273  22.571  37.138  11.432
23865W        W90274   2.319  14.886  11.751
23866W        W90275  28.733   6.564  10.844
23867W        W90276   3.324  20.928   4.624
23868W        W90277  33.844   7.652  12.656
23869W        W90278   9.683  22.818  13.418
23870W        W90279  44.445   3.931   3.640
23871W        W90280  40.773   9.135   9.658
23872W        W90281   6.692  24.216   1.609
23873W        W90282   2.986   9.345  13.177
23874W        W90283  15.972  18.732  10.797
23875W        W90284   9.547  41.016  14.032
23876W        W90285  41.309  43.472   1.280
23877W        W90286  12.668  42.350  10.961
23878W        W90287   4.892  19.170  14.848
23879W        W90288  41.956  34.894  13.937
23880W        W90289   5.865  42.914   4.663
23881W        W90290  24.595   7.242   1.674
23882W        W90291  11.125  41.973   1.243
23883W        W90292   2.931   8.937   2.261
23884W        W90293  21.699  12.769  14.764
23885W        W90294  24.094  31.968   4.679
23886W        W90295   3.876   1.529   4.150
23887W        W90296  36.846   6.248  14.763
23888W        W90297  16.780   2.672   3.766
23889W        W90298   8.728  23.368   2.254
23890W        W90299  32.450   6.326  11.897
23891W        W90300  44.894  21.242   4.543
23892W        W90301  32.496  34.941  14.134
23893W        W90302  33.585  42.457   2.951
23894W        W90303   0.916  15.513  11.514
23895W        W90304  17.244  26.451   1.202
23896W        W90305  44.637  17.627   3.815
23897W        W90306  33.951  14.457   3.236
23898W        W90307  13.308  34.833   0.168
23899W        W90308  38.091  33.646  13.038
23900W        W90309  23.903  35.345  12.497
23901W        W90310   7.990  24.009  13.531
23902W        W90311  41.294   4.739  12.951
23903W        W90312  11.124   8.952   3.240
23904W        W90313  13.802  30.645   4.389
23905W        W90314  37.567  28.704  10.766
23906W        W90315   2.576  36.506  12.052
23907W        W90316  40.956   7.410   2.714
23908W        W90317  21.945  33.951   4.813
23909W        W90318   0.516   5.124   2.307
23910W        W90319  42.966   3.861  12.611
23911W        W90320  10.953  20.054  10.732
23912W        W90321  18.627  37.791  13.527
23913W        W90322   9.378  25.326   3.225
23914W        W90323  25.627  19.158  12.111
23915W        W90324   3.629  23.889  11.978
23916W        W90325  41.342   2.738  14.818
23917W        W90326  38.331  43.902   4.553
23918W        W90327  29.853   3.360   2.226
23919W        W90328   5.940   7.334   0.001
23920W        W90329  31.845   7.283  12.937
23921W        W90330   8.036  22.649   0.845
23922W        W90331   7.091  44.980   4.598
23923W        W90332   0.012  36.504   1.838
23924W        W90333  42.590  14.011  12.112
23925W        W90334  10.139  14.975   3.831
23926W        W90335  19.733   5.262   4.980
23927W        W90336  40.881  37.801  12.118
23928W        W90337   4.854   8.655  11.407
23929W        W90338  33.485  21.791  13.440
23930W        W90339   1.645  36.862  11.356
23931W        W90340  34.874  34.585   1.366
23932W        W90341  13.565  22.262  13.442
23933W        W90342  20.202  14.611  11.907
23934W        W90343  36.726  38.553   4.712
23935W        W90344  33.957  22.252   4.152
23936W        W90345   4.482  42.652  14.925
23937W        W90346   2.507  41.577  10.779
23938W        W90347  32.071   5.246  11.778
23939W        W90348  24.428  20.969   4.537
23940W        W90349  30.105  20.270   0.058
23941W        W90350  33.515   0.799   0.210
23942W        W90351  13.116  23.958   2.193
23943W        W90352  11.676  35.026   1.388
23944W        W90353  32.155  13.102   2.162
23945W        W90354   6.201  42.029   0.028
23946W        W90355   3.278  29.979  14.519
23947W        W90356  36.730  15.129   3.047
23948W        W90357  22.334  16.045   3.968
23949W        W90358  39.128  44.957  10.198
23950W        W90359  27.012  25.243  12.146
23951W        W90360  17.601  31.999  12.368
23952W        W90361  31.028   7.437   4.558
23953W        W90362  11.464   4.963  12.147
23954W        W90363  36.279  10.691   0.490
23955W        W90364  41.645  18.885   5.135
23956W        W90365  43.583  17.121  12.504
23957W        W90366   5.937  25.360   1.847
23958W        W90367  26.877  22.264   1.236
23959W        W90368   4.732  36.167  12.057
23960W        W90369  37.020  32.492  11.602
23961W        W90370  24.453  36.038  11.252
23962W        W90371   6.895  15.154  12.813
23963W        W90372  14.363   8.255  14.848
23964W        W90373  20.132  36.440  10.950
23965W        W90374  18.783  20.157   0.645
23966W        W90375   8.580   9.161   0.834
23967W        W90376  16.149  12.813   0.905
23968W        W90377  38.267  42.440  13.423
23969W        W90378  10.543  27.150   0.665
23970W        W90379  36.475   3.802  10.727
23971W        W90380   1.958   2.307   3.562
23972W        W90381   5.318  28.223   0.515
23973W        W90382  23.638  15.551  11.887
23974W        W90383  37.943  42.948   0.919
23975W        W90384   5.460  19.509   2.588
23976W        W90385  30.472  34.660   4.462
23977W        W90386  12.536  44.391  14.861
23978W        W90387  32.399  32.799   1.661
23979W        W90388  44.666  39.064   0.900
23980W        W90389  17.260  28.151   0.426
23981W        W90390  21.715  42.972   3.267
23982W        W90391   3.179  15.808  10.822
23983W        W90392   4.318   4.058  10.742
23984W        W90393  31.285  38.367   0.781
23985W        W90394  24.076  25.522   2.834
23986W        W90395  13.709  41.045   3.156
23987W        W90396  12.923   8.582  12.393
23988W        W90397  19.730  18.206   3.312
23989W        W90398   9.263  29.238  11.144
23990W        W90399  29.137   7.808   0.799
23991W        W90400  38.568   8.254   4.553
23992W        W90401  13.649  11.784  11.205
23993W        W90402  24.799  32.860  12.362
23994W        W90403  28.900  21.097   3.343
23995W        W90404  26.082   0.813  12.820
23996W        W90405   8.297   6.859   3.080
23997W        W90406  32.933   4.383  13.103
23998W        W90407  13.864   9.300   0.891
23999W        W90408   9.818  25.785  11.430
24000W        W90409  32.646  22.072  12.025
24001W        W90410  16.373  24.656  14.296
24002W        W90411   2.036   5.231   3.456
24003W        W90412   3.777  29.722   3.239
24004W        W90413  44.432  10.056  12.431
24005W        W90414   8.949  33.398   0.853
24006W        W90415   7.714  35.085   0.177
24007W        W90416   5.748  12.283  10.344
24008W        W90417   1.810  17.769   3.202
24009W        W90418  35.128  18.124   0.607
24010W        W90419  42.045  25.933   1.098
24011W        W90420   5.008  34.442  11.608
24012W        W90421   3.089  10.619  13.134
24013W        W90422  15.039  17.599  13.021
24014W        W90423   8.070  33.949   4.573
24015W        W90424   0.725  20.592  10.948
24016W        W90425   9.858  33.926   1.596
24017W        W90426   4.811  25.552   3.690
24018W        W90427  32.458  40.510  11.870
24019W        W90428  40.053  38.835   4.978
24020W        W90429   7.523  28.062  13.906
24021W        W90430  35.308  30.635   4.510
24022W        W90431  15.622  15.725   5.005
24023W        W90432  13.346   8.923   3.651
24024W        W90433   0.297   4.718   0.460
24025W        W90434  17.877  27.020  11.935
24026W        W90435  31.624  23.261   4.535
24027W        W90436  24.004  23.702  11.999
24028W        W90437   5.953   1.400   0.249
24029W        W90438   0.235  42.687  12.432
24030W        W90439  20.037  40.577   0.371
24031W        W90440  37.908  39.492   4.519
24032W        W90441   2.341   7.935  11.415
24033W        W90442   6.580  26.479   0.713
24034W        W90443  25.608  24.349  10.198
24035W        W90444  16.745  32.292   0.516
24036W        W90445  38.097  33.726  11.069
24037W        W90446  15.033  39.949   1.824
24038W        W90447  33.535  25.640   4.700
24039W        W90448  27.601  40.985   1.095
24040W        W90449  32.409  24.173   3.921
24041W        W90450  32.210   9.262   0.220
24042W        W90451   8.172  33.508   3.583
24043W        W90452  16.568  25.565  11.261
24044W        W90453  29.523  43.999  11.077
24045W        W90454   2.467  30.453   4.127
24046W        W90455   3.670  13.487   4.931
24047W        W90456   5.937  24.979  14.363
24048W        W90457  18.827  43.959   1.806
24049W        W90458  29.508  26.643  12.853
24050W        W90459  33.968  31.472  11.682
24051W        W90460  25.981  23.169  11.697
24052W        W90461   6.829  39.467  12.443
24053W        W90462  27.728   3.889   4.602
24054W        W90463  33.651  39.628  12.820
24055W        W90464  40.522  22.087  14.795
24056W        W90465  43.555  30.859  13.498
24057W        W90466   8.775  21.256  10.505
24058W        W90467   6.064  27.087  13.068
24059W        W90468  34.203  12.182  14.896
24060W        W90469  40.368  44.740  14.014
24061W        W90470  30.038  28.435  12.448
24062W        W90471   5.420   1.659   3.530
24063W        W90472   0.957  33.928  12.120
24064W        W90473  17.731  44.477  11.167
24065W        W90474  12.770  21.248  11.164
24066W        W90475  32.666  35.010  10.778
24067W        W90476  34.996   5.198   0.781
24068W        W90477  25.451  10.131   2.931
24069W        W90478  21.026   0.456  14.550
24070W        W90479  22.354  44.423  13.988
24071W        W90480  26.812  36.361   3.954
24072W        W90481   0.490  35.644   0.805
24073W        W90482  18.345  14.193  12.014
24074W        W90483  41.561  33.595   4.023
24075W        W90484   2.409  24.396  12.888
24076W        W90485  40.598  18.733   1.809
24077W        W90486  32.138   5.925  11.931
24078W        W90487  38.579  35.415   3.169
24079W        W90488  28.865  37.106   5.014
24080W        W90489  38.749  42.548   2.535
24081W        W90490  31.555  33.234  10.635
24082W        W90491  22.163  21.644  12.397
24083W        W90492  28.414  24.228  14.554
24084W        W90493  21.719   6.258   3.437
24085W        W90494  43.247   4.403  11.457
24086W        W90495   2.544  30.349  14.553
24087W        W90496  13.308  29.147  10.570
24088W        W90497   6.769  28.638   4.197
24089W        W90498  18.980   6.344  13.047
24090W        W90499  37.055  16.028  13.051
24091W        W90500  20.417   1.974  13.074
24092W        W90501  30.169  12.867  13.432
24093W        W90502  19.535   1.242  11.990
24094W        W90503  34.002  11.178  10.653
24095W        W90504  35.479  37.903   0.170
24096W        W90505  11.648   6.373   1.733
24097W        W90506  15.651   1.558  14.323
24098W        W90507  19.756  37.678   3.438
24099W        W90508  29.173  29.589   4.628
24100W        W90509  27.167   8.217   3.645
24101W        W90510  30.612  36.082  14.056
24102W        W90511  38.048  24.492  12.343
24103W        W90512  16.123  20.156  13.290
24104W        W90513  25.221  31.008   2.134
24105W        W90514  40.618   1.665  11.488
24106W        W90515  23.592  37.037   0.960
24107W        W90516  35.819  22.813   4.594
24108W        W90517  23.753  11.273   1.745
24109W        W90518  14.829   3.240   5.109
24110W        W90519  18.150   9.862  13.506
24111W        W90520  42.212  14.933   0.784
24112W        W90521  40.048   9.035   5.505
24113W        W90522   9.266  29.646   1.334
24114W        W90523  15.216  17.214  13.483
24115W        W90524  31.128  16.036   0.337
24116W        W90525   4.889  33.114   1.367
24117W        W90526  44.694  25.281  10.577
24118W        W90527   6.455  18.589  13.953
24119W        W90528   2.771   0.529   1.735
24120W        W90529  30.030   1.709   0.427
24121W        W90530   7.191  40.069  11.073
24122W        W90531  25.612  31.112  11.851
24123W        W90532  10.713  24.192  12.312
24124W        W90533   3.763  29.053  13.037
24125W        W90534  26.684  28.957  13.902
24126W        W90535   7.633  30.650   4.143
24127W        W90536  43.118  20.442  10.546
24128W        W90537  10.230   9.274  13.453
24129W        W90538  37.583   1.773  11.728
24130W        W90539  13.138   7.817   0.533
24131W        W90540   8.344  37.537  10.697
24132W        W90541  41.612  32.901  13.370
24133W        W90542   1.819   0.080  12.624
24134W        W90543  23.544  44.512  13.352
24135W        W90544  22.132   5.551  10.525
24136W        W90545  10.705   6.746   0.532
24137W        W90546  28.215  39.249  13.344
24138W        W90547  34.619  30.051   1.485
24139W        W90548  30.685   9.281   3.299
24140W        W90549   0.459   6.854   3.188
24141W        W90550   8.225  22.587   3.316
24142W        W90551  33.577   0.192   2.398
24143W        W90552  17.799  41.766  12.861
24144W        W90553  44.547  16.763  12.849
24145W        W90554   0.526  14.070   4.919
24146W        W90555   0.810  22.843   1.822
24147W        W90556  32.522  14.354   1.833
24148W        W90557  21.198  15.282  13.999
24149W        W90558  22.028  28.698  11.094
24150W        W90559  23.060  44.013   1.879
24151W        W90560  13.277   3.352  11.583
24152W        W90561  13.442  40.934  12.038
24153W        W90562  21.354  11.722  10.706
24154W        W90563   7.303  20.474  13.617
24155W        W90564   3.400  25.461  12.391
24156W        W90565  14.161  37.770   2.325
24157W        W90566  19.687  38.464   3.243
24158W        W90567  44.016  11.213  11.649
24159W        W90568   2.648   9.200  11.274
24160W        W90569   7.683  23.330  11.238
24161W        W90570   3.482  32.347  13.064
24162W        W90571  11.194   9.464   4.575
24163W        W90572  28.111  36.809   3.549
24164W        W90573  11.918  44.282  12.388
24165W        W90574  24.491  33.134   1.372
24166W        W90575  31.626  11.476   3.142
24167W        W90576  13.298  38.618   3.628
24168W        W90577  44.151  27.510   3.594
24169W        W90578  40.064  34.984   4.894
24170W        W90579  41.251  11.752  12.410
24171W        W90580   4.196  24.961   1.098
24172W        W90581  24.910  15.880   4.922
24173W        W90582  17.056  14.492  11.507
24174W        W90583  44.412  30.682  13.687
24175W        W90584  19.783  22.714   0.682
24176W        W90585   3.047  36.121  11.351
24177W        W90586  16.281  21.123   1.567
24178W        W90587  34.069  29.570  13.345
24179W        W90588   0.705  27.567  14.001
24180W        W90589  32.720  30.660   1.947
24181W        W90590  22.532  13.207   0.494
24182W        W90591  17.340  36.518  14.523
24183W        W90592  25.936   0.877  11.841
24184W        W90593   1.727  19.605  12.593
24185W        W90594  37.738  13.772  14.802
24186W        W90595   0.900  29.375   1.777
24187W        W90596  39.788  43.891   0.796
24188W        W90597  29.728  10.551   0.342
24189W        W90598  29.478  25.165  13.857
24190W        W90599  19.126   1.766   1.823
24191W        W90600  39.717  30.360  14.403
24192W        W90601  21.715  19.692   1.810
24193W        W90602  16.357  38.784   5.381
24194W        W90603   4.744  36.133  13.488
24195W        W90604  42.478  34.728  12.090
24196W        W90605  33.339   8.806  11.489
24197W        W90606   8.856  18.507  14.445
24198W        W90607  43.753  36.818  14.955
24199W        W90608  22.761   8.573   1.454
24200W        W90609  18.634  32.175   2.248
24201W        W90610   0.516  40.927  12.339
24202W        W90611  41.005  31.450  12.402
24203W        W90612  27.589  14.833   3.592
24204W        W90613  26.185  10.524   4.182
24205W        W90614  38.106  19.810  12.573
24206W        W90615  21.631   0.288   3.781
24207W        W90616   2.814   8.475   1.996
24208W        W90617  15.738   9.638   0.003
24209W        W90618   7.793  22.385  12.067
24210W        W90619  44.789   9.558   2.135
24211W        W90620  30.545  32.735   2.794
24212W        W90621  19.665  19.275  12.898
24213W        W90622  27.693  10.926   4.148
24214W        W90623  40.024   3.810  13.330
24215W        W90624  12.534  15.922  10.299
24216W        W90625  12.840   5.832   1.850
24217W        W90626   9.551   4.818  12.525
24218W        W90627  20.158   1.537   3.203
24219W        W90628   2.341   8.729  11.585
24220W        W90629  42.166   8.305  13.765
24221W        W90630  37.610  30.382  11.498
24222W        W90631  14.821  32.654   3.410
24223W        W90632  15.016  35.992  14.942
24224W        W90633   1.998  18.235   3.327
24225W        W90634  40.927   4.992   1.651
24226W        W90635  38.780  12.110   2.341
24227W        W90636  21.762  43.821  10.682
24228W        W90637   9.751  43.935  14.509
24229W        W90638  29.051  34.345  14.894
24230W        W90639  26.448  28.496  13.842
24231W        W90640  41.855  13.092  13.352
24232W        W90641  44.731  35.075  14.709
24233W        W90642  28.906  38.322  12.048
24234W        W90643  17.549  23.804   4.699
24235W        W90644  34.462  13.284   4.669
24236W        W90645  44.750  43.053   4.476
24237W        W90646   6.007  30.199  13.839
24238W        W90647  17.124  29.190   1.119
24239W        W90648  16.789  37.854  12.071
24240W        W90649   6.134  26.541   3.266
24241W        W90650  27.532  34.500   3.211
24242W        W90651  33.458  20.758   3.011
24243W        W90652  17.375  15.583   1.264
24244W        W90653   1.514  35.306   3.814
24245W        W90654  42.462   2.080  12.515
24246W        W90655   4.293  15.833  14.882
24247W        W90656  19.209  32.887   0.007
24248W        W90657  14.026   7.678   1.392
24249W        W90658  33.072  23.506  11.426
24250W        W90659  40.516  17.857  11.669
24251W        W90660  44.915  29.198   4.045
24252W        W90661  34.678  34.416   3.664
24253W        W90662  23.512  26.048   2.239
24254W        W90663   5.426  43.050   2.846
24255W        W90664   5.967  22.704   3.660
24256W        W90665  25.635  33.573  12.772
24257W        W90666   8.860  24.089  13.676
24258W        W90667  41.057   6.311  11.405
24259W        W90668  38.515   5.984   3.222
24260W        W90669  44.302   6.754  11.596
24261W        W90670  36.966  28.295  14.425
24262W        W90671   5.050  34.889  14.656
24263W        W90672   7.115  30.691   4.117
24264W        W90673  43.503  21.480   0.015
24265W        W90674  15.372  14.246   2.620
24266W        W90675   1.256  35.553  11.533
24267W        W90676  38.599  23.818  13.304
24268W        W90677  32.549  33.915  13.634
24269W        W90678  33.930  26.379  12.870
24270W        W90679  26.581  39.754   1.476
24271W        W90680  42.709  33.964   0.477
24272W        W90681  34.392  35.753   2.969
24273W        W90682  44.949  36.048   3.614
24274W        W90683  27.594  36.847   3.741
24275W        W90684  26.924  44.645  12.033
24276W        W90685   1.157  37.525   1.844
24277W        W90686  31.519  33.390   3.754
24278W        W90687  42.667   8.883  12.988
24279W        W90688  37.856  38.597  12.486
24280W        W90689  19.111   1.378  11.719
24281W        W90690  43.262  26.670   2.856
24282W        W90691  32.974   8.216  11.899
24283W        W90692  43.438  11.094  12.541
24284W        W90693  12.183   8.595  14.843
24285W        W90694  23.644   0.008   0.769
24286W        W90695  19.344  25.583   2.739
24287W        W90696  29.376   3.336  11.147
24288W        W90697   3.485  16.824   0.882
24289W        W90698  22.883  16.225   2.122
24290W        W90699  39.028  44.733  13.002
24291W        W90700  37.729  26.846   1.311
24292W        W90701   3.876  27.797  12.597
24293W        W90702  44.812  16.693  13.271
24294W        W90703   8.324  28.620   0.394
24295W        W90704  15.224  33.602   1.540
24296W        W90705   2.290  36.850   3.754
24297W        W90706  24.485  34.850  12.067
24298W        W90707  21.730  15.775  12.293
24299W        W90708  12.154  25.115   0.140
24300W        W90709  29.014  19.460   2.771
24301W        W90710  25.996   5.231  13.530
24302W        W90711  44.235  33.821   2.893
24303W        W90712   1.788  42.241  11.563
24304W        W90713  17.224  28.562  10.944
24305W        W90714  29.857  33.118   1.105
24306W        W90715  10.344  38.001  12.386
24307W        W90716   4.275  20.240  12.098
24308W        W90717  28.348   5.147   3.940
24309W        W90718  19.270  27.074   3.523
24310W        W90719  30.307  11.309   1.437
24311W        W90720  41.293  37.419  12.133
24312W        W90721  39.956  28.405  12.410
24313W        W90722  26.324  26.644  12.861
24314W        W90723  28.015  18.881   1.152
24315W        W90724   5.200  12.007  11.249
24316W        W90725  17.676  15.979   1.450
24317W        W90726  26.550  33.577  14.192
24318W        W90727  13.565  11.740  12.965
24319W        W90728  13.308   7.424  13.809
24320W        W90729  24.010  25.198  11.698
24321W        W90730  30.438  43.341   0.101
24322W        W90731   4.930  20.130   3.305
24323W        W90732   0.840  43.361   3.247
24324W        W90733  10.429  28.264  14.957
24325W        W90734  26.576  37.209  12.966
24326W        W90735  28.118  37.064  10.679
24327W        W90736  12.662  19.050  13.331
24328W        W90737   3.868  20.390   3.348
24329W        W90738  38.094  36.745  14.424
24330W        W90739  23.602   2.464  10.496
24331W        W90740  20.119   8.730  13.050
24332W        W90741   5.370  32.374  13.555
24333W        W90742  40.713  35.481   1.801
24334W        W90743  22.857   6.869  12.616
24335W        W90744  37.246  40.382   4.137
24336W        W90745  25.715  14.632   4.178
24337W        W90746  37.899  33.245  11.767
24338W        W90747   6.295  22.643  11.622
24339W        W90748  32.390   9.284   1.137
24340W        W90749  15.681   6.934   2.323
24341W        W90750   3.906  33.116  13.011
24342W        W90751  31.950  36.167   1.864
24343W        W90752  24.556  10.232   0.576
24344W        W90753   9.811  31.345   4.632
24345W        W90754  24.966   0.895   2.643
24346W        W90755   8.130  29.789  12.425
24347W        W90756  34.818   6.497  11.057
24348W        W90757  34.420   5.159   3.740
24349W        W90758  26.528  13.120   0.455
24350W        W90759  24.402  36.447   4.144
24351W        W90760  14.160   5.929  10.655
24352W        W90761   5.009  35.202  12.944
24353W        W90762   3.477  19.719   4.122
24354W        W90763  23.740  44.019   4.049
24355W        W90764  34.331   5.390   4.183
24356W        W90765  11.914  23.972  10.292
24357W        W90766   5.102  24.896   1.647
24358W        W90767  43.544  11.893  11.086
24359W        W90768  29.008  38.935  11.064
24360W        W90769  36.331  35.314  13.837
24361W        W90770  27.003   9.329   3.162
24362W        W90771   5.273  34.667  13.390
24363W        W90772  24.084  17.510   0.239
24364W        W90773  27.161   7.944   0.874
24365W        W90774  28.128  29.376   1.536
24366W        W90775  41.705  41.744   5.043
24367W        W90776  24.510  11.309   2.227
24368W        W90777  28.227   2.050  13.325
24369W        W90778   1.975  28.455   0.876
24370W        W90779  15.847  40.147  12.934
24371W        W90780  20.040  30.589  13.314
24372W        W90781  25.695   6.858  14.123
24373W        W90782   9.644  19.287   2.304
24374W        W90783   0.239  20.560  12.035
24375W        W90784  17.189   3.850   3.658
24376W        W90785   3.444  23.766  13.565
24377W        W90786  26.322   9.150  14.025
24378W        W90787  41.362  37.814   0.468
24379W        W90788   0.458  24.225  11.961
24380W        W90789  39.111   3.526  12.670
24381W        W90790  14.246  24.567  13.548
24382W        W90791  15.286   0.922  13.854
24383W        W90792  22.662  34.368  11.616
24384W        W90793  17.078   2.691  14.001
24385W        W90794  37.801  40.352  11.169
24386W        W90795  35.653  13.425  12.354
24387W        W90796  38.298  34.811  14.110
24388W        W90797  23.367  33.478   0.117
24389W        W90798  13.784  30.203  11.542
24390W        W90799  41.803  12.308  14.033
24391W        W90800  30.143  18.063   4.439
24392W        W90801  16.661  20.928   1.884
24393W        W90802  22.525  25.511   3.237
24394W        W90803  14.740  31.198  11.267
24395W        W90804  13.389  23.083  13.049
24396W        W90805  22.125  16.550  13.552
24397W        W90806  40.320  36.950   2.783
24398W        W90807  29.998  12.791  11.094
24399W        W90808  10.851   4.231  14.439
24400W        W90809  25.230  17.622   2.174
24401W        W90810  33.960   5.386   2.063
24402W        W90811  14.421  22.691   4.111
24403W        W90812  41.330   5.288   1.914
24404W        W90813   8.787  24.864  14.856
24405W        W90814  32.846  23.594   4.874
24406W        W90815  15.099  18.593   2.668
24407W        W90816  34.788  39.950   4.144
24408W        W90817   1.933  37.622  13.441
24409W        W90818  16.112  13.768  13.411
24410W        W90819  16.298  12.376   2.742
24411W        W90820   4.974  12.687   4.545
24412W        W90821   7.382  36.196  13.865
24413W        W90822  11.234  22.723  10.591
24414W        W90823  41.345   4.282   1.944
24415W        W90824   9.091  17.290  12.862
24416W        W90825  19.040  43.779   2.843
24417W        W90826   6.216  42.899   0.938
24418W        W90827  42.408  22.300  13.004
24419W        W90828  18.839  24.542  14.169
24420W        W90829   9.409   6.434   2.423
24421W        W90830   8.763  42.943  10.170
24422W        W90831   9.805   9.330   4.500
24423W        W90832   4.631   2.731   3.792
24424W        W90833  42.475  34.856   1.822
24425W        W90834   3.493   3.939  13.931
24426W        W90835  30.783  43.182   1.361
24427W        W90836  15.497   5.703  12.908
24428W        W90837  17.141   5.176  11.167
24429W        W90838  37.482  31.860  11.181
24430W        W90839  43.604  16.345  12.063
24431W        W90840  39.331  25.551   1.408
24432W        W90841  33.663   3.751   0.832
24433W        W90842  18.563   0.229  14.102
24434W        W90843  20.529  26.173   2.735
24435W        W90844  14.110  11.096  11.222
24436W        W90845  40.928  17.691  12.490
24437W        W90846  13.427  10.138   3.761
24438W        W90847   8.189  13.160  12.634
24439W        W90848  33.499   1.186   2.272
24440W        W90849  30.624  20.810  13.539
24441W        W90850   9.827  25.097   3.099
24442W        W90851  18.088  12.708   2.222
24443W        W90852  25.606  15.917   1.428
24444W        W90853  37.041  37.521  12.532
24445W        W90854  18.116   8.731   2.005
24446W        W90855  33.491  16.291  14.933
24447W        W90856  33.955   2.137   5.162
24448W        W90857  27.902  19.477   0.697
24449W        W90858  43.151  22.388   3.830
24450W        W90859  33.053  41.270   2.762
24451W        W90860  22.054  27.136  13.215
24452W        W90861  26.236  29.626  14.436
24453W        W90862  42.331  17.122   0.496
24454W        W90863  18.771  20.027  13.824
24455W        W90864  19.765  36.022   2.126
24456W        W90865  44.678  26.165  11.477
24457W        W90866  40.659  38.394   1.876
24458W        W90867  35.122   9.967   2.684
24459W        W90868   2.338  43.746  12.567
24460W        W90869  31.516  10.778  11.857
24461W        W90870  33.880  34.005   3.840
24462W        W90871  38.820  31.855   3.192
24463W        W90872  31.202  18.466   1.498
24464W        W90873  33.347  36.574   2.154
24465W        W90874  13.694  36.653  10.165
24466W        W90875  17.971  35.682   1.648
24467W        W90876  15.168  41.601  11.527
24468W        W90877  40.889  42.267  12.010
24469W        W90878  41.539  12.762   0.797
24470W        W90879  18.939   1.288   2.679
24471W        W90880  14.780  17.823   1.177
24472W        W90881   6.902  12.756  14.877
24473W        W90882  26.216   4.181  14.330
24474W        W90883  24.647  23.058   0.961
24475W        W90884  10.166  27.282  14.675
24476W        W90885  36.784  16.733  10.052
24477W        W90886   5.478  15.434   0.966
24478W        W90887  32.545   5.571   2.911
24479W        W90888   0.784  40.768   0.865
24480W        W90889  23.628  40.340  11.866
24481W        W90890   2.432  13.074   1.194
24482W        W90891  14.083  39.813  11.404
24483W        W90892  27.702  40.863   3.200
24484W        W90893   0.999   5.354   0.357
24485W        W90894  35.547  35.609   0.349
24486W        W90895  39.032  32.004  13.077
24487W        W90896   6.870  20.955  11.544
24488W        W90897  11.763  43.249  12.129
24489W        W90898   6.212  12.598   2.743
24490W        W90899  13.282  33.467  12.802
24491W        W90900  12.706  21.533  10.698
24492W        W90901   3.428   4.123   4.653
24493W        W90902  37.355  13.551  13.957
24494W        W90903  33.163  38.410  11.835
24495W        W90904  34.794  11.885  12.505
24496W        W90905  24.752  14.105   4.539
24497W        W90906  14.817  15.526   0.073
24498W        W90907   2.660  43.512  13.581
24499W        W90908  22.132  31.100   4.455
24500W        W90909  31.112  35.310   0.022
24501W        W90910  29.164   7.618   3.123
24502W        W90911  27.108   7.111  14.461
24503W        W90912   0.340  43.779   1.719
24504W        W90913  34.586  13.969  13.844
24505W        W90914  13.607   2.131  14.897
24506W        W90915   1.185  26.446   4.554
24507W        W90916  23.835  17.216  12.279
24508W        W90917   8.144  26.636  11.936
24509W        W90918  34.609  27.628   3.025
24510W        W90919  19.809  23.487   3.116
24511W        W90920   0.985  36.797   3.296
24512W        W90921  19.841  36.278  14.558
24513W        W90922  19.260  14.616   0.869
24514W        W90923  15.717  22.226  11.748
24515W        W90924   9.377  41.692   3.365
24516W        W90925  44.553   9.970   1.710
24517W        W90926   4.031  22.184  13.307
24518W        W90927  37.868  42.190   4.534
24519W        W90928  16.682  32.325  12.099
24520W        W90929  42.220  43.069  12.575
24521W        W90930  12.671  30.728  13.481
24522W        W90931  18.007  33.959   1.071
24523W        W90932   8.506  30.256   5.093
24524W        W90933  19.122  42.017  11.548
24525W        W90934  22.055  15.695  13.093
24526W        W90935  25.101   4.130  12.995
24527W        W90936  11.512  44.742   2.629
24528W        W90937  22.065  26.727   2.257
24529W        W90938  23.514  13.727   2.347
24530W        W90939  30.435   2.542   4.080
24531W        W90940  24.514  37.250  14.530
24532W        W90941  10.293   8.127   3.234
24533W        W90942  32.888  13.128  11.639
24534W        W90943  33.389  31.488   0.351
24535W        W90944  34.099   6.808   3.182
24536W        W90945  35.122  17.090   9.821
24537W        W90946  33.596  36.484  11.303
24538W        W90947  24.686   1.270  11.513
24539W        W90948  20.120   1.983   2.932
24540W        W90949   1.378  35.815   3.836
24541W        W90950   1.840   8.624  12.312
24542W        W90951  15.782   6.051   0.392
24543W        W90952  28.590   3.216  11.546
24544W        W90953  26.610  32.572   3.886
24545W        W90954  19.670  24.417  14.295
24546W        W90955   3.142  31.600   3.830
24547W        W90956  31.584  23.092  13.918
24548W        W90957   5.739  30.452  13.041
24549W        W90958   0.910   9.404   5.016
24550W        W90959  19.317  31.078  13.027
24551W        W90960  31.687  34.997   1.359
24552W        W90961   8.845  27.171  14.509
24553W        W90962  30.500  41.803   2.726
24554W        W90963  33.971   8.245  10.392
24555W        W90964   4.375   9.355  11.349
24556W        W90965   0.406  34.261   4.043
24557W        W90966  14.784  16.564  10.552
24558W        W90967  24.006   4.769   4.124
24559W        W90968  10.976  42.334   0.889
24560W        W90969  27.292  17.861   2.389
24561W        W90970   7.814   4.517  13.866
24562W        W90971  16.717  44.225   2.771
24563W        W90972  22.074  23.039  10.654
24564W        W90973  12.411  19.969  11.174
24565W        W90974   3.784  37.563  14.309
24566W        W90975  25.636  27.028   0.165
24567W        W90976  44.871  19.263  12.616
24568W        W90977  17.164  27.107   0.295
24569W        W90978  15.306   8.312   4.466
24570W        W90979  15.771  12.765   1.266
24571W        W90980  13.252  35.041   3.372
24572W        W90981  22.791   0.245  12.090
24573W        W90982   0.449  41.458  13.806
24574W        W90983  22.043  14.321  14.882
24575W        W90984  36.061  14.395  11.281
24576W        W90985  41.651  38.710  11.610
24577W        W90986  35.549  17.329   2.260
24578W        W90987  34.591  25.570  13.648
24579W        W90988  37.062   7.175  12.170
24580W        W90989  11.391  17.055   3.833
24581W        W90990  11.962  31.576  13.470
24582W        W90991  12.661  23.998  13.951
24583W        W90992  24.666  21.608   0.788
24584W        W90993  29.031  22.020  13.940
24585W        W90994   7.350  37.392   4.764
24586W        W90995  12.523  26.063  11.212
24587W        W90996  26.447  36.873  11.615
24588W        W90997   3.064  18.729   5.222
24589W        W90998  31.495  26.750   2.638
24590W        W90999   9.821  12.202  14.413
24591W        W91000  15.074  30.407   2.166
24592W        W91001  36.557  18.771   3.235
24593W        W91002   3.753  18.032  10.611
24594W        W91003  14.180  36.760   1.445
24595W        W91004  23.737   6.813   4.140
24596W        W91005  35.835   0.781  12.432
24597W        W91006  29.799  34.495  11.224
24598W        W91007  10.850   1.183  13.884
24599W        W91008  23.850  27.285  12.407
24600W        W91009  30.043  12.226  11.059
24601W        W91010  35.045  44.769   1.371
24602W        W91011  40.577  37.448   4.520
24603W        W91012   0.973  21.021   2.410
24604W        W91013  24.262  27.897  14.796
24605W        W91014  23.399   7.429   0.765
24606W        W91015  24.545  44.204  10.055
24607W        W91016  22.246  33.386   3.112
24608W        W91017  19.119  38.016   3.613
24609W        W91018   1.736   0.846  13.781
24610W        W91019  20.146  17.012  14.343
24611W        W91020  16.375  19.092   3.731
24612W        W91021  26.244  27.311  14.362
24613W        W91022   0.332  36.486   0.235
24614W        W91023  41.613  42.535  12.917
24615W        W91024  40.919  34.839  12.879
24616W        W91025  38.091  23.659  12.077
24617W        W91026  31.268  42.348   3.567
24618W        W91027  18.661  11.094   2.808
24619W        W91028  15.348  21.914   3.098
24620W        W91029  21.225  39.984   1.333
24621W        W91030  15.270   9.609   2.109
24622W        W91031  13.910  12.045  13.838
24623W        W91032  39.501  36.388   0.943
24624W        W91033  12.775  36.551  10.304
24625W        W91034  23.265  18.008  12.483
24626W        W91035  40.357  12.158  11.569
24627W        W91036  32.505   3.796   2.211
24628W        W91037  44.497  33.130   0.029
24629W        W91038  31.577  40.358  13.888
24630W        W91039  37.787  16.532   2.591
24631W        W91040   4.865   4.355  10.334
24632W        W91041  17.482  24.526   1.421
24633W        W91042  25.941  36.198  10.200
24634W        W91043  29.338  22.317   4.590
24635W        W91044   1.680   6.821  13.427
24636W        W91045  26.051  10.335  11.606
24637W        W91046  23.723  35.854  12.606
24638W        W91047  22.399  20.552   1.904
24639W        W91048  43.094  28.923   4.134
24640W        W91049  40.346  33.470   0.098
24641W        W91050  39.708   9.726  11.456
24642W        W91051  24.181  34.472   3.152
24643W        W91052  17.655  33.235  12.065
24644W        W91053  44.391  29.067  13.609
24645W        W91054  25.165  24.215   4.555
24646W        W91055  20.265  13.711  12.380
24647W        W91056   3.456  16.229   2.221
24648W        W91057   5.895  26.744   2.871
24649W        W91058  28.947  32.584  10.592
24650W        W91059  16.047  36.002  10.788
24651W        W91060  18.641   8.791   4.930
24652W        W91061  22.007  31.945  11.181
24653W        W91062   1.356   2.785   3.815
24654W        W91063   3.497  15.924  10.419
24655W        W91064  29.393  36.943   4.332
24656W        W91065   8.679  40.018  13.973
24657W        W91066   8.148  39.975  13.981
24658W        W91067  33.546  38.341  12.172
24659W        W91068  28.880  38.524   2.705
24660W        W91069  26.998  43.348   3.230
24661W        W91070   0.112   9.009   9.902
24662W        W91071  12.617  30.612  11.986
24663W        W91072  41.361  23.962   0.199
24664W        W91073  26.605  24.632   1.982
24665W        W91074  38.523  28.382   0.888
24666W        W91075  22.953   8.854   3.946
24667W        W91076  11.963  40.022   4.534
24668W        W91077  18.381  35.876   0.300
24669W        W91078  42.536  31.149  13.511
24670W        W91079   8.357  27.455  14.680
24671W        W91080  42.231  13.623   3.804
24672W        W91081  28.858  14.566  10.815
24673W        W91082   0.836   7.146   2.324
24674W        W91083  21.635  37.642   0.216
24675W        W91084  26.639  28.740  13.398
24676W        W91085  38.499   7.901  11.324
24677W        W91086  11.824  27.171  14.305
24678W        W91087   6.274  32.741  13.476
24679W        W91088   5.888  23.171   0.475
24680W        W91089  30.273  41.255  14.748
24681W        W91090   4.279   1.015   1.389
24682W        W91091  22.790  37.995  12.189
24683W        W91092  14.133  19.471   2.015
24684W        W91093  29.637   7.866   4.540
24685W        W91094  34.454  26.162   4.531
24686W        W91095  24.259  11.125   1.779
24687W        W91096  36.333  42.064  11.207
24688W        W91097   1.074  19.022  12.320
24689W        W91098  12.649  21.960  13.093
24690W        W91099  43.440  31.574   2.885
24691W        W91100  30.698   0.874   3.155
24692W        W91101  41.477  30.294   4.548
24693W        W91102   0.202   3.255  12.540
24694W        W91103  24.417  38.356  12.159
24695W        W91104  41.846   0.073   3.543
24696W        W91105  41.237   4.449   2.466
24697W        W91106  13.648  24.662  11.802
24698W        W91107  16.864  30.988   4.532
24699W        W91108  41.469   5.477   0.412
24700W        W91109   5.455  34.843   1.232
24701W        W91110  21.015  11.790  14.486
24702W        W91111   1.573  21.504   3.736
24703W        W91112  28.868  17.330   2.376
24704W        W91113  35.099  39.935   1.614
24705W        W91114  16.614  35.763  12.455
24706W        W91115  32.491  43.545   3.546
24707W        W91116  28.079  28.422  14.394
24708W        W91117  34.640  24.486  13.519
24709W        W91118   9.865  13.077  12.969
24710W        W91119  28.851  11.272  14.911
24711W        W91120   3.918  12.116  14.419
24712W        W91121  35.074  15.803   0.780
24713W        W91122   2.329  32.094   4.139
24714W        W91123   6.344  32.216  11.245
24715W        W91124  44.687  32.506  13.634
24716W        W91125   1.468  42.297  13.910
24717W        W91126  32.493   6.578   1.719
24718W        W91127   2.673  17.473   0.927
24719W        W91128  35.733   9.994  14.033
24720W        W91129  23.640  20.010  14.975
24721W        W91130   8.180  37.284   3.311
24722W        W91131   0.867  24.486  12.120
24723W        W91132   8.283  37.148   2.008
24724W        W91133   1.892  29.029   1.724
24725W        W91134  29.070   8.757  12.940
24726W        W91135  24.190  33.360   4.500
24727W        W91136  20.791  28.126  11.087
24728W        W91137  12.207  40.211  12.877
24729W        W91138  26.185  21.221  11.250
24730W        W91139  20.850  44.164   3.840
24731W        W91140  23.511  21.170   1.364
24732W        W91141  37.848  23.737  11.169
24733W        W91142  36.849  28.574   4.097
24734W        W91143  33.337  30.607  11.157
24735W        W91144   1.262  40.999  10.878
24736W        W91145  37.040  21.256   2.860
24737W        W91146  28.697   6.822   3.607
24738W        W91147   0.391  38.885   3.783
24739W        W91148  32.859   9.238   1.431
24740W        W91149  32.386   5.088   0.647
24741W        W91150  15.658   9.147  10.932
24742W        W91151   8.307   3.651   0.290
24743W        W91152  23.519  24.414  13.109
24744W        W91153  37.080  34.828   1.938
24745W        W91154  31.637  14.383  11.177
24746W        W91155   2.165  43.760  11.013
24747W        W91156   9.281  34.955   4.538
24748W        W91157  34.394   1.056  10.674
24749W        W91158   5.869  12.178   2.811
24750W        W91159  12.369  11.095   0.684
24751W        W91160  40.238  17.908  14.429
24752W        W91161  22.149  32.096   0.835
24753W        W91162  11.217   6.930  12.653
24754W        W91163  39.738  34.919  13.054
24755W        W91164  40.015  40.919  13.868
24756W        W91165  43.229  42.059   2.814
24757W        W91166  33.174   6.293  11.196
24758W        W91167   2.680   9.404   4.557
24759W        W91168   2.659  23.221   3.918
24760W        W91169   1.546   3.453  12.453
24761W        W91170  12.061  28.689  11.619
24762W        W91171  25.547   6.913  13.615
24763W        W91172  15.817  25.181  11.201
24764W        W91173  43.803   6.944   1.808
24765W        W91174  34.997  11.402   2.802
24766W        W91175   7.671  32.708   2.346
24767W        W91176  33.701  11.912   2.737
24768W        W91177   4.371  21.765  10.676
24769W        W91178  31.493  12.542   2.735
24770W        W91179   1.535  32.966   4.636
24771W        W91180  31.580   5.366   2.938
24772W        W91181  41.524   9.420   0.261
24773W        W91182  22.297   1.335  10.748
24774W        W91183  33.113  19.234  14.626
24775W        W91184  15.633  22.629   1.169
24776W        W91185  16.331  38.046   0.161
24777W        W91186  27.773   7.093  14.073
24778W        W91187  37.409  13.177  14.316
24779W        W91188  29.113   3.988   4.925
24780W        W91189   5.642  11.757   1.387
24781W        W91190  39.428  44.489  11.191
24782W        W91191   6.426   6.294   3.010
24783W        W91192  10.781  42.100  14.075
24784W        W91193  30.717  44.957   3.294
24785W        W91194   7.853   7.160  13.998
24786W        W91195   8.112  40.199   4.549
24787W        W91196  27.504  11.453  10.207
24788W        W91197  15.186  43.443   0.914
24789W        W91198  19.859  27.896  13.022
24790W        W91199  23.764  12.315  14.978
24791W        W91200  15.059  14.184  13.068
24792W        W91201  18.870  19.985   4.401
24793W        W91202  15.246   3.013   0.313
24794W        W91203  22.071  19.167  12.366
24795W        W91204  42.921  17.579  12.471
24796W        W91205  10.812  16.188  12.232
24797W        W91206   0.237  41.450   2.270
24798W        W91207  18.183  20.474   1.624
24799W        W91208  23.762   2.393   2.404
24800W        W91209  24.792   3.966  13.395
24801W        W91210  35.393  42.254  13.854
24802W        W91211  13.903  20.030   2.694
24803W        W91212  38.871   1.960  10.685
24804W        W91213  14.538   4.212  12.529
24805W        W91214   4.440  37.493  11.335
24806W        W91215  15.337  13.142   0.621
24807W        W91216  36.529  22.255   1.330
24808W        W91217  16.186  44.351  10.734
24809W        W91218  13.559  11.658  13.821
24810W        W91219  35.840  20.565   4.730
24811W        W91220   7.427  22.195   4.124
24812W        W91221   2.520  29.639  11.613
24813W        W91222  16.537  30.819   3.175
24814W        W91223  42.299   0.492   2.862
24815W        W91224  22.122  16.028  13.510
24816W        W91225  28.027  21.736  13.879
24817W        W91226  11.688   7.876  11.356
24818W        W91227   5.741  36.041   0.474
24819W        W91228  24.572  37.318  12.433
24820W        W91229  29.603  15.139  13.872
24821W        W91230  24.777  24.359   0.333
24822W        W91231  39.830  27.543   3.612
24823W        W91232  35.957  28.541  14.327
24824W        W91233  35.090   4.425   2.784
24825W        W91234  33.617  22.782  11.972
24826W        W91235  17.635  31.124   2.317
24827W        W91236  38.742  38.701  10.120
24828W        W91237  27.598  22.500  14.042
24829W        W91238  25.118   2.213   3.760
24830W        W91239   7.949  40.748  12.991
24831W        W91240  38.672  16.444  14.024
24832W        W91241   7.796  37.046   4.198
24833W        W91242   7.324   0.474  12.154
24834W        W91243  32.634  22.326   1.369
24835W        W91244  19.916  19.109  10.620
24836W        W91245  13.516  28.727   4.135
24837W        W91246  19.084  42.555  12.864
24838W        W91247  26.904  26.319   2.621
24839W        W91248  32.922  21.010  13.512
24840W        W91249  40.203  32.567   1.073
24841W        W91250  15.100  22.734  11.180
24842W        W91251  16.132   3.521  11.977
24843W        W91252   9.711  23.128   0.062
24844W        W91253  19.703   8.201   2.802
24845W        W91254  27.172  24.558  14.803
24846W        W91255   1.963  38.340  11.226
24847W        W91256   2.124  33.573   3.717
24848W        W91257  31.588  15.861  10.611
24849W        W91258  38.185  12.836   2.406
24850W        W91259  20.094  11.219   1.344
24851W        W91260  42.546  28.928   3.246
24852W        W91261   8.385  19.343   4.602
24853W        W91262   1.667  21.143  13.430
24854W        W91263  24.096   8.295   2.367
24855W        W91264  23.387  33.974   3.692
24856W        W91265  18.879  16.256  12.105
24857W        W91266  27.031  39.993   1.344
24858W        W91267  28.418  30.726  13.967
24859W        W91268  24.097  37.103  12.454
24860W        W91269  19.686  38.778  12.644
24861W        W91270   7.860   3.007  12.927
24862W        W91271  18.583   5.294   3.729
24863W        W91272  19.128  11.515  12.904
24864W        W91273  39.454  16.397  14.005
24865W        W91274  22.794   9.420  14.864
24866W        W91275  40.425  38.196   2.332
24867W        W91276  17.725   8.581  11.473
24868W        W91277   8.851  17.910  12.226
24869W        W91278  32.704  21.081  13.062
24870W        W91279   5.953  13.059   2.905
24871W        W91280  16.412  43.697  14.517
24872W        W91281  38.788  42.433  13.459
24873W        W91282   5.906   4.305   0.051
24874W        W91283  23.020  23.081   3.166
24875W        W91284  36.754  17.125   5.414
24876W        W91285  20.729  43.299   3.706
24877W        W91286  26.445  44.577   5.150
24878W        W91287  12.918  25.601   4.522
24879W        W91288   5.598   1.364  10.784
24880W        W91289  10.397   3.025  14.722
24881W        W91290  33.423  13.328   1.738
24882W        W91291  38.738  12.064  12.532
24883W        W91292  32.933  16.466   2.896
24884W        W91293  15.249  36.527   9.811
24885W        W91294   8.632  42.294   1.294
24886W        W91295  40.389  42.012  13.445
24887W        W91296  20.915  26.172  12.001
24888W        W91297   5.951  29.222  12.430
24889W        W91298   9.161  17.571  12.445
24890W        W91299  24.692  23.991   2.236
24891W        W91300  28.081  28.944  14.704
24892W        W91301  28.460  33.327  12.175
24893W        W91302  30.175  38.736   3.982
24894W        W91303  36.194  38.423  13.888
24895W        W91304   7.441  17.273  12.170
24896W        W91305  23.109  28.546   4.328
24897W        W91306  27.577  39.240   3.163
24898W        W91307  37.845  35.174   1.740
24899W        W91308  20.196   2.461   2.734
24900W        W91309  37.155   6.145   2.750
24901W        W91310   6.313  33.356  12.103
24902W        W91311  41.376   5.204  13.950
24903W        W91312  24.288  44.841  13.973
24904W        W91313  13.829   8.354  14.468
24905W        W91314  15.417  24.690  11.624
24906W        W91315  17.306   8.819  14.096
24907W        W91316  23.076  36.690  10.826
24908W        W91317  42.834  21.699  10.622
24909W        W91318   5.401  33.143   3.135
24910W        W91319  20.257  40.987   1.347
24911W        W91320   7.884  33.433  10.574
24912W        W91321   4.980  28.160  13.628
24913W        W91322  39.135  26.027  13.465
24914W        W91323   7.859  32.060   0.872
24915W        W91324  35.120  21.011  13.830
24916W        W91325  15.285  24.539  14.502
24917W        W91326   5.742  29.416   2.222
24918W        W91327   1.382  41.782  13.887
24919W        W91328  40.953  25.225   0.319
24920W        W91329  18.201   0.595   1.267
24921W        W91330  12.761  26.616   5.004
24922W        W91331  26.635  41.353   1.701
24923W        W91332  22.500  42.719   4.251
24924W        W91333  37.714   2.222   0.735
24925W        W91334   9.372  38.854   1.353
24926W        W91335  39.545  28.936   2.276
24927W        W91336   8.763   3.693  14.962
24928W        W91337  11.125  37.730  11.843
24929W        W91338  32.305   9.012   5.010
24930W        W91339  13.591   6.561   1.727
24931W        W91340   9.931  33.209   2.801
24932W        W91341  19.232  36.979   3.958
24933W        W91342  20.033   4.180   3.723
24934W        W91343  26.881  16.278  10.742
24935W        W91344   5.488   2.337  11.593
24936W        W91345  26.696  26.550  11.378
24937W        W91346  31.692  14.630   3.156
24938W        W91347  13.796  13.617   1.319
24939W        W91348  33.962  43.988  13.838
24940W        W91349  10.675  38.755   3.815
24941W        W91350  28.063  13.219   3.213
24942W        W91351  24.945  26.999   0.174
24943W        W91352  17.290  11.300  14.331
24944W        W91353  23.610   4.668   1.929
24945W        W91354   7.430  25.098   2.833
24946W        W91355  38.360  13.143   0.356
24947W        W91356  40.402  30.656   1.373
24948W        W91357  20.658  23.657   1.822
24949W        W91358  35.621  11.766  14.902
24950W        W91359   4.228  21.036   0.861
24951W        W91360  23.344  30.425   4.761
24952W        W91361   2.758   7.859   0.761
24953W        W91362  37.473  31.596   1.813
24954W        W91363   2.466   5.190   2.381
24955W        W91364  23.681  43.000   0.726
24956W        W91365  18.784  39.485   2.346
24957W        W91366  18.992  26.125  13.134
24958W        W91367  15.051   5.635  12.122
24959W        W91368  40.894  36.919  14.728
24960W        W91369  13.210   8.327  13.166
24961W        W91370  42.493  26.161  13.677
24962W        W91371  39.346  43.249   2.407
24963W        W91372   6.916  28.837   1.129
24964W        W91373  12.100  41.607  14.703
24965W        W91374  34.974  37.984  10.550
24966W        W91375  29.107  10.685  11.628
24967W        W91376  31.578  20.794   2.777
24968W        W91377   6.217  38.383  11.405
24969W        W91378  31.980  41.957   4.952
24970W        W91379   8.727  35.305  13.900
24971W        W91380  35.588   9.321  14.778
24972W        W91381  14.688  32.513  11.570
24973W        W91382   4.544  41.465   0.334
24974W        W91383  40.316  43.639  11.185
24975W        W91384  11.875  44.366   4.012
24976W        W91385  32.353  31.955   4.486
24977W        W91386  16.144  18.228  14.459
24978W        W91387  21.117   6.369   2.695
24979W        W91388  32.288  38.371   1.664
24980W        W91389  30.517   3.901  12.439
24981W        W91390  11.686  20.040   1.857
24982W        W91391  21.268   6.411   3.228
24983W        W91392  26.425  23.188   1.147
24984W        W91393  18.485  27.628  13.639
24985W        W91394   2.123   5.865   1.435
24986W        W91395   3.769  22.262   3.339
24987W        W91396   3.203   8.256   1.321
24988W        W91397   4.407  27.238  10.685
24989W        W91398  29.970   2.346   1.881
24990W        W91399  15.255  43.795   1.733
24991W        W91400  42.583  44.408  10.870
24992W        W91401  13.580   4.719   4.012
24993W        W91402  24.899  35.609  13.811
24994W        W91403  15.312   1.933   2.637
24995W        W91404   3.157   4.895  13.910
24996W        W91405  26.214  18.940  13.289
24997W        W91406  28.602  41.820  14.000
24998W        W91407  37.992   9.693   4.936
24999W        W91408  25.806  40.763   1.769
25000W        W91409  31.728   9.158   4.521
25001W        W91410  10.402  44.308  10.768
25002W        W91411  33.897  25.108  10.970
25003W        W91412   6.330  24.477   2.313
25004W        W91413  32.867  18.668  11.145
25005W        W91414  11.375  33.448  11.996
25006W        W91415   2.253  38.599  12.557
25007W        W91416  15.988   4.727  11.583
25008W        W91417  30.007  37.298  13.683
25009W        W91418   9.736  39.054  14.451
25010W        W91419  37.051  31.112   2.738
25011W        W91420   8.772  39.098   3.371
25012W        W91421  19.055   7.280  14.928
25013W        W91422  14.863  39.333  11.642
25014W        W91423   2.721  37.169   3.744
25015W        W91424  26.500  38.862  10.798
25016W        W91425   9.146  11.561   1.335
25017W        W91426  32.113  44.840   4.365
25018W        W91427  41.148  11.583   4.924
25019W        W91428  21.588   3.877   0.086
25020W        W91429   1.691  33.549  10.699
25021W        W91430  29.063  35.201   1.914
25022W        W91431  18.135  22.467   4.984
25023W        W91432  10.167   0.898   3.608
25024W        W91433  20.675  32.640   3.830
25025W        W91434  39.090  31.427   1.936
25026W        W91435  39.255  16.275   4.103
25027W        W91436  10.428  31.648   1.421
25028W        W91437  22.586  35.973  13.570
25029W        W91438  11.223  31.592   4.134
25030W        W91439  36.162   0.935   0.252
25031W        W91440   0.900  38.243   4.159
25032W        W91441  24.243  37.840  11.066
25033W        W91442  19.379  29.468  13.650
25034W        W91443  42.882  14.045  13.353
25035W        W91444  37.992  16.245  11.658
25036W        W91445  22.286  28.133   1.347
25037W        W91446  23.994  11.568  11.114
25038W        W91447  36.254  12.640  13.047
25039W        W91448   6.072  20.552  11.443
25040W        W91449   1.809   6.752   3.895
25041W        W91450  28.096  33.178   4.129
25042W        W91451   6.420  30.605  14.751
25043W        W91452  27.182  33.634  11.637
25044W        W91453  28.114  35.912   3.237
25045W        W91454   7.905  13.785   0.603
25046W        W91455  44.681  25.138   1.040
25047W        W91456  27.865  31.561   0.319
25048W        W91457  39.026  40.002  11.951
25049W        W91458  20.482   7.112  13.870
25050W        W91459  43.134  42.774   3.749
25051W        W91460  21.596  10.165  11.173
25052W        W91461   3.937  14.497   5.174
25053W        W91462  37.307  43.503   1.163
25054W        W91463  13.282  13.803  11.467
25055W        W91464   1.498   7.651  12.360
25056W        W91465  29.601  16.460   1.980
25057W        W91466   4.791  22.012  11.819
25058W        W91467  18.788  33.930  10.666
25059W        W91468  35.417  37.668   4.693
25060W        W91469  37.860   3.106   5.067
25061W        W91470  30.441  12.221  12.328
25062W        W91471  13.329  40.251   3.236
25063W        W91472  23.151  43.694  14.412
25064W        W91473  25.119  22.529   1.431
25065W        W91474  32.683  41.022  14.420
25066W        W91475  32.050   1.555   1.738
25067W        W91476  21.658  24.238  10.317
25068W        W91477  33.850   9.159  14.357
25069W        W91478   3.751  13.948   1.605
25070W        W91479   1.921   1.802   2.760
25071W        W91480  31.457   5.414  14.074
25072W        W91481  10.751  22.522   1.793
25073W        W91482   0.257  11.188   4.106
25074W        W91483  39.443  34.538   3.765
25075W        W91484   7.602  21.507  14.265
25076W        W91485   9.247  13.856   0.763
25077W        W91486  43.663  32.572   1.503
25078W        W91487  36.956  36.449  12.426
25079W        W91488  25.095  32.648  13.488
25080W        W91489  24.715  24.600  12.874
25081W        W91490  25.479  23.020  13.948
25082W        W91491  16.621  10.341  12.892
25083W        W91492  25.983  23.830   0.836
25084W        W91493  34.283  40.605  13.049
25085W        W91494  21.625  43.468   4.523
25086W        W91495  25.105  20.189   1.105
25087W        W91496  38.435   8.237  13.464
25088W        W91497  11.305  13.544   3.221
25089W        W91498   8.948  27.711   2.395
25090W        W91499   1.295   8.679  14.701
25091W        W91500  44.830  28.926  13.923
25092W        W91501  21.170  20.244   2.574
25093W        W91502  32.315  21.069  10.738
25094W        W91503  29.722  13.014   0.819
25095W        W91504  10.818   1.120   2.687
25096W        W91505  29.455  21.669   4.589
25097W        W91506   1.819  22.824  11.510
25098W        W91507   7.619  33.565  11.475
25099W        W91508   5.942  35.215   2.419
25100W        W91509  15.850  38.008  12.854
25101W        W91510  13.502  43.339   2.307
25102W        W91511  25.683  15.599   1.827
25103W        W91512  30.993  10.593  14.058
25104W        W91513  27.167   7.627   9.974
25105W        W91514   7.755  13.231  12.919
25106W        W91515  10.269  18.800   2.697
25107W        W91516  13.906  15.791  10.776
25108W        W91517  41.640  18.690   4.146
25109W        W91518  37.175  27.520  13.443
25110W        W91519  25.423  11.217   1.395
25111W        W91520  19.907  40.828   4.911
25112W        W91521  23.695  35.912  11.688
25113W        W91522  23.150   1.953  13.938
25114W        W91523  31.692  35.917  13.083
25115W        W91524  17.793   9.767   4.630
25116W        W91525  13.327  44.848   5.425
25117W        W91526  23.254  30.097  10.634
25118W        W91527  25.186  39.657  13.061
25119W        W91528  10.947  38.323   4.479
25120W        W91529  35.860  25.033  14.047
25121W        W91530  18.303  25.002  13.386
25122W        W91531  17.659  31.135   3.606
25123W        W91532  42.008  16.622   3.249
25124W        W91533  42.444  31.688  13.387
25125W        W91534  16.910  17.545   3.252
25126W        W91535  30.995  26.439  11.121
25127W        W91536   5.167  19.223   0.709
25128W        W91537  26.293  11.846  12.589
25129W        W91538  16.575  14.750   3.696
25130W        W91539   2.283  44.603   4.555
25131W        W91540  28.792  29.322  13.703
25132W        W91541  20.242  26.197  11.144
25133W        W91542   6.018  20.023   1.564
25134W        W91543  44.480  30.024   2.145
25135W        W91544  31.670   0.708   4.167
25136W        W91545   0.966  35.881  13.059
25137W        W91546  35.682  15.567   3.325
25138W        W91547  26.969   9.445  14.778
25139W        W91548  32.015  30.927  13.467
25140W        W91549  17.539  42.214   4.503
25141W        W91550   9.693  14.377  14.527
25142W        W91551  14.930  42.116   4.616
25143W        W91552  32.638  35.434   2.837
25144W        W91553  42.862   7.794   1.898
25145W        W91554  21.616  18.497  14.214
25146W        W91555  34.838  22.534  12.890
25147W        W91556  25.889  22.113  14.873
25148W        W91557  21.084  39.423  12.381
25149W        W91558   0.039   8.258  11.139
25150W        W91559  16.618  42.277  13.137
25151W        W91560   1.155  22.738   4.550
25152W        W91561  15.387  13.526   1.018
25153W        W91562  23.997  41.706   1.506
25154W        W91563  44.933  28.429  14.028
25155W        W91564  12.150   2.280   4.546
25156W        W91565  21.550   6.616  11.529
25157W        W91566  11.207  30.041  13.358
25158W        W91567  40.258  10.643   0.886
25159W        W91568   1.962  37.238  14.760
25160W        W91569  33.891  15.286   0.762
25161W        W91570   3.528  30.583  11.539
25162W        W91571  40.992  13.999  14.087
25163W        W91572  29.529  22.284   3.727
25164W        W91573  16.601  12.783  11.270
25165W        W91574  19.083  28.094  14.000
25166W        W91575  43.031  29.189  12.099
25167W        W91576  35.614  24.066  14.389
25168W        W91577  22.380  24.176   0.188
25169W        W91578  39.756  28.473   3.192
25170W        W91579  12.888  42.070   2.717
25171W        W91580  21.620  23.683  12.946
25172W        W91581  37.131  30.997  11.247
25173W        W91582  12.559  39.824  13.891
25174W        W91583   7.196  13.832  14.441
25175W        W91584   3.342  38.332  14.714
25176W        W91585  22.791  12.343   3.983
25177W        W91586  37.866  19.041   2.160
25178W        W91587   9.165  24.209   5.193
25179W        W91588  17.197  21.691  14.995
25180W        W91589  10.859  10.074  10.965
25181W        W91590  17.699  33.048  13.466
25182W        W91591  20.195  28.901   0.300
25183W        W91592  41.884   2.404   3.042
25184W        W91593  16.142  18.134   0.479
25185W        W91594  20.609  16.543  12.050
25186W        W91595  21.955  19.648  14.826
25187W        W91596  10.748  32.536   1.800
25188W        W91597  12.725  40.028   3.673
25189W        W91598  19.303  13.296  12.967
25190W        W91599  19.172  31.072  14.020
25191W        W91600  23.609  10.893  13.506
25192W        W91601  37.541  35.984  12.175
25193W        W91602   5.279  37.386  11.954
25194W        W91603  33.445  36.008  10.076
25195W        W91604  44.004   3.727   0.433
25196W        W91605  23.342  34.821  14.324
25197W        W91606  14.374   7.398   2.810
25198W        W91607  15.100  44.581  11.552
25199W        W91608  23.233   6.523   1.802
25200W        W91609  31.289  11.367   4.995
25201W        W91610  26.739  38.829   0.499
25202W        W91611  24.505  42.305  11.549
25203W        W91612  40.322  40.818   2.908
25204W        W91613  12.170   9.425  14.364
25205W        W91614  34.278   3.935  14.012
25206W        W91615   0.020   4.244  12.951
25207W        W91616  41.031  23.964   0.886
25208W        W91617   3.456  24.248   1.422
25209W        W91618   6.348  10.635  11.715
25210W        W91619  20.128  25.859   2.392
25211W        W91620  14.167   6.366   3.788
25212W        W91621  17.698  15.248  10.756
25213W        W91622  25.968  26.644   0.035
25214W        W91623  38.841  16.444   1.710
25215W        W91624  41.510  21.607   0.707
25216W        W91625  17.711  19.717  14.404
25217W        W91626  36.835  32.472  13.053
25218W        W91627  15.025  38.095   4.372
25219W        W91628   3.738  16.330   0.398
25220W        W91629  21.992  38.921  14.194
25221W        W91630   8.608  43.835   1.078
25222W        W91631  36.541  42.760   4.968
25223W        W91632  19.926   0.406   0.864
25224W        W91633  34.057  29.823  11.551
25225W        W91634  28.450  34.888   0.355
25226W        W91635  40.524  20.555  14.001
25227W        W91636  11.694  30.552  13.345
25228W        W91637   5.883   1.921   3.651
25229W        W91638  14.086  22.706   3.686
25230W        W91639  42.839  12.833  12.992
25231W        W91640  26.407  14.143  10.775
25232W        W91641  33.918  40.989   3.154
25233W        W91642  31.467  36.943  10.717
25234W        W91643  38.320   0.511  13.896
25235W        W91644  39.503   2.665  13.110
25236W        W91645  18.060  36.567   3.595
25237W        W91646  34.583  22.216   1.428
25238W        W91647  16.224  39.248   4.045
25239W        W91648  35.973  21.468  14.520
25240W        W91649  40.888  13.822   4.523
25241W        W91650   4.690  30.681   1.391
25242W        W91651  30.495  37.920   3.212
25243W        W91652  22.751  17.661   3.176
25244W        W91653  23.989  24.153   4.512
25245W        W91654  16.908  27.515  12.362
25246W        W91655  33.797  27.632  12.072
25247W        W91656   5.864  42.403  13.939
25248W        W91657   5.230  14.275   3.744
25249W        W91658  16.800  30.883  10.606
25250W        W91659  29.888   7.021  10.721
25251W        W91660   8.143   7.175   5.041
25252W        W91661  23.714  35.901  10.722
25253W        W91662  36.851   2.633  12.962
25254W        W91663  30.400  23.725  13.965
25255W        W91664  20.507  31.146  14.911
25256W        W91665  11.256   7.612  11.403
25257W        W91666  36.443  24.761   4.893
25258W        W91667  29.285  33.195   0.769
25259W        W91668   7.121  43.412  11.511
25260W        W91669  28.505  18.610   1.833
25261W        W91670  29.425  38.365  12.069
25262W        W91671   7.095   5.069   1.908
25263W        W91672   9.713  28.135  11.397
25264W        W91673  37.672  29.451  11.249
25265W        W91674   4.782  17.611   4.474
25266W        W91675  33.997  25.031  12.836
25267W        W91676  17.286  23.719   1.455
25268W        W91677  16.096  40.787  10.688
25269W        W91678  14.083  20.115   3.387
25270W        W91679  19.928  39.885  12.838
25271W        W91680  13.398  21.046   5.494
25272W        W91681  20.769  28.952  14.543
25273W        W91682   5.343  15.153  12.827
25274W        W91683  12.575   5.780   4.583
25275W        W91684  28.347  38.959   1.349
25276W        W91685   5.358  44.410  14.411
25277W        W91686  39.820  21.122  14.422
25278W        W91687   8.499  26.821   4.628
25279W        W91688   5.032  19.774  12.174
25280W        W91689  32.077  24.036   4.933
25281W        W91690  14.314  26.664  12.822
25282W        W91691  30.651   3.322   2.961
25283W        W91692  42.134  32.829  11.920
25284W        W91693  14.290  34.037   2.601
25285W        W91694  21.002  24.021   3.704
25286W        W91695  30.830  28.185  13.254
25287W        W91696   9.824  36.985   5.329
25288W        W91697  39.858   8.764   3.650
25289W        W91698  26.491  16.263  13.451
25290W        W91699  36.646   0.921  11.181
25291W        W91700  39.408  40.273  14.989
25292W        W91701   1.316   1.925  10.395
25293W        W91702  35.448  44.382  11.468
25294W        W91703  27.976  29.481   4.136
25295W        W91704  30.978  44.485   1.314
25296W        W91705  17.484  29.016   4.042
25297W        W91706   2.770   9.382   2.506
25298W        W91707  38.299  43.853   1.830
25299W        W91708   8.806  26.297  12.456
25300W        W91709  34.400  40.526   4.652
25301W        W91710  26.494   3.240  14.522
25302W        W91711  16.672  27.952   1.732
25303W        W91712  38.504  25.971  12.588
25304W        W91713  31.352   4.780   3.611
25305W        W91714  11.694  34.444   3.849
25306W        W91715  23.442  40.686  12.543
25307W        W91716   0.789  43.467  11.696
25308W        W91717  27.401  18.277   2.740
25309W        W91718  32.108   2.913   0.281
25310W        W91719  42.280   7.337   1.443
25311W        W91720   8.455  10.591  12.445
25312W        W91721  14.060   8.821   0.708
25313W        W91722  22.536  17.653   3.692
25314W        W91723  12.790   1.798  11.931
25315W        W91724   3.258  16.495   4.717
25316W        W91725  17.723  10.304  12.976
25317W        W91726  10.509  32.371   0.255
25318W        W91727  41.269  22.840   1.199
25319W        W91728  33.074  42.161   1.791
25320W        W91729  40.531  36.522   3.582
25321W        W91730  16.097  20.254   2.922
25322W        W91731  36.037  42.260  11.647
25323W        W91732  36.978  42.278   2.934
25324W        W91733  18.857  35.047   3.229
25325W        W91734   9.293  18.863   4.553
25326W        W91735  16.895  15.614  10.351
25327W        W91736  15.208  23.833   1.252
25328W        W91737  21.676  40.994   0.481
25329W        W91738  18.784  19.298  12.873
25330W        W91739  29.649  17.968  13.278
25331W        W91740   8.433  39.786  12.995
25332W        W91741  27.458  10.184   0.059
25333W        W91742  37.550  42.985   0.193
25334W        W91743  34.184  30.458   0.629
25335W        W91744  29.586  23.278   1.904
25336W        W91745  41.337  14.057   3.702
25337W        W91746  34.882  20.538  10.985
25338W        W91747  15.187   0.285   2.882
25339W        W91748  12.815  23.569   4.626
25340W        W91749  30.439  20.041  14.250
25341W        W91750   7.471   2.831   0.051
25342W        W91751  10.212  30.098  10.230
25343W        W91752   2.837  13.392  11.043
25344W        W91753  31.179  37.873  11.962
25345W        W91754  18.043  32.870  11.068
25346W        W91755   1.322  36.987  13.444
25347W        W91756   9.314  16.097  11.459
25348W        W91757  36.538  14.295   1.480
25349W        W91758  43.753  29.693   3.125
25350W        W91759  29.129  13.306  11.587
25351W        W91760   3.380   5.926  10.957
25352W        W91761  27.007  35.890  10.871
25353W        W91762  33.671   5.914   4.074
25354W        W91763  43.646   2.432  12.358
25355W        W91764  24.624  32.818  14.508
25356W        W91765  19.538  44.957  13.388
25357W        W91766  11.787  13.558   4.646
25358W        W91767  40.498  26.932   5.077
25359W        W91768  20.557  11.820   3.324
25360W        W91769  26.043   9.995   1.509
25361W        W91770  22.028   6.250   4.811
25362W        W91771  24.731  37.767   0.710
25363W        W91772  28.224  25.104  14.404
25364W        W91773  14.354  13.341  12.345
25365W        W91774  22.155   4.000   4.555
25366W        W91775  14.018  21.176   2.256
25367W        W91776  35.516  33.556   4.858
25368W        W91777   0.795  13.399  12.582
25369W        W91778  21.817  26.262   3.201
25370W        W91779  44.646  42.213   0.898
25371W        W91780  30.894  20.634  11.400
25372W        W91781  27.865  44.579   0.888
25373W        W91782  40.282  26.577  12.532
25374W        W91783  27.895   5.248   4.302
25375W        W91784  42.509  17.108  11.386
25376W        W91785  15.872  16.022  13.495
25377W        W91786  14.798  11.308  12.647
25378W        W91787  16.498  11.203   2.418
25379W        W91788  18.920  12.625   1.717
25380W        W91789  26.561  41.277  12.026
25381W        W91790  38.752  29.968   2.656
25382W        W91791   0.600  18.738  13.543
25383W        W91792  16.432  17.642   0.313
25384W        W91793  25.250   0.415   0.151
25385W        W91794  41.325  36.641  14.918
25386W        W91795  20.564  20.220   0.644
25387W        W91796   5.177  38.309   3.762
25388W        W91797  22.559  36.185  11.184
25389W        W91798  38.334   8.771  10.764
25390W        W91799  17.696  15.607  13.433
25391W        W91800  26.753   4.459  11.116
25392W        W91801  44.705  22.245  14.459
25393W        W91802  20.381  36.367  14.471
25394W        W91803   3.356   5.299   3.807
25395W        W91804  26.789  34.033  13.458
25396W        W91805   8.748  23.384   1.014
25397W        W91806  18.788  13.572   0.424
25398W        W91807  34.940  34.932  12.874
25399W        W91808  31.474  21.583  10.981
25400W        W91809  10.036  15.240  13.431
25401W        W91810  44.209  12.093   1.194
25402W        W91811  18.102   3.777  12.463
25403W        W91812  41.887  32.618   4.212
25404W        W91813  23.061   8.649  14.012
25405W        W91814  38.897   7.933  10.493
25406W        W91815  39.003  27.192  14.070
25407W        W91816  27.448  37.755   3.305
25408W        W91817   4.009   5.484   3.332
25409W        W91818  23.756   9.924   0.853
25410W        W91819  15.663  15.517   3.263
25411W        W91820  25.472  13.277   2.323
25412W        W91821  14.419  31.639  13.449
25413W        W91822  23.922  44.376  12.405
25414W        W91823  29.048  43.975   2.226
25415W        W91824  36.113  11.137  12.010
25416W        W91825  18.047   9.653  12.239
25417W        W91826   7.659  44.983  13.435
25418W        W91827   4.214  37.940  11.516
25419W        W91828  24.427  22.221   2.326
25420W        W91829  12.810  42.398  12.369
25421W        W91830   1.444  16.710   3.870
25422W        W91831  25.262  26.974   4.203
25423W        W91832  29.075  21.646  11.370
25424W        W91833   2.345   6.146  11.944
25425W        W91834   6.364   5.240   3.559
25426W        W91835  24.133  14.149  12.721
25427W        W91836   3.441   8.278   3.259
25428W        W91837   9.924  21.549  13.113
25429W        W91838  12.197   2.853  12.048
25430W        W91839   9.533  23.983  12.984
25431W        W91840  28.675   7.029   4.757
25432W        W91841  35.712   4.461  12.254
25433W        W91842  20.750  36.045  11.497
25434W        W91843  24.705  16.278  11.568
25435W        W91844  30.664  16.871   2.699
25436W        W91845   9.521  22.681  14.307
25437W        W91846   7.635  14.691  14.903
25438W        W91847  24.908  37.714  11.039
25439W        W91848  31.545  32.001   4.089
25440W        W91849  29.166  34.333   1.308
25441W        W91850  20.553  21.064  13.569
25442W        W91851  38.533   9.302   5.164
25443W        W91852  40.939   2.698  11.765
25444W        W91853   2.690   6.662  14.290
25445W        W91854  43.757  25.091   2.400
25446W        W91855  15.079  20.326  14.505
25447W        W91856  21.150  40.541   0.536
25448W        W91857  16.715  11.222   3.793
25449W        W91858   1.112  34.503   3.698
25450W        W91859  24.525   4.017   2.733
25451W        W91860   1.507  36.015  11.529
25452W        W91861  41.668  29.784   1.472
25453W        W91862   3.891  40.303  14.668
25454W        W91863   9.286  26.384  12.614
25455W        W91864  40.528  10.877  13.451
25456W        W91865   7.101  18.793  14.294
25457W        W91866  39.310  27.655  12.463
25458W        W91867  21.457  33.281  12.399
25459W        W91868  38.389  36.092  10.652
25460W        W91869   3.271  42.534   2.862
25461W        W91870  38.909   6.257  14.889
25462W        W91871  21.635  28.189  10.719
25463W        W91872  43.966  16.152  12.370
25464W        W91873  10.152  10.305  12.802
25465W        W91874  41.868   9.167   1.373
25466W        W91875   9.125  28.083   4.765
25467W        W91876  30.325   9.983  12.525
25468W        W91877  35.900   3.475  10.592
25469W        W91878  23.030   2.956  12.840
25470W        W91879   3.288  38.717   1.004
25471W        W91880  22.088  38.331   2.443
25472W        W91881  43.057   4.987   4.656
25473W        W91882  18.754  38.273  12.698
25474W        W91883   6.215  27.213   3.658
25475W        W91884  44.823   6.148  13.112
25476W        W91885  22.130  19.245  13.542
25477W        W91886  28.163  28.188   4.518
25478W        W91887  24.043  18.409   1.017
25479W        W91888  36.248   4.673  12.936
25480W        W91889   6.881  29.631   0.434
25481W        W91890  36.394  44.324   4.535
25482W        W91891  37.353  33.587   1.506
25483W        W91892  20.280   4.247   3.260
25484W        W91893  23.607  41.913  14.922
25485W        W91894  40.603  28.908   2.307
25486W        W91895  34.964  43.399   3.372
25487W        W91896  24.270   4.788   4.590
25488W        W91897  40.525  38.080   0.977
25489W        W91898  32.754   3.925  11.759
25490W        W91899  21.087   5.281   2.864
25491W        W91900  37.370  31.049  14.877
25492W        W91901  11.700   6.158   4.200
25493W        W91902  19.592  19.719  14.970
25494W        W91903   5.204  25.705  11.064
25495W        W91904  44.511  30.612  10.838
25496W        W91905   2.983  35.010  13.124
25497W        W91906  12.993   5.925  11.080
25498W        W91907   7.918  27.487   2.283
25499W        W91908  17.874  29.968  12.800
25500W        W91909  14.753  29.343  12.924
25501W        W91910  43.728  15.831   0.895
25502W        W91911  14.074  40.599   4.635
25503W        W91912   4.672  13.113  12.139
25504W        W91913   8.198  22.551   3.875
25505W        W91914   1.300  17.354  10.657
25506W        W91915  41.501  37.608   1.983
25507W        W91916   3.420  32.639  13.485
25508W        W91917  15.116  18.355   0.380
25509W        W91918   7.905  37.328   0.016
25510W        W91919  33.095  28.429   1.259
25511W        W91920  44.777  23.583  11.411
25512W        W91921  40.758  22.098   2.774
25513W        W91922  32.830  36.898  11.210
25514W        W91923  17.644  20.104  10.706
25515W        W91924  13.593  10.634   3.465
25516W        W91925  33.567   2.225   0.430
25517W        W91926  43.150  32.659   2.815
25518W        W91927  19.021  11.338   1.228
25519W        W91928  16.177  24.934   4.136
25520W        W91929  34.404   3.280   3.821
25521W        W91930  33.339  19.507  11.603
25522W        W91931   9.164  31.048  10.099
25523W        W91932  32.215  27.103  11.162
25524W        W91933  31.300   1.449   5.448
25525W        W91934  32.588  42.262  13.105
25526W        W91935  31.353  17.755   2.204
25527W        W91936  21.231   2.514   3.462
25528W        W91937  31.392  17.689   1.580
25529W        W91938  39.785  41.491   1.938
25530W        W91939   4.776  10.393  10.378
25531W        W91940   7.385   7.112  10.723
25532W        W91941  33.462  34.643  14.725
25533W        W91942  40.754  16.570   3.333
25534W        W91943  14.090  33.368   3.826
25535W        W91944  35.607   0.722  11.154
25536W        W91945  27.071  30.620  14.436
25537W        W91946   4.157  22.084   3.028
25538W        W91947   8.739  43.201   3.712
25539W        W91948  29.647  16.960   5.103
25540W        W91949  28.055  23.688  12.108
25541W        W91950   3.860   3.050   2.617
25542W        W91951  19.763  29.226   0.284
25543W        W91952  29.483  32.518  14.615
25544W        W91953  43.741  39.434   3.315
25545W        W91954  28.130   4.101   0.908
25546W        W91955   4.732  44.987  11.949
25547W        W91956  37.848  15.718  13.329
25548W        W91957  29.939  16.124  14.278
25549W        W91958   1.607  44.932   4.137
25550W        W91959  29.963  20.470   4.284
25551W        W91960  25.939  23.572  14.725
25552W        W91961  34.137   2.697  13.880
25553W        W91962  39.542  10.466  12.468
25554W        W91963  22.999  34.539  14.018
25555W        W91964  20.617   7.838  14.343
25556W        W91965  16.313  44.027  11.956
25557W        W91966  25.902  39.878  11.582
25558W        W91967  13.251  12.116  11.192
25559W        W91968  19.011   0.679  11.225
25560W        W91969  41.582  40.072   3.658
25561W        W91970  29.051  35.431  14.101
25562W        W91971  38.533   8.811   0.842
25563W        W91972  18.316  37.034   2.223
25564W        W91973  26.459  18.811  13.807
25565W        W91974  11.735  29.690   2.699
25566W        W91975  17.785  22.411   0.315
25567W        W91976   7.977  31.033   4.035
25568W        W91977  21.869  11.748  10.813
25569W        W91978  24.096  14.077  14.628
25570W        W91979  35.950  19.786   2.952
25571W        W91980  10.055  38.117   2.490
25572W        W91981  22.724  24.744   2.744
25573W        W91982  10.830   9.255   3.847
25574W        W91983  41.854   9.108   2.278
25575W        W91984  36.801  13.560   3.229
25576W        W91985  31.795   6.904   3.125
25577W        W91986  40.079  16.092   4.715
25578W        W91987  35.235   3.195  11.291
25579W        W91988  22.237  19.711   2.739
25580W        W91989  33.854  11.376  12.320
25581W        W91990   1.381  36.616  14.425
25582W        W91991  36.126  28.488  14.812
25583W        W91992  12.322  33.011   2.805
25584W        W91993   8.656  44.435  13.466
25585W        W91994  32.667   9.319   4.284
25586W        W91995  30.385   5.339   0.890
25587W        W91996  12.720  36.587  11.084
25588W        W91997  24.433   3.461   4.666
25589W        W91998  30.651  33.965  13.502
25590W        W91999   0.697  22.487   2.769
25591W        W92000   3.666  12.918   1.761
25592W        W92001   6.068  23.162   1.869
25593W        W92002  25.634  35.055  14.395
25594W        W92003   1.787  16.195   2.323
25595W        W92004  15.387  25.958   4.228
25596W        W92005  35.008   6.128   3.258
25597W        W92006  31.586  16.752   3.127
25598W        W92007  15.620  12.439   2.406
25599W        W92008  18.317  18.956   1.902
25600W        W92009  18.331  39.618   3.669
25601W        W92010  12.888  42.796  11.134
25602W        W92011   7.279  26.422  13.313
25603W        W92012   5.820  15.683  13.889
25604W        W92013  21.741  37.538  13.313
25605W        W92014  39.430  36.459  13.378
25606W        W92015  44.519  24.252   4.203
25607W        W92016  13.646  34.330   3.728
25608W        W92017  42.854  35.862  12.515
25609W        W92018  36.328  42.348  12.451
25610W        W92019  23.522  34.536  13.745
25611W        W92020  34.569   8.939   4.821
25612W        W92021  40.941   2.294   4.210
25613W        W92022  16.539  42.785  10.637
25614W        W92023  39.275  31.359   3.189
25615W        W92024  37.393   3.003  14.244
25616W        W92025   8.760  26.990  13.061
25617W        W92026  12.642  36.348   4.096
25618W        W92027  40.029  44.777   4.895
25619W        W92028  22.707  17.879  12.637
25620W        W92029   6.283  34.992   3.752
25621W        W92030   3.310  27.955  12.583
25622W        W92031   0.935  39.265   2.450
25623W        W92032  41.747  33.996  14.447
25624W        W92033  39.074  18.391  10.658
25625W        W92034  41.180  38.271   0.350
25626W        W92035  22.092  31.925  14.774
25627W        W92036  13.282  33.433  14.902
25628W        W92037  28.198  18.058   3.759
25629W        W92038  31.804  16.841  14.472
25630W        W92039  18.833   7.338  10.238
25631W        W92040   3.715  42.801   2.255
25632W        W92041  15.016  41.198   4.360
25633W        W92042   0.470  38.955  12.568
25634W        W92043  11.130  24.590  14.934
25635W        W92044  34.295  20.134   0.397
25636W        W92045  17.496   7.458   3.100
25637W        W92046  12.254  30.755   0.236
25638W        W92047  16.552   3.413  11.085
25639W        W92048  41.701  10.339   3.482
25640W        W92049  27.475  35.115  11.682
25641W        W92050  36.275  27.193   2.313
25642W        W92051  20.165  41.919   4.338
25643W        W92052   8.560  33.638   1.751
25644W        W92053  26.475  29.910  10.758
25645W        W92054  18.740   7.623  12.453
25646W        W92055   0.411  43.422  12.029
25647W        W92056  17.618  29.450   3.269
25648W        W92057  12.396  13.729   1.631
25649W        W92058  13.058  34.976   4.237
25650W        W92059  41.206  12.138   4.988
25651W        W92060   2.419  31.930   2.238
25652W        W92061  11.835   0.183  10.686
25653W        W92062  32.404  21.236   3.774
25654W        W92063  17.245  28.614  10.441
25655W        W92064  40.893  23.548  12.159
25656W        W92065  36.964   9.150  11.660
25657W        W92066   7.480  33.572   4.059
25658W        W92067  13.368  19.169   2.809
25659W        W92068   3.531   2.770  14.956
25660W        W92069   3.789  16.790   2.671
25661W        W92070  36.299   3.149  14.792
25662W        W92071   6.075   0.422  12.588
25663W        W92072  21.241  23.225  10.156
25664W        W92073  38.106  39.014  12.399
25665W        W92074  11.494  17.937  11.730
25666W        W92075  42.177  19.581  14.894
25667W        W92076  39.822  35.999   0.991
25668W        W92077   8.703  11.305  11.379
25669W        W92078   5.268  19.581   4.090
25670W        W92079  36.915  11.581  13.875
25671W        W92080  25.071  13.167  12.896
25672W        W92081  35.905   8.909  14.875
25673W        W92082  14.675  43.783  10.712
25674W        W92083  35.595  15.696  10.879
25675W        W92084  15.721   3.216  13.531
25676W        W92085  25.650  24.329   4.643
25677W        W92086  26.946  10.852  14.285
25678W        W92087   0.525  43.478   0.337
25679W        W92088  20.095   5.398   1.449
25680W        W92089  42.937  20.223  11.403
25681W        W92090   6.303  16.467   2.907
25682W        W92091  19.998  16.686  11.570
25683W        W92092   8.265   0.479  11.609
25684W        W92093   2.758  44.487   1.759
25685W        W92094  19.445   7.780  12.979
25686W        W92095   0.425  20.970  10.580
25687W        W92096   3.427   7.313   4.507
25688W        W92097  22.216  11.123   1.851
25689W        W92098  14.177  30.761   2.628
25690W        W92099  36.218   4.309  13.510
25691W        W92100  10.317  40.012  13.522
25692W        W92101  27.512  39.926  11.771
25693W        W92102   2.133   8.272  14.447
25694W        W92103  30.138  19.391   4.178
25695W        W92104  25.135  11.157  14.481
25696W        W92105   3.783  21.603  12.803
25697W        W92106  22.574  30.112   0.386
25698W        W92107  32.225  31.790   3.583
25699W        W92108  22.469  30.637   0.409
25700W        W92109  44.548   7.626   1.301
25701W        W92110   2.207  40.094   1.207
25702W        W92111  10.606  14.093  13.369
25703W        W92112   2.720  32.048   0.828
25704W        W92113  17.716  37.866  11.951
25705W        W92114  42.979  35.382   2.433
25706W        W92115   8.865  26.084  10.532
25707W        W92116  21.072  34.930  13.048
25708W        W92117  34.863  43.998   4.498
25709W        W92118  27.084  20.321  14.518
25710W        W92119   1.458   8.377  12.911
25711W        W92120  28.911  25.121   3.271
25712W        W92121  14.081  15.252   0.701
25713W        W92122  33.509  10.551  10.281
25714W        W92123  34.248  10.298  14.457
25715W        W92124  22.570  39.427  11.048
25716W        W92125  29.411   0.134   0.883
25717W        W92126  26.134  32.519  13.376
25718W        W92127  42.414  34.511   1.438
25719W        W92128  43.924  18.600   2.588
25720W        W92129  30.417  19.983  11.921
25721W        W92130  15.904   2.457   4.634
25722W        W92131  38.856   4.899  13.326
25723W        W92132  11.484  37.356   1.285
25724W        W92133   6.016   3.666  12.953
25725W        W92134   3.810  14.226   0.537
25726W        W92135  20.499   7.415   1.796
25727W        W92136   1.014  20.445   3.648
25728W        W92137  23.840  43.907  10.543
25729W        W92138  17.796  18.539  12.330
25730W        W92139  16.460  32.499   4.241
25731W        W92140  39.440  10.866   1.719
25732W        W92141  27.708   7.085   2.264
25733W        W92142  15.176  24.212  11.056
25734W        W92143  30.921  14.310  14.975
25735W        W92144  43.654  32.601  14.831
25736W        W92145  42.925  40.822  11.468
25737W        W92146  13.130  40.054   1.838
25738W        W92147  34.567   2.993  13.959
25739W        W92148   5.608  18.290   3.167
25740W        W92149  17.144   2.934  10.673
25741W        W92150  18.083  43.855   2.273
25742W        W92151  11.885   0.757  14.266
25743W        W92152  13.219  15.959   3.878
25744W        W92153  25.190  33.390   0.721
25745W        W92154  12.536  40.334  13.273
25746W        W92155  39.067  20.227  10.285
25747W        W92156  16.738  24.169   1.253
25748W        W92157  13.380   3.065  14.579
25749W        W92158  26.952  15.339  13.709
25750W        W92159  12.273   4.369  10.529
25751W        W92160  13.280  41.869  14.802
25752W        W92161   6.433  32.264  11.951
25753W        W92162  10.779  18.493  10.672
25754W        W92163   5.584  26.548  11.977
25755W        W92164  26.025  41.418   0.047
25756W        W92165   6.925  42.425  13.113
25757W        W92166  43.269  33.416  13.523
25758W        W92167  18.055  16.174  11.614
25759W        W92168  18.845  15.335   0.312
25760W        W92169   8.584  44.802  10.745
25761W        W92170  41.864  39.863   1.783
25762W        W92171  28.008   1.881   1.810
25763W        W92172  35.524   2.110  11.914
25764W        W92173  39.381  26.951  14.344
25765W        W92174  11.834  21.276  14.848
25766W        W92175  18.638  38.557   4.150
25767W        W92176   9.235  29.220  13.151
25768W        W92177   6.657  11.990   2.180
25769W        W92178  14.091  18.280  10.256
25770W        W92179  25.079  38.813  10.377
25771W        W92180  36.818  44.279   3.594
25772W        W92181  20.302  16.254  11.715
25773W        W92182  42.938  41.456   3.617
25774W        W92183  13.849  27.886   0.334
25775W        W92184  29.534  18.256   2.842
25776W        W92185  24.261  42.872   3.479
25777W        W92186  35.913  10.658   1.392
25778W        W92187  41.437  24.955   1.850
25779W        W92188  39.728   4.703  11.588
25780W        W92189  41.557  34.897  13.514
25781W        W92190   4.631   0.309   1.931
25782W        W92191  14.733  17.159  10.254
25783W        W92192  11.299  36.969  13.125
25784W        W92193  39.926  34.202   0.264
25785W        W92194  20.115  39.053  12.781
25786W        W92195  20.793  18.081   2.872
25787W        W92196  42.894  14.665   3.037
25788W        W92197  20.524   5.398  13.940
25789W        W92198   8.792   9.069  12.944
25790W        W92199  17.088   0.967  11.077
25791W        W92200   7.431   9.105  14.939
25792W        W92201  27.261  24.342   2.055
25793W        W92202  30.665  41.729   3.787
25794W        W92203  39.628  35.906   2.369
25795W        W92204  34.696   5.909  10.634
25796W        W92205  39.574  37.451  10.542
25797W        W92206  16.391  30.498  13.454
25798W        W92207  16.199  31.877   0.677
25799W        W92208  36.248  17.808  13.355
25800W        W92209  16.586  21.211  14.319
25801W        W92210   2.740  41.353   4.397
25802W        W92211  44.147  33.415  10.587
25803W        W92212  25.504  39.931  10.093
25804W        W92213  25.107   8.221  13.755
25805W        W92214   2.366  29.481   2.264
25806W        W92215  34.617   0.879  10.208
25807W        W92216  17.794   5.593  13.871
25808W        W92217  12.508  22.705   9.993
25809W        W92218  10.471  10.603   5.175
25810W        W92219  42.997  34.632  11.956
25811W        W92220  37.376  11.069  13.009
25812W        W92221  41.029   7.273  14.466
25813W        W92222   1.205  32.521   4.546
25814W        W92223  44.691   4.659  14.981
25815W        W92224  35.455  20.517  14.940
25816W        W92225  21.207  35.015   4.503
25817W        W92226  33.450  36.405   4.670
25818W        W92227  37.131  44.503  12.861
25819W        W92228   8.270  11.163   1.719
25820W        W92229  21.736  16.200   3.602
25821W        W92230  40.710  30.310   2.316
25822W        W92231  23.594  23.519  14.123
25823W        W92232   3.825  13.051   1.284
25824W        W92233   3.410  30.577   0.999
25825W        W92234  16.913  38.817   3.824
25826W        W92235  13.246  15.818  14.906
25827W        W92236  41.696  32.148  11.111
25828W        W92237  19.182  39.421  13.738
25829W        W92238  29.961  43.228   1.789
25830W        W92239  24.090  29.711   2.757
25831W        W92240  23.499  27.244   4.234
25832W        W92241   2.982   1.491   3.124
25833W        W92242  13.614  39.092   2.212
25834W        W92243   5.360  22.105  14.273
25835W        W92244   5.862  29.214  13.398
25836W        W92245  30.665  40.299  13.162
25837W        W92246   5.159   2.974   9.952
25838W        W92247  38.951  26.037   1.635
25839W        W92248   0.458  19.169   4.364
25840W        W92249  42.017  18.254  12.107
25841W        W92250  29.585   1.823   2.317
25842W        W92251  19.724  42.697   2.229
25843W        W92252  12.825   4.369   4.809
25844W        W92253  21.605  30.027  13.015
25845W        W92254  25.009   6.647   3.226
25846W        W92255  39.810  33.097   2.653
25847W        W92256   6.368  39.054   2.262
25848W        W92257  11.240   2.598   2.145
25849W        W92258  37.474  17.717   2.294
25850W        W92259  22.342  31.510   1.417
25851W        W92260  19.289  22.239  12.453
25852W        W92261  10.120  33.989  14.447
25853W        W92262  26.261   5.850   0.363
25854W        W92263  16.208   6.373   4.388
25855W        W92264  43.054   9.831  12.940
25856W        W92265  38.956   3.396   0.059
25857W        W92266  19.234  16.564  11.070
25858W        W92267  43.970   4.827   1.783
25859W        W92268  39.801  22.643  11.201
25860W        W92269   6.290  37.845   3.763
25861W        W92270  18.657  37.277   1.393
25862W        W92271  14.424  20.452  14.457
25863W        W92272  11.243  11.886  13.343
25864W        W92273  15.232   3.831   2.724
25865W        W92274  44.745  37.864   0.215
25866W        W92275  10.699  12.260   3.684
25867W        W92276  34.734  19.038   1.832
25868W        W92277   4.250   8.258   4.629
25869W        W92278  22.790  12.077  14.776
25870W        W92279  30.215  24.019   3.114
25871W        W92280  44.156  11.813  14.948
25872W        W92281  26.085  24.751   2.262
25873W        W92282   2.770  31.720  13.607
25874W        W92283   9.670  25.119  13.891
25875W        W92284  24.090  11.344  14.104
25876W        W92285  20.901  20.595  10.871
25877W        W92286  39.676  30.953  13.116
25878W        W92287  28.691  37.986  13.387
25879W        W92288  33.024  25.904   3.270
25880W        W92289  22.079  44.893  13.342
25881W        W92290  12.182  18.457  12.271
25882W        W92291  14.228  40.981   1.725
25883W        W92292  41.312  41.369   1.406
25884W        W92293  30.312  14.110   2.226
25885W        W92294  35.047  22.962   3.126
25886W        W92295   5.959   9.716  12.394
25887W        W92296   0.870  28.168  11.930
25888W        W92297  19.890  29.354  13.085
25889W        W92298  28.739  36.095  10.969
25890W        W92299   1.899   3.651   2.924
25891W        W92300   9.208  36.487  14.080
25892W        W92301   6.305  16.943  11.676
25893W        W92302   8.429  42.753  11.164
25894W        W92303  17.958  28.607   0.312
25895W        W92304  10.871  39.789  14.968
25896W        W92305  33.496  35.459  12.341
25897W        W92306  38.330   3.368  13.844
25898W        W92307  27.194  41.775  10.382
25899W        W92308  26.480  40.929  13.040
25900W        W92309   0.776   5.334  10.772
25901W        W92310   9.698   2.658  14.063
25902W        W92311  38.060  26.518  12.960
25903W        W92312   8.813   9.328  14.485
25904W        W92313  23.615  14.855  14.633
25905W        W92314   3.785  11.398   0.287
25906W        W92315  43.528  43.278   3.605
25907W        W92316  25.140  17.338   0.902
25908W        W92317   1.649  16.344  12.095
25909W        W92318  12.931  25.539  10.424
25910W        W92319  11.717  14.937   2.288
25911W        W92320   4.637  41.872  10.685
25912W        W92321  43.440  11.411   2.609
25913W        W92322  44.444  31.380   1.941
25914W        W92323  43.033  39.366   4.618
25915W        W92324  38.447  32.578   0.285
25916W        W92325  18.812  31.645   0.722
25917W        W92326  42.609   8.766   2.857
25918W        W92327  37.377  41.579   2.292
25919W        W92328   2.451  26.262  12.086
25920W        W92329   1.660  26.238  11.225
25921W        W92330  16.572  29.146  13.939
25922W        W92331   5.235   7.679  12.530
25923W        W92332  24.029  42.542   1.242
25924W        W92333  11.326  26.662  14.753
25925W        W92334  40.010   1.953  12.526
25926W        W92335   7.735  32.541  12.287
25927W        W92336   2.916  32.066   3.637
25928W        W92337   8.718   3.169   1.198
25929W        W92338   4.140  15.373   3.754
25930W        W92339  19.820   2.751   2.318
25931W        W92340  36.786  13.276   4.558
25932W        W92341  32.835  11.094  12.497
25933W        W92342  19.317  24.279   2.101
25934W        W92343   3.958  40.419  12.123
25935W        W92344   8.341  19.423   0.456
25936W        W92345  12.546  44.041  13.062
25937W        W92346  39.945  40.814  13.350
25938W        W92347  12.752  15.362   1.862
25939W        W92348  23.497  21.956   0.347
25940W        W92349  29.879  12.353   0.337
25941W        W92350  28.077  21.507   4.158
25942W        W92351  35.029  20.599   0.706
25943W        W92352  43.215  38.665  12.455
25944W        W92353   8.375  32.979  13.796
25945W        W92354  40.744  27.999  13.472
25946W        W92355  34.517  37.427   0.915
25947W        W92356  15.799  25.134   0.896
25948W        W92357  18.051  31.677  13.942
25949W        W92358  27.137  13.110  14.815
25950W        W92359  42.709  13.724   0.949
25951W        W92360   2.839  42.997   0.019
25952W        W92361  21.915  42.426   1.745
25953W        W92362  39.301   6.235   4.091
25954W        W92363  11.890   4.751   9.869
25955W        W92364   2.424  30.393  14.031
25956W        W92365  19.544  33.453  11.464
25957W        W92366   3.380  27.090   4.971
25958W        W92367  38.538  10.299   1.746
25959W        W92368  28.542  24.161   3.165
25960W        W92369   9.668  19.970  11.967
25961W        W92370  26.991  16.319   4.134
25962W        W92371  10.127  18.948   0.715
25963W        W92372   5.179  42.745  13.477
25964W        W92373   0.007  17.297   1.838
25965W        W92374  14.067  14.391   1.834
25966W        W92375  13.055  34.154  11.847
25967W        W92376   8.722  30.957   2.363
25968W        W92377   5.816  35.508  14.948
25969W        W92378   6.386  30.884   0.623
25970W        W92379  32.408   5.724   3.673
25971W        W92380  42.345  35.096  14.851
25972W        W92381   1.849  13.500  14.438
25973W        W92382   8.397  24.527  12.529
25974W        W92383   2.510  43.804  11.614
25975W        W92384  22.035  14.174   1.750
25976W        W92385   6.869  19.070   4.621
25977W        W92386  44.880  16.008  14.460
25978W        W92387   6.789   8.620   3.205
25979W        W92388   5.689  35.476   0.847
25980W        W92389  31.252   0.815   3.217
25981W        W92390  10.152   2.861  14.239
25982W        W92391  27.519  15.887  11.401
25983W        W92392  38.402   9.696  11.589
25984W        W92393  14.296  35.260   2.321
25985W        W92394  11.878   6.385  13.040
25986W        W92395  14.825  44.910   2.844
25987W        W92396   4.272  38.329  12.553
25988W        W92397  36.594  15.638   4.125
25989W        W92398  35.055  32.283  10.083
25990W        W92399  39.507   1.305   1.946
25991W        W92400  19.388  35.950   4.071
25992W        W92401  38.588  15.696  10.237
25993W        W92402  35.059  39.441   4.169
25994W        W92403   2.387  41.478   2.693
25995W        W92404   1.981  17.250  11.018
25996W        W92405  33.665  20.053   2.539
25997W        W92406  25.879   3.586  12.738
25998W        W92407  41.436  43.181  14.397
25999W        W92408  17.750  39.059   4.133
26000W        W92409  36.894  23.117   1.311
26001W        W92410  34.532  33.610  12.809
26002W        W92411  41.957   5.511   0.225
26003W        W92412  21.970  41.848  13.750
26004W        W92413  15.536  29.608  13.980
26005W        W92414  17.050  36.414   3.260
26006W        W92415  11.862  41.865   3.801
26007W        W92416  21.680  37.374  14.771
26008W        W92417  38.856  16.241   9.685
26009W        W92418   9.017  39.574  12.307
26010W        W92419  28.220  19.740  12.511
26011W        W92420  22.015  27.663  11.972
26012W        W92421  20.517   9.760   4.258
26013W        W92422  35.633  34.412   3.849
26014W        W92423  23.160  18.779  12.133
26015W        W92424  20.702  32.866  14.199
26016W        W92425  33.673  44.348   2.856
26017W        W92426   5.635  44.335  13.639
26018W        W92427  12.441  38.058   9.857
26019W        W92428  42.357  19.789  12.932
26020W        W92429   6.646   3.752   0.219
26021W        W92430   8.622   1.277   4.908
26022W        W92431   1.462  28.686   1.714
26023W        W92432  10.027  27.651  13.549
26024W        W92433  24.155  30.950   4.203
26025W        W92434   6.795  12.761   4.290
26026W        W92435  22.297  14.682   9.924
26027W        W92436   2.519  19.077  10.631
26028W        W92437  43.267   7.786   3.669
26029W        W92438  35.961  13.546  11.056
26030W        W92439   5.953  23.543  12.909
26031W        W92440  27.835  15.989  13.734
26032W        W92441  42.270  41.183   4.141
26033W        W92442  38.316   6.634  12.612
26034W        W92443  23.604  15.532   2.360
26035W        W92444   9.138  17.679  11.491
26036W        W92445  32.092   8.939   2.314
26037W        W92446  37.598  12.217   1.275
26038W        W92447  29.677  15.609  12.595
26039W        W92448  41.732  42.774  13.357
26040W        W92449  24.632  42.334   0.731
26041W        W92450  31.567  38.220  12.685
26042W        W92451   9.125   6.438  14.817
26043W        W92452  25.924  31.793   2.828
26044W        W92453  33.266  15.402  12.807
26045W        W92454  22.666  41.864   3.325
26046W        W92455  21.173  19.459   0.891
26047W        W92456  17.816   0.440  13.578
26048W        W92457   1.464  41.482  11.160
26049W        W92458   9.124  19.766   0.335
26050W        W92459  33.155  32.647   4.670
26051W        W92460   3.644  43.454   2.847
26052W        W92461  33.982   6.491   0.817
26053W        W92462   3.932  14.437   0.020
26054W        W92463  18.024  14.326  11.637
26055W        W92464  41.102  32.877  13.288
26056W        W92465  39.033  16.374   3.343
26057W        W92466  25.056  18.328  13.895
26058W        W92467  43.485   2.579  11.610
26059W        W92468  40.337  38.929  14.088
26060W        W92469  19.348  17.011  12.603
26061W        W92470  36.328  34.548   4.348
26062W        W92471  40.856  20.844   2.379
26063W        W92472  42.747  34.433   2.331
26064W        W92473  21.208  13.705  13.585
26065W        W92474  42.397  27.555   2.541
26066W        W92475  20.963  36.398  11.949
26067W        W92476  18.461  16.831  10.581
26068W        W92477  42.976  22.751  12.567
26069W        W92478  11.132  30.641   0.946
26070W        W92479  37.982  31.030   3.641
26071W        W92480  10.871  40.485  13.855
26072W        W92481  32.798  27.577   0.791
26073W        W92482  32.719  31.678  10.842
26074W        W92483  42.772  43.437   0.329
26075W        W92484   3.200   8.423   3.699
26076W        W92485  36.198  16.663   5.158
26077W        W92486  28.506   6.961   2.728
26078W        W92487  34.848  42.076  13.466
26079W        W92488  35.877  22.778   0.695
26080W        W92489  34.375  34.423   3.199
26081W        W92490  33.865  28.627   3.189
26082W        W92491  33.364  14.043  10.940
26083W        W92492  18.583  20.242   3.145
26084W        W92493  43.551  43.418  12.441
26085W        W92494  44.597  29.158   4.487
26086W        W92495  25.429   0.850  11.426
26087W        W92496  14.142   5.934   0.813
26088W        W92497  36.384  22.632   3.873
26089W        W92498  21.091  12.115  12.467
26090W        W92499  18.231  20.054  10.227
26091W        W92500  39.526  30.378  11.003
26092W        W92501  32.532  28.085  13.396
26093W        W92502  12.391  20.035  13.744
26094W        W92503  28.173  43.304   0.321
26095W        W92504   7.018   6.744   0.029
26096W        W92505  23.605  13.189  11.498
26097W        W92506  19.615  19.290   3.259
26098W        W92507  12.496  18.725  13.994
26099W        W92508  22.665  35.886  11.594
26100W        W92509  25.462  29.169  14.428
26101W        W92510  20.496   7.183   3.662
26102W        W92511  10.576  16.865   3.623
26103W        W92512  36.522   1.415  12.478
26104W        W92513  39.034   7.363  11.914
26105W        W92514  22.188  20.067   2.077
26106W        W92515  25.666  10.167  12.971
26107W        W92516  42.643  22.488   3.664
26108W        W92517  35.027  26.062  13.748
26109W        W92518  32.221  28.736   0.257
26110W        W92519  28.185  16.507   3.680
26111W        W92520  36.590  43.930  13.531
26112W        W92521  29.649   3.232   3.213
26113W        W92522  40.091   8.346  10.243
26114W        W92523  19.131  36.560  12.914
26115W        W92524  24.027  41.079   3.268
26116W        W92525  12.074  12.236   4.135
26117W        W92526  20.345   2.769   2.342
26118W        W92527  30.908  23.959   4.701
26119W        W92528  33.983  19.755   1.211
26120W        W92529   5.437  16.773  11.234
26121W        W92530   4.235  26.219  14.711
26122W        W92531  14.365  28.771  12.926
26123W        W92532  28.610  32.146  14.257
26124W        W92533  42.171   8.184  10.259
26125W        W92534  22.686  13.712  11.543
26126W        W92535  36.638  26.711  14.427
26127W        W92536  17.281   4.676  11.199
26128W        W92537  25.769  27.503  14.486
26129W        W92538  33.493  19.710   1.320
26130W        W92539  28.532   4.480   3.363
26131W        W92540   2.341  10.887  11.179
26132W        W92541  23.042  10.001  11.932
26133W        W92542  36.387  20.105  11.993
26134W        W92543  20.633  29.896   3.636
26135W        W92544  44.506   7.597   3.192
26136W        W92545   4.799  33.919   4.572
26137W        W92546   1.860  38.831   1.778
26138W        W92547  41.935   6.231   3.337
26139W        W92548  33.033  43.198   1.344
26140W        W92549  44.190  14.896  14.384
26141W        W92550  39.476   9.950  12.293
26142W        W92551  31.527   5.676  10.576
26143W        W92552  29.640  28.751  13.954
26144W        W92553  24.195  32.236   3.703
26145W        W92554  30.382  24.583  10.727
26146W        W92555  27.930  43.653   2.212
26147W        W92556  20.509  11.228   2.643
26148W        W92557  33.479  23.657   2.867
26149W        W92558  14.283  32.675   0.243
26150W        W92559   1.348  31.195   4.523
26151W        W92560  43.388   4.709  14.753
26152W        W92561  14.406  20.011   2.570
26153W        W92562  23.291  37.888   1.447
26154W        W92563  27.181  38.934  11.930
26155W        W92564  30.405  14.803   1.895
26156W        W92565   2.264  20.210  11.983
26157W        W92566   4.113  13.636   0.263
26158W        W92567  20.042   7.400  14.916
26159W        W92568  18.644  41.348  13.425
26160W        W92569  36.343  44.383  11.242
26161W        W92570  30.998  12.803  13.885
26162W        W92571  41.048  40.100   1.361
26163W        W92572  43.954  31.480  11.350
26164W        W92573  32.279  12.561  13.482
26165W        W92574   5.196  21.318   1.229
26166W        W92575  17.784  20.733   4.726
26167W        W92576  31.582  38.305   2.907
26168W        W92577  26.810  18.975   0.658
26169W        W92578   7.193   8.289   2.508
26170W        W92579  41.875  25.034  13.855
26171W        W92580  35.109  17.860   2.375
26172W        W92581  37.075  44.492  11.181
26173W        W92582  15.708  42.109  12.145
26174W        W92583  39.316  21.508  14.095
26175W        W92584  35.029  44.390  14.260
26176W        W92585   4.817  12.347  11.143
26177W        W92586   1.935   2.856  13.361
26178W        W92587   7.153   4.733  11.541
26179W        W92588  34.845   0.409   0.287
26180W        W92589  30.304  32.745  14.975
26181W        W92590  30.384  32.921   4.138
26182W        W92591  33.332  13.965   4.139
26183W        W92592   0.880   0.716  12.550
26184W        W92593  23.649   3.972  11.495
26185W        W92594  44.013   7.696   2.295
26186W        W92595   8.284  32.817   5.412
26187W        W92596   6.880  21.656  10.995
26188W        W92597  14.848  28.153   1.725
26189W        W92598  41.997   5.248  12.819
26190W        W92599  20.206  10.292   1.442
26191W        W92600  41.130  31.791  13.960
26192W        W92601  27.103  17.077  11.104
26193W        W92602  37.100  28.471  11.938
26194W        W92603  29.486  18.750   2.591
26195W        W92604  36.472  40.458  11.730
26196W        W92605  19.274  44.522  14.531
26197W        W92606  24.003  40.567   3.478
26198W        W92607  22.103  35.341   3.814
26199W        W92608   3.045  37.343   0.386
26200W        W92609  16.215  42.066   2.806
26201W        W92610   1.812   2.356   0.637
26202W        W92611  23.559  15.630  11.385
26203W        W92612  34.966  12.150   4.146
26204W        W92613  28.882  31.405  11.389
26205W        W92614  33.952   4.264   0.875
26206W        W92615  25.323  27.104  12.443
26207W        W92616  35.784   6.874   4.527
26208W        W92617  40.251  39.594   2.345
26209W        W92618   2.323  23.463   3.583
26210W        W92619  28.451   9.761   0.374
26211W        W92620   5.179  38.136  11.488
26212W        W92621  23.928  18.640  12.368
26213W        W92622  34.199  37.944   0.699
26214W        W92623  37.650   3.854  13.291
26215W        W92624  25.032  38.801  11.408
26216W        W92625  37.501   4.382   4.561
26217W        W92626   1.729  42.505  12.032
26218W        W92627   3.245  29.627  11.252
26219W        W92628  25.570  24.802   0.023
26220W        W92629  36.183  29.121  11.825
26221W        W92630  12.592  25.121  12.134
26222W        W92631  14.739  43.763   1.846
26223W        W92632  32.882  27.552  12.231
26224W        W92633  19.493  19.284  11.513
26225W        W92634  26.887  13.740  13.436
26226W        W92635  36.545  15.537   1.599
26227W        W92636   5.198   0.933   0.740
26228W        W92637  12.184  31.031   1.520
26229W        W92638  32.589  44.397  10.577
26230W        W92639  31.413  21.602   1.229
26231W        W92640  31.961  17.737   0.811
26232W        W92641  16.505   7.150   2.259
26233W        W92642   9.919  10.046   0.298
26234W        W92643  29.112   4.875  12.610
26235W        W92644   8.676   2.434   1.906
26236W        W92645   0.058  10.578   1.928
26237W        W92646  16.429  10.778   2.120
26238W        W92647  43.183  26.554   1.910
26239W        W92648  17.833  40.035   4.059
26240W        W92649   7.383  14.118   1.157
26241W        W92650  31.059  38.835   3.973
26242W        W92651  40.636  41.855  10.763
26243W        W92652   6.756  14.351   3.069
26244W        W92653  10.011  29.038   0.234
26245W        W92654   7.413   6.048   3.092
26246W        W92655  19.557   3.504   3.106
26247W        W92656  35.380  23.241  13.583
26248W        W92657  22.536   6.187  13.019
26249W        W92658   3.895   4.574   0.615
26250W        W92659  30.067  42.311  12.450
26251W        W92660  11.825  38.649   5.011
26252W        W92661  23.376  43.767   0.366
26253W        W92662  16.087  35.837   1.318
26254W        W92663   9.207  13.620   1.930
26255W        W92664  16.926  27.647   4.729
26256W        W92665  39.522  15.246   5.557
26257W        W92666  15.328  19.160   0.819
26258W        W92667  14.312  14.662   5.227
26259W        W92668  38.450  26.781   2.874
26260W        W92669   1.882  15.692  10.745
26261W        W92670  38.971  10.891   0.136
26262W        W92671  43.959  38.613  10.416
26263W        W92672  13.759   3.767  10.529
26264W        W92673  13.565  18.621  12.577
26265W        W92674  36.161   2.332   0.063
26266W        W92675   4.348  21.516   2.257
26267W        W92676  22.999   1.796  11.351
26268W        W92677  32.456  28.161  11.488
26269W        W92678   5.766  14.232  12.016
26270W        W92679  27.495   4.710   2.746
26271W        W92680  41.877  35.575  11.034
26272W        W92681  38.935  13.522  13.438
26273W        W92682  12.185   6.666  10.590
26274W        W92683  10.832  35.950   0.412
26275W        W92684  44.324  16.644  14.910
26276W        W92685  34.965  35.459  13.861
26277W        W92686  41.966  31.718   4.701
26278W        W92687  39.377  38.705   4.911
26279W        W92688  37.319   7.295  14.467
26280W        W92689  16.992   7.434   3.212
26281W        W92690  18.795  34.461   0.835
26282W        W92691   7.930  25.185   0.224
26283W        W92692  33.089  15.329   4.370
26284W        W92693  22.681   5.920   4.598
26285W        W92694   9.244  28.461  12.794
26286W        W92695  38.442  15.562  14.002
26287W        W92696  40.168  42.998  14.670
26288W        W92697  29.991  29.906  10.604
26289W        W92698  16.194  28.623   4.334
26290W        W92699   0.164  30.945  10.815
26291W        W92700  24.983  21.029   4.497
26292W        W92701  35.046  22.308  13.332
26293W        W92702  31.348  28.001   0.150
26294W        W92703  19.642  36.222  11.805
26295W        W92704  28.693   7.180   0.274
26296W        W92705  32.024  42.951   1.452
26297W        W92706  39.723  12.876  10.797
26298W        W92707   0.988   9.085   5.531
26299W        W92708  10.657  36.875   1.403
26300W        W92709  30.395  36.748  12.880
26301W        W92710  30.534  42.324  13.009
26302W        W92711   1.694  10.183  14.783
26303W        W92712  19.204  23.969  10.880
26304W        W92713  33.601  18.268   2.874
26305W        W92714   6.158  17.313  13.814
26306W        W92715  38.923  40.497   0.011
26307W        W92716  41.107  35.679   0.939
26308W        W92717   8.738  23.285   4.766
26309W        W92718  31.223  24.969  10.063
26310W        W92719   7.687  24.284   2.256
26311W        W92720   0.493  19.564  12.043
26312W        W92721  42.878  17.028  10.471
26313W        W92722  44.526  21.132  11.291
26314W        W92723  27.979   8.472   3.836
26315W        W92724  40.532  33.527  12.166
26316W        W92725  18.084  10.162  12.162
26317W        W92726  27.974  28.012  11.577
26318W        W92727  27.058   5.716   4.203
26319W        W92728   4.932  29.683  10.436
26320W        W92729  37.492   9.120  10.729
26321W        W92730  15.715  40.285  14.263
26322W        W92731  42.040  30.638   4.627
26323W        W92732   0.310  44.680  11.468
26324W        W92733   0.839  10.368  14.905
26325W        W92734  25.627  10.368   1.510
26326W        W92735  42.299   3.184  11.216
26327W        W92736  11.329  39.312   4.561
26328W        W92737  41.945  12.167   1.265
26329W        W92738  27.518  24.528   0.848
26330W        W92739   0.289   6.124   4.466
26331W        W92740  37.029  13.720   3.681
26332W        W92741  42.618  34.648  12.948
26333W        W92742  40.355  15.312  13.299
26334W        W92743  38.137  39.041  11.432
26335W        W92744  38.266  12.934   1.407
26336W        W92745  30.595  11.234  10.733
26337W        W92746   3.808  18.346   4.539
26338W        W92747  31.618  32.417   3.688
26339W        W92748  30.430  37.948   1.300
26340W        W92749  30.874  27.384  11.080
26341W        W92750   1.590  10.256   4.333
26342W        W92751  41.827  23.139   0.498
26343W        W92752  25.901  29.596  12.707
26344W        W92753  18.017  17.121  14.906
26345W        W92754  38.909  28.001  12.533
26346W        W92755  40.983   0.754   4.544
26347W        W92756  15.330   7.747  12.041
26348W        W92757  19.594  38.231   2.789
26349W        W92758  44.505   9.641  12.010
26350W        W92759   9.445  41.695  11.645
26351W        W92760  38.819  35.304   0.864
26352W        W92761  21.439  38.897  12.180
26353W        W92762  43.133  18.963   1.360
26354W        W92763  21.972   9.744   4.825
26355W        W92764  31.449   0.408   2.566
26356W        W92765  27.246  27.179   0.895
26357W        W92766   8.026  39.720  10.646
26358W        W92767  31.086   4.791   2.680
26359W        W92768  11.286   6.050  11.073
26360W        W92769  27.201  28.057   3.488
26361W        W92770  39.414  20.180   1.332
26362W        W92771  23.993  41.964  13.889
26363W        W92772  41.452   1.477  11.625
26364W        W92773   5.223   3.644   2.305
26365W        W92774  13.994   4.806  13.434
26366W        W92775  36.025  23.322   2.443
26367W        W92776  17.224  31.855  13.610
26368W        W92777  21.742  42.799   0.054
26369W        W92778  35.431  43.266   0.341
26370W        W92779  15.457  26.172   1.590
26371W        W92780  31.173  20.298  10.766
26372W        W92781  36.055  17.624  12.379
26373W        W92782  22.773  27.549   3.922
26374W        W92783  38.022  36.914   1.593
26375W        W92784  39.982  38.869   3.507
26376W        W92785  33.122  18.186  11.545
26377W        W92786  19.742   0.980   3.731
26378W        W92787   4.726   7.465  10.984
26379W        W92788  12.879   7.146   1.015
26380W        W92789  17.205   8.287  11.795
26381W        W92790  18.096  19.481   1.247
26382W        W92791  28.525  23.034  10.088
26383W        W92792  15.590  24.077  13.280
26384W        W92793   5.531  36.596  11.860
26385W        W92794  15.760   5.271  11.978
26386W        W92795  31.082   2.415  11.627
26387W        W92796  40.435   6.892  11.872
26388W        W92797  14.711  20.365   2.331
26389W        W92798  37.923   7.259   3.662
26390W        W92799  15.851  34.390  13.025
26391W        W92800  15.230  27.953   2.926
26392W        W92801  41.227  27.503   0.031
26393W        W92802  16.965  37.968   1.222
26394W        W92803  24.681  24.003   4.507
26395W        W92804  29.626  43.749   3.597
26396W        W92805  41.025  18.860   1.556
26397W        W92806   7.124  44.228  13.544
26398W        W92807   4.763   4.395  11.486
26399W        W92808   0.698  28.498   2.919
26400W        W92809   4.504   4.543  10.676
26401W        W92810  27.545  40.322   4.078
26402W        W92811   7.073  14.321  14.484
26403W        W92812  15.414  20.226   0.467
26404W        W92813  22.016  24.601   0.859
26405W        W92814   3.186   8.939   3.820
26406W        W92815  20.739  31.319   4.064
26407W        W92816  21.626  36.977  11.117
26408W        W92817  42.733  32.540   3.223
26409W        W92818  38.230  32.159   4.974
26410W        W92819  23.075   7.656  13.471
26411W        W92820   4.776  44.544  11.677
26412W        W92821  24.014   4.202   0.508
26413W        W92822   4.975   0.968  14.934
26414W        W92823  14.339  21.280  13.907
26415W        W92824  20.693  15.987  12.085
26416W        W92825  23.080  44.818   4.713
26417W        W92826  34.031  30.987  14.253
26418W        W92827  10.773   6.368   3.827
26419W        W92828  34.426   8.383  10.622
26420W        W92829  42.382  17.379   0.036
26421W        W92830  13.511  11.141   2.183
26422W        W92831  35.352  14.170   0.996
26423W        W92832   0.282  29.382   1.084
26424W        W92833  15.758   3.228  11.733
26425W        W92834  34.658  18.750   1.394
26426W        W92835  43.037  19.369  14.286
26427W        W92836   0.940  10.955  13.492
26428W        W92837  25.712  31.480  12.818
26429W        W92838  12.403  19.326   0.391
26430W        W92839  10.747  21.298  12.091
26431W        W92840  36.969  27.022  11.662
26432W        W92841   9.910  29.978  14.306
26433W        W92842   8.859   4.469  14.299
26434W        W92843   5.410   8.347  12.622
26435W        W92844  22.684  38.483  12.522
26436W        W92845  28.424  20.001  13.499
26437W        W92846  25.223  25.219  12.482
26438W        W92847  23.117   4.565   4.563
26439W        W92848  17.112  21.130   1.697
26440W        W92849   1.456  29.145   1.061
26441W        W92850   1.101  30.495  12.283
26442W        W92851  41.432  44.148  14.464
26443W        W92852  37.916  19.316  14.111
26444W        W92853  35.880   1.939  12.886
26445W        W92854  33.489  42.822   2.195
26446W        W92855  39.555  15.204   4.134
26447W        W92856  11.839  32.457  14.942
26448W        W92857  23.495   1.710  11.418
26449W        W92858  37.510  19.674  14.099
26450W        W92859  12.687  31.599  14.812
26451W        W92860  30.255   8.146  14.251
26452W        W92861  21.112   9.391   2.362
26453W        W92862  10.670  25.551  13.072
26454W        W92863  13.219  35.658  12.390
26455W        W92864  16.548  21.041  13.800
26456W        W92865  34.277  17.998   4.012
26457W        W92866   0.496  31.890  12.910
26458W        W92867  41.358  40.068   2.788
26459W        W92868  14.952  34.350   4.000
26460W        W92869  24.143  40.951   3.776
26461W        W92870  33.290  37.722  12.925
26462W        W92871  37.492  33.467  13.472
26463W        W92872   0.223  21.149  13.585
26464W        W92873  39.312   8.350   2.767
26465W        W92874  16.072  30.909  13.442
26466W        W92875  23.948   5.436  10.699
26467W        W92876  25.729  22.292  13.549
26468W        W92877  34.959  18.269   4.087
26469W        W92878  23.586  12.627  10.632
26470W        W92879  28.535   9.242   2.855
26471W        W92880  26.599  33.111   2.199
26472W        W92881  11.803  19.399  13.070
26473W        W92882  23.526   1.134  12.059
26474W        W92883   7.916   0.316  12.447
26475W        W92884  28.747   8.309   2.120
26476W        W92885  19.829  18.132   1.348
26477W        W92886  30.362  35.546  12.951
26478W        W92887   3.232  39.311  12.406
26479W        W92888  40.931   5.392  13.791
26480W        W92889  22.230   1.137   1.247
26481W        W92890  14.140  31.343  12.083
26482W        W92891   0.869  43.393   4.590
26483W        W92892  37.369  29.910   3.524
26484W        W92893  28.999  21.476  12.559
26485W        W92894  31.438   6.315   2.385
26486W        W92895  21.812   8.262  14.008
26487W        W92896  25.219  26.041  10.686
26488W        W92897  43.527  20.064  12.580
26489W        W92898  34.077  13.646   1.118
26490W        W92899  28.551  41.268   1.357
26491W        W92900  29.159  27.567   0.215
26492W        W92901  18.198  44.222   1.794
26493W        W92902  33.563  25.742  10.968
26494W        W92903  13.694  19.306  11.922
26495W        W92904  34.459  12.100  10.611
26496W        W92905  32.172  16.129  11.290
26497W        W92906   5.201  14.350   4.699
26498W        W92907  22.953  40.130   2.757
26499W        W92908  27.519  26.351   3.054
26500W        W92909  29.461  10.817   1.357
26501W        W92910   8.862  38.332   3.659
26502W        W92911  20.537  12.180  12.452
26503W        W92912  21.258  19.370  14.315
26504W        W92913  11.316  24.626   1.471
26505W        W92914   7.366  14.558  12.094
26506W        W92915  28.845  36.726  13.738
26507W        W92916  31.330   4.231   1.944
26508W        W92917  44.447  14.984   4.798
26509W        W92918  21.359  23.119   4.174
26510W        W92919  14.925  23.687  12.457
26511W        W92920  44.250  18.252   2.823
26512W        W92921  40.846  17.023  11.695
26513W        W92922  39.115  34.700  13.589
26514W        W92923   2.877  11.464   3.707
26515W        W92924  40.738   7.253   4.391
26516W        W92925  21.460   4.306   0.335
26517W        W92926  28.470  31.379  12.134
26518W        W92927  12.713  36.463   2.064
26519W        W92928  17.815  25.687  11.956
26520W        W92929  11.173  18.067  13.425
26521W        W92930   2.534  35.093   0.236
26522W        W92931  12.983  23.298   1.757
26523W        W92932  43.892  44.756  11.539
26524W        W92933  33.161  27.563  12.702
26525W        W92934   0.216  12.083  10.724
26526W        W92935  25.489  19.572  13.295
26527W        W92936  21.506  16.780  14.349
26528W        W92937   6.418  41.941   2.439
26529W        W92938   0.880  19.981   3.393
26530W        W92939  41.476  12.886  14.513
26531W        W92940   6.626  38.427   1.420
26532W        W92941  24.171  42.362  12.093
26533W        W92942  44.284   2.497  13.183
26534W        W92943  40.047  40.356   1.332
26535W        W92944   0.166   4.203  14.080
26536W        W92945  12.364  44.751  11.151
26537W        W92946  29.259   3.216  12.103
26538W        W92947  40.554   8.352   4.461
26539W        W92948   7.240  22.242  14.304
26540W        W92949  38.769  35.950   3.634
26541W        W92950  37.757  30.586  13.752
26542W        W92951   5.463  31.046  12.188
26543W        W92952  23.082  34.088  11.550
26544W        W92953  39.163  22.192   1.794
26545W        W92954  36.559   1.156  13.832
26546W        W92955   0.606  15.622   0.519
26547W        W92956  18.389   2.299  11.019
26548W        W92957  12.496  29.070   0.295
26549W        W92958  14.511  20.058   4.945
26550W        W92959  23.668  31.023   0.334
26551W        W92960   7.138   6.054   0.383
26552W        W92961  18.908   7.684  11.136
26553W        W92962  36.008   2.453  10.887
26554W        W92963  32.046  44.172  12.029
26555W        W92964  22.472   5.831  14.411
26556W        W92965   7.167  16.758   0.311
26557W        W92966  30.095  24.039   3.954
26558W        W92967  27.883   6.988   1.213
26559W        W92968  11.746   0.060  14.813
26560W        W92969  12.707  12.381   4.380
26561W        W92970  13.798  32.850   1.024
26562W        W92971   4.364  20.704   0.179
26563W        W92972  23.632  30.979   1.181
26564W        W92973   2.711  15.546   3.174
26565W        W92974  38.950  36.033  13.248
26566W        W92975  25.095   9.694  11.124
26567W        W92976  39.588  23.939  10.718
26568W        W92977  23.196  32.387   3.165
26569W        W92978  41.560  40.289  14.845
26570W        W92979  24.252   0.975  12.358
26571W        W92980  36.904  43.437   1.962
26572W        W92981   5.212  30.676  11.963
26573W        W92982  21.135  22.999   3.726
26574W        W92983  21.986  15.362  14.932
26575W        W92984   4.183  20.215   1.425
26576W        W92985  18.031  21.857   0.235
26577W        W92986  25.524  42.058  11.645
26578W        W92987  19.000  14.851  11.496
26579W        W92988  31.186  21.254   4.448
26580W        W92989   5.333  18.913  14.702
26581W        W92990  22.153  33.117  14.935
26582W        W92991   9.178  19.222   0.579
26583W        W92992  16.252  27.131   2.625
26584W        W92993  35.735  42.440  13.486
26585W        W92994   2.800  14.776   3.933
26586W        W92995  17.311  28.505   1.579
26587W        W92996  31.496  23.954  12.138
26588W        W92997  15.369  35.571  11.833
26589W        W92998  33.414  38.609   5.035
26590W        W92999  43.966   7.335  14.798
26591W        W93000  30.642  13.053  12.511
26592W        W93001  41.565  20.803  14.885
26593W        W93002  35.570  14.090   1.919
26594W        W93003  40.225  19.512  13.722
26595W        W93004  23.452  11.362  14.417
26596W        W93005  34.100  40.698  12.148
26597W        W93006  43.954  22.861   1.926
26598W        W93007  16.674  37.859  13.907
26599W        W93008  39.282  10.349  12.944
26600W        W93009   5.224   1.430   4.552
26601W        W93010  34.953  36.408  11.461
26602W        W93011  22.570   8.573   0.708
26603W        W93012  33.599  29.181  10.652
26604W        W93013  41.813  26.776  11.129
26605W        W93014  43.762  23.027   4.849
26606W        W93015  37.408  44.815   1.721
26607W        W93016  26.163   9.888   1.002
26608W        W93017  35.907  31.069   4.159
26609W        W93018  27.437  23.140  10.691
26610W        W93019  39.338  32.675   1.391
26611W        W93020  17.795  25.174  11.633
26612W        W93021  12.148  38.356   1.676
26613W        W93022  38.641  21.201  11.215
26614W        W93023   1.079  14.069   3.582
26615W        W93024  35.810  27.498   0.442
26616W        W93025  30.908  13.721  11.009
26617W        W93026  27.462  27.022   1.748
26618W        W93027  34.133   7.303   2.413
26619W        W93028  30.075  41.483   2.731
26620W        W93029  21.530  40.525  13.795
26621W        W93030   4.877  26.852  12.469
26622W        W93031   5.461  20.207   3.191
26623W        W93032  17.521  38.329  11.968
26624W        W93033  22.849  30.487   4.564
26625W        W93034  14.779   0.856  13.923
26626W        W93035  11.473  16.632  13.384
26627W        W93036   1.955  10.742  12.008
26628W        W93037  12.952  36.418  14.945
26629W        W93038   0.477  32.579   2.885
26630W        W93039  14.183  30.310  12.096
26631W        W93040  41.910   3.793  10.752
26632W        W93041  27.000  10.224  14.107
26633W        W93042  42.435  37.639   2.224
26634W        W93043  44.055  22.588  12.002
26635W        W93044  29.768  10.945   2.809
26636W        W93045  32.847  29.912   2.184
26637W        W93046  27.991   3.302   1.863
26638W        W93047  38.816  26.053   4.307
26639W        W93048  28.435  20.976  13.465
26640W        W93049   5.120  36.283  10.574
26641W        W93050  36.071  24.045   0.821
26642W        W93051  42.999   7.290  10.778
26643W        W93052  21.545  16.558  11.093
26644W        W93053  10.445   7.693  11.615
26645W        W93054   7.777  42.606   2.333
26646W        W93055  24.144  21.761   1.179
26647W        W93056  44.303  41.853   1.142
26648W        W93057  41.456  12.631  14.961
26649W        W93058   8.862  42.411   3.234
26650W        W93059  14.816  32.929  13.076
26651W        W93060  24.771  18.054   2.350
26652W        W93061  40.437  31.191   0.245
26653W        W93062  11.742  30.083   1.161
26654W        W93063  32.649   2.460   1.902
26655W        W93064  26.688  18.669   0.253
26656W        W93065   7.540  39.509  14.675
26657W        W93066  27.431   9.141  14.803
26658W        W93067  11.788  28.520   2.137
26659W        W93068   7.242   9.347   2.108
26660W        W93069   2.814   7.655   1.442
26661W        W93070  25.144  33.432   4.535
26662W        W93071  39.492   7.324  12.490
26663W        W93072  39.576  33.376   0.410
26664W        W93073  10.381  12.374   0.745
26665W        W93074   7.291   3.860   3.612
26666W        W93075   4.325  27.109  13.822
26667W        W93076  28.723  15.029  14.971
26668W        W93077  44.805  19.452  13.488
26669W        W93078   1.692  24.640   1.462
26670W        W93079  13.063  16.704  12.056
26671W        W93080  38.201  13.240   3.313
26672W        W93081  30.576  14.353   0.387
26673W        W93082  30.429   7.277   0.842
26674W        W93083  23.107  11.570  11.179
26675W        W93084  32.092  19.265   0.837
26676W        W93085  19.317  15.206  11.109
26677W        W93086   0.862  31.735   4.192
26678W        W93087   9.029  24.926  12.202
26679W        W93088  10.331  18.976   1.727
26680W        W93089   3.869  29.701  12.440
26681W        W93090   9.311  36.323   1.913
26682W        W93091  16.710   5.262  10.884
26683W        W93092  31.043   7.737   3.731
26684W        W93093   8.048  13.780  10.673
26685W        W93094  34.844  18.566   3.690
26686W        W93095  22.784  10.627   2.994
26687W        W93096  13.603  16.129  12.000
26688W        W93097  24.998   8.788   4.314
26689W        W93098  21.933  24.650  12.015
26690W        W93099  39.317  40.155   4.831
26691W        W93100   8.443  18.107   1.193
26692W        W93101  41.469  18.266   4.967
26693W        W93102  40.915  26.960   0.021
26694W        W93103  41.043   1.424  13.068
26695W        W93104   3.229  22.728  10.666
26696W        W93105  12.222  36.062   0.398
26697W        W93106  35.226  21.055   1.490
26698W        W93107  34.616  17.318  11.653
26699W        W93108   4.152  34.364   3.217
26700W        W93109  25.746  43.820  12.122
26701W        W93110   8.775  20.167   4.361
26702W        W93111  37.341  28.018   1.155
26703W        W93112  17.704  38.539  14.642
26704W        W93113  44.627  35.391   2.781
26705W        W93114  23.696  36.362  11.396
26706W        W93115  38.271  24.423  11.640
26707W        W93116   4.769  22.496  13.494
26708W        W93117  13.705  31.935   2.292
26709W        W93118  43.279  12.453   0.282
26710W        W93119  12.725  24.616   0.251
26711W        W93120  31.844  37.910   2.070
26712W        W93121  29.422   2.350  10.333
26713W        W93122  28.539   2.106   4.395
26714W        W93123  39.230  22.163   9.935
26715W        W93124  33.582  12.095  12.017
26716W        W93125  42.282   0.255   3.323
26717W        W93126  25.978  19.247  11.209
26718W        W93127   7.006  37.688  12.370
26719W        W93128  26.594  17.592  11.454
26720W        W93129  36.830  30.233   2.111
26721W        W93130  20.780  33.112  11.110
26722W        W93131  11.656   2.027  12.534
26723W        W93132   0.243  33.341   1.901
26724W        W93133  14.648  30.717   0.400
26725W        W93134   2.834   5.744   0.421
26726W        W93135   8.158   8.891  13.589
26727W        W93136  18.012  39.627  14.352
26728W        W93137  29.592   0.339  13.857
26729W        W93138  13.305  18.397   3.572
26730W        W93139  10.941  13.887  13.063
26731W        W93140  18.651  26.193   0.312
26732W        W93141  25.522  32.625   1.206
26733W        W93142  23.756  42.280   0.411
26734W        W93143  19.078   4.362  11.486
26735W        W93144  40.103  28.595  14.888
26736W        W93145  38.105  14.705   4.092
26737W        W93146   8.989  42.052  14.100
26738W        W93147  13.398  29.022  14.423
26739W        W93148  42.406  26.379   4.030
26740W        W93149  26.052  32.795  13.804
26741W        W93150  24.666   6.262   2.150
26742W        W93151  23.057  13.555  12.198
26743W        W93152  41.974  38.157   3.826
26744W        W93153  34.781  28.331  10.364
26745W        W93154  22.023   3.824  14.819
26746W        W93155  30.105   4.046   2.186
26747W        W93156   8.278   1.350   1.256
26748W        W93157   9.132   4.186  13.937
26749W        W93158   3.042  12.575   1.364
26750W        W93159   0.098  32.576  14.990
26751W        W93160  43.826  14.182   2.326
26752W        W93161  20.873  29.658  12.846
26753W        W93162  18.581   5.662  10.603
26754W        W93163  11.527  42.326  13.180
26755W        W93164  24.434  26.173   0.242
26756W        W93165  16.039  21.399  11.970
26757W        W93166  39.614  15.736  11.502
26758W        W93167   7.329  32.805   5.105
26759W        W93168   8.159  12.198  10.727
26760W        W93169  44.285  14.785   1.755
26761W        W93170  16.984  15.644   3.022
26762W        W93171  37.606   3.320  12.633
26763W        W93172   8.880  41.805  12.503
26764W        W93173  23.934   8.706  12.854
26765W        W93174  31.969  40.252  12.605
26766W        W93175  10.482   3.996  14.717
26767W        W93176  37.332  15.708  13.341
26768W        W93177  17.659   2.735  11.166
26769W        W93178   3.548  39.121   3.181
26770W        W93179   8.437  35.448   2.812
26771W        W93180   0.706  22.199   3.230
26772W        W93181   9.693  41.087  11.192
26773W        W93182  30.430  42.742   3.778
26774W        W93183  16.622  16.273  11.620
26775W        W93184  17.741   6.774  14.811
26776W        W93185   8.357  42.610   4.556
26777W        W93186  15.102  32.260  10.846
26778W        W93187  35.711  30.574  12.906
26779W        W93188   8.784  10.480  13.661
26780W        W93189  21.060   6.459  11.446
26781W        W93190  37.405  27.498   0.342
26782W        W93191   2.001  37.515   3.712
26783W        W93192   9.674  25.581   2.857
26784W        W93193   7.842  22.857  13.872
26785W        W93194  27.198  26.168  11.990
26786W        W93195   9.054  36.480  13.519
26787W        W93196  26.159  27.307   2.402
26788W        W93197  18.184  27.512   0.935
26789W        W93198  38.104  14.014   5.132
26790W        W93199  19.793  29.083  14.380
26791W        W93200  29.879  10.304   4.829
26792W        W93201  43.536   1.442   3.164
26793W        W93202   2.948  15.685   2.740
26794W        W93203  22.281   3.329   1.958
26795W        W93204   2.390  35.828  10.130
26796W        W93205  12.209  19.062  11.195
26797W        W93206  21.675  33.528  12.824
26798W        W93207  24.144  19.327   3.673
26799W        W93208  22.383  33.440   2.626
26800W        W93209  25.199  13.709  14.933
26801W        W93210  34.094  23.404   1.301
26802W        W93211  42.341  17.166   2.265
26803W        W93212   5.894  44.965   3.155
26804W        W93213   7.102  14.142   2.140
26805W        W93214  32.993  43.532   1.762
26806W        W93215  17.681  20.700   1.792
26807W        W93216  30.748  33.235   4.986
26808W        W93217  12.670  27.667  13.578
26809W        W93218  34.061  19.669   0.302
26810W        W93219  15.427  26.460   4.495
26811W        W93220  43.926  20.117  10.335
26812W        W93221   2.033  15.052  14.792
26813W        W93222  15.523  18.946   4.640
26814W        W93223   3.455   6.420  13.289
26815W        W93224  34.470  43.118   4.477
26816W        W93225  23.650   6.223  12.530
26817W        W93226  21.211  19.880  14.170
26818W        W93227  35.679  21.226   5.343
26819W        W93228  25.622  21.605   3.953
26820W        W93229  25.441   7.816   3.762
26821W        W93230   2.778   9.844   1.776
26822W        W93231  29.449  19.776  11.127
26823W        W93232  13.286  11.041   3.932
26824W        W93233  30.163  22.833  12.831
26825W        W93234  33.163  31.600   1.772
26826W        W93235  25.823  20.718  10.346
26827W        W93236  38.872   2.848  14.970
26828W        W93237  41.789  32.125  10.577
26829W        W93238   7.380   6.400  14.844
26830W        W93239  25.753  23.603  11.947
26831W        W93240  31.807  28.220   2.809
26832W        W93241  30.597   8.531   5.070
26833W        W93242  12.425  31.673   2.887
26834W        W93243  38.508  43.576  12.461
26835W        W93244   5.170  16.318   2.883
26836W        W93245   8.714  41.092  11.986
26837W        W93246   7.904   2.730   0.331
26838W        W93247  16.556  17.172  12.439
26839W        W93248  22.532   6.405   4.489
26840W        W93249  11.591   4.441   4.269
26841W        W93250   7.468  16.658  14.906
26842W        W93251   8.289  35.108  14.973
26843W        W93252  20.601   0.889   2.365
26844W        W93253   6.305  16.110  12.997
26845W        W93254  27.808  31.143  14.503
26846W        W93255  16.308  27.518   3.429
26847W        W93256   4.722  14.096   2.433
26848W        W93257  10.095  39.455   2.148
26849W        W93258  41.913  21.502   4.952
26850W        W93259  19.443  13.743   0.855
26851W        W93260   5.331  10.606  11.090
26852W        W93261   0.822   6.092   2.156
26853W        W93262   8.761   7.845   0.531
26854W        W93263  11.359   5.451   2.792
26855W        W93264  37.104   3.315  11.791
26856W        W93265  23.548   8.933  11.920
26857W        W93266  15.130  20.873  12.030
26858W        W93267  27.170  30.685   4.571
26859W        W93268  24.263  31.636  10.762
26860W        W93269  16.034  41.074  13.867
26861W        W93270  29.455  26.824   2.848
26862W        W93271  34.257  25.476  14.944
26863W        W93272  42.983  33.958   2.322
26864W        W93273  11.571  23.854   3.716
26865W        W93274  44.389  43.048  12.478
26866W        W93275   1.277  20.975   1.048
26867W        W93276  43.269  28.640   1.144
26868W        W93277   6.968  12.391   2.160
26869W        W93278   3.359  36.092  12.178
26870W        W93279  24.476  25.731  14.533
26871W        W93280  25.092   8.730  10.987
26872W        W93281  42.957  15.658  14.560
26873W        W93282  33.504  25.856  12.352
26874W        W93283  36.860   5.175  10.645
26875W        W93284  18.577  34.636   1.307
26876W        W93285  27.326  14.199  11.139
26877W        W93286  28.931   6.367  14.223
26878W        W93287  37.434  40.872  13.823
26879W        W93288  18.606  11.964  13.703
26880W        W93289   9.935  25.224  13.354
26881W        W93290  21.601  37.261   1.642
26882W        W93291  16.442  23.919  11.964
26883W        W93292  34.411  43.728   0.735
26884W        W93293   1.434  28.294  12.859
26885W        W93294  27.179  19.162   3.540
26886W        W93295  13.644  19.655   1.751
26887W        W93296  11.276  27.924   1.224
26888W        W93297  38.729  16.042  11.085
26889W        W93298  38.608  37.679  11.441
26890W        W93299  23.556  11.849  11.085
26891W        W93300  11.084  20.840   4.790
26892W        W93301  27.071  20.289  13.649
26893W        W93302   0.988  35.374  10.652
26894W        W93303  36.826   3.861  14.351
26895W        W93304  10.784  24.570   4.468
26896W        W93305   4.472  14.063  11.711
26897W        W93306  22.209  43.615  14.797
26898W        W93307  26.081  43.741  11.734
26899W        W93308  25.560  29.847   2.791
26900W        W93309   2.312  14.528  10.798
26901W        W93310   4.237  32.583  10.565
26902W        W93311  21.962  36.593   0.079
26903W        W93312  27.335   3.356   3.315
26904W        W93313  10.194  33.368   1.840
26905W        W93314   4.996  17.939   1.776
26906W        W93315  20.766  24.489   3.710
26907W        W93316  39.541  16.827  13.654
26908W        W93317  44.966  23.541   3.145
26909W        W93318   4.237  24.976   2.297
26910W        W93319  19.126  18.575   1.714
26911W        W93320  34.644  19.066   3.236
26912W        W93321  13.091  30.160  11.171
26913W        W93322   7.039  27.764   3.711
26914W        W93323  36.258  44.113  14.919
26915W        W93324  34.317  24.877  10.783
26916W        W93325  16.416   8.954   2.846
26917W        W93326  23.524  27.576   4.640
26918W        W93327  26.430   2.957  13.265
26919W        W93328   7.723  33.927   0.778
26920W        W93329  38.141  38.570   3.161
26921W        W93330   0.386  40.642   4.252
26922W        W93331  37.316  22.050  12.700
26923W        W93332   1.934   2.788   3.822
26924W        W93333  31.763  33.968   4.009
26925W        W93334  23.571  23.723   0.864
26926W        W93335   0.990  12.638   0.413
26927W        W93336  35.907  43.436  14.525
26928W        W93337  39.699  15.623   1.360
26929W        W93338  41.126   6.731  13.965
26930W        W93339  41.722  39.394   0.730
26931W        W93340  19.226  42.289  14.300
26932W        W93341  27.800  26.096   1.757
26933W        W93342  15.181   1.854   3.147
26934W        W93343   1.923  13.558  11.548
26935W        W93344  26.901   4.708  10.316
26936W        W93345   2.525  20.605   0.495
26937W        W93346  13.151   4.001   0.099
26938W        W93347  23.117  31.177   2.335
26939W        W93348   9.319  21.088   1.135
26940W        W93349   1.355  33.096  10.657
26941W        W93350  25.721  25.970  10.552
26942W        W93351   4.877  26.412  14.328
26943W        W93352  10.899  15.132   0.312
26944W        W93353   8.757   6.752   4.764
26945W        W93354   3.961   6.220  13.863
26946W        W93355  43.622   7.265  14.363
26947W        W93356  11.664  43.517   3.724
26948W        W93357  21.664   8.795  11.572
26949W        W93358  41.978   1.739  12.892
26950W        W93359  35.619  41.764   2.727
26951W        W93360  15.762  30.383  12.897
26952W        W93361  29.510  18.156  13.722
26953W        W93362   5.086  26.580   3.338
26954W        W93363  35.549  30.404   2.385
26955W        W93364  13.462  33.578   3.299
26956W        W93365  35.446  28.943   0.287
26957W        W93366  24.332  25.998  11.902
26958W        W93367  19.798  10.330   3.550
26959W        W93368  42.074  10.121  13.835
26960W        W93369   5.738  32.651   3.758
26961W        W93370  24.928  11.847   4.131
26962W        W93371   5.566  10.124  14.670
26963W        W93372  14.432  17.967  14.823
26964W        W93373  32.736   7.796   2.772
26965W        W93374  23.192  37.611  14.543
26966W        W93375  34.023  40.026  11.646
26967W        W93376  21.126  44.457  12.596
26968W        W93377  10.285  42.943  12.778
26969W        W93378  14.340  43.323   4.846
26970W        W93379  32.600  28.575  10.529
26971W        W93380  42.490  40.477   2.714
26972W        W93381  13.011  30.837   0.855
26973W        W93382  32.988   2.753   3.545
26974W        W93383  37.349  39.746  14.501
26975W        W93384  39.474   0.326  14.910
26976W        W93385   1.446  19.340  11.081
26977W        W93386   0.993   5.629   2.680
26978W        W93387  11.704  31.958   2.104
26979W        W93388  30.881  41.325  11.216
26980W        W93389  20.832  41.475   4.118
26981W        W93390   1.038  23.700  12.663
26982W        W93391   9.841  23.744   1.692
26983W        W93392   4.524  31.957   0.380
26984W        W93393   5.716   6.273  10.941
26985W        W93394  10.153  35.533  11.111
26986W        W93395   4.050  21.261   3.098
26987W        W93396   2.506  27.180  11.733
26988W        W93397  18.614   7.631  10.695
26989W        W93398  32.720  23.734   2.234
26990W        W93399  13.710  32.768   4.987
26991W        W93400  39.460   4.968  13.869
26992W        W93401  12.812  32.449  10.320
26993W        W93402  30.954   8.753   2.340
26994W        W93403  26.427  38.666   2.341
26995W        W93404  20.781  16.799  13.332
26996W        W93405  13.331  31.768  13.070
26997W        W93406  14.346  21.984  11.985
26998W        W93407   0.915  13.812   3.140
26999W        W93408  39.290  24.875  13.823
27000W        W93409  32.967  17.700   0.572
27001W        W93410  39.554  15.129   2.878
27002W        W93411  17.296  37.887   3.402
27003W        W93412   1.317   1.929   1.731
27004W        W93413   3.260  37.872   1.468
27005W        W93414  14.176   2.428  14.933
27006W        W93415  13.807   5.926  11.549
27007W        W93416  24.315  23.064   2.453
27008W        W93417   3.156  43.338  13.584
27009W        W93418   2.463  39.410  12.009
27010W        W93419  24.599   2.111   3.709
27011W        W93420   4.369  31.648   3.129
27012W        W93421  37.641  24.987   5.143
27013W        W93422   6.599  38.546  10.486
27014W        W93423  41.887  37.932   4.844
27015W        W93424  29.664  14.475   4.178
27016W        W93425  38.884   1.445  13.394
27017W        W93426  23.569  17.033   2.305
27018W        W93427  38.314  26.463   0.559
27019W        W93428  27.285  25.147   1.752
27020W        W93429  15.885  44.675   0.793
27021W        W93430  21.610  44.338  12.722
27022W        W93431   2.947  11.910  14.512
27023W        W93432  19.001  24.973   0.761
27024W        W93433   7.841  44.957  11.987
27025W        W93434   5.004  10.275   2.116
27026W        W93435   3.363  25.020   5.001
27027W        W93436  36.495  33.840  14.760
27028W        W93437  13.785  33.068  11.603
27029W        W93438  14.802  31.042   4.402
27030W        W93439   3.754  33.278  13.880
27031W        W93440  31.139  15.301   1.698
27032W        W93441  25.808  26.435   4.820
27033W        W93442  15.327   2.899  10.577
27034W        W93443  26.466  30.942  10.714
27035W        W93444   8.128  36.470   4.255
27036W        W93445  36.050  27.526  10.533
27037W        W93446   9.241   8.784  12.702
27038W        W93447  18.971   2.418  11.883
27039W        W93448  27.278  14.405  12.422
27040W        W93449  32.620  19.257  13.149
27041W        W93450   9.381  36.720  10.372
27042W        W93451   1.959   0.919   3.699
27043W        W93452  23.995  24.538  14.849
27044W        W93453   0.983   8.655   3.595
27045W        W93454  28.138   3.653  13.913
27046W        W93455  39.931  37.243  13.903
27047W        W93456  36.618   9.593  10.747
27048W        W93457   0.260   3.814   2.295
27049W        W93458   5.338  10.324   3.760
27050W        W93459  22.016  27.150  12.018
27051W        W93460  26.698   3.151   2.300
27052W        W93461  18.278  21.089  10.100
27053W        W93462  18.657   1.836  14.902
27054W        W93463  19.345  13.592   3.914
27055W        W93464  22.159  12.947  11.450
27056W        W93465   5.400  44.572   1.963
27057W        W93466  42.911   5.214   2.935
27058W        W93467  19.692  38.054  14.414
27059W        W93468  35.902  37.510   4.498
27060W        W93469  35.679   0.390   0.811
27061W        W93470   9.486  32.993   1.842
27062W        W93471  40.409  14.298   3.209
27063W        W93472  26.657  16.632   2.263
27064W        W93473  37.801  16.300  11.090
27065W        W93474  23.681  33.929  12.938
27066W        W93475   9.406  17.680  14.282
27067W        W93476  31.107   6.026  10.521
27068W        W93477  15.113  24.752   3.482
27069W        W93478  29.688  33.106   2.898
27070W        W93479   2.618  30.466   1.217
27071W        W93480  31.629  32.184   2.374
27072W        W93481  43.434  14.673   3.813
27073W        W93482  36.484   4.465   0.959
27074W        W93483  18.615   7.751  14.280
27075W        W93484  22.061  20.671   2.302
27076W        W93485  38.033  11.383   1.461
27077W        W93486   6.677  44.429  14.919
27078W        W93487  11.709   5.736   0.557
27079W        W93488  15.979  40.544   0.159
27080W        W93489  18.249  21.682  10.461
27081W        W93490  40.103  25.119  12.500
27082W        W93491  29.600  17.532  12.620
27083W        W93492  17.559  13.737  11.682
27084W        W93493  28.056   6.667  10.225
27085W        W93494  18.326  17.623   0.359
27086W        W93495  17.212   8.490  13.700
27087W        W93496   3.832  26.146  12.621
27088W        W93497   5.945  18.348  12.208
27089W        W93498  33.442   9.731  12.436
27090W        W93499  36.487  22.001   3.144
27091W        W93500  23.577   6.884   0.421
27092W        W93501  35.590  34.058   2.325
27093W        W93502  40.376  41.115   4.853
27094W        W93503   7.478   4.877   2.176
27095W        W93504  18.597  10.422   0.418
27096W        W93505  44.030  43.417   0.243
27097W        W93506  43.933  20.422  12.629
27098W        W93507  15.236  26.459  12.486
27099W        W93508  40.839  13.656   2.747
27100W        W93509   7.206   2.949  10.748
27101W        W93510  19.735  10.180  12.920
27102W        W93511  27.859  40.212  12.544
27103W        W93512  25.747  25.216  10.226
27104W        W93513  23.586  24.678   1.738
27105W        W93514  35.374  35.421   3.105
27106W        W93515  36.547  24.708   1.195
27107W        W93516  32.926   7.124   4.493
27108W        W93517  25.514  11.227   4.377
27109W        W93518  21.715  34.965  13.878
27110W        W93519   6.425  23.232   0.336
27111W        W93520  28.956  31.068   4.392
27112W        W93521  20.114  36.897   0.747
27113W        W93522  17.775  15.500  11.192
27114W        W93523  34.893  35.976  13.833
27115W        W93524   1.393  17.135  13.037
27116W        W93525  28.557  36.847   2.849
27117W        W93526  31.619  27.654  13.384
27118W        W93527   7.850  37.465  14.173
27119W        W93528  24.243  27.044   0.777
27120W        W93529  13.040  16.601  12.967
27121W        W93530  26.909  14.660  13.949
27122W        W93531  13.882   3.298   0.454
27123W        W93532   1.911  42.460   3.370
27124W        W93533  12.995   4.906  12.562
27125W        W93534  11.740  29.139   0.939
27126W        W93535   7.434  35.654  14.076
27127W        W93536   9.783  39.522   1.727
27128W        W93537  28.769  22.301  13.487
27129W        W93538  26.954  15.653   4.793
27130W        W93539  28.950  28.294  10.608
27131W        W93540  31.299  17.533   3.765
27132W        W93541   8.717  12.303   1.270
27133W        W93542   1.710   4.958   3.155
27134W        W93543  43.453  27.598   2.455
27135W        W93544   0.470  15.792   2.185
27136W        W93545  35.803  17.755   4.245
27137W        W93546  28.651  27.248  13.437
27138W        W93547  42.289   0.355   4.591
27139W        W93548  13.335  32.622   1.015
27140W        W93549   7.415  43.466  11.091
27141W        W93550  38.767  32.282  11.158
27142W        W93551  30.565   6.362   0.912
27143W        W93552  17.653  23.048   1.210
27144W        W93553   0.482  11.857   2.407
27145W        W93554  40.042  41.032   0.221
27146W        W93555   6.198  16.391  11.611
27147W        W93556  34.357   1.139   4.534
27148W        W93557   5.975  12.062   3.862
27149W        W93558   5.323   3.891  11.901
27150W        W93559  43.598  11.285  12.026
27151W        W93560  15.214  31.742  10.673
27152W        W93561  40.333  19.609   1.813
27153W        W93562  42.441  19.104   2.589
27154W        W93563  44.935  33.452   4.697
27155W        W93564  25.728  33.041  12.866
27156W        W93565  11.233  43.790   0.772
27157W        W93566  20.498  11.305   3.662
27158W        W93567  24.071  24.694  11.551
27159W        W93568  40.297   8.919  14.024
27160W        W93569  34.747  41.581   2.687
27161W        W93570  11.713  27.986  13.866
27162W        W93571   8.348   9.351  11.094
27163W        W93572  21.721  31.467   1.794
27164W        W93573  23.475  27.779   3.301
27165W        W93574  27.168  13.320  13.490
27166W        W93575  32.123  29.629   0.229
27167W        W93576   7.429   1.474  11.050
27168W        W93577  34.965  36.555  10.964
27169W        W93578  37.962  24.593   0.308
27170W        W93579  28.425  18.749   4.366
27171W        W93580  10.880   3.345  11.001
27172W        W93581  19.271  44.459   0.454
27173W        W93582  16.462  13.181   1.688
27174W        W93583  20.650   0.735  14.369
27175W        W93584  30.918  32.375   2.751
27176W        W93585  25.836  10.946  10.778
27177W        W93586  34.784  40.477   4.985
27178W        W93587   5.703   0.993  11.503
27179W        W93588  22.593  23.479   3.285
27180W        W93589  34.862  23.152  13.592
27181W        W93590  33.134  32.730  13.765
27182W        W93591  11.387  19.001   2.839
27183W        W93592  25.407  35.507  14.425
27184W        W93593  41.436  16.230   2.814
27185W        W93594   4.196  11.435   4.577
27186W        W93595   9.760   0.355   4.947
27187W        W93596   3.408  20.737  12.415
27188W        W93597  18.855  18.379   0.246
27189W        W93598  41.344  13.945  11.602
27190W        W93599  44.882  17.726  11.635
27191W        W93600  10.555  11.258  11.484
27192W        W93601   0.933   6.384   1.742
27193W        W93602  32.122  41.511  10.623
27194W        W93603  19.486   7.239   1.844
27195W        W93604  12.690   3.887  10.597
27196W        W93605  29.698  11.663  10.867
27197W        W93606  11.090   9.846   3.313
27198W        W93607  37.370  34.977   3.728
27199W        W93608   8.569  14.506  13.826
27200W        W93609  43.385  27.669  11.050
27201W        W93610  38.549  16.213   0.248
27202W        W93611   5.947  33.715  12.090
27203W        W93612  34.605  16.002  13.319
27204W        W93613  30.563  38.112  13.132
27205W        W93614   4.337  20.302  11.053
27206W        W93615  26.422  15.504  13.047
27207W        W93616  30.399  31.468  14.542
27208W        W93617  22.463  21.575  11.416
27209W        W93618  22.081  44.164   4.091
27210W        W93619  31.600  30.653  10.783
27211W        W93620   9.644  29.113  10.760
27212W        W93621  35.484  34.546   2.033
27213W        W93622   2.208  41.411  14.477
27214W        W93623   6.640   4.675  11.577
27215W        W93624  20.573  15.331  14.949
27216W        W93625  31.824  19.676  10.573
27217W        W93626   1.503  20.723   0.232
27218W        W93627  15.708   4.690  12.880
27219W        W93628  35.090  30.230   0.379
27220W        W93629  16.487  14.369   3.347
27221W        W93630   8.707  25.918  12.125
27222W        W93631  24.148  31.088  11.599
27223W        W93632  28.224  26.054  14.019
27224W        W93633  18.630  15.332  14.734
27225W        W93634  31.269  40.967  13.410
27226W        W93635   9.275  24.167  14.356
27227W        W93636  27.718   5.917   1.439
27228W        W93637  26.505  23.346   4.424
27229W        W93638  41.989   3.907  11.593
27230W        W93639  33.135  29.217  13.099
27231W        W93640  11.354  16.352  12.925
27232W        W93641  31.417  15.059   3.258
27233W        W93642   3.681  15.649   4.170
27234W        W93643  35.679  37.933   3.230
27235W        W93644  41.325  31.086   2.400
27236W        W93645   1.355   9.242   0.919
27237W        W93646  38.408  10.458  11.011
27238W        W93647  30.491  15.632  13.516
27239W        W93648  32.513  21.751   3.754
27240W        W93649  27.437   5.766   3.750
27241W        W93650  28.260  31.212  10.475
27242W        W93651   8.149  25.432  11.454
27243W        W93652  10.135  31.263  14.650
27244W        W93653  35.475  38.604  14.591
27245W        W93654  15.320   0.523   3.809
27246W        W93655  42.805  35.616  10.841
27247W        W93656  18.444   4.729  12.522
27248W        W93657  26.853  35.970  12.514
27249W        W93658  27.052   2.750  14.730
27250W        W93659  35.159  10.569  11.522
27251W        W93660  39.522  44.057  13.386
27252W        W93661  16.962  28.063   4.362
27253W        W93662  37.001  33.747   0.679
27254W        W93663  24.602  22.117   0.204
27255W        W93664  30.404  24.508   3.214
27256W        W93665   1.676  13.481  12.700
27257W        W93666  16.552  18.423   4.101
27258W        W93667   9.697  26.615  11.957
27259W        W93668  15.409   0.575  14.562
27260W        W93669  26.496  17.565  14.250
27261W        W93670  27.443  34.984   1.872
27262W        W93671  24.498  27.840  10.732
27263W        W93672   8.402  34.462  13.872
27264W        W93673  18.098  31.443  10.762
27265W        W93674  21.651  32.199   4.993
27266W        W93675   6.953  27.638   4.988
27267W        W93676  25.747  17.189   4.288
27268W        W93677  15.820  41.410  14.818
27269W        W93678  13.425  21.702  12.100
27270W        W93679   5.697  26.992  12.670
27271W        W93680  36.445  22.063   4.463
27272W        W93681  29.497  27.617   3.888
27273W        W93682  24.804  28.162  12.297
27274W        W93683  12.670  40.266   1.981
27275W        W93684  30.504  43.599   4.543
27276W        W93685  15.618  27.671   4.180
27277W        W93686  38.244  39.241  13.062
27278W        W93687   0.936  27.419   0.331
27279W        W93688   3.767  18.853  12.607
27280W        W93689  11.773  43.140   3.352
27281W        W93690  27.171  34.091   2.371
27282W        W93691  16.377  12.839  13.929
27283W        W93692   3.315  21.482   3.774
27284W        W93693  22.288  28.141  11.940
27285W        W93694  31.031   1.492  13.298
27286W        W93695   5.414   3.441   1.809
27287W        W93696  10.747   4.072   9.933
27288W        W93697  41.540  24.218   1.157
27289W        W93698   8.977  37.508  11.251
27290W        W93699  43.954   1.222  11.734
27291W        W93700  25.171   8.467   2.713
27292W        W93701   0.304  23.953   0.858
27293W        W93702  28.558  25.936  12.051
27294W        W93703  13.353  30.900   3.132
27295W        W93704  36.827  28.047   4.112
27296W        W93705  15.524  17.629  14.951
27297W        W93706  14.374   0.853   4.748
27298W        W93707  31.175   1.998  14.867
27299W        W93708   1.324  12.879  12.132
27300W        W93709  36.852   0.579  14.618
27301W        W93710  32.368  16.817  11.513
27302W        W93711   3.875  33.523  11.291
27303W        W93712  33.494  10.733   3.297
27304W        W93713  21.568  23.945  13.490
27305W        W93714  34.995   7.804  12.163
27306W        W93715  42.538  37.885  14.205
27307W        W93716   8.999   2.335  12.455
27308W        W93717  22.633  33.517   1.625
27309W        W93718  35.217  26.599  13.454
27310W        W93719  30.755  38.317  14.073
27311W        W93720  27.516  12.078  12.394
27312W        W93721  34.908  29.346   3.236
27313W        W93722   1.894  24.379   1.866
27314W        W93723  33.685  39.807  14.002
27315W        W93724  20.102   7.795   3.713
27316W        W93725   7.786  44.031  11.173
27317W        W93726  28.201  13.782  12.316
27318W        W93727  30.584  23.932   1.465
27319W        W93728  34.892  38.969  10.726
27320W        W93729  22.380  30.723  13.245
27321W        W93730  18.742   8.396   0.326
27322W        W93731   3.420  29.392  14.901
27323W        W93732  26.806  35.298  10.695
27324W        W93733  36.640  16.152   0.261
27325W        W93734   5.356  42.533  13.908
27326W        W93735   6.222  14.556   1.824
27327W        W93736   2.047   8.307   2.895
27328W        W93737  15.977   1.597  12.471
27329W        W93738  16.577  28.125  10.949
27330W        W93739  37.556  28.005   0.160
27331W        W93740   1.376  33.569  12.975
27332W        W93741  30.635  39.523  12.953
27333W        W93742  12.642   3.260   4.296
27334W        W93743   0.999  34.522   3.176
27335W        W93744  44.762  23.047  14.932
27336W        W93745  36.400  39.254  10.411
27337W        W93746   7.934  29.275   3.782
27338W        W93747   7.373  28.872   4.653
27339W        W93748  19.845  20.116   3.834
27340W        W93749  38.607  17.723   1.444
27341W        W93750   2.983  38.419   2.719
27342W        W93751   6.196  22.762   0.368
27343W        W93752   2.675  35.715   4.165
27344W        W93753   2.824  24.729   2.835
27345W        W93754  40.409  38.552   3.456
27346W        W93755  42.345   9.298  12.940
27347W        W93756  35.389  13.889   3.210
27348W        W93757   8.498  17.124  14.304
27349W        W93758  11.817  23.438   1.412
27350W        W93759  29.615  28.166   0.357
27351W        W93760  14.737  44.574   1.415
27352W        W93761  17.742   5.785  12.192
27353W        W93762  26.801  10.270   1.850
27354W        W93763  20.164   4.906  12.431
27355W        W93764  11.821   7.751  14.766
27356W        W93765  40.495  28.441   4.143
27357W        W93766  39.998  42.211   2.891
27358W        W93767  25.488  32.945   3.301
27359W        W93768  14.581  25.250   4.596
27360W        W93769  30.127  27.379  12.418
27361W        W93770   6.317  37.892   2.882
27362W        W93771  41.934  18.516   4.923
27363W        W93772  35.159  20.867  14.708
27364W        W93773   3.729  13.949   0.110
27365W        W93774  33.992  10.177  12.569
27366W        W93775  13.092  18.264   3.081
27367W        W93776   9.702  20.125   1.137
27368W        W93777  21.932  33.893  11.995
27369W        W93778  16.887  21.529   3.972
27370W        W93779   5.641   1.890  13.041
27371W        W93780   5.716  41.478   3.366
27372W        W93781  13.729  32.306  10.512
27373W        W93782  34.708   3.864   4.492
27374W        W93783  14.987  33.959  14.447
27375W        W93784  14.276   9.812   4.635
27376W        W93785  21.370  40.809  10.894
27377W        W93786   4.136  44.011   0.509
27378W        W93787  38.327  18.715   1.325
27379W        W93788  26.271  10.595   1.901
27380W        W93789  20.810   4.847   2.725
27381W        W93790   7.169  41.304   1.628
27382W        W93791   8.709   4.932  10.567
27383W        W93792  14.483  20.969   2.410
27384W        W93793   6.633  21.001   0.886
27385W        W93794  16.170  19.578  11.064
27386W        W93795  32.123  29.433  14.280
27387W        W93796  10.932  21.629   0.392
27388W        W93797   3.626   9.775   3.331
27389W        W93798  20.295  11.349  11.531
27390W        W93799  19.519  36.553  13.623
27391W        W93800   3.329  21.456   4.692
27392W        W93801  13.346  27.515   1.289
27393W        W93802  23.215   5.455  12.450
27394W        W93803   1.479  40.293  11.203
27395W        W93804  24.569  24.782   2.604
27396W        W93805   9.324  10.095   2.330
27397W        W93806  12.568  40.406  11.943
27398W        W93807  23.491  42.972  14.186
27399W        W93808   0.037   0.794   1.223
27400W        W93809   0.854   0.746   1.706
27401W        W93810  15.630  37.275   0.824
27402W        W93811  15.035  13.860  14.517
27403W        W93812  38.437  26.576   4.199
27404W        W93813  39.601  34.087  11.058
27405W        W93814  17.442  30.997   2.782
27406W        W93815  15.609  16.746   2.198
27407W        W93816  25.689  42.660  14.963
27408W        W93817  31.586   1.038   5.555
27409W        W93818  11.705  37.487  14.844
27410W        W93819   7.685  39.730   3.749
27411W        W93820  20.352   9.563   1.881
27412W        W93821  16.097   0.497   2.738
27413W        W93822   1.190   6.618  12.651
27414W        W93823  20.599  21.973   2.193
27415W        W93824  35.761  30.230  14.966
27416W        W93825  34.495  11.459   0.413
27417W        W93826  41.369  34.660  13.019
27418W        W93827   2.311  18.044   0.332
27419W        W93828  43.214   8.940  14.989
27420W        W93829   9.299  41.759  10.736
27421W        W93830  12.312  43.266  14.424
27422W        W93831  44.691  38.348  13.399
27423W        W93832  18.244   1.233   0.917
27424W        W93833   7.209  15.881  11.547
27425W        W93834  35.027  24.750  11.504
27426W        W93835  36.759  34.611   0.401
27427W        W93836  28.208  29.057   3.171
27428W        W93837   3.573  29.617  11.649
27429W        W93838  39.794  17.721   0.933
27430W        W93839   3.238  39.848  12.190
27431W        W93840  37.752  24.396  11.629
27432W        W93841  35.720   9.746   0.215
27433W        W93842  30.364  31.005   2.181
27434W        W93843   3.850  23.425  10.715
27435W        W93844  35.510  36.132   0.324
27436W        W93845  17.914   0.187   2.768
27437W        W93846   4.314   0.868  12.557
27438W        W93847  13.806  41.028  11.256
27439W        W93848  41.514  32.165  12.937
27440W        W93849   6.950   8.348  12.438
27441W        W93850  11.607  14.151  10.229
27442W        W93851  41.792  36.956  14.777
27443W        W93852   2.574  13.141   0.695
27444W        W93853  44.840  24.134   0.985
27445W        W93854  38.085  38.821  10.620
27446W        W93855   9.226  33.825   0.809
27447W        W93856  39.261  19.263   2.294
27448W        W93857  42.814  32.276   5.145
27449W        W93858  16.225   9.373  14.405
27450W        W93859  10.361  27.740  13.136
27451W        W93860   2.284  33.869  13.892
27452W        W93861  36.125  40.785  11.995
27453W        W93862   4.518  37.459   1.343
27454W        W93863  40.775  24.448  12.130
27455W        W93864   4.932  36.903  13.181
27456W        W93865  24.090  42.920   9.888
27457W        W93866   5.095  40.322   3.305
27458W        W93867   0.833  35.117   4.442
27459W        W93868  24.797  41.048   4.554
27460W        W93869  43.935  40.158   1.280
27461W        W93870  43.351  32.183   1.648
27462W        W93871   6.671  32.435   3.108
27463W        W93872  17.691  44.492  14.448
27464W        W93873  23.995  37.153  14.541
27465W        W93874   9.087   8.426  14.399
27466W        W93875  26.677  11.348   1.854
27467W        W93876  31.714  38.448   1.695
27468W        W93877  19.309   9.610  13.505
27469W        W93878  14.881  11.635   4.988
27470W        W93879  34.665  15.156   2.296
27471W        W93880   9.672  32.445  13.984
27472W        W93881  16.611  11.600  10.793
27473W        W93882  41.731  22.728  13.423
27474W        W93883  34.887   0.888  10.644
27475W        W93884  40.094  11.233   4.136
27476W        W93885  14.613  43.289  10.550
27477W        W93886  21.312  38.267   3.063
27478W        W93887  30.903  21.658   4.562
27479W        W93888   2.963  24.674  12.421
27480W        W93889  19.125  40.249  12.047
27481W        W93890  20.042  36.891   3.368
27482W        W93891  34.229  31.967   2.378
27483W        W93892   6.891  44.749   0.272
27484W        W93893  31.673   2.610   1.164
27485W        W93894  33.904  25.236   0.290
27486W        W93895  15.270  39.920  10.197
27487W        W93896  16.307   6.905  10.243
27488W        W93897  13.213  11.528  11.221
27489W        W93898  25.419   7.095  12.365
27490W        W93899  11.971   9.092   4.761
27491W        W93900  33.956  10.331  12.062
27492W        W93901  11.291  26.377  13.057
27493W        W93902  29.974   3.856   4.291
27494W        W93903  16.222   9.923  14.822
27495W        W93904   6.834  42.951   1.687
27496W        W93905  12.021  24.683  13.824
27497W        W93906   2.995  37.863  14.784
27498W        W93907   6.066  24.647   0.525
27499W        W93908  31.080  28.643  11.292
27500W        W93909  23.542   1.467  10.362
27501W        W93910  35.215  32.980   1.445
27502W        W93911  43.566   0.643   4.372
27503W        W93912  10.057   1.175  14.877
27504W        W93913  30.078  42.421   0.298
27505W        W93914   3.480  21.939   3.626
27506W        W93915  16.542  10.675   0.661
27507W        W93916  22.598  31.426   1.933
27508W        W93917  42.292  20.314  10.232
27509W        W93918  35.359  16.382  12.868
27510W        W93919  12.779   3.879   3.158
27511W        W93920  35.607  26.425  11.581
27512W        W93921  25.554  14.840   0.857
27513W        W93922  30.180  38.789  11.631
27514W        W93923  34.125   0.945   4.106
27515W        W93924  12.144  14.705   0.198
27516W        W93925  20.336  13.359  13.829
27517W        W93926  32.533  13.369   1.932
27518W        W93927  13.083  34.791   2.366
27519W        W93928  36.482  33.362  13.949
27520W        W93929  10.183  18.437   0.756
27521W        W93930  43.036  36.930  12.536
27522W        W93931  37.432  43.807   3.237
27523W        W93932  29.100  22.578  12.151
27524W        W93933  36.914   0.757  11.614
27525W        W93934  17.520  42.091  14.432
27526W        W93935  11.873  27.667   1.413
27527W        W93936  24.572   4.526  10.504
27528W        W93937  20.804  11.715  12.337
27529W        W93938  24.535   1.036   1.813
27530W        W93939  27.682  27.773  10.992
27531W        W93940  38.139  13.374  12.878
27532W        W93941  33.680  32.200   0.643
27533W        W93942  30.973  34.543   4.770
27534W        W93943  39.523  35.852   1.844
27535W        W93944  42.263  34.635   2.237
27536W        W93945   7.766   0.976  13.725
27537W        W93946  25.457  31.388   1.753
27538W        W93947  32.421  41.943  10.683
27539W        W93948  41.028   9.371   5.539
27540W        W93949  19.139   5.364  11.896
27541W        W93950  15.027  19.020   4.578
27542W        W93951   6.492  35.970  12.880
27543W        W93952  29.111  26.147  11.653
27544W        W93953  26.105  29.012  12.055
27545W        W93954  18.570  42.848  11.103
27546W        W93955  15.258  26.897  11.168
27547W        W93956   1.791  44.801   4.616
27548W        W93957  18.775  40.437  10.543
27549W        W93958  31.512  38.318   3.429
27550W        W93959   0.787  38.392  13.238
27551W        W93960  17.949  35.589  12.409
27552W        W93961  18.587  23.659  12.993
27553W        W93962  11.266  25.027  14.649
27554W        W93963  16.317  37.279  12.253
27555W        W93964  35.900  23.123   3.412
27556W        W93965  15.088  31.167   3.199
27557W        W93966  13.740   2.182   2.123
27558W        W93967  22.172  34.155   0.878
27559W        W93968  20.855   0.846   0.365
27560W        W93969   8.034  37.158  11.014
27561W        W93970  36.562   5.819  10.662
27562W        W93971  11.564   1.913   0.439
27563W        W93972  23.776  39.733  12.061
27564W        W93973  40.929  29.901   1.913
27565W        W93974  27.915  38.263  10.735
27566W        W93975  29.206  40.091   0.963
27567W        W93976  18.728   8.175  12.805
27568W        W93977  10.611   2.603  14.510
27569W        W93978  18.707  31.377   4.211
27570W        W93979  42.042  42.963   0.201
27571W        W93980  30.536  42.109  11.707
27572W        W93981  41.447   7.234   2.788
27573W        W93982   8.906  20.833  12.780
27574W        W93983  27.966  23.105   4.569
27575W        W93984   7.933  17.508  11.990
27576W        W93985   8.645   0.556   5.099
27577W        W93986   8.075  44.445  12.006
27578W        W93987  22.729   6.566  14.893
27579W        W93988  34.560   5.695  14.390
27580W        W93989  33.017  26.661   0.782
27581W        W93990  26.014  41.085  12.952
27582W        W93991  44.396  10.886   5.067
27583W        W93992  32.561  20.568  11.908
27584W        W93993  18.672  16.387  12.979
27585W        W93994  25.651   3.867  12.373
27586W        W93995   5.590  35.856  10.600
27587W        W93996  19.152  11.275  13.878
27588W        W93997   0.437  34.296  13.908
27589W        W93998  16.635   8.903  12.935
27590W        W93999  21.681  13.311  12.547
27591W        W94000  44.799  26.661  11.116
27592W        W94001  14.720  16.034   0.974
27593W        W94002   0.580   8.398   4.410
27594W        W94003   1.764  35.031   1.809
27595W        W94004  23.496  24.005   2.281
27596W        W94005  25.843  30.491  12.565
27597W        W94006  17.288  28.432   3.409
27598W        W94007  28.962  14.431  13.018
27599W        W94008  40.055  19.767   2.767
27600W        W94009  10.167  24.330   4.243
27601W        W94010  14.838   3.107  14.441
27602W        W94011  38.090   7.515   1.740
27603W        W94012  44.019  35.958  12.841
27604W        W94013  39.153   4.541  13.580
27605W        W94014  37.927  34.265   4.070
27606W        W94015  44.651  27.458   4.325
27607W        W94016   6.896  12.177  13.997
27608W        W94017   1.777  20.808  14.793
27609W        W94018  13.781  16.142  13.913
27610W        W94019  19.477  19.777   4.564
27611W        W94020  14.084   5.897   2.384
27612W        W94021  29.205  28.495   2.915
27613W        W94022  23.443  18.203   3.427
27614W        W94023  13.534  15.752   2.785
27615W        W94024   9.226   7.851   2.707
27616W        W94025   7.037  34.780  12.672
27617W        W94026   3.309  34.718   2.871
27618W        W94027   2.066  26.912  11.688
27619W        W94028  12.265  13.744   0.674
27620W        W94029   3.845  27.502  12.167
27621W        W94030  33.163  18.653   2.448
27622W        W94031  22.920   0.485   0.410
27623W        W94032  33.500  33.854  10.613
27624W        W94033  34.490  21.889  12.562
27625W        W94034  11.207  44.937   2.204
27626W        W94035  37.798  27.487  10.616
27627W        W94036   8.516  32.036  11.195
27628W        W94037   6.743   8.444   1.211
27629W        W94038   4.199   4.353   1.736
27630W        W94039  11.218   4.664  11.310
27631W        W94040  33.578  16.668  13.613
27632W        W94041  28.082   3.619  13.361
27633W        W94042  20.592  12.279   0.699
27634W        W94043   8.753  13.927   2.677
27635W        W94044  33.365  39.138   3.693
27636W        W94045  23.210  15.802   4.960
27637W        W94046  11.264  20.188  14.253
27638W        W94047  42.954  26.242   0.713
27639W        W94048  40.355  33.951   2.250
27640W        W94049  31.217  15.617   3.151
27641W        W94050  12.161  16.776  12.858
27642W        W94051  44.017  37.095   2.785
27643W        W94052  10.721  14.026   1.244
27644W        W94053  19.012   5.953  10.776
27645W        W94054  37.929   1.246   4.122
27646W        W94055   7.748   0.359  11.506
27647W        W94056   7.579  40.925   3.264
27648W        W94057   6.570  44.006   2.821
27649W        W94058  43.212  36.136   3.649
27650W        W94059  31.335   4.932   4.491
27651W        W94060   9.070  26.656   1.436
27652W        W94061  10.681  11.122  13.097
27653W        W94062  34.643  39.656  10.148
27654W        W94063  36.893  41.664  14.062
27655W        W94064  35.489  13.245  13.131
27656W        W94065  16.995  34.338  10.752
27657W        W94066   1.966  28.174  14.059
27658W        W94067   8.892   5.953   3.741
27659W        W94068   3.325   5.783   0.604
27660W        W94069   6.713   7.611   3.369
27661W        W94070  20.003  17.661  11.574
27662W        W94071  39.088  35.985  12.202
27663W        W94072   5.384   1.036   1.690
27664W        W94073  19.101   9.077   1.282
27665W        W94074  22.611  43.391  13.998
27666W        W94075  33.087  28.527  10.332
27667W        W94076  11.858  18.546   0.713
27668W        W94077  11.385  12.276   0.719
27669W        W94078   7.245  44.492   3.238
27670W        W94079  41.771  19.125  14.493
27671W        W94080  21.626  13.846   3.632
27672W        W94081  32.623  13.828   2.590
27673W        W94082  36.912  43.793  10.792
27674W        W94083   2.093  32.257   3.605
27675W        W94084  33.889  16.295  11.196
27676W        W94085  43.805  34.017   4.616
27677W        W94086   8.588  18.361  11.055
27678W        W94087   9.033  18.598  13.950
27679W        W94088  28.379  38.881   2.235
27680W        W94089  19.684  44.570   4.113
27681W        W94090  12.104  26.980   4.542
27682W        W94091  26.819  25.929  11.723
27683W        W94092  24.094   2.650  14.515
27684W        W94093  37.065  24.667   2.112
27685W        W94094   3.947   0.002   4.230
27686W        W94095   3.456  31.157   3.027
27687W        W94096  13.059   5.181  13.025
27688W        W94097   2.938  30.669   0.818
27689W        W94098  16.924   7.443  12.917
27690W        W94099  27.919  12.472   5.022
27691W        W94100  31.524   1.353   0.569
27692W        W94101  37.045  35.856   1.832
27693W        W94102  17.027  29.551  10.876
27694W        W94103  29.430  21.772   3.720
27695W        W94104  17.769  43.051   4.460
27696W        W94105  21.088  37.382   1.878
27697W        W94106   9.703   0.284   3.264
27698W        W94107  23.194  14.311   0.909
27699W        W94108   3.987  13.634   1.929
27700W        W94109  30.723  39.279   2.320
27701W        W94110  19.597   6.879  13.103
27702W        W94111  11.597  14.356  12.112
27703W        W94112   4.364  26.370  14.251
27704W        W94113  14.772  20.106   0.367
27705W        W94114  36.025   2.135  11.754
27706W        W94115   4.779  35.268   0.753
27707W        W94116  28.087  13.051  11.631
27708W        W94117  22.423   4.436  13.210
27709W        W94118  40.428   7.996  10.452
27710W        W94119   1.075  42.916   4.707
27711W        W94120  10.346  34.589   2.300
27712W        W94121  35.572  24.105   4.261
27713W        W94122   7.328  26.029   0.034
27714W        W94123  41.406   1.788   4.614
27715W        W94124  34.983  31.619   2.736
27716W        W94125  20.480  17.608  13.246
27717W        W94126   4.206  14.675   4.438
27718W        W94127  36.152  41.448   2.762
27719W        W94128  22.620  23.955  14.327
27720W        W94129  13.699   6.129   3.589
27721W        W94130   0.263  14.049  13.103
27722W        W94131  40.326  29.667  14.479
27723W        W94132  10.296  34.190  12.941
27724W        W94133  25.125  26.465   2.284
27725W        W94134  13.394  25.400   1.008
27726W        W94135   8.762  32.941  14.878
27727W        W94136   9.248   3.540   0.239
27728W        W94137  42.586  41.809   3.425
27729W        W94138  41.333  34.331  12.577
27730W        W94139  20.236   8.157  10.633
27731W        W94140   3.353   2.548   4.643
27732W        W94141   0.793  30.115   2.256
27733W        W94142  11.066  21.176  12.523
27734W        W94143  19.236  36.688  11.126
27735W        W94144  16.064  39.972  11.638
27736W        W94145   3.236  38.407  11.556
27737W        W94146  21.404  23.066  11.075
27738W        W94147  13.101   6.728   1.673
27739W        W94148  20.525  20.872  11.100
27740W        W94149  30.848  27.187   0.442
27741W        W94150  19.673   2.200  13.773
27742W        W94151  32.948  33.645  12.540
27743W        W94152  22.163  13.826  11.481
27744W        W94153  19.768  23.556  13.464
27745W        W94154  13.279   1.964  13.506
27746W        W94155  22.540  41.845  11.217
27747W        W94156  36.364  18.161  14.838
27748W        W94157   1.786  13.081  11.561
27749W        W94158  28.137  21.230  13.092
27750W        W94159  39.423  11.383  13.220
27751W        W94160  35.926  33.903  13.437
27752W        W94161  42.403  11.897   0.330
27753W        W94162  33.510  37.820   4.657
27754W        W94163  42.684   8.142  10.304
27755W        W94164  25.964   4.616  14.345
27756W        W94165  41.161  16.268   3.295
27757W        W94166  35.868  29.983   2.205
27758W        W94167  43.523  10.226   0.695
27759W        W94168  19.478  31.006   2.682
27760W        W94169  22.716  19.112   4.728
27761W        W94170   7.310  23.401  10.655
27762W        W94171  19.553  11.276   2.342
27763W        W94172  21.773  44.210   0.557
27764W        W94173  33.201  23.794  10.614
27765W        W94174  12.104  30.967  10.327
27766W        W94175  32.345  15.460   3.192
27767W        W94176  19.575  26.563  14.331
27768W        W94177  33.429   4.220   0.847
27769W        W94178  36.914  43.553  14.499
27770W        W94179  43.033  27.467  14.760
27771W        W94180   9.899  40.416   3.153
27772W        W94181  34.790  40.030   2.837
27773W        W94182  41.281  34.173   3.220
27774W        W94183  34.615  38.690  12.861
27775W        W94184  18.834  23.166  10.873
27776W        W94185   1.058  24.174  12.489
27777W        W94186  21.308   6.188   3.795
27778W        W94187   5.855  38.446   4.921
27779W        W94188  25.910   0.031   1.709
27780W        W94189  23.084  39.509  11.180
27781W        W94190  20.543  12.218  11.521
27782W        W94191  25.455   7.269  12.848
27783W        W94192  13.683  14.192   0.416
27784W        W94193  26.980   5.219   3.889
27785W        W94194   3.029   0.986  13.512
27786W        W94195  22.760  12.593   3.530
27787W        W94196  11.318   6.242   3.590
27788W        W94197  35.648  29.167   0.961
27789W        W94198  25.880   0.475  13.874
27790W        W94199  37.894   6.954   4.195
27791W        W94200  30.357  25.662  11.780
27792W        W94201  32.999  37.810   4.195
27793W        W94202  11.691   3.907  10.458
27794W        W94203   0.882   2.535  10.671
27795W        W94204  19.112  34.746   0.008
27796W        W94205  34.686  30.641   3.402
27797W        W94206   6.248  31.741   4.659
27798W        W94207   4.251   7.112   1.405
27799W        W94208   6.165  36.997  10.539
27800W        W94209  24.667  41.052  11.137
27801W        W94210  37.811  12.871  13.004
27802W        W94211  15.708   5.332  11.461
27803W        W94212  22.524   4.269  12.202
27804W        W94213  40.431  43.568  11.927
27805W        W94214  19.546  23.592  11.148
27806W        W94215  37.801   4.328  11.148
27807W        W94216  38.804  33.562  10.679
27808W        W94217  25.170  36.836  10.862
27809W        W94218   7.711  37.887  10.439
27810W        W94219  25.577  32.256   0.866
27811W        W94220  36.485  33.781   4.038
27812W        W94221  42.916  36.776   0.912
27813W        W94222  15.646   7.677  12.507
27814W        W94223  12.130   5.012   4.992
27815W        W94224  24.118   3.358  14.280
27816W        W94225   7.535  24.671  11.977
27817W        W94226  27.422  29.366  13.488
27818W        W94227  37.741  26.402  12.541
27819W        W94228  14.185  40.075   0.804
27820W        W94229   1.549  25.075   1.708
27821W        W94230  35.351  21.712  14.994
27822W        W94231  26.023  22.621  14.839
27823W        W94232  11.810  24.085  12.988
27824W        W94233  23.071  12.068  11.124
27825W        W94234  11.709  26.682  14.400
27826W        W94235   7.920  19.822  12.503
27827W        W94236   8.643   4.204   4.336
27828W        W94237  40.903  19.623  14.828
27829W        W94238  16.803   5.703   1.138
27830W        W94239   5.575   5.151   4.035
27831W        W94240   0.418  28.305  11.661
27832W        W94241  22.141  28.427  11.526
27833W        W94242   8.612   5.666   3.218
27834W        W94243   0.857  10.197   3.697
27835W        W94244  15.043  10.578   1.368
27836W        W94245  36.892  41.445   1.719
27837W        W94246  14.423  28.230   0.989
27838W        W94247   0.748  36.462   2.428
27839W        W94248  22.648   3.382  11.894
27840W        W94249  13.548  17.534  13.490
27841W        W94250  29.637  17.875  11.675
27842W        W94251  36.349  38.651  14.884
27843W        W94252  23.861  43.237  12.319
27844W        W94253  17.610  14.857   2.797
27845W        W94254  39.478  28.577  11.182
27846W        W94255  41.088  24.048   4.095
27847W        W94256   3.439  35.984  14.777
27848W        W94257  21.587   5.484  13.433
27849W        W94258  25.471  42.058  13.947
27850W        W94259  23.039  21.289   4.508
27851W        W94260  24.189   5.346  14.519
27852W        W94261  33.320   7.683   0.427
27853W        W94262  10.519  15.220   0.884
27854W        W94263   9.790  12.620  12.304
27855W        W94264  44.405  40.153  12.075
27856W        W94265  41.455  20.495  13.761
27857W        W94266  20.017  42.760  14.349
27858W        W94267  41.814  20.459  10.350
27859W        W94268  28.090  41.984   4.340
27860W        W94269  33.680  21.244  12.945
27861W        W94270   2.718   2.814   3.386
27862W        W94271  43.045  24.206  13.867
27863W        W94272  31.294  25.632  10.851
27864W        W94273   9.117   1.455  13.395
27865W        W94274  28.943  10.725   3.622
27866W        W94275  17.539  19.305  13.340
27867W        W94276  25.978  42.271   0.144
27868W        W94277  36.887  19.811  10.751
27869W        W94278  23.450  23.723  12.381
27870W        W94279  13.978   6.229  14.100
27871W        W94280  33.687  25.592   1.258
27872W        W94281   3.518  18.334   4.109
27873W        W94282   2.945  25.504  12.098
27874W        W94283  12.196  44.052   2.670
27875W        W94284  16.595  40.603   0.734
27876W        W94285  23.278   2.867   0.302
27877W        W94286   7.111  36.134   1.811
27878W        W94287  17.590  14.782  14.948
27879W        W94288   4.688  13.566   5.064
27880W        W94289  44.328  40.233  14.025
27881W        W94290   1.719  37.858  13.873
27882W        W94291   8.351   4.895  10.913
27883W        W94292   6.191  23.531   2.699
27884W        W94293  28.619  16.534  12.883
27885W        W94294  11.225   0.430   1.286
27886W        W94295  36.873   9.412  12.112
27887W        W94296   5.842  31.136   2.424
27888W        W94297  24.769  29.564  13.290
27889W        W94298  17.865  39.908  14.921
27890W        W94299  22.673  25.523  12.971
27891W        W94300   1.682  12.309  12.760
27892W        W94301   6.252  35.462  12.594
27893W        W94302   7.450  39.384  14.166
27894W        W94303  36.603  18.194  13.528
27895W        W94304  17.684  34.744  11.212
27896W        W94305  31.801  14.967  14.054
27897W        W94306   7.679  11.347  10.961
27898W        W94307  18.149   9.312  10.936
27899W        W94308  12.650  15.343  14.347
27900W        W94309  24.349  26.298  10.214
27901W        W94310  31.122  19.667  11.202
27902W        W94311  36.005  44.704   2.855
27903W        W94312  15.357  38.502   3.036
27904W        W94313  40.457  33.784  13.709
27905W        W94314  31.665  40.752   0.705
27906W        W94315  14.237  24.082  14.776
27907W        W94316  44.178   9.036   1.965
27908W        W94317   3.283   3.024   2.290
27909W        W94318  37.994  29.199   2.474
27910W        W94319  20.330  36.301  13.498
27911W        W94320   5.138   7.680  11.607
27912W        W94321  19.158  34.709  13.911
27913W        W94322  17.938  35.505   4.740
27914W        W94323  20.559  41.270   1.755
27915W        W94324  16.622  14.197  11.609
27916W        W94325   9.095  37.102  10.575
27917W        W94326  19.370  31.645  14.344
27918W        W94327   3.012  44.473  12.036
27919W        W94328  19.843  35.009   0.685
27920W        W94329  34.534   0.706  14.398
27921W        W94330  19.459  29.897  10.990
27922W        W94331   4.756   5.735  12.105
27923W        W94332   9.162   3.026   4.536
27924W        W94333   7.852  40.804  11.548
27925W        W94334  43.897   9.473  12.051
27926W        W94335  28.120   3.434  10.674
27927W        W94336  15.565  42.476   2.291
27928W        W94337  30.556  37.486   3.477
27929W        W94338  15.097  41.252  14.758
27930W        W94339  29.925  21.081  13.525
27931W        W94340  26.647  33.023  11.432
27932W        W94341  32.126   4.348   4.600
27933W        W94342   8.387  34.935   3.391
27934W        W94343   8.720  44.461  14.873
27935W        W94344  26.460   7.176  14.980
27936W        W94345  32.098  32.500  10.714
27937W        W94346  31.849   6.483   5.261
27938W        W94347  13.123  12.206   2.022
27939W        W94348  43.195  31.700   3.627
27940W        W94349  39.727  44.785   2.311
27941W        W94350  10.325  14.697  11.909
27942W        W94351  40.208  30.686   0.837
27943W        W94352  34.404  41.074  14.068
27944W        W94353  29.205  36.249  12.546
27945W        W94354  32.019   9.940  13.860
27946W        W94355  42.059   4.880  10.750
27947W        W94356  20.133  32.635   2.139
27948W        W94357   1.482   7.613   2.874
27949W        W94358  24.395   7.340  13.823
27950W        W94359   8.266  30.422  14.295
27951W        W94360   7.917  38.309   0.490
27952W        W94361   9.686   4.247  13.476
27953W        W94362  17.208  35.739   1.847
27954W        W94363   5.092  29.686   0.526
27955W        W94364  20.342   6.041  12.126
27956W        W94365  20.489  16.098  11.215
27957W        W94366  33.344   2.483  12.981
27958W        W94367  41.973  19.313  12.943
27959W        W94368  22.920  23.796   3.569
27960W        W94369  11.594  42.352   0.415
27961W        W94370  30.618  38.862  12.499
27962W        W94371  27.243   4.271   1.283
27963W        W94372  24.137  23.718   3.246
27964W        W94373   1.764  34.095   3.225
27965W        W94374  32.244  10.691   1.171
27966W        W94375  27.411  23.441   2.155
27967W        W94376  12.028  32.856  12.024
27968W        W94377  15.163  39.559  12.578
27969W        W94378   8.659   7.055  11.123
27970W        W94379   6.189  33.008   1.080
27971W        W94380   8.160   9.160   2.454
27972W        W94381   9.402  12.606  14.221
27973W        W94382  11.603   4.465   3.265
27974W        W94383  17.785  24.117  11.160
27975W        W94384   5.610  39.294   1.591
27976W        W94385  25.524  15.799   3.655
27977W        W94386  41.782  22.220   3.799
27978W        W94387  37.052  24.286   0.359
27979W        W94388  12.876  32.558   0.760
27980W        W94389  12.924  32.876   1.190
27981W        W94390  32.587  24.163  11.194
27982W        W94391  25.937  30.711  14.963
27983W        W94392  35.593   4.709  10.721
27984W        W94393  17.606  41.806  14.892
27985W        W94394   0.199  31.551  14.350
27986W        W94395  29.569  31.029   3.579
27987W        W94396  21.680  11.952   1.824
27988W        W94397  39.332   4.231   2.725
27989W        W94398  40.480  27.153  13.735
27990W        W94399  16.296  32.268  10.095
27991W        W94400  31.456   4.565  12.867
27992W        W94401  24.559  23.063  14.042
27993W        W94402  15.147  19.529   4.623
27994W        W94403  23.623  12.307   3.166
27995W        W94404  28.542  44.800  11.059
27996W        W94405  12.607  17.221  14.319
27997W        W94406  32.751  35.070  12.710
27998W        W94407  10.030  31.763   5.422
27999W        W94408  40.616  26.735   1.460
28000W        W94409  12.227  25.812   3.241
28001W        W94410   1.543  21.261  13.931
28002W        W94411  35.116  38.517   2.783
28003W        W94412   7.404  43.896   3.988
28004W        W94413  39.343   4.350   0.320
28005W        W94414   3.471  34.832  11.157
28006W        W94415   1.434  35.971  13.295
28007W        W94416   0.953  21.471   2.130
28008W        W94417   7.368  40.878  11.897
28009W        W94418  26.674  37.436  14.833
28010W        W94419  44.044  32.659   2.929
28011W        W94420  13.363   7.585   1.858
28012W        W94421  32.684  15.866   3.224
28013W        W94422   7.307  44.151  10.493
28014W        W94423  25.199  22.541  14.429
28015W        W94424   8.209  23.752  12.032
28016W        W94425  36.274  41.473  12.513
28017W        W94426   7.639  21.666   2.609
28018W        W94427  35.816  44.863  12.366
28019W        W94428   5.894  35.018   0.675
28020W        W94429  10.820   3.937   5.062
28021W        W94430  20.546   0.398   0.905
28022W        W94431  35.062  15.496  13.964
28023W        W94432  41.376  28.207   4.266
28024W        W94433  31.643  29.018  12.974
28025W        W94434  37.864   4.300  12.410
28026W        W94435  13.315   8.108   0.931
28027W        W94436  26.032  19.584  13.362
28028W        W94437  42.747  14.054   4.530
28029W        W94438  26.972  43.571  11.102
28030W        W94439  20.225  16.234  14.031
28031W        W94440  33.890  39.423   4.574
28032W        W94441   6.003   3.295  12.564
28033W        W94442  40.655  33.514  12.674
28034W        W94443   0.015   7.634   4.085
28035W        W94444  24.786  15.847   2.080
28036W        W94445  30.062  40.109   0.895
28037W        W94446  17.364  38.274   3.745
28038W        W94447  12.843  14.715  10.805
28039W        W94448  37.405  30.747   2.791
28040W        W94449  19.567  37.776   1.190
28041W        W94450   1.164  18.113   3.699
28042W        W94451  43.382  43.021   4.550
28043W        W94452  12.785  26.477   2.598
28044W        W94453  22.950  19.502   3.283
28045W        W94454  29.202  22.543  13.676
28046W        W94455  28.384   5.332   4.435
28047W        W94456  17.711  12.661  13.478
28048W        W94457  27.154   9.420  13.944
28049W        W94458  14.293  24.095  12.003
28050W        W94459  20.112  18.644  10.683
28051W        W94460   0.056  30.983  13.303
28052W        W94461   5.588  28.158   3.143
28053W        W94462  40.538  11.713  12.896
28054W        W94463   4.909   4.795   1.529
28055W        W94464  29.948   1.289  13.549
28056W        W94465  26.134  42.520   3.788
28057W        W94466  35.311  13.764  12.073
28058W        W94467  42.387  36.313   4.341
28059W        W94468   9.327  28.698  14.744
28060W        W94469  33.668  29.757   3.651
28061W        W94470  28.883  30.332   2.605
28062W        W94471  15.745  10.267  13.562
28063W        W94472  13.907   4.423   1.384
28064W        W94473  35.647  14.591   1.043
28065W        W94474  27.569  21.801   0.749
28066W        W94475  13.349  23.605   0.020
28067W        W94476  22.293  16.711   3.312
28068W        W94477  12.319  24.388   3.185
28069W        W94478   4.706  30.461  11.080
28070W        W94479  22.747   4.555  14.938
28071W        W94480   7.367  21.417  13.320
28072W        W94481  44.183  35.926  10.373
28073W        W94482  22.271  30.358  12.876
28074W        W94483  17.533  25.504  13.391
28075W        W94484  35.308  30.704  10.433
28076W        W94485  22.634   8.507  13.489
28077W        W94486  27.021   6.908  13.585
28078W        W94487  22.370   6.444  14.022
28079W        W94488  31.446  21.669   4.618
28080W        W94489  30.001  32.302   1.375
28081W        W94490   4.363  15.443   4.991
28082W        W94491  12.213  16.229   0.901
28083W        W94492   0.274   9.917  14.405
28084W        W94493   5.451   3.944   3.732
28085W        W94494  40.288   8.934  10.806
28086W        W94495  24.250  11.002   3.248
28087W        W94496   6.732  39.184   4.777
28088W        W94497   1.002  20.212  11.598
28089W        W94498  16.084  35.094  13.922
28090W        W94499   2.365  34.447   4.344
28091W        W94500  34.496  21.328  14.816
28092W        W94501  40.766  13.548  12.675
28093W        W94502  41.962  21.342   3.700
28094W        W94503  12.971  20.949  10.280
28095W        W94504   3.803  38.488  10.695
28096W        W94505  37.408  16.921  11.665
28097W        W94506  28.476  35.599   4.151
28098W        W94507  30.522  31.166   1.689
28099W        W94508  25.088  40.400   0.301
28100W        W94509   6.454  40.295   0.287
28101W        W94510  40.541  39.361  11.039
28102W        W94511  34.262  29.673   0.885
28103W        W94512  28.497   5.609   4.865
28104W        W94513  29.861  30.446  10.693
28105W        W94514  42.185   8.182   0.623
28106W        W94515  22.841  25.935  11.882
28107W        W94516  40.456  23.751  10.715
28108W        W94517  28.243   0.741   0.094
28109W        W94518  26.216  24.430  14.476
28110W        W94519  12.383  17.641  11.685
28111W        W94520  12.633  39.023   1.256
28112W        W94521  42.365  44.952  14.107
28113W        W94522   6.872  19.577  13.842
28114W        W94523  22.426  40.970  13.817
28115W        W94524  18.030   2.528   2.125
28116W        W94525   1.196   1.339   3.868
28117W        W94526  15.613  18.478  10.061
28118W        W94527  24.744   8.810   2.715
28119W        W94528  29.349  37.057   4.819
28120W        W94529  34.483  17.578  13.498
28121W        W94530  10.764  11.757  10.829
28122W        W94531  22.974  35.971   0.781
28123W        W94532  38.489  13.411  11.569
28124W        W94533  16.834  34.154   3.733
28125W        W94534  13.631   1.666   2.241
28126W        W94535   2.761  22.674   0.230
28127W        W94536  13.792  35.019   0.811
28128W        W94537  17.294  30.443   3.580
28129W        W94538  37.049  42.731  12.547
28130W        W94539  16.294  40.741   3.866
28131W        W94540  11.362  23.732   1.258
28132W        W94541  39.215  16.670   0.801
28133W        W94542  20.472  17.651   2.731
28134W        W94543  23.967  39.487   1.516
28135W        W94544  36.062  43.062  12.039
28136W        W94545   4.619   4.270   9.672
28137W        W94546  42.852  22.661   3.197
28138W        W94547  17.964  41.494  11.495
28139W        W94548  20.587  40.387   4.965
28140W        W94549  27.503  11.208  12.496
28141W        W94550  23.583  19.864  11.173
28142W        W94551  33.608   3.275  13.419
28143W        W94552  15.296  27.912  12.932
28144W        W94553  39.583  30.105  13.411
28145W        W94554  10.214  31.919   0.456
28146W        W94555   2.038  18.121  11.960
28147W        W94556  17.283   0.078  13.131
28148W        W94557  41.842  39.496   2.227
28149W        W94558  41.676  27.579   0.311
28150W        W94559  13.148  35.777   4.701
28151W        W94560  35.241   0.307   2.968
28152W        W94561  44.975  44.849  12.986
28153W        W94562  26.283  18.845  11.182
28154W        W94563   4.403  28.988   4.692
28155W        W94564   2.477  38.130  12.780
28156W        W94565  27.914  10.214   3.637
28157W        W94566  30.096  31.178   0.735
28158W        W94567  20.100  18.440   2.521
28159W        W94568  40.874  38.444   3.675
28160W        W94569  26.445  31.135   3.783
28161W        W94570  40.203   6.149  11.601
28162W        W94571  39.822  35.337  11.057
28163W        W94572  32.489  35.805   2.096
28164W        W94573  10.221  18.673   2.158
28165W        W94574  39.905  38.724   4.001
28166W        W94575  37.482   1.378   0.385
28167W        W94576  10.847  14.352   0.751
28168W        W94577  36.406   3.493  12.537
28169W        W94578   0.149  35.625   3.938
28170W        W94579   3.745   5.137  11.405
28171W        W94580  18.755  10.511   3.284
28172W        W94581  22.948  31.008  14.279
28173W        W94582  23.172  27.240   3.816
28174W        W94583  43.870   4.828  11.895
28175W        W94584  34.382  29.989  12.763
28176W        W94585  30.547  11.264   3.268
28177W        W94586  43.962  16.698   0.928
28178W        W94587  26.693  41.860   1.894
28179W        W94588   5.865  18.853  12.256
28180W        W94589  11.842  20.462  10.642
28181W        W94590  41.810  14.186   1.195
28182W        W94591  22.347  31.741  11.511
28183W        W94592   5.537  15.706  14.319
28184W        W94593  39.289  40.282   3.341
28185W        W94594  24.365  42.997   0.109
28186W        W94595  33.541  11.402  14.776
28187W        W94596  16.408  31.668   4.637
28188W        W94597   3.771  32.516   0.393
28189W        W94598   5.251  22.154   0.891
28190W        W94599  36.916   5.332  13.633
28191W        W94600  33.875  15.280   1.753
28192W        W94601  36.479  19.048   1.315
28193W        W94602  42.896  21.457  14.332
28194W        W94603  32.370  19.268   0.353
28195W        W94604  24.928  18.851   4.518
28196W        W94605  39.667   6.214   2.758
28197W        W94606  19.306  36.032  14.350
28198W        W94607  18.354  16.492   0.893
28199W        W94608  24.326   5.842   3.368
28200W        W94609  33.780  30.162  14.059
28201W        W94610   7.188  26.109   3.266
28202W        W94611  22.379  34.236  10.291
28203W        W94612  32.790  24.066   4.411
28204W        W94613  21.068  34.022  14.523
28205W        W94614   6.400   0.444  12.143
28206W        W94615  37.475  36.084  11.015
28207W        W94616  14.541   0.257   1.049
28208W        W94617  24.253  26.354   1.709
28209W        W94618  21.627  25.490   2.291
28210W        W94619  38.664  15.821   3.535
28211W        W94620   7.973  29.309  11.564
28212W        W94621  28.010  38.078  13.880
28213W        W94622  26.054  36.689  14.547
28214W        W94623  24.621  44.002  14.544
28215W        W94624   3.657  17.847  12.168
28216W        W94625   8.626  13.870   4.052
28217W        W94626  41.002  43.934   3.879
28218W        W94627  42.839  38.617  10.355
28219W        W94628  40.463   0.777  13.072
28220W        W94629   2.341  27.388   2.476
28221W        W94630  43.097  19.543  14.767
28222W        W94631  27.063  27.963  14.332
28223W        W94632  38.880  12.181   4.095
28224W        W94633  32.773  40.836   2.900
28225W        W94634  23.318   7.907  13.068
28226W        W94635   6.523  24.547  12.018
28227W        W94636  44.082   5.858   2.669
28228W        W94637  34.946  16.574   1.450
28229W        W94638  40.075  25.345  12.027
28230W        W94639  32.439  38.902  12.765
28231W        W94640  42.547  26.522   5.003
28232W        W94641  41.439  12.200  12.155
28233W        W94642  15.349  37.823   0.384
28234W        W94643  41.086   8.557   5.146
28235W        W94644   9.057  19.758  10.327
28236W        W94645  37.933   2.769   4.608
28237W        W94646  19.340  31.946  10.693
28238W        W94647   1.718  44.965   0.332
28239W        W94648  23.999  23.008   2.871
28240W        W94649  17.718  30.888  11.635
28241W        W94650  22.011  28.992   2.393
28242W        W94651   5.412  41.096  11.173
28243W        W94652   9.286  26.962   3.251
28244W        W94653  28.992   0.354  14.950
28245W        W94654  37.349   7.316  11.572
28246W        W94655   1.262  27.777   3.475
28247W        W94656  44.862  34.125   0.897
28248W        W94657   6.181  35.619  13.104
28249W        W94658  36.806  17.271  14.740
28250W        W94659  43.457  42.985  14.058
28251W        W94660  17.776  32.969  10.650
28252W        W94661   6.826  30.319  12.126
28253W        W94662  32.197  31.549  14.802
28254W        W94663  18.247  13.084  14.897
28255W        W94664  41.605  40.970  13.822
28256W        W94665   1.903   4.167   3.067
28257W        W94666  24.149  31.592  11.640
28258W        W94667  34.318  33.869   2.893
28259W        W94668  20.803  31.006  11.542
28260W        W94669  42.899  27.748   1.741
28261W        W94670  11.062  24.962   1.813
28262W        W94671  32.544  35.830  13.856
28263W        W94672   8.938   1.479  14.746
28264W        W94673   9.944  41.977   3.878
28265W        W94674   6.711  41.225   2.688
28266W        W94675  20.969  27.685  13.961
28267W        W94676   2.672  38.981   2.231
28268W        W94677  12.148  31.605   3.334
28269W        W94678  44.960  13.662   0.373
28270W        W94679  29.411  28.786   1.245
28271W        W94680  20.283  10.270  13.981
28272W        W94681   4.430  10.385  13.562
28273W        W94682  24.809  35.435  13.322
28274W        W94683  18.792  18.238  12.875
28275W        W94684  30.551  28.665   1.958
28276W        W94685  30.174  31.361  11.933
28277W        W94686  24.551  35.041   1.986
28278W        W94687  24.954  25.420   3.994
28279W        W94688  31.395  13.386   3.433
28280W        W94689   8.577   3.626  12.570
28281W        W94690  12.392   1.725   2.743
28282W        W94691   5.319   6.279  10.581
28283W        W94692  37.459  14.739   0.026
28284W        W94693  25.251  32.892   0.850
28285W        W94694  18.049  14.047  12.940
28286W        W94695  11.972  43.630   3.314
28287W        W94696  29.476  25.418  14.302
28288W        W94697  31.167   6.940   4.611
28289W        W94698  12.902  35.625  11.336
28290W        W94699  24.160   2.817   3.781
28291W        W94700  21.565   3.171  13.974
28292W        W94701  42.572   2.379   1.155
28293W        W94702   6.690  24.226   3.094
28294W        W94703  11.115  39.277  11.194
28295W        W94704  43.924  33.385   2.260
28296W        W94705  12.915  36.965   2.802
28297W        W94706  30.614   4.492  13.308
28298W        W94707  35.076  31.606  14.996
28299W        W94708  34.401  32.988  10.888
28300W        W94709  36.948  36.905  14.468
28301W        W94710  21.693  11.148  14.879
28302W        W94711  40.993  24.807   2.620
28303W        W94712  13.859  25.131   3.580
28304W        W94713  28.204  41.294  13.371
28305W        W94714   8.159  28.546  10.599
28306W        W94715  22.072  14.089   4.642
28307W        W94716  26.974   2.758   3.895
28308W        W94717   0.497  40.873  12.835
28309W        W94718  26.734  34.439  11.971
28310W        W94719  37.702  17.318   1.469
28311W        W94720  32.995   1.458  11.541
28312W        W94721  24.689  11.583   9.938
28313W        W94722  28.502  11.270  13.090
28314W        W94723   0.620  44.251  13.641
28315W        W94724  39.371  21.452  12.840
28316W        W94725  18.028  13.547   3.786
28317W        W94726   6.917  36.899   4.466
28318W        W94727  32.464  24.584  12.665
28319W        W94728  31.815  14.622  14.741
28320W        W94729  16.563  35.405  11.513
28321W        W94730  40.573  13.108   4.051
28322W        W94731  42.794  41.089  12.166
28323W        W94732  44.413   0.861  14.324
28324W        W94733  11.830  35.899   4.541
28325W        W94734   1.939  20.503  12.874
28326W        W94735  41.552   7.468  11.693
28327W        W94736  22.275  31.231   3.602
28328W        W94737  12.509   3.758  13.822
28329W        W94738  18.264  36.601  10.190
28330W        W94739   8.144  26.668  14.931
28331W        W94740  44.023   1.208  12.565
28332W        W94741  21.196  33.566  13.771
28333W        W94742   1.696   5.487  14.554
28334W        W94743  11.852  30.417   0.241
28335W        W94744  44.710   1.474   2.339
28336W        W94745  37.939  12.697   0.703
28337W        W94746  16.294  10.251   1.414
28338W        W94747   7.316  39.330  13.678
28339W        W94748  40.251  26.706  13.830
28340W        W94749  15.128  13.706   2.455
28341W        W94750   6.538  22.573  11.183
28342W        W94751  44.913  27.968   4.253
28343W        W94752   4.219  27.079  14.745
28344W        W94753  38.379  10.687   3.900
28345W        W94754  21.631   9.508   1.816
28346W        W94755  43.863  26.533  11.821
28347W        W94756   2.292  18.720   3.682
28348W        W94757  40.409  37.799  11.126
28349W        W94758  36.846  14.760   4.583
28350W        W94759   4.764  39.294   4.612
28351W        W94760  29.769  20.019   0.474
28352W        W94761  18.151  41.472   3.041
28353W        W94762  25.496  41.512   1.325
28354W        W94763   2.967  39.438  13.993
28355W        W94764  32.968  24.785  10.533
28356W        W94765  18.280  21.562  13.928
28357W        W94766  28.087  37.936  11.191
28358W        W94767   5.954  41.609  12.913
28359W        W94768   0.096  14.051   3.692
28360W        W94769  37.455  26.917   0.829
28361W        W94770  23.061  17.209  13.367
28362W        W94771   3.187  26.592   1.856
28363W        W94772  17.046  19.137  11.184
28364W        W94773  28.621  26.474   1.836
28365W        W94774  18.235   2.787   4.888
28366W        W94775  39.689  36.867   0.962
28367W        W94776  36.912  43.757   4.181
28368W        W94777  32.320  38.330  14.490
28369W        W94778  12.375  12.830   2.228
28370W        W94779  14.015  23.942   4.600
28371W        W94780  44.717  40.460   0.819
28372W        W94781  31.533   5.363  11.570
28373W        W94782  19.525  19.698  12.131
28374W        W94783   3.543  11.604  11.339
28375W        W94784   0.442   2.044   3.239
28376W        W94785   9.307  32.872   0.300
28377W        W94786  37.330   7.641  12.134
28378W        W94787  11.283  37.964  12.824
28379W        W94788   4.243  39.237   1.498
28380W        W94789  18.260  16.693  11.044
28381W        W94790  38.857  25.218   3.679
28382W        W94791  10.232  24.389   0.265
28383W        W94792  29.010  19.102  12.801
28384W        W94793  26.103   7.811  10.530
28385W        W94794  11.723  24.758  11.960
28386W        W94795  12.367   1.792   3.581
28387W        W94796  17.201   7.847   2.867
28388W        W94797  41.466  26.591   4.539
28389W        W94798  19.664   0.165  12.016
28390W        W94799  43.381  33.089  11.298
28391W        W94800  24.339  24.604   1.280
28392W        W94801  44.680  38.575   3.633
28393W        W94802  20.539  38.761   2.872
28394W        W94803  17.711  28.007   2.740
28395W        W94804   2.916  22.164   1.387
28396W        W94805   5.904  42.873   2.751
28397W        W94806   4.401  21.246  12.046
28398W        W94807   9.386  14.763  14.405
28399W        W94808  25.157  15.688  10.478
28400W        W94809  39.432  39.996   0.829
28401W        W94810  39.386  14.276   0.992
28402W        W94811  33.999   0.220  10.606
28403W        W94812  24.455  22.996   0.450
28404W        W94813  42.638  19.567   3.311
28405W        W94814   6.746   3.050   1.366
28406W        W94815  35.280  24.755   2.244
28407W        W94816  18.675  35.937   4.092
28408W        W94817  16.719  44.449   1.746
28409W        W94818   8.890  16.877  11.095
28410W        W94819   2.521   0.268   0.349
28411W        W94820  37.943  43.447   2.882
28412W        W94821   3.231   0.322   1.844
28413W        W94822   2.674   5.735   3.256
28414W        W94823  19.095  14.427   0.433
28415W        W94824  15.203  32.099  12.681
28416W        W94825  22.707  11.713   0.405
28417W        W94826   1.107   8.248   4.842
28418W        W94827  23.429  20.501   4.155
28419W        W94828  18.787  33.745   2.401
28420W        W94829  32.383  36.902  13.485
28421W        W94830  39.350  22.894  14.244
28422W        W94831  38.577  32.500  14.297
28423W        W94832   4.451  22.850  11.664
28424W        W94833  19.797  15.758  13.107
28425W        W94834  24.952  34.616  14.508
28426W        W94835   1.825  13.662   3.638
28427W        W94836  27.421  31.215   1.208
28428W        W94837  32.543  44.184   4.202
28429W        W94838  13.901  38.811  11.195
28430W        W94839  13.409  33.099   0.312
28431W        W94840  33.501  36.604  11.788
28432W        W94841  41.738  29.665   0.983
28433W        W94842   8.379  38.931   0.964
28434W        W94843   1.017   9.775  10.169
28435W        W94844  12.605  41.830   3.095
28436W        W94845  43.463  39.220   0.427
28437W        W94846  16.535   5.436   1.476
28438W        W94847  43.454  39.058  11.426
28439W        W94848  10.614  32.730  12.174
28440W        W94849  38.932  33.079   2.888
28441W        W94850  33.567  12.339   1.045
28442W        W94851  25.358   8.084  14.770
28443W        W94852  26.047  33.902   0.826
28444W        W94853  13.322  14.821   2.818
28445W        W94854  22.983   3.431  12.523
28446W        W94855  33.950   7.933   0.739
28447W        W94856   6.590  13.132  13.965
28448W        W94857   1.763  36.135   2.634
28449W        W94858   5.145   1.875  11.544
28450W        W94859  42.047  28.912  10.797
28451W        W94860  21.478  28.683  14.833
28452W        W94861  38.804  20.118  12.100
28453W        W94862  30.632  24.937   0.163
28454W        W94863  26.116  33.385  14.953
28455W        W94864  13.541   7.695  11.395
28456W        W94865  34.628  39.374   3.290
28457W        W94866   2.516  28.932   3.675
28458W        W94867  36.708   6.635  13.473
28459W        W94868  40.967   9.211   1.595
28460W        W94869   8.410  11.729  10.948
28461W        W94870  10.671  36.072   3.811
28462W        W94871  41.401  29.533  14.270
28463W        W94872   4.534  10.119   2.289
28464W        W94873   9.688   2.960  13.065
28465W        W94874  32.975  25.243   1.212
28466W        W94875  18.680  38.829   1.495
28467W        W94876   9.844  17.592   1.895
28468W        W94877   5.285  32.936   3.594
28469W        W94878  41.445   2.192   1.902
28470W        W94879   7.069  24.864   4.065
28471W        W94880  25.440   2.300   0.791
28472W        W94881   3.771  31.749  14.989
28473W        W94882   5.265  33.564   4.590
28474W        W94883  15.235  16.795  14.329
28475W        W94884  24.654  31.563   4.177
28476W        W94885  42.291  43.450   4.414
28477W        W94886  42.886  17.571  10.694
28478W        W94887  37.135   1.244   3.768
28479W        W94888  21.579  27.144  14.818
28480W        W94889  40.424  33.474  11.210
28481W        W94890  23.998  28.195  10.749
28482W        W94891  39.509  18.542  12.631
28483W        W94892  11.640  28.788  10.553
28484W        W94893  14.003  40.496   3.826
28485W        W94894   5.294  28.096  12.998
28486W        W94895  18.664  10.468  13.185
28487W        W94896   1.995   5.434   2.398
28488W        W94897  20.274  19.103   3.778
28489W        W94898  19.594  12.723   4.338
28490W        W94899  31.349   1.998  13.023
28491W        W94900  38.903  23.127   1.385
28492W        W94901   9.893  36.986  10.186
28493W        W94902  24.718  26.593   0.418
28494W        W94903  28.108  19.017  11.978
28495W        W94904   2.382  10.769   0.817
28496W        W94905  22.810  41.487   1.735
28497W        W94906  17.560  20.213  14.510
28498W        W94907  44.290  43.353   4.540
28499W        W94908  11.772  19.578   4.855
28500W        W94909  14.048   2.849   0.781
28501W        W94910  29.197   4.117  14.787
28502W        W94911  26.125  40.632  10.927
28503W        W94912   3.949  44.263   1.448
28504W        W94913  36.633  34.613  11.054
28505W        W94914  43.562  33.409  14.419
28506W        W94915  33.872  24.521  14.941
28507W        W94916   8.956  15.123  13.640
28508W        W94917  39.397  10.899   2.592
28509W        W94918  30.923  40.007   0.844
28510W        W94919  13.993  22.291   4.943
28511W        W94920  44.189   4.888   4.969
28512W        W94921   7.326  27.271   4.931
28513W        W94922   2.439   9.059  12.880
28514W        W94923  10.420   3.297   1.379
28515W        W94924   4.160  21.876   2.569
28516W        W94925   4.287   5.477  10.600
28517W        W94926  11.849  41.743  11.936
28518W        W94927  16.651   8.158   3.659
28519W        W94928   3.258  35.076  11.571
28520W        W94929  44.890  18.805   4.570
28521W        W94930  27.098  12.526  10.453
28522W        W94931   7.891  41.553   0.295
28523W        W94932  15.758  32.755   1.258
28524W        W94933  11.888  28.734  13.390
28525W        W94934  17.839  41.391   4.079
28526W        W94935  15.003   0.423   1.763
28527W        W94936  21.084  38.127  11.160
28528W        W94937  39.085  41.960   0.876
28529W        W94938  28.760   6.773   3.122
28530W        W94939  28.225  35.675   3.709
28531W        W94940  30.508   5.675   1.847
28532W        W94941  25.225  39.123   2.270
28533W        W94942  11.199  30.518  14.628
28534W        W94943  28.841  22.015   0.356
28535W        W94944   6.646  19.594  10.647
28536W        W94945  19.547   5.484   0.793
28537W        W94946  11.298  22.297  11.595
28538W        W94947  17.217  24.647   0.753
28539W        W94948  34.390   7.301  11.399
28540W        W94949  41.031   6.890   2.757
28541W        W94950  19.557   4.494   2.867
28542W        W94951  15.682  20.223   1.405
28543W        W94952   7.944  39.954   3.311
28544W        W94953  26.531  18.287  12.062
28545W        W94954  11.258  12.183  12.918
28546W        W94955  22.668  14.795   2.695
28547W        W94956  34.355  44.354  11.976
28548W        W94957   2.644  12.153  10.624
28549W        W94958  39.473  10.531  11.547
28550W        W94959   1.072  41.105   3.548
28551W        W94960  44.871  17.622   0.866
28552W        W94961   0.917  37.774  12.048
28553W        W94962  20.644  21.169   1.909
28554W        W94963  10.302  12.725  11.469
28555W        W94964  14.188  26.339   0.947
28556W        W94965   2.674  21.487  10.656
28557W        W94966  28.918  40.729  13.145
28558W        W94967  18.551  23.513  12.109
28559W        W94968   2.977  16.229  11.058
28560W        W94969  38.063  23.262  12.944
28561W        W94970  25.400  11.821   3.594
28562W        W94971  28.582  27.686   3.319
28563W        W94972  33.335   9.110  13.390
28564W        W94973  17.267  25.598   0.473
28565W        W94974  33.108  18.083   0.243
28566W        W94975  36.335  29.403   1.636
28567W        W94976  20.007  43.931   2.720
28568W        W94977  34.221  13.709  12.637
28569W        W94978  19.040  42.993   4.335
28570W        W94979  23.138  29.555  14.969
28571W        W94980  31.527  30.194  11.687
28572W        W94981   2.981   7.295   1.787
28573W        W94982  29.119   8.310  13.293
28574W        W94983  34.162   1.829  10.312
28575W        W94984  11.392  19.957  12.844
28576W        W94985  43.061   4.702  10.590
28577W        W94986  18.494  44.210   2.223
28578W        W94987  41.256  13.703  12.075
28579W        W94988  35.888  39.896   0.876
28580W        W94989   5.848  18.547   2.753
28581W        W94990   4.731   9.120  11.606
28582W        W94991  15.867  32.116   3.664
28583W        W94992  37.022  20.494   2.301
28584W        W94993  29.503  35.580  14.293
28585W        W94994  25.634  16.815  14.900
28586W        W94995  39.613  39.146  14.249
28587W        W94996  19.606  42.386  12.911
28588W        W94997   5.944  33.103  13.224
28589W        W94998  36.941  13.224  10.482
28590W        W94999   4.888  16.700  12.655
28591W        W95000  25.163   0.641  13.311
28592W        W95001   1.964  30.713   4.241
28593W        W95002  40.365   5.353  10.744
28594W        W95003  20.666  39.395   3.145
28595W        W95004  36.980  26.562  14.067
28596W        W95005  42.766  35.892  14.787
28597W        W95006  33.471  19.014  12.479
28598W        W95007   0.708  23.579  13.983
28599W        W95008   4.409  29.372  11.208
28600W        W95009  13.101  19.529  11.563
28601W        W95010   9.247  16.624   0.216
28602W        W95011   5.428  38.331  11.921
28603W        W95012   4.395  34.025  13.855
28604W        W95013  26.165  14.424   3.309
28605W        W95014  15.122   0.500   3.342
28606W        W95015  19.120   3.332   4.312
28607W        W95016  38.001   4.569   4.384
28608W        W95017  43.342  14.491  11.079
28609W        W95018   2.805  16.302  13.480
28610W        W95019  11.709  44.273   2.733
28611W        W95020  11.163  15.792   3.632
28612W        W95021   6.691  25.879   1.334
28613W        W95022   7.148  28.481  12.014
28614W        W95023  36.261  26.003  12.932
28615W        W95024   4.838  17.182  12.495
28616W        W95025  15.578  31.626   2.770
28617W        W95026   4.306   6.461  13.006
28618W        W95027  40.306  34.087  13.323
28619W        W95028  26.937   8.762   2.342
28620W        W95029  22.889  23.302   1.668
28621W        W95030  20.715  18.540   3.140
28622W        W95031  11.736  11.084  14.973
28623W        W95032  27.804   5.001  11.784
28624W        W95033   0.235  22.724   0.255
28625W        W95034  29.968   8.134   2.603
28626W        W95035   7.622   7.681   4.391
28627W        W95036   2.317  22.925   3.651
28628W        W95037  27.518  28.428   3.771
28629W        W95038  32.047  28.904  10.848
28630W        W95039   5.805  38.542   1.140
28631W        W95040  34.060  27.532   1.686
28632W        W95041  43.547  28.646  12.617
28633W        W95042  33.163  40.383  10.743
28634W        W95043  32.305  39.128  14.921
28635W        W95044  13.065  21.400  10.004
28636W        W95045  24.103   4.343  14.393
28637W        W95046  24.307  44.701  13.121
28638W        W95047   7.220  42.262   1.151
28639W        W95048  31.174  34.522  11.917
28640W        W95049  22.081  44.868  12.036
28641W        W95050  31.456   5.375  13.443
28642W        W95051  27.118  23.715   4.719
28643W        W95052  15.910  28.581  13.432
28644W        W95053  25.544  12.822  13.068
28645W        W95054  36.153  20.735  13.159
28646W        W95055  20.728  31.839  13.368
28647W        W95056  15.829  37.299  13.015
28648W        W95057   5.716  22.174   4.669
28649W        W95058   5.780   0.804   1.398
28650W        W95059  34.016  43.932  12.004
28651W        W95060  15.077  23.546   1.769
28652W        W95061  32.629  28.002  12.383
28653W        W95062   5.191  21.979  14.745
28654W        W95063  38.504   8.380  11.077
28655W        W95064  34.391  19.669  13.238
28656W        W95065  21.102  18.381  13.162
28657W        W95066  40.483  33.029   0.968
28658W        W95067  39.127  30.467  12.800
28659W        W95068   3.708  35.911  10.762
28660W        W95069  32.283  14.451   5.010
28661W        W95070  43.191  22.564  12.144
28662W        W95071   6.919  25.746  13.868
28663W        W95072  18.986  21.260   4.929
28664W        W95073  42.250  32.414  10.526
28665W        W95074  18.084  25.932  12.692
28666W        W95075  22.243  20.268  14.790
28667W        W95076  39.988  38.893  14.478
28668W        W95077  31.900  17.688  11.548
28669W        W95078  35.607  40.783  14.990
28670W        W95079  18.763  21.416  13.948
28671W        W95080  29.763  17.112   4.157
28672W        W95081  22.774  41.258   4.235
28673W        W95082  29.940  26.987   1.313
28674W        W95083  34.579  24.765   1.196
28675W        W95084   9.927   1.667  11.556
28676W        W95085  12.150  27.208   2.377
28677W        W95086  33.792  15.596   4.861
28678W        W95087  34.105  41.367   4.652
28679W        W95088   4.022  39.549   2.389
28680W        W95089  28.143  38.856   2.680
28681W        W95090  19.687  21.202  13.139
28682W        W95091  36.947  25.493  14.912
28683W        W95092  29.415  10.827  14.469
28684W        W95093  13.095  36.944   0.941
28685W        W95094   7.942   8.151  12.510
28686W        W95095  33.071  40.572  13.500
28687W        W95096  18.209   5.971  12.464
28688W        W95097  44.025  36.045  10.856
28689W        W95098  19.569   4.267  12.424
28690W        W95099  41.285  41.607   3.782
28691W        W95100   5.778  24.115   2.125
28692W        W95101  27.476  27.714   2.918
28693W        W95102   7.080  42.467   2.832
28694W        W95103  10.068  32.881  12.780
28695W        W95104  23.969   0.721   3.190
28696W        W95105  24.529  30.975  10.680
28697W        W95106  12.691   4.240  14.944
28698W        W95107  23.714  34.950  11.543
28699W        W95108   9.913   8.215  12.019
28700W        W95109  26.158  37.827   2.844
28701W        W95110   4.957   4.988   1.999
28702W        W95111  14.950  38.973   4.274
28703W        W95112   1.028  10.670  12.015
28704W        W95113  44.083  22.120   3.987
28705W        W95114   9.293  12.317   4.465
28706W        W95115   0.754  17.172   0.848
28707W        W95116  10.156  37.994   4.570
28708W        W95117  28.984   7.404   2.096
28709W        W95118  17.701  31.097  10.705
28710W        W95119  24.560  42.285  14.778
28711W        W95120   9.782   2.782   0.349
28712W        W95121  23.062  41.977   2.544
28713W        W95122  22.718   0.690   4.673
28714W        W95123  21.667  38.479  12.404
28715W        W95124  11.163  36.966  12.616
28716W        W95125  17.724  15.765  11.622
28717W        W95126  12.786   4.747  14.857
28718W        W95127  21.607   5.166  11.666
28719W        W95128  20.268  37.450  12.980
28720W        W95129  44.664  37.762  11.945
28721W        W95130  29.635  36.882   0.882
28722W        W95131  43.370   3.421   4.557
28723W        W95132   9.822  24.541  11.580
28724W        W95133  10.231   9.441   4.800
28725W        W95134  14.355  28.530  12.070
28726W        W95135   3.500  23.319   1.759
28727W        W95136   7.353   7.279  13.371
28728W        W95137  11.827  37.572   3.625
28729W        W95138  36.438  28.886   2.882
28730W        W95139   6.250  38.085  11.871
28731W        W95140   3.243  23.461   3.518
28732W        W95141  26.046   1.755  12.519
28733W        W95142   2.194  12.418  10.376
28734W        W95143  17.779   0.239  13.083
28735W        W95144  19.319  31.420  12.531
28736W        W95145  16.735  14.139  13.867
28737W        W95146   5.221  41.742   2.263
28738W        W95147  18.202  11.819   0.889
28739W        W95148  29.874  35.504   0.055
28740W        W95149  29.679   9.180   3.529
28741W        W95150  23.172  16.360   1.217
28742W        W95151  21.341   6.121  11.199
28743W        W95152  23.862  24.544   0.447
28744W        W95153  19.296  13.224  10.773
28745W        W95154  25.911  31.292   3.692
28746W        W95155  38.922  30.170   2.206
28747W        W95156  31.449  39.956   1.870
28748W        W95157  22.751  43.927  12.815
28749W        W95158   0.736  35.090   1.908
28750W        W95159  18.960  40.950  14.305
28751W        W95160  38.343  14.282  10.633
28752W        W95161  18.464  35.127   4.098
28753W        W95162  39.985  39.201   0.384
28754W        W95163   7.244  22.007  11.112
28755W        W95164  22.058  27.899  10.690
28756W        W95165   1.378  21.931  12.474
28757W        W95166  43.323  31.404   0.243
28758W        W95167  18.986  36.869   1.412
28759W        W95168  38.602   7.200  14.448
28760W        W95169  27.830  26.131   4.010
28761W        W95170  11.945  12.138  14.020
28762W        W95171  43.019  44.094  12.005
28763W        W95172  27.220  30.071  14.972
28764W        W95173  44.321   2.319  10.521
28765W        W95174  15.522  19.761  13.917
28766W        W95175  21.944  18.581   2.371
28767W        W95176  26.442  31.105  11.564
28768W        W95177  12.858  33.524   1.791
28769W        W95178  33.137  16.748   1.389
28770W        W95179  34.887  36.560   1.013
28771W        W95180  17.781  34.402  11.606
28772W        W95181  16.765  26.754   4.172
28773W        W95182  38.502   5.013   3.196
28774W        W95183  19.880  34.395   4.701
28775W        W95184  42.270  29.740   1.037
28776W        W95185  32.869   3.305   3.551
28777W        W95186  28.615   0.673   2.855
28778W        W95187  16.488  40.871  12.552
28779W        W95188  18.952  26.706  14.314
28780W        W95189  24.664  29.492  12.778
28781W        W95190  24.074  29.947  11.222
28782W        W95191  39.003  28.182   4.076
28783W        W95192   9.335  15.620  14.882
28784W        W95193   5.957  28.967   1.319
28785W        W95194   5.274   5.469   0.285
28786W        W95195  21.399   2.718   1.209
28787W        W95196  17.295  13.167   1.224
28788W        W95197  42.340  18.823   4.907
28789W        W95198  18.267   4.771  13.981
28790W        W95199  34.150   9.563  14.575
28791W        W95200  42.572  38.575  11.674
28792W        W95201  27.611  36.159   1.247
28793W        W95202   6.777  44.281   3.199
28794W        W95203  25.194  19.054  11.880
28795W        W95204  31.344  38.012  13.133
28796W        W95205  23.331   3.939  13.060
28797W        W95206  29.556   8.523  13.111
28798W        W95207  15.866  15.582   0.885
28799W        W95208  36.515   4.674  14.851
28800W        W95209  29.695  21.933  13.417
28801W        W95210  13.405  18.335  10.956
28802W        W95211  35.349  23.061  12.155
28803W        W95212  41.766  11.862  12.413
28804W        W95213  10.164   3.731  14.391
28805W        W95214  39.066  33.112   0.026
28806W        W95215  42.411   9.862  13.494
28807W        W95216  15.713   9.389   3.370
28808W        W95217  36.644  42.232   0.222
28809W        W95218  40.957   6.908   1.885
28810W        W95219  43.806  38.309   3.430
28811W        W95220  33.041   3.804   2.869
28812W        W95221  19.521  24.228   5.036
28813W        W95222  24.381  30.526   5.017
28814W        W95223  32.606  27.119  13.910
28815W        W95224   6.281  38.322  12.320
28816W        W95225  41.853  20.785   2.871
28817W        W95226  42.712  26.968   4.770
28818W        W95227   9.577  12.179  13.943
28819W        W95228  15.741  42.961  12.168
28820W        W95229  30.815  29.651   4.911
28821W        W95230  26.670  20.974   1.303
28822W        W95231  22.196  29.090  14.986
28823W        W95232   6.260  25.566   2.981
28824W        W95233   0.443  30.791   0.805
28825W        W95234  34.483  18.761   4.525
28826W        W95235  11.628  44.680  12.236
28827W        W95236  16.216  28.917   3.661
28828W        W95237   9.119   5.726   3.276
28829W        W95238  36.382  18.371  13.984
28830W        W95239   9.759   7.192  10.623
28831W        W95240  39.501   1.202  11.502
28832W        W95241  14.114  17.331  14.097
28833W        W95242  13.155   3.656   4.065
28834W        W95243   5.756   3.478   1.038
28835W        W95244   2.281  31.910  13.700
28836W        W95245  34.607  12.567   4.173
28837W        W95246   6.783  24.948   0.932
28838W        W95247  25.494  28.489   4.006
28839W        W95248  11.581   7.264   2.194
28840W        W95249  25.778  34.587  12.153
28841W        W95250   6.745  12.766   1.879
28842W        W95251  33.062  39.687   4.866
28843W        W95252  16.989  25.557   4.960
28844W        W95253   3.867   9.425  12.191
28845W        W95254  35.291  40.340  13.034
28846W        W95255  29.645  39.345  11.127
28847W        W95256  22.740   3.201   2.155
28848W        W95257  25.355   4.913  11.573
28849W        W95258  16.012  18.815  13.079
28850W        W95259  30.353  42.523  13.994
28851W        W95260  16.326  28.176  12.390
28852W        W95261  28.143   2.781   1.999
28853W        W95262  22.478  15.863   2.120
28854W        W95263  25.543  23.568   0.950
28855W        W95264  10.025  19.136   1.193
28856W        W95265   9.488  18.228   2.602
28857W        W95266  38.831  40.953  11.002
28858W        W95267  42.479  39.076   0.516
28859W        W95268  11.752   0.273  13.381
28860W        W95269   1.570  21.008   3.605
28861W        W95270  35.091  34.129  10.775
28862W        W95271   4.898  44.418  11.186
28863W        W95272  32.058   7.461   0.185
28864W        W95273  23.024  38.985   1.841
28865W        W95274   6.442   9.925  11.127
28866W        W95275   7.717  38.577  14.496
28867W        W95276  16.159  24.642   1.946
28868W        W95277   4.652  23.912  11.030
28869W        W95278  10.835   3.344   0.024
28870W        W95279  21.360  19.207  11.921
28871W        W95280  17.632  40.925  10.673
28872W        W95281  17.423  16.588   4.353
28873W        W95282   4.583  23.365  14.025
28874W        W95283  28.646   9.268  13.457
28875W        W95284   6.046  27.104   4.855
28876W        W95285   0.226  22.987  10.776
28877W        W95286  14.356  31.441   0.927
28878W        W95287  25.634  37.843  12.101
28879W        W95288   7.161  20.000  13.524
28880W        W95289  38.352   2.461  10.641
28881W        W95290  27.276  29.660  14.415
28882W        W95291  37.891  44.802   1.909
28883W        W95292  26.641  15.070  10.718
28884W        W95293  43.354  17.968   2.763
28885W        W95294  30.973  31.953  12.598
28886W        W95295  35.938  21.243   0.828
28887W        W95296  21.987  36.398  12.045
28888W        W95297   2.635   5.875  13.436
28889W        W95298  20.796  41.516   2.664
28890W        W95299  17.593  41.454   1.725
28891W        W95300   3.747  38.921   1.159
28892W        W95301  21.605  21.609   0.651
28893W        W95302  21.097   9.619   1.901
28894W        W95303  40.673  13.597  13.923
28895W        W95304  38.123  17.319  12.982
28896W        W95305  10.409  36.417   1.172
28897W        W95306  39.297  14.742   4.902
28898W        W95307  33.160   9.903  12.051
28899W        W95308  12.518  20.006   1.002
28900W        W95309  24.694  40.248  12.784
28901W        W95310  27.256  16.599  14.035
28902W        W95311  31.635  43.816   1.346
28903W        W95312  30.624   7.280  11.125
28904W        W95313  27.177   5.889   5.134
28905W        W95314  15.654  42.271   0.910
28906W        W95315   7.901  33.208   3.213
28907W        W95316  43.795  18.406  13.054
28908W        W95317  18.658  31.112  14.922
28909W        W95318  20.211  37.067  11.624
28910W        W95319   4.257  40.595  14.890
28911W        W95320  33.140   0.707  12.914
28912W        W95321  24.570  14.594  10.682
28913W        W95322  12.924  34.260  10.536
28914W        W95323  30.280  32.377   3.090
28915W        W95324  16.666  36.447   1.915
28916W        W95325   2.924  22.217   2.228
28917W        W95326  30.076   6.994  13.034
28918W        W95327  34.360  24.865  11.608
28919W        W95328  36.617   4.319  14.449
28920W        W95329  38.308  26.130   2.261
28921W        W95330  36.965  32.170  13.456
28922W        W95331  37.751  31.010   3.137
28923W        W95332  38.573  44.389   2.182
28924W        W95333  10.034   2.407   2.577
28925W        W95334  23.557  41.919  11.643
28926W        W95335  15.229  43.858   1.212
28927W        W95336  33.687  42.886  14.727
28928W        W95337  37.941  24.693  14.502
28929W        W95338  30.569  25.261   2.669
28930W        W95339  42.015  21.711  14.092
28931W        W95340   5.548  22.030   3.181
28932W        W95341  42.036  23.240  14.043
28933W        W95342   0.778  13.462   1.198
28934W        W95343  23.662  31.138   4.205
28935W        W95344   4.726  32.022  12.997
28936W        W95345  34.521  32.600  13.199
28937W        W95346  25.159  16.368   2.499
28938W        W95347  11.811  34.581  12.430
28939W        W95348  30.493  42.153   1.185
28940W        W95349   0.461  35.853  13.859
28941W        W95350  27.398  43.479   2.442
28942W        W95351  27.409   6.345   3.301
28943W        W95352  34.418  15.680   2.671
28944W        W95353  44.340  20.838   5.160
28945W        W95354  36.954  22.016   0.193
28946W        W95355  29.589  28.846  14.780
28947W        W95356   1.210  37.785  13.936
28948W        W95357  13.755   8.878   4.105
28949W        W95358  43.208  38.498  13.492
28950W        W95359   2.237  20.995   1.449
28951W        W95360   2.856  35.951   2.191
28952W        W95361   5.402  24.105   2.819
28953W        W95362   0.432  31.949   2.160
28954W        W95363  16.881  33.403  14.139
28955W        W95364   0.423  36.535   0.772
28956W        W95365  31.406   8.335  12.460
28957W        W95366   6.360  23.540   4.534
28958W        W95367  22.663   5.690   0.862
28959W        W95368  36.394  26.458  13.167
28960W        W95369   0.832   4.672   0.857
28961W        W95370  36.642  33.709  10.045
28962W        W95371  11.720  21.160   1.613
28963W        W95372  38.627  29.541   0.407
28964W        W95373   1.168  36.033  12.308
28965W        W95374  19.306  24.537  11.115
28966W        W95375  39.047  13.256   3.553
28967W        W95376   8.233  42.568   3.214
28968W        W95377  28.489  17.152  13.461
28969W        W95378  11.820   5.271   3.718
28970W        W95379  34.316  26.024  11.856
28971W        W95380  24.932   2.435  13.949
28972W        W95381  30.927  29.900  10.833
28973W        W95382  25.164  40.860   0.570
28974W        W95383  32.380   3.936   3.215
28975W        W95384  31.527  18.243   4.304
28976W        W95385  33.875  22.077   0.844
28977W        W95386  41.845   4.386   3.627
28978W        W95387  11.004   6.524  13.485
28979W        W95388   2.666  27.479  12.131
28980W        W95389  28.012  43.890  12.418
28981W        W95390  21.189  42.780  13.472
28982W        W95391  33.550   3.514   1.798
28983W        W95392  11.109  27.659   0.260
28984W        W95393   8.854  40.622   3.223
28985W        W95394  22.124  10.498  12.655
28986W        W95395   3.454   0.036  12.424
28987W        W95396   2.271  11.818  13.440
28988W        W95397  41.878  23.831  12.324
28989W        W95398  31.171   7.162   4.107
28990W        W95399   9.613  34.151   0.731
28991W        W95400  31.999  26.196   0.454
28992W        W95401   2.729   8.531   3.851
28993W        W95402  14.091  27.101   2.678
28994W        W95403  36.427  36.938  13.540
28995W        W95404  42.038  28.136   2.213
28996W        W95405  20.017  36.740  14.415
28997W        W95406  44.471  25.620   0.386
28998W        W95407   1.416  21.996   3.756
28999W        W95408  28.458  40.996   3.580
29000W        W95409   0.615   7.196  10.348
29001W        W95410  13.879  13.688   3.567
29002W        W95411  44.809  13.850  13.260
29003W        W95412  32.557  34.984  12.234
29004W        W95413  15.890  40.287   3.741
29005W        W95414   5.342   8.805   0.683
29006W        W95415   2.499   9.225  10.774
29007W        W95416  19.460  23.555   1.684
29008W        W95417  14.782   5.140  14.346
29009W        W95418   6.119  32.383   2.272
29010W        W95419   1.570  14.534   0.494
29011W        W95420  28.304   6.697  12.109
29012W        W95421  20.129   0.779  11.153
29013W        W95422  18.778  21.623  14.882
29014W        W95423  22.077  34.381  14.506
29015W        W95424  40.533  39.416   3.777
29016W        W95425  36.955  12.307  11.998
29017W        W95426  38.598   4.336  11.747
29018W        W95427  17.173  13.843  13.909
29019W        W95428  39.037  15.428   1.810
29020W        W95429  43.839   9.993  14.397
29021W        W95430  35.498   4.971  14.514
29022W        W95431   9.726  37.543   0.373
29023W        W95432  13.788  33.571   2.897
29024W        W95433  32.408  16.375  13.961
29025W        W95434   0.277  28.008   0.759
29026W        W95435  18.071   6.315   4.316
29027W        W95436  28.420  41.274  14.442
29028W        W95437  44.503  28.901   4.056
29029W        W95438   4.474  13.804  11.220
29030W        W95439  25.459  39.859  12.224
29031W        W95440  34.892  39.934  14.340
29032W        W95441   1.937  41.626  10.722
29033W        W95442   2.413  14.786   4.289
29034W        W95443  38.144  13.946  12.828
29035W        W95444  34.858   7.315   1.758
29036W        W95445  12.377  12.129  11.184
29037W        W95446  18.724  34.146   2.065
29038W        W95447   6.707  11.715  11.238
29039W        W95448  26.452  10.350   0.328
29040W        W95449  44.909   8.243   0.816
29041W        W95450  13.826   1.427   2.665
29042W        W95451  23.602  13.566  12.080
29043W        W95452  41.830  44.340   4.332
29044W        W95453  36.487   3.289   4.507
29045W        W95454  11.056  16.154   4.198
29046W        W95455  14.522  37.351  13.407
29047W        W95456  35.032   8.166  11.816
29048W        W95457  44.260  13.182  13.926
29049W        W95458  35.388  31.754   0.456
29050W        W95459  24.517  15.600   3.385
29051W        W95460  27.176   4.586   3.129
29052W        W95461  37.286   8.608   0.523
29053W        W95462  25.399  34.856   4.951
29054W        W95463  32.390  40.580  12.460
29055W        W95464   5.426  31.944  13.256
29056W        W95465  31.028  23.906  12.917
29057W        W95466  10.874  24.459   1.836
29058W        W95467  21.249   0.901  13.148
29059W        W95468  38.916   0.250  12.083
29060W        W95469   3.285  14.952  14.603
29061W        W95470  28.671  41.071  13.437
29062W        W95471  38.871  39.101   0.852
29063W        W95472  33.861  13.588   2.942
29064W        W95473  31.710  39.575  12.362
29065W        W95474  43.951  33.498  11.066
29066W        W95475  35.902  16.436   4.741
29067W        W95476  35.961  22.300   4.511
29068W        W95477  42.069  42.228  13.118
29069W        W95478  17.176  25.998   0.842
29070W        W95479  24.764  44.890  13.292
29071W        W95480   8.100  17.760   3.120
29072W        W95481  27.150  21.744  13.935
29073W        W95482  41.753   4.444  13.354
29074W        W95483   4.052   5.723  13.871
29075W        W95484   4.419  42.741  12.067
29076W        W95485  25.465  26.635   4.525
29077W        W95486  10.910  15.221  11.240
29078W        W95487  32.090  34.067  11.592
29079W        W95488  26.131  13.252   2.666
29080W        W95489   7.716  12.389   0.397
29081W        W95490  27.561  21.045   1.360
29082W        W95491  40.576  26.110   1.460
29083W        W95492   5.395  17.600   2.646
29084W        W95493   2.260  28.614  13.903
29085W        W95494  30.108  43.514  14.545
29086W        W95495  35.525   5.193  13.964
29087W        W95496   8.389  42.156  13.300
29088W        W95497  18.310  29.221   3.697
29089W        W95498  43.022  39.321  10.273
29090W        W95499  29.468   0.479   1.254
29091W        W95500   4.866  38.932  13.090
29092W        W95501  41.784  43.387   1.463
29093W        W95502   0.461  16.244   1.950
29094W        W95503  28.347   5.750  13.683
29095W        W95504  28.867  11.889   3.656
29096W        W95505  33.580  34.983   4.633
29097W        W95506   7.440  13.495  12.546
29098W        W95507  40.557  37.697   2.293
29099W        W95508  34.139  40.669   2.691
29100W        W95509  24.926  12.695  13.107
29101W        W95510   2.607  12.591  12.505
29102W        W95511  15.077   7.304   3.210
29103W        W95512  24.449  26.189  14.215
29104W        W95513   4.294   9.606  13.074
29105W        W95514  12.787  27.142  12.077
29106W        W95515  10.168   0.726   1.803
29107W        W95516  29.996  12.546  12.137
29108W        W95517  16.837  21.822  13.083
29109W        W95518  17.748  43.474  13.419
29110W        W95519  31.399  41.802   1.861
29111W        W95520  28.108  33.434  14.180
29112W        W95521  18.229  33.509   4.570
29113W        W95522   0.811  40.195   5.079
29114W        W95523  30.996  15.898  13.414
29115W        W95524   9.888  40.381   2.634
29116W        W95525  37.148  11.264  11.953
29117W        W95526  24.073  19.279   1.977
29118W        W95527  35.485  35.570   3.570
29119W        W95528  28.120  25.040   2.236
29120W        W95529  10.200   0.185  13.384
29121W        W95530  24.526  19.138  10.782
29122W        W95531   3.858  37.777   2.785
29123W        W95532  13.593   5.427  11.144
29124W        W95533  25.344  44.905  11.503
29125W        W95534  21.608  21.729   2.622
29126W        W95535  11.713  40.018  12.929
29127W        W95536   4.951   1.495  14.996
29128W        W95537  42.205  38.851   0.889
29129W        W95538  42.633  15.798   0.357
29130W        W95539  38.077   7.243  12.063
29131W        W95540   1.311  30.178   0.789
29132W        W95541  30.928   1.917  11.462
29133W        W95542  26.181  25.480  11.169
29134W        W95543   5.725  36.083   2.494
29135W        W95544   2.975  44.840  12.453
29136W        W95545  26.212   5.348  13.978
29137W        W95546  19.070  27.534   4.352
29138W        W95547   2.043  23.188  14.343
29139W        W95548  41.265  42.276  14.330
29140W        W95549  16.336   5.205   3.819
29141W        W95550  32.845  40.574   0.335
29142W        W95551  14.289  27.107  11.129
29143W        W95552  16.144   8.337   3.824
29144W        W95553  37.800   8.713   0.341
29145W        W95554  33.523  21.086   0.708
29146W        W95555  44.299  33.121  12.572
29147W        W95556  38.548   4.831   3.664
29148W        W95557   6.752   1.005   3.454
29149W        W95558   5.422  40.379  10.665
29150W        W95559  42.521  34.521  11.108
29151W        W95560  43.911  16.492   3.448
29152W        W95561  14.833   7.673   2.833
29153W        W95562  18.753  14.484  13.361
29154W        W95563  11.792  19.033  11.499
29155W        W95564  11.700  26.044   0.207
29156W        W95565  35.742  31.373   0.555
29157W        W95566  35.661  10.457  11.550
29158W        W95567   2.488  30.500  13.071
29159W        W95568   2.882  19.694   3.667
29160W        W95569   4.803  22.988   2.297
29161W        W95570  39.891   2.174  12.066
29162W        W95571  13.779  27.245  14.502
29163W        W95572   6.379   5.770   2.834
29164W        W95573  38.413   3.622   4.144
29165W        W95574  30.864  10.290   4.633
29166W        W95575  30.513  31.054  14.227
29167W        W95576  41.867  12.955  10.750
29168W        W95577  32.880  28.229  11.210
29169W        W95578  38.054  29.617  11.580
29170W        W95579  11.482  10.175  14.199
29171W        W95580  20.348  32.041   3.784
29172W        W95581  40.503  26.718  13.363
29173W        W95582  18.909  36.902  10.766
29174W        W95583  14.280  38.480   1.735
29175W        W95584   9.139  17.588  13.292
29176W        W95585  23.909  10.329   1.195
29177W        W95586  35.939   8.566  11.114
29178W        W95587  33.418  38.883   2.895
29179W        W95588  32.896  36.910  14.380
29180W        W95589  40.039  42.982  11.423
29181W        W95590   6.829  14.107   3.508
29182W        W95591  30.680  37.717  12.053
29183W        W95592  16.003  16.240   3.648
29184W        W95593  11.586  13.380  10.696
29185W        W95594  43.683  18.109  10.796
29186W        W95595  12.312  23.821   4.028
29187W        W95596   3.025  40.857  13.933
29188W        W95597  16.349   5.131   1.827
29189W        W95598  10.219  21.568  13.542
29190W        W95599   9.977   8.413   2.715
29191W        W95600  37.591  21.812   2.270
29192W        W95601   5.462  36.034  12.504
29193W        W95602  39.601   8.364   0.032
29194W        W95603   9.435  19.283   2.932
29195W        W95604  23.584   6.283  10.552
29196W        W95605  34.007  17.519   3.940
29197W        W95606  42.764  18.001  11.657
29198W        W95607  16.548   1.841   3.224
29199W        W95608  25.962  11.531  14.916
29200W        W95609  10.483  43.752  11.613
29201W        W95610  35.407  12.565  10.593
29202W        W95611  21.572  29.736   0.912
29203W        W95612  14.101   2.813   2.615
29204W        W95613   3.685  42.092  11.256
29205W        W95614  37.781   9.818  13.914
29206W        W95615  28.121  14.760   0.323
29207W        W95616  44.553  43.314  13.776
29208W        W95617  14.240  10.035   4.127
29209W        W95618  38.779  12.883   0.481
29210W        W95619  39.659  15.836  14.891
29211W        W95620   8.841  23.146   3.392
29212W        W95621   4.626  43.812   1.935
29213W        W95622  38.073  40.861  12.096
29214W        W95623  41.969  34.447   0.725
29215W        W95624  12.881  27.580   4.640
29216W        W95625  16.204  29.937   1.287
29217W        W95626  25.550  44.328   2.129
29218W        W95627  43.271  37.202  12.907
29219W        W95628  30.584  27.475   3.203
29220W        W95629   8.458  29.183   3.784
29221W        W95630  20.655  37.325  14.162
29222W        W95631  11.346  37.376  12.136
29223W        W95632  26.217  21.684  14.875
29224W        W95633  35.429   7.851   3.773
29225W        W95634  17.789  31.485  14.422
29226W        W95635  41.816  18.000   0.300
29227W        W95636  12.733  14.440  12.158
29228W        W95637  32.257  37.976  14.866
29229W        W95638  26.630  13.808   4.501
29230W        W95639  38.740  20.833   1.097
29231W        W95640  25.229  16.161  12.578
29232W        W95641  14.074  30.379  12.579
29233W        W95642  27.944  11.299   2.687
29234W        W95643  42.693   5.855   3.174
29235W        W95644  16.663  18.045   1.278
29236W        W95645  18.646  36.197  11.770
29237W        W95646  43.684  39.012   0.886
29238W        W95647  27.852  33.408   3.740
29239W        W95648  32.007  28.625   3.115
29240W        W95649  29.718  16.089   2.384
29241W        W95650  37.789   5.195   1.914
29242W        W95651  42.865   8.575  14.882
29243W        W95652  35.118  17.207   3.187
29244W        W95653   7.362  36.482  14.356
29245W        W95654  18.721  35.030   4.551
29246W        W95655  17.516  17.559  12.519
29247W        W95656   7.115  24.155   2.827
29248W        W95657  35.911  41.473   1.940
29249W        W95658  42.220  18.089  10.247
29250W        W95659   1.417  17.102  14.072
29251W        W95660  33.912  21.247  12.488
29252W        W95661  26.027   5.899   2.803
29253W        W95662  41.378  43.163  13.468
29254W        W95663   7.615  18.584  11.206
29255W        W95664  31.048  17.836  13.405
29256W        W95665  12.623  27.733  14.443
29257W        W95666  24.455  39.285  12.485
29258W        W95667  28.191  11.680  11.515
29259W        W95668  11.866  26.897   2.755
29260W        W95669   0.196  24.684  14.509
29261W        W95670   0.552   5.403   4.903
29262W        W95671  13.192  37.808   1.053
29263W        W95672   2.348  17.840   1.746
29264W        W95673  16.986  38.465   1.353
29265W        W95674  27.448  16.439   1.897
29266W        W95675  14.856  10.158  13.835
29267W        W95676  11.653  28.515   3.637
29268W        W95677  16.673  16.094   1.399
29269W        W95678  17.866  13.638   1.316
29270W        W95679  37.559  30.429   4.317
29271W        W95680  43.995  26.740   2.348
29272W        W95681  20.009  13.329  14.814
29273W        W95682  33.232  34.447  13.929
29274W        W95683  27.230  41.766  14.535
29275W        W95684  24.098   2.785   0.808
29276W        W95685  25.194  40.255   4.321
29277W        W95686  44.218   5.975  11.613
29278W        W95687   0.763  14.493   2.665
29279W        W95688   0.929  37.067  13.748
29280W        W95689  41.843  43.354  12.342
29281W        W95690  23.008  30.505   2.340
29282W        W95691  13.110  40.770  14.010
29283W        W95692  19.652  41.870   0.536
29284W        W95693  29.719   2.080  12.305
29285W        W95694   1.815   4.228   3.591
29286W        W95695  33.994  13.171  13.376
29287W        W95696  26.544   8.615   2.835
29288W        W95697  19.224   9.853  14.484
29289W        W95698  30.646  19.537   1.280
29290W        W95699  37.463  17.451   2.771
29291W        W95700  42.252  33.286   3.200
29292W        W95701  10.594  44.952  13.053
29293W        W95702  11.681  31.879   4.074
29294W        W95703  27.903  38.338   0.537
29295W        W95704  42.793  20.118  11.896
29296W        W95705  31.837   9.643  11.516
29297W        W95706   3.763  10.796   0.833
29298W        W95707  19.134  40.741  12.129
29299W        W95708  26.014   5.388   0.309
29300W        W95709  19.548  10.921   3.801
29301W        W95710  11.556  41.595  11.548
29302W        W95711   4.332  32.469  14.329
29303W        W95712  20.018  10.437  11.560
29304W        W95713  22.107  18.649  14.369
29305W        W95714  33.929  26.260  13.389
29306W        W95715   0.760  35.397  14.367
29307W        W95716  29.538  29.576  12.631
29308W        W95717  29.921   0.743  13.480
29309W        W95718  24.638  14.173  11.965
29310W        W95719   6.118   3.513   2.342
29311W        W95720   6.919  10.053   3.743
29312W        W95721  22.278  11.750   5.010
29313W        W95722  44.223  36.353   4.585
29314W        W95723  37.251   2.728   1.157
29315W        W95724  44.218  36.855   4.672
29316W        W95725  37.780   2.989  11.024
29317W        W95726   7.136  25.516   2.979
29318W        W95727   2.759  41.528  12.566
29319W        W95728   0.256  11.189  11.146
29320W        W95729  10.436  16.531  13.379
29321W        W95730   0.325  32.748  13.853
29322W        W95731   2.289   2.933  11.587
29323W        W95732   3.456  40.586  13.084
29324W        W95733  24.591  19.061   3.659
29325W        W95734   5.187   3.133   2.448
29326W        W95735  12.835  33.374   1.257
29327W        W95736  27.671  12.946   4.546
29328W        W95737   1.526  18.650  14.838
29329W        W95738  33.854  26.991  10.677
29330W        W95739  40.307   0.240  13.934
29331W        W95740  40.824  20.553   4.089
29332W        W95741  40.405  19.764   0.947
29333W        W95742  17.102   2.548  12.999
29334W        W95743  32.424  30.016  13.509
29335W        W95744  27.544  32.131  12.915
29336W        W95745  22.517  15.630  13.339
29337W        W95746  37.890  20.897   1.345
29338W        W95747  38.309  39.351  12.092
29339W        W95748  44.365  22.031   2.649
29340W        W95749  11.707  14.774  14.877
29341W        W95750  24.325  41.414   9.665
29342W        W95751   2.477  34.885   4.082
29343W        W95752   1.662  35.602   4.211
29344W        W95753  40.947  17.394  12.066
29345W        W95754  24.754  38.201  13.115
29346W        W95755  20.554  39.932  11.967
29347W        W95756  41.089  10.836  13.428
29348W        W95757  26.260  36.471   2.592
29349W        W95758  29.155  30.459  13.506
29350W        W95759   2.994  19.867  11.497
29351W        W95760  33.224  23.645  12.420
29352W        W95761   9.026   2.326  11.182
29353W        W95762  39.384   9.262  12.984
29354W        W95763  25.500  27.544  11.654
29355W        W95764  38.855   8.326   0.896
29356W        W95765  34.929  37.380   3.212
29357W        W95766  31.538  25.212  12.089
29358W        W95767  33.663  26.675   0.326
29359W        W95768  17.133  23.550  13.024
29360W        W95769  21.653  27.422  14.376
29361W        W95770  22.308  13.745  10.984
29362W        W95771  11.749  22.177   4.101
29363W        W95772  14.088  19.767   0.793
29364W        W95773  18.483  18.171   2.597
29365W        W95774  22.824  17.616   4.535
29366W        W95775  30.354  23.096   0.448
29367W        W95776  17.827  39.820  12.505
29368W        W95777  33.990  38.742   2.943
29369W        W95778  35.062  43.426   2.879
29370W        W95779   7.187  34.057   1.949
29371W        W95780  38.815  22.510  11.177
29372W        W95781  24.082  24.425   4.051
29373W        W95782  18.338  15.218   0.214
29374W        W95783   7.187   7.931  10.601
29375W        W95784   8.086  34.811   4.214
29376W        W95785  19.162  16.638  11.934
29377W        W95786  17.756  35.030   2.355
29378W        W95787  32.709   7.449   4.070
29379W        W95788   4.331  13.872   4.542
29380W        W95789   6.194   4.782   3.110
29381W        W95790  31.574  30.065  14.060
29382W        W95791  23.005  22.759   0.384
29383W        W95792  34.467  28.952  14.338
29384W        W95793  44.240   1.676  14.740
29385W        W95794  29.387  31.680  11.264
29386W        W95795  38.043   7.491  12.550
29387W        W95796  34.794   7.691   2.995
29388W        W95797  21.392  36.646  14.292
29389W        W95798  42.788  25.444   1.199
29390W        W95799  31.805  12.190  11.661
29391W        W95800  14.812  17.882   4.156
29392W        W95801  30.097  20.782   0.106
29393W        W95802   8.964  32.693  14.418
29394W        W95803  42.275  35.373   3.641
29395W        W95804  36.533  21.218   1.492
29396W        W95805  44.987  12.617   1.392
29397W        W95806  34.622  29.535   3.644
29398W        W95807  35.497  25.686   0.971
29399W        W95808  44.494   4.858   4.542
29400W        W95809  11.773  23.951   1.503
29401W        W95810  31.017  42.700   1.284
29402W        W95811   0.233  22.113   1.957
29403W        W95812  31.922  42.993   2.883
29404W        W95813  13.748   5.142  14.912
29405W        W95814  42.878   8.809  13.980
29406W        W95815  42.999  20.381   0.372
29407W        W95816  10.992  36.486   3.815
29408W        W95817  20.842  16.628  13.860
29409W        W95818  21.719  22.082  14.604
29410W        W95819   7.371  12.728   2.180
29411W        W95820  39.103  38.054  14.995
29412W        W95821  18.677   3.395   3.648
29413W        W95822  15.472  36.826  11.175
29414W        W95823   1.833  44.346  11.609
29415W        W95824  21.536  12.672   4.229
29416W        W95825   8.592  19.780   4.109
29417W        W95826  41.433  15.169   0.491
29418W        W95827  29.234  20.182   1.358
29419W        W95828   6.854  21.510   1.724
29420W        W95829  40.411  32.731   3.711
29421W        W95830  41.129  32.911  14.821
29422W        W95831  19.767  12.743   4.846
29423W        W95832   2.473  38.400  11.207
29424W        W95833  30.122   9.940  11.756
29425W        W95834  19.530  15.199   2.673
29426W        W95835  31.001  30.954   2.630
29427W        W95836  20.270   8.243  12.943
29428W        W95837  25.555   6.142   3.657
29429W        W95838  44.348  23.533   4.563
29430W        W95839  39.718  27.940  12.302
29431W        W95840  38.305  20.126  12.204
29432W        W95841  36.455   1.172  12.933
29433W        W95842   7.357  26.954   4.523
29434W        W95843  18.817  21.479   1.381
29435W        W95844  37.534  32.978   2.076
29436W        W95845  14.071  24.027   2.794
29437W        W95846  16.141  12.622  12.795
29438W        W95847  39.342  20.695   4.117
29439W        W95848  24.562   4.740  13.224
29440W        W95849   7.765  31.363   3.651
29441W        W95850  40.541   9.148  12.545
29442W        W95851  31.015  44.370  10.332
29443W        W95852  18.410  23.671   5.051
29444W        W95853  14.939  36.569  14.280
29445W        W95854  26.189  21.938  13.077
29446W        W95855  28.707   2.211   2.728
29447W        W95856  24.453  11.004   2.770
29448W        W95857  18.100  27.213   2.331
29449W        W95858  11.359  19.895   4.571
29450W        W95859  30.730  33.577   2.221
29451W        W95860  12.066  32.648  13.372
29452W        W95861   7.187  28.894   3.391
29453W        W95862  21.772   4.730   0.365
29454W        W95863   3.078  11.367   0.873
29455W        W95864  21.027   8.420  13.557
29456W        W95865  12.932  35.073   9.812
29457W        W95866   9.799  22.331   0.790
29458W        W95867  11.177   1.703  12.664
29459W        W95868  23.853  21.505  13.112
29460W        W95869   2.427   5.432   3.763
29461W        W95870   2.946  25.188  12.503
29462W        W95871   8.638   4.882   4.975
29463W        W95872   5.139   0.898   4.686
29464W        W95873  34.918  43.918   1.691
29465W        W95874   0.504  42.941   3.323
29466W        W95875  39.625  14.787  14.087
29467W        W95876  21.454   7.058   1.096
29468W        W95877  28.401  22.196  10.239
29469W        W95878   2.691  26.054   0.022
29470W        W95879  43.277  37.156  11.326
29471W        W95880   0.686  38.493   1.712
29472W        W95881  39.553  43.395  14.096
29473W        W95882  16.242  30.237   2.630
29474W        W95883   3.434  29.007  13.571
29475W        W95884  13.880  17.082   3.765
29476W        W95885  35.959   9.211   4.108
29477W        W95886  20.701  14.364   2.183
29478W        W95887  25.905   0.459  14.961
29479W        W95888   5.651  22.711  12.410
29480W        W95889  43.666  23.009   3.279
29481W        W95890   3.369  10.420   3.049
29482W        W95891  19.891  34.422   1.868
29483W        W95892  43.766  40.210  11.660
29484W        W95893   1.443  16.186   0.203
29485W        W95894  29.450  33.898   1.392
29486W        W95895  14.061  44.442  14.897
29487W        W95896   0.427   1.288  11.641
29488W        W95897  28.035  25.540   2.383
29489W        W95898  43.298  31.005   2.139
29490W        W95899  39.858  22.394   3.631
29491W        W95900  10.449  31.326  11.088
29492W        W95901  24.260  16.157  10.498
29493W        W95902   3.822   6.561  12.459
29494W        W95903   0.453  42.146   0.822
29495W        W95904  11.842  24.434  10.583
29496W        W95905   5.832  35.944   1.008
29497W        W95906   0.423  17.985   3.388
29498W        W95907  34.429  42.498  12.427
29499W        W95908  27.151  39.580   2.259
29500W        W95909  35.535  37.287  11.966
29501W        W95910  29.113  10.733   1.768
29502W        W95911  39.880  15.058   3.266
29503W        W95912  32.098  41.548  13.781
29504W        W95913   8.729  38.049   2.288
29505W        W95914   6.612  18.097   2.414
29506W        W95915   3.364  37.801   0.948
29507W        W95916  38.138   8.629   3.164
29508W        W95917  22.580  41.911   2.776
29509W        W95918   8.213   5.832  11.967
29510W        W95919  21.640  16.044  11.073
29511W        W95920  29.228  15.479   3.171
29512W        W95921  33.649  30.500   3.103
29513W        W95922  18.561  15.830   1.992
29514W        W95923  42.425  18.335   5.083
29515W        W95924   6.269  13.799   3.680
29516W        W95925  19.825  13.739  14.521
29517W        W95926   2.654  39.831  13.944
29518W        W95927  44.936  44.521  10.648
29519W        W95928   1.017  33.116  13.379
29520W        W95929  18.097  43.350   2.193
29521W        W95930  13.494  23.819   3.127
29522W        W95931  24.744  39.996   1.504
29523W        W95932   5.904   4.812  14.891
29524W        W95933  15.568  44.433   2.947
29525W        W95934  37.113  18.269  13.517
29526W        W95935  32.967  18.729  14.508
29527W        W95936  35.491   1.540  10.227
29528W        W95937   5.076  22.967   3.697
29529W        W95938  40.372   0.315  12.869
29530W        W95939  30.460  32.368  13.648
29531W        W95940  19.617  29.362   4.368
29532W        W95941  42.393  31.381   0.310
29533W        W95942  39.311  33.135  13.757
29534W        W95943  34.064  44.188   1.397
29535W        W95944  37.093  42.476   3.777
29536W        W95945  27.719  31.251  10.436
29537W        W95946  44.778  37.120   3.809
29538W        W95947  33.394  38.177   0.431
29539W        W95948  20.482  29.646   4.357
29540W        W95949  31.436  16.485   4.419
29541W        W95950  13.938  17.711  13.755
29542W        W95951  40.578  14.770   2.699
29543W        W95952  37.565  18.467  10.278
29544W        W95953  23.696   1.406  13.523
29545W        W95954  44.757  44.826   2.664
29546W        W95955  26.992  33.463   0.420
29547W        W95956  18.104   1.884  13.619
29548W        W95957   2.287  20.124  14.350
29549W        W95958  19.047   5.428  10.435
29550W        W95959  33.135  28.749  13.367
29551W        W95960   4.978  29.089  10.990
29552W        W95961   1.516  41.434   2.728
29553W        W95962   2.601  19.505  11.549
29554W        W95963  43.902  25.012   3.960
29555W        W95964   3.987  18.600   1.277
29556W        W95965   4.885  11.783   4.136
29557W        W95966  10.396  11.681   9.951
29558W        W95967  10.066  42.733  11.786
29559W        W95968  12.332  19.492   1.425
29560W        W95969  42.389  16.674   2.339
29561W        W95970   0.959  40.251  11.142
29562W        W95971  24.032  10.680   1.990
29563W        W95972   6.015   2.486   2.339
29564W        W95973  20.956  34.510   4.828
29565W        W95974   6.500   8.731  10.740
29566W        W95975  31.049  24.663  12.442
29567W        W95976   5.662  14.333   4.080
29568W        W95977  44.361   8.274  14.219
29569W        W95978  41.861  15.245  10.444
29570W        W95979  26.881  10.190  13.573
29571W        W95980  16.297   0.423  14.763
29572W        W95981  41.774  21.210   1.792
29573W        W95982  22.539   8.690   3.640
29574W        W95983  39.370  44.991  11.117
29575W        W95984  36.588  38.879  11.561
29576W        W95985   8.464   2.642   0.330
29577W        W95986  33.147  41.862   4.044
29578W        W95987  27.797  43.941  13.891
29579W        W95988  30.307   2.522  13.983
29580W        W95989   0.200   5.101  11.707
29581W        W95990  36.027  37.262  11.247
29582W        W95991   1.915  37.287  12.019
29583W        W95992  11.074  17.738   0.411
29584W        W95993  38.519  26.478  14.522
29585W        W95994  41.235  20.369   3.610
29586W        W95995  20.127   4.465  12.048
29587W        W95996  18.308  23.100   1.937
29588W        W95997  15.088  40.448   2.016
29589W        W95998   9.162   4.716  13.879
29590W        W95999  26.347  41.084  12.543
29591W        W96000   1.445  37.882   0.850
29592W        W96001  30.625  42.470  14.432
29593W        W96002  43.426   0.894   2.393
29594W        W96003  40.568  34.102   1.794
29595W        W96004   0.971  36.082  13.541
29596W        W96005  27.916  13.826  13.602
29597W        W96006  40.465   5.216  13.625
29598W        W96007  17.575  13.314   0.313
29599W        W96008  39.230  13.147  11.060
29600W        W96009  39.566  37.497   0.456
29601W        W96010  13.576   9.445   1.710
29602W        W96011  21.741  41.582  12.896
29603W        W96012  17.986  18.037   3.538
29604W        W96013  25.386  39.020   0.176
29605W        W96014  30.954  38.527   4.655
29606W        W96015   5.384  31.898   0.603
29607W        W96016  19.297  38.516   3.563
29608W        W96017  42.527  41.969  13.046
29609W        W96018   1.265   6.041   2.825
29610W        W96019  38.818  21.284  13.432
29611W        W96020  11.410  33.568   2.654
29612W        W96021  18.262  11.083   0.110
29613W        W96022   4.407   3.681   0.804
29614W        W96023  19.122   6.436   4.366
29615W        W96024  32.556   2.132   2.896
29616W        W96025  26.664  17.720   1.534
29617W        W96026  24.432   6.771   1.486
29618W        W96027   5.392  27.495  13.741
29619W        W96028  20.338  39.931   4.541
29620W        W96029   5.137  22.686  12.271
29621W        W96030  21.884   8.947   2.621
29622W        W96031   2.755  13.156   4.427
29623W        W96032   6.354  22.067  14.060
29624W        W96033   0.734  15.416  13.316
29625W        W96034  22.330  11.528  10.720
29626W        W96035   4.447  40.372  11.920
29627W        W96036   7.043   8.948  11.576
29628W        W96037   3.398   3.192   2.920
29629W        W96038  43.899  41.734   2.320
29630W        W96039  42.183  28.540   3.277
29631W        W96040  34.030  29.631   3.283
29632W        W96041  10.715  38.777   4.342
29633W        W96042   5.164  41.477  14.271
29634W        W96043  26.647   7.732   0.785
29635W        W96044  31.017  36.830  13.436
29636W        W96045  34.318  21.676   2.288
29637W        W96046  18.606  31.448  10.689
29638W        W96047  16.808  18.767   0.022
29639W        W96048  23.491   9.851  14.988
29640W        W96049  14.656   2.478   3.192
29641W        W96050  27.887  11.088  10.248
29642W        W96051   7.887   4.302  12.376
29643W        W96052  41.529  44.360   3.504
29644W        W96053   1.804  44.771   1.874
29645W        W96054   7.800   1.428  14.902
29646W        W96055   4.509  22.649   5.765
29647W        W96056  31.777   6.449   4.634
29648W        W96057   7.652  34.031   2.132
29649W        W96058   0.460  30.630  14.420
29650W        W96059   1.844   5.549   1.882
29651W        W96060  21.066   2.684  12.474
29652W        W96061   2.633  34.138   0.920
29653W        W96062  18.517  28.282  12.777
29654W        W96063  41.406  24.955   3.456
29655W        W96064  34.423  10.167  12.884
29656W        W96065  33.592   7.876  11.660
29657W        W96066  42.590  27.405   2.996
29658W        W96067   8.660  15.056   0.963
29659W        W96068  34.988  21.033   1.021
29660W        W96069   0.105  29.589  14.415
29661W        W96070  30.100  44.966   1.344
29662W        W96071  27.965  26.465  13.807
29663W        W96072   2.460  25.039   0.025
29664W        W96073  20.161  21.543   0.722
29665W        W96074  42.431   0.833  13.487
29666W        W96075  22.775  36.987   3.190
29667W        W96076  28.372  11.854  10.058
29668W        W96077   6.417  42.748   4.582
29669W        W96078  28.001   6.288   1.683
29670W        W96079  21.028  36.884  10.500
29671W        W96080  43.380  24.232   1.762
29672W        W96081  17.268  20.230   1.510
29673W        W96082  41.584  22.525   1.486
29674W        W96083  29.808  10.165   3.382
29675W        W96084   3.729   1.727  13.577
29676W        W96085  11.716  16.505   0.042
29677W        W96086  30.182   0.279   1.950
29678W        W96087  18.476  36.127  11.264
29679W        W96088  24.914  30.486  12.989
29680W        W96089  22.258  14.321  11.040
29681W        W96090  28.060   4.617   0.809
29682W        W96091  36.233  17.569   2.664
29683W        W96092  21.330  15.792   2.606
29684W        W96093  33.427  43.962  12.963
29685W        W96094  30.562  44.509   0.373
29686W        W96095  30.590  20.154   0.799
29687W        W96096  36.472  16.007   4.449
29688W        W96097  37.057  22.677   4.636
29689W        W96098  17.539   3.752   1.371
29690W        W96099  39.046  22.975   2.908
29691W        W96100  32.859  15.616   4.736
29692W        W96101  10.226  29.004  13.609
29693W        W96102  27.555  36.390   2.906
29694W        W96103  25.909  14.728   2.944
29695W        W96104   3.730  11.408   1.635
29696W        W96105  42.272  28.889   1.170
29697W        W96106  38.491  26.348   0.062
29698W        W96107  19.272  33.895   2.695
29699W        W96108  29.059  13.972  14.860
29700W        W96109  27.468   5.251   3.611
29701W        W96110   2.735  23.948  11.873
29702W        W96111   8.159  21.584  14.055
29703W        W96112  21.859   7.222   0.843
29704W        W96113   5.346  12.834  11.630
29705W        W96114  27.532  12.996   2.483
29706W        W96115  39.294   6.924  11.177
29707W        W96116  13.772  42.572   0.963
29708W        W96117  23.017  13.350   4.101
29709W        W96118  39.990  29.699   0.794
29710W        W96119  13.439   9.879  11.587
29711W        W96120  26.251  22.457   1.272
29712W        W96121   7.410  32.784   2.796
29713W        W96122  34.893  18.713  11.306
29714W        W96123  24.924   7.175   0.001
29715W        W96124   7.800  11.106  11.406
29716W        W96125  40.132  13.322  14.949
29717W        W96126   0.387  18.562  13.045
29718W        W96127  44.901  35.552  11.233
29719W        W96128  16.743  36.006  14.465
29720W        W96129  38.098   6.342  14.339
29721W        W96130  35.663  34.520  11.424
29722W        W96131  24.123  14.248  10.038
29723W        W96132   1.368  25.633  10.737
29724W        W96133   6.550   4.170  11.689
29725W        W96134  15.838   6.562   0.390
29726W        W96135  11.894  27.673   2.406
29727W        W96136  30.156   0.514  13.062
29728W        W96137  28.535  20.285  11.436
29729W        W96138   9.794   8.716   4.538
29730W        W96139  20.527   8.735   1.985
29731W        W96140  19.448  12.076   0.382
29732W        W96141  42.036  20.659   0.937
29733W        W96142   7.771  16.728  14.003
29734W        W96143  32.077  16.965  12.329
29735W        W96144   6.470  36.492   1.901
29736W        W96145  37.881  33.841   1.317
29737W        W96146  30.623  42.051   0.648
29738W        W96147   6.926   7.382   2.457
29739W        W96148   8.690  41.775   5.059
29740W        W96149  32.196  16.290  12.953
29741W        W96150  27.164  14.922   2.742
29742W        W96151   1.334  34.235  11.841
29743W        W96152  33.974  35.331  12.918
29744W        W96153  12.431   9.678  14.720
29745W        W96154  28.952  25.348   0.907
29746W        W96155  29.911  15.104   2.350
29747W        W96156  44.485  31.211   0.771
29748W        W96157  11.466   3.140  14.434
29749W        W96158  41.449  31.369  13.248
29750W        W96159   3.640   6.862   3.212
29751W        W96160  31.887   0.634  14.831
29752W        W96161  40.751  11.164   3.448
29753W        W96162   7.121  31.815   9.846
29754W        W96163  36.027  25.010   4.321
29755W        W96164  26.395  41.157  11.531
29756W        W96165  25.692  32.716   0.662
29757W        W96166  27.864   1.452   4.268
29758W        W96167   9.076   4.007  11.635
29759W        W96168  16.856  24.295  11.155
29760W        W96169  20.640  24.535   0.191
29761W        W96170  27.713  22.612   0.416
29762W        W96171  20.017  10.653  13.748
29763W        W96172  40.286  23.455  14.305
29764W        W96173  26.391  11.726   2.106
29765W        W96174  34.900  40.050   0.739
29766W        W96175  28.188  28.426   0.488
29767W        W96176  44.709  40.984  14.292
29768W        W96177  44.535   7.105   1.413
29769W        W96178  40.397   7.207   0.494
29770W        W96179  32.931  37.929   0.403
29771W        W96180  39.590   6.543  10.681
29772W        W96181   0.050  44.043  12.487
29773W        W96182  26.106  40.134  13.281
29774W        W96183   3.284  30.536  13.465
29775W        W96184  19.069  34.033  11.865
29776W        W96185  43.318  34.019   1.281
29777W        W96186   0.687  20.970  13.722
29778W        W96187   8.383  29.105   4.686
29779W        W96188   8.355  11.894   3.677
29780W        W96189  13.992  13.581  12.663
29781W        W96190  38.109  37.733   2.018
29782W        W96191  43.332  27.946  11.898
29783W        W96192   2.336  19.034   3.286
29784W        W96193   1.994  38.884   1.283
29785W        W96194  44.477  42.806  12.923
29786W        W96195  31.535  44.268   1.671
29787W        W96196  18.553  26.857  11.055
29788W        W96197  44.982  11.116  11.998
29789W        W96198  30.404   8.585  11.637
29790W        W96199  11.028  33.692   2.308
29791W        W96200  17.171  11.736  14.089
29792W        W96201  43.551  16.132   3.034
29793W        W96202  15.221  17.197  14.827
29794W        W96203  10.148  30.926  11.153
29795W        W96204   0.861   6.627   2.220
29796W        W96205  36.582   6.556   0.938
29797W        W96206  35.810  43.748  11.601
29798W        W96207  30.914   9.670  13.850
29799W        W96208  11.111  13.921   0.900
29800W        W96209  10.768  31.654  14.835
29801W        W96210  17.437  44.912  11.241
29802W        W96211  23.662   6.321   1.544
29803W        W96212  32.284   8.304  12.532
29804W        W96213  27.402  41.995   1.058
29805W        W96214   3.920  18.931  11.626
29806W        W96215  44.804  41.506   3.683
29807W        W96216   3.212   3.391   0.399
29808W        W96217  26.106  26.271   2.289
29809W        W96218  36.851  25.444  10.722
29810W        W96219   6.749   1.833   3.131
29811W        W96220   7.948  38.119  14.437
29812W        W96221  29.141  24.714  11.185
29813W        W96222  34.262   4.160  11.213
29814W        W96223   8.640  14.310   1.852
29815W        W96224  44.498  32.172   0.895
29816W        W96225   6.682  22.485  10.472
29817W        W96226  33.682  31.618   1.909
29818W        W96227  39.160  19.358   4.939
29819W        W96228  12.080   4.745  11.392
29820W        W96229  19.279  19.225  13.800
29821W        W96230  23.712   2.274   1.306
29822W        W96231  35.885  42.301   2.209
29823W        W96232  19.876  28.727  10.449
29824W        W96233  19.740   5.873   1.905
29825W        W96234  16.447  26.878   0.314
29826W        W96235   9.316  35.340   2.827
29827W        W96236  30.104  28.463   4.268
29828W        W96237  37.842   6.249  13.876
29829W        W96238  27.113  36.999  13.787
29830W        W96239   5.901  39.519   3.807
29831W        W96240  36.303  39.278   3.395
29832W        W96241  34.574   7.961  12.500
29833W        W96242  12.060  34.938  14.135
29834W        W96243   7.356  18.959   1.371
29835W        W96244  35.789  29.953   0.781
29836W        W96245   8.152   2.725  11.095
29837W        W96246  16.694  10.698   1.679
29838W        W96247  31.270  43.038   5.019
29839W        W96248  10.466  24.083  10.517
29840W        W96249  23.505   7.871   4.968
29841W        W96250  24.945   8.064   1.428
29842W        W96251  15.872  41.493   1.249
29843W        W96252   2.374  42.236   3.292
29844W        W96253  14.103   1.099   0.315
29845W        W96254  35.666  35.856   3.182
29846W        W96255  33.852  31.666  13.471
29847W        W96256  35.336  44.789  12.547
29848W        W96257  21.008  14.020  13.944
29849W        W96258  25.156  14.268  13.796
29850W        W96259   1.355   0.951  12.414
29851W        W96260  39.500  24.011  14.899
29852W        W96261  32.515  14.787   2.456
29853W        W96262  11.575   1.835   3.199
29854W        W96263  22.625  28.394   1.821
29855W        W96264   8.164  10.523  13.386
29856W        W96265  11.092  38.960  11.599
29857W        W96266  43.854  26.027   4.443
29858W        W96267   1.772   5.469   3.822
29859W        W96268  43.406  25.903   0.836
29860W        W96269  26.082  33.342   3.430
29861W        W96270  26.234  32.957  12.962
29862W        W96271  29.895  41.817  10.625
29863W        W96272  10.218  15.006  10.500
29864W        W96273  13.102  44.672  10.275
29865W        W96274  32.641   4.870   1.895
29866W        W96275   6.644  11.762   1.268
29867W        W96276  11.776  19.782   2.318
29868W        W96277   2.397  31.920  10.803
29869W        W96278  34.181  31.572   2.055
29870W        W96279  40.304  39.787  14.052
29871W        W96280  13.306  28.120  11.859
29872W        W96281  42.758  36.934   3.597
29873W        W96282  11.164  37.763   1.253
29874W        W96283  20.620  17.331  10.806
29875W        W96284  38.040  19.952   2.274
29876W        W96285  28.653   3.881   4.155
29877W        W96286  27.835  11.324  14.712
29878W        W96287   5.515  25.222   1.534
29879W        W96288  33.899   9.724   1.954
29880W        W96289   2.734  37.317   1.859
29881W        W96290  31.246  18.774  12.603
29882W        W96291  43.902  40.682   1.252
29883W        W96292  14.285  25.039  13.363
29884W        W96293   3.449  18.619  13.517
29885W        W96294   7.058   5.725  13.858
29886W        W96295  20.732   0.256   3.759
29887W        W96296  43.742  22.726   1.462
29888W        W96297  41.314  12.725   2.940
29889W        W96298  27.917  24.809   4.241
29890W        W96299  44.070  28.932   0.891
29891W        W96300  16.095  31.439   4.303
29892W        W96301  38.022  15.674   5.217
29893W        W96302  20.024  23.156   2.373
29894W        W96303  32.332  20.232   3.620
29895W        W96304   6.085  43.202   2.134
29896W        W96305  36.404  32.143  12.160
29897W        W96306  25.246  32.442   3.328
29898W        W96307  20.270   3.337   1.743
29899W        W96308  16.929  32.093   3.455
29900W        W96309   2.822  27.944  13.801
29901W        W96310  30.892   2.447  14.922
29902W        W96311  44.005  25.976  14.703
29903W        W96312  27.930  43.854   1.742
29904W        W96313   2.956  21.445  13.381
29905W        W96314   7.206  39.946   3.706
29906W        W96315   8.728   2.422  13.544
29907W        W96316   7.342  36.558  11.108
29908W        W96317  14.162  10.900   1.821
29909W        W96318  29.735   6.292  10.442
29910W        W96319   7.630  43.417   0.388
29911W        W96320  33.544   3.814  12.508
29912W        W96321  30.645  11.474   1.061
29913W        W96322  41.559   0.008  13.067
29914W        W96323  39.395  34.934   0.025
29915W        W96324  41.333  42.243   1.732
29916W        W96325  37.313   1.946  14.463
29917W        W96326  24.756  16.032  11.098
29918W        W96327  35.303  10.767   1.826
29919W        W96328  11.834  33.914   0.766
29920W        W96329  43.685  35.286   2.371
29921W        W96330  20.523  14.136   0.277
29922W        W96331  13.807   3.312  11.519
29923W        W96332  32.360  21.701   4.726
29924W        W96333  36.212   4.482   0.257
29925W        W96334  12.483  18.611   4.070
29926W        W96335  26.088   6.663   1.699
29927W        W96336  23.876   1.395  14.003
29928W        W96337   4.459  30.388  11.525
29929W        W96338  35.181   4.040  13.280
29930W        W96339   4.231   4.459   2.650
29931W        W96340  17.134   0.994  13.416
29932W        W96341  30.935  26.883   1.219
29933W        W96342  27.128  20.837  10.513
29934W        W96343  36.074  23.884  13.445
29935W        W96344  27.153  19.004  12.006
29936W        W96345   3.303  35.199   2.651
29937W        W96346  44.686   6.568   4.867
29938W        W96347   9.255  32.369  12.886
29939W        W96348   3.894  14.109   3.664
29940W        W96349   9.505  39.298   0.291
29941W        W96350  41.377  30.658  12.552
29942W        W96351  33.277  29.501  10.365
29943W        W96352  32.936  28.568  12.380
29944W        W96353   1.739  30.223  12.941
29945W        W96354  31.563   7.260  13.964
29946W        W96355  41.843   6.174  13.031
29947W        W96356  39.730  10.610   0.266
29948W        W96357  22.233   7.240   3.112
29949W        W96358  31.912  42.866   4.627
29950W        W96359   2.689  38.299  14.758
29951W        W96360   6.699   1.252  11.531
29952W        W96361  10.759  13.833  14.790
29953W        W96362  28.443   4.321   2.823
29954W        W96363  10.257   5.462  13.412
29955W        W96364  24.721  16.304  10.667
29956W        W96365  21.539  35.480   1.956
29957W        W96366  32.917  19.980  11.164
29958W        W96367  13.556  37.509  13.735
29959W        W96368  26.016  11.895  10.084
29960W        W96369  42.959  42.496  10.614
29961W        W96370  20.177  44.411   4.067
29962W        W96371  25.651  26.515  14.031
29963W        W96372  29.394  37.475  12.757
29964W        W96373  19.231  22.097  13.871
29965W        W96374   4.303  22.995   4.619
29966W        W96375  19.704  12.574  14.304
29967W        W96376  43.907   3.527   2.715
29968W        W96377  39.029  16.375   2.402
29969W        W96378  15.118  24.965   0.502
29970W        W96379  37.276  44.253  14.922
29971W        W96380  39.548  29.558   2.776
29972W        W96381   4.882  42.719  14.131
29973W        W96382  24.108   4.988  12.478
29974W        W96383   6.183  14.111   2.389
29975W        W96384  28.944   8.448   1.301
29976W        W96385  12.530  37.929   4.047
29977W        W96386  14.285  32.678  14.213
29978W        W96387  40.219  30.372  11.490
29979W        W96388  38.846  33.748  11.926
29980W        W96389  42.031  42.914  12.080
29981W        W96390  20.762  31.589  14.808
29982W        W96391  37.840   7.687  12.105
29983W        W96392  14.776  32.473   1.977
29984W        W96393  37.066  35.511   2.752
29985W        W96394   7.787  17.222   0.497
29986W        W96395  11.831   5.927   1.947
29987W        W96396  32.440  39.905   0.283
29988W        W96397  14.849  39.760   3.752
29989W        W96398  36.817  11.636  11.628
29990W        W96399  25.644   0.357   4.244
29991W        W96400  37.133  19.600  11.166
29992W        W96401   2.280  29.694   3.296
29993W        W96402   5.674   3.883  12.646
29994W        W96403  14.654  36.528   2.346
29995W        W96404  25.798  23.626   2.751
29996W        W96405  13.588  12.592  11.463
29997W        W96406  36.247  21.551  13.406
29998W        W96407  28.009  27.929   1.883
29999W        W96408  16.714  23.037  12.544
30000W        W96409  26.845  35.491  11.177
30001W        W96410  16.324  34.350   1.401
30002W        W96411  10.982  39.009  13.528
30003W        W96412  32.144  19.872   1.443
30004W        W96413  32.942  25.611   0.536
30005W        W96414  30.880  41.873  10.648
30006W        W96415  37.592  20.229   2.373
30007W        W96416  18.688  39.905   3.986
30008W        W96417  13.389  20.553   3.431
30009W        W96418  40.429   0.021   4.644
30010W        W96419  17.264  33.819  13.462
30011W        W96420  28.492  39.290   3.094
30012W        W96421  40.912   7.909   0.798
30013W        W96422  14.216  10.141   1.430
30014W        W96423   1.917   9.639   1.454
30015W        W96424   5.717  14.845   2.286
30016W        W96425  39.301  37.838  14.166
30017W        W96426   9.322  11.809  10.714
30018W        W96427   2.221  36.822   1.382
30019W        W96428  35.300   6.371   0.324
30020W        W96429  44.587   8.420  12.804
30021W        W96430  37.014  13.810   2.464
30022W        W96431  40.912  20.729   1.607
30023W        W96432   7.975  41.504   1.511
30024W        W96433  43.805  36.320  14.852
30025W        W96434  15.290   6.838  14.335
30026W        W96435  36.291  21.658  14.890
30027W        W96436  38.086  37.780  12.519
30028W        W96437  10.807  38.139  12.629
30029W        W96438  14.892  25.063   2.306
30030W        W96439   3.967  42.385  14.973
30031W        W96440  22.828  24.318  10.855
30032W        W96441  41.114  23.472   1.786
30033W        W96442  30.710   4.944   0.548
30034W        W96443  39.786  25.243   4.592
30035W        W96444   5.843  27.699   4.522
30036W        W96445  37.454  32.140  10.757
30037W        W96446  38.339  19.991  13.023
30038W        W96447  33.806   9.179  10.339
30039W        W96448   6.834  29.051   1.583
30040W        W96449  30.666   1.954  14.938
30041W        W96450   7.536   1.964  10.789
30042W        W96451  14.707   6.274  13.662
30043W        W96452   3.620  39.109  11.094
30044W        W96453  10.144  25.786   2.798
30045W        W96454  27.786  21.161   2.772
30046W        W96455  26.635  38.201  13.997
30047W        W96456  18.638  18.338   0.744
30048W        W96457  23.691  42.507   2.975
30049W        W96458   2.868  33.360   2.776
30050W        W96459  41.026  11.844   1.770
30051W        W96460  21.931   8.888  12.053
30052W        W96461  24.274  38.872   2.637
30053W        W96462  29.667  14.529  12.347
30054W        W96463  39.520  19.241  14.832
30055W        W96464   5.718  23.178  12.095
30056W        W96465   0.495  41.504  14.334
30057W        W96466   0.461  12.133   0.700
30058W        W96467  29.672  21.185  12.418
30059W        W96468   0.758  19.458  14.872
30060W        W96469  18.121   1.513   3.281
30061W        W96470  12.385   5.170   2.235
30062W        W96471  41.425  26.221  12.130
30063W        W96472   7.900   5.299   1.061
30064W        W96473  15.370  41.940  11.138
30065W        W96474  25.633  36.677  13.007
30066W        W96475  21.089  33.539  11.055
30067W        W96476  18.117   5.918   0.791
30068W        W96477   4.505  12.312  11.551
30069W        W96478  17.613   8.362   4.627
30070W        W96479  39.429  36.014  13.023
30071W        W96480  24.189   5.899  14.091
30072W        W96481  16.371   4.168  12.399
30073W        W96482  14.057  36.338   3.626
30074W        W96483  13.130  33.021   0.731
30075W        W96484  34.607   7.154  10.941
30076W        W96485  27.666   9.119   1.938
30077W        W96486  40.986   6.838   4.578
30078W        W96487  21.590  29.180  12.567
30079W        W96488  32.532  11.288   1.792
30080W        W96489  28.677   7.662  11.610
30081W        W96490  21.252  10.387  13.396
30082W        W96491  18.661  43.588  14.705
30083W        W96492  20.032  15.168   2.704
30084W        W96493  35.103  37.858   2.307
30085W        W96494  33.848  41.590   0.180
30086W        W96495   2.454  34.354  13.846
30087W        W96496  32.491  11.155   0.440
30088W        W96497  24.777   9.239   3.547
30089W        W96498  28.560   0.306  11.047
30090W        W96499  44.867  39.367   2.633
30091W        W96500  15.055  27.521  14.495
30092W        W96501  32.614   5.608  14.022
30093W        W96502   3.297  26.721   4.591
30094W        W96503  15.435  16.339  13.407
30095W        W96504  44.372  16.046  12.675
30096W        W96505  13.689  17.098  12.453
30097W        W96506  11.400   2.145   3.592
30098W        W96507  23.198  13.686  12.668
30099W        W96508  29.698  13.282  12.481
30100W        W96509  21.093  38.271   3.534
30101W        W96510  10.366   9.430   3.671
30102W        W96511  27.436  32.142  10.803
30103W        W96512   2.946  10.171  13.412
30104W        W96513   3.782  22.984   1.240
30105W        W96514  31.994  18.814  13.258
30106W        W96515   0.574  34.620   3.666
30107W        W96516  30.137   1.680   4.121
30108W        W96517  28.000  21.287   1.203
30109W        W96518   6.867  36.031   4.611
30110W        W96519  33.454   2.212  14.383
30111W        W96520  35.347  38.164   4.684
30112W        W96521  34.067  26.052   4.931
30113W        W96522   9.836  39.892  12.154
30114W        W96523  42.479   7.405  12.148
30115W        W96524  22.972  12.282  14.330
30116W        W96525  33.767  44.239   1.835
30117W        W96526  27.552  20.058  11.474
30118W        W96527  16.172  40.533   9.781
30119W        W96528   7.862   4.919   0.172
30120W        W96529  23.893  33.958   3.708
30121W        W96530  38.566  42.897  13.493
30122W        W96531  33.208   8.757  14.987
30123W        W96532  34.356  35.599   2.008
30124W        W96533  27.000   5.957  13.800
30125W        W96534  38.496  36.161   0.899
30126W        W96535   8.460  30.759  11.684
30127W        W96536  29.589  18.295   2.314
30128W        W96537  40.855  11.787   4.080
30129W        W96538  33.875  36.874   3.753
30130W        W96539   8.147  26.088   3.279
30131W        W96540  10.129  10.863   3.708
30132W        W96541   9.264  28.567   4.639
30133W        W96542   3.431  31.866   2.162
30134W        W96543  27.436  37.488   4.191
30135W        W96544  21.599   6.480  13.553
30136W        W96545  16.173  25.226  10.172
30137W        W96546  16.722  27.238   3.927
30138W        W96547  14.340  15.619  11.182
30139W        W96548  28.517  30.543  12.159
30140W        W96549  10.856  29.594   0.965
30141W        W96550  29.809  32.973   0.612
30142W        W96551  30.992  41.939   3.468
30143W        W96552  36.016  24.995  14.601
30144W        W96553  36.380   6.491  14.617
30145W        W96554  23.268  20.007   4.213
30146W        W96555  22.513  40.282  11.016
30147W        W96556  42.216   3.747  14.068
30148W        W96557   7.111  10.318   3.289
30149W        W96558  40.806  21.014   0.895
30150W        W96559  10.430  15.050  13.080
30151W        W96560  12.299  22.789   4.075
30152W        W96561  10.595  41.872   4.138
30153W        W96562  27.210  12.816   3.709
30154W        W96563  16.723   4.898   2.661
30155W        W96564  30.461   8.742   4.618
30156W        W96565  39.653  24.249   3.630
30157W        W96566   7.860   6.642  12.754
30158W        W96567  12.638  43.398  12.010
30159W        W96568  44.684  25.283  11.526
30160W        W96569  30.397  36.731   2.955
30161W        W96570  20.579  27.293  12.632
30162W        W96571  39.501  38.890   2.326
30163W        W96572  11.304  12.584  14.325
30164W        W96573  24.523   7.700  10.694
30165W        W96574  15.062  36.363   0.515
30166W        W96575  42.878  38.154   0.485
30167W        W96576  17.335  36.860  12.837
30168W        W96577  25.245  34.713  12.250
30169W        W96578   8.871  38.276  14.068
30170W        W96579  27.636  18.536  10.695
30171W        W96580  26.068  36.131   0.993
30172W        W96581  44.821   4.938  12.027
30173W        W96582  12.635   4.425   1.810
30174W        W96583  13.924  42.786   4.029
30175W        W96584  22.200  32.169  12.500
30176W        W96585  11.799  29.846   4.757
30177W        W96586  20.454   5.224   0.089
30178W        W96587  44.057  40.559  12.105
30179W        W96588  15.188  44.292   3.271
30180W        W96589  31.590  15.555   2.354
30181W        W96590  15.573  26.926   4.991
30182W        W96591   2.743   7.147   1.351
30183W        W96592  17.018  17.338   1.529
30184W        W96593  18.014  23.892  10.388
30185W        W96594  19.003   4.949   4.148
30186W        W96595   6.704   7.714  10.721
30187W        W96596   5.856  33.158   2.339
30188W        W96597  35.573  14.956  14.428
30189W        W96598  39.351  28.918  11.983
30190W        W96599  14.986  30.541  10.467
30191W        W96600   4.257  16.543  13.131
30192W        W96601   2.267  15.543  13.014
30193W        W96602  22.490  14.214   3.879
30194W        W96603   4.139  13.091   4.256
30195W        W96604   9.964  32.947   1.639
30196W        W96605  41.460  17.216  10.822
30197W        W96606  25.535  43.064  11.643
30198W        W96607  26.007  34.876   1.855
30199W        W96608  24.785   5.810   2.370
30200W        W96609   5.820  12.413   0.605
30201W        W96610  22.748  20.139  14.761
30202W        W96611  29.840  18.061  11.080
30203W        W96612  25.111  24.614   3.305
30204W        W96613   1.769  29.453   3.728
30205W        W96614  22.694  12.271  11.594
30206W        W96615  18.127  34.890   1.473
30207W        W96616  13.552  10.800  11.407
30208W        W96617  36.098   3.129   2.666
30209W        W96618  39.409   4.720   1.452
30210W        W96619  44.953  30.934  11.602
30211W        W96620  41.174  43.955   0.922
30212W        W96621  15.729  36.413  10.993
30213W        W96622   0.873  15.955   4.857
30214W        W96623  15.742   2.596  14.320
30215W        W96624  42.127  24.079  14.162
30216W        W96625  18.289   7.944   4.545
30217W        W96626  10.352  42.600   2.739
30218W        W96627  13.165  12.303   4.615
30219W        W96628   5.927  30.434   3.602
30220W        W96629  25.656  27.031   1.188
30221W        W96630  37.030  20.852   5.070
30222W        W96631  28.605  19.146   4.118
30223W        W96632  32.731   9.272   0.146
30224W        W96633  11.660  30.117  13.042
30225W        W96634  20.164  40.527   2.766
30226W        W96635  41.962  26.440   0.939
30227W        W96636   1.799  21.949   2.580
30228W        W96637   2.877  15.630  14.884
30229W        W96638   6.802  21.729   3.126
30230W        W96639  23.839   5.792  11.197
30231W        W96640  29.857   5.345  12.958
30232W        W96641  34.848  20.748   2.849
30233W        W96642  37.409  39.392  14.112
30234W        W96643   2.807   6.117  12.149
30235W        W96644  17.690   4.358  10.951
30236W        W96645  34.866  42.854  10.832
30237W        W96646  16.251  17.103  11.543
30238W        W96647  15.869  35.757   1.795
30239W        W96648  27.675  18.880   0.440
30240W        W96649   3.229  34.541  10.774
30241W        W96650  14.880  28.603  12.053
30242W        W96651  44.244  13.062  12.563
30243W        W96652  20.026  15.720   4.062
30244W        W96653   0.516   4.915   1.807
30245W        W96654  38.975  17.510   1.165
30246W        W96655  30.698  21.350   2.245
30247W        W96656  16.257   8.264   4.345
30248W        W96657  30.412  21.261  13.635
30249W        W96658  28.252  42.917   3.427
30250W        W96659  44.431  26.606   0.754
30251W        W96660  24.921  16.065  11.987
30252W        W96661   8.613  42.404  14.216
30253W        W96662  37.526   3.526  11.023
30254W        W96663  31.977  44.731  13.092
30255W        W96664  38.523  16.693   1.370
30256W        W96665  17.347  11.156   2.923
30257W        W96666  18.745  24.969   2.533
30258W        W96667  37.595  37.900   0.941
30259W        W96668  20.601   4.829  14.774
30260W        W96669  27.055  36.317   0.392
30261W        W96670   5.690  37.683  10.141
30262W        W96671  27.465  22.700  14.514
30263W        W96672   1.754  41.582   4.553
30264W        W96673  14.907   7.100   5.036
30265W        W96674  15.752   5.176   2.769
30266W        W96675   2.892  37.280  14.877
30267W        W96676  35.899  22.696  13.134
30268W        W96677  28.445  35.780  12.892
30269W        W96678  11.469  26.329   1.447
30270W        W96679  23.945  39.854   4.506
30271W        W96680   1.516  21.829  13.936
30272W        W96681  10.730  24.185   3.111
30273W        W96682  43.937  41.466   2.756
30274W        W96683  25.962  13.743   2.652
30275W        W96684  16.146  16.826  10.594
30276W        W96685  28.728  22.207  12.268
30277W        W96686  43.764  28.178  12.443
30278W        W96687  13.188  44.987  10.682
30279W        W96688  32.504   8.800   1.332
30280W        W96689  22.898  42.378   3.429
30281W        W96690  22.106  28.213  12.412
30282W        W96691  13.677  24.378   2.872
30283W        W96692  18.157  20.538  11.127
30284W        W96693  29.758  34.747   0.281
30285W        W96694  39.836  21.671  12.824
30286W        W96695  43.954  31.889  14.815
30287W        W96696  21.683  24.601  12.465
30288W        W96697  15.125  21.844  11.991
30289W        W96698  17.187  15.147   2.965
30290W        W96699   1.970  21.719  14.983
30291W        W96700  18.203  23.986   0.870
30292W        W96701  41.599  36.602   5.264
30293W        W96702  34.818  38.466  13.430
30294W        W96703  35.845  35.440  12.658
30295W        W96704  36.179  29.089   4.240
30296W        W96705  24.655  41.075   0.664
30297W        W96706  23.788  18.040  14.508
30298W        W96707  21.560  11.211   0.940
30299W        W96708  31.295   0.218  13.938
30300W        W96709  42.545   6.881   3.169
30301W        W96710  23.709  29.075  14.911
30302W        W96711  34.386  27.106   3.256
30303W        W96712  42.724  37.048   1.829
30304W        W96713   7.732  26.125   1.305
30305W        W96714  28.925  32.534   3.812
30306W        W96715  22.004  38.854   2.774
30307W        W96716  27.978   0.491  13.483
30308W        W96717  22.401  31.476  13.833
30309W        W96718  39.270  43.568   1.497
30310W        W96719   3.905  18.807  13.624
30311W        W96720   5.880  43.454   4.693
30312W        W96721   6.720  44.088  12.144
30313W        W96722  19.713  39.186   3.658
30314W        W96723   1.074   5.299  10.296
30315W        W96724  37.077  23.271  13.929
30316W        W96725  28.964  30.123  10.599
30317W        W96726  37.648  40.711  14.306
30318W        W96727  10.532  42.513   4.570
30319W        W96728   9.638  22.592  12.595
30320W        W96729  11.404   8.787   1.810
30321W        W96730  36.099  17.060   3.029
30322W        W96731  39.620  23.755  11.841
30323W        W96732  43.089  19.191   4.307
30324W        W96733   1.435  42.913  11.516
30325W        W96734  14.151  24.498   3.212
30326W        W96735  13.917   9.156   4.514
30327W        W96736   5.751  41.079   4.642
30328W        W96737   6.384   4.482  12.094
30329W        W96738  12.036   9.914   0.303
30330W        W96739  39.883  34.538  13.653
30331W        W96740  33.591  32.194  11.527
30332W        W96741  42.237  16.364   5.166
30333W        W96742  31.590   7.750   0.871
30334W        W96743   5.007  40.994   1.242
30335W        W96744  40.795  32.537  12.109
30336W        W96745  29.006  13.838  10.558
30337W        W96746  36.378  21.241  12.326
30338W        W96747   4.779  15.712   3.236
30339W        W96748  25.231  41.387  10.618
30340W        W96749  15.160  18.540  12.116
30341W        W96750  15.736  22.586   3.619
30342W        W96751  15.553  24.924  13.799
30343W        W96752   1.028  35.392   3.118
30344W        W96753  31.629  15.860  12.303
30345W        W96754  34.971  12.241  10.461
30346W        W96755  30.855  23.067   2.700
30347W        W96756   8.185  19.169   0.953
30348W        W96757  25.221  15.841  14.191
30349W        W96758  36.812  12.070   0.921
30350W        W96759   1.708  11.138  10.737
30351W        W96760   4.746  14.467  13.456
30352W        W96761  39.956  44.054   0.115
30353W        W96762  29.039  41.777  10.752
30354W        W96763  30.936  18.967   4.537
30355W        W96764  12.011   3.866  13.896
30356W        W96765  28.388  37.790   4.878
30357W        W96766   5.704  32.707   0.861
30358W        W96767   0.209  19.618  12.450
30359W        W96768   4.122  29.939   1.661
30360W        W96769   6.748  13.602   3.595
30361W        W96770  40.755   3.729  11.587
30362W        W96771  23.623  41.921  10.720
30363W        W96772  40.891  29.898  14.018
30364W        W96773  30.021  13.553   1.393
30365W        W96774  28.781   4.136  14.420
30366W        W96775   4.762  18.076   4.708
30367W        W96776  41.542  11.785   3.845
30368W        W96777   0.479  28.494   0.747
30369W        W96778  40.921  18.138  11.486
30370W        W96779  15.346  13.751  12.917
30371W        W96780  43.550   4.685   0.794
30372W        W96781  39.312  21.004   4.997
30373W        W96782  24.668   1.983   3.221
30374W        W96783  28.917  16.641   2.053
30375W        W96784  39.491   7.803  14.178
30376W        W96785  44.045   9.879  14.880
30377W        W96786  20.483   9.175   3.651
30378W        W96787  11.785  35.605   3.091
30379W        W96788   0.447   6.439   1.914
30380W        W96789  34.717  44.941   0.013
30381W        W96790   1.941  14.014   1.396
30382W        W96791  41.049  23.506   2.943
30383W        W96792  20.634   0.349  10.725
30384W        W96793  18.263   3.212  10.963
30385W        W96794  33.442  28.160   2.729
30386W        W96795  18.722  38.795   2.829
30387W        W96796  27.437  43.842  10.702
30388W        W96797  23.508  23.693   1.397
30389W        W96798  21.472   8.925  12.894
30390W        W96799   2.444   4.463   2.813
30391W        W96800  27.650   7.605   2.327
30392W        W96801  19.687   8.132   1.901
30393W        W96802  39.483  21.038   1.458
30394W        W96803  30.861  33.108  11.140
30395W        W96804  16.260  19.306  12.995
30396W        W96805   1.964  33.488   0.505
30397W        W96806   5.409   2.922   4.187
30398W        W96807  40.949  24.482   1.766
30399W        W96808  24.686  41.049  12.103
30400W        W96809   5.847   8.852   2.418
30401W        W96810  12.239  18.483  14.356
30402W        W96811   2.417  23.643   4.077
30403W        W96812  38.824   8.726   1.257
30404W        W96813   4.740  20.142  13.340
30405W        W96814   1.461   8.290  12.393
30406W        W96815  34.671  30.514   0.253
30407W        W96816  43.046   6.025   9.686
30408W        W96817  29.694  11.386   4.008
30409W        W96818  29.841  27.139   0.466
30410W        W96819  22.590  31.830  14.976
30411W        W96820  23.133  35.114  10.709
30412W        W96821  23.750  35.905   0.302
30413W        W96822  18.297  33.273  12.446
30414W        W96823  25.403  35.516   2.018
30415W        W96824   9.137  24.774  10.474
30416W        W96825  43.399  42.871   3.268
30417W        W96826  41.442  28.159  12.852
30418W        W96827  19.205  12.121   4.320
30419W        W96828  12.128  39.218  12.840
30420W        W96829  41.748  18.403   5.385
30421W        W96830   7.979  34.416   0.823
30422W        W96831   5.717  30.435   3.109
30423W        W96832  16.265  21.799  11.694
30424W        W96833   6.251  16.255   0.270
30425W        W96834  18.360   8.794   2.922
30426W        W96835   9.765  13.275   2.652
30427W        W96836  18.756  38.256  10.978
30428W        W96837  38.994  19.192   2.757
30429W        W96838  39.885   7.591  14.432
30430W        W96839  15.834  14.221  13.292
30431W        W96840   6.915  10.666   0.271
30432W        W96841   1.711  12.721   2.205
30433W        W96842   8.665  11.999  14.775
30434W        W96843  26.254  25.779   2.258
30435W        W96844  25.546   6.975   0.885
30436W        W96845   9.018  43.078  12.545
30437W        W96846   6.629  35.415  12.928
30438W        W96847  29.916  34.982  13.907
30439W        W96848  36.888  43.650   1.480
30440W        W96849  18.165  35.413  14.281
30441W        W96850  44.299  19.218  10.387
30442W        W96851  32.320  36.725   2.794
30443W        W96852  14.731   2.685   3.937
30444W        W96853  17.641  22.902   0.316
30445W        W96854  39.070  23.801   0.113
30446W        W96855  18.761  28.568   0.971
30447W        W96856  40.516  25.241   0.962
30448W        W96857  12.346   4.866   1.825
30449W        W96858  28.594  16.226   2.809
30450W        W96859  14.328  31.064   4.585
30451W        W96860   4.419  24.500   1.271
30452W        W96861  18.799  23.266  13.588
30453W        W96862  17.227  39.527   4.480
30454W        W96863   9.888  41.843   0.291
30455W        W96864  25.642  12.778   0.784
30456W        W96865  44.527  41.779  12.954
30457W        W96866  20.380  17.927  12.841
30458W        W96867   0.691  41.425   3.672
30459W        W96868  15.330  16.654  13.821
30460W        W96869  28.489  30.398  14.383
30461W        W96870   7.911  10.688  11.691
30462W        W96871  41.825  15.312   3.734
30463W        W96872  28.749  11.045  10.732
30464W        W96873   4.202   0.412  13.425
30465W        W96874  31.489  13.251   3.925
30466W        W96875   6.010  26.151  12.506
30467W        W96876  10.168  31.484   3.155
30468W        W96877  35.665   8.642  14.455
30469W        W96878  30.448   4.724   2.052
30470W        W96879  29.568  23.441  14.409
30471W        W96880  32.536   6.334  10.681
30472W        W96881  17.210  41.445   2.573
30473W        W96882  14.651  37.936   4.038
30474W        W96883  36.904  38.899   1.372
30475W        W96884  34.961  27.394   0.749
30476W        W96885   7.692   7.768   2.831
30477W        W96886   8.870  10.837   0.178
30478W        W96887  30.852   6.186   4.154
30479W        W96888  10.109  25.800   4.659
30480W        W96889  28.543  15.537   1.809
30481W        W96890   3.943   0.214   3.385
30482W        W96891  14.120  14.570   2.334
30483W        W96892  32.371  25.580   3.018
30484W        W96893  24.910  25.526   3.196
30485W        W96894  31.722  43.304   1.209
30486W        W96895  21.023  33.603   0.607
30487W        W96896  29.224  25.215   4.179
30488W        W96897  33.824  42.015   3.240
30489W        W96898  16.815  11.749  14.488
30490W        W96899  13.110  29.136  13.461
30491W        W96900   8.819   0.961  14.751
30492W        W96901  36.039   0.282  11.668
30493W        W96902  20.299  23.947  11.453
30494W        W96903  31.092  18.927  11.774
30495W        W96904  14.686  25.656  13.450
30496W        W96905   0.529  26.645  14.111
30497W        W96906   0.011  10.202   1.589
30498W        W96907  11.766   5.942   2.467
30499W        W96908  28.600  16.180  10.648
30500W        W96909   6.916   1.439  11.111
30501W        W96910  36.889   2.743  11.152
30502W        W96911  17.489   6.818   2.168
30503W        W96912   1.427  26.495  14.756
30504W        W96913  40.565  17.104   4.040
30505W        W96914  40.032   5.451  11.147
30506W        W96915  38.751  19.581  10.189
30507W        W96916  12.967  40.471  14.422
30508W        W96917   4.584  40.121  10.353
30509W        W96918  32.564  28.633  11.126
30510W        W96919   4.774   4.842   5.496
30511W        W96920   8.921  41.131  13.450
30512W        W96921  17.424   0.131   2.506
30513W        W96922  11.075  16.697   1.271
30514W        W96923  23.520  17.560  14.401
30515W        W96924   3.782  34.826   2.659
30516W        W96925  27.983   4.144  13.759
30517W        W96926  25.235  28.150   2.822
30518W        W96927  15.808  42.082   4.038
30519W        W96928  18.648  16.230  14.976
30520W        W96929   2.088   3.342  13.399
30521W        W96930  41.915  42.249  12.616
30522W        W96931  37.495  33.851  11.680
30523W        W96932  20.035   0.449   2.644
30524W        W96933   4.392  27.932   0.580
30525W        W96934  17.595  25.987   0.454
30526W        W96935  14.092   0.878   2.113
30527W        W96936  16.132  22.788   2.419
30528W        W96937   8.205  32.536   2.767
30529W        W96938  35.018  11.463   4.965
30530W        W96939  24.638  38.077  11.705
30531W        W96940  32.154  31.283   1.290
30532W        W96941  44.959  27.631   4.699
30533W        W96942  33.346   9.629   1.184
30534W        W96943   3.235  39.270   0.938
30535W        W96944  28.134   4.517  12.933
30536W        W96945  26.526   7.341   1.983
30537W        W96946  13.872  16.106   2.220
30538W        W96947   5.227   3.749  12.374
30539W        W96948  17.688  20.561   3.215
30540W        W96949   5.037  26.757   1.482
30541W        W96950  29.242  33.672  13.368
30542W        W96951   9.870   2.211  12.572
30543W        W96952  12.412  25.527   2.762
30544W        W96953  43.107  29.954   1.984
30545W        W96954  25.181  24.967   3.999
30546W        W96955  42.537  12.738  11.170
30547W        W96956   3.237  38.076  13.879
30548W        W96957  15.038   8.172   2.750
30549W        W96958   6.935  44.378   2.708
30550W        W96959  34.451  44.520   1.336
30551W        W96960  40.879   4.313   0.030
30552W        W96961  16.614  35.900   0.905
30553W        W96962  27.240   5.996  12.809
30554W        W96963  41.144  36.961   0.887
30555W        W96964  35.887  23.251   2.923
30556W        W96965  23.708  44.289   4.903
30557W        W96966  42.867   1.901   1.224
30558W        W96967   9.907  20.495  13.151
30559W        W96968   8.968  35.678  11.643
30560W        W96969  44.199   3.633  11.188
30561W        W96970  15.623  36.341   0.506
30562W        W96971  30.767  34.989   5.285
30563W        W96972  21.755  30.591   2.900
30564W        W96973  38.644   7.728   3.324
30565W        W96974  18.229  15.143   2.142
30566W        W96975   4.436   8.138   2.312
30567W        W96976  24.984  32.621  11.412
30568W        W96977  35.557   9.600  14.328
30569W        W96978  25.366  10.908  11.608
30570W        W96979   3.761  30.115   3.706
30571W        W96980   7.800   6.270   1.831
30572W        W96981  36.149   3.261  13.013
30573W        W96982   4.593  44.016  11.224
30574W        W96983  44.969   4.254   2.199
30575W        W96984  15.594  29.393   0.910
30576W        W96985  10.841  17.722  11.207
30577W        W96986  32.527   5.484   4.775
30578W        W96987  23.419  35.443   4.345
30579W        W96988  34.507  36.480  10.729
30580W        W96989  28.469   4.983   3.461
30581W        W96990  15.854   6.139   2.900
30582W        W96991  25.436  15.152   1.808
30583W        W96992   4.167  31.989  14.438
30584W        W96993   3.343  26.426  11.402
30585W        W96994  21.478  44.609  10.989
30586W        W96995  15.400  17.615   9.960
30587W        W96996  18.519  26.480   1.817
30588W        W96997   5.181   1.748   3.073
30589W        W96998   9.801  41.061   1.398
30590W        W96999  17.605  15.876  13.011
30591W        W97000   8.925   7.769   4.638
30592W        W97001  15.356  40.872  10.075
30593W        W97002  36.246  26.917   1.837
30594W        W97003  20.375  23.520   2.245
30595W        W97004  19.193  36.962   3.462
30596W        W97005  37.246  11.142   3.213
30597W        W97006  29.358  33.960   3.343
30598W        W97007  15.291  31.635   3.239
30599W        W97008  33.651  30.202   0.410
30600W        W97009  14.630  36.773   1.893
30601W        W97010  14.987  27.030   2.850
30602W        W97011  15.074   1.543  13.175
30603W        W97012  18.499   4.212  13.923
30604W        W97013  44.916  30.708   4.190
30605W        W97014   9.394  39.324  14.160
30606W        W97015  19.187  38.090  12.927
30607W        W97016  32.972  44.460  11.547
30608W        W97017  20.776   6.180  10.592
30609W        W97018  38.316  11.267  14.783
30610W        W97019   4.380  15.262   3.240
30611W        W97020  15.608  17.047   2.633
30612W        W97021  17.633  40.427   0.676
30613W        W97022  21.943  31.134  10.737
30614W        W97023  16.046  18.389  10.351
30615W        W97024  33.000  42.972  11.494
30616W        W97025  28.190  29.887  14.903
30617W        W97026   8.680  30.684  14.476
30618W        W97027  21.675  11.382  10.477
30619W        W97028  18.573  11.886   2.737
30620W        W97029   6.608  29.565   2.671
30621W        W97030   0.817   1.658  13.993
30622W        W97031   1.095  10.971   1.629
30623W        W97032   4.786  10.970   4.063
30624W        W97033   6.198  36.311  13.876
30625W        W97034  10.913  17.009   4.050
30626W        W97035   7.780  16.161  12.835
30627W        W97036  28.843  29.629   1.015
30628W        W97037  10.206  23.061  14.106
30629W        W97038   4.319  26.766   1.690
30630W        W97039  44.964  16.135   3.303
30631W        W97040  32.946  41.416   1.297
30632W        W97041  28.954   5.564  10.542
30633W        W97042  15.638  33.897   5.002
30634W        W97043  19.545  14.297  11.548
30635W        W97044  22.776  28.866  12.497
30636W        W97045  35.338  20.852  11.110
30637W        W97046  33.348   0.362   2.831
30638W        W97047  23.423  23.995   0.028
30639W        W97048   3.874  10.135   1.481
30640W        W97049  42.732  23.877   2.600
30641W        W97050  16.969  42.373  11.670
30642W        W97051  18.074  35.489  12.886
30643W        W97052   0.203  41.694  14.913
30644W        W97053  42.060  31.369  11.594
30645W        W97054  18.750  22.010   2.682
30646W        W97055  21.459  14.416  13.026
30647W        W97056  37.483  16.035  10.656
30648W        W97057  42.644   7.364   4.221
30649W        W97058  12.436  12.783   4.584
30650W        W97059  40.819  27.513  13.598
30651W        W97060  28.886  28.472  14.927
30652W        W97061  33.916  26.135   3.236
30653W        W97062  29.272  18.619  10.670
30654W        W97063  20.943  29.685   4.069
30655W        W97064  39.574   8.187   3.198
30656W        W97065   0.344  31.621  12.467
30657W        W97066  22.980  12.656   0.912
30658W        W97067  40.515   5.879   1.192
30659W        W97068  44.170  25.779   1.362
30660W        W97069  18.804   4.984   2.691
30661W        W97070  10.925  36.631  10.496
30662W        W97071  27.351  38.430   2.730
30663W        W97072   2.942  38.904   4.392
30664W        W97073  35.037  33.420   0.213
30665W        W97074  30.148  10.475  12.517
30666W        W97075  41.143  34.524   4.330
30667W        W97076  27.536  35.123  13.477
30668W        W97077  33.998  19.053  10.702
30669W        W97078  12.883  29.669   3.302
30670W        W97079  42.797   0.181  11.256
30671W        W97080   6.844  44.805   3.226
30672W        W97081  44.326  16.244   2.668
30673W        W97082  43.511  27.457  12.029
30674W        W97083  22.030  24.735  13.001
30675W        W97084  38.161  41.948   4.189
30676W        W97085  39.287  33.351   1.990
30677W        W97086  31.855  29.801   4.098
30678W        W97087  18.232  33.812   1.508
30679W        W97088  28.777  19.216  13.622
30680W        W97089  37.299  32.942   0.667
30681W        W97090  27.722  13.804  11.141
30682W        W97091  40.258  23.755  12.950
30683W        W97092   9.379  26.291  11.688
30684W        W97093  13.841  42.515   3.597
30685W        W97094  32.121  13.221  12.454
30686W        W97095  38.947  11.979  11.707
30687W        W97096  39.845  44.280  12.081
30688W        W97097  22.504  35.120   1.096
30689W        W97098  29.019  32.890   2.138
30690W        W97099  15.279   1.374   4.972
30691W        W97100  14.303  31.103   2.254
30692W        W97101   3.366   1.044   4.602
30693W        W97102   2.534  40.265  11.011
30694W        W97103  15.717  12.435  11.680
30695W        W97104  15.475   4.628   3.585
30696W        W97105  13.075   8.783  13.425
30697W        W97106  27.716   0.950   2.349
30698W        W97107   0.571  36.257  12.963
30699W        W97108  16.202   5.127   3.292
30700W        W97109  39.316  12.800  12.745
30701W        W97110  39.573   0.347   2.299
30702W        W97111  33.587  36.495   9.921
30703W        W97112  18.999  43.460   1.993
30704W        W97113  28.191   3.764   4.946
30705W        W97114   5.542  38.377  10.587
30706W        W97115  31.449  30.117  13.537
30707W        W97116  35.780  39.573  12.666
30708W        W97117  23.965   1.383  12.222
30709W        W97118   9.232  27.588  14.714
30710W        W97119   1.915  39.264   0.908
30711W        W97120  41.603   7.998  10.966
30712W        W97121  32.974   5.116   0.192
30713W        W97122  33.675  24.603   4.222
30714W        W97123   7.866   4.333  11.358
30715W        W97124   9.875  23.235  10.666
30716W        W97125  35.198  44.897   3.258
30717W        W97126  11.463   7.795  11.818
30718W        W97127  24.780  39.825   3.277
30719W        W97128  17.103   4.189  13.347
30720W        W97129  27.597  25.599  14.526
30721W        W97130   7.221  17.825   2.598
30722W        W97131  34.977  31.233   2.265
30723W        W97132  22.106  21.471  14.362
30724W        W97133   7.149  22.113   3.150
30725W        W97134  38.086  29.653  13.209
30726W        W97135  43.867  42.993  12.345
30727W        W97136  33.087  23.684  11.894
30728W        W97137  22.566  17.267  14.072
30729W        W97138  27.164  10.147   4.167
30730W        W97139  33.528  24.291  12.844
30731W        W97140  15.390   6.604   4.953
30732W        W97141  41.963  15.225   0.411
30733W        W97142  42.580   4.396   4.142
30734W        W97143  11.803  24.265   3.986
30735W        W97144   2.134  27.696  12.954
30736W        W97145  36.077  15.628  11.044
30737W        W97146  23.095  22.333  12.556
30738W        W97147  40.935  35.190   0.863
30739W        W97148  16.806  10.046   1.416
30740W        W97149  41.962  12.603  14.461
30741W        W97150  20.880  23.667  14.870
30742W        W97151   0.374  33.568  14.316
30743W        W97152  27.378  17.119  13.207
30744W        W97153  34.458   5.318   2.941
30745W        W97154  23.210  28.657  13.104
30746W        W97155  24.950   4.640   0.826
30747W        W97156   8.816  14.285  11.104
30748W        W97157  29.980  11.629  14.347
30749W        W97158  42.412   6.719  11.192
30750W        W97159  44.877  44.210  11.093
30751W        W97160  21.752   0.472   2.398
30752W        W97161  40.107  20.199  11.625
30753W        W97162  16.520  38.275   1.174
30754W        W97163  32.569  26.185   2.369
30755W        W97164  12.411   5.980   5.043
30756W        W97165  19.641  30.263   4.656
30757W        W97166  24.259  31.855  11.220
30758W        W97167   3.913  23.641  11.169
30759W        W97168   1.693  22.113   4.243
30760W        W97169  20.803  23.073   0.785
30761W        W97170  23.612   1.240  11.574
30762W        W97171  21.122   7.406   1.317
30763W        W97172  40.845  14.548   3.104
30764W        W97173  10.253  13.534  14.997
30765W        W97174  23.589  34.592   3.753
30766W        W97175   1.315  12.581   4.195
30767W        W97176  21.485   7.697   3.202
30768W        W97177  44.504  30.400   1.221
30769W        W97178  15.135  42.798  13.309
30770W        W97179   7.731  36.910  14.245
30771W        W97180   4.952  17.861  11.500
30772W        W97181   9.468  15.130   4.393
30773W        W97182  11.137   6.205   4.588
30774W        W97183  37.763  43.495   1.430
30775W        W97184  34.572  36.812   4.173
30776W        W97185  37.264  30.470  12.892
30777W        W97186  21.602  36.819   1.896
30778W        W97187   9.778  12.588   2.138
30779W        W97188  25.643  36.004   5.141
30780W        W97189  20.152  36.030   3.417
30781W        W97190  18.961  43.835  11.122
30782W        W97191  14.713   2.799  13.796
30783W        W97192  17.094  16.569   1.007
30784W        W97193  19.050  18.341  11.167
30785W        W97194  44.339  16.336  13.094
30786W        W97195   8.875  35.320   2.534
30787W        W97196  24.910  30.993  14.964
30788W        W97197  12.836  35.132  12.133
30789W        W97198  23.815  17.053   0.833
30790W        W97199  18.022   9.376   3.681
30791W        W97200   0.888   7.373  14.828
30792W        W97201  11.716  32.906   3.133
30793W        W97202  24.724  42.878   2.199
30794W        W97203   6.847  33.874  12.188
30795W        W97204  37.178  44.275  10.741
30796W        W97205  13.940  37.452  14.108
30797W        W97206   9.210  17.291   2.869
30798W        W97207  33.806  20.001   1.638
30799W        W97208  13.660   1.265  11.971
30800W        W97209  44.297  22.507   2.825
30801W        W97210  17.489  36.063   2.169
30802W        W97211   2.291   7.268   2.385
30803W        W97212  28.030   5.650   0.914
30804W        W97213  15.105   2.847  11.038
30805W        W97214  19.130  23.643   0.370
30806W        W97215  41.009  10.252   1.419
30807W        W97216   1.896   8.791  11.841
30808W        W97217  22.289  29.417   2.501
30809W        W97218  32.503   1.758  13.092
30810W        W97219  32.411  11.016  11.558
30811W        W97220  10.608   2.913  13.569
30812W        W97221  11.382   9.194  12.148
30813W        W97222  34.333  17.226  14.387
30814W        W97223  39.374   1.042  11.004
30815W        W97224  22.525   8.198   0.279
30816W        W97225  16.040   4.700  10.811
30817W        W97226   4.293  12.638  14.003
30818W        W97227  44.565  31.109  13.406
30819W        W97228  44.876  32.398  13.166
30820W        W97229  18.095  37.201   1.780
30821W        W97230  11.553  22.069   1.682
30822W        W97231   8.092  34.372  13.432
30823W        W97232  17.663   0.128   3.260
30824W        W97233   7.467  20.202   2.716
30825W        W97234  12.095  27.151  13.800
30826W        W97235   3.364  25.823   3.395
30827W        W97236   2.471  33.555  11.642
30828W        W97237  43.914  12.232   2.674
30829W        W97238  21.555  16.107  14.914
30830W        W97239  40.394   2.580   2.396
30831W        W97240  21.550  14.333   1.732
30832W        W97241  36.058   7.221   0.262
30833W        W97242  13.953  11.763  13.366
30834W        W97243   9.320   1.016  14.881
30835W        W97244  34.167  20.212   1.346
30836W        W97245   9.479  25.637   1.402
30837W        W97246  10.276  42.467  13.032
30838W        W97247  37.030  31.872  10.947
30839W        W97248  36.591  14.121  14.918
30840W        W97249  23.201  39.395  14.721
30841W        W97250  37.136   0.224   0.023
30842W        W97251  35.130   8.388  14.802
30843W        W97252  23.133  21.131  11.777
30844W        W97253  19.068  44.022  13.815
30845W        W97254  39.570  26.945   3.775
30846W        W97255  38.819  44.476   3.268
30847W        W97256  35.807  39.508   0.255
30848W        W97257   9.934   9.904   1.209
30849W        W97258  11.828  23.780   4.192
30850W        W97259  21.012  17.063   0.750
30851W        W97260  33.305  42.721  12.970
30852W        W97261   7.327  13.231   1.988
30853W        W97262  28.959  31.698   1.298
30854W        W97263  37.725  15.605   1.396
30855W        W97264  23.779  19.676   3.587
30856W        W97265   3.842  22.570  14.929
30857W        W97266  30.654  44.405  11.708
30858W        W97267  31.865  38.790  14.980
30859W        W97268   2.493  11.727   1.996
30860W        W97269  36.141  27.684  12.446
30861W        W97270  36.750  16.655   0.319
30862W        W97271  44.252  28.146  12.613
30863W        W97272  34.901   3.531  12.513
30864W        W97273  26.251  26.502  14.052
30865W        W97274  27.331   4.295   2.115
30866W        W97275  26.964   0.990   1.724
30867W        W97276  36.297   7.920   5.064
30868W        W97277   3.215  29.635   0.399
30869W        W97278  35.587  29.547  14.044
30870W        W97279  36.065   2.033   4.114
30871W        W97280  19.471  43.909   0.571
30872W        W97281  39.274  21.755  11.541
30873W        W97282   6.964  40.261   1.482
30874W        W97283  34.138  13.067  11.070
30875W        W97284  19.208  41.573  13.789
30876W        W97285   5.784  25.417   3.151
30877W        W97286  22.537   0.846   2.497
30878W        W97287  16.598  17.853   0.763
30879W        W97288  44.000  33.784   0.284
30880W        W97289  17.129  33.903  11.572
30881W        W97290  19.587   5.136  14.217
30882W        W97291   2.038  27.034   4.710
30883W        W97292  29.239  36.627  13.392
30884W        W97293  34.379   5.442  11.857
30885W        W97294  13.896  19.737  14.483
30886W        W97295  31.524   2.153  14.363
30887W        W97296  37.288  40.326   5.040
30888W        W97297  22.731   6.327   1.469
30889W        W97298   3.686  10.675   4.487
30890W        W97299   6.504  23.528  10.335
30891W        W97300  10.666  28.523   0.357
30892W        W97301   0.076  33.612   1.153
30893W        W97302  34.012  21.016   0.946
30894W        W97303  28.369  42.714   1.390
30895W        W97304  38.857   8.583   4.255
30896W        W97305  20.198  25.732   0.021
30897W        W97306  42.497   9.434  12.414
30898W        W97307  31.997  25.670   0.238
30899W        W97308  25.212  18.335   3.268
30900W        W97309  12.702  39.380   0.077
30901W        W97310  31.408   0.155  10.401
30902W        W97311   3.935  22.510   1.477
30903W        W97312   6.976  40.778   1.679
30904W        W97313  30.184  11.741   2.725
30905W        W97314  10.402   5.972  10.638
30906W        W97315   8.801   5.740   1.330
30907W        W97316  16.172  39.503   2.200
30908W        W97317  22.508  11.754  11.622
30909W        W97318  19.822  31.434  13.295
30910W        W97319  32.232  13.207  10.506
30911W        W97320  39.096   0.759  13.952
30912W        W97321  20.735  42.312   4.359
30913W        W97322   8.646  20.070  12.973
30914W        W97323  24.300  43.850   3.309
30915W        W97324  15.204  33.688  11.470
30916W        W97325  17.366  18.301  11.204
30917W        W97326  30.235  37.887   3.668
30918W        W97327  20.213  25.948  11.593
30919W        W97328  33.287   6.900  12.217
30920W        W97329  11.269  14.698   2.395
30921W        W97330  30.507   4.496   0.355
30922W        W97331  14.427  16.082  11.013
30923W        W97332   9.935  20.145   0.212
30924W        W97333  11.720  23.995   0.432
30925W        W97334   1.764  22.033  10.602
30926W        W97335  15.032  41.379   4.841
30927W        W97336   4.723  16.468   0.278
30928W        W97337  37.808  16.672  11.860
30929W        W97338   5.896  42.434  13.032
30930W        W97339  42.376  12.054  13.014
30931W        W97340   6.996  44.818  11.617
30932W        W97341  15.813  40.558  14.681
30933W        W97342  34.150  15.238   2.206
30934W        W97343  42.711  27.171  12.171
30935W        W97344  30.437  40.579   4.099
30936W        W97345  15.239  25.869   3.700
30937W        W97346   5.127  41.639   0.938
30938W        W97347  26.459  24.317  12.195
30939W        W97348  33.989  40.376   4.334
30940W        W97349  12.154  27.718  12.438
30941W        W97350   5.213   2.217  11.148
30942W        W97351  12.201  34.366  13.060
30943W        W97352  30.832  10.416  13.522
30944W        W97353  31.446  35.277  11.554
30945W        W97354  18.574  30.763  11.158
30946W        W97355  33.317  35.524   1.008
30947W        W97356  34.483  42.494  14.409
30948W        W97357  30.847  26.694   0.330
30949W        W97358   2.128  16.149  12.128
30950W        W97359   6.076   3.866   0.297
30951W        W97360  22.626  30.765   3.742
30952W        W97361  37.562   0.403   3.834
30953W        W97362  18.294  27.194  10.403
30954W        W97363  16.886  34.430  13.932
30955W        W97364  20.210  19.862   4.182
30956W        W97365   4.912  21.100  12.416
30957W        W97366  22.093  39.430  12.498
30958W        W97367  23.019   7.164  11.839
30959W        W97368  28.736  25.462   4.155
30960W        W97369  40.694  20.590  12.038
30961W        W97370  39.889  31.417  13.044
30962W        W97371  22.539   7.998  13.541
30963W        W97372  23.654  11.299  14.922
30964W        W97373   6.304  34.801   4.240
30965W        W97374  13.289  19.023   0.518
30966W        W97375   3.254   1.271  12.976
30967W        W97376  23.156   7.192   4.460
30968W        W97377  41.441  24.306  10.699
30969W        W97378  42.525   8.380  11.086
30970W        W97379  18.331   1.881   4.839
30971W        W97380  23.357  31.858   1.293
30972W        W97381  30.162  14.706  12.525
30973W        W97382   5.297  38.108   3.292
30974W        W97383  35.612  11.764  10.760
30975W        W97384   8.253   6.441  12.485
30976W        W97385  35.059   6.195   2.333
30977W        W97386  34.515  42.529   2.214
30978W        W97387  33.014  39.283   1.313
30979W        W97388  40.022  36.563  14.711
30980W        W97389  28.484  40.253   1.420
30981W        W97390  22.315   5.483   2.370
30982W        W97391  40.938  14.584   4.019
30983W        W97392  26.477   5.947   3.653
30984W        W97393  42.215  42.333  13.935
30985W        W97394  34.519   8.965   4.304
30986W        W97395  22.720   6.333  10.657
30987W        W97396  34.195   2.046  10.797
30988W        W97397   2.371  30.830  14.322
30989W        W97398  34.094  39.814  12.669
30990W        W97399   6.237   5.429  12.100
30991W        W97400  11.489  30.070   4.410
30992W        W97401  35.033  33.091   3.051
30993W        W97402  18.037  10.286   4.077
30994W        W97403  18.749   1.788  13.844
30995W        W97404  39.889  14.760  14.869
30996W        W97405  38.969  20.189   0.562
30997W        W97406  26.908   8.196  12.658
30998W        W97407  22.804  28.217   1.299
30999W        W97408  42.456  14.077  10.752
31000W        W97409  27.725  39.200  12.717
31001W        W97410   7.400  27.192  11.532
31002W        W97411  19.727   7.349  11.208
31003W        W97412  44.616   6.159   0.321
31004W        W97413   1.130  35.397   4.125
31005W        W97414   6.328  28.139  12.998
31006W        W97415  16.850  33.673   2.055
31007W        W97416  44.638  28.334   2.777
31008W        W97417   1.259  14.157  11.182
31009W        W97418   7.089  33.976  14.005
31010W        W97419  38.575  18.511  12.579
31011W        W97420   6.675   5.294  11.903
31012W        W97421  35.958  33.108  11.184
31013W        W97422  15.220  26.944   4.628
31014W        W97423  33.884  35.069   3.295
31015W        W97424  15.845  43.627   2.669
31016W        W97425  44.570  11.958  11.112
31017W        W97426   4.851  29.066  14.776
31018W        W97427  10.309  36.091  11.002
31019W        W97428  10.156  22.071  11.126
31020W        W97429  15.418  42.250   4.361
31021W        W97430  10.085   9.110  12.373
31022W        W97431  18.090  23.634   4.637
31023W        W97432  23.751  16.375   3.347
31024W        W97433  34.725  17.670  14.903
31025W        W97434  33.323  31.516   2.281
31026W        W97435  15.451  19.741  12.496
31027W        W97436   3.911  19.646  12.951
31028W        W97437   8.848  18.417  12.075
31029W        W97438  13.344   6.159  12.647
31030W        W97439   5.408  44.746   3.230
31031W        W97440   1.288  22.669  13.586
31032W        W97441  15.226   0.407  13.630
31033W        W97442  30.945  26.711   2.843
31034W        W97443  22.599   0.726   2.976
31035W        W97444   7.946  38.756   0.747
31036W        W97445  19.647  29.090  10.745
31037W        W97446  36.874  42.773  10.464
31038W        W97447  35.333   6.720  10.826
31039W        W97448  28.439   9.323  14.974
31040W        W97449   9.080   7.381   1.423
31041W        W97450  25.687  16.169  13.577
31042W        W97451  41.881  43.285  10.986
31043W        W97452  41.913  16.038   4.242
31044W        W97453  23.118  41.852   2.024
31045W        W97454  37.182  21.493  13.142
31046W        W97455  26.550  19.678  11.618
31047W        W97456  41.071  37.444   0.251
31048W        W97457  35.803  12.242  10.780
31049W        W97458  14.320  10.686  13.110
31050W        W97459   4.352  24.578  12.833
31051W        W97460  28.105  43.653  10.219
31052W        W97461  31.642  15.084  14.527
31053W        W97462  10.490  34.831  12.365
31054W        W97463  12.829  11.612  11.572
31055W        W97464   3.823  20.466  11.708
31056W        W97465  42.222  42.933  10.799
31057W        W97466  13.071   5.902   4.504
31058W        W97467   5.569  13.295   1.584
31059W        W97468  17.980  17.402  13.483
31060W        W97469  38.465  43.709   3.666
31061W        W97470  21.230  27.403   4.153
31062W        W97471  40.920  23.964   1.695
31063W        W97472  33.979   8.455  10.905
31064W        W97473   1.224   2.941  13.917
31065W        W97474  37.356  42.909   4.628
31066W        W97475  17.228  41.091  10.161
31067W        W97476  23.066  28.146  10.597
31068W        W97477  34.865   6.816  10.654
31069W        W97478  40.460  20.163  14.946
31070W        W97479  19.366   6.824   0.694
31071W        W97480  41.430   3.217   3.831
31072W        W97481  25.991   6.894   2.825
31073W        W97482   1.429  17.506  11.674
31074W        W97483  38.052  40.262   2.678
31075W        W97484  24.647  43.979  10.762
31076W        W97485  40.586  30.941  14.814
31077W        W97486  17.353  42.482   1.280
31078W        W97487  25.602  34.835   1.271
31079W        W97488   6.481  21.037  13.892
31080W        W97489   0.877  15.696   2.481
31081W        W97490  27.974  39.765  11.606
31082W        W97491  30.516   6.288  13.808
31083W        W97492  34.429  16.312   3.150
31084W        W97493  16.202  16.031   1.616
31085W        W97494  25.300  43.164  12.142
31086W        W97495  14.366   3.037   4.100
31087W        W97496  19.577  26.125  13.065
31088W        W97497  31.868  17.183   3.163
31089W        W97498  27.591  19.825  11.023
31090W        W97499  19.225  20.605  13.547
31091W        W97500  10.421  37.079  13.074
31092W        W97501  19.958  19.051  14.487
31093W        W97502  33.119   5.204  12.460
31094W        W97503  15.979   3.836  11.460
31095W        W97504  16.848  25.214   3.242
31096W        W97505   6.397  39.910   4.426
31097W        W97506   0.298  43.027   2.198
31098W        W97507  16.346   6.276  13.049
31099W        W97508   7.628  35.549  12.608
31100W        W97509  25.553  36.606   4.836
31101W        W97510  11.915  38.876  14.764
31102W        W97511  37.834  15.575   3.305
31103W        W97512  23.526  39.961   0.884
31104W        W97513  27.413   1.925  12.100
31105W        W97514  20.997  29.103   2.342
31106W        W97515  20.825  18.563   2.634
31107W        W97516  41.664   4.961  11.591
31108W        W97517  31.965  10.597  12.646
31109W        W97518   5.593  15.346   2.376
31110W        W97519  10.091  16.666   1.222
31111W        W97520   7.924   0.770   3.235
31112W        W97521  27.716   8.707  14.628
31113W        W97522  29.452  36.348  13.010
31114W        W97523   4.479  32.636   3.036
31115W        W97524  17.157  10.798  13.618
31116W        W97525  43.799   6.416   1.764
31117W        W97526  42.435  28.663   4.821
31118W        W97527  16.764  32.713  10.933
31119W        W97528  35.452   1.864   4.419
31120W        W97529  22.584  44.835  13.301
31121W        W97530   6.738  40.241   3.791
31122W        W97531   3.909  24.571  11.514
31123W        W97532  10.544  39.293   2.391
31124W        W97533   6.068  11.347  11.892
31125W        W97534  23.082  22.789  13.927
31126W        W97535   2.779  25.526  13.653
31127W        W97536  16.239   3.808   4.505
31128W        W97537  10.569  43.876  13.670
31129W        W97538   5.724   7.243  14.514
31130W        W97539  37.506  35.058   2.636
31131W        W97540  33.072  40.671   4.669
31132W        W97541  29.439  29.341  14.860
31133W        W97542  22.588  19.490  11.658
31134W        W97543  34.966  29.690  12.882
31135W        W97544   7.430  27.378   2.430
31136W        W97545  19.610  28.215   3.346
31137W        W97546  38.992  10.154   1.944
31138W        W97547  34.396   8.620  11.235
31139W        W97548  20.501  16.697  11.581
31140W        W97549  15.406  32.871   2.718
31141W        W97550  40.047  26.076   0.056
31142W        W97551  17.999  35.151  11.089
31143W        W97552  14.524   7.733   1.254
31144W        W97553  33.003  44.742   0.275
31145W        W97554   5.624  31.044   4.629
31146W        W97555  15.423  26.752   2.815
31147W        W97556  18.073  42.977   2.561
31148W        W97557  20.164  44.940  14.087
31149W        W97558  39.436   1.680   2.772
31150W        W97559  18.190  36.890  11.639
31151W        W97560  15.700   4.417   2.255
31152W        W97561  14.956  26.138  11.622
31153W        W97562  18.584  21.567  14.411
31154W        W97563  21.706   7.394   4.105
31155W        W97564  38.196   2.044   0.676
31156W        W97565  37.246  24.956   0.805
31157W        W97566  34.683   9.348   2.344
31158W        W97567  35.292   6.943  10.367
31159W        W97568  20.153   5.892   1.511
31160W        W97569  23.980  27.688   2.895
31161W        W97570  11.048  44.739   1.240
31162W        W97571  32.243  42.463  14.058
31163W        W97572   3.761  19.908  12.516
31164W        W97573  24.143  34.449  10.809
31165W        W97574   8.774  27.946  11.186
31166W        W97575  33.610   0.394   1.024
31167W        W97576  11.893  18.646  14.750
31168W        W97577  42.276  19.093  14.594
31169W        W97578   1.935  16.214   3.162
31170W        W97579  42.017  29.564   3.800
31171W        W97580   5.314   0.419  12.671
31172W        W97581  43.565  10.683   1.441
31173W        W97582  20.491  29.384  11.021
31174W        W97583  36.893  34.617  13.860
31175W        W97584  10.437  32.082  13.843
31176W        W97585   6.863  40.794  12.022
31177W        W97586  25.388  43.443  12.608
31178W        W97587  29.571  24.711   1.192
31179W        W97588  41.562  22.175  11.710
31180W        W97589  15.186  25.877  14.649
31181W        W97590  30.605  20.924  12.012
31182W        W97591  43.076   9.749   0.756
31183W        W97592  12.162  37.669   4.757
31184W        W97593  33.070  21.057  14.466
31185W        W97594   1.748   4.926  13.845
31186W        W97595  42.729  24.535  11.147
31187W        W97596  36.043   7.877   4.573
31188W        W97597  29.474  21.033   3.256
31189W        W97598  25.681  28.422  12.454
31190W        W97599  25.720   0.492  10.810
31191W        W97600   6.722  12.291   4.467
31192W        W97601  35.503  42.781  13.088
31193W        W97602  29.286  21.230  11.128
31194W        W97603   6.843  26.569  14.515
31195W        W97604  10.006  37.444  14.482
31196W        W97605  36.806  30.435  14.984
31197W        W97606  41.891  36.457   2.149
31198W        W97607  42.908  36.403  12.579
31199W        W97608  42.999   5.180  11.821
31200W        W97609  33.480  25.158   2.477
31201W        W97610  36.886  25.982   0.821
31202W        W97611   4.765   4.826  12.672
31203W        W97612  38.006  42.760  14.358
31204W        W97613  20.166   3.499   0.405
31205W        W97614   9.398  34.576   2.209
31206W        W97615  26.550  30.989   5.007
31207W        W97616  23.285  17.097  14.468
31208W        W97617  40.841  24.457  11.096
31209W        W97618   2.572   9.135  11.790
31210W        W97619  24.040  41.861   0.250
31211W        W97620  43.762  22.313  12.870
31212W        W97621  25.908  43.557  13.457
31213W        W97622  41.349   0.010   4.673
31214W        W97623  15.275  37.657   4.526
31215W        W97624  38.641  33.782   0.858
31216W        W97625  12.742  28.493  13.944
31217W        W97626  30.431   7.665  14.364
31218W        W97627   6.188  35.916   0.165
31219W        W97628   7.936  25.023   2.902
31220W        W97629   7.209  33.006  10.502
31221W        W97630  40.986  23.015   2.014
31222W        W97631  34.599   0.189   4.521
31223W        W97632   6.305  39.543  12.381
31224W        W97633   5.387   2.731  14.491
31225W        W97634  25.530  20.668   0.254
31226W        W97635  22.074  32.404   1.365
31227W        W97636  18.098  37.605  12.439
31228W        W97637  16.906  20.559   1.337
31229W        W97638   0.030  28.587  11.488
31230W        W97639  27.551   7.917   9.793
31231W        W97640  12.848   5.462   0.732
31232W        W97641  17.699  26.978  13.929
31233W        W97642   0.842  26.689  12.057
31234W        W97643   5.379   2.041   3.915
31235W        W97644  30.023   2.851   0.794
31236W        W97645  23.427  18.497  12.466
31237W        W97646  26.562   7.483   3.368
31238W        W97647  19.714  21.543   2.374
31239W        W97648  32.952  11.031   1.942
31240W        W97649  29.813  34.938   0.994
31241W        W97650   3.902  44.440  10.770
31242W        W97651   3.262  18.157  13.441
31243W        W97652   0.665  22.864  11.051
31244W        W97653  40.508  14.627   3.605
31245W        W97654  19.775   7.515   0.359
31246W        W97655  36.936  32.980   4.366
31247W        W97656  36.442  17.647  14.720
31248W        W97657   4.283  39.533  13.492
31249W        W97658  27.197  22.229   1.682
31250W        W97659   4.452  25.761  11.698
31251W        W97660  41.782  34.884   1.023
31252W        W97661  21.510  32.475  13.319
31253W        W97662  16.200   8.387  11.570
31254W        W97663  33.591  10.285   2.682
31255W        W97664  23.689  43.578   0.748
31256W        W97665  28.263  14.594   4.914
31257W        W97666  40.227  20.188  10.505
31258W        W97667   1.884  10.694  10.999
31259W        W97668  42.834  12.173   0.446
31260W        W97669   1.635  41.928   2.582
31261W        W97670   9.592   8.849  13.556
31262W        W97671  32.927  25.751  13.895
31263W        W97672   6.347  29.963   1.027
31264W        W97673   2.581  16.783  10.448
31265W        W97674  31.942   5.774  12.402
31266W        W97675  18.903  37.344  13.540
31267W        W97676   6.089  24.430   4.021
31268W        W97677  39.714  11.824   4.170
31269W        W97678  43.782  17.111  13.897
31270W        W97679  10.663  38.086  14.523
31271W        W97680  15.680  22.746   1.665
31272W        W97681   9.427   7.917   4.538
31273W        W97682  23.682  32.587  12.478
31274W        W97683  20.174  29.658  13.977
31275W        W97684  14.160   7.600   3.226
31276W        W97685  40.830  10.679   3.294
31277W        W97686  26.146  37.445  14.006
31278W        W97687   6.002  34.473  14.925
31279W        W97688  22.583  36.505  10.761
31280W        W97689  41.157  38.938  13.901
31281W        W97690   9.878  23.421   3.117
31282W        W97691   0.467  24.731   3.216
31283W        W97692  22.218  31.566  10.733
31284W        W97693   3.241  19.155   3.355
31285W        W97694  40.465  43.271  13.991
31286W        W97695  40.073  44.719   1.877
31287W        W97696  12.851  20.596  12.453
31288W        W97697  23.912  17.615   1.197
31289W        W97698  44.036  32.404  12.326
31290W        W97699  11.570  15.203   4.375
31291W        W97700   8.463  39.542  11.531
31292W        W97701  41.555   4.878  10.691
31293W        W97702   5.597  42.668  12.069
31294W        W97703  16.352  15.252   3.650
31295W        W97704  22.734  10.384  13.306
31296W        W97705   4.874  18.182  11.124
31297W        W97706  16.347  19.006   3.187
31298W        W97707  34.555  40.332  10.941
31299W        W97708  28.378  32.549  14.001
31300W        W97709   7.353   9.791   2.336
31301W        W97710  30.663   8.847  12.008
31302W        W97711   8.339  26.723   0.859
31303W        W97712  23.498  34.332  14.255
31304W        W97713   4.447  41.834   4.094
31305W        W97714  24.146  31.143   1.259
31306W        W97715  28.752  12.746   3.830
31307W        W97716  35.775  12.662   3.691
31308W        W97717  15.343  36.635  14.589
31309W        W97718  26.085  11.089   3.176
31310W        W97719  41.336   9.019   2.387
31311W        W97720  17.535  39.617   4.060
31312W        W97721   7.024  43.849  11.801
31313W        W97722   9.857  17.702  10.466
31314W        W97723  43.688  38.003  12.912
31315W        W97724  15.683  31.950  10.623
31316W        W97725  15.671   0.095   2.807
31317W        W97726  39.694   0.870   1.771
31318W        W97727  23.268  41.265  10.831
31319W        W97728   4.339  41.206   3.696
31320W        W97729   9.484  29.053   4.622
31321W        W97730   2.406  12.758  13.806
31322W        W97731   9.655  38.195   1.662
31323W        W97732  36.725  23.994   1.559
31324W        W97733  13.287   1.095  14.537
31325W        W97734   5.656  39.968  12.563
31326W        W97735   6.335   8.929   0.483
31327W        W97736  13.677  18.707   2.695
31328W        W97737   4.670  26.302   3.171
31329W        W97738  19.323   2.876  11.130
31330W        W97739  42.741  44.430   4.099
31331W        W97740   3.923  41.760  12.155
31332W        W97741   8.979  13.838   4.549
31333W        W97742   6.599  14.391   2.179
31334W        W97743  21.393   8.837  12.016
31335W        W97744  15.359  11.088  13.967
31336W        W97745  38.091  39.387   2.731
31337W        W97746  16.812   4.308  10.929
31338W        W97747   8.539  42.189   4.796
31339W        W97748  38.453  14.232   1.727
31340W        W97749  43.878  30.439   4.772
31341W        W97750  13.541  13.842  12.621
31342W        W97751  32.717  28.996   2.301
31343W        W97752  39.817   8.175   2.718
31344W        W97753  32.342  31.468  11.124
31345W        W97754  23.166  19.901   1.924
31346W        W97755  34.162  10.789   4.913
31347W        W97756   8.353  10.657  13.917
31348W        W97757   7.735  43.271   2.865
31349W        W97758  31.909  20.752   0.889
31350W        W97759  18.553  29.742  13.853
31351W        W97760   7.669  41.409   2.878
31352W        W97761  42.650  12.706   4.750
31353W        W97762  23.717   0.915   3.592
31354W        W97763   1.834  27.396  12.494
31355W        W97764  18.895  32.604  14.721
31356W        W97765  19.158   4.349   0.767
31357W        W97766  40.686  21.505  13.972
31358W        W97767   7.662  16.771  11.541
31359W        W97768  43.244  27.221   0.897
31360W        W97769   0.882  38.891   4.932
31361W        W97770  19.618  40.226  11.097
31362W        W97771   2.368   1.764   4.194
31363W        W97772  18.416  27.616   4.991
31364W        W97773  19.694   3.896  13.569
31365W        W97774   3.414  18.845  14.764
31366W        W97775  18.786  35.857   2.729
31367W        W97776  42.501  34.007  11.014
31368W        W97777  10.119  10.099   3.040
31369W        W97778  22.592   1.864  11.641
31370W        W97779  26.384  28.410   3.950
31371W        W97780  35.825  21.679  11.499
31372W        W97781  35.568  10.788   4.391
31373W        W97782  29.518  20.223   2.657
31374W        W97783  32.932  26.954  13.518
31375W        W97784  16.527  39.482   1.732
31376W        W97785   4.385  35.990   2.776
31377W        W97786  42.336  19.365  10.613
31378W        W97787  25.745   7.166   4.627
31379W        W97788  37.227  35.742   3.185
31380W        W97789  34.989  27.191  14.835
31381W        W97790  36.019  10.935   0.064
31382W        W97791  44.203  17.697   2.512
31383W        W97792  31.563  27.139   2.293
31384W        W97793  37.421  24.325   2.346
31385W        W97794  13.961  31.578  11.134
31386W        W97795  26.308  23.587   2.825
31387W        W97796  44.780  29.432  14.040
31388W        W97797  14.877  34.518  10.447
31389W        W97798   3.873  18.857   1.737
31390W        W97799  15.832   4.223  14.420
31391W        W97800   2.361   2.809  11.061
31392W        W97801  42.856  14.557   4.543
31393W        W97802  14.625  41.554  13.903
31394W        W97803  39.891  21.666   3.153
31395W        W97804   2.740  40.991   1.432
31396W        W97805   6.450  16.147  13.516
31397W        W97806  17.423  34.776   0.900
31398W        W97807   8.102  26.508  12.801
31399W        W97808  26.863  43.523  13.145
31400W        W97809  22.128  29.645  10.911
31401W        W97810  12.235   9.659  13.077
31402W        W97811  37.991  33.362  13.452
31403W        W97812  12.937  13.162   1.965
31404W        W97813  12.662  24.196   0.572
31405W        W97814   1.028  34.564   1.738
31406W        W97815  28.590  34.006   0.750
31407W        W97816  37.094  21.715  12.047
31408W        W97817   6.203  13.239   4.604
31409W        W97818  23.278   6.675   4.512
31410W        W97819  42.926   5.289   0.356
31411W        W97820   5.903   8.768  11.562
31412W        W97821  32.548  16.179   4.786
31413W        W97822   9.984  20.563   3.323
31414W        W97823  27.463  13.133   0.213
31415W        W97824  32.019  20.116   2.597
31416W        W97825  44.836  32.908  11.944
31417W        W97826   4.369  33.247   1.410
31418W        W97827   7.824  43.922  13.544
31419W        W97828  27.064  35.356  12.229
31420W        W97829  10.890  25.636  10.906
31421W        W97830  40.290  36.967  13.137
31422W        W97831  26.526   0.763   1.965
31423W        W97832  18.153  38.504   0.887
31424W        W97833  33.890  20.507  13.603
31425W        W97834  27.432  10.050   3.756
31426W        W97835  15.834  37.969  12.366
31427W        W97836  31.046  11.780   3.632
31428W        W97837  18.816  26.842  12.000
31429W        W97838  11.659  28.984  11.503
31430W        W97839  21.207  17.418   3.127
31431W        W97840  18.253  13.137  10.696
31432W        W97841  17.036  33.711   3.961
31433W        W97842  31.864  42.944  10.795
31434W        W97843  40.001   1.633   2.244
31435W        W97844   6.460  33.333   3.989
31436W        W97845  10.561  12.159   2.459
31437W        W97846  41.836  34.493  14.712
31438W        W97847  24.776   7.654   0.851
31439W        W97848  12.308   7.365   4.155
31440W        W97849  23.468   8.029  11.223
31441W        W97850  25.427   8.201  10.734
31442W        W97851  32.874  38.643   3.799
31443W        W97852  42.002  31.613   2.743
31444W        W97853   9.437  29.565  10.602
31445W        W97854  29.111  33.377   2.279
31446W        W97855  23.462  35.003   1.622
31447W        W97856  32.653  35.824   4.654
31448W        W97857  32.762  42.583  13.993
31449W        W97858  17.728   0.990  14.443
31450W        W97859  28.907  37.852  14.487
31451W        W97860  10.756   6.167  12.428
31452W        W97861  36.862  20.259   2.750
31453W        W97862  23.924   2.351  14.910
31454W        W97863  20.446   0.101   3.359
31455W        W97864  33.572  41.217  13.886
31456W        W97865   5.401   5.968   0.442
31457W        W97866  26.039  22.880  10.251
31458W        W97867  27.127  24.148   4.414
31459W        W97868  29.535   1.060  13.320
31460W        W97869  19.006  16.718  14.253
31461W        W97870  40.277  19.329  11.571
31462W        W97871   2.201  18.666   2.143
31463W        W97872  26.920  12.112  11.624
31464W        W97873  40.399  28.573  10.769
31465W        W97874  25.399  11.372  10.654
31466W        W97875  11.630   4.890  11.119
31467W        W97876  19.426  14.666  14.835
31468W        W97877  26.012  20.727  11.237
31469W        W97878  39.357  13.935   1.983
31470W        W97879  14.166  28.070  12.197
31471W        W97880  12.138  23.513  12.896
31472W        W97881  40.135  17.136  12.892
31473W        W97882  22.129  36.401   4.550
31474W        W97883   7.615  27.363   2.909
31475W        W97884  21.758   1.298   2.483
31476W        W97885   0.818   9.926   5.107
31477W        W97886  43.482  33.733  11.800
31478W        W97887  42.975  30.819  13.989
31479W        W97888  17.012  44.067  10.475
31480W        W97889  44.462   0.291   2.753
31481W        W97890  38.945  17.810  13.037
31482W        W97891  35.232  12.800   0.028
31483W        W97892  12.600  33.841   0.332
31484W        W97893  20.602  13.988   4.951
31485W        W97894   8.187  39.422   4.064
31486W        W97895  32.529  15.576  11.891
31487W        W97896  36.472  27.618  14.028
31488W        W97897  37.146  24.997  11.573
31489W        W97898  16.254  31.018   0.913
31490W        W97899   0.666   2.301  11.154
31491W        W97900  19.801   4.202  11.092
31492W        W97901   4.391  33.983   3.774
31493W        W97902   5.683  41.499   2.309
31494W        W97903  23.621  39.408  13.879
31495W        W97904  21.071   9.240  12.006
31496W        W97905  13.137   1.438   2.287
31497W        W97906  17.019  15.201   0.884
31498W        W97907  39.241  44.791  11.596
31499W        W97908  32.090  31.113  12.459
31500W        W97909   8.411  37.554   3.716
31501W        W97910   4.368   8.190   2.842
31502W        W97911  27.492   8.276  14.812
31503W        W97912  44.556   8.138  11.880
31504W        W97913  33.543  10.968   4.171
31505W        W97914   1.386  26.434   2.718
31506W        W97915  21.140  39.231   3.359
31507W        W97916  12.434   6.377  12.928
31508W        W97917  31.445  30.053  11.137
31509W        W97918   3.416  42.895  14.310
31510W        W97919  16.277  10.966  13.362
31511W        W97920  18.365  19.218  10.731
31512W        W97921  28.482  16.713  11.510
31513W        W97922  10.522  31.090   9.877
31514W        W97923  36.332  17.807  11.513
31515W        W97924  33.310   4.542   2.717
31516W        W97925   2.100   8.549   4.305
31517W        W97926  28.500  36.111   1.294
31518W        W97927  22.184   9.629   1.741
31519W        W97928  20.655   7.544  12.054
31520W        W97929  21.506  37.302   2.135
31521W        W97930  18.188  15.562  13.837
31522W        W97931  21.128  32.265  11.588
31523W        W97932  34.723  42.765   1.582
31524W        W97933  39.457   5.798   3.653
31525W        W97934  44.818  18.491   1.449
31526W        W97935   0.486  33.043  14.272
31527W        W97936   3.198   6.185   1.317
31528W        W97937  17.339  26.037   2.243
31529W        W97938  17.996  25.659  11.476
31530W        W97939   5.438  36.528   3.688
31531W        W97940   2.468  41.982   4.414
31532W        W97941   4.249  38.535   4.563
31533W        W97942  37.358  23.889   1.464
31534W        W97943  41.833  39.163   2.645
31535W        W97944  17.621  34.655   1.469
31536W        W97945  44.972  28.476  12.450
31537W        W97946   1.026  32.113   1.244
31538W        W97947   9.242  43.924  12.254
31539W        W97948  22.275  32.237   3.698
31540W        W97949  21.765  15.232   2.389
31541W        W97950  10.380  43.749   0.537
31542W        W97951  35.118  12.630   4.186
31543W        W97952  36.542  29.403  11.531
31544W        W97953  26.841  38.383   2.732
31545W        W97954  11.400  30.118  14.352
31546W        W97955  44.486  30.437   3.971
31547W        W97956  24.926  27.002   3.261
31548W        W97957   2.219  15.256  13.462
31549W        W97958   7.986  41.225  10.844
31550W        W97959  19.392   4.949   1.798
31551W        W97960   6.207  22.124   2.650
31552W        W97961  29.564  33.551  11.201
31553W        W97962  16.221  28.433   3.857
31554W        W97963  23.247  34.020   2.378
31555W        W97964   7.245  37.873  13.986
31556W        W97965  25.241  25.597   1.368
31557W        W97966  23.463  36.121  13.576
31558W        W97967  10.282  23.702   3.390
31559W        W97968  27.628  16.641   2.371
31560W        W97969   4.192  13.236  10.380
31561W        W97970  29.956  38.132   1.048
31562W        W97971  31.610  18.753   2.415
31563W        W97972  39.963   4.321  13.232
31564W        W97973  25.226  11.510   2.662
31565W        W97974  27.989   4.886   3.668
31566W        W97975  32.624  31.956   4.986
31567W        W97976  15.383   8.822   2.756
31568W        W97977  34.029  42.778   2.264
31569W        W97978   0.292  41.331   1.293
31570W        W97979   1.393  28.440   2.169
31571W        W97980  33.428  11.981   1.428
31572W        W97981  13.724  16.273  14.409
31573W        W97982  22.321  25.594  12.590
31574W        W97983  28.432  16.465  14.425
31575W        W97984   7.427  40.351  10.705
31576W        W97985  36.956  29.230  11.255
31577W        W97986  12.120  28.986  13.805
31578W        W97987   4.433  35.484  12.471
31579W        W97988   7.305  44.005  10.992
31580W        W97989   5.415  34.736   2.491
31581W        W97990  15.839  20.296   0.161
31582W        W97991  30.026  17.719   1.756
31583W        W97992   6.327  14.830  11.618
31584W        W97993  43.599   6.351  10.314
31585W        W97994   0.727  38.003  13.944
31586W        W97995  25.102  39.883  13.935
31587W        W97996  38.968  23.723  14.220
31588W        W97997   9.130  25.648  13.411
31589W        W97998  35.820  38.059   4.512
31590W        W97999  22.196  23.798  14.035
31591W        W98000  24.673  39.032  11.131
31592W        W98001  34.675  37.468  11.148
31593W        W98002  10.143   9.087   3.347
31594W        W98003  22.184  19.047   0.954
31595W        W98004  36.932  42.210   1.237
31596W        W98005  18.050   4.948  10.815
31597W        W98006  32.198  28.081  12.123
31598W        W98007  29.741  32.677   3.657
31599W        W98008  11.820  17.081   2.240
31600W        W98009  24.144  36.530   2.194
31601W        W98010  21.574  23.130   4.896
31602W        W98011  31.638  10.272   2.594
31603W        W98012  20.017  42.542  11.975
31604W        W98013  24.120  10.055  13.384
31605W        W98014  38.508  30.006   0.836
31606W        W98015  12.100  12.777  12.799
31607W        W98016   1.505  24.947  11.944
31608W        W98017  25.680  14.463   1.260
31609W        W98018  21.548  35.428  11.290
31610W        W98019  19.759  38.282   1.885
31611W        W98020  37.909   2.301  13.851
31612W        W98021  32.031  11.906   1.754
31613W        W98022   2.515  41.227  11.213
31614W        W98023  16.204  42.432   4.161
31615W        W98024  21.617  13.800   4.667
31616W        W98025  28.745  16.685   3.115
31617W        W98026  10.247   0.512  12.039
31618W        W98027  29.480   1.227   3.724
31619W        W98028  10.440  18.192   1.171
31620W        W98029  38.614  40.228  11.349
31621W        W98030  13.798  20.803   3.631
31622W        W98031   1.870   8.011  14.023
31623W        W98032  31.432   7.753  13.493
31624W        W98033  42.785  41.058  11.022
31625W        W98034  37.423  41.433   1.757
31626W        W98035  31.313  30.559   2.720
31627W        W98036  16.987  32.755  14.780
31628W        W98037  21.520   9.342   1.246
31629W        W98038  30.469  16.617   1.790
31630W        W98039   8.738  33.858   1.003
31631W        W98040  40.002  16.371   3.691
31632W        W98041   7.341   6.697   2.438
31633W        W98042  40.074  16.884  14.383
31634W        W98043  32.459  42.817  10.257
31635W        W98044  36.372  41.430   5.379
31636W        W98045   1.851  37.036   1.664
31637W        W98046  19.763   6.529  10.615
31638W        W98047  27.546  25.793  13.553
31639W        W98048   6.718  16.165  14.018
31640W        W98049   7.784  14.867  14.035
31641W        W98050   3.341  10.572  11.067
31642W        W98051  11.274  21.474   4.203
31643W        W98052  31.871  12.904   4.819
31644W        W98053  39.340   3.449   0.450
31645W        W98054  10.630  35.331  12.313
31646W        W98055  34.688   2.752  11.076
31647W        W98056  14.318  12.944  11.954
31648W        W98057   2.966   6.290   2.828
31649W        W98058  10.858  43.295  10.703
31650W        W98059   7.958  19.059   0.458
31651W        W98060  20.364   1.033   0.415
31652W        W98061  33.556  42.079  14.372
31653W        W98062  12.820  38.923   0.325
31654W        W98063  34.700  44.841   2.379
31655W        W98064  13.500  41.865   0.306
31656W        W98065  37.040  42.221  12.548
31657W        W98066  10.413  33.012   2.608
31658W        W98067  28.604  10.720   3.204
31659W        W98068  42.503  20.853   2.052
31660W        W98069   5.467   0.693   0.371
31661W        W98070   2.373  15.930  14.808
31662W        W98071  27.099  17.201   4.653
31663W        W98072  22.220   2.421  12.869
31664W        W98073  41.843  39.062  12.049
31665W        W98074  24.437  37.120   3.730
31666W        W98075   5.179   8.576   3.438
31667W        W98076  30.482  27.293  11.964
31668W        W98077  32.080  10.662   0.319
31669W        W98078  38.726  35.063  12.082
31670W        W98079   0.817  40.704  10.820
31671W        W98080  25.553  12.279   4.571
31672W        W98081  18.061  37.382   3.215
31673W        W98082  41.228   4.425  13.360
31674W        W98083  23.806  19.368   0.766
31675W        W98084   9.803  18.607  14.420
31676W        W98085  32.023  11.366  14.265
31677W        W98086   7.031  24.918  10.768
31678W        W98087   8.811  43.085  12.046
31679W        W98088  28.174  30.365  10.021
31680W        W98089  18.407  14.913  12.476
31681W        W98090  37.067  24.452   3.635
31682W        W98091  10.340  42.914   0.452
31683W        W98092  12.857   1.529  12.398
31684W        W98093   7.787  37.501  11.325
31685W        W98094  39.065  38.012  12.638
31686W        W98095  37.310  16.252  14.567
31687W        W98096  38.938   6.221   1.167
31688W        W98097   5.186  28.909  11.452
31689W        W98098  19.626   8.236   1.345
31690W        W98099  26.854  25.711  13.056
31691W        W98100  19.261  40.577   1.794
31692W        W98101   4.443  35.083   4.612
31693W        W98102  39.130  30.150   0.678
31694W        W98103  31.186  15.760  12.526
31695W        W98104  35.683  25.102   4.703
31696W        W98105  34.093   2.928  12.506
31697W        W98106  39.212  34.377  10.831
31698W        W98107  16.854  36.508  12.023
31699W        W98108   4.382   6.769   4.515
31700W        W98109  11.308  10.875  12.415
31701W        W98110  18.618   1.775  12.930
31702W        W98111   9.842  34.726   1.937
31703W        W98112  26.016  13.323   0.384
31704W        W98113   8.095  40.927  14.815
31705W        W98114  43.994  30.881  14.798
31706W        W98115   0.096   8.225  13.545
31707W        W98116  11.367  15.214  13.199
31708W        W98117  10.433  36.433  14.305
31709W        W98118   9.100  11.894  12.062
31710W        W98119  28.570  13.687   1.868
31711W        W98120  18.573   3.890   0.290
31712W        W98121  36.337  27.695  14.527
31713W        W98122  29.525  23.262  13.081
31714W        W98123  39.738   8.549  12.321
31715W        W98124   2.817  33.220  11.767
31716W        W98125  11.610   7.296   1.281
31717W        W98126  18.137  21.306  14.359
31718W        W98127  37.451  31.340  12.075
31719W        W98128   3.537   7.659   1.011
31720W        W98129  20.112  11.274   4.171
31721W        W98130   8.721   2.904  13.334
31722W        W98131   4.267  40.438  13.510
31723W        W98132  30.712  32.210  10.505
31724W        W98133  36.362  31.937  11.646
31725W        W98134   4.194  35.720  14.501
31726W        W98135   9.819  29.378   4.858
31727W        W98136  27.993  24.208  12.947
31728W        W98137   3.932  12.803   2.277
31729W        W98138  10.323   9.187   1.178
31730W        W98139  12.820  24.888  13.896
31731W        W98140  36.046  40.641   3.210
31732W        W98141   6.423   7.213   4.560
31733W        W98142   2.529  11.672  11.584
31734W        W98143  30.389  23.277  11.676
31735W        W98144  42.284   2.361  12.106
31736W        W98145  29.649   3.836   2.094
31737W        W98146   1.678   9.663  13.510
31738W        W98147  12.041  44.179  14.803
31739W        W98148  32.537  38.566  13.602
31740W        W98149  30.479  14.749  10.599
31741W        W98150  19.649  36.882   1.646
31742W        W98151  26.549  34.122   3.539
31743W        W98152  11.202   3.050   3.057
31744W        W98153  13.273  10.766   4.812
31745W        W98154  18.216  23.624   1.257
31746W        W98155  39.357   8.688   1.233
31747W        W98156   2.284  34.494   4.860
31748W        W98157  18.300  19.082  12.876
31749W        W98158  34.819  28.620   1.694
31750W        W98159  41.812  34.042  13.409
31751W        W98160  36.698  31.056   3.167
31752W        W98161  19.599  19.191  13.408
31753W        W98162  28.385  10.898  11.090
31754W        W98163  18.172   5.482  12.287
31755W        W98164  16.991  10.743   1.278
31756W        W98165  20.596  38.961  11.861
31757W        W98166  40.520  24.583   3.650
31758W        W98167  21.668   1.934  12.474
31759W        W98168  19.959  33.109   2.823
31760W        W98169  16.310  14.111  12.054
31761W        W98170  35.230  22.051   4.208
31762W        W98171   6.908  21.251  14.123
31763W        W98172  37.898  27.523   4.617
31764W        W98173  41.987  14.052   2.737
31765W        W98174  41.875  19.295  13.949
31766W        W98175  40.261  39.861  14.975
31767W        W98176   2.934  19.953   2.531
31768W        W98177  44.228  19.706  10.206
31769W        W98178   3.967  16.307  14.492
31770W        W98179  15.831  11.068  11.192
31771W        W98180  14.228  23.806  10.952
31772W        W98181  39.328  26.149   2.963
31773W        W98182  22.193   4.033   0.715
31774W        W98183  31.530  40.947  11.619
31775W        W98184  22.011   9.080   4.194
31776W        W98185  24.714  19.828   0.321
31777W        W98186   0.213  38.039   0.406
31778W        W98187  37.093   8.271  11.744
31779W        W98188  41.015  12.207  12.484
31780W        W98189  12.168   0.217  13.955
31781W        W98190  23.748   9.859  13.068
31782W        W98191   0.876   6.289   2.629
31783W        W98192  12.119  20.265   0.818
31784W        W98193  31.280  18.173  11.266
31785W        W98194  44.729  37.129  11.162
31786W        W98195  34.035   7.277  11.020
31787W        W98196   3.404  20.092  13.533
31788W        W98197  29.177  40.052  14.955
31789W        W98198  26.499   0.520  11.587
31790W        W98199  41.961  17.687  14.911
31791W        W98200   8.569  15.742   4.293
31792W        W98201   5.634  23.318  10.334
31793W        W98202  15.290  30.105  10.499
31794W        W98203  37.494  43.303   3.097
31795W        W98204  40.886  21.704   1.914
31796W        W98205  43.704  33.518   0.853
31797W        W98206  19.680  25.013   3.431
31798W        W98207  26.916  27.670   1.332
31799W        W98208  41.789  22.750   0.173
31800W        W98209   4.488   7.248  13.409
31801W        W98210  42.505  23.455  13.384
31802W        W98211  41.838  29.870  13.430
31803W        W98212  23.496  28.584  14.819
31804W        W98213  36.343  21.724  11.563
31805W        W98214  29.677  38.971   2.693
31806W        W98215   4.730   9.309   3.677
31807W        W98216  40.666  23.653   4.769
31808W        W98217  28.294  19.618   2.200
31809W        W98218  43.424  36.451  10.753
31810W        W98219   3.308  40.787   2.826
31811W        W98220  38.876  17.288   2.309
31812W        W98221  16.506  24.947  13.047
31813W        W98222  28.708  12.614  12.128
31814W        W98223  12.829  34.233  13.558
31815W        W98224   0.754   2.686  13.837
31816W        W98225  30.619  18.759   2.334
31817W        W98226  23.700  20.658  14.524
31818W        W98227   1.133   6.676  11.257
31819W        W98228  42.640  12.744   2.043
31820W        W98229  40.898   6.380  12.878
31821W        W98230  23.431  34.186  11.907
31822W        W98231  19.806   1.486   3.581
31823W        W98232  14.190   2.210   1.742
31824W        W98233  26.190  43.880  12.577
31825W        W98234  22.783   0.208   4.511
31826W        W98235  21.687  21.827   5.119
31827W        W98236  29.712  14.879  12.730
31828W        W98237  38.419   6.946  14.014
31829W        W98238  28.129  26.539   2.324
31830W        W98239  10.686  42.179   1.426
31831W        W98240  42.026  26.172   3.153
31832W        W98241  22.183  32.153  13.767
31833W        W98242  17.683  33.914   3.141
31834W        W98243  22.883  41.978   1.222
31835W        W98244  18.071  40.449   3.093
31836W        W98245   0.143  17.411  13.508
31837W        W98246  23.964  10.721   2.810
31838W        W98247  12.180  42.790   3.897
31839W        W98248  30.079   4.566   1.312
31840W        W98249  27.963  16.070  14.254
31841W        W98250  11.077  43.404   1.727
31842W        W98251   4.721  22.620  14.442
31843W        W98252  35.621  29.071   2.592
31844W        W98253  12.064  37.989   5.132
31845W        W98254   5.115  34.097   0.958
31846W        W98255  13.706  17.670   3.588
31847W        W98256  28.220  33.955  12.715
31848W        W98257   7.953  11.309  14.348
31849W        W98258  22.975   7.086   9.919
31850W        W98259  41.028  27.243   3.784
31851W        W98260   0.281  43.747  14.950
31852W        W98261  32.656  14.050  12.951
31853W        W98262  36.400  42.242  13.850
31854W        W98263  23.042  17.529  12.433
31855W        W98264  32.405   1.816   1.164
31856W        W98265  42.002  20.480   1.422
31857W        W98266  32.384  42.458  14.902
31858W        W98267  39.925   7.826  13.431
31859W        W98268  17.618  22.569   0.826
31860W        W98269  39.762   9.688  14.688
31861W        W98270  11.449  20.271  14.724
31862W        W98271  11.686  30.945  11.211
31863W        W98272   3.548  18.702   3.402
31864W        W98273  12.891  35.634   3.563
31865W        W98274  34.682   4.405  12.480
31866W        W98275  10.260  14.817   4.829
31867W        W98276  43.384  38.473   3.039
31868W        W98277  32.667   2.240   4.856
31869W        W98278  13.788  20.467  13.631
31870W        W98279  26.472  22.917   1.596
31871W        W98280   9.385  41.287  13.607
31872W        W98281  44.517  44.209  13.647
31873W        W98282   6.176  30.551  12.427
31874W        W98283  41.426  23.152   3.597
31875W        W98284  15.191  27.062   0.813
31876W        W98285  22.946   2.805  14.872
31877W        W98286  24.241  23.543   1.570
31878W        W98287  12.920  38.556  14.465
31879W        W98288  21.174  38.291  13.298
31880W        W98289   2.970  36.897  12.664
31881W        W98290  15.163  24.416   3.861
31882W        W98291  19.555  30.034  14.912
31883W        W98292  37.468  30.585   1.212
31884W        W98293  38.900  23.900   4.027
31885W        W98294  42.393  44.067   1.906
31886W        W98295  41.929  40.937  12.475
31887W        W98296  44.357  11.636  11.459
31888W        W98297  19.473   9.148  13.684
31889W        W98298  20.727   1.496  11.443
31890W        W98299   8.936   6.279  10.693
31891W        W98300  43.444   3.210   3.119
31892W        W98301  18.880  19.222  10.721
31893W        W98302  12.735  13.346   1.532
31894W        W98303  12.456  22.292  14.326
31895W        W98304  37.264  39.374   3.091
31896W        W98305  29.475  12.375  14.406
31897W        W98306  22.178  33.389  14.491
31898W        W98307  38.435  15.046   2.353
31899W        W98308  13.765  32.060  13.014
31900W        W98309  26.199  26.472   0.533
31901W        W98310  36.005  36.423  11.638
31902W        W98311   7.550  27.571  10.843
31903W        W98312  17.817  39.926   5.086
31904W        W98313  11.471  43.328   4.180
31905W        W98314  28.001  20.103  10.218
31906W        W98315  42.401   7.884   0.246
31907W        W98316  27.771  32.541   2.447
31908W        W98317  30.677  26.644  11.525
31909W        W98318  40.887   8.812  13.919
31910W        W98319  42.400  12.629   2.733
31911W        W98320  15.606  12.628  10.379
31912W        W98321  43.406   8.582  14.647
31913W        W98322  39.889   5.921  13.440
31914W        W98323  32.229  21.178  14.054
31915W        W98324  28.970   5.587   0.795
31916W        W98325  17.313  19.972  14.151
31917W        W98326  27.930   2.252  14.759
31918W        W98327  33.888  22.028  14.892
31919W        W98328  44.641  29.560  11.388
31920W        W98329  36.916   7.799   2.052
31921W        W98330  27.062  44.255   0.364
31922W        W98331  17.731  44.567   3.365
31923W        W98332  21.899   8.632   4.443
31924W        W98333  41.913  14.383  10.415
31925W        W98334  18.562  14.110   2.327
31926W        W98335   0.420  25.926  11.555
31927W        W98336  14.521   8.961  11.727
31928W        W98337  31.983   8.062   1.012
31929W        W98338  19.811  30.311   1.025
31930W        W98339  33.793   1.301   0.450
31931W        W98340  28.005  20.044  12.132
31932W        W98341  43.206  23.647   2.718
31933W        W98342  13.714  18.701   3.565
31934W        W98343  29.196  13.738   0.482
31935W        W98344  43.379  31.933  12.924
31936W        W98345  40.881   0.470   4.094
31937W        W98346   6.285  11.209  14.865
31938W        W98347  19.316  27.067  10.699
31939W        W98348  34.087  40.604  14.331
31940W        W98349   1.252  24.919  14.441
31941W        W98350   3.437  13.650  12.009
31942W        W98351   1.548  44.978   2.288
31943W        W98352   5.446   1.047   2.666
31944W        W98353  25.937  44.478   0.725
31945W        W98354  32.800  24.587  11.956
31946W        W98355  14.065  16.276   1.734
31947W        W98356  39.123  22.636   1.163
31948W        W98357  13.368   7.792  13.371
31949W        W98358  24.011  29.007   0.360
31950W        W98359  26.350   7.472  13.594
31951W        W98360  23.735   3.169   0.826
31952W        W98361  25.730  24.383   2.051
31953W        W98362  24.102  32.951  11.945
31954W        W98363  17.216   6.911  10.372
31955W        W98364  38.594   8.932   3.975
31956W        W98365  13.691  33.870   1.281
31957W        W98366  30.629  34.485   0.760
31958W        W98367  18.823  41.710   0.951
31959W        W98368  20.783   2.291   3.602
31960W        W98369  36.150   9.834  11.550
31961W        W98370  32.682  35.388   3.843
31962W        W98371  44.760  43.604  14.921
31963W        W98372   1.969  27.695   5.070
31964W        W98373  33.601  13.147   3.110
31965W        W98374  12.588  39.423  13.464
31966W        W98375  13.802  21.500   1.248
31967W        W98376  32.695   1.858  13.912
31968W        W98377   6.369  38.389   1.942
31969W        W98378  23.734   8.725   5.008
31970W        W98379  38.892  22.532   3.133
31971W        W98380   6.178   5.943   3.278
31972W        W98381  15.849   8.898  12.231
31973W        W98382  30.550  33.200   1.922
31974W        W98383  12.485   0.111   4.111
31975W        W98384   9.197  39.360   4.218
31976W        W98385  23.479  40.388   1.188
31977W        W98386  24.016   4.965  14.002
31978W        W98387  32.951  42.054   0.446
31979W        W98388  29.222  41.540  11.180
31980W        W98389  30.721   7.682   0.981
31981W        W98390  19.712  13.849   0.374
31982W        W98391  40.059  10.250   0.486
31983W        W98392  32.319  12.726  12.409
31984W        W98393  30.489  26.613   4.217
31985W        W98394  32.396  13.609   0.574
31986W        W98395  28.704  28.699  11.562
31987W        W98396  16.717  19.560  12.805
31988W        W98397   1.578  42.848   4.661
31989W        W98398   2.466  42.018  13.142
31990W        W98399  41.942  13.227  11.971
31991W        W98400  29.968  38.025  11.153
31992W        W98401  39.212  11.704   4.170
31993W        W98402  36.063  42.727  13.807
31994W        W98403  23.794  25.635   1.465
31995W        W98404  11.643  16.465  11.097
31996W        W98405   4.705  17.793   2.719
31997W        W98406  40.526  22.600   2.834
31998W        W98407  12.000  34.619   1.455
31999W        W98408  24.665  31.205  11.112
32000W        W98409  11.321  16.659  14.768
32001W        W98410  12.287  34.581  12.203
32002W        W98411  32.014   4.247  14.535
32003W        W98412  37.741  28.505  11.216
32004W        W98413  20.545  38.839   4.642
32005W        W98414  16.285  14.070   4.258
32006W        W98415  24.236  23.924   2.776
32007W        W98416   2.305  23.512  13.975
32008W        W98417  26.052  18.586  11.961
32009W        W98418  42.026  33.078  13.611
32010W        W98419  26.498  15.243  13.497
32011W        W98420  24.408  14.394   0.424
32012W        W98421  24.450  14.620  11.200
32013W        W98422  22.004   7.290   2.625
32014W        W98423  27.843  13.096   2.047
32015W        W98424   7.143  44.937  11.126
32016W        W98425  22.651  22.821  11.831
32017W        W98426  41.364  10.907   3.822
32018W        W98427   7.479  17.365  14.378
32019W        W98428  29.734  42.433   4.376
32020W        W98429  15.037  19.100   3.351
32021W        W98430  40.525  36.587  13.994
32022W        W98431   4.143   0.280  11.640
32023W        W98432   7.328  21.252   0.428
32024W        W98433  31.020  21.535  11.554
32025W        W98434   8.565  32.613  12.458
32026W        W98435  41.930  36.559   0.718
32027W        W98436  37.101  19.578   0.317
32028W        W98437  30.857  25.494   1.946
32029W        W98438   8.785  28.682  12.498
32030W        W98439  33.136  30.701   3.667
32031W        W98440  15.585  32.213  11.060
32032W        W98441   7.097  33.467  11.475
32033W        W98442  14.116  39.713  12.833
32034W        W98443  33.802  29.472  10.286
32035W        W98444  18.710   7.572   3.713
32036W        W98445  16.859  27.070  13.295
32037W        W98446  39.763  38.627   2.702
32038W        W98447  14.799  20.780  14.356
32039W        W98448   8.861   6.849   1.346
32040W        W98449  43.408  20.559   1.659
32041W        W98450   5.226   1.733  13.305
32042W        W98451  19.012  22.155  13.392
32043W        W98452  40.954  43.045  12.378
32044W        W98453  23.503   5.017  14.050
32045W        W98454  28.877  15.377  14.557
32046W        W98455  25.946   9.830   3.168
32047W        W98456   7.042   2.408   0.413
32048W        W98457  35.397   7.326   3.893
32049W        W98458  24.717  41.445   0.268
32050W        W98459  24.597   9.391   9.872
32051W        W98460   0.724  43.897   2.146
32052W        W98461  28.939  40.446  13.710
32053W        W98462   1.641  29.421   2.771
32054W        W98463  37.774  35.789  14.361
32055W        W98464   3.204  28.195  14.046
32056W        W98465  39.839  23.499  10.912
32057W        W98466   0.847  22.749   2.350
32058W        W98467   9.003  23.542   2.687
32059W        W98468  21.227  11.521  10.224
32060W        W98469  34.226   3.752  12.883
32061W        W98470   3.181  23.058  11.197
32062W        W98471  15.556  17.156  13.875
32063W        W98472  24.934  10.172   2.845
32064W        W98473  33.054  32.143   2.429
32065W        W98474  10.830  21.294   4.049
32066W        W98475  25.591  39.469   2.966
32067W        W98476  24.005  44.709  13.555
32068W        W98477  16.216  40.545  12.919
32069W        W98478  30.356  17.141   3.400
32070W        W98479  27.761  36.456  12.402
32071W        W98480  38.015  15.695   1.901
32072W        W98481  22.255  18.958  13.114
32073W        W98482  18.902  23.374  10.354
32074W        W98483  37.087   7.101  12.658
32075W        W98484  11.691  39.271  11.150
32076W        W98485  41.894  35.992   2.397
32077W        W98486  14.802  39.515  10.750
32078W        W98487  27.196  33.099   3.227
32079W        W98488  13.313  32.955  12.841
32080W        W98489   5.649  31.227  10.648
32081W        W98490   5.670   7.711  11.603
32082W        W98491   4.904   4.385  10.996
32083W        W98492  39.073   4.370   3.158
32084W        W98493   7.817  12.676   4.719
32085W        W98494  15.727  30.060   1.169
32086W        W98495  40.092  40.305   3.764
32087W        W98496   7.464   0.832   2.123
32088W        W98497   4.143  41.501  14.298
32089W        W98498  10.749  38.975  12.021
32090W        W98499   3.656  42.487  11.929
32091W        W98500  18.136  26.663  14.007
32092W        W98501  42.262  39.347   3.305
32093W        W98502  21.604  40.545   0.215
32094W        W98503  17.897  34.565   0.497
32095W        W98504   1.148  39.238   0.852
32096W        W98505   1.694   6.598  11.488
32097W        W98506  39.359  37.548   1.330
32098W        W98507   0.724  28.464   1.398
32099W        W98508  15.728  42.222  14.055
32100W        W98509   3.492  34.305  11.162
32101W        W98510  39.799  24.299  12.087
32102W        W98511  25.061  18.153  13.414
32103W        W98512   6.859  26.154  11.658
32104W        W98513  10.115  25.213   1.698
32105W        W98514   6.849   1.303  12.848
32106W        W98515   5.157   5.918   3.331
32107W        W98516  13.325  37.372   3.103
32108W        W98517  22.085  32.077  10.695
32109W        W98518   5.150  30.450   4.915
32110W        W98519   1.545  19.095  12.569
32111W        W98520  26.597  36.462   3.428
32112W        W98521   4.811   9.640  11.468
32113W        W98522  35.730  41.923   1.527
32114W        W98523  31.446   4.708   1.772
32115W        W98524   4.919  36.416  11.060
32116W        W98525  23.268   6.880   3.252
32117W        W98526  19.300  33.553  11.912
32118W        W98527  42.458  38.497   4.668
32119W        W98528  44.381  44.723   1.307
32120W        W98529  25.160  35.008   3.259
32121W        W98530  40.265   7.747  11.390
32122W        W98531  10.350  15.366   5.124
32123W        W98532  31.151  39.220  14.463
32124W        W98533   2.889  11.344   0.347
32125W        W98534   4.798   7.621  13.809
32126W        W98535  13.459  24.897  10.599
32127W        W98536  31.450  33.565  13.005
32128W        W98537  25.559  34.064  11.048
32129W        W98538   8.619   4.847  11.946
32130W        W98539  27.863  30.255   1.802
32131W        W98540  24.857  12.362  12.454
32132W        W98541  25.847   1.257  12.177
32133W        W98542   5.437  36.776  13.061
32134W        W98543  18.297  22.230  12.337
32135W        W98544   9.296  40.891  13.136
32136W        W98545  31.893   6.444   4.129
32137W        W98546   4.928  33.610   1.441
32138W        W98547  12.332   6.709   2.790
32139W        W98548  13.545  42.324   0.559
32140W        W98549  12.813   7.325   4.296
32141W        W98550  32.560  22.207  13.009
32142W        W98551  20.923  10.860   1.341
32143W        W98552   1.721  21.684  11.544
32144W        W98553  40.411  37.432   3.559
32145W        W98554  10.658  21.804  12.041
32146W        W98555  17.000  35.577   0.357
32147W        W98556  27.833  30.519   0.734
32148W        W98557  42.770   1.886   4.144
32149W        W98558  15.348  42.128  12.533
32150W        W98559  12.289  31.722   0.329
32151W        W98560   3.094  25.024  12.971
32152W        W98561  38.535  27.228  12.454
32153W        W98562  27.468  34.990  11.193
32154W        W98563  13.122  33.520   2.386
32155W        W98564  20.317  24.908   0.502
32156W        W98565  37.631  41.283   2.670
32157W        W98566  30.731  26.512   1.998
32158W        W98567  32.563  28.128  12.878
32159W        W98568   5.548  32.587  12.894
32160W        W98569   1.243  12.193   0.273
32161W        W98570  28.348  34.444   1.925
32162W        W98571  18.107  34.541  14.935
32163W        W98572   3.524   3.385  13.309
32164W        W98573  14.245   2.363   2.242
32165W        W98574  39.998  29.948   1.834
32166W        W98575  40.930  31.901   3.358
32167W        W98576  18.024  37.874  10.080
32168W        W98577   1.525  13.240   0.896
32169W        W98578  38.297  26.341  11.390
32170W        W98579  19.096  41.596   1.718
32171W        W98580  41.910   4.654  11.175
32172W        W98581  39.869   4.240  10.577
32173W        W98582   1.569   5.337  11.219
32174W        W98583   8.098   0.828   4.503
32175W        W98584  23.626  42.117  14.424
32176W        W98585  10.269   0.441  11.524
32177W        W98586  13.918  32.382  14.424
32178W        W98587   9.853   0.250   0.016
32179W        W98588  28.228  12.825  13.023
32180W        W98589   5.253  44.022   0.003
32181W        W98590  27.129  36.588   3.152
32182W        W98591  44.258  42.841   4.617
32183W        W98592  19.751  39.746   1.439
32184W        W98593  29.083  23.053   2.629
32185W        W98594  12.420  10.877   4.117
32186W        W98595  21.897  18.204   4.979
32187W        W98596   2.471  28.907  10.511
32188W        W98597  10.345  33.951   4.036
32189W        W98598  30.022  21.738   4.312
32190W        W98599  25.546  13.795   3.102
32191W        W98600  42.437  22.957  13.253
32192W        W98601   2.327  43.029   3.692
32193W        W98602  10.665  21.873  13.452
32194W        W98603   2.814  42.761   2.709
32195W        W98604  26.145   8.118  14.403
32196W        W98605  36.819  36.968   0.873
32197W        W98606  37.367   0.428  14.350
32198W        W98607  18.746  34.972   2.165
32199W        W98608  32.620  25.966  10.761
32200W        W98609   1.766   3.695   0.831
32201W        W98610  19.551  16.100  13.851
32202W        W98611  30.575  44.784  14.297
32203W        W98612  11.751  20.924   3.698
32204W        W98613  39.162  20.306   3.666
32205W        W98614  14.859   6.247  12.655
32206W        W98615  37.458  19.644  11.614
32207W        W98616  18.149   3.076  10.489
32208W        W98617   7.557  27.223  14.417
32209W        W98618  40.012  44.665  12.857
32210W        W98619  15.326   7.802   1.887
32211W        W98620  38.585  24.931  14.838
32212W        W98621  30.072  37.586   3.279
32213W        W98622  34.667   1.229  14.381
32214W        W98623   9.688  23.171   3.865
32215W        W98624  22.096  36.479   3.575
32216W        W98625  21.653  41.808   3.227
32217W        W98626  35.235  39.950   2.628
32218W        W98627  28.977   3.293   0.436
32219W        W98628  24.028   7.691  10.456
32220W        W98629  19.520  40.939  10.934
32221W        W98630  41.873  24.437  14.478
32222W        W98631   1.760  19.157   4.960
32223W        W98632  33.894  19.272   2.152
32224W        W98633  24.692  14.719   3.317
32225W        W98634  29.164  13.731  12.404
32226W        W98635  10.783  16.513   2.385
32227W        W98636  40.063  37.864   0.870
32228W        W98637  23.984  18.087   2.702
32229W        W98638  31.002  24.984   3.747
32230W        W98639  13.747  37.794   2.688
32231W        W98640  35.381  44.274   4.814
32232W        W98641  21.525  21.631  11.153
32233W        W98642   3.592   7.690  11.494
32234W        W98643   5.826   0.506   4.228
32235W        W98644  38.322  44.816   0.361
32236W        W98645  44.026   0.843   2.118
32237W        W98646  43.719   3.430  13.848
32238W        W98647  27.189  35.785   1.291
32239W        W98648   0.649  12.409  11.561
32240W        W98649  28.462  41.935   1.019
32241W        W98650  13.224   0.995  12.086
32242W        W98651  12.939   4.302   2.372
32243W        W98652   4.195  19.078   1.380
32244W        W98653  31.515  11.946  11.270
32245W        W98654   3.768  36.003   0.185
32246W        W98655  35.921  40.591  14.242
32247W        W98656  43.824  28.514   3.146
32248W        W98657  30.948   5.940   4.600
32249W        W98658   2.987  15.766  13.501
32250W        W98659  16.177  11.279  12.894
32251W        W98660   3.789  39.747   0.459
32252W        W98661  16.285  17.215   4.149
32253W        W98662   9.984  16.255   0.421
32254W        W98663   8.273  15.568   1.598
32255W        W98664   6.569  43.262   2.325
32256W        W98665  25.496  13.065   1.220
32257W        W98666  22.796  38.303  14.938
32258W        W98667   7.179   3.189  14.811
32259W        W98668  31.466  41.874   4.211
32260W        W98669  14.744  33.119  10.908
32261W        W98670  23.013  12.206  12.454
32262W        W98671  30.593  10.381  14.406
32263W        W98672   0.338  13.117  10.893
32264W        W98673  44.691  35.417   2.249
32265W        W98674  21.121  26.074  12.473
32266W        W98675   7.680  22.569   0.438
32267W        W98676   3.556   8.176  13.108
32268W        W98677  36.909  19.704   1.880
32269W        W98678   1.351   6.213  11.401
32270W        W98679  29.912  44.415   2.397
32271W        W98680  18.974  33.043   0.454
32272W        W98681  39.573   7.344   4.571
32273W        W98682  13.373  19.868  11.067
32274W        W98683  29.709  12.170  13.054
32275W        W98684  31.080  42.693  11.070
32276W        W98685   4.763  22.260   1.009
32277W        W98686  38.368  44.053  12.434
32278W        W98687   6.230   3.750  12.436
32279W        W98688  29.404  30.014  13.352
32280W        W98689  29.293   9.878  12.623
32281W        W98690   7.696   2.714  14.469
32282W        W98691  22.124  11.665   2.557
32283W        W98692  35.574  11.821  13.004
32284W        W98693   7.620   0.579   1.712
32285W        W98694  27.865  43.943  11.173
32286W        W98695   3.922  18.527  10.720
32287W        W98696  14.839  21.320  13.749
32288W        W98697  16.285  20.128  14.868
32289W        W98698  33.995   1.259  11.491
32290W        W98699  41.333   7.756   0.542
32291W        W98700  44.891  16.237   4.849
32292W        W98701  23.373  35.554  11.405
32293W        W98702  17.761  27.713   3.758
32294W        W98703  31.467   3.686   2.271
32295W        W98704   8.267  33.521  13.616
32296W        W98705   5.528  30.025  11.001
32297W        W98706  21.193  19.140   2.271
32298W        W98707  27.999  11.165   3.176
32299W        W98708   2.635  28.617   4.596
32300W        W98709   9.896   3.024  10.478
32301W        W98710  15.760  38.272   3.297
32302W        W98711  15.807   0.257   3.729
32303W        W98712  26.139   0.594  13.453
32304W        W98713  36.140  13.315   1.228
32305W        W98714  18.280  12.181  10.935
32306W        W98715  36.351  23.703  14.836
32307W        W98716  27.969   8.402   0.582
32308W        W98717  21.815  37.345  12.839
32309W        W98718   4.976  18.035   1.222
32310W        W98719  44.448   3.477   3.223
32311W        W98720  42.801  35.553   4.672
32312W        W98721   7.200  13.623  11.956
32313W        W98722   2.838  43.545   4.034
32314W        W98723   0.068  38.104  11.913
32315W        W98724  35.824  25.721   4.101
32316W        W98725  43.791  17.865   4.066
32317W        W98726   2.874  27.559   1.817
32318W        W98727  16.095  28.247  14.799
32319W        W98728  30.986  15.147   2.998
32320W        W98729  13.557  35.393  13.928
32321W        W98730  36.806  34.740  12.162
32322W        W98731  31.357  31.383  13.572
32323W        W98732  41.471  19.552   4.660
32324W        W98733  11.063   2.406   4.573
32325W        W98734  20.597  35.879   3.610
32326W        W98735   6.910  18.401  11.462
32327W        W98736  30.101  36.751  11.733
32328W        W98737   5.100  30.942   4.747
32329W        W98738   5.882  38.367  10.996
32330W        W98739  33.741  15.076  13.811
32331W        W98740  17.733  43.728   3.765
32332W        W98741  39.947  37.950  11.304
32333W        W98742   7.830  20.824  10.685
32334W        W98743  23.115  36.355   3.750
32335W        W98744  29.720   7.443   1.225
32336W        W98745  42.377  14.686  13.830
32337W        W98746  20.763  43.826  11.519
32338W        W98747  37.090  35.432   3.742
32339W        W98748   2.297  33.847   2.417
32340W        W98749  30.364  40.043  10.911
32341W        W98750  26.636  24.028   0.520
32342W        W98751  19.426  29.046  13.951
32343W        W98752  31.701  14.632   1.389
32344W        W98753   0.603  14.160   3.703
32345W        W98754   6.141   1.017  12.851
32346W        W98755  35.530  42.487  10.420
32347W        W98756  33.613  16.711  12.642
32348W        W98757  39.995   9.855  12.582
32349W        W98758   3.478  13.276   0.778
32350W        W98759  32.943  11.601   1.902
32351W        W98760  25.960   0.471   3.802
32352W        W98761   2.670  17.655   0.441
32353W        W98762  15.039   0.332  10.552
32354W        W98763  35.484  44.808  14.651
32355W        W98764  39.117  32.376   1.765
32356W        W98765   9.267  15.695   4.584
32357W        W98766  28.856  44.861   1.860
32358W        W98767  38.548  13.800   0.938
32359W        W98768  42.893  33.398   1.778
32360W        W98769  37.932  12.018   2.824
32361W        W98770  16.535  30.609   4.804
32362W        W98771  13.563  34.610  12.435
32363W        W98772  18.199  43.467  12.173
32364W        W98773  42.939  13.433  14.840
32365W        W98774  23.695   2.777  11.489
32366W        W98775   9.881  32.936  13.887
32367W        W98776  13.580  26.364  14.041
32368W        W98777  26.245  24.028  10.820
32369W        W98778  34.680  14.222  13.404
32370W        W98779  39.232  42.043   1.961
32371W        W98780  23.612  22.026  13.973
32372W        W98781   0.893  27.467  12.474
32373W        W98782  30.020  26.521  12.795
32374W        W98783   3.806   3.759  14.874
32375W        W98784  12.451  42.249   1.237
32376W        W98785  24.548   6.190  12.178
32377W        W98786  34.476  28.762   0.907
32378W        W98787   3.470  39.218  12.841
32379W        W98788   7.259  28.161  11.555
32380W        W98789   6.739  39.758  11.135
32381W        W98790  22.758  16.788  11.019
32382W        W98791  14.378  37.511  12.036
32383W        W98792  29.190   3.480  12.927
32384W        W98793  41.390  38.327   3.815
32385W        W98794  22.102  26.385   1.306
32386W        W98795  13.025   2.274  13.895
32387W        W98796  44.842  19.334   1.230
32388W        W98797   4.003   0.515   4.174
32389W        W98798  36.398  36.888  11.238
32390W        W98799  41.936  29.413  12.523
32391W        W98800  11.113  12.819   4.715
32392W        W98801  31.336  40.972   4.130
32393W        W98802  42.826  26.410   3.738
32394W        W98803   9.001  22.646   4.991
32395W        W98804  43.109   7.164  12.226
32396W        W98805  16.589   0.709  13.770
32397W        W98806  17.206  22.435   4.120
32398W        W98807   0.676  43.432   1.269
32399W        W98808   1.419  10.091  13.364
32400W        W98809   2.775  27.038   2.499
32401W        W98810   3.941   5.795  12.936
32402W        W98811   8.389   8.859  11.278
32403W        W98812  33.067  22.940  10.631
32404W        W98813  14.330  30.446   1.738
32405W        W98814  39.286  28.464   1.273
32406W        W98815  13.765   4.208  11.600
32407W        W98816  35.463  22.984   2.786
32408W        W98817  21.235  28.381  12.788
32409W        W98818  33.791  23.215   3.549
32410W        W98819  44.580  16.265  11.759
32411W        W98820  43.477   0.461  10.559
32412W        W98821  24.770  22.367   1.109
32413W        W98822  14.386  15.701  10.686
32414W        W98823  22.093  30.077   4.340
32415W        W98824  43.672  34.184   3.809
32416W        W98825  21.573  10.454  13.847
32417W        W98826   1.461  10.968   5.667
32418W        W98827   4.708  26.014  14.904
32419W        W98828   4.337  25.075  11.148
32420W        W98829   1.822   6.420   0.394
32421W        W98830  19.131  25.765  12.374
32422W        W98831  11.447  40.795  11.993
32423W        W98832  42.006   8.163   1.372
32424W        W98833  41.930  35.024   0.555
32425W        W98834  27.475  28.647  10.889
32426W        W98835   8.219  17.056  11.075
32427W        W98836  28.803  10.266   1.153
32428W        W98837  42.253  37.451  12.405
32429W        W98838  36.407  38.537  14.357
32430W        W98839  25.780  21.157  10.861
32431W        W98840  14.669  12.383  14.250
32432W        W98841  16.877   6.006  13.928
32433W        W98842  27.423  34.154   3.926
32434W        W98843  39.697  34.590  14.788
32435W        W98844  42.575  27.239  11.226
32436W        W98845  31.941  29.098  11.307
32437W        W98846  44.575  40.460   4.542
32438W        W98847   5.531  42.807   4.232
32439W        W98848  20.739  13.017  12.110
32440W        W98849  13.358   6.681  10.715
32441W        W98850  14.708  33.983   4.916
32442W        W98851   4.702   4.639   2.817
32443W        W98852   1.508  39.037   1.177
32444W        W98853   0.343   7.311  13.209
32445W        W98854  22.908  40.108  12.913
32446W        W98855   5.686  27.426   2.175
32447W        W98856  10.158  16.450   4.050
32448W        W98857   6.364  38.395   2.823
32449W        W98858  44.340  38.237   2.455
32450W        W98859   2.526   1.837  13.247
32451W        W98860  15.123  30.653   3.143
32452W        W98861  17.716   8.846   2.869
32453W        W98862   3.771   7.295   1.333
32454W        W98863   8.877  20.117   3.803
32455W        W98864  40.893  17.948   1.768
32456W        W98865  16.283  28.476   0.233
32457W        W98866  10.312   9.124   0.132
32458W        W98867  22.056   1.460  13.081
32459W        W98868  15.864  11.696   4.077
32460W        W98869  12.959  33.374  10.613
32461W        W98870  31.037  11.338   2.507
32462W        W98871  40.830  35.651   4.159
32463W        W98872  20.720   4.642   4.469
32464W        W98873  38.413   7.908  13.043
32465W        W98874  13.606   5.313   1.891
32466W        W98875  20.076   3.999  12.248
32467W        W98876  35.801  26.114   0.923
32468W        W98877  15.300  44.820   2.592
32469W        W98878  15.267  43.169  12.446
32470W        W98879   5.788  43.283   4.184
32471W        W98880  38.319   5.214   1.910
32472W        W98881   2.835  38.948   4.912
32473W        W98882   8.614  39.031   0.276
32474W        W98883  21.088  17.636  10.378
32475W        W98884  18.854   5.369  14.319
32476W        W98885  25.602  13.905  13.938
32477W        W98886  44.062  24.790  12.783
32478W        W98887  30.832   2.517  14.016
32479W        W98888  18.620   0.745  12.076
32480W        W98889  38.827  20.599   3.974
32481W        W98890  12.503   5.957  11.740
32482W        W98891   4.486  35.134  12.858
32483W        W98892  31.277  12.844  13.431
32484W        W98893  36.008  43.961  14.474
32485W        W98894  10.332  13.428   1.795
32486W        W98895   0.105  25.731  13.451
32487W        W98896  40.039   4.882  12.631
32488W        W98897   2.896  24.125   0.993
32489W        W98898  12.377  32.317  14.315
32490W        W98899  19.836  41.932   1.016
32491W        W98900  34.128  12.626  10.780
32492W        W98901  26.411  28.768  11.234
32493W        W98902   1.796  19.775  13.483
32494W        W98903  38.051   4.686  13.937
32495W        W98904   6.246  21.190  12.055
32496W        W98905   1.894  43.408   1.914
32497W        W98906  10.147  26.252   4.366
32498W        W98907  41.095  24.909  11.183
32499W        W98908  35.557  22.066  13.034
32500W        W98909  13.255  32.991  10.981
32501W        W98910  25.939   6.719  10.548
32502W        W98911   8.072  28.535   0.840
32503W        W98912  39.926   0.952   2.644
32504W        W98913  44.056  24.006   3.903
32505W        W98914   2.806  42.145  13.513
32506W        W98915   0.900  34.973   2.793
32507W        W98916  34.844  36.349  14.595
32508W        W98917  32.889   3.870   3.350
32509W        W98918  31.956  36.894   4.183
32510W        W98919  31.431  10.946  14.804
32511W        W98920  35.295  16.345   0.720
32512W        W98921  35.945  23.644  14.489
32513W        W98922  20.231   3.950   2.659
32514W        W98923  30.696  36.983  12.525
32515W        W98924   1.469  30.161   3.338
32516W        W98925   2.779   4.637   1.265
32517W        W98926  43.366  21.737  12.327
32518W        W98927   6.167   3.144  10.002
32519W        W98928  29.039  34.250   3.088
32520W        W98929  38.328  22.645  11.026
32521W        W98930  17.704  21.261   4.632
32522W        W98931   8.318  40.289  11.957
32523W        W98932  38.055  36.055  12.272
32524W        W98933   7.148   8.632  11.190
32525W        W98934  44.316  21.708   3.048
32526W        W98935  32.164  28.129   2.409
32527W        W98936   6.640  25.622   4.383
32528W        W98937  20.662  37.018  12.424
32529W        W98938   3.269   2.534  13.449
32530W        W98939   5.834  36.540   0.298
32531W        W98940  18.983  22.892  14.319
32532W        W98941  23.915  34.688   4.137
32533W        W98942  13.144   8.207   4.064
32534W        W98943   8.184  19.559   1.421
32535W        W98944  24.162  16.809  12.967
32536W        W98945  20.040  10.675  12.025
32537W        W98946  14.573  10.725   3.758
32538W        W98947   5.250  11.777   2.396
32539W        W98948  35.827  14.840   0.643
32540W        W98949  39.331  21.239  14.706
32541W        W98950  15.115  10.177   0.350
32542W        W98951   7.384  31.853   0.877
32543W        W98952  36.984  19.366   3.675
32544W        W98953  17.511  23.751   3.359
32545W        W98954  41.749  23.408  12.014
32546W        W98955  42.121  31.497   0.728
32547W        W98956   6.896   5.942  12.505
32548W        W98957  43.837  14.227  13.859
32549W        W98958  41.038  22.570   0.823
32550W        W98959  43.934  31.400  13.942
32551W        W98960  10.018  35.064  10.108
32552W        W98961   9.203  36.039  13.833
32553W        W98962  19.332   9.752   1.820
32554W        W98963  33.023  14.358   1.243
32555W        W98964  29.517   1.307  12.819
32556W        W98965  19.824  38.603  13.584
32557W        W98966  40.449  32.114   0.957
32558W        W98967  21.661  26.003   0.298
32559W        W98968   5.257  39.198   2.267
32560W        W98969   4.121  40.980  10.686
32561W        W98970   7.898  43.864   4.618
32562W        W98971  35.421  38.360   3.203
32563W        W98972  31.044  36.649  10.720
32564W        W98973  35.416  23.615  14.552
32565W        W98974   4.336  39.449  14.035
32566W        W98975  12.343  33.528   2.677
32567W        W98976   2.568  25.617   4.239
32568W        W98977  41.837  42.946   1.233
32569W        W98978  10.663  24.608  12.633
32570W        W98979  30.882  38.320   1.126
32571W        W98980  16.667  26.741  14.535
32572W        W98981  15.578  20.175  13.308
32573W        W98982  37.599  22.503   3.639
32574W        W98983  27.763  29.954   4.262
32575W        W98984  44.526   7.754   4.078
32576W        W98985   6.910  24.101   0.248
32577W        W98986   8.810  41.901   0.969
32578W        W98987  11.851  34.886   3.635
32579W        W98988   5.433   7.388  14.983
32580W        W98989  24.429   1.477  12.451
32581W        W98990  24.269   7.565   2.119
32582W        W98991  12.700  14.283   4.157
32583W        W98992  44.863  23.411   4.319
32584W        W98993  23.481  27.328  12.811
32585W        W98994  11.436  25.304   2.684
32586W        W98995  33.915   1.911  14.380
32587W        W98996   3.194  23.520   5.089
32588W        W98997  44.277  28.013   0.026
32589W        W98998  24.234   3.248  10.283
32590W        W98999  41.851  44.925   0.503
32591W        W99000   6.532  25.751  12.154
32592W        W99001  36.918  35.334   3.224
32593W        W99002   6.634  38.268   3.818
32594W        W99003  29.244  39.866   4.020
32595W        W99004  20.271  22.716  14.796
32596W        W99005  23.217   9.962   4.608
32597W        W99006   7.321  18.447   1.268
32598W        W99007   7.235   8.914   0.422
32599W        W99008  25.822  18.238  12.641
32600W        W99009  18.894  17.681  12.799
32601W        W99010  35.043   8.344   0.304
32602W        W99011  38.959  35.034   0.357
32603W        W99012  32.500  13.104  11.305
32604W        W99013  15.034   2.351   4.952
32605W        W99014  28.491  14.382  13.280
32606W        W99015  10.806  27.109   3.669
32607W        W99016   8.231  36.068  12.126
32608W        W99017  34.066  11.244   4.663
32609W        W99018  15.628  11.536  13.938
32610W        W99019   1.218  35.492   2.227
32611W        W99020   0.871   9.830   4.119
32612W        W99021  13.815   4.272  10.616
32613W        W99022  16.802   9.653  12.481
32614W        W99023   7.294  23.427  12.431
32615W        W99024   4.853  19.416   4.811
32616W        W99025   7.283  14.208  13.497
32617W        W99026   0.910  18.127   3.261
32618W        W99027  33.060   6.317  10.697
32619W        W99028   0.535  13.808  12.064
32620W        W99029   1.029   6.253  14.926
32621W        W99030  24.958  15.532   2.507
32622W        W99031  10.323  34.934   4.435
32623W        W99032  41.474  22.750  12.957
32624W        W99033  44.240  35.659  11.643
32625W        W99034  36.632   1.816  13.308
32626W        W99035  39.947  20.056  14.539
32627W        W99036  21.055   6.024  14.463
32628W        W99037  19.120   0.404  12.869
32629W        W99038   6.883  21.128  12.637
32630W        W99039  25.656  35.132  13.417
32631W        W99040  19.588  42.802  14.066
32632W        W99041  42.844  26.959   2.819
32633W        W99042  15.844  20.608   2.269
32634W        W99043  20.058  13.793  14.073
32635W        W99044  21.600   1.208  14.416
32636W        W99045   1.852   2.675  11.738
32637W        W99046  10.035  11.752  14.577
32638W        W99047  35.080  35.060  14.209
32639W        W99048   6.305  41.582  13.308
32640W        W99049  17.209  33.037   3.238
32641W        W99050  22.608  31.891  12.328
32642W        W99051  35.850  40.844  13.807
32643W        W99052  17.767  36.190  14.490
32644W        W99053   9.445  14.040   2.213
32645W        W99054  39.491   8.879  14.872
32646W        W99055  43.187  17.688  13.461
32647W        W99056  37.737  24.720   0.773
32648W        W99057  37.544  26.467  14.287
32649W        W99058  40.552  39.837  12.184
32650W        W99059   6.263  37.879   1.877
32651W        W99060  44.779  13.739  14.781
32652W        W99061  39.832   3.998   2.765
32653W        W99062  32.839  20.403   2.415
32654W        W99063  34.014  28.568   0.762
32655W        W99064  14.727   4.741  11.154
32656W        W99065  43.548  38.824  14.462
32657W        W99066  20.222   0.007   2.919
32658W        W99067   9.349  35.016  10.256
32659W        W99068  31.693   2.969   1.548
32660W        W99069   1.116  44.313   0.956
32661W        W99070   2.479  27.594  14.582
32662W        W99071  29.119  18.740   0.437
32663W        W99072  19.590  36.427   0.944
32664W        W99073  37.915  37.037  11.425
32665W        W99074   4.945  10.898   0.333
32666W        W99075   1.571  24.153  11.810
32667W        W99076  37.019  12.331   4.536
32668W        W99077  32.066   4.745  14.331
32669W        W99078  31.696  19.486   3.638
32670W        W99079   2.777   1.755  14.100
32671W        W99080   3.324   2.757  14.441
32672W        W99081  35.873  16.860   4.402
32673W        W99082   9.701  41.483   1.682
32674W        W99083  33.324   3.020  13.019
32675W        W99084  34.761   4.170  10.326
32676W        W99085  31.127  19.311  10.831
32677W        W99086  41.567  17.538  11.220
32678W        W99087  44.356  31.469   3.340
32679W        W99088  29.656  31.486   0.853
32680W        W99089  20.503  44.576   3.215
32681W        W99090   4.705  28.033   3.380
32682W        W99091   3.788   7.738  11.958
32683W        W99092  11.771  15.457   1.476
32684W        W99093  37.883  43.962  12.538
32685W        W99094  14.334   9.253  13.936
32686W        W99095  36.253  39.897   0.510
32687W        W99096   2.427  32.416   2.645
32688W        W99097   6.551  37.559  14.372
32689W        W99098  38.210  36.500  14.895
32690W        W99099  37.616  12.727  14.529
32691W        W99100  21.063  14.938   4.169
32692W        W99101  30.045   3.517  11.557
32693W        W99102   8.760   6.624   1.801
32694W        W99103  42.293  27.004  10.853
32695W        W99104  22.868   9.843   2.696
32696W        W99105  12.283  35.607   1.830
32697W        W99106  27.457  15.706  13.073
32698W        W99107   6.891  31.135   3.268
32699W        W99108  26.703  32.970  12.775
32700W        W99109  38.933  37.720   1.547
32701W        W99110  38.689  10.438   0.233
32702W        W99111  14.105  11.251  14.447
32703W        W99112   1.381  10.748  10.726
32704W        W99113   4.751  18.834   1.926
32705W        W99114  43.764  44.824   1.023
32706W        W99115  40.966   9.686  11.328
32707W        W99116  43.477  31.645  14.821
32708W        W99117  22.130  39.850   4.076
32709W        W99118  31.860  17.718  12.897
32710W        W99119  34.431  21.702   1.393
32711W        W99120  35.066   1.854   4.839
32712W        W99121  41.348  25.995  10.769
32713W        W99122   9.207  29.079  12.634
32714W        W99123  15.806  20.453   0.952
32715W        W99124  30.469  16.660   4.283
32716W        W99125  39.576  23.247  11.984
32717W        W99126  21.815   9.389  12.133
32718W        W99127  33.696  25.141   4.725
32719W        W99128  31.061  44.576  13.513
32720W        W99129  24.565   5.213  11.972
32721W        W99130  39.461  23.468   1.448
32722W        W99131  15.851   3.932   4.081
32723W        W99132  19.960  20.567  13.624
32724W        W99133  27.639  35.068   0.857
32725W        W99134  29.017  40.303  11.945
32726W        W99135  36.316  19.664  13.378
32727W        W99136  34.528   8.766  14.697
32728W        W99137  18.247  33.353   2.937
32729W        W99138  13.568  42.395  10.795
32730W        W99139   9.598   9.375   2.593
32731W        W99140  21.688  28.220   2.728
32732W        W99141  44.077  16.723   0.406
32733W        W99142  34.991  41.249   4.672
32734W        W99143   4.497  38.109   1.986
32735W        W99144  28.991  36.792   3.189
32736W        W99145  24.214  21.164   0.339
32737W        W99146  44.193  28.248  14.553
32738W        W99147  21.584  44.280  14.573
32739W        W99148  12.700   1.775   4.960
32740W        W99149  13.308   9.640   3.859
32741W        W99150   1.000   7.503  12.467
32742W        W99151  28.600   4.867   4.304
32743W        W99152  26.711  40.699  13.990
32744W        W99153  41.367   1.202  11.180
32745W        W99154  15.885   6.172   4.749
32746W        W99155  43.059  24.764  14.514
32747W        W99156  14.917  38.344  11.639
32748W        W99157  28.719  27.965  11.122
32749W        W99158  23.120  27.590   2.319
32750W        W99159  13.613  15.577   0.859
32751W        W99160  41.219  18.272   4.496
32752W        W99161   5.534  19.791  12.092
32753W        W99162  10.695  28.192  13.254
32754W        W99163  38.557  22.286  11.972
32755W        W99164  37.504  26.590   4.132
32756W        W99165  25.624   1.639   1.406
32757W        W99166  35.085  36.679  13.394
32758W        W99167   1.400   1.896  11.882
32759W        W99168  10.197  18.318   4.537
32760W        W99169   4.307  43.048  13.976
32761W        W99170  28.166  23.597  14.392
32762W        W99171  35.549  18.882   1.152
32763W        W99172  39.264  33.214  13.241
32764W        W99173   3.730  21.217   4.466
32765W        W99174  34.466  11.280   2.749
32766W        W99175  21.137  40.866  13.801
32767W        W99176  15.263   0.260  12.958
32768W        W99177  44.795   3.269   1.889
32769W        W99178   8.509  17.327  14.819
32770W        W99179   7.634  40.847  13.853
32771W        W99180  31.398  10.188   4.682
32772W        W99181  31.360  17.819  10.905
32773W        W99182  15.742  41.547  12.157
32774W        W99183   9.785  34.334  12.525
32775W        W99184   0.174  34.509  13.272
32776W        W99185  19.690  19.560  10.652
32777W        W99186   2.963  40.377   2.857
32778W        W99187  33.757   4.749   4.094
32779W        W99188  33.225  37.267  13.433
32780W        W99189  42.898   9.669  12.107
32781W        W99190  40.684  41.987  11.547
32782W        W99191  14.060  34.389  12.512
32783W        W99192  31.091  10.100   1.690
32784W        W99193  27.769  32.014   1.561
32785W        W99194   5.370   8.158  13.484
32786W        W99195   1.753  23.680   0.027
32787W        W99196  15.721  23.531   0.405
32788W        W99197   9.074   4.769  12.736
32789W        W99198   3.043  17.124  13.462
32790W        W99199  37.910  35.873  13.483
32791W        W99200  32.370  25.115   4.810
32792W        W99201   7.707  44.837  12.479
32793W        W99202  41.518  22.457   0.963
32794W        W99203  38.679   9.118  13.336
32795W        W99204   6.299  33.392   4.519
32796W        W99205  36.181  12.549  12.549
32797W        W99206   5.185  35.543  11.375
32798W        W99207   6.889  20.715  13.409
32799W        W99208   8.723   6.121  12.437
32800W        W99209  33.533  10.174   4.666
32801W        W99210  28.605   7.354   2.434
32802W        W99211  10.143   7.852   1.823
32803W        W99212  11.954  15.226  14.687
32804W        W99213  32.748   7.599  13.051
32805W        W99214  42.542  30.153   0.757
32806W        W99215  17.232   8.361  11.297
32807W        W99216  39.886  42.961   0.710
32808W        W99217  13.842   8.033  11.641
32809W        W99218  39.808  36.625   4.134
32810W        W99219  19.227   7.333  12.755
32811W        W99220  11.367  19.371   4.612
32812W        W99221   8.120  43.530  10.576
32813W        W99222   9.461  35.111   4.094
32814W        W99223  14.588   4.177   3.225
32815W        W99224  14.769   2.817   0.452
32816W        W99225  21.586  31.601   4.225
32817W        W99226   9.140   5.404  14.563
32818W        W99227   3.902  10.095  11.701
32819W        W99228  31.426  42.367  13.038
32820W        W99229  34.032   3.338  13.749
32821W        W99230  21.007  29.881  14.942
32822W        W99231  15.165   8.847  12.920
32823W        W99232  10.786  37.955   0.495
32824W        W99233  30.955  16.273   3.343
32825W        W99234   5.638  26.050  12.116
32826W        W99235   9.877  39.927  14.887
32827W        W99236  21.554  26.916  11.207
32828W        W99237  24.930  24.745  10.294
32829W        W99238  13.184  35.055  10.253
32830W        W99239  44.326  12.399   4.218
32831W        W99240  33.941  40.778  12.622
32832W        W99241  13.281  17.045   0.356
32833W        W99242   0.427  19.479  11.169
32834W        W99243  36.013   8.702   2.314
32835W        W99244  35.842   2.858  12.886
32836W        W99245  15.358  22.587   5.008
32837W        W99246  27.189  24.942  14.409
32838W        W99247  40.891   3.533  12.087
32839W        W99248   3.078  38.769  14.570
32840W        W99249  26.103  27.931   1.451
32841W        W99250   7.110  44.306   4.104
32842W        W99251  18.583   0.409   0.946
32843W        W99252  11.183   3.018   1.844
32844W        W99253  13.839  36.415   2.796
32845W        W99254  42.797  43.947  10.707
32846W        W99255  10.131  13.279  12.193
32847W        W99256   9.787   9.724   4.875
32848W        W99257  28.760  41.888   3.602
32849W        W99258  26.971  33.344   2.827
32850W        W99259  12.201  38.150  10.579
32851W        W99260  34.141  15.588   0.399
32852W        W99261  32.101  20.207  13.493
32853W        W99262   0.722  32.393   4.385
32854W        W99263   4.937  35.082  11.193
32855W        W99264  11.271  43.656   5.406
32856W        W99265  28.261  21.547   3.325
32857W        W99266  37.529  24.557   2.849
32858W        W99267  14.138   2.035  11.926
32859W        W99268  19.800  20.110  13.803
32860W        W99269  36.308  41.667   3.250
32861W        W99270  34.533   9.862  11.889
32862W        W99271  38.316   3.364  10.411
32863W        W99272  29.427  32.461   4.001
32864W        W99273  28.482   8.393  13.929
32865W        W99274  31.798   1.403   2.639
32866W        W99275   7.330  18.708   0.810
32867W        W99276  16.589  34.855   4.215
32868W        W99277  10.595  42.499  14.359
32869W        W99278  28.286  12.677   1.394
32870W        W99279  35.137  15.088  13.051
32871W        W99280  16.800   1.942   2.770
32872W        W99281  20.115  39.396   3.271
32873W        W99282  37.346  10.521   4.081
32874W        W99283  28.010  23.750  13.912
32875W        W99284  36.046  28.638  12.907
32876W        W99285   8.748  24.764  11.283
32877W        W99286  34.423  39.312  14.664
32878W        W99287   3.944   9.336   3.352
32879W        W99288  43.455  30.462   3.430
32880W        W99289  44.241   2.243  12.170
32881W        W99290  13.801  10.671   2.142
32882W        W99291   4.679  18.237   3.068
32883W        W99292  18.667  11.865   0.021
32884W        W99293  21.697  37.413   2.589
32885W        W99294   2.744   6.256   4.188
32886W        W99295  17.031  36.973  14.551
32887W        W99296   7.756  35.581  13.438
32888W        W99297  20.014  41.417  12.529
32889W        W99298  36.105  40.489  13.527
32890W        W99299   5.122  29.681  14.192
32891W        W99300  38.146  44.361   2.505
32892W        W99301  27.968  42.859   3.865
32893W        W99302  41.979  27.864   2.649
32894W        W99303  37.523  24.584   1.885
32895W        W99304   5.956  29.345  11.476
32896W        W99305  18.760   8.680  12.842
32897W        W99306  43.643  23.891   4.198
32898W        W99307  38.455   6.607   4.123
32899W        W99308   2.450  14.232   2.397
32900W        W99309   5.553   6.303  12.618
32901W        W99310   3.390  10.113  10.803
32902W        W99311  17.441  36.117   1.107
32903W        W99312  14.976  23.632   9.926
32904W        W99313   5.403  33.060  14.250
32905W        W99314  27.578  36.525  13.457
32906W        W99315  25.529   8.217  12.446
32907W        W99316   7.883  15.719   0.799
32908W        W99317  29.344  39.866  12.034
32909W        W99318  27.945  43.437  14.876
32910W        W99319  22.436  31.067  14.148
32911W        W99320  26.554  42.341   2.131
32912W        W99321   9.746  18.481  12.199
32913W        W99322  33.006  25.265  12.883
32914W        W99323  12.254  22.063  12.758
32915W        W99324  30.672  17.202   2.253
32916W        W99325  32.926  28.340   0.260
32917W        W99326  27.414  36.977  11.528
32918W        W99327  20.991  11.386   1.332
32919W        W99328  27.352  13.724   3.131
32920W        W99329  22.791  16.064  14.526
32921W        W99330  18.091  23.077  13.298
32922W        W99331  17.640  12.187   0.801
32923W        W99332  28.164   5.767   1.684
32924W        W99333   0.926   4.233  12.909
32925W        W99334  19.849  10.998  12.415
32926W        W99335  20.940  42.896   2.710
32927W        W99336   0.968  36.648  11.100
32928W        W99337  34.976  42.563  13.826
32929W        W99338  15.365  19.500  10.523
32930W        W99339  39.606  13.343   2.859
32931W        W99340  14.179  22.258   2.655
32932W        W99341  30.148  30.898   4.640
32933W        W99342  41.484  12.063  10.680
32934W        W99343  35.816   2.251   0.438
32935W        W99344  38.486   0.196   1.887
32936W        W99345  36.215  44.986   3.246
32937W        W99346  33.884  31.373  14.545
32938W        W99347   1.543  37.933  12.399
32939W        W99348   3.148  27.990   2.772
32940W        W99349  41.401  30.099  11.187
32941W        W99350  42.978   5.734  12.490
32942W        W99351  32.850  29.955  14.028
32943W        W99352  33.567  10.891  10.665
32944W        W99353  14.159  31.379   1.822
32945W        W99354  23.411   0.311  14.351
32946W        W99355  18.385   6.184   1.684
32947W        W99356  39.853  18.833   4.860
32948W        W99357  36.176  38.073   2.349
32949W        W99358  27.119  11.846   0.188
32950W        W99359  31.129   4.431   4.505
32951W        W99360   9.308  34.450  12.973
32952W        W99361  13.111  24.248   4.158
32953W        W99362  28.853  12.788  14.790
32954W        W99363  14.748  37.791   0.658
32955W        W99364  11.299  35.619  12.868
32956W        W99365  35.079  13.318   3.528
32957W        W99366  21.583  29.060   1.445
32958W        W99367  15.154   8.120   0.448
32959W        W99368  38.859  26.020   0.272
32960W        W99369   7.230  42.256  12.401
32961W        W99370  24.246  26.106   0.725
32962W        W99371   0.719  15.618  14.526
32963W        W99372   8.671   4.262  11.913
32964W        W99373  29.925  20.012  11.159
32965W        W99374  17.509  43.893  14.102
32966W        W99375  29.933  39.048   0.723
32967W        W99376   6.897  41.066   1.248
32968W        W99377  13.793  18.329   2.323
32969W        W99378  15.460  39.509  14.967
32970W        W99379   6.316  12.785   3.661
32971W        W99380  41.989   6.360   0.009
32972W        W99381  36.930  26.265  11.106
32973W        W99382  14.325  34.501   1.355
32974W        W99383   6.823   4.905   3.830
32975W        W99384  26.487  23.359   1.877
32976W        W99385  21.143  33.665   2.233
32977W        W99386  27.586  12.409  10.991
32978W        W99387  22.165  16.395   1.221
32979W        W99388   5.355   0.497   4.426
32980W        W99389  22.032  40.105   2.772
32981W        W99390  34.181  35.123  13.325
32982W        W99391  20.526   9.244  12.617
32983W        W99392   3.514  15.607  11.141
32984W        W99393  41.255   7.439  12.085
32985W        W99394  35.970  27.633  13.857
32986W        W99395   5.981  16.590   3.608
32987W        W99396  32.091  13.223   3.108
32988W        W99397  15.623  27.601  13.261
32989W        W99398  33.478  12.238   3.104
32990W        W99399  30.037  27.629   3.263
32991W        W99400  41.579  44.355  13.895
32992W        W99401  19.105  40.083  11.097
32993W        W99402   3.400  25.849   2.899
32994W        W99403  14.824  31.129   1.413
32995W        W99404  34.680  16.050   4.386
32996W        W99405  35.944  14.511  13.976
32997W        W99406  12.796   5.709  13.873
32998W        W99407  38.427  41.494   4.353
32999W        W99408  13.918  22.226  11.810
33000W        W99409  16.755   8.576  11.454
33001W        W99410  21.681  22.155   2.926
33002W        W99411  44.488   7.699  12.111
33003W        W99412  37.712  29.955   3.108
33004W        W99413  30.206  25.162   0.452
33005W        W99414  44.273  32.986   3.250
33006W        W99415  27.016  25.237   3.606
33007W        W99416  39.109  17.769   0.281
33008W        W99417  25.508  34.165   2.210
33009W        W99418   3.199  22.353   0.959
33010W        W99419  34.343  44.421  13.594
33011W        W99420  43.860  32.002  12.645
33012W        W99421  33.009   9.499   2.770
33013W        W99422  18.233   7.664  14.610
33014W        W99423  21.435  12.548  10.369
33015W        W99424  27.159  18.234  12.410
33016W        W99425  16.342  39.003   4.477
33017W        W99426  10.859  33.465   3.562
33018W        W99427  14.909  28.610   3.487
33019W        W99428  41.028  36.033   1.371
33020W        W99429  18.572  42.418   2.097
33021W        W99430  11.848   5.137   2.094
33022W        W99431   6.893  16.353   1.732
33023W        W99432  19.469  41.687   2.258
33024W        W99433  25.157  31.109   2.633
33025W        W99434  29.891  39.827  10.782
33026W        W99435   3.698  26.518  12.954
33027W        W99436  29.053  30.845   1.869
33028W        W99437   8.737  31.246  10.822
33029W        W99438  24.535   9.639  10.321
33030W        W99439   9.220  36.405   3.357
33031W        W99440  23.972  27.437   4.368
33032W        W99441   9.174   3.475   1.276
33033W        W99442   1.309  31.353  11.407
33034W        W99443  33.600   9.372  12.103
33035W        W99444  10.298  15.814  11.065
33036W        W99445  32.492  38.904   2.741
33037W        W99446  42.449  37.323   0.365
33038W        W99447   4.012  19.805   4.161
33039W        W99448  36.651  13.663  13.250
33040W        W99449   6.701  20.399  13.036
33041W        W99450  16.569  41.412  11.487
33042W        W99451  43.255  22.527  13.364
33043W        W99452   3.612  13.173  14.786
33044W        W99453  26.093  42.014   3.569
33045W        W99454  41.536  16.576  12.016
33046W        W99455  16.786  38.622   0.873
33047W        W99456  42.507  41.228   1.787
33048W        W99457  41.548   7.472  14.785
33049W        W99458  38.485   5.203   0.103
33050W        W99459  12.399   2.363  12.932
33051W        W99460  39.543  32.185   3.660
33052W        W99461  30.537  16.642   3.321
33053W        W99462   0.011   8.018  10.665
33054W        W99463  15.601  38.299  14.991
33055W        W99464  30.055   6.565   1.403
33056W        W99465   9.310  23.721  13.390
33057W        W99466  15.775  21.184   2.865
33058W        W99467  23.684  21.668  12.657
33059W        W99468   6.887   3.383  11.935
33060W        W99469   7.267   8.867   3.254
33061W        W99470   6.342  34.113   0.439
33062W        W99471  32.962   6.770   1.837
33063W        W99472  21.619  28.227  11.543
33064W        W99473  41.552  39.148   1.992
33065W        W99474  17.130  40.492   0.828
33066W        W99475  40.202  26.444   3.071
33067W        W99476  22.178  12.628  10.586
33068W        W99477   5.422  18.082   4.176
33069W        W99478  38.925  37.631   3.519
33070W        W99479   4.175  22.551  12.617
33071W        W99480  18.775   7.892   0.261
33072W        W99481  13.801  37.469   2.092
33073W        W99482  18.551  41.980   0.397
33074W        W99483  22.139   1.800   1.748
33075W        W99484  23.529  33.619   1.469
33076W        W99485  32.304  37.532   0.127
33077W        W99486  42.318  37.667  12.891
33078W        W99487  37.884  35.674   1.533
33079W        W99488   3.673  12.133  12.901
33080W        W99489  12.728  36.878   0.323
33081W        W99490  37.982  44.976  10.578
33082W        W99491  21.217  34.522  14.506
33083W        W99492   2.907  21.834   2.982
33084W        W99493   5.340  29.637   3.325
33085W        W99494  38.839  19.552  13.842
33086W        W99495  12.315  26.611  12.895
33087W        W99496  27.036  26.474  13.560
33088W        W99497   5.097   7.014  11.947
33089W        W99498   4.971   7.681   1.219
33090W        W99499  40.698   4.365  12.533
33091W        W99500  18.106  21.304   0.250
33092W        W99501  20.126  21.313   5.041
33093W        W99502   8.675  20.097   0.923
33094W        W99503   0.778   4.414   1.760
33095W        W99504  34.341  36.653  13.192
33096W        W99505  37.588  32.763   3.408
33097W        W99506  18.126  23.140   1.455
33098W        W99507   9.219  12.258   3.873
33099W        W99508   2.284  24.762  11.142
33100W        W99509  23.738   5.111   3.710
33101W        W99510  13.494  20.100   5.212
33102W        W99511  13.748  19.251   3.611
33103W        W99512  11.313  36.112   0.257
33104W        W99513   5.687  37.567  14.886
33105W        W99514  19.129  44.905  12.797
33106W        W99515  27.052  29.843  10.834
33107W        W99516  42.758  41.316  13.513
33108W        W99517   3.197  31.706  14.484
33109W        W99518  35.989   5.336  11.213
33110W        W99519  20.602   5.787  14.323
33111W        W99520  41.308  15.906  11.228
33112W        W99521   1.767  25.086   4.592
33113W        W99522  43.996  31.397   0.847
33114W        W99523  15.628  14.683   2.709
33115W        W99524   2.561  29.866  14.726
33116W        W99525  27.075   4.775   0.792
33117W        W99526   6.709   3.273   0.001
33118W        W99527  12.236  21.607  10.955
33119W        W99528  28.912  20.749  13.403
33120W        W99529  33.522  32.619  10.059
33121W        W99530   9.930  36.517   3.788
33122W        W99531  44.584  43.706   0.449
33123W        W99532  33.206  21.703   3.031
33124W        W99533  44.920  32.611   1.605
33125W        W99534  17.056  22.685  14.499
33126W        W99535   1.986  37.729  11.353
33127W        W99536  16.635   5.306   2.359
33128W        W99537   2.274  34.552   0.926
33129W        W99538  16.305  18.618  11.218
33130W        W99539   4.360  42.247  12.592
33131W        W99540  25.888  44.978   2.639
33132W        W99541  36.418  30.510  13.743
33133W        W99542   6.152   0.806  11.863
33134W        W99543  35.953   3.826   2.473
33135W        W99544  33.347  20.734   4.773
33136W        W99545   1.501   5.902   0.917
33137W        W99546   9.194   4.906   2.768
33138W        W99547  37.323  15.064  10.756
33139W        W99548  12.289   2.943  14.880
33140W        W99549   2.214  35.549  12.652
33141W        W99550  12.197   3.214  12.459
33142W        W99551  39.527  15.771  10.567
33143W        W99552   3.033  41.253  12.165
33144W        W99553  34.534  17.553   3.903
33145W        W99554   2.363  26.234   0.644
33146W        W99555   5.502  11.224   1.219
33147W        W99556  41.387  39.347   0.083
33148W        W99557  22.557   6.977  13.456
33149W        W99558  18.816   8.110  12.313
33150W        W99559   8.869  38.942  14.846
33151W        W99560  16.828  36.090   0.483
33152W        W99561  23.228   4.816   0.641
33153W        W99562  23.440  30.485  12.095
33154W        W99563  43.444  40.941  13.351
33155W        W99564  42.229  19.167   1.618
33156W        W99565  37.256  26.592  13.424
33157W        W99566  14.767  16.319  14.556
33158W        W99567  18.261   0.093   1.437
33159W        W99568  23.707   6.610   3.637
33160W        W99569   7.138  17.229   4.023
33161W        W99570   0.255  15.606  11.949
33162W        W99571  26.773  44.203   3.351
33163W        W99572  19.334  19.262  14.931
33164W        W99573   7.231  32.057  10.288
33165W        W99574  36.788   7.155   3.748
33166W        W99575  37.834  35.005  13.861
33167W        W99576  11.531  32.301   3.763
33168W        W99577  41.299   3.721   0.781
33169W        W99578   4.188  25.087   3.711
33170W        W99579   3.410  13.527  12.909
33171W        W99580  32.641  25.535  13.517
33172W        W99581  24.721  39.511  12.897
33173W        W99582  28.165   7.582   2.322
33174W        W99583  39.788  37.731  13.983
33175W        W99584  13.999   4.459   2.251
33176W        W99585  17.332  20.757  10.260
33177W        W99586  15.112  39.046  14.372
33178W        W99587  42.918  44.242   0.548
33179W        W99588  37.684  15.335   9.850
33180W        W99589  28.881   8.761  13.470
33181W        W99590  41.213  40.462  13.128
33182W        W99591  39.939   4.932   2.777
33183W        W99592  16.304   6.822  11.793
33184W        W99593   2.477  32.910  10.842
33185W        W99594  36.349   7.681   3.636
33186W        W99595  14.693  18.698  11.253
33187W        W99596   1.320  12.302   2.823
33188W        W99597   6.798  27.656   2.615
33189W        W99598   1.917  13.636  13.947
33190W        W99599   7.637  20.736   1.397
33191W        W99600  20.096  35.482   3.317
33192W        W99601  25.561  22.282   1.435
33193W        W99602  11.424  33.094  13.858
33194W        W99603  44.858  27.415  13.953
33195W        W99604  25.094  16.421   4.321
33196W        W99605  17.564  13.808  14.909
33197W        W99606  41.535  42.251   1.242
33198W        W99607  20.547   8.575   0.188
33199W        W99608  16.121  39.289  13.405
33200W        W99609  39.863  33.668   4.446
33201W        W99610  16.621   1.863   0.667
33202W        W99611  41.407  19.717   1.207
33203W        W99612  44.431   5.326   3.751
33204W        W99613  15.001  35.763  13.015
33205W        W99614  35.102  38.326  14.859
33206W        W99615   0.786  30.452  14.878
33207W        W99616  28.227   1.863  10.690
33208W        W99617  16.788  17.557   1.130
33209W        W99618  28.219  29.002   4.147
33210W        W99619  17.354  23.567   3.826
33211W        W99620  39.544  23.530   0.068
33212W        W99621  10.560  11.842   0.663
33213W        W99622   2.339  13.351   4.673
33214W        W99623   9.574  22.959   1.234
33215W        W99624   8.826  19.442   1.964
33216W        W99625  20.993   5.912   0.279
33217W        W99626  34.512  41.347  13.272
33218W        W99627  29.711  18.670  12.145
33219W        W99628   1.387   8.190  13.412
33220W        W99629   7.272   3.681  12.857
33221W        W99630  28.063  14.138  11.518
33222W        W99631   3.610  33.458  10.870
33223W        W99632  10.572  38.609  12.747
33224W        W99633   4.890  26.925   1.962
33225W        W99634  41.968   5.802  10.741
33226W        W99635  16.227   6.483  10.556
33227W        W99636   9.333  36.944   4.019
33228W        W99637  40.538  19.695   2.354
33229W        W99638  43.835  18.095  12.368
33230W        W99639  20.218  17.450   0.294
33231W        W99640  39.118  20.789   1.759
33232W        W99641  17.829   9.096  14.801
33233W        W99642   0.953  26.274  14.779
33234W        W99643  27.297  34.121  13.453
33235W        W99644  43.865  29.512   4.368
33236W        W99645  38.875  29.171   0.120
33237W        W99646  31.464  20.787  12.543
33238W        W99647   9.759   9.171  10.635
33239W        W99648   7.953  24.881  12.537
33240W        W99649  21.479  15.787  13.881
33241W        W99650   5.805  38.302   1.887
33242W        W99651   0.844  38.765   2.405
33243W        W99652   2.180  16.786   1.908
33244W        W99653  15.882  15.822   2.351
33245W        W99654  40.449   7.567   2.670
33246W        W99655   6.642  39.199  11.500
33247W        W99656  20.321  13.110  10.567
33248W        W99657  28.691  39.477  14.525
33249W        W99658  41.793  20.447  14.560
33250W        W99659  43.857  16.644   1.451
33251W        W99660  22.088  13.049  12.061
33252W        W99661   1.925  25.305   4.146
33253W        W99662   5.197  32.357   0.842
33254W        W99663  29.259  26.195   4.140
33255W        W99664  10.932  36.051   1.017
33256W        W99665   6.567   2.107   0.374
33257W        W99666  24.316  38.038   2.736
33258W        W99667  40.870  33.010   1.382
33259W        W99668  18.218  27.896  12.399
33260W        W99669  25.924  38.570   2.635
33261W        W99670  14.710  16.551   0.995
33262W        W99671  44.124  24.883  10.156
33263W        W99672  32.012  44.302   2.215
33264W        W99673  24.778  22.555   0.404
33265W        W99674  36.448   4.937   0.352
33266W        W99675  13.335   9.344   0.903
33267W        W99676  37.898  21.612  11.224
33268W        W99677  11.156  40.856  13.225
33269W        W99678  10.269  15.568   2.038
33270W        W99679   7.369  29.335  14.471
33271W        W99680   5.694   2.383   3.153
33272W        W99681  29.324  38.381   4.650
33273W        W99682  40.181  13.814  13.862
33274W        W99683  17.652   8.906  11.872
33275W        W99684  29.839  16.107  12.429
33276W        W99685  14.248   5.476  12.273
33277W        W99686  17.754  29.103  11.196
33278W        W99687  33.424  37.720  14.482
33279W        W99688  37.862  13.102   4.620
33280W        W99689   1.472  37.528  12.084
33281W        W99690  22.542   5.347   1.912
33282W        W99691  28.943  31.441  12.529
33283W        W99692  25.150  36.323   4.589
33284W        W99693  12.629  10.563   1.462
33285W        W99694  19.594  24.583   4.599
33286W        W99695  44.317  28.157  14.064
33287W        W99696  16.235  14.958  11.757
33288W        W99697  38.442  25.636   2.229
33289W        W99698  33.815   3.784  13.560
33290W        W99699  38.224  11.582   2.755
33291W        W99700  37.288  15.269  11.607
33292W        W99701  23.200  33.362  12.025
33293W        W99702  28.901  13.528   0.865
33294W        W99703  35.841  23.929   3.565
33295W        W99704  29.489  11.851  14.412
33296W        W99705   2.768  29.387  11.242
33297W        W99706   8.723  31.478   2.396
33298W        W99707   5.825  18.985  12.994
33299W        W99708  14.587  25.843  11.038
33300W        W99709   1.150  23.049   4.118
33301W        W99710  11.700  38.682   1.478
33302W        W99711  36.543  39.020   2.112
33303W        W99712   3.946  36.069   4.154
33304W        W99713  30.190  36.829  14.814
33305W        W99714   6.348  39.408   2.758
33306W        W99715  18.592  43.367   3.672
33307W        W99716   9.305  33.670  14.911
33308W        W99717  14.340  41.436  10.378
33309W        W99718   5.224  21.234   2.440
33310W        W99719  11.817  43.745   2.830
33311W        W99720  26.500  40.999  14.374
33312W        W99721  28.204  35.891   5.246
33313W        W99722  38.825  42.430  14.772
33314W        W99723  24.769  33.427  10.581
33315W        W99724  17.749  28.584  10.302
33316W        W99725  17.460   6.358   1.047
33317W        W99726  33.408  17.787  10.359
33318W        W99727  17.765  38.394   1.731
33319W        W99728  26.922   4.294  12.503
33320W        W99729   0.865   2.982  14.462
33321W        W99730   5.339  16.153  12.156
33322W        W99731   7.213  21.832   4.490
33323W        W99732  22.376   9.407  13.469
33324W        W99733  37.664  21.659   3.135
33325W        W99734  19.044  35.353  13.235
33326W        W99735  24.975  17.237   1.927
33327W        W99736   7.967   1.914  11.702
33328W        W99737  25.581  35.343   1.215
33329W        W99738  35.814   0.465   1.296
33330W        W99739  24.803   3.279   1.512
33331W        W99740   1.866  24.553  11.978
33332W        W99741  18.243   0.519  11.814
33333W        W99742  38.192  17.025   1.771
33334W        W99743   9.323  28.532   0.785
33335W        W99744  41.900  13.539   2.606
33336W        W99745   4.250  10.723   0.993
33337W        W99746  12.857  41.529  14.245
33338W        W99747  37.377  13.563  12.552
33339W        W99748  41.050   1.972   3.826
33340W        W99749  18.848  42.426  11.236
33341W        W99750  28.479  33.067   2.834
33342W        W99751  32.847  31.586  13.401
33343W        W99752   8.247  21.745  13.015
33344W        W99753  12.233   7.494   3.162
33345W        W99754  13.295  41.285   2.328
33346W        W99755   0.648  17.213   2.960
33347W        W99756  32.680  16.273   2.465
33348W        W99757  18.545  28.664  12.433
33349W        W99758  23.732   7.750   2.869
33350W        W99759  27.411  40.992   4.555
33351W        W99760  35.923  34.547   1.729
33352W        W99761   9.915   6.418  11.645
33353W        W99762   1.891  15.473  13.856
33354W        W99763  24.897  38.831   1.920
33355W        W99764  26.163  37.967  14.209
33356W        W99765  13.075   8.034   1.914
33357W        W99766  11.789   9.720  11.142
33358W        W99767  31.486  29.127   1.919
33359W        W99768  40.191  40.892  10.746
33360W        W99769  27.347   8.740  11.652
33361W        W99770  11.209  41.556  12.530
33362W        W99771  26.995   1.841   3.780
33363W        W99772   8.933  26.993  13.995
33364W        W99773  21.732  37.531   3.928
33365W        W99774   4.449  34.483   3.633
33366W        W99775  30.212  33.464   0.891
33367W        W99776  40.827  12.152   1.326
33368W        W99777  27.943  23.127  10.690
33369W        W99778  31.619  43.328   3.158
33370W        W99779  44.939  38.442  14.769
33371W        W99780  35.761  35.795  11.940
33372W        W99781  28.456  14.045   2.787
33373W        W99782  22.475  39.004  14.365
33374W        W99783  17.811   1.509   4.236
33375W        W99784  14.125   6.273   3.267
33376W        W99785   0.473  29.673   3.370
33377W        W99786  13.167  36.834  11.211
33378W        W99787  28.665  13.220  14.987
33379W        W99788  33.323  41.308  11.653
33380W        W99789  10.622  23.357  14.103
33381W        W99790  16.840  18.722   0.542
33382W        W99791  40.093   5.491  11.979
33383W        W99792  28.772  19.716   3.920
33384W        W99793  20.479  14.790  12.848
33385W        W99794  13.331  39.900  13.475
33386W        W99795  11.783  43.546   2.342
33387W        W99796  37.804  20.590   3.609
33388W        W99797  17.039   0.726  12.037
33389W        W99798  40.954   4.391   4.071
33390W        W99799  16.642  26.264   3.111
33391W        W99800  20.614  39.578   2.254
33392W        W99801  35.305   1.317   0.637
33393W        W99802  41.577   1.446   1.226
33394W        W99803  13.706  13.097  12.018
33395W        W99804   5.046  38.630  12.029
33396W        W99805  32.181  10.167  12.437
33397W        W99806  16.620  42.211  14.985
33398W        W99807  31.315   4.881   1.215
33399W        W99808  20.926   0.097   4.263
33400W        W99809  28.459   4.415   0.199
33401W        W99810  17.507  26.633  11.866
33402W        W99811  17.134   7.713  12.490
33403W        W99812  36.302  17.098  12.581
33404W        W99813   0.493  11.431   4.868
33405W        W99814  16.271   1.010   2.822
33406W        W99815  17.324  29.450   2.838
33407W        W99816  40.923  43.832  10.987
33408W        W99817   9.130  14.150   1.807
33409W        W99818  19.704   9.976   2.223
33410W        W99819  26.725  12.846  11.196
33411W        W99820  21.718  36.427  10.948
33412W        W99821  36.688   4.464   0.492
33413W        W99822   7.175  40.391  11.980
33414W        W99823   8.306   2.540   2.253
33415W        W99824   5.194  26.524  12.956
33416W        W99825  40.032  11.053  12.023
33417W        W99826  17.030  40.873  14.326
33418W        W99827  30.587  36.173  11.263
33419W        W99828  35.439   3.168   0.098
33420W        W99829   2.603  31.518   1.236
33421W        W99830  38.981  29.266   3.596
33422W        W99831  16.296   8.104  11.989
33423W        W99832   6.318  14.288   4.600
33424W        W99833   4.042  14.331   1.387
33425W        W99834  13.505  27.002  10.943
33426W        W99835  14.709   5.379   4.381
33427W        W99836  40.296  28.095   1.950
33428W        W99837   5.151   7.974   4.660
33429W        W99838  41.603  22.029   0.363
33430W        W99839   2.966  42.983   5.360
33431W        W99840  43.321   9.901   3.974
33432W        W99841  21.781  13.249  14.943
33433W        W99842  34.045   6.727  12.160
33434W        W99843  31.330   6.985   3.324
33435W        W99844  26.098  16.697   0.632
33436W        W99845   8.340  26.956  13.441
33437W        W99846   2.891  22.056  14.336
33438W        W99847  11.308  35.443   2.340
33439W        W99848  34.199  14.915   3.297
33440W        W99849  31.905  22.800  13.462
33441W        W99850  10.349  10.661   1.407
33442W        W99851   0.729  32.318   1.900
33443W        W99852   0.945  17.769  12.615
33444W        W99853  19.869   4.903  12.015
33445W        W99854   2.781  13.859   3.811
33446W        W99855  25.699  41.530   9.568
33447W        W99856   4.876  15.339   4.513
33448W        W99857   7.092  22.528  13.805
33449W        W99858   7.606  36.551   4.262
33450W        W99859  37.855   1.798   1.010
33451W        W99860   6.426   1.268  13.178
33452W        W99861   1.620   7.736  10.094
33453W        W99862  31.781  30.526   3.613
33454W        W99863   3.206  24.451   4.193
33455W        W99864  15.342  42.333  13.383
33456W        W99865  28.028  14.867   2.770
33457W        W99866  28.390   6.188  10.950
33458W        W99867   9.721  26.065  12.019
33459W        W99868  27.729   0.687  13.913
33460W        W99869  22.101  37.487   0.059
33461W        W99870  23.731  20.676   3.776
33462W        W99871  43.670  22.254   3.681
33463W        W99872  19.432  21.175   1.176
33464W        W99873   3.918  32.796  13.435
33465W        W99874  20.288   6.446  12.512
33466W        W99875  22.030  30.267   3.264
33467W        W99876   0.201  28.589  13.613
33468W        W99877  44.901  19.969  10.672
33469W        W99878  32.906   4.237   2.626
33470W        W99879  20.394  11.388  13.007
33471W        W99880  35.506  23.746   3.219
33472W        W99881  21.734  16.600   4.585
33473W        W99882  17.256  15.878   1.734
33474W        W99883  41.218  10.493   3.560
33475W        W99884   7.045  27.914  14.101
33476W        W99885  21.416  10.842   0.229
33477W        W99886  36.781  14.098   3.371
33478W        W99887  26.316  37.343  11.417
33479W        W99888   0.194   5.727  14.784
33480W        W99889   7.867  28.544  11.984
33481W        W99890  23.927   1.959  11.563
33482W        W99891  39.028   0.031  14.358
33483W        W99892  42.752  21.663   4.167
33484W        W99893   3.765  43.450   3.942
33485W        W99894  25.631  35.621   4.546
33486W        W99895  43.793  21.255   2.691
33487W        W99896  33.604  30.859   1.367
33488W        W99897  26.457  16.528   2.720
33489W        W99898  19.127   8.076   1.210
33490W        W99899  24.932  29.636   3.346
33491W        W99900  19.057  41.590  12.448
33492W        W99901  33.909  19.381   4.249
33493W        W99902  39.476  14.460  14.995
33494W        W99903  36.926   7.480  11.803
33495W        W99904  12.292  23.221   1.459
33496W        W99905   7.295  26.461   1.940
33497W        W99906   6.771   4.795   0.954
33498W        W99907   8.609  27.314   3.662
33499W        W99908  11.076  14.666  10.718
33500W        W99909  19.892  38.744   2.079
33501W        W99910  28.880  32.401   0.372
33502W        W99911  34.137  10.273  14.951
33503W        W99912   7.199  32.327  14.081
33504W        W99913  43.377  41.055   2.441
33505W        W99914   5.480  20.720  14.456
33506W        W99915   4.270  16.531  12.142
33507W        W99916  13.220  43.512  12.402
33508W        W99917  22.273  13.385   0.072
33509W        W99918  13.695   6.696  14.917
33510W        W99919   9.216   4.520   1.494
33511W        W99920   7.290  15.320   3.863
33512W        W99921  35.563  35.050   4.108
33513W        W99922   8.629   2.480  14.476
33514W        W99923  21.170  36.670  10.039
33515W        W99924  10.954  18.089   1.287
33516W        W99925  13.614  18.140  14.457
33517W        W99926  33.652  34.330  11.268
33518W        W99927  28.216  34.963  13.771
33519W        W99928   6.050  43.832  11.389
33520W        W99929   5.279   6.266  13.055
33521W        W99930  28.369  36.056   2.359
33522W        W99931  43.982  12.418   3.708
33523W        W99932  30.438  38.231  11.189
33524W        W99933   8.410   2.236   3.720
33525W        W99934  25.320  40.933  12.471
33526W        W99935  23.831  16.570   4.703
33527W        W99936  18.299  34.694   2.811
33528W        W99937   1.954  43.178  13.874
33529W        W99938  42.976  16.463   3.588
33530W        W99939  34.851  36.147  11.994
33531W        W99940  31.854  31.508  12.685
33532W        W99941   7.727  40.532   0.297
33533W        W99942   3.229  25.349   3.598
33534W        W99943   4.277   3.040  14.638
33535W        W99944  34.563  14.390  14.831
33536W        W99945  16.984  24.464  13.440
33537W        W99946  23.876  38.056   4.571
33538W        W99947   4.030  30.669  11.552
33539W        W99948  44.018  16.228  10.600
33540W        W99949   0.058  42.931  10.360
33541W        W99950  34.065  14.283  10.824
33542W        W99951  40.612  28.718   1.405
33543W        W99952  20.253   0.901   4.060
33544W        W99953  22.367  18.215  10.427
33545W        W99954  27.274  38.954  12.822
33546W        W99955  28.848   1.614  14.885
33547W        W99956  44.975   3.303   3.858
33548W        W99957  13.025  37.448  13.868
33549W        W99958  37.609  13.618  10.665
33550W        W99959  15.117  39.209   5.027
33551W        W99960  15.856  19.793   1.127
33552W        W99961   2.236  13.517  10.783
33553W        W99962  36.657   0.404   0.052
33554W        W99963  36.738   3.254  12.180
33555W        W99964  20.288  43.814  11.970
33556W        W99965  18.643  43.723   0.211
33557W        W99966  29.936   7.391   2.043
33558W        W99967   8.703  23.744   1.405
33559W        W99968   3.390  38.253   4.139
33560W        W99969  40.632  43.289   1.768
33561W        W99970  27.228   5.604  10.746
33562W        W99971   0.688  22.073   4.183
33563W        W99972   0.701  16.094   0.745
33564W        W99973  23.148   2.217   3.020
33565W        W99974  14.861  25.491  12.961
33566W        W99975  27.341  16.125  13.830
33567W        W99976  36.448  22.885  10.975
33568W        W99977   7.994  16.165  11.860
33569W        W99978  21.587   6.644   3.763
33570W        W99979  30.907  37.799  14.509
33571W        W99980  41.982  44.008   2.765
33572W        W99981  39.448  44.566   1.917
33573W        W99982  32.743  43.291  14.286
33574W        W99983   7.834   3.359   4.629
33575W        W99984  36.130  24.291  12.515
33576W        W99985  12.350   3.695  14.327
33577W        W99986  15.946  27.021   0.310
33578W        W99987  35.988  19.594   9.823
33579W        W99988   8.874  44.283   2.393
33580W        W99989  33.349  15.730   4.597
33581W        W99990   9.197   6.906   3.824
33582W        W99991   1.525  13.375   1.723
33583W        W99992  21.252  18.793  13.434
33584W        W99993  16.767  17.042  11.159
33585W        W99994  32.458  43.602  14.580
33586W        W99995  28.147  29.058   0.225
33587W        W99996   9.683   1.864   4.114
33588W        W99997  42.579  40.760  10.622
33589W        W99998  22.568  32.857   0.767
33590W        W99999   3.194  23.650  14.524
33591W        W    0  19.658   2.064   4.414
33592W        W    1  29.095  17.063   3.814
33593W        W    2  23.221  11.801   4.586
33594W        W    3  17.319  38.806   3.113
33595W        W    4  25.017   0.402   2.788
33596W        W    5  22.810  44.352   3.680
33597W        W    6  10.232   1.270   1.931
33598W        W    7  23.426  11.197   1.291
33599W        W    8  26.733  34.659  13.949
33600W        W    9  44.513  32.957  14.533
33601W        W   10  35.884   1.017   4.506
33602W        W   11   5.936  30.816  10.789
33603W        W   12  17.281  43.731   4.094
33604W        W   13  31.622  21.559   0.717
33605W        W   14  30.658  27.830  11.961
33606W        W   15  25.029  42.421  14.567
33607W        W   16  42.043   9.762  13.106
33608W        W   17  43.775   5.739  14.402
33609W        W   18  23.708   9.202  12.540
33610W        W   19  18.640   7.249  11.092
33611W        W   20  13.685   4.457   1.854
33612W        W   21   7.284   7.792   4.799
33613W        W   22  36.857  31.575   3.214
33614W        W   23  41.548  21.323  14.869
33615W        W   24  14.255  31.609  12.955
33616W        W   25  42.272  41.494  11.867
33617W        W   26  38.161   1.186   3.672
33618W        W   27  39.353  34.965   2.392
33619W        W   28  31.200  12.702  10.356
33620W        W   29  28.721  12.142   0.820
33621W        W   30  18.819  20.820  14.896
33622W        W   31   2.823  23.689   3.738
33623W        W   32  32.367  16.703   3.703
33624W        W   33  10.712   6.155   1.374
33625W        W   34  16.716  42.851  12.588
33626W        W   35  35.211  37.847  10.983
33627W        W   36  18.167   3.055  13.049
33628W        W   37   6.793  20.073  10.797
33629W        W   38   7.674   5.428   0.157
33630W        W   39  44.402  40.971   4.505
33631W        W   40  34.986  14.242   2.704
33632W        W   41  42.694   8.060   2.789
33633W        W   42  39.824   5.777   2.984
33634W        W   43  30.563  44.284   3.740
33635W        W   44   6.287  34.372  14.055
33636W        W   45  30.639  36.030  14.938
33637W        W   46   4.658  20.154  12.853
33638W        W   47  19.067   2.120   3.663
33639W        W   48  29.058   3.780   0.260
33640W        W   49  17.200  40.448  14.888
33641W        W   50   0.009  27.080   3.685
33642W        W   51   9.788   7.878  13.737
33643W        W   52  38.030   7.984   1.968
33644W        W   53   0.299   1.871  11.934
33645W        W   54  14.570   7.487   2.347
33646W        W   55   6.060   9.133  14.614
33647W        W   56   4.523  24.057   0.817
33648W        W   57  28.456  22.996   5.433
33649W        W   58  23.503  43.094   1.681
33650W        W   59  42.107  23.371   0.889
33651W        W   60   3.048  29.457  11.700
33652W        W   61  13.417   8.842   2.694
33653W        W   62  13.720  23.734  10.923
33654W        W   63  12.130  28.826  14.987
33655W        W   64  12.225  22.913  11.627
33656W        W   65  11.648   5.847  14.535
33657W        W   66  17.625  17.916  12.922
33658W        W   67  44.001   6.884  14.555
33659W        W   68  29.516  38.321  11.109
33660W        W   69   1.111   8.313   3.190
33661W        W   70  40.010  34.072   4.150
33662W        W   71  23.190  34.580  11.574
33663W        W   72  41.146  30.788  10.700
33664W        W   73  11.624  43.838  11.134
33665W        W   74  19.245  32.519  13.667
33666W        W   75  20.458   2.368  14.799
33667W        W   76  27.722   9.260  13.363
33668W        W   77   0.219  20.019  12.007
33669W        W   78  44.635   2.445  11.924
33670W        W   79  17.641  11.878  13.899
33671W        W   80   1.327  36.509  10.703
33672W        W   81  31.539  30.646   1.818
33673W        W   82  42.906  16.738   2.222
33674W        W   83  37.027  19.915  11.671
33675W        W   84   3.784  32.522  12.426
33676W        W   85   3.225   0.506  11.373
33677W        W   86   8.422   5.377  13.733
33678W        W   87  15.084  38.014   3.772
33679W        W   88  19.228  23.210   2.899
33680W        W   89  20.522  27.876   3.268
33681W        W   90  14.172  44.193  13.959
33682W        W   91  35.369  23.019  12.670
33683W        W   92  39.862  26.857   1.905
33684W        W   93  25.569   5.218   3.853
33685W        W   94  41.261   5.385  12.040
33686W        W   95  21.215  27.487   0.826
33687W        W   96  31.952  27.940   0.092
33688W        W   97  40.397   9.032  14.948
33689W        W   98   2.869  44.691   0.885
33690W        W   99  37.464  29.184  11.660
33691W        W  100  29.211  37.602   1.871
33692W        W  101  44.692   8.543   0.434
33693W        W  102  43.586   5.790   3.684
33694W        W  103  17.506   7.904  13.418
33695W        W  104   0.954  24.263   1.813
33696W        W  105  36.457   7.303   3.325
33697W        W  106  27.926  28.610   0.910
33698W        W  107  29.570  13.561   0.829
33699W        W  108   9.280  36.289  10.652
33700W        W  109  40.078  30.023  13.255
33701W        W  110  27.034  23.480   3.098
33702W        W  111  23.012  19.808  11.427
33703W        W  112  22.667   6.713   0.958
33704W        W  113  21.060   6.351   1.342
33705W        W  114  34.014  38.146  10.809
33706W        W  115   7.365  44.456   0.946
33707W        W  116  38.034   8.187  14.794
33708W        W  117  38.621   5.238   1.493
33709W        W  118  44.206  26.303  13.469
33710W        W  119  35.166  27.170  11.662
33711W        W  120   3.737   1.955   1.932
33712W        W  121   1.384  30.970   4.067
33713W        W  122  10.195  13.175  11.711
33714W        W  123  27.199   3.483  12.977
33715W        W  124  22.046  21.817   0.783
33716W        W  125   4.091  32.944  12.475
33717W        W  126  14.425   6.887   4.646
33718W        W  127  19.163  39.054   1.474
33719W        W  128  42.655   6.966  13.818
33720W        W  129   4.028   3.341   0.602
33721W        W  130  42.489  33.134  11.156
33722W        W  131   8.121   9.977  10.626
33723W        W  132  44.022  41.780   3.157
33724W        W  133   8.426  18.808  13.028
33725W        W  134  14.444   9.894  12.425
33726W        W  135   7.749  19.086  12.020
33727W        W  136  33.577  39.984   4.864
33728W        W  137  15.226  32.036  12.158
33729W        W  138  11.990  43.807   9.854
33730W        W  139  41.356  43.022  14.876
33731W        W  140  28.871   2.910  14.039
33732W        W  141   8.121  34.086  12.987
33733W        W  142  41.745  22.950   0.962
33734W        W  143   7.123   9.443   3.210
33735W        W  144  10.198  41.791   1.753
33736W        W  145  11.891  44.290  13.675
33737W        W  146  35.968  44.967   1.028
33738W        W  147  35.913  23.994  14.853
33739W        W  148  31.256  26.427  14.846
33740W        W  149  39.868  42.265  11.207
33741W        W  150  33.707  33.913  14.397
33742W        W  151   2.806   8.876   0.930
33743W        W  152  41.738   0.952  12.448
33744W        W  153  38.592  26.450  12.843
33745W        W  154  41.059  37.774  13.523
33746W        W  155  32.527  11.798   1.652
33747W        W  156  36.586   9.859   0.428
33748W        W  157  25.687  23.051  14.834
33749W        W  158  38.938   2.686   3.356
33750W        W  159   7.685  15.060   0.991
33751W        W  160   5.211   5.821  10.354
33752W        W  161  25.158   7.120  10.280
33753W        W  162  21.914  15.035  13.428
33754W        W  163  36.500  23.482   2.321
33755W        W  164   3.414   1.406   3.412
33756W        W  165  38.600   2.155   0.348
33757W        W  166   5.315  15.793   1.345
33758W        W  167  44.358  44.029  13.176
33759W        W  168  42.529  24.476   2.903
33760W        W  169  43.120  33.922   1.808
33761W        W  170  36.132  20.268   2.286
33762W        W  171  42.989  25.536  13.064
33763W        W  172   2.919  32.422   2.862
33764W        W  173  30.572  12.072   2.790
33765W        W  174  19.626  26.654   4.564
33766W        W  175   7.390  12.258  13.296
33767W        W  176  27.184  25.948  14.846
33768W        W  177  40.758   7.636   2.260
33769W        W  178   6.275  39.912   2.860
33770W        W  179  11.775  13.822   3.772
33771W        W  180   0.501  44.264  12.282
33772W        W  181  37.419  32.833  12.071
33773W        W  182  13.344  18.871  11.030
33774W        W  183  14.674  36.744   3.172
33775W        W  184  20.518  33.544   0.685
33776W        W  185   7.022  35.664   0.502
33777W        W  186   6.705   5.726   0.452
33778W        W  187  15.639  21.702   3.562
33779W        W  188  33.449   5.329   0.329
33780W        W  189  17.093   1.402   2.880
33781W        W  190  30.754   6.948  11.500
33782W        W  191  22.932  38.503  12.015
33783W        W  192  40.612  14.254   2.733
33784W        W  193   4.212  21.281  12.933
33785W        W  194  36.652  39.971   4.667
33786W        W  195  25.041  20.178   5.333
33787W        W  196  27.167  34.353  14.890
33788W        W  197  25.039  44.601   2.742
33789W        W  198   4.168   6.115   1.037
33790W        W  199  33.507  38.010  11.594
33791W        W  200  16.195  28.440  11.069
33792W        W  201  16.725  44.709  13.053
33793W        W  202   1.364  35.589   1.333
33794W        W  203  15.062   8.428   4.007
33795W        W  204  21.798  34.472   1.125
33796W        W  205  44.840  20.139   3.092
33797W        W  206  24.827  35.024  12.419
33798W        W  207  21.761  42.961   4.631
33799W        W  208  41.460  40.887   1.515
33800W        W  209  29.215  16.688  14.088
33801W        W  210   9.940  43.307   2.316
33802W        W  211  10.825   8.575  14.263
33803W        W  212   7.773   2.049   2.829
33804W        W  213  14.663  21.723   0.366
33805W        W  214  28.478  31.281   4.141
33806W        W  215  17.325  13.081   2.780
33807W        W  216  36.119  11.954   2.722
33808W        W  217  27.354  39.397   1.823
33809W        W  218  25.039  21.523   1.249
33810W        W  219  38.556  12.225   1.324
33811W        W  220  15.662  44.493   4.704
33812W        W  221  30.763  26.297  14.971
33813W        W  222  31.634  25.897   2.806
33814W        W  223   7.916  33.589  14.428
33815W        W  224   1.994  40.565   0.427
33816W        W  225   1.021   0.891  14.485
33817W        W  226   7.815  43.096  12.020
33818W        W  227  13.653  12.396  10.545
33819W        W  228  39.331   0.343  11.490
33820W        W  229  36.538  44.148  13.041
33821W        W  230  27.509   2.007  14.951
33822W        W  231  35.790  13.436  13.504
33823W        W  232  38.486  24.245  13.867
33824W        W  233  17.752   5.314   3.335
33825W        W  234  27.095  10.848   1.270
33826W        W  235  43.933  14.295   0.868
33827W        W  236   3.351  41.292  13.984
33828W        W  237  18.327  32.149   1.268
33829W        W  238   0.980  26.052   1.725
33830W        W  239  14.174   6.955   0.948
33831W        W  240  27.323  21.557  11.892
33832W        W  241  29.876  38.950   3.635
33833W        W  242  13.268  30.073   4.640
33834W        W  243  24.651  28.969  14.069
33835W        W  244  36.025  32.146  13.840
33836W        W  245  25.662  39.816  14.980
33837W        W  246  25.966   2.410   0.912
33838W        W  247  20.728  28.005   2.802
33839W        W  248   0.356  32.973   3.208
33840W        W  249  32.072   0.418  14.348
33841W        W  250  13.251   0.431   1.712
33842W        W  251  34.642  11.970  11.428
33843W        W  252  37.965  38.888  13.945
33844W        W  253  28.071  23.927   3.834
33845W        W  254  25.139  39.356   2.748
33846W        W  255  28.594  38.828   0.906
33847W        W  256  18.070  15.339   0.688
33848W        W  257  44.371  25.141   0.175
33849W        W  258  13.131  12.835   4.609
33850W        W  259   9.856  12.634  10.738
33851W        W  260  37.603  38.521   4.287
33852W        W  261  11.238   1.729   2.794
33853W        W  262  16.617  31.892  12.990
33854W        W  263  15.387  10.790  11.089
33855W        W  264   0.424  44.015   1.267
33856W        W  265  20.748   3.301   3.593
33857W        W  266   5.477  30.560   1.790
33858W        W  267  27.583  14.362   0.816
33859W        W  268  22.240  13.148   1.856
33860W        W  269  43.569   0.975  10.574
33861W        W  270  13.408  11.136   0.509
33862W        W  271  19.601   1.295  11.484
33863W        W  272  42.561   6.191   4.665
33864W        W  273  18.500  25.653  11.430
33865W        W  274  20.034   7.271  12.544
33866W        W  275   2.228   9.020  12.171
33867W        W  276   7.671   4.485  14.965
33868W        W  277  37.652  15.928  11.429
33869W        W  278  30.414  32.510  10.808
33870W        W  279   0.021  20.014   4.411
33871W        W  280  34.922  29.403  13.345
33872W        W  281  29.664  20.931   0.444
33873W        W  282  38.591  11.196   4.069
33874W        W  283   7.849  18.909   3.841
33875W        W  284  21.257  25.124   2.860
33876W        W  285  31.643  43.521  10.740
33877W        W  286   4.072  37.536   4.329
33878W        W  287  23.714  18.738   0.738
33879W        W  288  15.080   4.990   0.919
33880W        W  289  22.796   0.265   3.102
33881W        W  290  10.592  13.727   2.755
33882W        W  291  23.894  44.313  11.152
33883W        W  292   7.850  30.739  14.543
33884W        W  293  17.991   6.675   0.324
33885W        W  294  38.444   7.785   2.604
33886W        W  295   2.026  18.250   3.974
33887W        W  296  15.197  40.796  12.920
33888W        W  297  42.010   0.562   3.652
33889W        W  298  31.888  29.834  10.977
33890W        W  299   9.649  33.083  12.958
33891W        W  300  15.735  32.969  10.554
33892W        W  301   7.473   1.749   1.122
33893W        W  302  21.496  31.488  11.268
33894W        W  303  16.340   2.208   0.352
33895W        W  304  14.070  37.331   0.357
33896W        W  305  10.996  41.498   3.423
33897W        W  306  40.594   3.375  12.484
33898W        W  307  42.349  11.746  10.747
33899W        W  308  37.060  16.497   3.832
33900W        W  309  15.816  30.062  10.599
33901W        W  310  21.795  11.437   1.738
33902W        W  311  27.437  42.296   2.178
33903W        W  312   0.068  20.326  14.540
33904W        W  313  13.724   7.642  12.599
33905W        W  314  24.694   9.298  13.799
33906W        W  315  32.009  38.831   0.464
33907W        W  316  40.782   3.258   0.064
33908W        W  317  44.235  30.044   3.729
33909W        W  318  43.261  36.515  14.923
33910W        W  319  17.674  28.733   2.004
33911W        W  320  38.274  18.444   2.637
33912W        W  321  18.604  17.865   1.017
33913W        W  322  32.817  42.040   3.042
33914W        W  323  44.138   0.653   1.093
33915W        W  324   8.774   1.047  12.921
33916W        W  325  43.540  17.012  13.022
33917W        W  326  41.671  24.811   0.087
33918W        W  327   2.464  35.693  10.740
33919W        W  328  13.526   4.241   0.397
33920W        W  329  32.467  25.156   1.422
33921W        W  330  37.609  12.622   3.184
33922W        W  331  19.759  37.330   1.402
33923W        W  332  20.902   1.790  11.049
33924W        W  333  21.082  35.008   1.962
33925W        W  334   2.980  34.448   1.738
33926W        W  335  12.122  39.211  14.415
33927W        W  336  35.346  35.326   0.730
33928W        W  337  37.150  39.894  11.980
33929W        W  338  19.616   3.471  12.354
33930W        W  339  24.211  41.865   4.191
33931W        W  340  12.702  10.796   0.994
33932W        W  341  33.213   9.289   2.334
33933W        W  342  22.179  13.693  12.802
33934W        W  343  13.835  37.411   3.015
33935W        W  344  12.245  42.304  11.529
33936W        W  345  15.224  42.084   0.651
33937W        W  346   5.740  40.389  14.543
33938W        W  347   9.330  24.238  13.401
33939W        W  348   5.750  22.824  10.208
33940W        W  349  35.864  42.744  11.686
33941W        W  350  37.033  39.798   1.558
33942W        W  351  32.899  38.376   3.361
33943W        W  352  28.954  20.613   0.391
33944W        W  353  15.357  36.774   0.392
33945W        W  354  29.599   5.586   3.120
33946W        W  355   2.924  28.198   0.734
33947W        W  356  23.410  13.183  12.378
33948W        W  357  31.905  24.712   1.712
33949W        W  358  35.698  19.582   3.782
33950W        W  359  34.655  41.799   4.076
33951W        W  360  10.864   0.423   0.899
33952W        W  361  12.247  12.249  14.493
33953W        W  362  10.246  18.101  14.038
33954W        W  363  36.961   1.542   3.316
33955W        W  364  19.601   5.364   1.287
33956W        W  365   5.610  12.115   4.201
33957W        W  366  22.373   4.728  14.594
33958W        W  367  20.259  27.715  12.091
33959W        W  368  43.488  43.698  11.217
33960W        W  369  28.146  21.129  11.625
33961W        W  370  17.799  21.360  11.163
33962W        W  371   7.230   8.332   1.516
33963W        W  372  19.276  22.207  11.259
33964W        W  373  23.017   1.851   3.357
33965W        W  374  35.206  22.767  13.493
33966W        W  375  12.319  23.531   4.466
33967W        W  376  16.375  24.122   4.306
33968W        W  377   8.684  22.712  10.626
33969W        W  378  35.327   6.854   3.625
33970W        W  379  30.342  27.466   1.958
33971W        W  380  33.084  20.473   1.963
33972W        W  381  10.156   6.824   3.443
33973W        W  382  44.830  14.599   3.701
33974W        W  383  39.780  19.296   2.388
33975W        W  384  26.466  38.619   3.126
33976W        W  385  13.197  37.578  11.983
33977W        W  386   6.769  38.830   2.513
33978W        W  387  16.302  42.900  12.964
33979W        W  388  44.194  24.939  13.286
33980W        W  389  14.864  32.951   2.140
33981W        W  390  25.707  32.518   0.194
33982W        W  391  38.606  17.660   0.363
33983W        W  392  15.454  13.999  14.216
33984W        W  393  15.804  37.437   2.742
33985W        W  394  43.512  44.365  12.690
33986W        W  395  44.540  42.793   1.466
33987W        W  396  14.520  12.260   3.370
33988W        W  397   0.365   3.907   0.902
33989W        W  398  32.651  21.289   0.436
33990W        W  399  39.647  21.157  12.531
33991W        W  400  40.528  34.916  14.788
33992W        W  401  25.760  40.464  14.265
33993W        W  402  43.336  18.963  11.989
33994W        W  403  32.930  26.707  13.050
33995W        W  404  23.498  44.239   0.199
33996W        W  405  20.287   3.237  14.458
33997W        W  406  39.629  25.566  12.886
33998W        W  407   2.009  31.643  11.611
33999W        W  408  26.209  27.812  14.484
34000W        W  409  15.351  43.973   2.854
34001W        W  410  25.124   3.147   4.191
34002W        W  411  40.621  24.247  10.651
34003W        W  412  25.053   8.669   1.593
34004W        W  413  39.179   8.996  13.387
34005W        W  414  33.131  38.096   3.758
34006W        W  415  35.630  28.966   1.676
34007W        W  416  40.051  39.133  11.847
34008W        W  417  39.635   2.146   4.405
34009W        W  418  34.467  37.463  12.592
34010W        W  419  16.998  10.778   4.137
34011W        W  420  12.593  26.240  13.593
34012W        W  421  15.830   0.417   4.613
34013W        W  422  18.667  43.207  13.351
34014W        W  423  15.069  14.359  14.384
34015W        W  424  26.571   7.182  10.308
34016W        W  425  25.706  19.301   4.176
34017W        W  426  17.479  10.429  13.800
34018W        W  427   7.998   4.096  10.907
34019W        W  428  12.307  33.060  14.828
34020W        W  429  33.524  22.481   4.804
34021W        W  430  41.116  14.121   2.712
34022W        W  431  25.001   3.365  14.987
34023W        W  432  31.936   8.546   0.861
34024W        W  433  37.896  24.505   2.237
34025W        W  434  31.389  31.627   3.390
34026W        W  435   4.787  40.026   0.449
34027W        W  436   9.518  11.358  12.412
34028W        W  437  42.309  35.365   2.742
34029W        W  438   5.880  13.237   0.655
34030W        W  439  16.731   7.794   1.692
34031W        W  440  17.951   7.611   0.758
34032W        W  441  25.631  18.633   4.188
34033W        W  442   6.882  23.709   1.457
34034W        W  443  17.558   5.323   4.533
34035W        W  444  35.749  11.252  13.460
34036W        W  445  28.446  44.350  11.788
34037W        W  446  19.057  20.646  12.041
34038W        W  447   3.182  35.656   4.186
34039W        W  448  14.118  26.887  13.371
34040W        W  449  16.095  19.653  13.910
34041W        W  450   2.374  15.544  10.808
34042W        W  451  30.963  30.193  11.249
34043W        W  452  22.234  39.057  10.893
34044W        W  453  30.277  10.793  13.469
34045W        W  454  17.777  11.786   2.314
34046W        W  455  31.070  20.085  14.780
34047W        W  456  14.626  29.339   3.217
34048W        W  457  24.955   2.387  12.671
34049W        W  458   9.748  41.876   1.358
34050W        W  459  42.175  29.892  12.139
34051W        W  460   2.684   2.265   0.574
34052W        W  461  23.593  12.098  10.615
34053W        W  462  41.005  42.355   0.045
34054W        W  463  35.306  27.128   1.985
34055W        W  464  35.806  17.362   4.574
34056W        W  465  41.760  33.463   3.222
34057W        W  466  28.257  21.119   2.599
34058W        W  467  12.703  10.322  10.726
34059W        W  468  31.594  15.097   3.770
34060W        W  469  14.231  39.348  14.375
34061W        W  470  16.239  40.319  14.306
34062W        W  471   3.198  20.070   3.858
34063W        W  472  34.407  14.010   0.969
34064W        W  473   8.665  37.507   4.165
34065W        W  474   2.875   0.727   2.853
34066W        W  475  33.913  24.406   3.091
34067W        W  476  27.539  30.567  12.875
34068W        W  477  31.044  31.510  12.244
34069W        W  478  38.870  34.903  11.228
34070W        W  479  41.053  23.311   4.806
34071W        W  480  25.854  35.062   3.785
34072W        W  481  30.910   6.889  10.845
34073W        W  482  34.360   7.172  13.262
34074W        W  483  38.356  35.177   1.787
34075W        W  484  30.963  12.429   1.714
34076W        W  485  17.814  30.069  14.644
34077W        W  486  15.829  35.442  10.437
34078W        W  487  39.671  14.854  13.118
34079W        W  488  23.268  40.894  14.675
34080W        W  489  28.896  29.703   3.246
34081W        W  490  17.137  43.739  13.295
34082W        W  491   5.341  42.953   0.543
34083W        W  492  12.128  13.244  14.538
34084W        W  493  30.184  44.420   2.884
34085W        W  494  19.671  35.817  14.666
34086W        W  495  42.229  23.480   0.384
34087W        W  496  32.683  22.267  14.481
34088W        W  497   9.479   8.227   2.443
34089W        W  498   2.708  31.966  14.505
34090W        W  499  10.734  29.897  14.108
34091W        W  500   8.288  30.278  11.641
34092W        W  501  33.010  36.373   0.060
34093W        W  502   6.627  16.085   2.802
34094W        W  503  16.706  39.615   4.441
34095W        W  504  22.525  42.470   4.723
34096W        W  505  11.904   3.408   2.410
34097W        W  506  28.387  37.161   4.838
34098W        W  507  42.325  33.424   1.820
34099W        W  508  16.968  16.452   4.661
34100W        W  509  26.165  10.544   3.236
34101W        W  510  38.330   1.339  14.942
34102W        W  511  29.526  38.296   3.329
34103W        W  512   0.677   9.404  12.480
34104W        W  513  25.771   8.181  13.952
34105W        W  514  41.978  15.126  13.153
34106W        W  515  14.396  11.660  14.418
34107W        W  516  15.098  12.738  10.321
34108W        W  517  26.549   2.809   2.990
34109W        W  518  17.209  13.743  13.401
34110W        W  519  27.511  28.983   4.625
34111W        W  520  41.762   8.807  13.098
34112W        W  521  30.225  24.390   2.305
34113W        W  522  19.518  38.278  14.856
34114W        W  523   7.466   0.423  13.960
34115W        W  524   3.941  32.844  14.388
34116W        W  525  15.043  21.026  13.363
34117W        W  526  42.199   0.003  10.736
34118W        W  527  24.148  26.251   3.713
34119W        W  528  39.449  42.006   4.653
34120W        W  529  36.391   6.696  12.945
34121W        W  530  16.692  41.188  14.979
34122W        W  531   6.892  37.994   1.240
34123W        W  532   0.770   9.154   4.495
34124W        W  533   0.909  30.714  11.870
34125W        W  534  32.580  42.949   1.326
34126W        W  535  26.037   9.395   0.914
34127W        W  536  37.821   8.733  10.712
34128W        W  537  30.950   1.658  11.948
34129W        W  538   8.660  15.314   2.753
34130W        W  539  14.359  44.885  11.156
34131W        W  540  28.503  25.766   1.158
34132W        W  541   3.243   2.382  14.770
34133W        W  542  34.379  33.833  10.934
34134W        W  543   6.256   0.819  10.717
34135W        W  544  39.827  43.400   0.418
34136W        W  545  15.037   9.211   2.834
34137W        W  546  27.253  11.296   0.814
34138W        W  547  21.897   2.904   2.486
34139W        W  548  11.185  43.492   1.209
34140W        W  549  24.798  29.192   2.939
34141W        W  550  37.437  22.634   4.286
34142W        W  551  23.008   7.006   0.691
34143W        W  552   0.812   0.404   0.067
34144W        W  553  40.016  22.791   2.766
34145W        W  554  32.912  19.786  12.512
34146W        W  555  36.734   9.393   2.232
34147W        W  556  27.613   7.312   5.663
34148W        W  557  17.721  35.913  12.107
34149W        W  558  13.075  10.175   2.300
34150W        W  559  34.876  28.907  13.484
34151W        W  560   8.283  15.752   1.124
34152W        W  561   3.499  20.469   3.738
34153W        W  562  26.159  32.537   0.467
34154W        W  563   8.335  21.733  13.552
34155W        W  564  25.793  34.165  12.910
34156W        W  565  14.798  17.914  13.883
34157W        W  566  15.057  39.579   9.870
34158W        W  567  10.647   9.023   1.552
34159W        W  568  10.255  31.471  10.127
34160W        W  569  25.623  38.984   3.601
34161W        W  570  22.625   6.255   0.663
34162W        W  571  44.828  24.825   2.936
34163W        W  572  15.650  16.573   3.377
34164W        W  573  34.351  41.365  11.540
34165W        W  574   8.608  13.377   4.524
34166W        W  575   3.914  22.300   4.733
34167W        W  576  43.754  41.803   4.007
34168W        W  577   1.544  39.259   1.829
34169W        W  578  25.186   4.738   3.149
34170W        W  579  18.972  38.014  11.372
34171W        W  580  15.482  28.928   1.756
34172W        W  581  22.531  43.345   3.141
34173W        W  582   5.503   1.211   0.422
34174W        W  583  33.482  26.832  14.886
34175W        W  584  38.642  43.305  13.838
34176W        W  585  36.590   8.908   2.435
34177W        W  586  28.067  21.032   1.687
34178W        W  587   3.213   3.687   2.906
34179W        W  588  14.348  31.831  12.504
34180W        W  589  20.466  20.714   1.762
34181W        W  590  27.437  44.403  11.344
34182W        W  591  29.447   1.757  12.007
34183W        W  592  12.050  13.790   0.193
34184W        W  593  44.443   7.253   3.934
34185W        W  594   1.784  20.818  14.207
34186W        W  595  21.051  41.959   3.863
34187W        W  596  24.493  27.476  14.985
34188W        W  597  11.308  20.740  12.417
34189W        W  598   2.214  10.383  13.902
34190W        W  599  15.699  33.629   1.305
34191W        W  600  30.864  18.594   1.896
34192W        W  601  20.326  15.627   3.197
34193W        W  602  40.589   5.958  12.154
34194W        W  603   9.209   7.937  11.075
34195W        W  604  14.303  12.380   0.830
34196W        W  605  28.280   6.058   2.553
34197W        W  606  11.640  15.283  11.482
34198W        W  607  39.958   9.228   4.690
34199W        W  608   7.843  33.455   5.292
34200W        W  609  19.557   1.900  13.373
34201W        W  610   4.667  24.584   0.799
34202W        W  611  33.123  11.818  13.859
34203W        W  612  27.040  11.694  12.014
34204W        W  613  11.240  29.421   1.281
34205W        W  614   5.576  17.303  12.948
34206W        W  615  26.906  44.337  13.035
34207W        W  616   2.978  35.152  11.144
34208W        W  617  19.272  17.135  11.689
34209W        W  618  31.312  36.029  12.527
34210W        W  619  13.295  35.969  11.370
34211W        W  620  20.557  38.107   3.556
34212W        W  621   0.875  30.376  11.487
34213W        W  622  14.358  36.353   1.716
34214W        W  623  33.837  41.111  13.429
34215W        W  624   3.647   9.563  14.974
34216W        W  625  30.837  27.522  14.136
34217W        W  626  14.337  29.413  12.244
34218W        W  627  31.064  26.199  11.574
34219W        W  628   9.593  22.746   2.014
34220W        W  629   3.785   7.462   0.036
34221W        W  630  25.849  30.241   0.848
34222W        W  631  33.679  26.936  11.496
34223W        W  632   1.421  21.049  14.476
34224W        W  633  13.504  27.007  10.429
34225W        W  634   1.044  15.363  12.007
34226W        W  635  19.221   8.223   1.702
34227W        W  636  14.900   7.454   1.933
34228W        W  637   1.405  16.682   0.443
34229W        W  638  16.809  14.597   0.638
34230W        W  639  18.773   1.629   4.651
34231W        W  640  43.067  37.007  14.074
34232W        W  641  20.179  44.703   1.455
34233W        W  642  39.727  16.619  14.923
34234W        W  643  41.027  39.457   9.894
34235W        W  644   4.346  13.189   0.339
34236W        W  645  42.020   7.329  11.594
34237W        W  646  34.447   7.802  11.478
34238W        W  647   5.521  15.284  13.755
34239W        W  648  10.135  14.147  13.156
34240W        W  649   4.224  19.701  14.881
34241W        W  650  17.121  32.077  12.122
34242W        W  651  29.056  28.802  11.190
34243W        W  652  38.826   8.608   4.848
34244W        W  653  24.420   1.181  13.032
34245W        W  654  23.548  40.963   0.091
34246W        W  655  16.312   1.413  12.029
34247W        W  656  20.085   2.473  10.790
34248W        W  657  15.740  20.034  10.294
34249W        W  658  28.562  38.363  14.780
34250W        W  659  38.213  38.452   2.654
34251W        W  660   8.677  39.418   4.257
34252W        W  661  38.779   1.702   3.113
34253W        W  662  38.584  34.475  11.474
34254W        W  663   9.934  35.623   5.507
34255W        W  664  13.394  31.490  10.594
34256W        W  665  17.031   7.519  10.110
34257W        W  666  13.325  11.808  12.491
34258W        W  667  27.417  22.684  12.339
34259W        W  668  32.158  41.962   1.350
34260W        W  669   8.081  43.487  12.623
34261W        W  670  37.921   5.479  10.430
34262W        W  671   4.970  12.955  13.418
34263W        W  672  44.202  37.265  10.463
34264W        W  673   7.205  30.527  13.418
34265W        W  674  25.951  37.401  12.090
34266W        W  675  34.434  26.369  10.701
34267W        W  676  35.783  28.583  11.082
34268W        W  677  35.173  15.714   3.200
34269W        W  678  36.592   5.344   2.832
34270W        W  679  24.577  33.147  11.986
34271W        W  680   5.844   7.301   0.997
34272W        W  681  12.001   1.789  11.564
34273W        W  682  37.733  14.352   3.328
34274W        W  683   1.871  21.303  14.353
34275W        W  684   0.526  10.261  10.732
34276W        W  685  12.285  23.613  11.991
34277W        W  686  26.676  28.454  12.504
34278W        W  687   5.410  25.152  11.633
34279W        W  688  15.211   0.911  12.322
34280W        W  689  23.744  15.610   0.017
34281W        W  690   0.981  32.631   2.804
34282W        W  691  18.205   5.801  11.429
34283W        W  692  24.748  25.448   1.432
34284W        W  693  33.366   5.990   5.081
34285W        W  694  27.590  21.984  14.002
34286W        W  695  15.319  20.729  14.317
34287W        W  696  39.657  13.933   0.664
34288W        W  697   5.099   4.468   1.175
34289W        W  698  11.905  25.550   4.785
34290W        W  699  23.433  40.527  11.395
34291W        W  700   9.920  10.456   2.090
34292W        W  701  15.188  44.602   0.149
34293W        W  702  25.403  24.088  13.926
34294W        W  703   7.352  27.730  12.420
34295W        W  704  39.366  19.432  12.556
34296W        W  705  41.267   6.101   3.825
34297W        W  706  35.323  18.149   3.734
34298W        W  707  23.043  20.765   0.067
34299W        W  708   3.880  31.254  14.997
34300W        W  709  23.302   5.454  12.971
34301W        W  710  11.866  19.246   4.464
34302W        W  711  31.543   9.000  13.065
34303W        W  712  24.365  14.763   2.896
34304W        W  713  22.899  33.583  13.899
34305W        W  714  39.914  38.415  14.617
34306W        W  715  35.048   2.754  13.968
34307W        W  716   3.667  42.792   4.699
34308W        W  717  19.813   6.863  11.346
34309W        W  718  39.788  11.898   2.412
34310W        W  719   1.853  43.002  10.453
34311W        W  720   8.790   6.413   1.032
34312W        W  721   3.240  23.953   4.367
34313W        W  722  40.668  25.473  13.528
34314W        W  723  44.136   0.315  14.330
34315W        W  724  37.237   6.611   0.249
34316W        W  725  31.481  23.836   1.902
34317W        W  726   0.330  33.255   3.660
34318W        W  727  34.714  33.398   2.714
34319W        W  728  43.867  23.234   1.413
34320W        W  729   6.052  43.531  13.463
34321W        W  730  25.716  13.879   2.203
34322W        W  731  41.255  39.573   0.547
34323W        W  732  16.383   0.921   3.319
34324W        W  733  32.986  39.398  13.906
34325W        W  734  12.294   5.258  13.483
34326W        W  735  12.845  34.160   3.459
34327W        W  736  12.274   1.682  14.399
34328W        W  737  40.184  23.528   4.952
34329W        W  738   7.136   7.831   4.274
34330W        W  739  44.509  37.470   4.966
34331W        W  740  39.083  30.602   1.981
34332W        W  741  32.645  25.540  12.370
34333W        W  742  38.174  27.574   0.710
34334W        W  743  10.283   1.828   1.940
34335W        W  744  43.380   2.307  14.350
34336W        W  745  31.723  22.169   1.848
34337W        W  746   5.403  24.559   1.366
34338W        W  747  42.600  33.522  10.852
34339W        W  748   1.430  38.848   3.668
34340W        W  749  26.542   2.718  11.090
34341W        W  750  30.053  18.193   4.934
34342W        W  751  20.829  19.580  13.422
34343W        W  752  36.423  27.962   0.860
34344W        W  753  39.337   5.940  13.340
34345W        W  754  10.725  13.766  10.742
34346W        W  755  23.104  23.586  14.906
34347W        W  756  25.789  34.602  11.606
34348W        W  757  19.728  22.520   4.827
34349W        W  758   3.096  26.294  10.121
34350W        W  759   3.904  15.129  14.013
34351W        W  760   3.545  14.033  11.062
34352W        W  761   4.334  26.435   4.560
34353W        W  762  22.537  37.451  13.968
34354W        W  763  42.907  20.583   1.895
34355W        W  764  31.728  14.877   0.940
34356W        W  765  42.921   5.565   1.236
34357W        W  766  41.046  15.633   4.013
34358W        W  767  33.871  21.523   0.034
34359W        W  768  36.086  14.713  11.693
34360W        W  769  24.076   9.424   2.229
34361W        W  770  35.153  17.697   1.460
34362W        W  771  44.295  43.730  13.580
34363W        W  772  24.538   5.773  12.521
34364W        W  773   9.774  38.525  14.389
34365W        W  774  14.867   7.877   1.627
34366W        W  775  24.664  33.356  14.469
34367W        W  776   4.492   1.019   1.873
34368W        W  777  27.246  34.546   2.067
34369W        W  778  21.912  22.106  13.200
34370W        W  779  13.873   0.774   1.149
34371W        W  780  42.268  32.952   4.041
34372W        W  781  34.483  35.085   3.871
34373W        W  782  41.750  27.215   3.167
34374W        W  783   1.455  41.370   3.790
34375W        W  784  22.180   0.342  13.954
34376W        W  785  39.986  13.282  12.547
34377W        W  786  17.043  12.908   0.860
34378W        W  787  35.171  19.622  12.675
34379W        W  788  43.101  43.499  11.578
34380W        W  789  31.512  27.174   3.901
34381W        W  790  10.728  34.446   1.312
34382W        W  791  29.642   9.960   1.302
34383W        W  792  15.115  44.056  13.746
34384W        W  793  14.146   6.890   3.947
34385W        W  794  43.145  29.017   1.804
34386W        W  795  30.157  18.014   0.355
34387W        W  796  12.732   7.188  11.118
34388W        W  797  36.798   4.436   1.379
34389W        W  798  37.849  23.183   0.114
34390W        W  799  20.263  15.119  12.007
34391W        W  800   4.141  15.998  13.991
34392W        W  801  27.325  42.920   3.185
34393W        W  802  14.914   0.548   0.720
34394W        W  803  28.632  14.847   3.254
34395W        W  804  13.534  10.090  14.718
34396W        W  805  38.554  21.182  10.716
34397W        W  806  13.617   4.124  14.887
34398W        W  807  25.789   6.878  12.982
34399W        W  808  36.092  12.131  13.039
34400W        W  809  32.826  20.876   2.253
34401W        W  810  36.690  43.757   3.668
34402W        W  811  11.202  27.149  11.740
34403W        W  812  28.401  42.845  11.687
34404W        W  813  32.915   8.787   4.214
34405W        W  814   3.859   0.444   0.800
34406W        W  815  25.691  25.956  13.956
34407W        W  816  39.542   7.714  12.844
34408W        W  817  16.658  25.122  14.376
34409W        W  818   8.237  37.496  11.619
34410W        W  819   6.294  29.741  14.964
34411W        W  820   7.482  22.709   4.811
34412W        W  821   0.524  32.542  12.009
34413W        W  822  30.637  16.207   0.496
34414W        W  823   2.829   9.416  12.131
34415W        W  824   0.929  21.166   4.608
34416W        W  825  37.525  13.550   4.910
34417W        W  826  11.043  15.112  14.496
34418W        W  827  42.202  26.716  14.975
34419W        W  828  44.257  42.505  14.789
34420W        W  829  34.171  10.833   4.383
34421W        W  830  39.319  14.289   4.068
34422W        W  831  17.023   0.438  12.856
34423W        W  832  28.069  29.443  13.034
34424W        W  833  14.522  30.155  14.565
34425W        W  834  31.365  42.469  11.658
34426W        W  835   0.330  40.805   1.253
34427W        W  836  27.347  11.906  14.428
34428W        W  837  26.431   1.494  10.681
34429W        W  838  15.776  17.590  12.425
34430W        W  839  43.267  44.658   0.919
34431W        W  840   0.378  10.226   0.806
34432W        W  841  36.667  41.759   3.613
34433W        W  842  41.661  16.203   3.304
34434W        W  843  44.275  32.423   4.585
34435W        W  844   4.412  10.971   3.125
34436W        W  845  22.606  14.276   0.267
34437W        W  846  11.865  17.904  12.975
34438W        W  847  15.234  15.253  11.487
34439W        W  848  25.559  30.667   2.339
34440W        W  849  21.757  26.751   2.679
34441W        W  850   8.658  15.150  14.057
34442W        W  851  13.104  15.746  12.409
34443W        W  852  29.476   6.113  13.572
34444W        W  853  26.457  40.518   3.585
34445W        W  854  22.467  21.674  13.327
34446W        W  855  15.025   6.026   0.804
34447W        W  856  29.181  14.571  12.117
34448W        W  857  17.189  25.511   4.013
34449W        W  858  41.786   7.121   1.330
34450W        W  859  33.858  14.036  13.047
34451W        W  860  17.588  19.516   1.433
34452W        W  861  38.136  25.776   2.622
34453W        W  862  43.988  21.544  12.628
34454W        W  863   6.800   2.427  11.335
34455W        W  864  20.025  12.363  11.590
34456W        W  865  43.568   9.866  12.170
34457W        W  866  23.337   0.604  13.443
34458W        W  867  18.705   9.269  14.582
34459W        W  868  10.705  10.215  13.489
34460W        W  869  37.085  21.173  11.203
34461W        W  870  20.086  13.845  14.976
34462W        W  871  22.617  11.330   3.589
34463W        W  872   3.674  32.760  14.838
34464W        W  873  19.424  11.883  12.056
34465W        W  874  12.201   0.468  11.506
34466W        W  875  22.891   1.814   2.845
34467W        W  876  37.014  22.158   0.707
34468W        W  877  33.874  19.572   2.558
34469W        W  878  26.491  31.226   2.442
34470W        W  879  23.530  28.931  11.478
34471W        W  880  30.371  36.813   1.225
34472W        W  881  32.515  11.424   1.280
34473W        W  882  10.315   6.945  13.607
34474W        W  883  11.249  29.696   0.311
34475W        W  884  23.281  32.817  11.141
34476W        W  885  10.618  37.935  10.634
34477W        W  886  25.977   4.763  10.880
34478W        W  887   7.922  26.819  10.677
34479W        W  888  19.345  36.504  14.589
34480W        W  889  40.722  22.635   1.454
34481W        W  890   7.364   9.601   4.440
34482W        W  891  38.601  42.797  12.006
34483W        W  892   0.987  14.347   2.214
34484W        W  893  38.400  24.015   2.849
34485W        W  894  34.426  32.153   3.268
34486W        W  895  23.096  11.084  11.041
34487W        W  896  24.942  36.195  11.194
34488W        W  897  36.516  34.571   3.525
34489W        W  898  20.637  14.929   3.798
34490W        W  899  42.323  39.154  13.811
34491W        W  900   1.774  28.641  12.067
34492W        W  901  17.535   2.494  13.815
34493W        W  902  27.942  12.171   3.219
34494W        W  903  16.230   7.409   2.790
34495W        W  904  13.245  29.005  12.400
34496W        W  905  35.346   2.725   2.341
34497W        W  906  20.635  42.403  13.815
34498W        W  907  33.946  33.699   2.045
34499W        W  908  30.166   9.233   0.684
34500W        W  909  19.166   2.961   0.331
34501W        W  910  19.655  25.010   1.373
34502W        W  911  30.822  35.366   2.814
34503W        W  912   7.357   2.072   4.594
34504W        W  913   2.888  37.363  12.867
34505W        W  914  27.459  28.149  10.711
34506W        W  915  22.765  34.355   0.497
34507W        W  916  42.722  15.281  14.915
34508W        W  917  16.344  43.241  14.760
34509W        W  918   6.271   6.097   0.887
34510W        W  919  33.640   8.422  11.637
34511W        W  920  23.566  29.511  14.674
34512W        W  921  33.561  31.961   2.869
34513W        W  922  25.853  32.066  14.999
34514W        W  923   4.184  13.837   1.349
34515W        W  924  44.056  33.164  14.392
34516W        W  925   8.392  36.253   2.289
34517W        W  926  18.176   9.768   4.262
34518W        W  927  24.219  39.973  10.834
34519W        W  928  15.922   8.174  11.149
34520W        W  929  27.623   2.391  12.020
34521W        W  930  29.894  17.491   2.374
34522W        W  931  37.957  30.664   1.938
34523W        W  932  41.979   4.177  14.220
34524W        W  933   6.532  30.134  13.977
34525W        W  934  14.055  30.449  13.350
34526W        W  935  26.247   3.299  10.985
34527W        W  936  37.876  24.254  14.748
34528W        W  937   2.283  21.769   1.872
34529W        W  938  35.356  27.702  14.384
34530W        W  939  29.190   8.815   0.024
34531W        W  940  24.981   8.437  10.580
34532W        W  941   7.257   2.389   4.182
34533W        W  942  11.237  27.724   3.641
34534W        W  943  18.182   9.765   0.238
34535W        W  944  36.466  41.460   4.050
34536W        W  945   9.186  14.305  10.754
34537W        W  946  11.026  25.233   4.895
34538W        W  947   3.029   9.328  11.634
34539W        W  948  33.003  14.353   5.025
34540W        W  949   3.924   9.638   2.942
34541W        W  950  15.614  10.672   0.939
34542W        W  951   1.403   1.998   2.740
34543W        W  952  44.827  12.948  10.988
34544W        W  953   5.666  19.114   1.246
34545W        W  954  17.390  23.542  13.463
34546W        W  955  14.285  31.905   1.853
34547W        W  956   7.920  30.115   2.345
34548W        W  957   4.410  18.644   2.709
34549W        W  958  39.866  26.103   4.285
34550W        W  959  43.351  20.975  12.405
34551W        W  960  41.405  35.032   0.390
34552W        W  961  43.400  37.294   4.048
34553W        W  962  11.814   2.289   3.100
34554W        W  963  40.486  29.888   0.901
34555W        W  964  27.709  25.965  14.908
34556W        W  965   2.524   8.414  11.222
34557W        W  966   8.312   1.258   4.032
34558W        W  967  41.888  38.179   2.716
34559W        W  968  19.639  37.072  13.520
34560W        W  969   3.460   1.253   2.897
34561W        W  970  15.245  44.084  12.348
34562W        W  971  26.496   0.489  12.104
34563W        W  972  40.513   7.572   0.843
34564W        W  973   8.788  30.674   4.886
34565W        W  974  10.693  40.864   1.776
34566W        W  975  42.599  39.950  10.676
34567W        W  976  16.284   2.451  14.115
34568W        W  977  34.438  38.950   1.045
34569W        W  978   0.448   7.822   3.823
34570W        W  979  16.659  20.535  13.982
34571W        W  980   8.420   1.860  13.150
34572W        W  981  31.500   0.374  13.456
34573W        W  982  24.021   3.271  10.770
34574W        W  983  15.714  29.218   4.614
34575W        W  984  19.539   1.776  14.398
34576W        W  985  25.592  14.327   3.107
34577W        W  986  36.551  42.848   1.861
34578W        W  987   9.550  42.809   1.127
34579W        W  988  10.754  40.640   1.264
34580W        W  989  31.984  40.833   1.141
34581W        W  990  14.683   1.682   4.113
34582W        W  991   3.676   8.195   1.127
34583W        W  992   3.029  34.889  14.507
34584W        W  993   7.343  36.605   0.290
34585W        W  994   1.880   5.978  14.506
34586W        W  995  25.688  42.903  11.167
34587W        W  996  20.872   6.518   5.006
34588W        W  997   6.981   4.299   0.829
34589W        W  998  24.674  26.039  10.937
34590W        W  999  13.815  33.165   2.083
34591W        W 1000  23.119   5.975  13.842
34592W        W 1001  18.686   5.721   0.832
34593W        W 1002  29.953  38.319   0.155
34594W        W 1003   2.004   8.084   4.120
34595W        W 1004  43.876  26.454  14.008
34596W        W 1005   5.820   4.687   2.738
34597W        W 1006  39.228  23.489  12.756
34598W        W 1007   0.328  26.972  10.556
34599W        W 1008  29.075   8.668  12.419
34600W        W 1009   4.187   5.306   3.897
34601W        W 1010  22.457  28.708   0.508
34602W        W 1011  22.772  34.294   2.361
34603W        W 1012   6.525  26.085  12.569
34604W        W 1013   1.497  37.103  14.470
34605W        W 1014   1.290  34.964   3.127
34606W        W 1015  17.302  24.413  14.255
34607W        W 1016  14.374   1.343  12.428
34608W        W 1017  32.606  37.685  12.054
34609W        W 1018  30.059  38.429  14.337
34610W        W 1019  43.112  33.547  10.703
34611W        W 1020  24.039  19.073   0.411
34612W        W 1021  33.911  35.370  10.373
34613W        W 1022  20.180  23.204  10.720
34614W        W 1023  34.048  13.816  10.554
34615W        W 1024  25.701  38.051   2.681
34616W        W 1025   5.774  16.852   3.181
34617W        W 1026  26.452   1.381  13.988
34618W        W 1027  25.678   5.887   2.246
34619W        W 1028   8.909   0.005  11.194
34620W        W 1029   4.301  11.758  13.174
34621W        W 1030  28.108  22.280   0.305
34622W        W 1031  31.347  14.627   3.560
34623W        W 1032  23.245  21.189  11.158
34624W        W 1033  28.456  30.039   2.672
34625W        W 1034  18.811   2.992   4.608
34626W        W 1035  10.142  17.115  10.791
34627W        W 1036   4.901   3.307   2.842
34628W        W 1037  16.359  29.060   2.722
34629W        W 1038  25.155  41.793   1.034
34630W        W 1039  17.167  39.908  14.153
34631W        W 1040   3.208  10.073   2.661
34632W        W 1041  25.447  27.574  14.085
34633W        W 1042  38.044   5.212   1.457
34634W        W 1043  29.500  33.078   2.038
34635W        W 1044  20.088  27.398  12.485
34636W        W 1045  36.601   3.524   0.406
34637W        W 1046   1.287  25.009  10.754
34638W        W 1047  20.504  36.973  12.929
34639W        W 1048  27.639  41.496  10.435
34640W        W 1049  14.308  33.490  14.579
34641W        W 1050   2.434  35.884   1.238
34642W        W 1051   4.260  34.626   0.923
34643W        W 1052  35.360  18.151   1.620
34644W        W 1053   2.811  27.558   2.343
34645W        W 1054   5.968   9.600   1.862
34646W        W 1055   1.827   2.748   2.894
34647W        W 1056  44.646  27.097   9.958
34648W        W 1057   7.168   5.405   2.335
34649W        W 1058  13.224  14.650  12.280
34650W        W 1059  39.117   9.155   1.255
34651W        W 1060  19.275  35.381   4.306
34652W        W 1061  18.166  33.754   3.258
34653W        W 1062  34.366  19.644   2.299
34654W        W 1063  20.772   0.552  13.087
34655W        W 1064   8.318   5.330   2.863
34656W        W 1065  25.846  25.458  13.794
34657W        W 1066   0.325  33.675   0.317
34658W        W 1067  33.907   0.735   2.761
34659W        W 1068  42.846   8.718  13.453
34660W        W 1069  41.477   3.746   3.701
34661W        W 1070  10.685  13.663   0.268
34662W        W 1071  31.113   8.408  10.030
34663W        W 1072  25.093  33.306   3.617
34664W        W 1073  24.463  26.299  12.823
34665W        W 1074  41.064   2.509  14.439
34666W        W 1075  20.140  12.147   1.479
34667W        W 1076   0.738   4.907  13.985
34668W        W 1077  30.141   6.764   3.934
34669W        W 1078  33.817  38.549  13.485
34670W        W 1079  33.606  31.892   3.712
34671W        W 1080  32.414  40.288  14.337
34672W        W 1081  21.467  26.736   0.939
34673W        W 1082  25.964   9.363   3.372
34674W        W 1083  19.203  27.472  12.954
34675W        W 1084  31.908  20.270  14.412
34676W        W 1085  15.736  39.589   1.270
34677W        W 1086   6.759  40.511   4.259
34678W        W 1087   9.930   1.138  13.929
34679W        W 1088  43.551   6.873  10.257
34680W        W 1089  17.208  36.670  10.216
34681W        W 1090  43.515  44.217  13.545
34682W        W 1091  16.325  33.160   3.053
34683W        W 1092  44.570   9.314  14.097
34684W        W 1093  23.912  41.585   4.588
34685W        W 1094  31.206  39.713  12.602
34686W        W 1095  20.136  19.582   3.717
34687W        W 1096   3.977   0.700   3.649
34688W        W 1097  29.593   6.840  12.936
34689W        W 1098  21.131  44.347   4.513
34690W        W 1099  11.183   8.449   4.621
34691W        W 1100  20.888  29.979   4.859
34692W        W 1101  37.542  37.811   3.554
34693W        W 1102  16.339  31.194   2.898
34694W        W 1103  10.484   3.493  11.932
34695W        W 1104  22.412   0.842  14.754
34696W        W 1105  38.042  39.413  14.912
34697W        W 1106  40.052  32.802   0.645
34698W        W 1107  11.281   7.847   1.770
34699W        W 1108   9.648   8.214   0.943
34700W        W 1109  32.567  23.742  14.538
34701W        W 1110  44.939   4.188   0.026
34702W        W 1111  33.825   7.320  14.735
34703W        W 1112  35.032  25.015   3.084
34704W        W 1113   5.053   2.469   1.385
34705W        W 1114  44.407  34.320  12.121
34706W        W 1115  31.335  19.806  10.690
34707W        W 1116   7.842  28.931  12.379
34708W        W 1117  27.635  14.158   4.548
34709W        W 1118  38.094  26.573   3.776
34710W        W 1119  38.579  23.048  14.379
34711W        W 1120  23.424  11.156   0.379
34712W        W 1121   2.081  43.277  11.056
34713W        W 1122  41.362  11.818   2.839
34714W        W 1123  20.961  24.103   0.173
34715W        W 1124  11.537  42.245   2.894
34716W        W 1125  22.140  24.163  14.443
34717W        W 1126  39.896   1.802   1.353
34718W        W 1127  20.814  42.903   0.533
34719W        W 1128  23.886  32.818   4.594
34720W        W 1129  34.999  37.354   1.118
34721W        W 1130   1.408  40.027   4.555
34722W        W 1131  44.320  10.781   0.898
34723W        W 1132  39.797  30.327   3.653
34724W        W 1133  43.095  16.602  11.855
34725W        W 1134  32.467   8.920   3.049
34726W        W 1135  23.938   1.759   1.956
34727W        W 1136   2.671  36.943  13.077
34728W        W 1137  13.080  27.953  11.140
34729W        W 1138   5.486   7.822   1.258
34730W        W 1139  17.272  19.563  11.061
34731W        W 1140  24.732  41.272   2.707
34732W        W 1141   5.682  30.374   4.060
34733W        W 1142   0.514  38.094   2.843
34734W        W 1143  19.237   6.277   1.921
34735W        W 1144  42.317  17.030  10.919
34736W        W 1145  31.026  10.275   0.866
34737W        W 1146  14.429  12.890   0.237
34738W        W 1147  19.051  29.931   0.038
34739W        W 1148  32.067  16.721   3.298
34740W        W 1149  11.035  26.085  11.188
34741W        W 1150  43.271  15.513   0.863
34742W        W 1151  43.766  31.051  11.076
34743W        W 1152   4.468   1.755  12.099
34744W        W 1153  40.886  43.706  14.950
34745W        W 1154   0.326  36.002   5.118
34746W        W 1155   7.728  21.550   3.682
34747W        W 1156  30.580  23.504   3.272
34748W        W 1157   6.621   6.405  12.533
34749W        W 1158  20.505  35.650  12.174
34750W        W 1159   1.677  14.222   4.906
34751W        W 1160   9.234  27.240  12.455
34752W        W 1161  30.227  12.083  13.012
34753W        W 1162  32.680  11.639   0.321
34754W        W 1163   9.790   0.797   1.406
34755W        W 1164  42.734  28.610  13.386
34756W        W 1165  26.953  16.816   0.436
34757W        W 1166  11.158  11.205   3.181
34758W        W 1167   3.606  13.287   4.161
34759W        W 1168   9.181   9.824   4.016
34760W        W 1169  44.142  16.175  14.744
34761W        W 1170  37.003  18.069   1.429
34762W        W 1171   0.246  38.822  10.179
34763W        W 1172  14.705  41.040  11.205
34764W        W 1173   7.354  19.057   3.211
34765W        W 1174  29.141   1.876   2.091
34766W        W 1175  17.568   9.556  11.171
34767W        W 1176   9.025  25.052   4.860
34768W        W 1177  12.109   5.305   1.642
34769W        W 1178  38.776  31.546  13.805
34770W        W 1179  19.389   1.219  12.520
34771W        W 1180  23.369  18.735  14.737
34772W        W 1181  39.406  44.343  12.977
34773W        W 1182  35.937  30.464  11.538
34774W        W 1183  19.339  12.357   3.717
34775W        W 1184   9.061  19.915   4.895
34776W        W 1185   5.763   1.842   1.521
34777W        W 1186  28.991   6.221  11.143
34778W        W 1187  11.992  23.943  11.669
34779W        W 1188  19.017   0.321  14.643
34780W        W 1189  37.831  32.867  12.653
34781W        W 1190   3.957  39.596   0.001
34782W        W 1191  32.110  37.009  12.604
34783W        W 1192  10.483  12.185  12.027
34784W        W 1193  16.174   6.796   0.049
34785W        W 1194  43.714  25.620  14.926
34786W        W 1195  43.437   8.141  12.778
34787W        W 1196  40.041  28.387  12.950
34788W        W 1197  38.476  12.089   3.794
34789W        W 1198  11.689  36.238  11.645
34790W        W 1199   6.529  41.110  13.493
34791W        W 1200  29.054   0.205   1.425
34792W        W 1201  37.028  22.117  10.892
34793W        W 1202  31.734  37.902  14.934
34794W        W 1203  17.209  41.061   3.385
34795W        W 1204  26.579  42.538   1.642
34796W        W 1205  43.885  15.650  11.469
34797W        W 1206  42.903  21.424   0.643
34798W        W 1207   2.881  41.304   3.912
34799W        W 1208   6.819  20.878  14.485
34800W        W 1209  42.383  32.454   4.255
34801W        W 1210   0.491  23.053   1.213
34802W        W 1211  24.807  29.583  11.235
34803W        W 1212  12.321  30.135   2.445
34804W        W 1213  20.898  12.435   2.159
34805W        W 1214  40.883   7.371   3.636
34806W        W 1215  18.994  20.480   4.295
34807W        W 1216  34.205  23.615  10.441
34808W        W 1217  39.217  42.459   4.735
34809W        W 1218  41.864   5.364  13.330
34810W        W 1219  11.770  20.249  14.126
34811W        W 1220  39.082  42.433   0.241
34812W        W 1221  17.367  39.019   4.483
34813W        W 1222  19.256  28.568  14.007
34814W        W 1223  39.861  36.740   1.892
34815W        W 1224  13.577  11.456  10.589
34816W        W 1225  35.889  43.547   0.428
34817W        W 1226  41.259  10.210   1.860
34818W        W 1227  26.161  35.885  10.590
34819W        W 1228  39.643  35.143   1.452
34820W        W 1229  18.487  19.992   2.688
34821W        W 1230  26.551  10.875   3.242
34822W        W 1231  20.629  26.039   3.811
34823W        W 1232  25.636  18.969   3.778
34824W        W 1233  43.869  43.954  13.849
34825W        W 1234  19.891  18.713  13.531
34826W        W 1235  20.056  25.223   0.134
34827W        W 1236  42.634  31.587   0.751
34828W        W 1237  15.504  39.752  12.923
34829W        W 1238  31.173   9.901  12.901
34830W        W 1239  24.710  19.721  14.410
34831W        W 1240  24.652  16.491   2.330
34832W        W 1241  30.412   0.878  12.019
34833W        W 1242  20.609  18.119   1.887
34834W        W 1243  29.082  10.469   2.238
34835W        W 1244  38.576  35.826  13.937
34836W        W 1245  12.757  38.116   3.583
34837W        W 1246  28.674  39.950  14.843
34838W        W 1247  22.463   1.896   4.610
34839W        W 1248  14.060  35.517   4.941
34840W        W 1249  41.018  24.125   3.586
34841W        W 1250  24.673  17.306  10.445
34842W        W 1251  17.341  23.447  14.272
34843W        W 1252   1.805  22.714  12.860
34844W        W 1253  14.788  15.678   4.638
34845W        W 1254  37.098  19.472   2.337
34846W        W 1255  33.651  19.277  13.969
34847W        W 1256   6.760  37.833   3.127
34848W        W 1257  33.141  23.207   0.452
34849W        W 1258  30.021  35.914  10.740
34850W        W 1259   9.853  41.570  11.947
34851W        W 1260  38.222   2.723  11.075
34852W        W 1261  44.663  40.917   1.916
34853W        W 1262  38.959  22.306   3.634
34854W        W 1263  44.855   3.908   3.289
34855W        W 1264  29.501  19.210  12.888
34856W        W 1265  15.156  36.309   1.416
34857W        W 1266   7.569  12.706  11.491
34858W        W 1267  33.140  11.253  12.873
34859W        W 1268  25.456  41.801  12.631
34860W        W 1269  43.876  19.134   2.715
34861W        W 1270   0.310   9.789  11.566
34862W        W 1271  30.111  29.195   3.562
34863W        W 1272   4.883  34.079  10.504
34864W        W 1273  43.910  43.486  10.570
34865W        W 1274  16.136  34.349  13.552
34866W        W 1275  36.439  26.690   2.297
34867W        W 1276  38.495  10.305   4.294
34868W        W 1277  37.999  29.710   1.917
34869W        W 1278  39.805   6.648   4.772
34870W        W 1279  10.887  30.977   5.007
34871W        W 1280  27.164  13.909  12.490
34872W        W 1281   0.064  24.582  12.019
34873W        W 1282  40.101  36.433   3.310
34874W        W 1283  17.192  11.807   2.345
34875W        W 1284  18.143   3.685  11.098
34876W        W 1285   5.937   1.968   1.032
34877W        W 1286  33.201  41.872   1.302
34878W        W 1287  27.857   3.289  11.088
34879W        W 1288  42.045  29.125  13.804
34880W        W 1289  18.019  35.520   0.431
34881W        W 1290  23.154   8.665  13.425
34882W        W 1291  35.746  34.023  14.932
34883W        W 1292   8.472  43.998  14.796
34884W        W 1293  13.714  14.619   1.221
34885W        W 1294  21.683  11.552   2.788
34886W        W 1295  33.079  35.476   3.148
34887W        W 1296   0.490  34.494  14.957
34888W        W 1297  23.183  44.534   2.890
34889W        W 1298  32.184  20.003  11.467
34890W        W 1299  44.456  43.273   3.675
34891W        W 1300  20.203  37.831   0.283
34892W        W 1301   3.248  21.582   2.238
34893W        W 1302  34.132   9.490   4.221
34894W        W 1303  18.683   5.291   1.163
34895W        W 1304  24.950  36.297   0.562
34896W        W 1305  28.639  37.959   0.333
34897W        W 1306  29.008   2.797   5.040
34898W        W 1307  29.884  23.694  14.871
34899W        W 1308  42.949  19.159   0.889
34900W        W 1309  20.018  34.016  11.154
34901W        W 1310  23.582  26.855   2.829
34902W        W 1311  31.038   3.721  11.207
34903W        W 1312  21.809   0.937   0.267
34904W        W 1313  16.106   1.749   4.542
34905W        W 1314   0.306  16.346   0.980
34906W        W 1315  27.094   3.832  10.723
34907W        W 1316  44.814   3.484   4.684
34908W        W 1317  43.971   2.870   4.583
34909W        W 1318  22.226   8.613   4.047
34910W        W 1319  10.092   8.366   1.849
34911W        W 1320   2.744  11.494   2.390
34912W        W 1321  17.786   3.390   0.731
34913W        W 1322  12.173  12.821  10.669
34914W        W 1323  42.009  42.446  14.466
34915W        W 1324   4.733   1.316  12.127
34916W        W 1325  41.870   1.691  12.008
34917W        W 1326   3.708  23.179   2.365
34918W        W 1327  15.740  12.684  14.401
34919W        W 1328  39.202  18.337  11.549
34920W        W 1329  24.663  44.037  14.020
34921W        W 1330   9.844  39.998   3.460
34922W        W 1331   4.770  29.724  12.477
34923W        W 1332  21.742  32.924  13.469
34924W        W 1333  28.114   9.238   9.706
34925W        W 1334   0.424   0.456  12.496
34926W        W 1335  22.397  11.597  12.089
34927W        W 1336  41.561  35.488   4.516
34928W        W 1337  22.415   6.265   4.015
34929W        W 1338   4.318  10.324   1.317
34930W        W 1339  21.725  25.111   1.519
34931W        W 1340  31.565  25.119   1.410
34932W        W 1341  41.577   1.991  11.574
34933W        W 1342   3.436   5.680  12.872
34934W        W 1343  29.536  43.869   4.125
34935W        W 1344   0.448  13.512   0.774
34936W        W 1345  20.969  18.326   4.164
34937W        W 1346   1.720   7.479   0.431
34938W        W 1347  37.893   0.793   3.851
34939W        W 1348  17.141  19.349  14.869
34940W        W 1349  10.892  13.856  12.550
34941W        W 1350  23.805  16.016   2.330
34942W        W 1351  44.408  40.810  10.731
34943W        W 1352   1.794  10.886  12.986
34944W        W 1353  14.123   0.898  13.126
34945W        W 1354  11.705  42.998   3.835
34946W        W 1355  41.817   0.492   3.156
34947W        W 1356  21.571   3.911   2.379
34948W        W 1357   8.760  42.047  13.627
34949W        W 1358  15.648   2.353  13.013
34950W        W 1359  24.639   7.141  14.586
34951W        W 1360  43.514   1.007   4.750
34952W        W 1361  34.137  36.846  10.670
34953W        W 1362  15.542   1.376  11.536
34954W        W 1363  37.967   6.160  11.225
34955W        W 1364  41.297  10.639  12.072
34956W        W 1365  24.731  22.459  11.717
34957W        W 1366  43.420  39.566  11.518
34958W        W 1367  26.614  16.627  10.460
34959W        W 1368  17.641   3.711   0.356
34960W        W 1369  26.431  35.065   3.784
34961W        W 1370  12.695   6.826  12.884
34962W        W 1371  38.600  35.628  11.522
34963W        W 1372   6.491  13.864  10.713
34964W        W 1373  38.862  34.864  14.857
34965W        W 1374  38.663   3.531   3.132
34966W        W 1375  13.801  34.466  14.869
34967W        W 1376  30.101   1.389   0.848
34968W        W 1377  15.213  32.405   4.784
34969W        W 1378  40.758  14.699  12.815
34970W        W 1379   5.458  23.162  11.632
34971W        W 1380  44.694  12.221   0.311
34972W        W 1381  21.242  33.101   0.499
34973W        W 1382   4.497  17.198   2.273
34974W        W 1383  38.942  38.212  10.257
34975W        W 1384  27.633  21.298   1.831
34976W        W 1385  36.946   8.180   3.154
34977W        W 1386  25.471  44.271   0.789
34978W        W 1387  20.284  12.720   0.043
34979W        W 1388  29.080   2.222   3.563
34980W        W 1389  22.829  16.651   3.234
34981W        W 1390  34.952  38.030  14.376
34982W        W 1391  15.475   4.042  11.280
34983W        W 1392  22.900  37.651   2.038
34984W        W 1393  42.368  16.338  13.268
34985W        W 1394  24.222  28.983  12.137
34986W        W 1395   2.827  19.532   2.806
34987W        W 1396   8.665  25.787   4.550
34988W        W 1397  37.204  21.618   1.927
34989W        W 1398  18.739  28.968  11.623
34990W        W 1399   5.973  14.525   3.680
34991W        W 1400  10.439  37.327  14.219
34992W        W 1401   5.195  38.854   0.845
34993W        W 1402  37.039  30.307   1.641
34994W        W 1403  40.427  12.630  14.460
34995W        W 1404  10.194  19.997   0.990
34996W        W 1405   8.693   3.922  13.557
34997W        W 1406  16.296  42.499  12.634
34998W        W 1407  41.655  42.948   4.946
34999W        W 1408  41.572  24.584  11.778
35000W        W 1409   6.952   5.434   1.243
35001W        W 1410  28.856  18.876   3.649
35002W        W 1411  36.636   4.273  11.629
35003W        W 1412  33.654  13.746   3.788
35004W        W 1413  27.685  33.024  12.932
35005W        W 1414  21.427  44.854  13.939
35006W        W 1415  10.187  12.173   3.865
35007W        W 1416  40.894   1.944  12.163
35008W        W 1417  42.974   7.790   2.403
35009W        W 1418  12.448  15.428  10.436
35010W        W 1419  30.253   6.557  12.388
35011W        W 1420   3.195  25.274   1.265
35012W        W 1421   1.272  35.856   3.290
35013W        W 1422  10.440  10.245   0.344
35014W        W 1423  27.755  17.584   2.337
35015W        W 1424  16.314  44.158  13.795
35016W        W 1425  22.601  16.916   0.443
35017W        W 1426   3.749  10.886  12.036
35018W        W 1427  35.547  26.200   1.409
35019W        W 1428  23.544   1.517  14.966
35020W        W 1429  17.881  19.359  10.823
35021W        W 1430   1.484  11.421   3.684
35022W        W 1431  42.033  24.961   3.631
35023W        W 1432   1.237  21.059  12.605
35024W        W 1433  13.055  21.831   4.788
35025W        W 1434   3.890  28.168  13.503
35026W        W 1435  13.141  38.588  13.255
35027W        W 1436  30.078   2.969   4.522
35028W        W 1437  11.341  13.903   4.154
35029W        W 1438  21.310  22.640  14.340
35030W        W 1439  27.497  29.808   2.153
35031W        W 1440  22.973  44.451   2.191
35032W        W 1441  44.072  24.371  10.688
35033W        W 1442  39.465  29.541   0.900
35034W        W 1443  35.475  19.636   4.639
35035W        W 1444  38.277   5.902   1.019
35036W        W 1445  10.270  31.966  10.262
35037W        W 1446  43.277  11.583  12.462
35038W        W 1447  32.659  32.494  13.771
35039W        W 1448  42.320  27.669  11.147
35040W        W 1449  43.682   4.406   1.873
35041W        W 1450  39.041  28.633  12.404
35042W        W 1451  12.155   2.926   2.305
35043W        W 1452  11.573  31.564   1.778
35044W        W 1453  12.141  22.938  13.463
35045W        W 1454  44.066  12.321  14.472
35046W        W 1455  35.178  13.181  14.114
35047W        W 1456  44.094  10.419  14.872
35048W        W 1457  11.923  23.396  10.224
35049W        W 1458  25.510  36.541   4.278
35050W        W 1459   3.402  24.640  12.824
35051W        W 1460  39.222  30.384  14.260
35052W        W 1461  10.003  44.658   4.928
35053W        W 1462   0.699   8.715  12.932
35054W        W 1463   5.907   4.250   3.706
35055W        W 1464  22.229  23.453  11.469
35056W        W 1465  20.500  28.559   3.760
35057W        W 1466   1.318  19.038   4.224
35058W        W 1467  27.174  31.494   4.183
35059W        W 1468   5.840  32.022   0.088
35060W        W 1469  36.452  27.203  12.435
35061W        W 1470  30.873  11.108  12.310
35062W        W 1471  28.929   3.272   1.279
35063W        W 1472  13.774   6.640   3.532
35064W        W 1473   3.263  13.274   4.556
35065W        W 1474   9.606  39.428   4.539
35066W        W 1475  36.769   7.833  13.053
35067W        W 1476  17.971  38.959   5.139
35068W        W 1477  23.232  13.202  12.923
35069W        W 1478  14.725   4.609  14.408
35070W        W 1479  37.347  32.327   3.306
35071W        W 1480   7.872  43.865   3.076
35072W        W 1481  19.172   6.971   4.419
35073W        W 1482  21.607  22.673   1.747
35074W        W 1483  27.919  19.085  14.744
35075W        W 1484  37.655  25.082   1.108
35076W        W 1485  18.096  15.831  14.288
35077W        W 1486   0.104   0.800   2.104
35078W        W 1487  29.777   5.112  10.724
35079W        W 1488   5.309   9.353   3.636
35080W        W 1489  41.055  31.214   2.826
35081W        W 1490  13.464  14.331  14.948
35082W        W 1491   3.799  29.522   2.397
35083W        W 1492  27.672  15.988  14.989
35084W        W 1493  31.480  32.997  11.950
35085W        W 1494  22.042  44.668  12.486
35086W        W 1495  21.291  35.604  14.471
35087W        W 1496  34.025  12.114  10.928
35088W        W 1497   0.297  40.398  14.493
35089W        W 1498  42.147  12.032   0.793
35090W        W 1499  42.404  11.196   3.573
35091W        W 1500  12.986  29.611  11.280
35092W        W 1501  36.092  28.191  11.673
35093W        W 1502  18.097  22.747   4.567
35094W        W 1503  15.794   7.981  12.100
35095W        W 1504   9.179  27.196  13.289
35096W        W 1505   8.698  36.915  13.952
35097W        W 1506   5.708  31.988   2.991
35098W        W 1507   0.204  36.353   1.373
35099W        W 1508  14.876  19.060   4.072
35100W        W 1509  20.031   9.162   2.664
35101W        W 1510  18.214  24.370  10.517
35102W        W 1511  20.999  25.934   0.997
35103W        W 1512  32.081   2.846  12.358
35104W        W 1513   7.882  12.334   1.357
35105W        W 1514   8.407  44.221   3.790
35106W        W 1515   7.326  31.024  12.530
35107W        W 1516  22.782   4.938   3.651
35108W        W 1517   0.883  19.953  14.876
35109W        W 1518  28.024  29.963  10.753
35110W        W 1519  28.489  10.741   1.104
35111W        W 1520   8.966  11.639  11.064
35112W        W 1521  28.761  19.748   4.422
35113W        W 1522  44.275  15.839   0.859
35114W        W 1523  29.552  40.828  13.885
35115W        W 1524  26.508  35.449  14.435
35116W        W 1525  28.948   5.072   0.817
35117W        W 1526  29.922  43.734  13.645
35118W        W 1527  26.656  35.965   3.163
35119W        W 1528  28.093  29.677  13.956
35120W        W 1529  21.161  15.208  11.918
35121W        W 1530  34.933   9.054  12.086
35122W        W 1531   3.342  38.596   4.543
35123W        W 1532   6.404  29.909   0.483
35124W        W 1533  19.198   6.621  13.420
35125W        W 1534  29.022   0.900   4.594
35126W        W 1535   8.671   9.758  14.252
35127W        W 1536  15.559  35.877  12.194
35128W        W 1537   7.001  28.491   3.679
35129W        W 1538  25.665  37.779  13.438
35130W        W 1539  23.546  19.554  14.788
35131W        W 1540  36.086  26.225  12.479
35132W        W 1541  43.329  18.463  10.679
35133W        W 1542  33.082   5.641   3.238
35134W        W 1543   4.801  14.401   4.376
35135W        W 1544   5.704  17.045   0.323
35136W        W 1545   5.341  44.978  12.405
35137W        W 1546  13.578  20.245   0.348
35138W        W 1547  44.753  18.572  14.893
35139W        W 1548  21.667   0.208  12.070
35140W        W 1549  19.950  40.819   2.333
35141W        W 1550  39.524  22.517  13.916
35142W        W 1551  42.582  35.036   1.321
35143W        W 1552   5.550   7.814   3.627
35144W        W 1553  19.593  15.189   4.617
35145W        W 1554  39.015  16.376  11.549
35146W        W 1555  26.030  12.116   1.362
35147W        W 1556  20.713   8.833  10.406
35148W        W 1557  32.014  35.526   0.553
35149W        W 1558  16.553  18.920  12.035
35150W        W 1559  14.160  18.918   4.723
35151W        W 1560  35.805  32.501   2.224
35152W        W 1561  42.421  28.547   1.515
35153W        W 1562  18.574  19.528   2.469
35154W        W 1563   0.731  29.786   5.255
35155W        W 1564  22.385   9.010   2.766
35156W        W 1565  20.281  25.090  11.197
35157W        W 1566  43.512  40.010   3.641
35158W        W 1567  32.079  38.795   1.462
35159W        W 1568  43.537  44.455  11.734
35160W        W 1569  42.342  44.164   2.409
35161W        W 1570  22.967  21.697  14.771
35162W        W 1571  28.171  36.556   2.342
35163W        W 1572   9.124  28.380  10.544
35164W        W 1573   1.226  21.245  10.222
35165W        W 1574  20.707  37.573   4.817
35166W        W 1575  39.281  24.249   0.778
35167W        W 1576  44.333  19.127  10.890
35168W        W 1577  35.550  13.100  14.461
35169W        W 1578  37.679  39.968   4.282
35170W        W 1579  18.526  25.466  13.472
35171W        W 1580   7.847  31.420   2.761
35172W        W 1581  33.409   7.810  10.396
35173W        W 1582  33.811  35.135  12.076
35174W        W 1583   4.649  42.906   4.628
35175W        W 1584  10.458   8.298   0.525
35176W        W 1585  24.525  34.991   2.865
35177W        W 1586  14.693  24.700   0.292
35178W        W 1587  28.575  44.357  11.299
35179W        W 1588   3.320  27.163   3.131
35180W        W 1589  22.679   0.697  11.142
35181W        W 1590   1.114  29.754   0.482
35182W        W 1591  10.796  40.941  13.595
35183W        W 1592  14.347  36.464   2.757
35184W        W 1593  24.580  34.585  12.502
35185W        W 1594   0.854   9.751  11.681
35186W        W 1595   4.366  10.868  11.421
35187W        W 1596  31.516   0.193   5.065
35188W        W 1597  31.042  17.084  12.916
35189W        W 1598  33.230  22.051   4.654
35190W        W 1599  33.416  33.869  11.134
35191W        W 1600  41.805  13.443  10.567
35192W        W 1601  10.239  32.327   4.610
35193W        W 1602  20.773  24.790  14.202
35194W        W 1603  15.390  23.036   0.906
35195W        W 1604  38.767  10.355  12.978
35196W        W 1605  41.922   7.397   2.666
35197W        W 1606   7.265  27.890   4.673
35198W        W 1607  42.864  37.859   5.004
35199W        W 1608  27.480  13.800   1.781
35200W        W 1609   1.727  40.994   3.133
35201W        W 1610   7.885   4.933  13.503
35202W        W 1611  15.478  27.209   1.243
35203W        W 1612  33.045   4.305   3.099
35204W        W 1613  22.413  21.615   2.494
35205W        W 1614  35.600  42.818  12.113
35206W        W 1615  28.956  40.335   3.705
35207W        W 1616  17.214   6.747  11.836
35208W        W 1617  38.421  14.751   3.701
35209W        W 1618  44.903  16.700   4.575
35210W        W 1619   5.828  17.726  11.462
35211W        W 1620  17.011  22.544   9.890
35212W        W 1621  35.535  38.179   1.061
35213W        W 1622   4.927  44.238  12.624
35214W        W 1623  11.581  19.517   1.871
35215W        W 1624  20.461  36.947   3.660
35216W        W 1625  29.403   5.782  11.902
35217W        W 1626   2.737  26.886  12.945
35218W        W 1627  15.707  25.338  10.742
35219W        W 1628  32.424  23.467   2.593
35220W        W 1629  41.609  15.628   0.314
35221W        W 1630  25.146   0.157  13.535
35222W        W 1631   9.644  22.093  10.978
35223W        W 1632  13.778  21.010   2.688
35224W        W 1633   5.889  12.693  11.083
35225W        W 1634  13.146  38.870   3.189
35226W        W 1635  40.822  36.110   0.900
35227W        W 1636  12.188  31.556   4.266
35228W        W 1637  16.183   4.278  13.988
35229W        W 1638  16.525  24.032   3.811
35230W        W 1639   8.834  11.738   2.064
35231W        W 1640  29.974  15.714  13.526
35232W        W 1641   9.315  30.684  11.225
35233W        W 1642  26.799   9.906   3.790
35234W        W 1643  40.449  29.172  11.228
35235W        W 1644  43.291  35.364  11.577
35236W        W 1645  10.569  37.088   4.432
35237W        W 1646  28.171  31.922   3.689
35238W        W 1647  23.647  13.430  12.743
35239W        W 1648   8.419  18.222   4.302
35240W        W 1649  26.749   9.985  11.153
35241W        W 1650  24.857  41.874   0.624
35242W        W 1651  28.662  11.572  14.194
35243W        W 1652  28.181   2.694   1.499
35244W        W 1653  24.657   6.773   1.970
35245W        W 1654  14.385   7.728  14.948
35246W        W 1655  12.304  29.199   4.630
35247W        W 1656  41.702  34.804  11.604
35248W        W 1657  16.309  44.863   2.400
35249W        W 1658   9.634  23.538   0.364
35250W        W 1659  37.578  16.071  13.049
35251W        W 1660   7.055  37.409   1.037
35252W        W 1661   3.196  30.965  11.562
35253W        W 1662  41.503  33.410  14.387
35254W        W 1663  38.840  23.974  11.186
35255W        W 1664   3.320  25.194  11.959
35256W        W 1665   1.231  25.834  11.188
35257W        W 1666   8.661  44.882  12.621
35258W        W 1667  41.447   2.061  13.928
35259W        W 1668  17.189   0.430  10.958
35260W        W 1669  12.657  26.989  11.587
35261W        W 1670  41.989   2.899   2.851
35262W        W 1671   3.414  35.555  13.460
35263W        W 1672   1.272  15.344  14.880
35264W        W 1673  28.643  36.904  12.418
35265W        W 1674  30.211  17.052  13.147
35266W        W 1675   7.881  17.004  12.044
35267W        W 1676  10.372  38.470   0.474
35268W        W 1677   2.528  29.835  10.979
35269W        W 1678  17.209  21.720   2.389
35270W        W 1679  17.459  40.498  11.471
35271W        W 1680  36.991  10.692   3.261
35272W        W 1681  13.826  20.313  10.268
35273W        W 1682   9.020  25.822  12.554
35274W        W 1683  28.070  14.998   3.711
35275W        W 1684   0.764   6.198  13.074
35276W        W 1685  16.794  32.341  11.305
35277W        W 1686  13.222  27.196   3.736
35278W        W 1687  39.365   5.989   3.147
35279W        W 1688  42.330  34.777   2.949
35280W        W 1689   6.467  29.584   3.648
35281W        W 1690  31.960  25.050  11.376
35282W        W 1691  18.788   7.490   3.227
35283W        W 1692   5.909  13.290   0.136
35284W        W 1693   4.291  16.894  10.744
35285W        W 1694  21.880  29.588  12.922
35286W        W 1695   0.476  22.559   4.928
35287W        W 1696  35.497  15.138  12.152
35288W        W 1697  36.911  22.956  12.953
35289W        W 1698  35.516  23.548  10.968
35290W        W 1699  34.932  42.424   1.894
35291W        W 1700   2.829   7.252  14.016
35292W        W 1701   4.419  32.339   1.709
35293W        W 1702  41.197  21.664   2.812
35294W        W 1703  24.058  26.828  12.610
35295W        W 1704  39.774   9.561  10.587
35296W        W 1705  41.442  27.606   2.138
35297W        W 1706   8.628  35.888   0.424
35298W        W 1707  33.985   5.708  11.568
35299W        W 1708  13.351  15.230  13.039
35300W        W 1709  19.548   1.927   0.892
35301W        W 1710  34.360  20.634  10.804
35302W        W 1711  32.642  23.092  13.939
35303W        W 1712  18.710   3.392  12.080
35304W        W 1713  40.239  32.940  13.727
35305W        W 1714  30.723   4.151   3.311
35306W        W 1715   7.709   1.868   3.298
35307W        W 1716  13.923  31.128   4.237
35308W        W 1717  17.110  42.406  13.061
35309W        W 1718  30.582  16.854  12.783
35310W        W 1719  29.428  33.362   1.301
35311W        W 1720   9.745  24.181   3.571
35312W        W 1721  29.953   4.785  13.456
35313W        W 1722   1.001   4.013  10.752
35314W        W 1723  38.797  22.005  11.509
35315W        W 1724  28.566  15.616  12.450
35316W        W 1725  27.686  23.599   1.206
35317W        W 1726  30.644  19.089  13.834
35318W        W 1727  10.812  16.161   3.726
35319W        W 1728   3.978  19.696   2.764
35320W        W 1729  43.367  21.521   2.752
35321W        W 1730  43.027  39.208   2.892
35322W        W 1731  29.485  28.251  13.873
35323W        W 1732  20.275   0.741  11.640
35324W        W 1733   6.133  23.171  10.278
35325W        W 1734  11.806   6.344   3.729
35326W        W 1735   3.549   2.128   1.472
35327W        W 1736  27.091  30.883  13.952
35328W        W 1737  13.111  17.568  11.217
35329W        W 1738  36.782   6.368  12.887
35330W        W 1739   8.892  15.873  11.058
35331W        W 1740  38.289  30.276   4.411
35332W        W 1741  13.091   6.708   3.225
35333W        W 1742   2.974  16.030   2.305
35334W        W 1743  40.376  26.943  14.270
35335W        W 1744  33.442  44.489   3.285
35336W        W 1745  15.094   7.938  12.448
35337W        W 1746  36.022  19.788   2.416
35338W        W 1747   6.946  11.857  14.993
35339W        W 1748  38.975  22.081  10.962
35340W        W 1749  28.470  33.114   1.298
35341W        W 1750  43.888  26.905   1.864
35342W        W 1751  23.101  31.979  12.177
35343W        W 1752  22.058   9.114   4.708
35344W        W 1753  24.149  24.098  14.555
35345W        W 1754  11.128   6.929  12.154
35346W        W 1755   5.341  22.637  14.198
35347W        W 1756   3.694  11.708  12.450
35348W        W 1757  18.239   9.099   1.504
35349W        W 1758  19.950  27.460   3.855
35350W        W 1759  37.460  39.011   4.401
35351W        W 1760  25.009  22.291  13.917
35352W        W 1761  12.112   6.174   1.392
35353W        W 1762  11.946  21.558  14.445
35354W        W 1763  25.579  44.488   3.675
35355W        W 1764   2.831  44.351   0.047
35356W        W 1765  37.024  28.723   4.566
35357W        W 1766  38.600  25.155  13.417
35358W        W 1767   1.808  38.962   4.845
35359W        W 1768  30.413  10.736  14.776
35360W        W 1769  27.172  21.438  14.814
35361W        W 1770  10.916   1.967   1.630
35362W        W 1771   9.790   0.786  12.123
35363W        W 1772  21.307  23.629  12.499
35364W        W 1773   5.424  40.630  11.966
35365W        W 1774   0.313  32.215   0.348
35366W        W 1775  18.725  39.315   4.599
35367W        W 1776  19.202  14.924   1.274
35368W        W 1777  40.606   6.257   2.461
35369W        W 1778   8.692  16.832   3.083
35370W        W 1779  10.268  19.728  13.350
35371W        W 1780  42.478  34.588   4.773
35372W        W 1781  12.052  15.700  10.238
35373W        W 1782   0.807  44.408   2.246
35374W        W 1783   0.822   6.990  12.491
35375W        W 1784  25.509  16.315   0.031
35376W        W 1785  21.654  16.153   1.172
35377W        W 1786  16.430  16.192   4.115
35378W        W 1787  43.527   8.699   3.446
35379W        W 1788   3.965  16.759  12.589
35380W        W 1789  43.037  20.744  14.987
35381W        W 1790  30.845  12.502   3.649
35382W        W 1791  23.160  29.143  14.005
35383W        W 1792   5.151  42.342  14.337
35384W        W 1793   5.439  13.134  14.233
35385W        W 1794  34.423  21.152   3.963
35386W        W 1795  20.532  17.108   0.936
35387W        W 1796  44.062   2.318  12.644
35388W        W 1797   6.258  26.898   0.731
35389W        W 1798  24.744  37.012   3.303
35390W        W 1799  41.971  37.426   1.154
35391W        W 1800  37.083  23.814   4.475
35392W        W 1801  16.834   0.780  14.912
35393W        W 1802  19.492  18.471  11.358
35394W        W 1803  27.765  30.078  11.186
35395W        W 1804  33.513  10.883   0.683
35396W        W 1805  40.207  21.809   4.994
35397W        W 1806  33.417  28.155  13.534
35398W        W 1807  44.761  20.442   2.651
35399W        W 1808  44.294  42.320  12.048
35400W        W 1809  11.100  26.131   3.697
35401W        W 1810   2.507  25.788  13.274
35402W        W 1811  40.634  28.628   4.724
35403W        W 1812  10.822  21.174   1.239
35404W        W 1813  22.526  16.563  14.552
35405W        W 1814  31.494  14.166   3.351
35406W        W 1815  23.170  24.156  11.704
35407W        W 1816  27.080  23.992   3.136
35408W        W 1817  28.180   7.603  11.432
35409W        W 1818   5.846  39.175   2.785
35410W        W 1819  22.578   2.359   2.290
35411W        W 1820  43.059   4.505   0.760
35412W        W 1821  43.507  44.234  12.184
35413W        W 1822  15.843  21.565   2.216
35414W        W 1823  37.030   1.712  10.974
35415W        W 1824  34.534  38.372  14.493
35416W        W 1825  39.465  28.532   0.776
35417W        W 1826   8.698   0.786  10.820
35418W        W 1827  27.653  21.828  12.646
35419W        W 1828  41.561  37.759  11.364
35420W        W 1829   1.020  43.999  11.654
35421W        W 1830  30.313  21.604   1.753
35422W        W 1831  31.927  18.256   0.810
35423W        W 1832  24.268   8.935   2.207
35424W        W 1833   4.412  22.045  12.564
35425W        W 1834  30.371  15.263  10.767
35426W        W 1835  10.986  29.913  11.125
35427W        W 1836  30.697  17.015  13.280
35428W        W 1837  29.612  18.312  10.433
35429W        W 1838  21.670  21.009  14.960
35430W        W 1839  10.562  40.409  14.302
35431W        W 1840  31.140   2.292  10.341
35432W        W 1841  21.293   8.527   2.121
35433W        W 1842  42.215   1.863   2.311
35434W        W 1843  24.034  10.983  12.439
35435W        W 1844   4.709  42.515  13.410
35436W        W 1845   2.880  41.720   2.739
35437W        W 1846  16.365  40.048  12.967
35438W        W 1847   3.204  44.568  13.771
35439W        W 1848  38.751  26.399  12.366
35440W        W 1849  37.688   5.166   0.262
35441W        W 1850  21.168  15.066  10.579
35442W        W 1851  31.054  26.100  10.704
35443W        W 1852  10.838   8.779   2.752
35444W        W 1853   0.850  38.889  13.079
35445W        W 1854  22.963  12.628   2.211
35446W        W 1855   1.935  27.931  13.407
35447W        W 1856  43.271   5.661  11.997
35448W        W 1857  37.506  20.631  12.967
35449W        W 1858  17.234  22.283   1.728
35450W        W 1859  18.065  10.777   3.972
35451W        W 1860  22.747   6.293   3.615
35452W        W 1861   8.162   7.341   4.143
35453W        W 1862  18.716  30.596   4.730
35454W        W 1863  18.126  30.089  10.926
35455W        W 1864  28.165  37.649   2.677
35456W        W 1865   1.469   6.930  12.973
35457W        W 1866  39.997  15.844   2.766
35458W        W 1867  10.672  40.805  10.290
35459W        W 1868   2.760  29.392   0.315
35460W        W 1869  10.176   2.371   4.011
35461W        W 1870  44.740  41.487  11.378
35462W        W 1871   0.963  32.109  13.038
35463W        W 1872  19.751  12.089  14.460
35464W        W 1873  24.659  17.677  12.696
35465W        W 1874   5.386  27.323  12.425
35466W        W 1875  19.311  36.560  12.027
35467W        W 1876  27.693   9.941   5.231
35468W        W 1877  27.598   2.943   3.103
35469W        W 1878  25.312  12.758   4.457
35470W        W 1879   9.545  14.429   1.856
35471W        W 1880  36.658  35.314   4.049
35472W        W 1881  26.312  19.793  11.165
35473W        W 1882  29.390  36.224   0.403
35474W        W 1883  33.976  31.815   4.914
35475W        W 1884  12.163   1.473   1.184
35476W        W 1885  22.343  32.638  12.013
35477W        W 1886  23.061   8.217   0.311
35478W        W 1887   1.940  12.662   1.734
35479W        W 1888  38.932  23.613   0.604
35480W        W 1889  23.755  34.999  10.843
35481W        W 1890   2.906   3.640   1.140
35482W        W 1891  39.434  37.054  11.553
35483W        W 1892  39.052  29.145  14.110
35484W        W 1893  18.749  27.253   4.748
35485W        W 1894   3.348  22.266  14.481
35486W        W 1895  37.308  17.427  11.605
35487W        W 1896  27.742   6.645  10.656
35488W        W 1897   0.338  22.197   4.566
35489W        W 1898  15.512  25.461  13.824
35490W        W 1899  14.867  28.838  12.921
35491W        W 1900  33.408  33.642   0.754
35492W        W 1901  36.946  25.378   3.814
35493W        W 1902  30.048  17.233   1.523
35494W        W 1903   1.927  18.158  11.467
35495W        W 1904   2.491   7.454  11.229
35496W        W 1905   7.102  14.876   4.146
35497W        W 1906  15.366  38.728   5.018
35498W        W 1907  13.121   6.675  11.582
35499W        W 1908  37.948  37.305  12.684
35500W        W 1909  36.545  36.130   1.747
35501W        W 1910  16.945  14.148   0.241
35502W        W 1911  38.807  11.325  13.902
35503W        W 1912  14.476  29.081   4.168
35504W        W 1913  36.672  22.246  13.102
35505W        W 1914  34.180   9.814   2.428
35506W        W 1915   4.697  25.472   2.803
35507W        W 1916  41.389   4.400   0.411
35508W        W 1917  20.431  10.041  11.138
35509W        W 1918   1.206  32.100   0.264
35510W        W 1919   4.656   5.383   0.893
35511W        W 1920   0.296  44.158  11.429
35512W        W 1921  11.377   9.670  13.037
35513W        W 1922   3.737  13.396  13.893
35514W        W 1923  21.139  28.144  13.781
35515W        W 1924  42.736   7.291  10.305
35516W        W 1925  27.210  22.926   4.079
35517W        W 1926   6.377  30.907  14.336
35518W        W 1927   8.287  36.120  13.881
35519W        W 1928  26.283  18.829   0.901
35520W        W 1929  25.923  28.394   3.264
35521W        W 1930  24.351  39.859  12.894
35522W        W 1931  23.534  14.529  11.189
35523W        W 1932  39.432  35.439   2.618
35524W        W 1933  19.343  23.687   3.100
35525W        W 1934  23.995  16.605   0.529
35526W        W 1935  44.968  27.917   2.770
35527W        W 1936  29.688  23.738  11.542
35528W        W 1937   5.370   6.955   1.787
35529W        W 1938  16.291  43.637   1.869
35530W        W 1939  44.057  36.747  11.623
35531W        W 1940   1.318  22.324  13.989
35532W        W 1941   1.734  11.102   1.850
35533W        W 1942   9.090  43.359   1.717
35534W        W 1943  15.289   1.407   2.586
35535W        W 1944  34.004  16.181   1.204
35536W        W 1945   9.345   2.761   2.386
35537W        W 1946  15.828  12.117   2.774
35538W        W 1947  12.484  23.522   1.849
35539W        W 1948  41.414  19.764   2.285
35540W        W 1949  26.257  11.654   1.216
35541W        W 1950  44.436  24.685   0.466
35542W        W 1951  13.345   2.388  11.581
35543W        W 1952  12.365  28.043   0.489
35544W        W 1953  19.228  41.232  12.094
35545W        W 1954  25.566   3.300  11.135
35546W        W 1955  38.006  16.383   0.163
35547W        W 1956   2.481  10.087  10.750
35548W        W 1957  15.659   5.867  10.625
35549W        W 1958  10.259  44.744  14.319
35550W        W 1959  41.090  17.285   4.079
35551W        W 1960  32.356  12.910   0.002
35552W        W 1961  22.758  13.082   1.800
35553W        W 1962  21.534  15.533   9.883
35554W        W 1963  37.699   9.613   4.134
35555W        W 1964   4.302  22.293  14.371
35556W        W 1965  30.042  31.013  12.523
35557W        W 1966   1.791  18.786   0.287
35558W        W 1967  42.358   7.186   2.809
35559W        W 1968  39.832  34.444  14.282
35560W        W 1969  44.711   7.006   0.221
35561W        W 1970  42.563  26.071  14.872
35562W        W 1971  26.001   9.342   2.856
35563W        W 1972  13.432  25.667   2.958
35564W        W 1973  36.409  10.384   3.737
35565W        W 1974  36.796  18.627  13.731
35566W        W 1975  44.803  10.143   2.131
35567W        W 1976  43.867  39.879  12.600
35568W        W 1977  37.094   9.158  12.525
35569W        W 1978  23.139  28.684  11.715
35570W        W 1979  32.101  15.391   2.673
35571W        W 1980  15.631  39.376  12.133
35572W        W 1981  25.499  24.278   4.162
35573W        W 1982  30.987  11.170   2.980
35574W        W 1983  22.040  29.625   0.735
35575W        W 1984  31.903   3.830  14.262
35576W        W 1985  10.541  38.930  11.552
35577W        W 1986  27.560  22.354  12.710
35578W        W 1987   2.809  33.117   0.936
35579W        W 1988  25.211  41.635  13.052
35580W        W 1989   3.372  43.990  11.568
35581W        W 1990  12.080  41.512  12.388
35582W        W 1991  24.055  15.592   2.110
35583W        W 1992  23.137  36.624  13.954
35584W        W 1993   5.266  43.381   0.253
35585W        W 1994  28.085   1.462   0.847
35586W        W 1995  32.600  22.748  14.330
35587W        W 1996  21.994  40.630  12.271
35588W        W 1997   5.304  31.620  10.677
35589W        W 1998  19.825  28.728  13.972
35590W        W 1999   6.372   2.745   2.665
35591W        W 2000  29.921  44.520  14.439
35592W        W 2001  32.373  35.925  14.382
35593W        W 2002  31.706  34.353  14.738
35594W        W 2003  21.497  33.816  14.718
35595W        W 2004  21.299  29.509   1.282
35596W        W 2005  14.621   6.752   0.793
35597W        W 2006   6.011  15.721  12.815
35598W        W 2007  32.465  14.881   1.913
35599W        W 2008  44.245  16.903   3.205
35600W        W 2009  31.992  36.527   2.257
35601W        W 2010  12.328   9.386  11.280
35602W        W 2011  24.072  41.538  12.543
35603W        W 2012  39.904  44.933  13.793
35604W        W 2013  40.938  12.589  13.827
35605W        W 2014   1.917   1.826  14.465
35606W        W 2015  26.048  10.351   3.717
35607W        W 2016  27.546   6.852  11.957
35608W        W 2017  21.080  20.670  14.222
35609W        W 2018  27.223  10.784  12.462
35610W        W 2019  37.762  10.111  12.045
35611W        W 2020   9.148   7.167  11.167
35612W        W 2021  40.424  34.652   3.385
35613W        W 2022   9.653  27.549   0.970
35614W        W 2023  31.988   2.544  13.293
35615W        W 2024  25.111   1.953  12.136
35616W        W 2025   5.714   2.771  11.353
35617W        W 2026  36.525  28.492   1.736
35618W        W 2027  23.398  35.374  12.600
35619W        W 2028  32.301  23.220   1.303
35620W        W 2029  43.422  19.123  12.480
35621W        W 2030  40.678  39.986  11.687
35622W        W 2031  25.232  19.680   1.159
35623W        W 2032  14.820  25.001  10.414
35624W        W 2033  35.255  42.491   2.789
35625W        W 2034   0.830  10.963  12.849
35626W        W 2035  26.993  21.512   5.487
35627W        W 2036  32.293  33.166   2.550
35628W        W 2037   9.677   4.845   0.152
35629W        W 2038  11.790  37.565   5.100
35630W        W 2039  20.718  14.095   4.061
35631W        W 2040  24.129  39.057  14.491
35632W        W 2041  39.950   4.395  14.863
35633W        W 2042  28.433  18.116   2.644
35634W        W 2043  26.136  36.963   1.672
35635W        W 2044   4.815  27.381  12.571
35636W        W 2045  30.073  30.006   2.937
35637W        W 2046  26.447  18.868   2.171
35638W        W 2047  23.200  17.670  11.211
35639W        W 2048  15.052  19.597  13.771
35640W        W 2049  42.939  30.062   3.011
35641W        W 2050  40.426  18.675  10.325
35642W        W 2051  43.015  14.764   1.343
35643W        W 2052  37.950  34.101   4.696
35644W        W 2053   5.936  14.772  14.352
35645W        W 2054  39.878  29.202   0.937
35646W        W 2055  19.324  30.935   0.344
35647W        W 2056  43.532  19.245  13.126
35648W        W 2057  31.125  36.777   4.314
35649W        W 2058   9.727  24.611   4.354
35650W        W 2059  41.835  23.112   2.854
35651W        W 2060  43.559   8.294   1.238
35652W        W 2061  16.276  19.352   0.919
35653W        W 2062  37.948  44.590   1.446
35654W        W 2063   6.362  31.981   2.048
35655W        W 2064  43.817   1.452  12.170
35656W        W 2065  17.144   5.876   2.783
35657W        W 2066   1.313  29.432   4.233
35658W        W 2067  32.781  36.992   4.523
35659W        W 2068  17.324  40.020   4.315
35660W        W 2069  18.032   8.711   4.112
35661W        W 2070   2.773  23.239   3.428
35662W        W 2071   7.053   5.227  12.247
35663W        W 2072  22.937  37.494   4.609
35664W        W 2073   4.836  39.245  14.011
35665W        W 2074  20.658   7.071   2.760
35666W        W 2075  19.585  33.974  11.994
35667W        W 2076  34.637  29.626  10.261
35668W        W 2077  27.153  40.490  14.803
35669W        W 2078  10.293  44.570  10.328
35670W        W 2079  13.345  30.047  10.515
35671W        W 2080  11.097  22.161   1.944
35672W        W 2081  22.816   2.345   4.109
35673W        W 2082  20.799  14.629  12.488
35674W        W 2083  37.137  15.096  13.040
35675W        W 2084  43.886  29.183  13.415
35676W        W 2085  34.048  17.341  12.457
35677W        W 2086   5.376  42.453  14.807
35678W        W 2087  35.526  38.912  12.356
35679W        W 2088   7.040  31.476   0.892
35680W        W 2089  33.327  36.916   2.823
35681W        W 2090  20.164  27.683   1.224
35682W        W 2091   1.288   9.754   4.977
35683W        W 2092  32.156  20.500  11.611
35684W        W 2093  31.176  19.077  13.862
35685W        W 2094  36.480  43.328   1.657
35686W        W 2095   0.237  22.232  14.441
35687W        W 2096   3.256   1.996  12.702
35688W        W 2097  36.976   3.531  13.202
35689W        W 2098  29.637  31.866  12.496
35690W        W 2099   2.831  10.962   0.672
35691W        W 2100  26.232  20.619  14.779
35692W        W 2101  24.626  16.999  14.635
35693W        W 2102  17.679  26.648  10.602
35694W        W 2103  18.176   7.820  13.573
35695W        W 2104  16.652   6.123  14.418
35696W        W 2105  27.743   9.762   2.824
35697W        W 2106  26.686  21.722  10.658
35698W        W 2107  39.055   8.312   2.292
35699W        W 2108  14.339  34.089   3.102
35700W        W 2109  12.692   9.744  11.270
35701W        W 2110   7.669   9.740  10.674
35702W        W 2111   3.717  28.444   1.288
35703W        W 2112  34.670  36.820  14.379
35704W        W 2113  14.180  30.464   0.372
35705W        W 2114  12.136   4.757   0.429
35706W        W 2115  41.420   1.347   4.321
35707W        W 2116  30.818  19.260   1.691
35708W        W 2117   5.746  23.139  11.193
35709W        W 2118   5.676  15.641  10.740
35710W        W 2119  20.353  32.532   4.624
35711W        W 2120  43.434  22.538   2.925
35712W        W 2121  15.620  20.658  13.905
35713W        W 2122  19.367  13.448   0.428
35714W        W 2123   3.619  17.116  11.785
35715W        W 2124  35.140   6.122  11.649
35716W        W 2125  22.579  36.362   2.876
35717W        W 2126   0.503  28.651   1.854
35718W        W 2127   5.501  26.199  14.901
35719W        W 2128   4.056  25.595   4.121
35720W        W 2129  20.623  34.819   2.139
35721W        W 2130   4.259  34.382  14.926
35722W        W 2131  22.702  44.419  11.633
35723W        W 2132  21.707  39.598  13.751
35724W        W 2133  32.016  31.765  13.111
35725W        W 2134   8.931  38.445  10.510
35726W        W 2135  16.944   4.896  12.567
35727W        W 2136   8.303  42.735   1.899
35728W        W 2137  22.672  44.654   1.063
35729W        W 2138  10.811  43.428  12.098
35730W        W 2139  15.892  35.160   3.126
35731W        W 2140  33.657   9.866  11.961
35732W        W 2141   2.691  38.026   3.424
35733W        W 2142   8.073  42.957  11.544
35734W        W 2143  40.053  39.875  10.684
35735W        W 2144  27.682  10.384   4.102
35736W        W 2145  24.091  39.080  11.418
35737W        W 2146  18.403  31.289  11.180
35738W        W 2147   5.259  23.534  14.795
35739W        W 2148  35.698  30.889  11.690
35740W        W 2149   9.270  16.051   1.366
35741W        W 2150  11.740  17.481  11.039
35742W        W 2151  26.441  37.273  10.754
35743W        W 2152  13.303   1.542  11.166
35744W        W 2153  35.538  31.570  14.236
35745W        W 2154  41.774  41.486   2.895
35746W        W 2155  15.352  27.224   4.207
35747W        W 2156  20.136  26.380   2.424
35748W        W 2157  26.006  26.123  10.136
35749W        W 2158   8.841   3.750  11.215
35750W        W 2159  27.572  40.009   4.862
35751W        W 2160   4.431   0.765   0.423
35752W        W 2161   6.869   6.086   3.214
35753W        W 2162  21.711  19.445   0.264
35754W        W 2163   5.721  33.894   2.763
35755W        W 2164  13.933   2.082   1.307
35756W        W 2165  16.738   2.282   3.430
35757W        W 2166  29.178  26.601   4.602
35758W        W 2167  39.761  32.124   4.179
35759W        W 2168  23.043  14.843   2.352
35760W        W 2169  17.698  12.924   3.131
35761W        W 2170  36.008  25.145   2.373
35762W        W 2171  42.454  30.175  11.844
35763W        W 2172  19.680  44.926  11.516
35764W        W 2173   2.025  40.636  13.954
35765W        W 2174  31.994  22.774   5.031
35766W        W 2175  27.220  36.355  10.730
35767W        W 2176  36.852  27.452   2.893
35768W        W 2177  16.029  30.545  10.450
35769W        W 2178  23.040  33.537  10.715
35770W        W 2179  23.426  43.331   4.611
35771W        W 2180  22.789  14.685   3.600
35772W        W 2181  37.297   2.188   1.650
35773W        W 2182  18.773  42.716  14.901
35774W        W 2183  20.375  15.586   2.705
35775W        W 2184  21.729  10.965  13.831
35776W        W 2185  25.238  25.979  12.120
35777W        W 2186  32.609  12.278  12.123
35778W        W 2187  24.999  17.705  14.336
35779W        W 2188  12.181  20.844   3.090
35780W        W 2189  22.456  31.417  12.057
35781W        W 2190  13.107  37.431   0.700
35782W        W 2191  44.530  15.862   3.190
35783W        W 2192   2.766  39.439   1.126
35784W        W 2193  40.549  15.327   2.803
35785W        W 2194   8.775  43.505  13.271
35786W        W 2195  35.629  41.219  14.093
35787W        W 2196   0.819  15.496  10.673
35788W        W 2197  30.697  13.631  13.373
35789W        W 2198  29.368  26.716   4.134
35790W        W 2199  14.042  28.578  14.783
35791W        W 2200  41.762  18.990   3.736
35792W        W 2201  25.338   3.587  14.628
35793W        W 2202   2.422  34.676   2.759
35794W        W 2203  42.353  10.420   3.138
35795W        W 2204  12.386  17.160  11.885
35796W        W 2205  39.829  19.242  13.456
35797W        W 2206   6.273  32.113   3.066
35798W        W 2207  14.853  35.891   4.193
35799W        W 2208  12.164  29.424   2.843
35800W        W 2209  20.593  19.357   0.788
35801W        W 2210  42.045  28.967   5.021
35802W        W 2211   4.925   3.046  12.851
35803W        W 2212  13.821  29.074  14.775
35804W        W 2213  17.120  30.584  14.909
35805W        W 2214  37.017   8.690  13.421
35806W        W 2215  33.817  38.079  13.041
35807W        W 2216  16.477  22.215   0.134
35808W        W 2217   0.804   6.824  10.671
35809W        W 2218   6.763   7.255   0.744
35810W        W 2219   4.878  41.903  14.219
35811W        W 2220  23.443  15.623  10.380
35812W        W 2221  31.753  24.234  11.202
35813W        W 2222  35.425   1.207  13.706
35814W        W 2223  30.114  37.549   2.349
35815W        W 2224  34.133  38.576  10.565
35816W        W 2225  36.427  38.219   0.354
35817W        W 2226  35.626   7.232   4.882
35818W        W 2227  41.883  36.872   0.298
35819W        W 2228   3.932  22.442  11.878
35820W        W 2229  37.611  42.415  14.291
35821W        W 2230  10.130  10.136   0.762
35822W        W 2231  18.468  16.815  14.102
35823W        W 2232   1.314  16.105  11.186
35824W        W 2233  37.310   6.171   3.250
35825W        W 2234   6.150   6.412  14.530
35826W        W 2235  23.086  31.446  14.539
35827W        W 2236   5.297  27.700   4.716
35828W        W 2237  20.616  16.287  12.490
35829W        W 2238   8.543  33.114  11.624
35830W        W 2239  14.434  30.016   0.430
35831W        W 2240  12.122   7.187   1.320
35832W        W 2241  38.354  27.704   2.793
35833W        W 2242  32.767   0.837   4.850
35834W        W 2243   7.139  42.918   0.488
35835W        W 2244  26.680  36.619   2.325
35836W        W 2245  23.604  33.932  11.492
35837W        W 2246  26.166  28.149   1.933
35838W        W 2247  26.448  22.023   2.149
35839W        W 2248  12.859  39.477   1.075
35840W        W 2249  31.075  26.396  10.263
35841W        W 2250  13.361  29.557   3.418
35842W        W 2251  10.245  33.571  14.770
35843W        W 2252  43.970  12.288   3.199
35844W        W 2253  31.307  13.860  10.702
35845W        W 2254  15.618  44.544  11.587
35846W        W 2255   4.184  41.834   3.209
35847W        W 2256  25.785   2.830  12.600
35848W        W 2257   9.933  18.253   1.270
35849W        W 2258   1.688  25.165  14.313
35850W        W 2259  39.156  13.641   1.579
35851W        W 2260  35.027  36.864   1.412
35852W        W 2261  36.585   5.163   3.735
35853W        W 2262  18.344  13.829   4.078
35854W        W 2263   7.168  19.199  10.814
35855W        W 2264  10.762  24.687   2.944
35856W        W 2265  26.505  18.346   2.190
35857W        W 2266  25.471  23.028   3.664
35858W        W 2267  11.493  15.149  10.610
35859W        W 2268  36.770  37.831   0.503
35860W        W 2269   7.737  44.309  10.736
35861W        W 2270  22.013   3.997   3.658
35862W        W 2271   9.342  14.476  12.708
35863W        W 2272  11.228  25.639   3.675
35864W        W 2273  28.144   0.285   0.353
35865W        W 2274  22.530  15.199   9.994
35866W        W 2275  37.894  44.614  13.043
35867W        W 2276  43.429  29.632   3.801
35868W        W 2277  25.778   2.975   2.450
35869W        W 2278   0.114   7.111  13.627
35870W        W 2279   5.722  28.102   3.628
35871W        W 2280  14.612  32.392  10.734
35872W        W 2281   9.384  31.480   1.182
35873W        W 2282  12.077  29.221  13.335
35874W        W 2283  20.758   7.831  13.812
35875W        W 2284   2.029  40.710   3.802
35876W        W 2285  38.123   0.506  12.497
35877W        W 2286  41.543  35.736   3.135
35878W        W 2287   0.691   5.199   4.409
35879W        W 2288  26.018  29.059  11.468
35880W        W 2289  13.742  21.213   1.761
35881W        W 2290  11.310  36.471   1.468
35882W        W 2291  27.769  44.376  13.606
35883W        W 2292  37.910  20.194   4.184
35884W        W 2293  32.119   2.912  11.866
35885W        W 2294  37.811   0.486  14.053
35886W        W 2295  12.890   2.773  13.975
35887W        W 2296  31.214  22.234  13.460
35888W        W 2297  15.839  31.139   2.774
35889W        W 2298  39.085  40.978  11.866
35890W        W 2299  21.647  20.020   2.199
35891W        W 2300  20.516  40.074   2.366
35892W        W 2301   3.369  34.376  12.929
35893W        W 2302  22.271  12.636   0.311
35894W        W 2303  29.576  14.488   0.996
35895W        W 2304  36.318   1.884   3.191
35896W        W 2305  24.720   2.036  14.830
35897W        W 2306  32.199  42.767  12.123
35898W        W 2307  11.724  25.592   3.365
35899W        W 2308  22.964   3.786  13.374
35900W        W 2309  20.529   1.943  10.683
35901W        W 2310  29.601   8.459   1.333
35902W        W 2311  11.731  18.682  12.395
35903W        W 2312  25.649  14.681  11.559
35904W        W 2313  20.803  25.474   1.242
35905W        W 2314  12.537  11.941  12.847
35906W        W 2315  18.690   5.126  13.885
35907W        W 2316  32.516  11.951   1.163
35908W        W 2317  32.379  32.383  11.929
35909W        W 2318  15.507  26.657  12.070
35910W        W 2319  41.904  35.105  10.816
35911W        W 2320  25.787  43.330  11.989
35912W        W 2321  14.341   1.732  10.007
35913W        W 2322  34.027  44.690   3.780
35914W        W 2323  16.688  16.881   2.718
35915W        W 2324  20.537  39.974   0.963
35916W        W 2325  30.432  36.319   2.612
35917W        W 2326  41.879  24.393   0.816
35918W        W 2327  21.644  13.296   3.636
35919W        W 2328  21.491  42.503   3.232
35920W        W 2329  10.758  34.302   3.276
35921W        W 2330   2.794   7.497  13.138
35922W        W 2331   2.392  26.180   4.167
35923W        W 2332  20.659  34.918   4.675
35924W        W 2333  34.649  39.461  10.657
35925W        W 2334   3.790  18.158  14.412
35926W        W 2335  11.162  38.972   0.826
35927W        W 2336  35.868  38.811   3.962
35928W        W 2337  23.450  41.426  11.291
35929W        W 2338  20.740   1.248  14.336
35930W        W 2339  16.200  23.716  11.120
35931W        W 2340   0.854  42.262  12.180
35932W        W 2341  42.235  21.253  13.909
35933W        W 2342  17.239   4.450  13.823
35934W        W 2343   7.979  36.071   5.040
35935W        W 2344  15.900  44.478   1.295
35936W        W 2345  31.623   0.819  11.403
35937W        W 2346  33.494   9.320   2.793
35938W        W 2347  26.021  40.543   0.372
35939W        W 2348  16.782  22.600  10.749
35940W        W 2349  16.342  17.608   1.365
35941W        W 2350   7.428   3.380   3.689
35942W        W 2351   6.688  15.126  11.344
35943W        W 2352   3.769   3.446   1.691
35944W        W 2353   1.315  19.772   3.204
35945W        W 2354   5.863  17.593  12.625
35946W        W 2355  37.000  37.745  12.070
35947W        W 2356  17.914  13.798  10.785
35948W        W 2357  39.071  17.674   1.654
35949W        W 2358  12.854  41.119   3.667
35950W        W 2359  34.036  30.910  12.373
35951W        W 2360   1.366  36.952   1.467
35952W        W 2361  33.414  13.358  14.852
35953W        W 2362  38.981  19.508  13.341
35954W        W 2363  29.294  16.926   4.281
35955W        W 2364  25.463  23.181   2.726
35956W        W 2365  31.099  40.851  11.264
35957W        W 2366  31.886   8.637  13.933
35958W        W 2367  37.475  40.858   1.199
35959W        W 2368  10.961  43.781   3.593
35960W        W 2369  37.846  24.986   1.985
35961W        W 2370   8.769   0.278  10.761
35962W        W 2371  34.886  16.539  12.979
35963W        W 2372  16.149   7.452  13.396
35964W        W 2373  15.089  34.967   1.205
35965W        W 2374  38.390   3.190  10.924
35966W        W 2375  32.490   0.563   4.531
35967W        W 2376   7.628  32.248   4.491
35968W        W 2377  43.024  11.755  11.064
35969W        W 2378   0.387  36.358  11.193
35970W        W 2379  15.561   6.305   3.745
35971W        W 2380  39.744  20.533  11.827
35972W        W 2381  39.997   2.009   1.847
35973W        W 2382  25.673  36.165  11.454
35974W        W 2383  31.825  35.951  12.590
35975W        W 2384  17.136   7.286   4.488
35976W        W 2385  35.063  23.665  10.138
35977W        W 2386  14.324  21.315  13.040
35978W        W 2387  11.610  10.456   3.925
35979W        W 2388  26.306   8.666  12.748
35980W        W 2389  39.523   7.278  11.983
35981W        W 2390  19.974  21.144   2.745
35982W        W 2391  19.172  30.613   2.811
35983W        W 2392  43.703  44.439   4.342
35984W        W 2393   3.128  29.504   4.787
35985W        W 2394  42.883   2.279  14.251
35986W        W 2395   7.546   0.774   4.562
35987W        W 2396  25.453  16.241   1.810
35988W        W 2397  37.538   4.880  14.790
35989W        W 2398  40.047  20.219  10.009
35990W        W 2399  34.817  21.121   3.199
35991W        W 2400  26.047  30.946   2.386
35992W        W 2401   6.326   6.791   3.255
35993W        W 2402  34.326  33.537  11.489
35994W        W 2403  18.188  15.066  10.759
35995W        W 2404  21.409  28.939   4.451
35996W        W 2405  34.632  33.665  11.914
35997W        W 2406  25.213  42.982   4.640
35998W        W 2407  38.310  20.932   0.311
35999W        W 2408  15.415  41.456  14.342
36000W        W 2409   4.707  18.326   1.579
36001W        W 2410   5.128   1.613  12.011
36002W        W 2411  17.847  24.371   3.946
36003W        W 2412  10.134  16.889  13.864
36004W        W 2413   2.841   0.228   0.821
36005W        W 2414  25.428  39.077  10.068
36006W        W 2415  42.297   5.820   1.837
36007W        W 2416  40.841  29.420  13.325
36008W        W 2417  44.755  15.533  14.290
36009W        W 2418   1.973  18.607   0.752
36010W        W 2419  16.363  22.242   0.631
36011W        W 2420  30.869   0.031   1.817
36012W        W 2421  13.676  35.486   4.041
36013W        W 2422   6.821  22.072   3.549
36014W        W 2423  16.276  16.410  12.019
36015W        W 2424  21.260  31.152   0.528
36016W        W 2425   7.952  10.311   4.126
36017W        W 2426  20.089  14.143  13.287
36018W        W 2427  17.582  26.006  12.534
36019W        W 2428  12.879  23.137   2.780
36020W        W 2429  14.730  35.967  11.611
36021W        W 2430  20.987  20.083  10.481
36022W        W 2431  12.936  14.472  13.498
36023W        W 2432  37.982  42.068  13.174
36024W        W 2433  25.579   0.813  10.396
36025W        W 2434  25.979  26.726  13.664
36026W        W 2435   5.407  35.588   2.999
36027W        W 2436  30.395  16.168  12.381
36028W        W 2437  29.613  32.120   1.675
36029W        W 2438  22.618  28.903   3.995
36030W        W 2439  11.327  41.244  13.556
36031W        W 2440  23.798  29.534  11.220
36032W        W 2441  41.484  13.220  14.113
36033W        W 2442   0.495   4.950   3.844
36034W        W 2443  36.097  19.647   3.441
36035W        W 2444  33.946   1.447   4.521
36036W        W 2445  24.123  24.857   0.825
36037W        W 2446  19.345  24.611  13.965
36038W        W 2447  22.660  30.628   1.320
36039W        W 2448   6.674  36.290  14.142
36040W        W 2449  44.226   4.411   0.333
36041W        W 2450   0.470  25.498   0.733
36042W        W 2451  16.272   4.972  11.191
36043W        W 2452  10.292  32.774   4.935
36044W        W 2453  41.783   2.717   2.356
36045W        W 2454  42.499   7.467   9.859
36046W        W 2455  18.993  41.890   2.839
36047W        W 2456  43.777  18.550   0.820
36048W        W 2457  20.983  23.139   1.305
36049W        W 2458  13.559   3.761  11.431
36050W        W 2459   9.822  38.313   3.612
36051W        W 2460  44.449  30.531  12.622
36052W        W 2461  41.189  14.230  11.124
36053W        W 2462   3.334  14.193   0.329
36054W        W 2463  39.270   9.785  13.766
36055W        W 2464   1.972  30.552  10.506
36056W        W 2465  40.622  30.388   0.985
36057W        W 2466  16.319  28.561  14.418
36058W        W 2467   8.971   6.690  14.396
36059W        W 2468  28.491  29.422   4.003
36060W        W 2469  21.631  22.996   3.477
36061W        W 2470  26.901  21.252  10.735
36062W        W 2471  38.678  39.630  12.958
36063W        W 2472   5.928  12.293  12.393
36064W        W 2473  19.305  17.215   0.266
36065W        W 2474   0.669  22.553   1.376
36066W        W 2475  26.754  12.539   3.760
36067W        W 2476   7.177  23.570  14.059
36068W        W 2477  23.162   6.970  14.736
36069W        W 2478  22.774  30.484  13.042
36070W        W 2479  29.718  30.582   1.306
36071W        W 2480   6.143   4.789   5.159
36072W        W 2481   4.491  10.891  13.453
36073W        W 2482  27.391  19.215   1.749
36074W        W 2483  22.575  16.294  13.615
36075W        W 2484  20.616   7.151   1.263
36076W        W 2485  17.975  36.602  14.998
36077W        W 2486   3.192  38.780  12.880
36078W        W 2487  18.239  20.652   4.939
36079W        W 2488  30.880   6.312   1.331
36080W        W 2489  40.304  18.730   3.540
36081W        W 2490   0.462  17.121   0.311
36082W        W 2491  23.141  18.413   4.067
36083W        W 2492  18.080  15.278   4.160
36084W        W 2493   6.173  37.343  14.721
36085W        W 2494  26.215  44.315   1.504
36086W        W 2495   9.278  21.054   3.623
36087W        W 2496  39.511  44.291   0.240
36088W        W 2497   5.145  17.732   3.644
36089W        W 2498  20.108  18.796   1.489
36090W        W 2499  28.057  32.727  10.608
36091W        W 2500  39.967   3.361   3.750
36092W        W 2501  25.860  27.166  11.502
36093W        W 2502   3.776  39.386  10.469
36094W        W 2503  20.994  21.631   3.947
36095W        W 2504  28.228  23.972  12.519
36096W        W 2505  40.489   3.164   3.761
36097W        W 2506  30.658  16.605   1.318
36098W        W 2507  36.833   2.347  10.548
36099W        W 2508  17.687  42.285   3.988
36100W        W 2509   0.371   3.164  14.321
36101W        W 2510  21.256   4.488  14.822
36102W        W 2511  19.968  21.451  12.458
36103W        W 2512  30.521  20.957   1.241
36104W        W 2513  35.024  23.817  14.273
36105W        W 2514  43.848  22.270   2.786
36106W        W 2515  42.203  43.441  11.953
36107W        W 2516  10.289  16.635  10.677
36108W        W 2517  23.278  20.502  13.613
36109W        W 2518  37.694   3.012   1.256
36110W        W 2519  27.081  41.847  11.788
36111W        W 2520  37.809  28.921   2.856
36112W        W 2521  30.054  10.895  10.580
36113W        W 2522  34.898  44.565   0.484
36114W        W 2523   7.231   8.994  14.163
36115W        W 2524   9.417  32.619  12.038
36116W        W 2525   1.858   8.922   3.578
36117W        W 2526  13.246  20.240  14.258
36118W        W 2527  41.386  20.531  10.633
36119W        W 2528  42.302  16.099   0.588
36120W        W 2529  43.349  13.303  12.429
36121W        W 2530  18.261  37.586   0.941
36122W        W 2531  42.925  12.393  12.675
36123W        W 2532   8.322  18.667  14.455
36124W        W 2533  42.083   4.391   2.734
36125W        W 2534  41.365  19.120   3.320
36126W        W 2535  17.251   9.733   4.347
36127W        W 2536   9.000  27.958  13.968
36128W        W 2537   4.295  37.577  14.408
36129W        W 2538  40.958   4.632   2.070
36130W        W 2539  39.590  12.186   2.806
36131W        W 2540   9.317  40.836   3.084
36132W        W 2541  35.610  36.732  11.669
36133W        W 2542  29.924  42.576  11.989
36134W        W 2543  28.455  17.888   4.460
36135W        W 2544   9.434  44.657   0.287
36136W        W 2545   3.921  40.971  12.886
36137W        W 2546  35.053  35.546  14.403
36138W        W 2547  35.011  24.438  11.043
36139W        W 2548  30.566   6.499  10.029
36140W        W 2549  29.774  15.774   1.168
36141W        W 2550  21.489  27.637  13.906
36142W        W 2551  41.358  33.815   0.842
36143W        W 2552   0.469  15.603  14.992
36144W        W 2553  24.156  13.634  14.967
36145W        W 2554   0.837  10.119   0.998
36146W        W 2555  26.665  23.618  10.780
36147W        W 2556  16.322  22.092   3.653
36148W        W 2557  30.498  10.692   2.155
36149W        W 2558  33.926  36.115   4.223
36150W        W 2559  12.899  21.190   4.629
36151W        W 2560  17.035  39.044   2.738
36152W        W 2561  32.555   0.815  11.650
36153W        W 2562   6.997  11.094  11.962
36154W        W 2563   1.287  18.519  14.379
36155W        W 2564  37.882  22.724  14.742
36156W        W 2565  44.927  37.595   4.678
36157W        W 2566  11.655  10.437   3.049
36158W        W 2567   5.665  42.915  12.875
36159W        W 2568   2.533   0.406   1.286
36160W        W 2569  12.198  30.532  14.236
36161W        W 2570  20.203  25.302   4.066
36162W        W 2571   8.317  29.097  13.105
36163W        W 2572  16.254  35.409  14.784
36164W        W 2573  25.436  36.433   0.379
36165W        W 2574  20.541  36.543  11.669
36166W        W 2575  27.644  19.303  11.862
36167W        W 2576  37.497   5.683  11.608
36168W        W 2577  37.695  33.621   3.817
36169W        W 2578  35.599  38.790   0.423
36170W        W 2579  44.413  39.747   1.321
36171W        W 2580   9.694   7.613   1.825
36172W        W 2581   7.879   1.741   2.407
36173W        W 2582  16.103   8.422   0.197
36174W        W 2583  24.470  39.538  13.357
36175W        W 2584  43.618  23.874  12.114
36176W        W 2585  36.721   4.281   4.257
36177W        W 2586   4.147   1.317  14.812
36178W        W 2587  34.914  41.489   1.760
36179W        W 2588  43.865  29.090  10.779
36180W        W 2589   0.799  15.460   2.939
36181W        W 2590  32.879  36.038  12.366
36182W        W 2591  32.916  31.143   1.896
36183W        W 2592  19.691  15.214   1.220
36184W        W 2593  41.039  16.463  10.734
36185W        W 2594  40.370  38.592   0.355
36186W        W 2595  43.592  18.257   1.696
36187W        W 2596  39.899  13.760  13.399
36188W        W 2597  12.514  27.839  11.318
36189W        W 2598  33.536  21.047   1.248
36190W        W 2599  44.019  31.160  13.465
36191W        W 2600  12.103  10.927   1.729
36192W        W 2601  36.933   2.803   2.301
36193W        W 2602   9.476  36.963  12.002
36194W        W 2603  21.862  11.936  13.836
36195W        W 2604  27.575  18.078   0.804
36196W        W 2605  28.978  39.617   0.866
36197W        W 2606  22.816   6.204  11.549
36198W        W 2607  38.583  28.366   4.580
36199W        W 2608  13.110  26.761   4.047
36200W        W 2609  35.470   5.221  10.653
36201W        W 2610   4.622  24.187   9.974
36202W        W 2611  10.338   7.407   2.671
36203W        W 2612  10.385  10.426   3.328
36204W        W 2613  22.796  40.459   5.305
36205W        W 2614  38.174  33.984  13.869
36206W        W 2615   6.043  37.672   5.045
36207W        W 2616  37.633   9.943   3.727
36208W        W 2617  41.829  38.035  12.062
36209W        W 2618  16.461  15.850  14.047
36210W        W 2619  24.187   3.047  14.840
36211W        W 2620  22.300  36.426   1.099
36212W        W 2621  42.412  21.673  10.927
36213W        W 2622  12.576  41.550   3.557
36214W        W 2623  24.241  32.398   3.132
36215W        W 2624  31.059   3.203   3.245
36216W        W 2625  28.378  27.619  12.478
36217W        W 2626  37.893  42.069   0.396
36218W        W 2627  10.256  41.235  12.950
36219W        W 2628  31.197  29.128   3.788
36220W        W 2629   0.426  12.872  12.190
36221W        W 2630  36.578  21.907   2.277
36222W        W 2631  42.825  29.121  13.423
36223W        W 2632  21.518  35.790   0.636
36224W        W 2633  41.375  40.013   1.808
36225W        W 2634  29.502  30.621   3.232
36226W        W 2635  20.208  29.071  12.148
36227W        W 2636  38.943  16.759  10.587
36228W        W 2637  10.921   6.609   2.145
36229W        W 2638  12.738  11.258   2.285
36230W        W 2639  20.778  42.484  13.328
36231W        W 2640  34.326  36.376   0.250
36232W        W 2641  12.924  25.607   2.826
36233W        W 2642   6.402  40.876  14.487
36234W        W 2643  40.497  16.408  11.211
36235W        W 2644  37.964  38.553  11.619
36236W        W 2645   5.451  21.737   4.810
36237W        W 2646  16.821  31.550  13.368
36238W        W 2647   4.900  34.201  12.909
36239W        W 2648  30.939  37.054   3.388
36240W        W 2649  40.785  43.948  10.452
36241W        W 2650  32.556  44.102  14.521
36242W        W 2651   8.713  18.853  11.162
36243W        W 2652  31.008  28.618  13.488
36244W        W 2653  32.276  35.580  11.015
36245W        W 2654   0.007  27.339  11.808
36246W        W 2655  36.835  18.361   3.732
36247W        W 2656  34.592  30.578   1.300
36248W        W 2657  43.318  43.278  14.448
36249W        W 2658   8.798  22.470  11.071
36250W        W 2659  27.005   7.603  10.468
36251W        W 2660  34.889  36.373  12.486
36252W        W 2661  13.100  16.804   3.647
36253W        W 2662   8.096  23.643   0.712
36254W        W 2663   8.947   4.608  11.645
36255W        W 2664  21.589  27.711  11.636
36256W        W 2665  37.884  35.047  11.159
36257W        W 2666  21.059  34.088   1.936
36258W        W 2667  38.562  15.679   4.025
36259W        W 2668  27.594  40.992  10.734
36260W        W 2669  31.469  41.055  12.539
36261W        W 2670   3.796   1.008   4.127
36262W        W 2671  22.518  18.170   1.372
36263W        W 2672  12.079  36.087   1.782
36264W        W 2673  41.321  37.180  14.882
36265W        W 2674  29.381  35.293  14.705
36266W        W 2675  14.863  41.525  11.109
36267W        W 2676  24.957  37.411  10.182
36268W        W 2677  43.625  19.516  11.448
36269W        W 2678   1.654  43.000  11.964
36270W        W 2679  37.126  13.698   4.652
36271W        W 2680   8.603  17.275   4.180
36272W        W 2681   0.682  27.956  14.353
36273W        W 2682  40.995  35.909  12.100
36274W        W 2683  23.498  39.957   3.242
36275W        W 2684  34.024  38.897   2.426
36276W        W 2685   1.342  30.766  12.637
36277W        W 2686  15.157  37.085  14.429
36278W        W 2687  30.346  32.935   2.336
36279W        W 2688  39.963  14.140  12.092
36280W        W 2689  19.787  19.989   2.542
36281W        W 2690  43.303  31.833  11.834
36282W        W 2691  22.367  41.792  14.784
36283W        W 2692  39.685  28.000  13.013
36284W        W 2693  43.524   8.255   4.550
36285W        W 2694   3.291  26.557  10.909
36286W        W 2695  36.613  12.754   0.756
36287W        W 2696  12.818  37.473  12.976
36288W        W 2697  43.481  37.814  12.426
36289W        W 2698   9.158   8.416  12.370
36290W        W 2699   4.208  23.719  11.584
36291W        W 2700   9.994  11.890   5.023
36292W        W 2701   6.438  33.426  14.883
36293W        W 2702  11.955  42.253   2.575
36294W        W 2703  29.861  16.744  10.595
36295W        W 2704   4.640  28.210   0.955
36296W        W 2705   3.905  21.939  11.860
36297W        W 2706  42.410   0.962   2.237
36298W        W 2707  14.212  36.498  13.028
36299W        W 2708  39.853   1.870   3.695
36300W        W 2709  31.656  22.664  14.636
36301W        W 2710  17.632  42.641   0.317
36302W        W 2711   7.653   7.990   3.428
36303W        W 2712  11.954  30.527   1.316
36304W        W 2713  11.797  29.737   4.153
36305W        W 2714  41.370  13.408  13.104
36306W        W 2715  25.746  35.556  11.148
36307W        W 2716   9.143  42.765  13.410
36308W        W 2717   9.702  19.495  13.340
36309W        W 2718  18.083  39.314   3.325
36310W        W 2719  41.458  22.873  14.245
36311W        W 2720   1.291   8.199   3.668
36312W        W 2721  19.147  42.454  10.800
36313W        W 2722  23.719   4.866  10.507
36314W        W 2723   5.962  25.909   0.792
36315W        W 2724  21.285  37.049   3.854
36316W        W 2725  10.588  14.574  13.617
36317W        W 2726  19.281  39.583  11.168
36318W        W 2727  40.864  41.343   2.974
36319W        W 2728  20.150  34.103   2.334
36320W        W 2729  29.053  32.425   2.939
36321W        W 2730  36.186  19.845  14.902
36322W        W 2731   2.319  31.191  14.767
36323W        W 2732   0.598   3.682   2.681
36324W        W 2733  20.100  28.208   1.198
36325W        W 2734  31.583  17.763  14.995
36326W        W 2735  30.594  25.738   3.967
36327W        W 2736  44.850  44.647   3.873
36328W        W 2737   8.256  15.347   0.787
36329W        W 2738  22.218   4.859   4.795
36330W        W 2739  38.944  44.786   2.849
36331W        W 2740  21.797  16.847  14.791
36332W        W 2741  37.411  10.842  12.548
36333W        W 2742  40.482  13.690   1.232
36334W        W 2743  24.506  12.825   0.100
36335W        W 2744  43.871  38.256   2.934
36336W        W 2745   9.625  16.148  13.492
36337W        W 2746  12.705  36.616   3.644
36338W        W 2747  34.562  28.400   3.660
36339W        W 2748  26.444  36.163   2.210
36340W        W 2749  31.903  10.309  11.989
36341W        W 2750  10.322  34.006   4.553
36342W        W 2751  34.610  16.784  14.339
36343W        W 2752   6.238   9.230  13.607
36344W        W 2753  39.055  31.674   3.614
36345W        W 2754   2.993  32.983  14.321
36346W        W 2755  39.090   9.195  10.617
36347W        W 2756  14.564  30.930  12.137
36348W        W 2757  30.172   9.770   4.690
36349W        W 2758  16.480  10.760   4.000
36350W        W 2759  30.604  11.448  13.559
36351W        W 2760  33.383  17.074  14.619
36352W        W 2761  26.043  35.974  11.083
36353W        W 2762  38.525  15.093  11.932
36354W        W 2763  24.981  37.041  13.607
36355W        W 2764  10.161  35.155   1.425
36356W        W 2765   2.440  44.974   1.017
36357W        W 2766   5.744  38.916   3.247
36358W        W 2767  24.675  40.158  12.130
36359W        W 2768  37.423  28.508  12.981
36360W        W 2769  11.481  42.985  10.291
36361W        W 2770  27.508  11.486  12.053
36362W        W 2771   7.211  26.949  12.022
36363W        W 2772  39.284  17.779   0.830
36364W        W 2773  30.059  25.038   3.847
36365W        W 2774   8.657  11.267  10.868
36366W        W 2775  18.164   2.712   3.501
36367W        W 2776  31.678  43.706  12.925
36368W        W 2777   6.366  39.888  11.974
36369W        W 2778   5.896  15.438  13.429
36370W        W 2779  15.253  38.597   0.824
36371W        W 2780  32.684  40.891  12.149
36372W        W 2781   8.083  29.932  14.373
36373W        W 2782  37.150  13.692  13.057
36374W        W 2783  37.853  34.077  10.809
36375W        W 2784   1.966  42.141  12.879
36376W        W 2785  20.963  37.811   3.723
36377W        W 2786  41.982   1.467   1.612
36378W        W 2787  12.359  27.496   4.732
36379W        W 2788  26.127   5.728  13.596
36380W        W 2789  38.531  21.371   5.643
36381W        W 2790  32.658  17.305   0.257
36382W        W 2791   1.386   0.410  11.573
36383W        W 2792  32.032  10.118  11.524
36384W        W 2793  39.779  22.168   1.776
36385W        W 2794  30.522   1.335   4.048
36386W        W 2795  39.801  24.310   4.143
36387W        W 2796  24.622  23.480   4.539
36388W        W 2797  34.506  35.958   0.481
36389W        W 2798  33.485   9.072   0.358
36390W        W 2799  41.958  42.509   1.497
36391W        W 2800  23.400  33.848  13.391
36392W        W 2801  35.576  36.423  13.400
36393W        W 2802  37.508   8.936  12.761
36394W        W 2803  40.292  20.847  14.392
36395W        W 2804  28.583  42.956  13.034
36396W        W 2805  31.603   4.877   2.775
36397W        W 2806   4.809  19.692   2.291
36398W        W 2807  19.801  15.218   2.231
36399W        W 2808  29.553  28.267   5.086
36400W        W 2809  38.562  36.054  12.409
36401W        W 2810  32.155   7.746  11.883
36402W        W 2811  44.811  33.313  12.691
36403W        W 2812  37.048  12.101  11.547
36404W        W 2813  32.286  29.115   3.244
36405W        W 2814  24.775  35.923  11.650
36406W        W 2815   5.359  17.068  14.925
36407W        W 2816  25.547  28.649   0.244
36408W        W 2817  34.568   8.286  11.596
36409W        W 2818  42.835  24.494   2.183
36410W        W 2819  43.367  14.695   4.377
36411W        W 2820  24.218  44.722   2.252
36412W        W 2821   2.756  19.731   1.745
36413W        W 2822  27.072   5.238   0.277
36414W        W 2823  36.171  44.194   2.867
36415W        W 2824  25.475  38.014   3.169
36416W        W 2825   0.966  28.493   0.922
36417W        W 2826  27.464  12.825   1.078
36418W        W 2827  22.668  35.592   3.832
36419W        W 2828  30.643  34.454  11.599
36420W        W 2829  25.232   4.744   1.239
36421W        W 2830  32.438  10.312  14.400
36422W        W 2831   7.690  40.495  10.264
36423W        W 2832   7.808  15.148   2.382
36424W        W 2833  22.029  21.471   2.791
36425W        W 2834  20.242   8.603   4.796
36426W        W 2835   3.536  11.716  11.858
36427W        W 2836  10.551  29.938   1.258
36428W        W 2837  12.354  25.677   0.311
36429W        W 2838   2.127  18.727  13.390
36430W        W 2839  36.940   5.715   2.921
36431W        W 2840   2.523  24.196  14.740
36432W        W 2841   7.364  31.427  13.796
36433W        W 2842   8.902  27.952   0.865
36434W        W 2843  13.867  13.260   4.253
36435W        W 2844   7.745  34.913   4.587
36436W        W 2845   3.527  17.860   0.863
36437W        W 2846  25.046  20.335   3.821
36438W        W 2847   7.602  14.684  10.996
36439W        W 2848  40.269  37.840   1.375
36440W        W 2849  36.269   9.777  12.515
36441W        W 2850   8.846   6.792  12.999
36442W        W 2851  37.951  34.541  10.978
36443W        W 2852  34.377  31.628   3.306
36444W        W 2853  29.207  41.842  11.624
36445W        W 2854   0.462  38.904   0.438
36446W        W 2855   7.359  23.069   1.320
36447W        W 2856  30.429  23.143   1.755
36448W        W 2857  20.347  43.053  11.661
36449W        W 2858  19.804  20.633  11.529
36450W        W 2859   0.862  38.280  14.789
36451W        W 2860  15.083  24.085   5.018
36452W        W 2861  11.380  18.776  14.811
36453W        W 2862  20.755   1.806  13.489
36454W        W 2863  21.023  12.546  10.666
36455W        W 2864  12.535  33.410   3.134
36456W        W 2865  39.539   6.750  14.467
36457W        W 2866  39.841  29.052   4.651
36458W        W 2867  26.427   3.178   0.407
36459W        W 2868  19.337  28.193  14.426
36460W        W 2869  40.940  38.385   1.152
36461W        W 2870  38.274  23.538   3.812
36462W        W 2871  27.908  13.670  10.424
36463W        W 2872  42.957  38.891  13.092
36464W        W 2873  30.746   6.837   2.201
36465W        W 2874  14.615  39.579  12.007
36466W        W 2875  27.633   9.892   3.308
36467W        W 2876  36.434   8.411   2.406
36468W        W 2877  20.919  30.657  10.211
36469W        W 2878  18.781  42.890  11.562
36470W        W 2879  31.523  10.468   0.468
36471W        W 2880  27.881  13.984   3.783
36472W        W 2881  41.505  12.342  13.134
36473W        W 2882  40.983  17.453   1.639
36474W        W 2883  26.612   0.204   1.961
36475W        W 2884  25.564   4.887  12.101
36476W        W 2885  38.638  42.725  10.800
36477W        W 2886  44.289   3.379   1.885
36478W        W 2887  15.699   9.413  14.458
36479W        W 2888  25.766  26.213   5.311
36480W        W 2889  32.209  23.471   0.838
36481W        W 2890  11.630  16.797  12.905
36482W        W 2891  23.135  28.241   1.727
36483W        W 2892  10.820  10.414   1.450
36484W        W 2893  21.613  24.124   1.878
36485W        W 2894  22.801  20.341  13.498
36486W        W 2895  16.021  40.048  13.905
36487W        W 2896  15.174  34.661  11.438
36488W        W 2897  32.620  29.623  11.585
36489W        W 2898  15.375  27.693   1.421
36490W        W 2899  31.379  32.548  13.066
36491W        W 2900  23.397   4.192   1.346
36492W        W 2901  17.797  30.566  13.822
36493W        W 2902  31.010  24.424  14.798
36494W        W 2903  17.999  10.242  11.239
36495W        W 2904  31.992  20.602   1.958
36496W        W 2905   0.204   0.740  12.086
36497W        W 2906  19.205  12.818  11.755
36498W        W 2907  38.548  33.783   4.499
36499W        W 2908   5.175  30.666   1.239
36500W        W 2909  19.335  34.875   4.175
36501W        W 2910  21.465   0.200   0.398
36502W        W 2911   4.754  36.678   4.361
36503W        W 2912   7.387   0.503  10.714
36504W        W 2913  27.511  34.919   2.856
36505W        W 2914  12.797   9.153  11.455
36506W        W 2915  10.121  17.794   2.298
36507W        W 2916  18.763   8.610  11.562
36508W        W 2917   8.898  11.282  13.274
36509W        W 2918  30.554  23.012  13.097
36510W        W 2919  11.329  30.209   0.602
36511W        W 2920  13.148  34.622  11.599
36512W        W 2921   1.530   9.128   3.219
36513W        W 2922  30.561   8.574  13.488
36514W        W 2923  25.538   5.152   1.315
36515W        W 2924  10.805  34.079   0.704
36516W        W 2925  41.002  25.106   2.172
36517W        W 2926  10.299  29.132   4.875
36518W        W 2927  43.071   4.868  13.451
36519W        W 2928  14.552  41.280   5.044
36520W        W 2929  35.433  19.381  12.269
36521W        W 2930  39.086  12.187  13.944
36522W        W 2931  44.969  13.435  11.147
36523W        W 2932  39.488  12.269   4.322
36524W        W 2933  20.001   1.375   4.039
36525W        W 2934  11.833  21.298  11.140
36526W        W 2935  33.573  12.434   4.149
36527W        W 2936   9.661  31.795  10.824
36528W        W 2937  41.427  41.471  11.168
36529W        W 2938   4.645  32.895  12.451
36530W        W 2939  29.562   3.864   4.593
36531W        W 2940  13.650  16.147   4.679
36532W        W 2941  35.295  34.985   2.233
36533W        W 2942  17.915  31.915   2.684
36534W        W 2943   3.656  42.407  14.541
36535W        W 2944  24.029  20.248   3.588
36536W        W 2945  14.268   6.778   3.475
36537W        W 2946  14.111  40.956   1.222
36538W        W 2947  14.010   5.756  11.115
36539W        W 2948  34.075  43.045  11.255
36540W        W 2949   8.836  17.292   1.173
36541W        W 2950  26.545   7.701  10.223
36542W        W 2951  29.941   0.662   0.324
36543W        W 2952   2.129  38.382   1.677
36544W        W 2953   0.396  44.785  10.621
36545W        W 2954  32.626  21.811   0.425
36546W        W 2955  43.963   6.819   2.719
36547W        W 2956  11.824  13.867  11.428
36548W        W 2957  15.041   6.663  12.941
36549W        W 2958   1.745  17.477   3.628
36550W        W 2959  42.788  20.173   0.819
36551W        W 2960  36.413   9.821   2.944
36552W        W 2961  37.815  13.866   1.707
36553W        W 2962  41.426  18.154  12.955
36554W        W 2963  42.815  17.085  14.308
36555W        W 2964  20.809  25.154  10.492
36556W        W 2965  41.778  29.138  14.232
36557W        W 2966   7.299  17.170   5.049
36558W        W 2967  12.876  26.197   0.824
36559W        W 2968   8.166  22.328   0.415
36560W        W 2969  29.599  29.479   1.947
36561W        W 2970  31.277  28.639  13.030
36562W        W 2971  21.062  19.789   2.326
36563W        W 2972   2.050  19.988  11.094
36564W        W 2973  43.489  37.516  11.633
36565W        W 2974   3.949  19.861   0.347
36566W        W 2975  11.314  37.843   2.770
36567W        W 2976  40.380   6.749   2.397
36568W        W 2977   8.830   9.798   1.372
36569W        W 2978   4.920  39.148  11.019
36570W        W 2979  17.525  34.171  14.425
36571W        W 2980  41.915  44.023   3.321
36572W        W 2981   4.442  27.537   4.963
36573W        W 2982   8.897  43.897   4.783
36574W        W 2983  10.056  12.860  13.918
36575W        W 2984  32.888  18.588   2.866
36576W        W 2985  19.050   3.773  10.799
36577W        W 2986  21.835  31.449  14.707
36578W        W 2987  15.362  40.389  10.420
36579W        W 2988  18.160  36.930  13.949
36580W        W 2989   9.231   6.169  12.388
36581W        W 2990   4.783  14.713  10.728
36582W        W 2991  25.729   0.377   4.823
36583W        W 2992  26.546  24.793   1.476
36584W        W 2993  13.883   0.367   3.748
36585W        W 2994  12.367  41.821  12.077
36586W        W 2995  25.384   0.785   0.886
36587W        W 2996   9.747  27.179  11.644
36588W        W 2997   5.698   4.203  13.380
36589W        W 2998  16.896  18.118  11.989
36590W        W 2999  38.007  31.526   4.812
36591W        W 3000  13.656  42.896  11.684
36592W        W 3001   4.746  41.781  11.549
36593W        W 3002  20.930  28.132  14.373
36594W        W 3003  10.768  15.733   0.222
36595W        W 3004  35.353   9.692   3.486
36596W        W 3005  37.418  22.618  10.469
36597W        W 3006  17.169  27.464  14.400
36598W        W 3007  17.883  25.122   3.210
36599W        W 3008  18.149  36.479   3.103
36600W        W 3009   0.093  10.341  11.618
36601W        W 3010  13.277  35.335   1.708
36602W        W 3011  38.580  39.530   0.896
36603W        W 3012  37.296  18.101   9.977
36604W        W 3013  29.739   4.657  11.441
36605W        W 3014   0.684  37.426   0.943
36606W        W 3015  21.478   8.818  14.759
36607W        W 3016  40.436  25.270  14.941
36608W        W 3017  32.914  39.911  12.124
36609W        W 3018  35.348  44.305   3.761
36610W        W 3019  31.174  43.843  11.507
36611W        W 3020  12.668  44.358   3.514
36612W        W 3021  35.019  42.054  12.964
36613W        W 3022  20.652  13.634  10.469
36614W        W 3023  35.564   1.779   0.569
36615W        W 3024   3.867  10.557   3.630
36616W        W 3025  21.511  35.907  13.116
36617W        W 3026  35.631  21.621  11.980
36618W        W 3027  42.411  30.414  13.890
36619W        W 3028   4.241   7.542   4.770
36620W        W 3029  18.211  23.023   3.479
36621W        W 3030  12.977   2.270   2.407
36622W        W 3031  11.450  16.331  13.804
36623W        W 3032  35.316  29.620  11.153
36624W        W 3033   5.369  39.428   2.722
36625W        W 3034  27.812  35.495  11.572
36626W        W 3035  37.686  10.435  13.345
36627W        W 3036  16.545  17.784  10.809
36628W        W 3037  26.143  20.802  10.752
36629W        W 3038  34.823   6.061  12.378
36630W        W 3039  12.166  23.745  14.472
36631W        W 3040  36.821  24.537   0.784
36632W        W 3041  31.440  34.373   3.615
36633W        W 3042   6.111  23.662   0.339
36634W        W 3043  44.428  15.644   2.245
36635W        W 3044  20.795  44.924   0.841
36636W        W 3045  44.581  32.618  14.923
36637W        W 3046   2.157  12.059  10.741
36638W        W 3047  18.328  40.181   9.784
36639W        W 3048  14.892  23.066   1.055
36640W        W 3049  13.242  10.317   0.559
36641W        W 3050   9.316   0.885   1.149
36642W        W 3051  17.794  43.449   3.331
36643W        W 3052  42.386   3.273  13.970
36644W        W 3053  10.147  24.547  10.559
36645W        W 3054  30.631  11.790   3.273
36646W        W 3055  29.839  44.747   1.759
36647W        W 3056  19.331  19.730  13.539
36648W        W 3057  11.899  23.047   2.927
36649W        W 3058  10.726  22.227   1.301
36650W        W 3059   7.385  12.113   4.487
36651W        W 3060  12.381  30.031  14.501
36652W        W 3061  16.969  37.107   4.665
36653W        W 3062  26.896  21.051   0.069
36654W        W 3063  19.414  22.103   9.899
36655W        W 3064  28.197  18.105   3.217
36656W        W 3065   7.401  18.298   2.708
36657W        W 3066  44.222   5.298   4.222
36658W        W 3067  35.425   3.391  10.398
36659W        W 3068  41.974  19.215   2.780
36660W        W 3069  23.247  33.323  11.127
36661W        W 3070  36.608  23.946  14.463
36662W        W 3071  14.416  44.942   2.349
36663W        W 3072  39.985  13.051   3.109
36664W        W 3073  21.228  13.082   0.797
36665W        W 3074   9.619  34.400   4.197
36666W        W 3075   6.489  28.469  11.457
36667W        W 3076  35.694  25.609  11.706
36668W        W 3077  40.015  28.845  12.656
36669W        W 3078  12.618  34.532   3.741
36670W        W 3079  14.196  43.975  14.452
36671W        W 3080  34.991  44.808   2.804
36672W        W 3081  35.337  36.104   2.826
36673W        W 3082  36.319  39.979   4.146
36674W        W 3083   0.771   0.043   2.713
36675W        W 3084  12.234  43.018  13.543
36676W        W 3085  33.450   5.732   0.864
36677W        W 3086  21.766   4.666  11.847
36678W        W 3087  43.247  19.697   4.538
36679W        W 3088  29.207  10.431  11.156
36680W        W 3089  28.006  19.841  10.669
36681W        W 3090  18.597  33.593  12.957
36682W        W 3091  30.905   7.034  14.962
36683W        W 3092  39.001  36.996  12.352
36684W        W 3093  26.576   6.435   5.440
36685W        W 3094  23.773  25.025  14.921
36686W        W 3095  29.612  37.423   1.601
36687W        W 3096  39.912  31.502  10.716
36688W        W 3097  25.959  40.170  10.715
36689W        W 3098  30.518  22.273  11.515
36690W        W 3099   4.917  23.707  12.861
36691W        W 3100  34.517   7.559   4.481
36692W        W 3101   1.493  17.072  11.028
36693W        W 3102  33.406   0.831  13.340
36694W        W 3103  20.393  11.689   4.050
36695W        W 3104  12.758  24.692  13.423
36696W        W 3105  13.284  21.025   3.628
36697W        W 3106   8.881  15.786   2.771
36698W        W 3107   9.634  44.976  12.704
36699W        W 3108  29.855  42.935   4.570
36700W        W 3109  31.741  10.529  14.966
36701W        W 3110  15.610  26.132  12.903
36702W        W 3111  41.021   9.044  12.373
36703W        W 3112   8.818  28.474  13.898
36704W        W 3113  30.146  43.615  11.844
36705W        W 3114  27.094   2.867   2.897
36706W        W 3115  15.498  23.965   3.746
36707W        W 3116  26.483   5.332   4.589
36708W        W 3117  35.156   1.387   2.521
36709W        W 3118  40.591  37.446  10.530
36710W        W 3119  25.118   6.405   3.668
36711W        W 3120   4.476  44.566  12.117
36712W        W 3121   7.600  32.538   4.070
36713W        W 3122   2.004  39.783   0.813
36714W        W 3123  35.345  40.769  13.825
36715W        W 3124   7.341  42.928  12.113
36716W        W 3125  14.052  38.552   3.027
36717W        W 3126  36.924  29.533   4.173
36718W        W 3127  15.795  29.915  11.424
36719W        W 3128  36.394  25.629   0.353
36720W        W 3129   1.396  13.759   3.890
36721W        W 3130  32.847  19.708  11.617
36722W        W 3131  36.313   1.842  14.352
36723W        W 3132   3.820   5.162   2.945
36724W        W 3133  40.010  32.035   3.194
36725W        W 3134  26.943  17.553  10.212
36726W        W 3135   6.804   9.655  13.790
36727W        W 3136   1.488  18.004  11.704
36728W        W 3137   5.622  30.982  14.802
36729W        W 3138  36.183  34.922   4.661
36730W        W 3139  20.739   8.997   3.213
36731W        W 3140  13.326  43.966   4.645
36732W        W 3141   8.323  36.692  14.347
36733W        W 3142  37.344  35.141   1.586
36734W        W 3143   6.331  20.751   1.230
36735W        W 3144  13.684  32.985   1.557
36736W        W 3145  13.890  38.474  11.605
36737W        W 3146  14.606  18.812   2.684
36738W        W 3147   2.906   4.894  11.564
36739W        W 3148  16.381  16.525  14.984
36740W        W 3149  20.860  23.557   0.947
36741W        W 3150  24.255   5.045  12.963
36742W        W 3151  33.342  10.321   2.230
36743W        W 3152  13.625  38.559   2.193
36744W        W 3153  44.736   3.747  14.826
36745W        W 3154  34.400  29.171   3.132
36746W        W 3155   2.771  42.912  11.440
36747W        W 3156  35.657  28.549   1.958
36748W        W 3157  19.121  33.887   0.279
36749W        W 3158   8.356  40.938   3.658
36750W        W 3159  26.920  42.759  11.668
36751W        W 3160   5.574  16.764  14.426
36752W        W 3161  38.482  35.246   0.466
36753W        W 3162  27.970  18.578  14.671
36754W        W 3163  29.621  30.863  10.959
36755W        W 3164  38.261  39.493   3.229
36756W        W 3165  15.810  11.751  14.390
36757W        W 3166  18.784  26.060  11.493
36758W        W 3167  43.305  39.451  13.693
36759W        W 3168  38.126   7.285  14.675
36760W        W 3169   2.826  30.654   1.842
36761W        W 3170  18.663  43.889   3.946
36762W        W 3171  23.948  21.143   3.645
36763W        W 3172  10.253   1.082   1.411
36764W        W 3173  32.143  34.018  13.311
36765W        W 3174  43.266  15.907   1.772
36766W        W 3175  32.408  16.582   0.718
36767W        W 3176  28.262  31.628  13.953
36768W        W 3177  28.062  41.272  10.666
36769W        W 3178   0.457  13.240  10.402
36770W        W 3179  29.460   2.403  13.806
36771W        W 3180  11.616  25.849   2.647
36772W        W 3181  38.051  44.409  11.745
36773W        W 3182  17.650  31.382   1.846
36774W        W 3183  38.960  28.539  13.316
36775W        W 3184  41.970  19.048  10.447
36776W        W 3185   0.359  19.288  13.558
36777W        W 3186  39.081  13.794  12.992
36778W        W 3187   6.276   6.292   3.989
36779W        W 3188  23.405  44.941   3.764
36780W        W 3189   3.361  39.491   0.475
36781W        W 3190   9.141  38.392   1.410
36782W        W 3191   0.166  22.512   2.757
36783W        W 3192  19.269   3.054  11.904
36784W        W 3193  39.227  13.350  13.852
36785W        W 3194   0.520   6.510   0.851
36786W        W 3195  31.005  19.860  13.407
36787W        W 3196  22.542  42.368   3.041
36788W        W 3197  35.564  18.258  13.571
36789W        W 3198  21.572  43.936   1.447
36790W        W 3199  37.584  23.548  12.125
36791W        W 3200  39.412  20.503   2.661
36792W        W 3201   1.495  14.289  14.219
36793W        W 3202  36.467   3.023  11.208
36794W        W 3203  37.984   4.000  11.968
36795W        W 3204   2.789  40.869   2.982
36796W        W 3205  41.008  43.821  14.448
36797W        W 3206  26.532  19.738  13.570
36798W        W 3207  18.751   8.756  13.872
36799W        W 3208  10.693   0.144  11.319
36800W        W 3209  17.958  33.378   1.527
36801W        W 3210  26.647   0.798   0.807
36802W        W 3211  18.515  33.022  14.607
36803W        W 3212  34.819  40.538  13.016
36804W        W 3213  17.333   6.485  14.755
36805W        W 3214  38.507  11.117  13.529
36806W        W 3215  12.270  37.138   0.287
36807W        W 3216  19.770  44.895   0.696
36808W        W 3217   6.429  12.032   4.133
36809W        W 3218   4.356  32.997   3.840
36810W        W 3219  10.777  31.885   4.192
36811W        W 3220  11.345  38.875   2.772
36812W        W 3221  30.861   4.965   3.574
36813W        W 3222  38.088  30.593  13.360
36814W        W 3223  18.758  17.670   1.879
36815W        W 3224  33.472  39.610   5.231
36816W        W 3225  17.228  30.000   1.743
36817W        W 3226   1.308  39.344  10.702
36818W        W 3227   8.967  44.760   4.138
36819W        W 3228  33.427  35.295  13.991
36820W        W 3229  20.709  37.858  10.398
36821W        W 3230  29.861  26.491  14.861
36822W        W 3231   7.889   2.275   2.388
36823W        W 3232  27.817  38.197  14.771
36824W        W 3233  39.912   6.565   1.165
36825W        W 3234  41.210   9.554   3.329
36826W        W 3235  31.443   9.156   2.219
36827W        W 3236  37.810  42.460  12.117
36828W        W 3237  42.958  38.536   4.770
36829W        W 3238  25.195  17.179  11.644
36830W        W 3239  44.778  29.381   2.784
36831W        W 3240  42.119  17.132  12.882
36832W        W 3241  26.780  24.420   3.232
36833W        W 3242  42.371  32.903  14.460
36834W        W 3243  22.536   6.433  12.532
36835W        W 3244  11.081  41.479   2.899
36836W        W 3245  38.783  38.585   0.832
36837W        W 3246  17.697  35.942   0.694
36838W        W 3247   3.253  14.623  13.198
36839W        W 3248  14.217  14.917   3.436
36840W        W 3249  25.480  42.678   0.879
36841W        W 3250   3.851  41.044  14.260
36842W        W 3251  32.332   6.116  11.458
36843W        W 3252  44.730  24.559   3.824
36844W        W 3253  38.497  21.468   1.660
36845W        W 3254  28.500   4.856   1.026
36846W        W 3255  22.084  22.165  10.152
36847W        W 3256  40.627  11.118   0.414
36848W        W 3257  20.124  33.605   0.348
36849W        W 3258  10.584   9.283   2.911
36850W        W 3259  11.489  20.638  14.348
36851W        W 3260  21.134   6.671   0.917
36852W        W 3261  11.686  16.158   0.909
36853W        W 3262  22.813  16.040  13.235
36854W        W 3263  27.540  29.464  12.198
36855W        W 3264  26.186  44.729  11.435
36856W        W 3265   3.525  43.490   1.946
36857W        W 3266  21.558  32.703  14.276
36858W        W 3267  39.113  26.725   3.713
36859W        W 3268   4.817   1.165   0.989
36860W        W 3269  39.859  23.155   1.317
36861W        W 3270  39.024  35.558   3.415
36862W        W 3271  25.723  15.324   0.774
36863W        W 3272   1.645  26.426   1.209
36864W        W 3273  26.138  39.117  13.356
36865W        W 3274  15.106  41.760   3.495
36866W        W 3275  44.409  22.357   0.722
36867W        W 3276  11.229  41.216  14.432
36868W        W 3277   1.326  22.392  12.111
36869W        W 3278  32.073  15.286   0.908
36870W        W 3279  26.209  32.463  14.958
36871W        W 3280  30.734  23.995   3.189
36872W        W 3281  12.429  25.024   4.930
36873W        W 3282  24.919   2.279  10.794
36874W        W 3283   6.784  23.469   0.848
36875W        W 3284  25.644  11.720   4.563
36876W        W 3285  14.535   0.836  11.132
36877W        W 3286  33.951  32.393   2.406
36878W        W 3287   3.463  15.085   0.193
36879W        W 3288  43.066   1.351   3.418
36880W        W 3289   0.336  13.060   3.854
36881W        W 3290  23.976  20.462   0.942
36882W        W 3291  30.681  22.141  12.010
36883W        W 3292  23.061  39.698   3.041
36884W        W 3293  29.153   4.165  13.521
36885W        W 3294  32.507  40.611  14.727
36886W        W 3295  22.994  29.668  13.125
36887W        W 3296   7.911   9.944  11.108
36888W        W 3297  10.327  44.999  14.843
36889W        W 3298  43.885  44.445   0.414
36890W        W 3299   6.891   2.655   2.598
36891W        W 3300  12.716   4.196  13.980
36892W        W 3301  18.833  28.490  11.389
36893W        W 3302  43.691  35.257   4.918
36894W        W 3303  37.965  16.896   0.226
36895W        W 3304  39.083  12.307   2.717
36896W        W 3305  40.488  41.205   2.628
36897W        W 3306   3.423  39.646  14.140
36898W        W 3307  23.981  15.025  14.303
36899W        W 3308  41.868  43.333   2.438
36900W        W 3309  20.386  33.154   0.288
36901W        W 3310  34.425  34.595  10.645
36902W        W 3311  40.556   1.579  12.000
36903W        W 3312  34.191  35.267   1.608
36904W        W 3313  29.047  37.089  10.701
36905W        W 3314  30.499   1.891  13.396
36906W        W 3315  14.763  33.184  10.393
36907W        W 3316  13.721  34.653  10.564
36908W        W 3317   4.311  24.225  13.906
36909W        W 3318  24.182   2.500  13.232
36910W        W 3319  14.572  15.607   4.167
36911W        W 3320  25.599  15.292  13.019
36912W        W 3321   7.592  11.879  11.130
36913W        W 3322  36.512  10.686   0.034
36914W        W 3323  11.589  20.572  12.028
36915W        W 3324  29.023  31.262   3.569
36916W        W 3325  26.267   1.255  12.574
36917W        W 3326   6.287   0.687  14.494
36918W        W 3327  40.553   9.126   5.518
36919W        W 3328  11.091  34.633  13.013
36920W        W 3329  21.483  29.153   3.243
36921W        W 3330  12.693  13.627   4.863
36922W        W 3331  17.539  23.483   2.890
36923W        W 3332  15.179  31.578   0.540
36924W        W 3333   0.539  10.224   4.138
36925W        W 3334  15.295  12.157  11.626
36926W        W 3335  32.858  29.044  14.319
36927W        W 3336  23.248  30.623  13.052
36928W        W 3337  32.703  19.648  10.257
36929W        W 3338  22.458  12.844  13.458
36930W        W 3339  22.752  31.186   1.278
36931W        W 3340  29.457  36.558  14.407
36932W        W 3341  38.021  44.343  11.247
36933W        W 3342  24.455   8.033  11.086
36934W        W 3343  34.764  14.355   4.121
36935W        W 3344   6.287  41.553   1.631
36936W        W 3345   0.162  24.982   0.765
36937W        W 3346  34.589  34.984  12.423
36938W        W 3347  43.992   2.821  12.429
36939W        W 3348  39.491  36.972   4.379
36940W        W 3349  20.175  12.136   3.844
36941W        W 3350   3.695   0.559   1.800
36942W        W 3351  31.831   7.660   5.008
36943W        W 3352  26.594   0.467  14.423
36944W        W 3353  44.955  10.891  13.169
36945W        W 3354  32.480  42.948   2.206
36946W        W 3355  32.843  19.082   2.349
36947W        W 3356   1.405  12.095   3.304
36948W        W 3357  42.574  12.462   4.032
36949W        W 3358  28.988  20.297   0.828
36950W        W 3359   6.971  44.502   1.688
36951W        W 3360   2.254  39.886  14.249
36952W        W 3361  30.322  21.275  10.776
36953W        W 3362  43.790   7.783   3.701
36954W        W 3363  42.516   7.969   2.258
36955W        W 3364  19.685  29.604   3.390
36956W        W 3365  36.196  41.963   3.669
36957W        W 3366   4.260  33.443   4.437
36958W        W 3367   0.760  38.281   2.206
36959W        W 3368   3.355  20.357  13.983
36960W        W 3369  26.391  11.754   4.049
36961W        W 3370  42.521  38.087  11.562
36962W        W 3371  40.418  15.159   0.707
36963W        W 3372  43.385   8.166  14.254
36964W        W 3373   8.851  33.452  14.771
36965W        W 3374   8.852  27.104   1.585
36966W        W 3375   8.143  14.667  10.829
36967W        W 3376   1.361  25.605  11.622
36968W        W 3377   0.851  44.553  10.737
36969W        W 3378  31.099   0.363   0.752
36970W        W 3379  34.565   3.914  12.541
36971W        W 3380  11.817   8.137   2.331
36972W        W 3381   1.987  10.143   4.647
36973W        W 3382  30.226   9.475  13.425
36974W        W 3383  43.749  37.096   4.617
36975W        W 3384  30.495  29.613  13.569
36976W        W 3385   3.964  17.237   3.593
36977W        W 3386   7.901   5.878   3.691
36978W        W 3387  34.531  12.733   3.288
36979W        W 3388  24.492  25.778   4.139
36980W        W 3389  44.051   6.906  10.302
36981W        W 3390  38.844  36.628   4.292
36982W        W 3391  23.526  24.054  14.142
36983W        W 3392  42.043  29.082  12.932
36984W        W 3393  34.498  25.100   1.586
36985W        W 3394  21.130  39.391  13.298
36986W        W 3395  41.851  16.532  11.122
36987W        W 3396  44.044   4.241   3.805
36988W        W 3397  18.049  20.188   3.290
36989W        W 3398  38.386  22.621  14.598
36990W        W 3399  21.617   3.123   2.880
36991W        W 3400  44.079  27.559   1.319
36992W        W 3401  13.014   0.966   0.992
36993W        W 3402   9.802  37.788   3.659
36994W        W 3403  32.848  14.249   0.282
36995W        W 3404   6.051  41.758   2.083
36996W        W 3405  23.997   8.024  13.299
36997W        W 3406  17.706  38.836  13.735
36998W        W 3407  16.211  32.575  12.738
36999W        W 3408  29.073  30.928   0.670
37000W        W 3409  17.789  37.847   1.301
37001W        W 3410   2.997  10.972  12.747
37002W        W 3411  22.722  31.877  11.840
37003W        W 3412  12.688  40.902  11.582
37004W        W 3413   5.441   2.613   0.559
37005W        W 3414  31.055  13.136   4.274
37006W        W 3415  20.222  33.600   2.113
37007W        W 3416   2.519  20.704   2.816
37008W        W 3417  25.589  13.509  12.201
37009W        W 3418  30.253   5.281   4.140
37010W        W 3419  42.796  19.797   2.842
37011W        W 3420  25.216  28.844  13.288
37012W        W 3421  10.855  28.198  10.519
37013W        W 3422  18.727  36.790   4.677
37014W        W 3423   4.398   2.753   2.746
37015W        W 3424  32.394  15.414  13.043
37016W        W 3425  38.017  27.482   3.153
37017W        W 3426  24.895  32.370   3.700
37018W        W 3427  32.727  23.610  12.503
37019W        W 3428   4.314  29.649  12.198
37020W        W 3429  40.836  33.921   3.219
37021W        W 3430  37.065  24.101   2.939
37022W        W 3431   0.979  27.515  14.438
37023W        W 3432   1.833   2.333  14.624
37024W        W 3433  37.446  24.748   3.351
37025W        W 3434  44.955  33.350  13.460
37026W        W 3435   5.619  18.082   2.675
37027W        W 3436   7.277  41.486   4.426
37028W        W 3437   5.046  14.845   4.592
37029W        W 3438   5.033  18.544   1.201
37030W        W 3439  42.601  41.566  12.277
37031W        W 3440   7.229  17.551   3.100
37032W        W 3441  14.155  29.483  13.828
37033W        W 3442  10.657  39.041  10.731
37034W        W 3443  43.437   8.106  13.276
37035W        W 3444  15.736  27.186   2.722
37036W        W 3445   0.881  39.957  13.807
37037W        W 3446  38.477  41.597  11.458
37038W        W 3447   1.173   3.087  12.425
37039W        W 3448  26.262   8.469   0.795
37040W        W 3449  41.690  18.251  14.728
37041W        W 3450  31.923  23.245   3.244
37042W        W 3451  37.800  13.787  11.115
37043W        W 3452   8.959   5.859  10.284
37044W        W 3453  15.171  17.500   1.191
37045W        W 3454  33.672  32.468   2.831
37046W        W 3455   6.808  39.279   3.809
37047W        W 3456  30.574  36.938  11.654
37048W        W 3457  43.771  13.180   4.813
37049W        W 3458  23.070  43.090   0.316
37050W        W 3459  11.084  26.910   3.274
37051W        W 3460  35.317  17.151   2.700
37052W        W 3461  18.772  38.156  13.205
37053W        W 3462  40.150  22.439  14.660
37054W        W 3463  35.086  41.745  10.867
37055W        W 3464  25.993  31.233   1.336
37056W        W 3465  22.916  18.649  13.042
37057W        W 3466  40.953  10.377   2.304
37058W        W 3467   8.317  26.080  12.571
37059W        W 3468   3.504  24.582  10.166
37060W        W 3469  22.903  28.096  13.978
37061W        W 3470  11.781  22.090  11.533
37062W        W 3471  39.800  36.556   2.595
37063W        W 3472   0.452  12.507  13.650
37064W        W 3473  19.022  28.969  14.873
37065W        W 3474  31.287   8.330   2.455
37066W        W 3475   8.226   2.739  12.110
37067W        W 3476  14.826   3.965  10.707
37068W        W 3477  10.184  29.940   4.851
37069W        W 3478  35.921  23.066   2.013
37070W        W 3479  22.565  19.136   1.828
37071W        W 3480   6.825   7.752  13.988
37072W        W 3481  17.810  20.595  13.377
37073W        W 3482  12.716  22.474  12.889
37074W        W 3483  42.885   7.326   5.197
37075W        W 3484  33.636  22.259  14.086
37076W        W 3485  37.893  26.749   0.580
37077W        W 3486  30.308   9.615   9.832
37078W        W 3487  28.166  41.926   2.234
37079W        W 3488   7.321  42.126  14.649
37080W        W 3489  17.692  40.883   4.164
37081W        W 3490  43.784   7.728  14.173
37082W        W 3491  30.034  10.061   0.258
37083W        W 3492  13.066  38.606   1.261
37084W        W 3493  31.368  38.912  14.846
37085W        W 3494  44.165  23.792   1.862
37086W        W 3495   1.930   7.403  11.178
37087W        W 3496  29.140   8.141  11.553
37088W        W 3497  23.403  35.499  13.111
37089W        W 3498   6.630   8.980   1.364
37090W        W 3499  19.556  11.867  14.897
37091W        W 3500  22.006  17.506   3.701
37092W        W 3501   2.575  27.927   0.471
37093W        W 3502  11.076  13.797  14.100
37094W        W 3503   9.827  39.051   1.531
37095W        W 3504   8.276  31.487   3.597
37096W        W 3505  25.783   5.703  10.322
37097W        W 3506   5.897  24.666   0.014
37098W        W 3507   5.136   4.366   4.169
37099W        W 3508  17.775  15.380  12.972
37100W        W 3509   5.353  36.494  12.325
37101W        W 3510  17.805  27.379  11.205
37102W        W 3511  30.155  35.823   1.291
37103W        W 3512  35.281  30.076   0.815
37104W        W 3513  22.541  22.729   1.629
37105W        W 3514  27.035  40.322   4.205
37106W        W 3515  40.407   2.743  13.370
37107W        W 3516   2.595  17.235   4.609
37108W        W 3517   3.997  17.650  11.265
37109W        W 3518  15.218   6.235  13.635
37110W        W 3519  39.535   4.327   4.768
37111W        W 3520  23.335  29.384   2.292
37112W        W 3521   9.175  23.117   2.407
37113W        W 3522  42.797  21.989   3.774
37114W        W 3523  39.486   3.755  11.143
37115W        W 3524  19.253  33.381   0.188
37116W        W 3525  33.848  13.267   3.932
37117W        W 3526  19.276  11.589  11.648
37118W        W 3527   0.785  18.220   2.764
37119W        W 3528  27.137  32.169  11.709
37120W        W 3529  31.645  41.847  11.133
37121W        W 3530  21.025  32.354  12.464
37122W        W 3531  16.742  28.407  10.537
37123W        W 3532  22.158   1.228  12.155
37124W        W 3533   3.278   0.893  11.707
37125W        W 3534   5.582  23.038   2.867
37126W        W 3535  27.021  31.960   2.284
37127W        W 3536  11.783  27.441   3.493
37128W        W 3537   4.628  19.655   0.836
37129W        W 3538  18.476  22.429  11.884
37130W        W 3539  19.073  43.223   0.934
37131W        W 3540  35.532  20.518   3.628
37132W        W 3541  14.538  41.970  13.356
37133W        W 3542  23.226  41.619  12.000
37134W        W 3543   5.403  16.101  10.783
37135W        W 3544  20.191  32.685   1.626
37136W        W 3545  24.105   8.008   1.653
37137W        W 3546   0.950   7.608  13.903
37138W        W 3547  10.598  11.428   0.316
37139W        W 3548  22.449  28.114   2.290
37140W        W 3549  17.840   6.191  11.378
37141W        W 3550  22.286  24.488  12.579
37142W        W 3551  20.701  17.548  13.724
37143W        W 3552  18.077  19.409  14.938
37144W        W 3553  44.728   7.141   3.092
37145W        W 3554   1.824  29.946  12.464
37146W        W 3555  25.539   3.665  11.513
37147W        W 3556  37.101  41.702  12.585
37148W        W 3557  13.591   7.354  12.192
37149W        W 3558  19.943  26.663   0.104
37150W        W 3559  28.652  37.403  11.178
37151W        W 3560  17.899  17.207  12.520
37152W        W 3561   4.093  44.700  12.989
37153W        W 3562  28.094   7.322  11.020
37154W        W 3563  13.663  44.449  11.527
37155W        W 3564  42.320  20.533   0.497
37156W        W 3565  11.220  39.408  14.903
37157W        W 3566  41.437  35.436  10.745
37158W        W 3567   1.159  11.266  14.102
37159W        W 3568  42.908   1.487  13.040
37160W        W 3569  11.287  39.791  12.002
37161W        W 3570  35.569  20.750  12.120
37162W        W 3571   8.040  39.434  14.748
37163W        W 3572  34.684  36.384  13.549
37164W        W 3573  44.560  35.843   3.892
37165W        W 3574   3.226  30.178   4.894
37166W        W 3575  27.532   9.381  12.026
37167W        W 3576  14.858  40.988   0.489
37168W        W 3577  38.364   6.948   3.749
37169W        W 3578  30.285  23.040  11.227
37170W        W 3579  15.251   5.119  13.591
37171W        W 3580  10.655  15.468  12.877
37172W        W 3581  38.579  44.474  11.683
37173W        W 3582  31.865  32.731  13.137
37174W        W 3583  41.954  29.142   0.415
37175W        W 3584  25.504   9.528   3.125
37176W        W 3585  17.306   4.078   1.733
37177W        W 3586  11.144  42.445   2.525
37178W        W 3587  30.095   8.736  10.858
37179W        W 3588  31.762  25.392  10.776
37180W        W 3589   7.597  34.077   3.992
37181W        W 3590   9.944  27.926  12.743
37182W        W 3591  29.419  36.584  11.225
37183W        W 3592   9.709  18.968  12.070
37184W        W 3593  34.494  27.411  14.796
37185W        W 3594   9.680   2.733   1.384
37186W        W 3595  26.680  19.088  10.426
37187W        W 3596  13.692  15.344   1.916
37188W        W 3597  14.091  25.868  11.819
37189W        W 3598  33.085   2.893   2.167
37190W        W 3599   5.349  33.110   2.294
37191W        W 3600   5.563   5.220  14.852
37192W        W 3601  38.735  23.366   3.154
37193W        W 3602   2.795   2.236   3.664
37194W        W 3603   9.635  27.266   1.907
37195W        W 3604  27.031  42.056   3.224
37196W        W 3605  25.492  11.143  12.635
37197W        W 3606  29.513  15.558   5.090
37198W        W 3607   8.138  38.474   1.374
37199W        W 3608  17.461  38.532   5.151
37200W        W 3609  10.239  20.987  14.718
37201W        W 3610  33.231  42.680   1.771
37202W        W 3611  26.730  31.170   1.621
37203W        W 3612  29.630  15.959   4.195
37204W        W 3613  24.566  29.004  12.594
37205W        W 3614  37.329  10.782  13.455
37206W        W 3615  19.060  14.809   1.964
37207W        W 3616  33.846  35.464  14.981
37208W        W 3617   1.373  40.368   3.697
37209W        W 3618   3.105  13.133   4.062
37210W        W 3619  22.716   2.988  10.792
37211W        W 3620  33.457  10.846   2.791
37212W        W 3621  15.903  18.764  13.852
37213W        W 3622  17.032   4.713  13.420
37214W        W 3623  19.544  27.496   3.561
37215W        W 3624  25.122  33.589  14.575
37216W        W 3625  40.456  31.930   1.462
37217W        W 3626  19.755   2.673  13.954
37218W        W 3627   4.415  35.261  11.068
37219W        W 3628  23.293  28.878   0.773
37220W        W 3629  24.616  23.097  11.782
37221W        W 3630  23.197   1.023   3.436
37222W        W 3631  14.718  28.722  14.287
37223W        W 3632  13.665  36.697  11.051
37224W        W 3633  25.651  16.139  14.100
37225W        W 3634  38.858  18.781  13.210
37226W        W 3635  32.947  25.207   0.224
37227W        W 3636  21.074  20.499  12.798
37228W        W 3637   8.929  19.955   1.939
37229W        W 3638  24.936  42.925   2.659
37230W        W 3639   3.915   5.404   2.306
37231W        W 3640  28.234  37.151  12.573
37232W        W 3641   6.849  37.764  12.843
37233W        W 3642  40.758  12.674   4.281
37234W        W 3643  39.749  25.568   2.269
37235W        W 3644  17.962   8.234   1.815
37236W        W 3645  15.397  40.532   3.759
37237W        W 3646  14.076  34.160  14.177
37238W        W 3647  10.259  18.689   1.195
37239W        W 3648  26.717  11.896   1.111
37240W        W 3649  18.374  25.829   3.785
37241W        W 3650  11.031  10.601  14.252
37242W        W 3651   8.539  28.777   0.868
37243W        W 3652  18.927  28.956  13.960
37244W        W 3653   3.513  35.146   5.012
37245W        W 3654  39.781  18.715   3.572
37246W        W 3655  11.647  11.244   3.305
37247W        W 3656  26.058  13.812   4.704
37248W        W 3657  30.327  28.660  11.126
37249W        W 3658  32.626  29.140   1.399
37250W        W 3659  11.507  23.273  12.111
37251W        W 3660  29.917  40.450   1.822
37252W        W 3661  22.353  36.623  14.638
37253W        W 3662  17.181  13.222  12.134
37254W        W 3663  19.226  22.253   2.614
37255W        W 3664   2.237  15.336   1.886
37256W        W 3665  16.409  30.550   0.766
37257W        W 3666   0.511  41.402   2.702
37258W        W 3667  26.985  42.058  14.938
37259W        W 3668  31.515  33.080   1.404
37260W        W 3669  35.015  28.658   3.574
37261W        W 3670   9.768  14.780  11.236
37262W        W 3671  13.499   5.960  11.131
37263W        W 3672   8.775   8.741   1.233
37264W        W 3673  36.858  25.243  11.212
37265W        W 3674  36.385  32.999   3.669
37266W        W 3675  44.398  38.738   2.155
37267W        W 3676   1.928  25.536  14.034
37268W        W 3677  32.697  22.161   4.678
37269W        W 3678  25.169  25.149   3.510
37270W        W 3679  38.898   9.691   0.572
37271W        W 3680  38.924  15.376  14.578
37272W        W 3681  20.324  40.585   1.695
37273W        W 3682  40.041  11.548   3.711
37274W        W 3683  21.256  43.260  14.376
37275W        W 3684  24.122  16.850  13.807
37276W        W 3685   5.418   4.811  13.956
37277W        W 3686   9.863   7.371   0.389
37278W        W 3687  21.974  11.865  14.828
37279W        W 3688   2.290   6.257   2.293
37280W        W 3689  23.059  22.543   4.055
37281W        W 3690  10.275  25.508  11.556
37282W        W 3691  12.685  26.136   4.802
37283W        W 3692  20.607  44.988   1.316
37284W        W 3693  44.505  30.686  11.721
37285W        W 3694  22.905  31.881   9.945
37286W        W 3695  35.477  25.455  12.135
37287W        W 3696  25.555   0.088  12.022
37288W        W 3697   8.763   8.962   3.969
37289W        W 3698  19.621  18.789  13.091
37290W        W 3699  34.362  16.050  11.127
37291W        W 3700   3.990  10.764   2.232
37292W        W 3701  16.653  42.858   1.628
37293W        W 3702  35.845  42.019  11.178
37294W        W 3703   4.525   5.773   1.216
37295W        W 3704   5.137  25.739   2.761
37296W        W 3705   8.681   6.446  11.549
37297W        W 3706  42.822  36.087   1.667
37298W        W 3707  23.787   2.925   0.369
37299W        W 3708   3.331  30.634  13.988
37300W        W 3709  40.795  11.203   4.809
37301W        W 3710  36.911  32.861  12.098
37302W        W 3711  19.237  27.169   1.368
37303W        W 3712   9.390  20.615   2.407
37304W        W 3713  10.392  19.297  11.615
37305W        W 3714  40.065  44.273  14.464
37306W        W 3715  42.059  14.919  14.193
37307W        W 3716  20.529  15.612   0.747
37308W        W 3717  20.152  36.054  12.865
37309W        W 3718  25.068  23.104  12.278
37310W        W 3719   3.543  39.428   2.259
37311W        W 3720  23.653  21.506  14.022
37312W        W 3721  21.143  40.439   1.046
37313W        W 3722   4.808  36.873   4.860
37314W        W 3723  17.752   4.929  13.041
37315W        W 3724  40.297  19.067  12.427
37316W        W 3725  38.071  43.356  12.594
37317W        W 3726  43.875  12.937   3.763
37318W        W 3727  33.144  33.979   4.312
37319W        W 3728  11.193  16.271   0.988
37320W        W 3729  38.530   1.933   4.195
37321W        W 3730  21.079  14.531   1.693
37322W        W 3731  15.970   7.095  12.059
37323W        W 3732   7.242  44.108   2.333
37324W        W 3733   1.786  17.579  13.921
37325W        W 3734  20.294   2.859   4.618
37326W        W 3735   0.466  28.646   4.517
37327W        W 3736   8.642  17.567  13.017
37328W        W 3737  20.124  34.232   4.264
37329W        W 3738   2.282  27.109  14.064
37330W        W 3739  10.833  44.897   5.110
37331W        W 3740  33.174  17.591  13.449
37332W        W 3741  25.157  33.428  10.934
37333W        W 3742  25.658  22.575  10.027
37334W        W 3743  44.430  21.273  12.094
37335W        W 3744   9.834  23.776   9.810
37336W        W 3745  42.664  11.769  13.322
37337W        W 3746   1.425  38.311   2.446
37338W        W 3747   2.329  32.568   4.969
37339W        W 3748  44.057  13.732  11.235
37340W        W 3749  10.974  44.424  11.397
37341W        W 3750  24.323  35.163   5.071
37342W        W 3751  22.350  32.369  11.142
37343W        W 3752  37.831   4.661   0.635
37344W        W 3753  18.246  28.927   2.797
37345W        W 3754  13.805  30.816   3.388
37346W        W 3755  38.702  25.496  12.075
37347W        W 3756  30.578  28.893  13.366
37348W        W 3757  43.561  23.448  13.567
37349W        W 3758  22.115  43.869  11.075
37350W        W 3759  22.400   6.759   1.409
37351W        W 3760  37.958   1.252   2.447
37352W        W 3761  20.135  20.477   0.820
37353W        W 3762  34.231   4.947  13.882
37354W        W 3763  17.317  18.188   1.818
37355W        W 3764  33.913  21.227   3.745
37356W        W 3765  33.180  17.766  10.822
37357W        W 3766   7.758  17.344   1.001
37358W        W 3767  13.550  36.415  11.483
37359W        W 3768   8.948  23.839   2.247
37360W        W 3769  37.126  23.797  13.927
37361W        W 3770  24.238   8.635   5.048
37362W        W 3771  10.222  43.937   4.101
37363W        W 3772   9.205   6.463  11.546
37364W        W 3773   5.502   2.338   2.270
37365W        W 3774   2.841  17.961   0.897
37366W        W 3775  18.596   2.803   3.200
37367W        W 3776  14.521  43.566   1.378
37368W        W 3777  39.980  13.555   3.180
37369W        W 3778  34.824  19.586   3.998
37370W        W 3779   0.210  11.809  14.884
37371W        W 3780  16.455  29.163  14.816
37372W        W 3781  36.036  12.914   4.117
37373W        W 3782  41.033  43.996   3.352
37374W        W 3783  13.158   0.804   2.251
37375W        W 3784   9.894  25.682   2.379
37376W        W 3785  33.647   8.079   0.335
37377W        W 3786  36.578  14.690   4.067
37378W        W 3787  32.002  17.464   0.344
37379W        W 3788  35.409   5.227  11.955
37380W        W 3789  21.611   6.272  10.656
37381W        W 3790  23.055  27.612  10.761
37382W        W 3791  41.210  25.443  12.578
37383W        W 3792   4.785  21.885  13.879
37384W        W 3793  10.134   3.058   3.595
37385W        W 3794  11.935  36.118  12.479
37386W        W 3795  43.465  14.666  10.616
37387W        W 3796   1.014   2.507  14.247
37388W        W 3797   5.789  44.223  10.676
37389W        W 3798  36.548  32.115   5.066
37390W        W 3799  37.193  36.591  11.199
37391W        W 3800  28.710  44.131   2.602
37392W        W 3801  32.016  17.067  11.203
37393W        W 3802  16.606   2.939  11.327
37394W        W 3803  31.071  32.482  12.615
37395W        W 3804  43.936   8.318  12.599
37396W        W 3805  27.901   4.234   2.264
37397W        W 3806  12.835  16.090   0.377
37398W        W 3807  16.233  29.061   4.610
37399W        W 3808   7.826  40.625   1.257
37400W        W 3809  37.088  44.054  14.461
37401W        W 3810  21.027   3.171  11.922
37402W        W 3811  18.708   9.582   2.352
37403W        W 3812  26.029   3.907  13.939
37404W        W 3813   3.179   1.512  12.521
37405W        W 3814  15.200  10.333   1.878
37406W        W 3815  33.118  11.187  10.942
37407W        W 3816  37.752   6.907  13.403
37408W        W 3817  29.595  21.258   1.397
37409W        W 3818  32.132  32.422   4.584
37410W        W 3819   6.224  35.539  13.610
37411W        W 3820  10.661  40.473  13.331
37412W        W 3821  40.131  20.146  12.583
37413W        W 3822  12.572  32.309   4.495
37414W        W 3823   4.371  15.667   2.903
37415W        W 3824   5.208  29.532  12.254
37416W        W 3825  15.275  13.638   4.178
37417W        W 3826  41.545   6.788   0.462
37418W        W 3827   7.145  24.949  14.889
37419W        W 3828  11.485  13.445   5.097
37420W        W 3829   5.114  13.237  10.888
37421W        W 3830  39.259  27.604   2.368
37422W        W 3831  33.856   8.547   3.201
37423W        W 3832  39.861   0.413   3.535
37424W        W 3833  36.186  12.789   1.895
37425W        W 3834  22.107  23.723   2.424
37426W        W 3835  18.534  25.208  13.912
37427W        W 3836   4.340  12.853   1.359
37428W        W 3837   8.157  36.855   2.427
37429W        W 3838  10.170  35.113  13.074
37430W        W 3839  30.889  40.612  13.507
37431W        W 3840  20.167  20.021  11.098
37432W        W 3841   3.646  20.212   1.543
37433W        W 3842   3.110  22.956   1.729
37434W        W 3843  29.394  11.181  14.010
37435W        W 3844  43.866  15.659  13.945
37436W        W 3845   4.034  33.631  11.769
37437W        W 3846   8.150  28.097   0.440
37438W        W 3847   4.703   3.487   4.131
37439W        W 3848  12.066  16.089   0.055
37440W        W 3849  35.054  34.340  11.302
37441W        W 3850   4.998  33.481   3.183
37442W        W 3851  13.300  44.857   4.472
37443W        W 3852   3.717   8.918   0.883
37444W        W 3853   8.815  34.495   0.230
37445W        W 3854  27.821  41.219   2.836
37446W        W 3855  12.246  41.464   3.160
37447W        W 3856  13.772  42.006  14.863
37448W        W 3857   9.198   1.613   0.834
37449W        W 3858  39.302  12.601   1.315
37450W        W 3859   7.378   5.309  10.715
37451W        W 3860   8.444  16.370   2.209
37452W        W 3861  39.363  35.912   0.755
37453W        W 3862  10.566   8.789  10.529
37454W        W 3863  17.728  43.756   2.859
37455W        W 3864  22.527  11.837   1.775
37456W        W 3865   5.534  31.495  11.958
37457W        W 3866   0.378  36.407   4.481
37458W        W 3867   7.861  31.532   1.269
37459W        W 3868  12.298  10.665  13.029
37460W        W 3869  13.047  18.811   1.915
37461W        W 3870  43.950  20.535  13.580
37462W        W 3871   3.367  22.725  12.002
37463W        W 3872  38.797   7.747  14.977
37464W        W 3873  32.703  36.410  11.070
37465W        W 3874  16.127   7.952  13.283
37466W        W 3875   5.163  41.926  10.677
37467W        W 3876  10.429  35.899   0.919
37468W        W 3877  38.645   9.846   4.544
37469W        W 3878  21.676   9.937  13.973
37470W        W 3879  23.478   1.873  12.784
37471W        W 3880  17.113  23.955  13.361
37472W        W 3881  25.980  28.995   0.274
37473W        W 3882   0.835  17.336   4.979
37474W        W 3883  11.230  22.669   1.942
37475W        W 3884  36.235  24.140   1.792
37476W        W 3885  25.512  20.782  11.143
37477W        W 3886  29.655   1.852   4.128
37478W        W 3887   3.186  34.604   4.273
37479W        W 3888  14.119  44.687  11.586
37480W        W 3889  10.756  24.454  11.194
37481W        W 3890  21.984  18.198  12.145
37482W        W 3891   8.805  17.311   3.248
37483W        W 3892  16.863  13.059  13.937
37484W        W 3893   4.907  10.581  13.492
37485W        W 3894  36.303  39.423   2.362
37486W        W 3895  29.132  29.220   1.185
37487W        W 3896  14.759  26.599  11.545
37488W        W 3897  36.566  27.858   2.726
37489W        W 3898   7.416  24.431  14.245
37490W        W 3899  20.199  27.094   0.337
37491W        W 3900  13.855  39.685   3.720
37492W        W 3901   0.716  44.862   3.546
37493W        W 3902  35.640  23.578  14.083
37494W        W 3903  26.008  40.842  14.927
37495W        W 3904  27.516  36.881   1.867
37496W        W 3905  36.428   9.929   3.435
37497W        W 3906  42.442  23.443   2.605
37498W        W 3907   0.654  41.400  14.839
37499W        W 3908  12.345  23.508   3.143
37500W        W 3909   5.115   6.190  12.379
37501W        W 3910  19.921  18.536   2.989
37502W        W 3911  40.105   3.347   4.242
37503W        W 3912  29.930  13.918  10.743
37504W        W 3913  12.333  19.536  14.429
37505W        W 3914  15.331  14.868   0.555
37506W        W 3915  23.637   7.788  10.792
37507W        W 3916  20.248  11.056  11.100
37508W        W 3917   6.756   1.419   3.791
37509W        W 3918  36.343  26.047   0.782
37510W        W 3919  16.675  35.701  13.535
37511W        W 3920  21.241  15.827   0.214
37512W        W 3921  35.583  10.195  11.104
37513W        W 3922  14.285  24.616   1.556
37514W        W 3923   2.459  13.907  12.088
37515W        W 3924   6.653  18.210  11.056
37516W        W 3925  22.745  42.888  11.041
37517W        W 3926  10.350  22.128  13.102
37518W        W 3927   6.523  27.672   3.745
37519W        W 3928  21.285   5.941   2.941
37520W        W 3929  30.408  31.434   4.167
37521W        W 3930  38.545  31.845   1.034
37522W        W 3931  14.263  24.097  13.805
37523W        W 3932  22.145  22.192   3.159
37524W        W 3933   1.901   7.245   1.435
37525W        W 3934  26.233   8.417  13.970
37526W        W 3935  34.696  21.019  10.959
37527W        W 3936   0.697   2.596  12.971
37528W        W 3937  17.265  34.560   3.656
37529W        W 3938   7.864   8.780   1.903
37530W        W 3939  11.731  27.678   0.889
37531W        W 3940  17.470  28.132  11.089
37532W        W 3941  11.751  13.308   2.451
37533W        W 3942  35.156  42.946  14.865
37534W        W 3943  19.481  30.219  12.952
37535W        W 3944  36.372  31.417   3.361
37536W        W 3945  17.498  24.890   2.663
37537W        W 3946  12.702  15.484   0.735
37538W        W 3947   4.944  36.707   2.375
37539W        W 3948  42.915   9.790   2.268
37540W        W 3949  20.549  15.386   4.810
37541W        W 3950  41.903  32.135   0.391
37542W        W 3951  41.509  19.521  12.784
37543W        W 3952   8.905  17.384  11.149
37544W        W 3953   9.072  17.127   2.011
37545W        W 3954   3.326  33.064   4.234
37546W        W 3955  42.059  25.404   2.725
37547W        W 3956   3.486  35.453   0.962
37548W        W 3957  19.580  25.083  14.910
37549W        W 3958  39.997  13.105   1.706
37550W        W 3959  30.953  30.706  11.160
37551W        W 3960  43.228  40.477   4.153
37552W        W 3961  34.303  28.931  11.596
37553W        W 3962  11.757  31.817  13.892
37554W        W 3963  25.961  30.005  11.533
37555W        W 3964   6.340  27.561   4.633
37556W        W 3965  27.649  32.173   2.804
37557W        W 3966  24.634   3.444  12.005
37558W        W 3967  42.454  11.311  14.376
37559W        W 3968  23.220  30.468  14.902
37560W        W 3969  10.515  15.090  13.576
37561W        W 3970  25.644  32.068   4.540
37562W        W 3971  38.293  31.505   2.341
37563W        W 3972   6.351  36.480  11.503
37564W        W 3973  23.677  38.843   4.106
37565W        W 3974   7.710  28.854   1.786
37566W        W 3975   3.833  15.295  12.426
37567W        W 3976  15.298   5.401  11.747
37568W        W 3977  20.542  26.110   2.205
37569W        W 3978  11.246  30.464  13.073
37570W        W 3979   3.832  22.670   2.416
37571W        W 3980  44.052  37.233   2.297
37572W        W 3981  20.112  23.130   3.341
37573W        W 3982   5.614  26.068   1.728
37574W        W 3983  13.169   3.129  12.037
37575W        W 3984  11.478  44.573  11.343
37576W        W 3985  39.151   1.228  12.994
37577W        W 3986  28.468  40.879  14.813
37578W        W 3987  41.448  43.269   4.358
37579W        W 3988  11.735   8.116  14.341
37580W        W 3989  21.381   8.203   3.307
37581W        W 3990  34.016  24.761   4.568
37582W        W 3991  31.942  10.193   3.587
37583W        W 3992   5.199  29.457   4.218
37584W        W 3993   0.751  23.973   3.319
37585W        W 3994   9.097  11.633  11.554
37586W        W 3995  44.435  21.823  10.823
37587W        W 3996  29.463  27.900  14.289
37588W        W 3997  11.603   4.337   2.730
37589W        W 3998  30.644  23.980   2.324
37590W        W 3999  35.625  19.763   0.592
37591W        W 4000  36.849  29.742  11.814
37592W        W 4001   2.114  22.111   3.369
37593W        W 4002  20.525   9.983  14.492
37594W        W 4003  39.107   0.360   1.241
37595W        W 4004   9.825  18.753   1.501
37596W        W 4005   9.342   4.909  14.719
37597W        W 4006  30.909   9.888   2.287
37598W        W 4007  31.986  38.548   3.717
37599W        W 4008  31.061  31.456   2.589
37600W        W 4009  41.807  31.877   0.816
37601W        W 4010   5.728   9.322  10.580
37602W        W 4011  38.623  25.594  12.970
37603W        W 4012  11.510  20.114   4.119
37604W        W 4013  21.593   0.372   2.874
37605W        W 4014   5.503  16.999  10.788
37606W        W 4015  23.205   2.722  11.374
37607W        W 4016  37.061   5.387   0.045
37608W        W 4017   7.419   4.983  12.535
37609W        W 4018   3.387  23.202  10.775
37610W        W 4019  11.329  18.611  12.081
37611W        W 4020  21.544  40.513   4.503
37612W        W 4021   2.880  18.106  13.055
37613W        W 4022  19.580  19.699  14.035
37614W        W 4023   0.842  11.562  11.674
37615W        W 4024   9.173  34.645   4.134
37616W        W 4025  40.338  12.696   1.333
37617W        W 4026  28.728  26.090   2.855
37618W        W 4027   3.389  38.084  11.970
37619W        W 4028  19.119  12.193   2.397
37620W        W 4029  37.530   5.721  10.707
37621W        W 4030  40.821  27.452  11.078
37622W        W 4031  38.049   3.609   1.813
37623W        W 4032  13.733  35.475  14.429
37624W        W 4033   5.888  17.908   4.873
37625W        W 4034  32.926  31.436   3.154
37626W        W 4035   0.813  32.321   3.202
37627W        W 4036  43.375  34.147   0.761
37628W        W 4037  18.419  36.731   3.924
37629W        W 4038  44.210  32.090  13.502
37630W        W 4039   0.400  44.455  14.067
37631W        W 4040  39.525  15.526  11.990
37632W        W 4041  16.636  39.953  11.596
37633W        W 4042  43.971  12.209  12.077
37634W        W 4043  18.122  31.759  11.254
37635W        W 4044  35.924  14.712  12.629
37636W        W 4045  27.759  28.125  12.062
37637W        W 4046  12.722  38.425  14.931
37638W        W 4047   8.880  37.009  11.077
37639W        W 4048  22.984  18.348   1.778
37640W        W 4049   7.357  13.100   0.917
37641W        W 4050  39.235   0.868   4.645
37642W        W 4051   2.820  28.619  12.957
37643W        W 4052  29.139  28.138  14.601
37644W        W 4053  33.702  37.953   0.804
37645W        W 4054  35.420   7.803   0.285
37646W        W 4055  27.933  41.118  12.972
37647W        W 4056   7.658  21.116  12.124
37648W        W 4057  10.723  23.234   4.641
37649W        W 4058  24.340  31.168  13.019
37650W        W 4059  37.096  20.063   4.713
37651W        W 4060  31.129   4.722  13.267
37652W        W 4061   6.484  43.791   1.007
37653W        W 4062  24.172  43.284   4.279
37654W        W 4063  12.728  34.856   4.615
37655W        W 4064  10.555  33.218  12.060
37656W        W 4065  37.617   4.299  14.582
37657W        W 4066   0.839  35.295  12.414
37658W        W 4067  40.801  19.854   0.297
37659W        W 4068  38.707  39.908  10.975
37660W        W 4069  10.902  36.423   0.219
37661W        W 4070  12.658  11.877  11.998
37662W        W 4071  29.721  44.020  11.559
37663W        W 4072  43.753  12.023  12.561
37664W        W 4073  32.962  12.850   0.692
37665W        W 4074  22.681   9.392   2.549
37666W        W 4075  25.958  16.198  10.956
37667W        W 4076  44.472  21.708  13.102
37668W        W 4077  33.695  10.711   3.765
37669W        W 4078  14.737  17.515   2.828
37670W        W 4079  21.968  16.287   3.077
37671W        W 4080  23.409  11.333  11.978
37672W        W 4081  22.757   5.378   0.229
37673W        W 4082  17.174  43.498  14.154
37674W        W 4083  35.890  19.903   1.893
37675W        W 4084  35.236   6.864  13.418
37676W        W 4085  44.831  31.216   4.153
37677W        W 4086  12.656  10.698   0.484
37678W        W 4087  29.126  20.562   1.756
37679W        W 4088  37.823  42.488   0.698
37680W        W 4089  40.860  39.919   1.841
37681W        W 4090   4.235  28.405   0.684
37682W        W 4091  11.122   9.642   2.194
37683W        W 4092  36.799  34.121  13.543
37684W        W 4093  18.046   5.270   3.751
37685W        W 4094  17.645  43.494   2.409
37686W        W 4095  41.234  36.087   3.390
37687W        W 4096   4.714   9.248   0.812
37688W        W 4097  23.773  12.845  12.462
37689W        W 4098  22.282  21.073  11.441
37690W        W 4099  35.494  29.225   4.152
37691W        W 4100   8.865  41.080  11.004
37692W        W 4101  33.459   8.924  12.859
37693W        W 4102  36.082  10.130   0.363
37694W        W 4103  22.548  20.054  12.572
37695W        W 4104  16.140  42.319   1.109
37696W        W 4105  40.171  28.219   0.248
37697W        W 4106  24.009  32.583   4.063
37698W        W 4107  20.709  42.779   2.286
37699W        W 4108  37.450  16.250   4.514
37700W        W 4109  28.008   3.146   2.368
37701W        W 4110  36.067  11.027  13.813
37702W        W 4111   5.723   6.937   4.049
37703W        W 4112   6.677  14.422  14.130
37704W        W 4113  22.474   3.746   3.722
37705W        W 4114  17.109  31.247   1.162
37706W        W 4115  42.359   3.370   2.452
37707W        W 4116  18.064  42.364   4.347
37708W        W 4117   6.439  41.710   3.837
37709W        W 4118  25.937  23.237  13.864
37710W        W 4119  16.636  32.828  12.978
37711W        W 4120   9.494  31.863   5.433
37712W        W 4121  30.623  11.668   2.318
37713W        W 4122  11.423   2.448  12.978
37714W        W 4123  22.813  36.457   0.934
37715W        W 4124  20.663  11.706  11.471
37716W        W 4125   4.459   7.891  11.914
37717W        W 4126  10.752   4.757  12.439
37718W        W 4127   0.660  38.034  11.140
37719W        W 4128   1.252  29.733   3.031
37720W        W 4129  40.508  13.265  10.766
37721W        W 4130  20.121  36.897  12.109
37722W        W 4131  27.551  13.380  10.904
37723W        W 4132  33.596  32.142  13.384
37724W        W 4133  23.043  27.430   0.499
37725W        W 4134  27.524  32.408   1.790
37726W        W 4135  36.770  39.557  12.104
37727W        W 4136   2.789  11.896  13.154
37728W        W 4137  29.517  16.773   3.823
37729W        W 4138  40.144  24.226   3.737
37730W        W 4139  20.220  32.044   2.315
37731W        W 4140  28.325   8.126   3.027
37732W        W 4141  37.454  13.325   0.954
37733W        W 4142  40.543  39.455  14.817
37734W        W 4143   8.766  38.061   3.191
37735W        W 4144  40.406  23.995   2.897
37736W        W 4145   1.492   9.126  10.637
37737W        W 4146  26.715  32.059  14.304
37738W        W 4147  40.466   6.574  11.495
37739W        W 4148  28.545  32.910  10.396
37740W        W 4149  22.569  42.969   0.383
37741W        W 4150  37.522  24.004   4.779
37742W        W 4151  43.491  16.863   1.853
37743W        W 4152  20.275  27.130   3.107
37744W        W 4153  22.193  38.031   0.797
37745W        W 4154  12.391  31.174  13.427
37746W        W 4155  43.660  13.692   4.870
37747W        W 4156  23.244  31.454   3.311
37748W        W 4157  18.423  17.456  12.688
37749W        W 4158   4.945   6.654   0.867
37750W        W 4159  38.293  37.341  12.314
37751W        W 4160  33.499  39.362  11.051
37752W        W 4161  35.681   3.584   0.868
37753W        W 4162  33.394  39.784  13.541
37754W        W 4163  24.298  20.094   0.760
37755W        W 4164  13.362  27.683   2.411
37756W        W 4165  13.352  27.472  11.141
37757W        W 4166  25.397  21.273  11.209
37758W        W 4167  19.613  30.098  12.126
37759W        W 4168  24.052   5.482  12.813
37760W        W 4169  21.406  13.666  12.138
37761W        W 4170   8.137  11.254  14.848
37762W        W 4171  37.062  23.966   3.433
37763W        W 4172  31.507  11.887   3.425
37764W        W 4173  16.108  21.791  12.606
37765W        W 4174  40.314  21.293   4.999
37766W        W 4175  20.582  18.318  13.125
37767W        W 4176   1.459  26.072   1.539
37768W        W 4177  17.707  43.219   2.846
37769W        W 4178  34.776  27.848  12.724
37770W        W 4179  31.085  17.319  13.401
37771W        W 4180  42.832  14.202   3.670
37772W        W 4181  26.227  31.831   4.368
37773W        W 4182  42.747  21.400  12.952
37774W        W 4183  43.033  43.955   4.128
37775W        W 4184  17.033  16.354   1.825
37776W        W 4185  14.024   8.603  11.150
37777W        W 4186  23.004  30.142   3.329
37778W        W 4187  40.364   6.827  14.045
37779W        W 4188  29.968  39.110  13.249
37780W        W 4189  18.772  24.197   1.520
37781W        W 4190  18.499  28.189   1.245
37782W        W 4191  32.457  38.992  13.270
37783W        W 4192  16.130  18.079   1.354
37784W        W 4193   8.775  25.112  10.897
37785W        W 4194  43.579  33.288   0.400
37786W        W 4195  29.706  36.116   4.030
37787W        W 4196  27.020  19.686   0.387
37788W        W 4197  39.525   3.294  13.379
37789W        W 4198  37.343   4.198  13.028
37790W        W 4199  30.069  37.492   1.830
37791W        W 4200  41.537   4.917  13.391
37792W        W 4201  26.183  41.133   1.341
37793W        W 4202   9.509   0.731   4.074
37794W        W 4203  20.550  25.014   1.414
37795W        W 4204  14.265  32.145  12.911
37796W        W 4205  44.881  31.390   1.191
37797W        W 4206  33.336  20.070   3.688
37798W        W 4207   4.576  29.377   2.794
37799W        W 4208  21.984  36.044   0.776
37800W        W 4209  36.094  13.899  11.396
37801W        W 4210  17.130  20.271  12.485
37802W        W 4211  43.787  42.902   2.927
37803W        W 4212  39.182  40.847  10.632
37804W        W 4213   1.728   3.762   0.283
37805W        W 4214  39.574   5.483  13.406
37806W        W 4215   6.911  39.172   3.323
37807W        W 4216  16.913   1.857   2.251
37808W        W 4217   8.969  42.462  12.996
37809W        W 4218  25.273  11.164  12.042
37810W        W 4219  18.797  44.990  14.986
37811W        W 4220  18.808  12.281   4.707
37812W        W 4221  26.875  15.794   4.267
37813W        W 4222  37.742  13.688  14.267
37814W        W 4223  39.282  25.466  14.940
37815W        W 4224   8.318  33.982  11.767
37816W        W 4225  16.695   8.090   4.169
37817W        W 4226  13.124  10.875  12.570
37818W        W 4227   0.959  19.288  11.660
37819W        W 4228  38.910  12.042   3.154
37820W        W 4229  31.569   4.564   3.180
37821W        W 4230   5.224  32.674  11.509
37822W        W 4231  25.355   2.531  10.578
37823W        W 4232   9.228   2.554  13.717
37824W        W 4233  16.090  44.406   2.988
37825W        W 4234  19.573  19.150  10.229
37826W        W 4235  33.138  18.735  12.189
37827W        W 4236  12.091  27.194   3.143
37828W        W 4237  31.408  31.199   2.330
37829W        W 4238  38.492   3.877   1.676
37830W        W 4239  31.604  40.806  11.103
37831W        W 4240  37.391  44.776   0.907
37832W        W 4241  44.478   3.389   3.735
37833W        W 4242  29.005   4.821  10.973
37834W        W 4243  34.835  38.781   5.007
37835W        W 4244  16.740  13.777   4.713
37836W        W 4245  31.562  35.945  13.967
37837W        W 4246  11.166  17.847   3.197
37838W        W 4247  14.716  17.298   0.491
37839W        W 4248   7.304  21.783   1.779
37840W        W 4249  17.482   8.598   5.078
37841W        W 4250   6.769  23.735  13.778
37842W        W 4251   6.835  40.012  13.395
37843W        W 4252  10.803  24.696  13.493
37844W        W 4253  27.782   3.886  12.425
37845W        W 4254  33.788   4.024  12.916
37846W        W 4255  38.130  27.900   3.386
37847W        W 4256   2.908  14.146  12.122
37848W        W 4257  39.043  28.074   2.481
37849W        W 4258  14.873  36.292   1.868
37850W        W 4259  30.046  12.234   3.637
37851W        W 4260  31.124  31.173   3.620
37852W        W 4261  38.885  21.346   5.208
37853W        W 4262  38.188  25.637  12.032
37854W        W 4263   4.941  44.534   3.277
37855W        W 4264   9.321  12.185   2.342
37856W        W 4265  35.022  38.559   0.396
37857W        W 4266   8.785  44.401   4.934
37858W        W 4267  11.638  40.663   2.945
37859W        W 4268   4.237  29.298   0.342
37860W        W 4269  12.907   5.259   2.458
37861W        W 4270   6.950  37.326   3.720
37862W        W 4271  17.897  21.150   0.681
37863W        W 4272   0.337  35.279  12.863
37864W        W 4273  17.129  31.043   2.371
37865W        W 4274  37.064  32.556   1.587
37866W        W 4275  40.455  39.038   0.104
37867W        W 4276  14.890  42.964  12.870
37868W        W 4277  42.972   6.803  10.976
37869W        W 4278   7.237  16.024  13.899
37870W        W 4279  25.386  32.056  13.537
37871W        W 4280  29.504   0.842   2.741
37872W        W 4281   2.076  18.645  11.519
37873W        W 4282  33.885  24.359   1.579
37874W        W 4283   7.350  19.675  14.053
37875W        W 4284  34.519  15.356   1.292
37876W        W 4285  15.748  35.235  12.472
37877W        W 4286   3.079  44.229  12.971
37878W        W 4287  38.478  18.601   4.860
37879W        W 4288   5.910  23.297  14.975
37880W        W 4289  21.651   4.842   2.254
37881W        W 4290  17.245  16.057   2.731
37882W        W 4291  33.080  13.689  11.635
37883W        W 4292  41.468  38.138  13.979
37884W        W 4293  35.046   3.099   3.225
37885W        W 4294  11.880  17.420  13.195
37886W        W 4295  26.911  25.560   0.029
37887W        W 4296  16.058   6.335   3.876
37888W        W 4297   7.968  14.353  12.927
37889W        W 4298  22.986  10.650  14.900
37890W        W 4299  37.457  44.813  10.560
37891W        W 4300  11.456  26.228  12.584
37892W        W 4301  13.296  20.700  12.974
37893W        W 4302  25.924   7.372   0.846
37894W        W 4303  20.155  24.653   3.695
37895W        W 4304   4.319  17.046  12.336
37896W        W 4305  22.803  38.608  14.515
37897W        W 4306  44.908  32.097   3.301
37898W        W 4307   5.755   1.377   4.656
37899W        W 4308   2.323  17.200  10.212
37900W        W 4309  25.428  34.225  12.078
37901W        W 4310  32.939   5.784   0.930
37902W        W 4311  27.434  18.315  11.982
37903W        W 4312  13.900  19.634  12.641
37904W        W 4313  12.596  41.977   2.275
37905W        W 4314  23.767  28.043  10.301
37906W        W 4315   8.331  12.201  14.005
37907W        W 4316  38.702  17.153   3.712
37908W        W 4317  31.654  16.098   0.379
37909W        W 4318  21.422  20.274  14.436
37910W        W 4319  17.116  20.313   2.818
37911W        W 4320   1.816   0.209   0.814
37912W        W 4321   6.728  25.985  13.422
37913W        W 4322  11.326  14.057   3.141
37914W        W 4323  10.181  42.717  10.288
37915W        W 4324   1.222  32.811  13.759
37916W        W 4325  32.538  16.139   0.958
37917W        W 4326  15.758  31.888  13.995
37918W        W 4327  12.798  15.642   4.583
37919W        W 4328  29.506  34.487   0.902
37920W        W 4329   8.503   2.324  11.129
37921W        W 4330  42.223   9.823  12.623
37922W        W 4331  21.635  22.082   3.892
37923W        W 4332  23.744  42.861   3.400
37924W        W 4333  37.771  25.992  14.279
37925W        W 4334   2.130  22.622  12.464
37926W        W 4335   2.523  37.557   4.639
37927W        W 4336   3.613  33.659  14.249
37928W        W 4337  22.599  17.340  13.543
37929W        W 4338  34.361  24.270   1.324
37930W        W 4339  23.993   2.392  11.266
37931W        W 4340  23.056  24.027  14.638
37932W        W 4341  12.930  39.069  13.278
37933W        W 4342   5.668  17.327   0.782
37934W        W 4343  33.986   2.805   1.850
37935W        W 4344  26.451  34.653  12.337
37936W        W 4345  32.019  42.967  13.522
37937W        W 4346  24.680   8.386   4.874
37938W        W 4347  39.243  39.929   0.339
37939W        W 4348  19.858  35.509  10.805
37940W        W 4349  21.336  23.327   0.949
37941W        W 4350  13.787  41.048   4.568
37942W        W 4351  37.586  21.492  14.473
37943W        W 4352  15.137   5.821  13.352
37944W        W 4353   6.968  29.535   1.732
37945W        W 4354  35.122  14.573  12.947
37946W        W 4355  42.582  10.943   2.208
37947W        W 4356  21.524   8.700   3.472
37948W        W 4357  19.983   7.370   1.321
37949W        W 4358   3.935  42.446  10.568
37950W        W 4359  26.989  27.569   3.385
37951W        W 4360  31.063  35.180   2.003
37952W        W 4361  15.632  41.889  10.700
37953W        W 4362  21.790   5.205  13.864
37954W        W 4363  41.862  28.614   0.380
37955W        W 4364  26.206  39.737   3.520
37956W        W 4365  24.951  36.810   1.841
37957W        W 4366  12.647  25.470   3.220
37958W        W 4367  33.955  18.662  11.652
37959W        W 4368  38.420  14.262  13.740
37960W        W 4369  30.457  30.020   4.346
37961W        W 4370   0.522  27.255   4.161
37962W        W 4371  22.650   1.252  11.916
37963W        W 4372  37.826  39.419  13.827
37964W        W 4373  18.749  23.040  12.118
37965W        W 4374  43.757   7.731   1.398
37966W        W 4375  12.870  13.992   0.981
37967W        W 4376  23.471  37.532   3.070
37968W        W 4377  13.224  28.702  14.035
37969W        W 4378   6.443  33.431  10.679
37970W        W 4379  18.977  16.119   1.681
37971W        W 4380   7.409  10.614  12.563
37972W        W 4381   8.982   1.070  10.013
37973W        W 4382  23.746  38.333  14.279
37974W        W 4383  36.068  11.652  12.099
37975W        W 4384  33.467  41.443  10.739
37976W        W 4385  23.265  11.215  11.507
37977W        W 4386  10.106  13.892   1.556
37978W        W 4387  24.185  26.260   4.911
37979W        W 4388  34.945  33.737  14.791
37980W        W 4389  24.567  19.545   3.857
37981W        W 4390  34.403  18.867   3.660
37982W        W 4391  37.314  19.995  14.479
37983W        W 4392  31.523   9.155  10.730
37984W        W 4393  41.409  35.956  10.632
37985W        W 4394   7.273   2.137   1.812
37986W        W 4395   5.199  13.642   1.330
37987W        W 4396  21.040  43.770   0.300
37988W        W 4397  33.532  26.076  12.805
37989W        W 4398  43.833  12.630  10.733
37990W        W 4399  28.626  32.113   3.781
37991W        W 4400  44.482   3.916  11.552
37992W        W 4401  24.682  13.742  14.927
37993W        W 4402  16.047  11.633   2.787
37994W        W 4403   0.491  17.614  10.376
37995W        W 4404  25.521  13.315   3.348
37996W        W 4405  29.206  11.480   2.240
37997W        W 4406  32.378  30.634  14.410
37998W        W 4407   7.740  44.992  14.234
37999W        W 4408  26.620  37.194  13.873
38000W        W 4409   4.794  36.983   1.402
38001W        W 4410  29.970  30.464   1.767
38002W        W 4411  36.774  33.553   0.265
38003W        W 4412  19.722  39.591   0.957
38004W        W 4413   5.293   3.736  10.544
38005W        W 4414  19.973   2.431   3.198
38006W        W 4415  40.403  37.324   4.055
38007W        W 4416  31.444  21.184  14.951
38008W        W 4417  27.002  37.331   0.691
38009W        W 4418  21.557  35.945   5.331
38010W        W 4419  33.711  26.694  13.618
38011W        W 4420  34.622  23.965  13.470
38012W        W 4421  13.822  11.541  12.551
38013W        W 4422  31.348  12.399   3.683
38014W        W 4423   1.042   2.227   1.308
38015W        W 4424  24.157  44.903   0.523
38016W        W 4425  33.788  14.332  13.456
38017W        W 4426   1.009  12.746   2.854
38018W        W 4427  25.070  30.645   0.390
38019W        W 4428  42.458   5.207  11.827
38020W        W 4429  36.891  39.507   4.619
38021W        W 4430  21.325  40.930   0.845
38022W        W 4431  12.444  28.880   0.776
38023W        W 4432  27.638  37.047  13.480
38024W        W 4433  42.594   6.640   4.937
38025W        W 4434   1.338  39.344   3.856
38026W        W 4435  18.630  16.671   3.356
38027W        W 4436   1.461   9.908  13.949
38028W        W 4437  37.943  35.061   2.903
38029W        W 4438  31.101   1.540  13.802
38030W        W 4439  35.836  32.639   3.177
38031W        W 4440   9.956  14.999  12.159
38032W        W 4441  44.051   9.357  11.579
38033W        W 4442   8.287  22.197  13.312
38034W        W 4443   8.769  42.472   1.929
38035W        W 4444   0.605  18.771   1.945
38036W        W 4445   0.806   9.725   4.621
38037W        W 4446  10.640  33.280   3.148
38038W        W 4447  32.998  44.682  13.010
38039W        W 4448  19.137   4.725   1.375
38040W        W 4449  13.188   9.251  14.561
38041W        W 4450  24.106   1.215   2.125
38042W        W 4451  27.093  18.551   4.849
38043W        W 4452  35.676   1.673   1.607
38044W        W 4453  38.580   4.502   3.236
38045W        W 4454  13.396  15.165   4.072
38046W        W 4455  30.197  23.456   0.834
38047W        W 4456  20.427  26.095  13.479
38048W        W 4457  32.585  28.438   4.620
38049W        W 4458  41.077   0.023  12.923
38050W        W 4459  21.126  39.898  11.463
38051W        W 4460   3.014  34.567   2.253
38052W        W 4461  39.387  32.186  13.468
38053W        W 4462  14.734  33.155  13.532
38054W        W 4463  44.291  43.971  11.693
38055W        W 4464  29.904   3.722  13.774
38056W        W 4465  32.652  20.374  11.418
38057W        W 4466  20.345  15.866   1.348
38058W        W 4467  20.493  32.043  12.930
38059W        W 4468  44.024  16.668   2.454
38060W        W 4469  27.164  32.895  11.848
38061W        W 4470   8.357  39.561   2.588
38062W        W 4471  29.862   4.309  10.260
38063W        W 4472  16.666  24.982   0.368
38064W        W 4473  44.068  40.844   4.099
38065W        W 4474  42.999  11.670  12.943
38066W        W 4475  26.739  17.900  12.355
38067W        W 4476  41.912  16.410   2.791
38068W        W 4477  43.142  13.287  11.742
38069W        W 4478  39.144  44.393   3.669
38070W        W 4479  40.529  36.070   2.837
38071W        W 4480  11.366  14.210  10.714
38072W        W 4481  30.854  30.773  12.933
38073W        W 4482  30.687  25.794  14.825
38074W        W 4483  29.572  15.074   3.123
38075W        W 4484  39.400   2.313  12.022
38076W        W 4485  42.038  29.961   2.622
38077W        W 4486   6.024  16.872  13.555
38078W        W 4487  43.726  16.929   3.209
38079W        W 4488  36.177  20.315  11.570
38080W        W 4489  35.420  41.015   4.819
38081W        W 4490   1.385  43.298   4.525
38082W        W 4491  40.767  26.654  13.802
38083W        W 4492  14.748  14.677  13.892
38084W        W 4493  40.120  31.591   2.890
38085W        W 4494  21.310  37.333  12.899
38086W        W 4495  19.228   6.460   0.338
38087W        W 4496   4.717  17.278  14.014
38088W        W 4497  14.097  22.075  14.402
38089W        W 4498   1.802   3.673  12.855
38090W        W 4499  16.602  15.260  11.589
38091W        W 4500   3.909  37.147   4.007
38092W        W 4501  15.979  25.224   5.088
38093W        W 4502  15.532   0.388   0.370
38094W        W 4503  30.960  27.887  12.428
38095W        W 4504  20.603  20.793  12.826
38096W        W 4505  38.750  35.485   1.363
38097W        W 4506  15.613   1.612   2.936
38098W        W 4507  22.412  25.276   4.999
38099W        W 4508  27.690  32.311  13.382
38100W        W 4509   5.711   5.673  14.642
38101W        W 4510  40.402  41.318   1.329
38102W        W 4511   4.884  43.190  14.306
38103W        W 4512  29.525   2.767  10.671
38104W        W 4513  39.302  35.590  14.370
38105W        W 4514  34.885  12.424   4.599
38106W        W 4515  11.547  40.551   3.761
38107W        W 4516  35.422  29.500   3.195
38108W        W 4517  19.703   3.356  11.355
38109W        W 4518   5.046  25.222   9.792
38110W        W 4519  39.742  33.580   1.875
38111W        W 4520  17.029  37.094   2.814
38112W        W 4521  42.475   8.907   0.315
38113W        W 4522  24.021   2.288  10.758
38114W        W 4523  10.864  38.489   0.354
38115W        W 4524  33.019  18.611  10.650
38116W        W 4525   7.950  37.385  10.354
38117W        W 4526  16.157  25.368   5.581
38118W        W 4527   4.321  43.245  10.784
38119W        W 4528  28.057  15.403   2.847
38120W        W 4529  24.260  21.763  12.179
38121W        W 4530  17.734  32.555  13.617
38122W        W 4531  41.025  22.157   2.171
38123W        W 4532  12.905  36.868   1.770
38124W        W 4533  26.127   6.115  13.215
38125W        W 4534  12.425  41.474  13.890
38126W        W 4535  29.630  39.051  14.462
38127W        W 4536  35.928   1.016   2.693
38128W        W 4537  22.087  18.529  13.876
38129W        W 4538   3.458  34.106   1.281
38130W        W 4539  19.685  39.584  11.609
38131W        W 4540  34.962  35.629  11.995
38132W        W 4541  14.321  38.548   0.730
38133W        W 4542   2.652  36.945  10.931
38134W        W 4543  31.682  13.861   1.736
38135W        W 4544   2.542   5.997   2.817
38136W        W 4545   5.724  44.065  14.160
38137W        W 4546  17.322  30.109  14.768
38138W        W 4547   7.436   9.686   4.931
38139W        W 4548  11.209  18.215  13.964
38140W        W 4549  34.594  39.831   1.470
38141W        W 4550  35.140  12.702  13.945
38142W        W 4551  36.019   3.185   0.893
38143W        W 4552   2.901   7.151  11.247
38144W        W 4553  28.136   5.019  12.179
38145W        W 4554   6.344  32.632  11.609
38146W        W 4555  20.518  31.984  13.871
38147W        W 4556  23.220  32.416  13.374
38148W        W 4557  13.318   6.384   0.429
38149W        W 4558  37.009  32.140  10.499
38150W        W 4559   1.423  24.069  10.840
38151W        W 4560  44.713  31.979  13.506
38152W        W 4561  38.453  40.716  11.292
38153W        W 4562  44.714  27.433  14.816
38154W        W 4563  12.133  18.171  14.762
38155W        W 4564  37.731   4.208   4.098
38156W        W 4565  40.249  24.637   1.310
38157W        W 4566  14.736  25.481   1.809
38158W        W 4567  26.045   6.854   0.771
38159W        W 4568  20.211  13.093  10.013
38160W        W 4569  44.451  42.507  10.819
38161W        W 4570  41.388  12.398   2.026
38162W        W 4571  11.206  13.323   0.014
38163W        W 4572  13.675   4.187  12.603
38164W        W 4573   1.880  14.946   1.227
38165W        W 4574  12.157  25.302   3.205
38166W        W 4575  13.223  40.579   1.175
38167W        W 4576  44.980  44.483   0.032
38168W        W 4577  40.378   2.306   3.245
38169W        W 4578  43.058  32.123  10.564
38170W        W 4579   6.980  33.981   3.278
38171W        W 4580  15.182  17.560  13.885
38172W        W 4581  15.658   9.199   4.095
38173W        W 4582   2.549  15.301  11.229
38174W        W 4583   9.213   3.993  13.467
38175W        W 4584   5.935  11.831  10.644
38176W        W 4585  12.488  26.152   1.182
38177W        W 4586   0.145   3.422   0.495
38178W        W 4587  28.728  18.062  11.627
38179W        W 4588  41.926  10.402   0.962
38180W        W 4589  37.427  24.900  12.001
38181W        W 4590  30.004   6.406  13.619
38182W        W 4591  38.484  35.520   3.674
38183W        W 4592  37.405  33.285   2.505
38184W        W 4593   2.796  32.599  14.028
38185W        W 4594   0.429  41.608   0.820
38186W        W 4595  36.130  41.895  12.242
38187W        W 4596   1.480  10.936  11.943
38188W        W 4597  22.764   2.344   4.645
38189W        W 4598  15.660  38.875   2.411
38190W        W 4599  21.893   5.971   2.776
38191W        W 4600   2.573  36.454  12.958
38192W        W 4601   7.335  35.520  12.078
38193W        W 4602  18.266  40.600  14.454
38194W        W 4603  32.519  21.733  12.447
38195W        W 4604  10.846  43.522  13.454
38196W        W 4605  29.754   7.654   3.772
38197W        W 4606  27.079  33.630   3.305
38198W        W 4607  39.987  41.926  12.268
38199W        W 4608  14.254  37.802  14.344
38200W        W 4609   6.968  11.836  12.690
38201W        W 4610  37.783  33.945  12.550
38202W        W 4611   8.373  13.829   0.874
38203W        W 4612  17.699  24.119  11.667
38204W        W 4613   4.187  35.539  12.930
38205W        W 4614  31.306  12.670  12.483
38206W        W 4615   7.894  40.079   4.086
38207W        W 4616  44.813   1.293   0.900
38208W        W 4617  35.131  39.182  12.114
38209W        W 4618   6.378  36.409   2.419
38210W        W 4619  34.308  38.996  13.886
38211W        W 4620  12.067   5.428  13.051
38212W        W 4621   7.440  43.971  13.223
38213W        W 4622  41.262  15.485   1.319
38214W        W 4623   7.678  19.170   2.338
38215W        W 4624  25.566  40.790   0.232
38216W        W 4625   3.134  15.602   1.187
38217W        W 4626  15.009  16.780  12.786
38218W        W 4627  23.121  32.601  11.588
38219W        W 4628  36.769  44.245  12.539
38220W        W 4629  12.296  32.513  13.834
38221W        W 4630   9.753  15.158  12.992
38222W        W 4631   2.387  21.470   2.309
38223W        W 4632  12.751  32.082   2.705
38224W        W 4633  37.538  29.656  10.478
38225W        W 4634  30.631   7.732  12.861
38226W        W 4635  31.651  18.259  12.616
38227W        W 4636  26.438  15.994  13.900
38228W        W 4637  29.014  30.989   2.672
38229W        W 4638  43.348   9.105  12.467
38230W        W 4639  43.728   3.538  14.754
38231W        W 4640  31.902  24.154  13.315
38232W        W 4641   0.301   2.463   0.332
38233W        W 4642  15.761  39.286   0.777
38234W        W 4643  41.649  17.353  12.814
38235W        W 4644  28.752  18.334   2.276
38236W        W 4645   2.055  12.821   2.589
38237W        W 4646  29.486  39.791   2.259
38238W        W 4647   6.449  12.136   0.965
38239W        W 4648  44.541  14.843   2.232
38240W        W 4649   0.676  39.416  12.384
38241W        W 4650  19.823  16.060  14.303
38242W        W 4651   4.847   2.305   2.598
38243W        W 4652  37.474  15.852  14.264
38244W        W 4653  34.053   6.915  14.513
38245W        W 4654  25.801  35.595  13.686
38246W        W 4655   3.039  14.088  13.988
38247W        W 4656  15.173  30.624   0.585
38248W        W 4657  35.803  27.285   2.785
38249W        W 4658  42.303  13.161  12.384
38250W        W 4659  31.232  39.294   3.286
38251W        W 4660   0.543   4.732  12.564
38252W        W 4661  41.880   3.341  14.068
38253W        W 4662  18.057  26.113  11.733
38254W        W 4663   6.482  10.182  14.468
38255W        W 4664  31.033  15.608  12.993
38256W        W 4665  43.020  22.680   2.685
38257W        W 4666   8.778  28.418  12.997
38258W        W 4667  19.788   0.835  11.617
38259W        W 4668  38.891  39.701   1.918
38260W        W 4669  25.543   3.306  12.463
38261W        W 4670  18.020  20.438  12.889
38262W        W 4671  40.049  18.850   2.356
38263W        W 4672  26.377  15.210   2.349
38264W        W 4673  12.315  16.049   2.850
38265W        W 4674   2.920  17.637  12.808
38266W        W 4675  12.562  43.015   3.661
38267W        W 4676  42.637  20.611   3.858
38268W        W 4677  10.791  28.984   4.679
38269W        W 4678   1.735  14.479   1.363
38270W        W 4679  39.857  40.846   3.117
38271W        W 4680  25.295  22.035   4.559
38272W        W 4681  20.960  15.318   3.800
38273W        W 4682  20.491  34.624  11.228
38274W        W 4683  35.924   8.936   4.552
38275W        W 4684  23.194  12.214  13.367
38276W        W 4685  38.509   2.769   2.734
38277W        W 4686  11.984  32.595   0.424
38278W        W 4687  27.765  43.751   2.693
38279W        W 4688   0.758  41.339   3.155
38280W        W 4689  35.163  29.190  10.874
38281W        W 4690   3.401  25.781   4.836
38282W        W 4691  13.404   4.752  10.334
38283W        W 4692  41.791  43.520   3.291
38284W        W 4693  31.538  28.837  11.166
38285W        W 4694   3.857  34.050  12.951
38286W        W 4695  40.934  39.708   1.007
38287W        W 4696  36.855  38.428   2.188
38288W        W 4697  15.418  16.023   2.300
38289W        W 4698  37.436  44.683  13.285
38290W        W 4699   6.131  30.405   2.287
38291W        W 4700  15.082   6.349   3.581
38292W        W 4701  33.545  11.273   4.591
38293W        W 4702  42.783  34.103  11.480
38294W        W 4703  44.013  23.536   4.106
38295W        W 4704  30.969  38.095  10.987
38296W        W 4705  24.989  42.269  13.895
38297W        W 4706  15.999   1.511   1.340
38298W        W 4707  30.340  16.540  14.498
38299W        W 4708  12.765  29.083  12.549
38300W        W 4709  33.706  44.906   3.424
38301W        W 4710  13.869  10.905   3.093
38302W        W 4711  38.466  28.707  14.603
38303W        W 4712   0.775  16.595   0.887
38304W        W 4713  38.264  33.158  12.509
38305W        W 4714   6.222  25.427   0.754
38306W        W 4715  35.723  23.192  14.611
38307W        W 4716  22.012  23.138  13.334
38308W        W 4717  32.696  43.686   0.446
38309W        W 4718   5.387  40.120  14.043
38310W        W 4719  17.587  25.258   1.805
38311W        W 4720  18.056  12.636   1.406
38312W        W 4721  31.438  30.174  12.586
38313W        W 4722  12.761  34.665  11.940
38314W        W 4723  11.757  14.938  13.396
38315W        W 4724   2.675   5.899  14.932
38316W        W 4725  28.988  13.449   4.636
38317W        W 4726  18.502  18.280  13.301
38318W        W 4727  33.293  14.804  14.838
38319W        W 4728   6.222   3.336   5.293
38320W        W 4729  14.791   1.665  10.244
38321W        W 4730  42.216  13.740   1.823
38322W        W 4731  11.243  42.013  10.686
38323W        W 4732  42.128  15.713   0.253
38324W        W 4733  18.079  16.336  13.369
38325W        W 4734  21.708  31.211   2.231
38326W        W 4735  22.304  30.778  13.739
38327W        W 4736  28.149  21.671   9.916
38328W        W 4737  43.289  24.244  11.568
38329W        W 4738  25.378  37.432   9.892
38330W        W 4739  13.595  35.696   1.892
38331W        W 4740   9.589  42.959  12.501
38332W        W 4741  29.266  23.996   4.485
38333W        W 4742  35.285   5.424  13.529
38334W        W 4743  33.549  21.462   3.339
38335W        W 4744  39.311   2.576   0.042
38336W        W 4745  28.225  16.031   1.615
38337W        W 4746  27.158  35.624  10.428
38338W        W 4747  17.356  22.787  14.896
38339W        W 4748  16.138   6.797   2.138
38340W        W 4749  41.860  28.593   1.312
38341W        W 4750  39.596   9.151   0.345
38342W        W 4751  19.156  13.606   1.728
38343W        W 4752  19.888  10.203   0.716
38344W        W 4753  10.395  19.688  10.832
38345W        W 4754  30.336   4.059   2.647
38346W        W 4755  19.323  31.298   4.022
38347W        W 4756  12.315   7.712  13.852
38348W        W 4757  32.166  37.754  13.366
38349W        W 4758  20.680   5.602   1.740
38350W        W 4759  14.602  44.419  11.645
38351W        W 4760  30.470   4.789  12.143
38352W        W 4761  24.178  40.643   3.018
38353W        W 4762  11.173  12.438  12.468
38354W        W 4763  44.724  11.340   0.276
38355W        W 4764  37.648  23.052   2.763
38356W        W 4765  11.634  24.746   3.892
38357W        W 4766   1.852  17.171  13.287
38358W        W 4767  21.485   8.170  13.575
38359W        W 4768   2.455  11.715   3.835
38360W        W 4769   4.169   2.781  12.543
38361W        W 4770  21.468   7.727  12.588
38362W        W 4771   1.850  41.794  12.468
38363W        W 4772  16.470  21.157  13.281
38364W        W 4773  25.149  14.507   2.349
38365W        W 4774  26.037   6.781  13.747
38366W        W 4775  10.831  36.797  12.958
38367W        W 4776   8.755  13.365   1.934
38368W        W 4777   8.105  38.774   0.259
38369W        W 4778  37.891   6.729   3.716
38370W        W 4779   7.334  22.298   3.602
38371W        W 4780  23.618  10.425  14.408
38372W        W 4781   6.724  17.289  12.033
38373W        W 4782  16.724  14.233  13.305
38374W        W 4783  39.449  29.476   3.681
38375W        W 4784   7.640  38.114  14.838
38376W        W 4785  21.094  44.708   1.233
38377W        W 4786  21.318  31.455  12.831
38378W        W 4787  11.197  24.330  11.419
38379W        W 4788  28.123  26.541   1.807
38380W        W 4789  34.844  20.579   2.363
38381W        W 4790  44.206   6.994  12.688
38382W        W 4791   6.200  13.192  10.690
38383W        W 4792   4.439   0.924  11.138
38384W        W 4793  44.600  43.879   3.990
38385W        W 4794  11.005   7.792  14.470
38386W        W 4795  14.543  15.129  14.040
38387W        W 4796  30.067  26.216  14.454
38388W        W 4797  36.150  28.455  13.454
38389W        W 4798  37.419  10.612  14.342
38390W        W 4799  41.425   3.891  12.609
38391W        W 4800  35.466  15.672   0.416
38392W        W 4801  37.579   6.890   1.457
38393W        W 4802  11.419  43.973  10.624
38394W        W 4803  33.082  24.229   2.146
38395W        W 4804  24.829  13.800  11.160
38396W        W 4805  39.536  11.488  12.750
38397W        W 4806  40.749  32.886   2.304
38398W        W 4807  34.607  18.750  14.029
38399W        W 4808  33.063  31.736  14.935
38400W        W 4809   8.277   3.319   3.247
38401W        W 4810  20.106  10.284  14.469
38402W        W 4811  25.935  24.394  10.601
38403W        W 4812  19.661  27.113   0.409
38404W        W 4813  12.760  19.142  13.811
38405W        W 4814   9.859  36.708   1.689
38406W        W 4815  10.384  43.321  12.391
38407W        W 4816  29.388   7.161  10.699
38408W        W 4817   3.933  41.489  10.682
38409W        W 4818  23.765  26.998   2.133
38410W        W 4819   8.283  21.034  10.447
38411W        W 4820  38.576  33.976   3.596
38412W        W 4821  14.092  39.861   3.277
38413W        W 4822   6.737  12.497  13.612
38414W        W 4823  28.656  42.784  14.994
38415W        W 4824  26.446  27.506   4.152
38416W        W 4825  37.039  22.199   1.237
38417W        W 4826  30.010  32.840   3.206
38418W        W 4827  18.636  41.295  12.555
38419W        W 4828   2.558  34.813  12.924
38420W        W 4829  31.094   2.339   1.341
38421W        W 4830  25.405  19.048   0.968
38422W        W 4831  26.489   3.826  11.855
38423W        W 4832  40.274   0.164   5.112
38424W        W 4833  36.233  17.174   5.345
38425W        W 4834  30.062  20.823  10.798
38426W        W 4835  43.992   7.671  10.681
38427W        W 4836   2.825   7.457  10.828
38428W        W 4837  40.010  10.368   4.163
38429W        W 4838  35.514  23.023  13.151
38430W        W 4839  29.732  35.346   0.622
38431W        W 4840   1.475  19.193   2.115
38432W        W 4841  42.406   6.445   0.496
38433W        W 4842   7.375   3.652  11.454
38434W        W 4843  42.811  35.117  10.650
38435W        W 4844  20.956  16.097   3.155
38436W        W 4845   8.862  25.955   2.704
38437W        W 4846  35.185   3.724   4.812
38438W        W 4847  28.236  18.531   0.858
38439W        W 4848  20.061  23.252   4.669
38440W        W 4849  11.514   1.400   0.611
38441W        W 4850  35.084   0.928  14.457
38442W        W 4851  31.259   6.232  12.462
38443W        W 4852  31.154  32.216   5.248
38444W        W 4853  18.036  28.061  12.835
38445W        W 4854  31.975   8.792   0.411
38446W        W 4855  23.130   2.474  13.043
38447W        W 4856  40.137   8.839  12.464
38448W        W 4857   0.533   8.150  10.995
38449W        W 4858  34.210  23.761  13.787
38450W        W 4859  33.426  38.361   2.732
38451W        W 4860  11.885   6.812  11.943
38452W        W 4861  30.145  26.579   1.713
38453W        W 4862  11.302  41.402   2.392
38454W        W 4863  23.580  33.452   3.698
38455W        W 4864   6.710  42.561  11.402
38456W        W 4865  35.841  10.661  12.043
38457W        W 4866  12.937  38.993   0.838
38458W        W 4867  35.051  13.365  10.802
38459W        W 4868  26.179  44.128  12.087
38460W        W 4869   3.699  23.562   4.189
38461W        W 4870   5.727  10.890  10.935
38462W        W 4871  37.580  29.404   1.697
38463W        W 4872  31.657  26.712   1.033
38464W        W 4873  11.087  13.346   4.758
38465W        W 4874   3.881  44.046  13.366
38466W        W 4875   2.592  24.938  12.861
38467W        W 4876  34.610  18.803  14.544
38468W        W 4877  32.046  37.485   2.286
38469W        W 4878   2.739  17.490   1.813
38470W        W 4879  30.607  11.577   0.074
38471W        W 4880  13.382   1.474   1.809
38472W        W 4881  25.921   4.321   4.411
38473W        W 4882   0.227  42.425  10.367
38474W        W 4883   2.312   0.857   1.159
38475W        W 4884   4.954  15.438  12.548
38476W        W 4885  37.586  39.457  11.213
38477W        W 4886  39.332  12.357   3.218
38478W        W 4887  28.901  41.150   2.185
38479W        W 4888  31.501  12.729  10.773
38480W        W 4889  25.698  20.766   3.308
38481W        W 4890  21.723   3.712   4.381
38482W        W 4891  19.269  42.414   4.183
38483W        W 4892  43.282  18.347   0.796
38484W        W 4893  22.676  24.030   1.144
38485W        W 4894   6.384  29.516  13.160
38486W        W 4895  15.656  34.598   2.354
38487W        W 4896  36.942  41.393   3.825
38488W        W 4897   9.679  38.578   3.183
38489W        W 4898  24.120   0.794  12.819
38490W        W 4899   1.537  16.813   1.390
38491W        W 4900   4.311  15.205  14.311
38492W        W 4901   5.132  38.825   3.749
38493W        W 4902  14.770  25.668  11.512
38494W        W 4903  25.208   3.949  14.310
38495W        W 4904   4.247  10.453   2.875
38496W        W 4905   5.343  35.516  13.744
38497W        W 4906  17.595  36.628   0.368
38498W        W 4907  41.481  34.606   4.724
38499W        W 4908   9.414  44.265   2.253
38500W        W 4909  20.985   9.943   2.336
38501W        W 4910  11.449  44.533  10.829
38502W        W 4911  34.344  22.689  12.988
38503W        W 4912  29.504  40.975   2.377
38504W        W 4913   5.619  31.063  13.066
38505W        W 4914  30.936  40.090  13.547
38506W        W 4915  28.059  10.190  11.428
38507W        W 4916  43.427  28.038  12.786
38508W        W 4917  11.842   1.875   4.717
38509W        W 4918  18.094  42.126   3.072
38510W        W 4919  27.593  35.082  14.307
38511W        W 4920  13.520  37.869   1.824
38512W        W 4921   1.062   7.703   4.964
38513W        W 4922  12.780   6.327  10.803
38514W        W 4923   7.656  25.667   2.373
38515W        W 4924   7.817  25.602   0.490
38516W        W 4925   0.719   8.381   1.444
38517W        W 4926  42.092  10.694  13.173
38518W        W 4927  26.256   6.105  11.554
38519W        W 4928   6.911  29.661  12.905
38520W        W 4929   1.368  16.524   2.325
38521W        W 4930   5.827  16.391   0.780
38522W        W 4931  40.045  17.925  10.531
38523W        W 4932  22.542  28.993   2.387
38524W        W 4933  40.078   6.601   3.385
38525W        W 4934  16.756   3.297   0.941
38526W        W 4935  35.435  18.900  12.553
38527W        W 4936  42.038  16.572   1.302
38528W        W 4937  24.139  44.430   0.693
38529W        W 4938  20.618  31.326  10.588
38530W        W 4939  39.509  25.267   1.835
38531W        W 4940  41.431   6.554  12.956
38532W        W 4941  24.720   4.657   0.351
38533W        W 4942  35.945  31.308  10.696
38534W        W 4943  22.007  11.117  10.789
38535W        W 4944  22.128   2.916   3.466
38536W        W 4945   0.840  43.121  10.712
38537W        W 4946  29.172  19.590  14.477
38538W        W 4947   8.759  43.934  13.606
38539W        W 4948  24.333   9.650  11.591
38540W        W 4949  15.202   2.271  12.201
38541W        W 4950  30.433  18.751   0.890
38542W        W 4951  26.960  38.047   3.931
38543W        W 4952  13.395  25.419   4.665
38544W        W 4953  39.532   8.389  11.098
38545W        W 4954  22.689  31.244   3.903
38546W        W 4955  28.285  43.060  12.633
38547W        W 4956   6.753   5.246   2.614
38548W        W 4957   7.222   8.371   1.006
38549W        W 4958  41.215  38.604   2.879
38550W        W 4959  40.855  26.114   2.287
38551W        W 4960  12.730  43.249   0.931
38552W        W 4961  12.050  34.898  13.159
38553W        W 4962   2.455   4.739  13.405
38554W        W 4963  26.576   6.757   0.293
38555W        W 4964  31.237   6.802   2.357
38556W        W 4965  27.558  20.512   1.314
38557W        W 4966   5.883  40.033   3.715
38558W        W 4967  37.491  44.335  11.444
38559W        W 4968  38.580  11.652   0.025
38560W        W 4969  15.618  10.237  12.106
38561W        W 4970  43.661  29.039   1.806
38562W        W 4971  10.346   3.506   3.527
38563W        W 4972   4.325  35.134   0.961
38564W        W 4973  38.068  15.880  13.765
38565W        W 4974  25.051  31.091  10.687
38566W        W 4975  40.528   1.405   4.240
38567W        W 4976  12.153  27.935  14.614
38568W        W 4977   6.975   1.338  13.853
38569W        W 4978  15.060  35.819  10.689
38570W        W 4979  11.347  44.974   0.130
38571W        W 4980   7.752  20.491   1.848
38572W        W 4981  15.152  31.246   4.099
38573W        W 4982   9.380  34.855   1.772
38574W        W 4983  38.474  17.522   0.867
38575W        W 4984  22.513   3.904  12.566
38576W        W 4985  23.536   2.674   0.754
38577W        W 4986  25.000  11.857   3.005
38578W        W 4987   6.874  23.327   2.649
38579W        W 4988  40.516  19.565   2.879
38580W        W 4989  32.562  41.913  12.122
38581W        W 4990   5.268  29.609   2.290
38582W        W 4991  17.809  39.520  10.330
38583W        W 4992  17.016  34.420   3.221
38584W        W 4993  11.730  30.600  10.301
38585W        W 4994  34.576  12.601  10.534
38586W        W 4995   3.481  12.044   4.728
38587W        W 4996  32.427   8.935   4.041
38588W        W 4997  16.834  16.377   2.728
38589W        W 4998  23.426  21.599   3.210
38590W        W 4999  36.453  28.212  14.495
38591W        W 5000  42.987  23.470  11.103
38592W        W 5001  41.197   0.805   1.820
38593W        W 5002  19.651  44.448   4.946
38594W        W 5003  42.132  17.061   4.230
38595W        W 5004  10.181  36.879   2.761
38596W        W 5005  39.931  38.397  13.572
38597W        W 5006  34.963  26.609   3.762
38598W        W 5007   9.743  32.906   0.724
38599W        W 5008   7.623  26.624  14.101
38600W        W 5009  26.990   9.501  11.152
38601W        W 5010  19.342  13.724   2.619
38602W        W 5011  12.619  18.142   3.268
38603W        W 5012   0.348  40.826   4.760
38604W        W 5013   6.678  33.113   3.578
38605W        W 5014   5.167  11.369   4.737
38606W        W 5015  33.101  29.370  11.381
38607W        W 5016  34.043  34.515   4.971
38608W        W 5017  44.783  13.039  13.851
38609W        W 5018  15.146   4.124   3.210
38610W        W 5019  13.767  20.381  12.096
38611W        W 5020  44.358  41.835   2.108
38612W        W 5021   7.149  21.787   2.731
38613W        W 5022   1.158  37.095   0.439
38614W        W 5023  41.516  18.996   2.849
38615W        W 5024  35.174  29.150   2.834
38616W        W 5025   0.615  20.414  12.949
38617W        W 5026   6.419  20.500  13.958
38618W        W 5027  22.891   7.325  13.846
38619W        W 5028   7.378  23.505  14.971
38620W        W 5029  26.458   1.835   3.756
38621W        W 5030   6.162  17.702   0.341
38622W        W 5031  11.673  15.832  12.260
38623W        W 5032  22.424   0.386  14.462
38624W        W 5033  10.756  19.308   3.792
38625W        W 5034  24.724  38.589   4.399
38626W        W 5035   6.698  33.958   1.756
38627W        W 5036  16.494  35.976  10.476
38628W        W 5037   7.834  41.073  12.027
38629W        W 5038  41.917  42.017   0.728
38630W        W 5039   2.778  18.118  12.550
38631W        W 5040  10.463   3.695   3.061
38632W        W 5041  21.602   4.311   3.735
38633W        W 5042  42.489  25.911   3.828
38634W        W 5043   4.831  24.918  14.925
38635W        W 5044  20.180  39.215   0.583
38636W        W 5045   2.393  18.686  14.588
38637W        W 5046  40.323  11.328  13.218
38638W        W 5047  33.777  41.784   0.695
38639W        W 5048  29.227  11.221   3.521
38640W        W 5049  35.431  39.579   2.943
38641W        W 5050  21.722  21.107   0.520
38642W        W 5051   5.304   6.803   2.631
38643W        W 5052   5.001   2.416  10.666
38644W        W 5053  28.039  42.759  12.155
38645W        W 5054  13.360  22.613   1.638
38646W        W 5055  29.950  23.210   0.147
38647W        W 5056  20.560  34.440   3.097
38648W        W 5057  25.250  35.428  11.202
38649W        W 5058   3.493  22.892   0.133
38650W        W 5059  22.359  42.336   3.524
38651W        W 5060  12.377  13.593  13.359
38652W        W 5061  18.126  31.500  14.839
38653W        W 5062   1.906   7.302  13.377
38654W        W 5063  22.791   9.828  11.192
38655W        W 5064  28.162  28.439   1.910
38656W        W 5065   4.703  35.591  12.927
38657W        W 5066  41.302  40.420  10.515
38658W        W 5067  28.017  23.254  13.034
38659W        W 5068  18.763  28.512   4.130
38660W        W 5069  25.464  16.079  14.578
38661W        W 5070   0.386  28.921   4.941
38662W        W 5071  24.973  12.282  14.583
38663W        W 5072  14.059  41.537  11.656
38664W        W 5073  28.136  32.999  13.841
38665W        W 5074  33.006  16.489  11.089
38666W        W 5075  34.913  26.384   4.631
38667W        W 5076  18.990  17.566   0.846
38668W        W 5077  44.738  17.996  14.837
38669W        W 5078  26.984   0.528  11.420
38670W        W 5079  31.114  22.088   1.386
38671W        W 5080  30.567  13.383   4.143
38672W        W 5081   7.161   8.165  14.752
38673W        W 5082  34.985  27.044   0.346
38674W        W 5083  40.079  22.694  12.603
38675W        W 5084  11.821  44.774  13.493
38676W        W 5085  42.350  25.226  14.014
38677W        W 5086   1.380  18.625  12.459
38678W        W 5087  24.011  40.423  13.491
38679W        W 5088   4.799  35.702   2.941
38680W        W 5089  38.366   9.660  10.566
38681W        W 5090   2.225   5.942  11.505
38682W        W 5091   6.822  24.429  11.601
38683W        W 5092   7.347  43.774  13.738
38684W        W 5093  15.638  29.153  12.095
38685W        W 5094  13.551  36.032  10.710
38686W        W 5095  29.481  34.298  13.014
38687W        W 5096  37.126  37.816  10.765
38688W        W 5097   3.367  19.101  12.358
38689W        W 5098  33.350   5.744   1.416
38690W        W 5099  35.522  21.249  12.331
38691W        W 5100  24.282  24.979  14.867
38692W        W 5101  41.394  28.458   0.200
38693W        W 5102  23.235  25.966  13.251
38694W        W 5103  29.503   9.507  12.319
38695W        W 5104  18.592  20.509   2.685
38696W        W 5105  38.029  19.171   4.418
38697W        W 5106  30.419  42.420  12.091
38698W        W 5107  42.344  31.937   2.399
38699W        W 5108  42.792   1.717   0.393
38700W        W 5109  44.446  22.034   4.623
38701W        W 5110  20.518  10.597  14.480
38702W        W 5111   9.579  39.810   0.333
38703W        W 5112  12.379  20.550   2.685
38704W        W 5113   3.613   4.224   0.876
38705W        W 5114  39.374  17.888  11.349
38706W        W 5115  42.448  32.773  11.514
38707W        W 5116  35.012  21.924   1.316
38708W        W 5117  25.247  35.865   4.832
38709W        W 5118   1.195  23.103   3.216
38710W        W 5119  19.644   9.096  14.447
38711W        W 5120  27.202  42.580  13.905
38712W        W 5121  33.407  40.796   3.244
38713W        W 5122   8.819  18.055   4.633
38714W        W 5123   8.181  18.244  14.034
38715W        W 5124  24.537  37.444  11.299
38716W        W 5125  41.442  14.864   2.153
38717W        W 5126   2.186  14.058   0.945
38718W        W 5127  35.993   1.439  14.412
38719W        W 5128  32.732  29.768   2.697
38720W        W 5129  29.951  15.834   2.809
38721W        W 5130  14.358  13.272  14.408
38722W        W 5131   0.726  33.710  10.372
38723W        W 5132   4.873   8.390   2.226
38724W        W 5133   3.219   5.887  14.728
38725W        W 5134  26.278  31.034  14.319
38726W        W 5135  10.306  29.004   3.790
38727W        W 5136  44.914  12.726   2.848
38728W        W 5137  34.959  32.030   0.312
38729W        W 5138  23.486  35.826   0.781
38730W        W 5139   5.332  12.576   1.259
38731W        W 5140  32.624  39.134   3.193
38732W        W 5141  17.999  40.981  13.903
38733W        W 5142  24.039   1.273   0.761
38734W        W 5143  33.571  28.520  14.519
38735W        W 5144  14.844  23.149  10.669
38736W        W 5145  32.955  33.133   3.833
38737W        W 5146  10.647  40.996   0.794
38738W        W 5147   3.683  29.540   3.707
38739W        W 5148  44.650  20.443  13.324
38740W        W 5149  28.890  36.330   0.466
38741W        W 5150  42.846  21.771  12.477
38742W        W 5151  36.518  42.599   2.902
38743W        W 5152   5.241  19.090  13.867
38744W        W 5153  14.087  25.550  12.655
38745W        W 5154   9.926   4.350   3.779
38746W        W 5155  41.208  27.976   0.264
38747W        W 5156  10.004  25.683   1.508
38748W        W 5157  28.193   2.193   2.681
38749W        W 5158  11.293   1.438  11.942
38750W        W 5159  14.459  29.914  14.085
38751W        W 5160  42.911  22.430  12.962
38752W        W 5161  11.711  38.102  12.546
38753W        W 5162  21.826  25.446  12.524
38754W        W 5163  27.330  29.253  12.620
38755W        W 5164  33.102  42.904  12.434
38756W        W 5165   5.177  21.142  14.336
38757W        W 5166  28.619  20.202   4.067
38758W        W 5167  41.426  43.284  11.239
38759W        W 5168   6.194  17.901   3.667
38760W        W 5169  43.857   1.991   2.703
38761W        W 5170  34.618   0.403   4.058
38762W        W 5171  43.780  28.068   0.668
38763W        W 5172  23.271  28.110  11.954
38764W        W 5173  38.863  41.958  12.815
38765W        W 5174  25.208  27.092   3.710
38766W        W 5175   3.312  41.840   5.134
38767W        W 5176  38.726   4.229   0.347
38768W        W 5177   2.139  35.198  11.400
38769W        W 5178  25.323  12.344   0.859
38770W        W 5179  15.174   0.839   4.973
38771W        W 5180   5.838  27.429   1.351
38772W        W 5181  15.215  11.207   4.234
38773W        W 5182  40.474   0.116   0.949
38774W        W 5183  40.042  33.238  14.733
38775W        W 5184  41.395  21.115   3.444
38776W        W 5185   8.786  23.733   4.484
38777W        W 5186   6.608  12.048  10.831
38778W        W 5187  40.826  12.774   0.523
38779W        W 5188  20.802  17.560  11.904
38780W        W 5189   8.904  37.727   4.559
38781W        W 5190  39.448  23.977  13.964
38782W        W 5191  15.893  14.368   4.017
38783W        W 5192  26.785   1.356  12.605
38784W        W 5193  25.575  41.525   2.284
38785W        W 5194  44.992   7.911   1.243
38786W        W 5195   8.833  10.890  10.561
38787W        W 5196  30.136  22.598   0.418
38788W        W 5197  38.605   6.378  10.685
38789W        W 5198   7.612  39.626   1.705
38790W        W 5199  15.076  23.601  14.820
38791W        W 5200  24.399  10.785  12.011
38792W        W 5201  35.616  31.312  11.988
38793W        W 5202  13.119  37.569   0.211
38794W        W 5203   9.460  16.102  12.689
38795W        W 5204  22.099  27.694   3.165
38796W        W 5205  10.868  37.835   2.251
38797W        W 5206  25.776  18.701  12.403
38798W        W 5207  42.767  20.948  14.280
38799W        W 5208  19.562  10.818   4.687
38800W        W 5209   3.431  22.858   4.118
38801W        W 5210  34.373  20.679  12.839
38802W        W 5211  21.781   9.719   2.657
38803W        W 5212  10.918   4.203   0.114
38804W        W 5213  15.527  16.222   3.822
38805W        W 5214  12.586  39.380  12.074
38806W        W 5215  24.078  30.206  13.072
38807W        W 5216  18.037  21.156  11.589
38808W        W 5217  29.118   4.523  14.422
38809W        W 5218  29.162   0.326  12.925
38810W        W 5219  32.213  28.957   2.270
38811W        W 5220  24.156  18.917   3.322
38812W        W 5221  14.591  25.627   0.112
38813W        W 5222  31.438   3.846  14.530
38814W        W 5223   4.374  30.986  12.164
38815W        W 5224  20.107  36.996   4.472
38816W        W 5225  33.364   1.262   3.646
38817W        W 5226  26.832  31.926  13.366
38818W        W 5227   0.290   0.208   3.441
38819W        W 5228   6.847   4.201   4.809
38820W        W 5229  21.485  32.029  11.209
38821W        W 5230  33.147  12.917  12.025
38822W        W 5231  39.598  28.877   1.369
38823W        W 5232  43.044  19.860   0.347
38824W        W 5233   1.966  15.878   3.593
38825W        W 5234  31.467  20.590   1.114
38826W        W 5235  26.571   7.907  13.449
38827W        W 5236  33.877  39.754   2.716
38828W        W 5237  11.323   7.247   0.834
38829W        W 5238  26.570  29.255  13.452
38830W        W 5239  40.496  15.852   2.629
38831W        W 5240   7.443   6.681   1.438
38832W        W 5241  37.820  44.807  12.419
38833W        W 5242  24.920   2.786  10.676
38834W        W 5243  12.860  43.867  12.599
38835W        W 5244   0.978  22.016   0.154
38836W        W 5245  15.578  26.637   1.333
38837W        W 5246  31.368   1.382  12.049
38838W        W 5247  22.110  11.405   0.215
38839W        W 5248   5.385  41.030   1.719
38840W        W 5249   7.486   1.521  14.490
38841W        W 5250  35.579  12.070   4.116
38842W        W 5251  41.436  12.096   0.021
38843W        W 5252  38.277   9.307   0.786
38844W        W 5253  25.065  38.356   3.095
38845W        W 5254   5.769  10.077   0.744
38846W        W 5255  38.856  27.646  12.150
38847W        W 5256  22.699  36.055   1.234
38848W        W 5257  14.430   5.542  10.874
38849W        W 5258  39.876  29.003  13.519
38850W        W 5259  20.164  16.071   2.771
38851W        W 5260  42.337  34.827  10.723
38852W        W 5261  22.270  17.232   1.784
38853W        W 5262  31.547  43.409  12.084
38854W        W 5263   7.518  39.589  11.656
38855W        W 5264   8.774   2.731  10.953
38856W        W 5265  26.613   7.417  14.543
38857W        W 5266  12.902  44.990   0.505
38858W        W 5267  20.648  20.101   0.141
38859W        W 5268  42.812   3.417  14.804
38860W        W 5269   0.929  17.411  11.811
38861W        W 5270   8.049  26.572  13.302
38862W        W 5271  21.482  18.100   0.007
38863W        W 5272  44.515  22.702  12.236
38864W        W 5273  41.902  22.018  11.330
38865W        W 5274  23.856  32.332  14.263
38866W        W 5275  12.794  36.596  13.420
38867W        W 5276  24.194  17.112   3.183
38868W        W 5277  17.048  33.418   1.069
38869W        W 5278   2.328  28.017   0.929
38870W        W 5279   0.686  43.876  12.003
38871W        W 5280   9.450  37.715  12.449
38872W        W 5281  40.866  42.384   4.623
38873W        W 5282  33.082  17.107   3.713
38874W        W 5283  39.852  23.504   0.476
38875W        W 5284   9.173   3.292   4.101
38876W        W 5285  38.473  40.034  10.539
38877W        W 5286  33.581  42.319   1.931
38878W        W 5287  33.519  26.782  11.024
38879W        W 5288   7.342   0.967  10.917
38880W        W 5289  17.839  10.684   0.951
38881W        W 5290   2.904  42.470  10.652
38882W        W 5291  30.034   2.806  12.861
38883W        W 5292   1.909  15.648   0.625
38884W        W 5293  22.570   3.483  13.488
38885W        W 5294  15.081  19.020  11.174
38886W        W 5295  33.407   6.303   4.333
38887W        W 5296  37.223  39.345  13.076
38888W        W 5297   5.002  30.042  11.085
38889W        W 5298   3.029  33.065   4.684
38890W        W 5299  12.805   6.918   2.851
38891W        W 5300  14.670   9.283   1.279
38892W        W 5301  17.502  22.696   1.933
38893W        W 5302  40.293  34.618   1.036
38894W        W 5303  10.961  18.326  12.363
38895W        W 5304  10.783  21.699   2.168
38896W        W 5305   0.286  23.278  13.910
38897W        W 5306  18.776  16.841  10.986
38898W        W 5307  13.346   6.341   1.090
38899W        W 5308  14.405  14.007   1.814
38900W        W 5309   1.809  25.442  13.015
38901W        W 5310  21.282  22.702  10.106
38902W        W 5311  35.492  13.252  14.946
38903W        W 5312  38.268  29.441  12.069
38904W        W 5313  37.411  14.323   0.831
38905W        W 5314  44.030  41.709  13.088
38906W        W 5315  41.937  10.790   3.648
38907W        W 5316   1.892  43.199  11.534
38908W        W 5317  15.902  14.311   1.707
38909W        W 5318  36.603  34.533   0.911
38910W        W 5319  38.756  41.168  11.491
38911W        W 5320  12.711  29.162   2.364
38912W        W 5321  37.236  34.451   0.260
38913W        W 5322  19.616  26.954  14.809
38914W        W 5323  31.133  24.771   0.228
38915W        W 5324   2.995  10.008   0.317
38916W        W 5325  30.394  33.594   2.913
38917W        W 5326  31.774  42.812  13.059
38918W        W 5327  12.218  20.630  12.906
38919W        W 5328   2.251  19.366  11.906
38920W        W 5329   4.752   5.439   0.381
38921W        W 5330  44.021  34.060   1.956
38922W        W 5331  14.908  33.543   4.128
38923W        W 5332   6.062  10.141  13.312
38924W        W 5333  17.787  24.774   1.787
38925W        W 5334  15.143   7.543  13.389
38926W        W 5335  36.082  30.119  13.583
38927W        W 5336  18.479  26.926  14.274
38928W        W 5337  44.109  16.708  13.939
38929W        W 5338  12.367  30.120  10.743
38930W        W 5339  22.602  41.783   0.255
38931W        W 5340  24.526   8.925  14.766
38932W        W 5341  24.563  17.494  14.500
38933W        W 5342  25.109  14.629   0.671
38934W        W 5343  35.760  44.253   1.860
38935W        W 5344   0.049  18.848   1.156
38936W        W 5345  31.369   6.199   4.823
38937W        W 5346  28.465   6.846  14.030
38938W        W 5347  16.285  36.447  10.715
38939W        W 5348   3.966   8.953  12.032
38940W        W 5349  29.693   1.539  12.370
38941W        W 5350   6.958  27.635  14.908
38942W        W 5351  13.391  24.632  14.968
38943W        W 5352  20.521  15.111   2.886
38944W        W 5353  32.129  39.047   3.957
38945W        W 5354  40.934  39.232  12.381
38946W        W 5355  18.170   0.646  14.865
38947W        W 5356  44.026  30.501  11.662
38948W        W 5357  35.073  15.006  13.796
38949W        W 5358  24.662  17.522  13.585
38950W        W 5359  19.701  44.794   1.713
38951W        W 5360  25.445  39.086  11.526
38952W        W 5361  35.539  31.563   0.995
38953W        W 5362  32.184  38.181  11.405
38954W        W 5363  19.077  33.317   4.063
38955W        W 5364  27.105  13.567  11.655
38956W        W 5365   7.890  26.545   2.853
38957W        W 5366  11.499  13.098   4.482
38958W        W 5367  32.642  25.517  10.477
38959W        W 5368  37.072  20.853  14.834
38960W        W 5369  18.575   5.345  13.018
38961W        W 5370  40.884  19.718   1.727
38962W        W 5371  26.098  44.235  11.554
38963W        W 5372   1.709  27.404   2.806
38964W        W 5373  15.322  35.040   0.195
38965W        W 5374  14.351  25.487  13.099
38966W        W 5375   7.161   3.470  10.707
38967W        W 5376  19.854  11.457  12.678
38968W        W 5377  28.527  43.924  12.540
38969W        W 5378  42.290  18.697   1.842
38970W        W 5379  43.066  40.285  14.307
38971W        W 5380   5.973  19.379   3.624
38972W        W 5381  44.757  19.247   2.122
38973W        W 5382   9.790  22.385   2.957
38974W        W 5383  23.258  37.393   2.317
38975W        W 5384  36.449  31.072  13.993
38976W        W 5385  20.084  13.443  11.028
38977W        W 5386   3.890  17.524   3.158
38978W        W 5387  26.962  19.662   4.466
38979W        W 5388  32.780  28.598  12.874
38980W        W 5389  28.461  44.393   3.300
38981W        W 5390   9.640  13.881  14.355
38982W        W 5391  31.474  10.193   3.820
38983W        W 5392  22.259  43.942   2.281
38984W        W 5393  29.044  28.194  13.562
38985W        W 5394   0.194  25.955   0.665
38986W        W 5395  23.547  42.565   1.446
38987W        W 5396  16.279   3.524   0.884
38988W        W 5397  25.149  42.748  11.848
38989W        W 5398  16.576  26.103   3.680
38990W        W 5399   5.673  27.430   3.477
38991W        W 5400  39.028  42.060   3.738
38992W        W 5401  11.061  18.124  10.878
38993W        W 5402  29.351  19.165  14.838
38994W        W 5403  42.636  38.918   4.986
38995W        W 5404  15.158  16.122   2.733
38996W        W 5405   2.935  38.331  12.919
38997W        W 5406  15.537  27.094  10.742
38998W        W 5407  23.006  12.787  13.488
38999W        W 5408  19.539  28.470  12.170
39000W        W 5409  20.556  28.822   4.894
39001W        W 5410  44.501   0.895   0.217
39002W        W 5411  19.347  15.605   2.921
39003W        W 5412  20.144  32.881  11.481
39004W        W 5413  26.139  39.692   2.227
39005W        W 5414  34.574  22.926   2.051
39006W        W 5415  25.638  36.318   1.334
39007W        W 5416  12.087  38.346  13.865
39008W        W 5417  12.078  23.146  13.922
39009W        W 5418  23.163  40.544  13.844
39010W        W 5419  17.391  17.058  12.481
39011W        W 5420   5.874  40.637   2.901
39012W        W 5421   3.344  44.334   1.778
39013W        W 5422  21.306  44.964   0.834
39014W        W 5423  33.507  28.710   4.963
39015W        W 5424   3.657  19.140   3.670
39016W        W 5425  37.625   6.627   0.573
39017W        W 5426   8.592  36.688  13.400
39018W        W 5427  29.138   2.462  11.663
39019W        W 5428   7.340  39.518  13.078
39020W        W 5429  26.603   0.050   4.195
39021W        W 5430  25.171  31.137   0.404
39022W        W 5431   8.770   6.654   3.177
39023W        W 5432  12.915  21.599  12.304
39024W        W 5433  24.024  14.238   5.095
39025W        W 5434   0.084  33.432   4.190
39026W        W 5435  37.220  19.540   4.107
39027W        W 5436  40.017   7.577  12.949
39028W        W 5437  39.355  18.109  12.911
39029W        W 5438  22.239  12.894  13.977
39030W        W 5439  44.532  34.818   0.643
39031W        W 5440  43.935   3.019  14.103
39032W        W 5441  10.218  33.984  13.934
39033W        W 5442  21.079  10.756  12.943
39034W        W 5443  42.196   6.779  14.770
39035W        W 5444  15.972  13.686   0.988
39036W        W 5445   6.877  13.237   1.699
39037W        W 5446   5.633  18.757  13.857
39038W        W 5447  10.164  30.979  10.238
39039W        W 5448  20.027  18.526   1.060
39040W        W 5449  28.265  26.968   2.876
39041W        W 5450  17.853  43.964  12.537
39042W        W 5451  43.867  29.539   1.717
39043W        W 5452  32.022  38.282   4.711
39044W        W 5453  15.288  35.937   2.219
39045W        W 5454   9.781  15.829   1.357
39046W        W 5455  31.043  41.580  12.877
39047W        W 5456  33.920   5.929   3.603
39048W        W 5457   4.918   8.023   4.186
39049W        W 5458   9.827   0.273  11.350
39050W        W 5459  25.313  15.814   0.002
39051W        W 5460  32.132   5.568   4.084
39052W        W 5461  38.803  34.803   5.039
39053W        W 5462  15.127   0.673   5.480
39054W        W 5463  41.998   7.367  12.488
39055W        W 5464  41.961   2.710   1.239
39056W        W 5465   7.347  20.762  11.516
39057W        W 5466  34.943  14.121   4.538
39058W        W 5467  39.467  19.119   5.711
39059W        W 5468  42.955   0.967   2.172
39060W        W 5469   8.802  10.223   2.401
39061W        W 5470  15.155  10.016   3.234
39062W        W 5471  20.967  11.253   4.618
39063W        W 5472   1.696  42.293  14.789
39064W        W 5473  32.586  39.453  13.500
39065W        W 5474  26.392  24.157   0.935
39066W        W 5475  29.687  22.783  13.016
39067W        W 5476  43.435  14.776  13.398
39068W        W 5477  28.065  30.516   1.193
39069W        W 5478  38.531  29.484   2.635
39070W        W 5479   4.134  12.283   3.594
39071W        W 5480  14.242  39.568   0.782
39072W        W 5481  30.854   0.453   4.439
39073W        W 5482  23.531  44.613   3.304
39074W        W 5483  41.472  35.938   1.623
39075W        W 5484   1.143   1.107  11.941
39076W        W 5485  44.121  42.962   0.015
39077W        W 5486  35.388  26.461  12.962
39078W        W 5487  39.069  23.256   4.653
39079W        W 5488  12.287  27.689  10.497
39080W        W 5489  14.606  16.442  13.645
39081W        W 5490   9.038  32.727   1.663
39082W        W 5491   5.190  28.542   4.385
39083W        W 5492  35.877  22.573   4.092
39084W        W 5493  13.298  36.409   2.832
39085W        W 5494  31.225  23.294   4.193
39086W        W 5495  18.113  44.762   0.718
39087W        W 5496  28.408  34.814   3.733
39088W        W 5497   3.982   8.921   0.456
39089W        W 5498  30.684   9.172  10.340
39090W        W 5499  13.170  35.553   1.237
39091W        W 5500   8.428  30.016  13.980
39092W        W 5501  37.859  15.647  12.818
39093W        W 5502   0.960  28.502  12.838
39094W        W 5503  37.883   4.960  12.951
39095W        W 5504  20.129  10.688  14.811
39096W        W 5505  32.103  36.259  12.935
39097W        W 5506  31.302  32.000   4.573
39098W        W 5507  27.233  40.775  11.520
39099W        W 5508  15.259  26.851   3.293
39100W        W 5509  19.631   3.697   2.123
39101W        W 5510  10.531  32.031  13.290
39102W        W 5511  39.354  41.316  11.140
39103W        W 5512  43.823  19.636   3.951
39104W        W 5513  27.121  17.097  13.972
39105W        W 5514   6.826  26.642  11.512
39106W        W 5515  23.168  13.462  13.919
39107W        W 5516  41.193   6.843  12.575
39108W        W 5517   2.393  40.964   4.572
39109W        W 5518  20.414  12.682   0.979
39110W        W 5519  25.440  35.259   2.901
39111W        W 5520  18.965  15.670   3.271
39112W        W 5521  29.000  10.262  13.878
39113W        W 5522  17.630  10.371  14.296
39114W        W 5523  33.950  22.093  11.502
39115W        W 5524  43.504  17.964   5.137
39116W        W 5525  24.939  14.674  12.975
39117W        W 5526  44.396   6.108  14.836
39118W        W 5527  25.133  23.553   3.555
39119W        W 5528  33.097  30.881   0.073
39120W        W 5529  31.140  13.765   2.583
39121W        W 5530   4.544  12.908  12.603
39122W        W 5531  24.194  28.905  14.856
39123W        W 5532   4.285  18.322   3.411
39124W        W 5533  11.376  14.160   1.268
39125W        W 5534  28.430  43.414  11.519
39126W        W 5535  19.301  41.050   2.968
39127W        W 5536  21.284  40.250   4.161
39128W        W 5537   1.505  32.347   2.149
39129W        W 5538  35.350  35.416   1.253
39130W        W 5539   6.267   6.288  12.932
39131W        W 5540  10.211  34.382   1.839
39132W        W 5541   1.938  11.439   4.551
39133W        W 5542  20.223  35.180  12.558
39134W        W 5543  19.751  16.610  11.098
39135W        W 5544  17.280   1.663  13.999
39136W        W 5545  10.205  39.002   0.373
39137W        W 5546  30.721   8.036   5.135
39138W        W 5547  24.342  15.361  10.601
39139W        W 5548  28.120  13.236  10.123
39140W        W 5549  34.845  24.018  13.004
39141W        W 5550   1.429  11.279   4.587
39142W        W 5551  42.423  10.197   0.681
39143W        W 5552  15.708   7.190  11.448
39144W        W 5553   0.237   8.155  14.316
39145W        W 5554  31.790  39.999   4.229
39146W        W 5555  32.422  17.955  13.589
39147W        W 5556  42.748  14.194   3.166
39148W        W 5557  43.045   8.993   2.728
39149W        W 5558   2.940  37.890   1.943
39150W        W 5559  32.976  41.986  14.478
39151W        W 5560  15.197  43.203   3.578
39152W        W 5561  10.365  41.857  12.232
39153W        W 5562  14.441  25.811   3.596
39154W        W 5563   4.739  14.972  13.458
39155W        W 5564   5.353  24.280   0.928
39156W        W 5565  37.832   2.040  10.615
39157W        W 5566  37.363  36.382   1.957
39158W        W 5567   4.452  34.834   0.469
39159W        W 5568   3.215  14.330  10.782
39160W        W 5569   0.877   1.250   3.259
39161W        W 5570  19.563  28.645  14.418
39162W        W 5571  31.058  38.215  10.502
39163W        W 5572  31.896  35.132  14.825
39164W        W 5573  33.684  14.037  13.863
39165W        W 5574   6.931   9.433  14.901
39166W        W 5575  42.815  39.390  13.887
39167W        W 5576  27.991  20.769   1.238
39168W        W 5577  42.193  16.753   4.644
39169W        W 5578  42.726  14.624   1.812
39170W        W 5579  19.024  35.399   2.876
39171W        W 5580  36.146  19.328   5.071
39172W        W 5581   7.669  25.153   3.318
39173W        W 5582  23.036  13.142   3.141
39174W        W 5583   6.145   5.883   1.629
39175W        W 5584  32.612  22.309  12.489
39176W        W 5585  30.371  39.062  12.922
39177W        W 5586  29.723  24.217   3.009
39178W        W 5587  23.782  36.342   1.718
39179W        W 5588  39.461  19.076  14.343
39180W        W 5589  22.090  41.783   0.278
39181W        W 5590   8.370   5.470  14.994
39182W        W 5591  14.257   4.483  10.408
39183W        W 5592   6.412  11.623   0.820
39184W        W 5593   7.185  27.236  12.901
39185W        W 5594  16.893   7.509   2.320
39186W        W 5595  44.332   7.302   0.975
39187W        W 5596  27.526   3.753   2.990
39188W        W 5597   2.245  29.578  12.523
39189W        W 5598  28.602   7.652   4.276
39190W        W 5599  20.577   0.740   1.874
39191W        W 5600  26.770   2.576   4.313
39192W        W 5601  16.248   4.266  11.554
39193W        W 5602  16.975   7.183   4.011
39194W        W 5603  21.703   5.823   0.814
39195W        W 5604  16.869  31.037   1.575
39196W        W 5605  23.512   5.142   0.938
39197W        W 5606  35.416  31.460  11.193
39198W        W 5607   1.442  39.918  12.616
39199W        W 5608  14.396   3.139   4.606
39200W        W 5609  13.156  35.763  14.357
39201W        W 5610  12.209  22.690   0.620
39202W        W 5611  29.523   0.241   5.033
39203W        W 5612  40.236  15.769  14.007
39204W        W 5613  36.418  31.706   0.807
39205W        W 5614   2.080  16.283   4.530
39206W        W 5615  18.675  27.582  10.409
39207W        W 5616  16.064  27.950   4.121
39208W        W 5617  36.534  20.653   3.149
39209W        W 5618  36.294  25.937   2.168
39210W        W 5619  18.133   4.450   0.772
39211W        W 5620  28.084  24.534   2.239
39212W        W 5621  11.731  22.759  10.393
39213W        W 5622   0.871  24.276   2.401
39214W        W 5623   6.875  34.862   0.859
39215W        W 5624   4.266   4.858  14.239
39216W        W 5625   7.949  14.277   2.398
39217W        W 5626  41.815  28.203  11.225
39218W        W 5627   2.812  34.372   4.590
39219W        W 5628   2.343  19.090  14.284
39220W        W 5629  22.199  39.335   4.143
39221W        W 5630   8.779  34.832   4.421
39222W        W 5631  22.994  35.915  14.910
39223W        W 5632  39.382   4.911   0.971
39224W        W 5633   7.424  29.618  12.834
39225W        W 5634  10.385  42.102   4.840
39226W        W 5635  20.499  13.344   1.827
39227W        W 5636   2.945  36.102   4.382
39228W        W 5637   6.836  36.606  10.715
39229W        W 5638   1.338  36.466  13.516
39230W        W 5639  15.916   3.667   3.216
39231W        W 5640  22.247  23.974  12.409
39232W        W 5641  19.572  34.633   3.728
39233W        W 5642  33.991  17.512   2.638
39234W        W 5643  42.272  31.438   3.163
39235W        W 5644   2.756  37.515   3.220
39236W        W 5645  15.071  16.297   4.040
39237W        W 5646  27.241  35.066  10.487
39238W        W 5647  33.368  20.812  14.851
39239W        W 5648  22.660   0.943   1.041
39240W        W 5649  35.475  43.239   1.231
39241W        W 5650  31.962  39.016   3.454
39242W        W 5651  26.383  15.182   1.345
39243W        W 5652  30.701   7.152  13.520
39244W        W 5653  15.736   6.240  11.292
39245W        W 5654   4.916  13.468   4.067
39246W        W 5655   4.854  40.550   2.171
39247W        W 5656   2.514  30.149   3.261
39248W        W 5657  31.881  22.499  13.888
39249W        W 5658   5.306   7.207   4.174
39250W        W 5659  39.829   9.565  13.000
39251W        W 5660  33.356  26.973  14.409
39252W        W 5661   1.708  15.739  14.274
39253W        W 5662  19.842  20.516  12.367
39254W        W 5663  11.463  31.124  10.776
39255W        W 5664   6.376  26.934   2.662
39256W        W 5665  42.757  42.835  12.513
39257W        W 5666  10.338   4.245   0.137
39258W        W 5667  35.811  30.810  10.776
39259W        W 5668  14.012  21.966  13.525
39260W        W 5669   2.859  12.371  11.030
39261W        W 5670  12.414  21.773  14.359
39262W        W 5671  14.065   5.081  12.568
39263W        W 5672   2.314  21.181   3.304
39264W        W 5673   0.754  11.621   0.752
39265W        W 5674  38.051  35.914   4.178
39266W        W 5675  22.237  11.677  13.469
39267W        W 5676   8.303  28.511  14.514
39268W        W 5677   6.355  26.153   1.045
39269W        W 5678   7.286  20.066  10.983
39270W        W 5679   7.997   4.402   0.930
39271W        W 5680  11.908   9.627  14.832
39272W        W 5681   3.233  17.814  11.364
39273W        W 5682   5.484  39.722   3.574
39274W        W 5683  23.493  38.017   3.282
39275W        W 5684  24.532  16.615   0.435
39276W        W 5685  34.783  24.743   2.401
39277W        W 5686  36.382   1.737  12.862
39278W        W 5687  20.213  31.479   4.152
39279W        W 5688  37.213  23.165  13.418
39280W        W 5689   9.585  23.202   4.905
39281W        W 5690  41.012   4.946  13.375
39282W        W 5691  12.837  22.759   0.898
39283W        W 5692   9.663   2.013  14.945
39284W        W 5693  39.963   2.934  11.033
39285W        W 5694  33.508  36.086   2.340
39286W        W 5695  35.731  36.334  12.068
39287W        W 5696  33.961  10.890   2.878
39288W        W 5697  25.136  35.417   0.974
39289W        W 5698   9.196  40.183  14.323
39290W        W 5699  41.056  34.630   2.140
39291W        W 5700  14.987  28.237   0.928
39292W        W 5701   6.620   1.801   4.150
39293W        W 5702  32.014  16.828   2.793
39294W        W 5703   2.459  20.097  10.733
39295W        W 5704  44.448  41.600   2.911
39296W        W 5705   3.714   0.256   3.835
39297W        W 5706  36.339   4.952  14.418
39298W        W 5707  19.086  15.090   0.785
39299W        W 5708  11.721   9.901   2.346
39300W        W 5709   7.754  28.557   2.205
39301W        W 5710  33.197  13.988  14.036
39302W        W 5711  20.247  33.898  13.933
39303W        W 5712  41.256  35.485   1.808
39304W        W 5713  14.731  10.293   2.144
39305W        W 5714  42.218  34.773  14.439
39306W        W 5715  15.319  20.189   1.767
39307W        W 5716  42.840  25.997  13.292
39308W        W 5717  28.323  29.894  12.919
39309W        W 5718  44.932  32.139  10.968
39310W        W 5719   0.904  43.723   3.628
39311W        W 5720  37.536  27.450   0.894
39312W        W 5721  37.329  25.270   0.411
39313W        W 5722   6.218  41.457   2.559
39314W        W 5723  25.067   3.589   4.453
39315W        W 5724  27.715  22.244  13.572
39316W        W 5725  20.054  36.516   1.580
39317W        W 5726  39.245  27.452   4.929
39318W        W 5727   8.169  17.874  12.984
39319W        W 5728  31.718   3.806   3.514
39320W        W 5729  30.903  37.293  10.329
39321W        W 5730  28.067  20.515   1.719
39322W        W 5731  20.918   2.370  10.735
39323W        W 5732  25.660   5.654   4.534
39324W        W 5733   4.245  25.443  10.770
39325W        W 5734  25.785  40.618   4.916
39326W        W 5735  17.617  24.521  13.551
39327W        W 5736  39.453  14.125  12.016
39328W        W 5737  21.762  19.365   3.641
39329W        W 5738  23.058  44.057  11.514
39330W        W 5739  33.445  10.397  13.918
39331W        W 5740  33.058  31.020   4.082
39332W        W 5741  16.913  23.997  12.882
39333W        W 5742  40.394  15.442  12.786
39334W        W 5743  29.916  33.037   0.110
39335W        W 5744  38.510  17.607  14.073
39336W        W 5745  33.319  18.652  11.718
39337W        W 5746  40.406  30.647  11.079
39338W        W 5747  36.887  36.564  12.920
39339W        W 5748  13.699   1.877   4.072
39340W        W 5749  15.621  18.772  13.417
39341W        W 5750  23.722  20.119  10.407
39342W        W 5751  44.446  25.736  11.747
39343W        W 5752  18.733  20.590   1.381
39344W        W 5753   2.428   2.563   4.735
39345W        W 5754  30.635  32.342  14.866
39346W        W 5755  11.189   1.559  11.444
39347W        W 5756   7.843  31.711   2.325
39348W        W 5757  29.029  13.490  14.650
39349W        W 5758  40.489  35.549   2.317
39350W        W 5759  37.011  20.479  13.062
39351W        W 5760  31.686   8.583  13.412
39352W        W 5761  25.216  27.068   0.941
39353W        W 5762  23.330  17.776  14.874
39354W        W 5763  28.972   4.005  11.620
39355W        W 5764  27.747  35.473   3.891
39356W        W 5765  18.739   9.464  11.659
39357W        W 5766  11.874   6.313  14.771
39358W        W 5767  41.841  28.807   0.854
39359W        W 5768  24.617  41.610  14.259
39360W        W 5769  27.599   4.855   0.736
39361W        W 5770   8.435  21.523  12.082
39362W        W 5771  29.709  37.101   2.481
39363W        W 5772  22.507  40.312   1.630
39364W        W 5773  18.732   1.794  11.980
39365W        W 5774  41.986  35.010   1.935
39366W        W 5775  19.803   8.798   4.549
39367W        W 5776   0.734  17.160  14.836
39368W        W 5777  22.416  10.436   5.230
39369W        W 5778   7.300  26.255  12.826
39370W        W 5779  26.261   4.747   1.405
39371W        W 5780   5.388  21.587   3.397
39372W        W 5781  32.166   2.503   2.075
39373W        W 5782  26.985  42.555   3.352
39374W        W 5783  26.590  40.432  10.848
39375W        W 5784  20.967  28.513  14.749
39376W        W 5785  15.873  34.395  14.895
39377W        W 5786  10.412  36.407  11.394
39378W        W 5787  23.817  31.920  12.910
39379W        W 5788  33.129  33.139   4.845
39380W        W 5789  38.448  44.395   4.738
39381W        W 5790  17.172   7.626   1.896
39382W        W 5791  14.184  33.130   0.793
39383W        W 5792  20.165   0.963   2.628
39384W        W 5793  10.691  37.128  12.545
39385W        W 5794  27.896  32.014   3.268
39386W        W 5795   5.426  26.068  13.129
39387W        W 5796   7.884  43.309  14.866
39388W        W 5797   7.076   1.714  14.202
39389W        W 5798   8.738   6.758  10.680
39390W        W 5799  24.949  36.833   0.527
39391W        W 5800  22.203  43.856   0.787
39392W        W 5801   4.764   9.794   1.965
39393W        W 5802   2.336  42.499   0.611
39394W        W 5803  23.268  24.669  12.378
39395W        W 5804   0.255  11.432   2.097
39396W        W 5805  20.521  34.896  14.423
39397W        W 5806  36.335  44.810   2.262
39398W        W 5807  39.545  19.451  10.765
39399W        W 5808  27.850   5.272  14.750
39400W        W 5809   2.498  37.108  12.594
39401W        W 5810  24.697  17.588   4.622
39402W        W 5811  20.840   5.419   4.174
39403W        W 5812   5.029  43.862   1.583
39404W        W 5813  29.035  24.501  14.990
39405W        W 5814  35.364  40.087  14.518
39406W        W 5815  25.880  38.506  12.020
39407W        W 5816  14.038  28.940  11.982
39408W        W 5817  39.237  30.088  11.647
39409W        W 5818  38.290  18.292   3.121
39410W        W 5819  22.286  22.800   0.974
39411W        W 5820  12.312  33.048  13.833
39412W        W 5821  26.019  33.941  10.856
39413W        W 5822  29.778  43.957  13.062
39414W        W 5823  12.259   6.298   1.867
39415W        W 5824  10.336  32.630   1.503
39416W        W 5825   4.381  32.324  11.951
39417W        W 5826  14.139  41.834   1.251
39418W        W 5827  42.429  42.868   4.606
39419W        W 5828  42.151  13.659  13.070
39420W        W 5829   2.680  40.529   4.652
39421W        W 5830  31.375   4.941  11.277
39422W        W 5831  21.539   9.264   2.807
39423W        W 5832  34.924  43.394  13.507
39424W        W 5833  17.761  22.158   1.623
39425W        W 5834   3.140   7.149  12.971
39426W        W 5835  30.411  39.313  12.449
39427W        W 5836   8.207  16.509   4.350
39428W        W 5837  22.738  19.342   0.130
39429W        W 5838   9.760  10.804   0.289
39430W        W 5839  39.066  40.224  14.582
39431W        W 5840   6.692  24.935   1.469
39432W        W 5841  32.216   1.002   0.465
39433W        W 5842   1.282  35.969   1.747
39434W        W 5843   5.913  30.876  11.407
39435W        W 5844   2.333  12.652   4.309
39436W        W 5845  18.287  28.288  14.330
39437W        W 5846  32.597  12.277   3.325
39438W        W 5847  26.814  34.954   4.119
39439W        W 5848  27.004  19.467  14.321
39440W        W 5849  26.705  43.354   1.917
39441W        W 5850  43.550   5.808  13.424
39442W        W 5851  37.090   7.899  11.136
39443W        W 5852  23.197  43.771   0.876
39444W        W 5853   3.656  32.745  11.600
39445W        W 5854  43.275   4.235  10.709
39446W        W 5855   4.416  11.846   4.366
39447W        W 5856  34.493  10.177   0.368
39448W        W 5857  16.359  21.338  12.601
39449W        W 5858  34.965  17.277   4.557
39450W        W 5859   1.884  33.709  12.698
39451W        W 5860   2.771  33.985  14.385
39452W        W 5861  13.319  16.223   2.830
39453W        W 5862  37.498  22.312  14.976
39454W        W 5863  18.633  27.685  14.936
39455W        W 5864  28.691  43.999  14.889
39456W        W 5865   2.718  11.648   3.239
39457W        W 5866  39.266  12.688   0.509
39458W        W 5867  25.088  38.974   1.460
39459W        W 5868  19.343  40.045  12.457
39460W        W 5869  10.236  31.309   3.985
39461W        W 5870  39.839  20.587  11.326
39462W        W 5871  25.512  17.833  12.745
39463W        W 5872   8.181  29.037   9.920
39464W        W 5873   0.807  34.096   0.907
39465W        W 5874  34.027   6.974   0.653
39466W        W 5875  44.261  36.500  10.694
39467W        W 5876  21.778   0.608  10.736
39468W        W 5877   0.030  43.505   2.603
39469W        W 5878  42.810  39.410   0.846
39470W        W 5879  31.059   8.505   0.987
39471W        W 5880  44.574  18.397   4.536
39472W        W 5881  41.266  27.275  12.860
39473W        W 5882  28.193   2.776  12.221
39474W        W 5883  43.240   8.177   4.971
39475W        W 5884  28.030   3.703   0.510
39476W        W 5885   0.950  32.029  11.267
39477W        W 5886  11.280  34.355   3.024
39478W        W 5887   1.365  38.306  10.687
39479W        W 5888  29.384   9.511  14.521
39480W        W 5889   0.959  16.781   2.807
39481W        W 5890  44.110  24.486   4.572
39482W        W 5891  34.691   4.822   1.752
39483W        W 5892  37.084  30.221   4.631
39484W        W 5893  16.196   1.561  11.125
39485W        W 5894  33.538  17.150   0.937
39486W        W 5895  43.714  18.257  14.736
39487W        W 5896  30.538  20.693   4.560
39488W        W 5897   3.856   7.228   0.483
39489W        W 5898  15.569  31.399  13.923
39490W        W 5899  16.057  31.522  10.748
39491W        W 5900   3.840   2.789  14.518
39492W        W 5901  10.591  29.979   4.521
39493W        W 5902  24.596  33.646  11.002
39494W        W 5903  31.172  13.702   4.949
39495W        W 5904  32.664   2.374  13.910
39496W        W 5905  40.046  19.698   2.245
39497W        W 5906  25.086  11.701  14.508
39498W        W 5907   2.561  12.906   3.918
39499W        W 5908  37.021   6.959   1.204
39500W        W 5909   3.335  21.088  13.393
39501W        W 5910  40.108  20.286   2.825
39502W        W 5911  41.436   7.799   4.387
39503W        W 5912   9.311  40.587  14.612
39504W        W 5913  12.529  19.923   4.072
39505W        W 5914   1.754  30.429   2.875
39506W        W 5915  10.298  37.824   5.037
39507W        W 5916  33.040  36.621   1.067
39508W        W 5917   5.619  13.701  12.786
39509W        W 5918  39.380  21.731  10.994
39510W        W 5919  10.236  39.463   4.236
39511W        W 5920  39.858  35.445  12.402
39512W        W 5921   9.795  16.885  11.392
39513W        W 5922   1.957  17.175   1.393
39514W        W 5923  44.551  14.403   4.244
39515W        W 5924   3.299  30.676   3.180
39516W        W 5925  39.768  22.230   0.301
39517W        W 5926  39.437  37.045  14.418
39518W        W 5927  31.676  28.394  12.075
39519W        W 5928   3.937  13.575  12.093
39520W        W 5929  31.841   6.250  14.495
39521W        W 5930   2.100   4.878  10.629
39522W        W 5931  35.521  11.764   4.790
39523W        W 5932  13.674  41.386  14.510
39524W        W 5933   5.862   2.825  14.779
39525W        W 5934  40.718  11.615   1.421
39526W        W 5935   7.936  19.532  10.230
39527W        W 5936  17.221  44.577  12.992
39528W        W 5937   7.577  21.892   3.333
39529W        W 5938   5.690  32.368   4.201
39530W        W 5939  27.217   7.058   5.378
39531W        W 5940  37.070  17.121   9.844
39532W        W 5941  29.905   2.480   4.554
39533W        W 5942   5.984  14.752  11.991
39534W        W 5943   3.272  44.328   4.657
39535W        W 5944  43.651   8.223  10.642
39536W        W 5945  19.606  39.075  13.598
39537W        W 5946  37.965  30.481  12.868
39538W        W 5947  16.729   6.418   4.381
39539W        W 5948  28.667  21.264  11.443
39540W        W 5949  42.430  25.545  11.668
39541W        W 5950  35.958  22.720   3.072
39542W        W 5951  29.514  12.197  11.207
39543W        W 5952  10.430  16.795  14.375
39544W        W 5953  27.190  30.993  12.241
39545W        W 5954   3.157   8.262  12.805
39546W        W 5955  17.661   0.495  14.470
39547W        W 5956   8.534  37.593   4.901
39548W        W 5957  38.511  34.651  12.423
39549W        W 5958  24.907  18.974   2.103
39550W        W 5959  37.850  14.806  13.116
39551W        W 5960  32.552  14.255   3.359
39552W        W 5961  43.825  42.577  12.034
39553W        W 5962  16.084  29.358  12.405
39554W        W 5963  36.754   8.651  11.725
39555W        W 5964  12.682  26.811  10.580
39556W        W 5965  17.817  39.792   3.608
39557W        W 5966  13.588  38.991   3.444
39558W        W 5967   4.908  43.486   3.267
39559W        W 5968  31.134  22.851  12.391
39560W        W 5969  35.896  14.190  12.783
39561W        W 5970  32.120   9.694   0.509
39562W        W 5971  35.459  23.202   4.697
39563W        W 5972   9.550  36.075   5.464
39564W        W 5973  25.111  29.049  10.738
39565W        W 5974  23.324  20.688   1.435
39566W        W 5975  32.180  33.270   4.516
39567W        W 5976  29.466  34.528  12.169
39568W        W 5977  28.170  25.429   2.866
39569W        W 5978  21.017  37.350   3.162
39570W        W 5979  17.433  33.663  12.214
39571W        W 5980  24.337  35.534  11.152
39572W        W 5981  44.795  27.939  14.857
39573W        W 5982  14.105  34.451   0.303
39574W        W 5983  33.704   4.847   4.614
39575W        W 5984   4.175  33.522   2.681
39576W        W 5985   0.752  30.100   4.005
39577W        W 5986  43.547  40.537   0.324
39578W        W 5987   2.891  40.313   3.706
39579W        W 5988  19.893  19.640   1.285
39580W        W 5989  29.354  41.464   3.650
39581W        W 5990  27.432  25.522  14.999
39582W        W 5991  40.906  15.620   1.667
39583W        W 5992   1.892  22.006   1.191
39584W        W 5993  33.089  25.750  10.646
39585W        W 5994  38.563  43.408   1.651
39586W        W 5995  35.916  19.270   2.500
39587W        W 5996  35.060  34.481   0.674
39588W        W 5997   1.462  22.661   3.208
39589W        W 5998  31.748  18.760  12.819
39590W        W 5999  25.408  43.002  14.263
39591W        W 6000  11.106   6.086  14.341
39592W        W 6001  23.121  37.954  13.637
39593W        W 6002  26.029  25.749  14.957
39594W        W 6003  14.117  27.946   1.291
39595W        W 6004  28.627  41.522  12.496
39596W        W 6005   1.353  10.695  12.401
39597W        W 6006  18.541   8.261   4.200
39598W        W 6007  11.740  39.482  12.552
39599W        W 6008  20.672  17.261   3.769
39600W        W 6009  31.914  13.267  14.920
39601W        W 6010  38.076  13.377   1.680
39602W        W 6011  11.877  33.341  13.935
39603W        W 6012  40.423  41.454  12.905
39604W        W 6013  40.854  33.345   4.513
39605W        W 6014  30.129   3.271   0.526
39606W        W 6015  26.081  11.042   4.075
39607W        W 6016  38.963   4.039  11.505
39608W        W 6017  44.359  11.389  10.867
39609W        W 6018  39.115   7.891   3.081
39610W        W 6019  26.433  30.114  14.405
39611W        W 6020  21.316  26.522   1.799
39612W        W 6021  35.952  38.981   1.374
39613W        W 6022   5.258   6.681   4.247
39614W        W 6023  18.811  12.670   0.382
39615W        W 6024   1.679  35.368  13.492
39616W        W 6025   3.966   5.272  10.966
39617W        W 6026  37.960   9.362  10.728
39618W        W 6027  33.779  39.835   4.107
39619W        W 6028  22.096  34.900  12.060
39620W        W 6029  18.168  37.652  14.255
39621W        W 6030  14.094  41.721  10.814
39622W        W 6031  28.834  44.353   1.785
39623W        W 6032  17.743  43.013  14.412
39624W        W 6033  20.204   0.220   3.795
39625W        W 6034  27.037   2.810  11.202
39626W        W 6035   8.247  37.057   0.285
39627W        W 6036  22.654   3.999  10.650
39628W        W 6037  39.075   3.423   1.759
39629W        W 6038   6.836   5.609  11.539
39630W        W 6039   7.336  26.675  11.595
39631W        W 6040   5.132  33.816   9.924
39632W        W 6041  34.538  17.133  12.484
39633W        W 6042   9.357  12.655  11.666
39634W        W 6043   5.844  16.756  11.550
39635W        W 6044  18.606  37.453   2.342
39636W        W 6045  17.539  20.222  13.040
39637W        W 6046  44.012  17.413  13.438
39638W        W 6047   6.801  20.546   3.256
39639W        W 6048  24.121  23.452   2.070
39640W        W 6049  34.470  43.299   1.566
39641W        W 6050   3.845  14.292  12.577
39642W        W 6051   2.866   1.884   0.914
39643W        W 6052  37.685  16.598  14.341
39644W        W 6053  23.503  19.086   0.421
39645W        W 6054  24.635  35.741   3.434
39646W        W 6055  29.611  35.170   2.357
39647W        W 6056  28.222  33.589  14.995
39648W        W 6057  17.306  35.127   0.262
39649W        W 6058  44.025  14.319  12.755
39650W        W 6059   5.021  31.470   5.003
39651W        W 6060  32.857  20.950  10.728
39652W        W 6061  31.287  38.400  12.281
39653W        W 6062  42.210  15.245  14.959
39654W        W 6063  40.341   4.971  14.070
39655W        W 6064  40.974  39.450   4.020
39656W        W 6065  38.126   1.547   2.860
39657W        W 6066  18.110  36.889   5.415
39658W        W 6067   1.893  42.376   2.450
39659W        W 6068  11.041   8.722   1.451
39660W        W 6069  42.468  36.838   4.273
39661W        W 6070  44.054   9.308   0.016
39662W        W 6071   7.456  43.933  14.848
39663W        W 6072  44.002  40.819   3.188
39664W        W 6073  16.959  31.711   1.301
39665W        W 6074  11.230  28.668   3.912
39666W        W 6075  39.484  12.145   4.840
39667W        W 6076   3.969  32.586   3.130
39668W        W 6077  10.418  31.373  12.219
39669W        W 6078  36.948   8.967   3.726
39670W        W 6079  22.353  21.006  14.371
39671W        W 6080  43.805  34.622   0.568
39672W        W 6081  41.262   4.600  11.620
39673W        W 6082  14.297  37.592   2.831
39674W        W 6083   8.238  14.862  13.027
39675W        W 6084  43.993  42.849   2.459
39676W        W 6085  25.273   7.037   4.461
39677W        W 6086  23.235  43.818  12.966
39678W        W 6087  16.760   3.773   3.303
39679W        W 6088  41.854  32.894  12.387
39680W        W 6089  26.718  32.607  14.841
39681W        W 6090  20.050   7.648   3.234
39682W        W 6091  19.184  39.035   2.856
39683W        W 6092  39.870  39.543   1.690
39684W        W 6093  26.723  43.380  13.644
39685W        W 6094   3.778  32.867   1.863
39686W        W 6095  42.363  42.649   3.727
39687W        W 6096   0.520  15.815   1.155
39688W        W 6097  28.934   6.259   4.213
39689W        W 6098  34.115  34.721  11.594
39690W        W 6099   8.989  29.603  11.459
39691W        W 6100  29.052   1.918  10.785
39692W        W 6101  30.415  39.304  13.942
39693W        W 6102   3.511  26.494   0.803
39694W        W 6103  35.176  27.407  13.403
39695W        W 6104  22.244  17.200  12.155
39696W        W 6105  36.990  28.708   3.617
39697W        W 6106  10.700  10.385  10.571
39698W        W 6107  28.136  38.943  12.887
39699W        W 6108  27.240   1.772  10.851
39700W        W 6109  30.399  29.426  13.089
39701W        W 6110  15.058  40.871   2.870
39702W        W 6111   8.534  29.570   2.617
39703W        W 6112  34.810  40.932  13.359
39704W        W 6113  34.074  41.886   1.436
39705W        W 6114  37.104   3.471  14.526
39706W        W 6115  39.850  41.433  12.985
39707W        W 6116   4.596  14.651   4.769
39708W        W 6117  38.459  20.732   2.258
39709W        W 6118  29.917   6.217  14.517
39710W        W 6119   2.343  20.131   1.723
39711W        W 6120  15.412  39.982   0.331
39712W        W 6121   2.897  35.872  10.518
39713W        W 6122  29.392  12.256   1.866
39714W        W 6123  12.118  19.688   1.003
39715W        W 6124  37.524  27.156   1.702
39716W        W 6125  42.834  17.529   0.818
39717W        W 6126   3.950  28.687   3.556
39718W        W 6127  11.736  41.128  11.710
39719W        W 6128  25.487   8.795   2.426
39720W        W 6129  16.643  25.490   2.764
39721W        W 6130   9.843  42.536  13.933
39722W        W 6131  27.355   4.737  10.612
39723W        W 6132  37.084  23.607   1.132
39724W        W 6133  30.163  12.725   0.065
39725W        W 6134  32.701  27.467   2.768
39726W        W 6135   0.225  41.230   3.566
39727W        W 6136  37.600  39.068   3.414
39728W        W 6137  11.355   4.310  10.325
39729W        W 6138  33.446  25.270   4.305
39730W        W 6139  13.383  28.176   4.167
39731W        W 6140  25.615  32.258   2.079
39732W        W 6141  44.272  27.237  14.522
39733W        W 6142   7.925  42.077  13.515
39734W        W 6143  16.262  14.567   4.851
39735W        W 6144  10.542   7.386  10.568
39736W        W 6145   1.077  28.960   0.736
39737W        W 6146   6.425  11.305   1.251
39738W        W 6147  38.316  16.821  13.037
39739W        W 6148   2.053  12.694   1.231
39740W        W 6149  42.691  27.953   0.380
39741W        W 6150  14.834  30.857  12.852
39742W        W 6151  32.369  28.300   2.887
39743W        W 6152   3.855  31.642   3.264
39744W        W 6153  40.923   0.713  12.326
39745W        W 6154  12.375  16.099   3.664
39746W        W 6155  13.253  44.165  11.718
39747W        W 6156  11.056  11.124  11.509
39748W        W 6157  27.310  14.691   0.470
39749W        W 6158   1.386   0.873   2.621
39750W        W 6159   9.949  44.642   4.168
39751W        W 6160   7.201  32.564  13.599
39752W        W 6161  20.419  15.195  13.550
39753W        W 6162  42.061  14.565   2.687
39754W        W 6163  40.811  43.795   4.397
39755W        W 6164  39.787   6.043   0.303
39756W        W 6165  31.180  35.516  11.911
39757W        W 6166  12.842   3.918  12.564
39758W        W 6167   6.066   3.780  10.994
39759W        W 6168  24.533  39.572   2.450
39760W        W 6169   1.273  41.752   4.635
39761W        W 6170   1.263  43.803  12.064
39762W        W 6171  39.204   3.232   4.161
39763W        W 6172  42.998  13.796   0.504
39764W        W 6173  30.160  29.499  13.958
39765W        W 6174   5.698  15.223  14.229
39766W        W 6175  21.266  21.794  11.587
39767W        W 6176  40.331  39.762   1.848
39768W        W 6177  37.776  15.651   2.369
39769W        W 6178  37.014  31.186   3.574
39770W        W 6179   1.384  28.270   3.289
39771W        W 6180  40.470  39.064   3.388
39772W        W 6181  34.340   9.923   4.720
39773W        W 6182  40.686  17.748  11.191
39774W        W 6183   8.983  23.028  14.391
39775W        W 6184  13.518   7.060   1.781
39776W        W 6185  34.999  25.937  11.456
39777W        W 6186  29.485  37.444   0.212
39778W        W 6187   3.864  32.864   4.125
39779W        W 6188   6.380  42.830   1.435
39780W        W 6189  41.301  18.649  12.940
39781W        W 6190  30.645  31.200  10.728
39782W        W 6191   9.376  17.492  10.429
39783W        W 6192   1.231   8.495   1.410
39784W        W 6193  43.562   0.859   1.887
39785W        W 6194   0.957  20.029   2.413
39786W        W 6195  10.610   6.798  12.264
39787W        W 6196   2.399  17.011   4.176
39788W        W 6197   5.769  22.424  14.446
39789W        W 6198   0.085   6.896  11.151
39790W        W 6199  11.371  25.537   0.991
39791W        W 6200  37.090  21.932   2.343
39792W        W 6201  29.950   6.990  14.968
39793W        W 6202  16.934  36.299   0.988
39794W        W 6203  11.680  33.586  13.535
39795W        W 6204  32.499  30.471   4.539
39796W        W 6205  10.161  44.302   3.744
39797W        W 6206  11.076  40.351  14.302
39798W        W 6207  33.641  10.353  10.776
39799W        W 6208  43.415   4.681  12.773
39800W        W 6209  19.194  17.792  13.792
39801W        W 6210  38.498  25.560  14.407
39802W        W 6211  17.825  31.506   4.427
39803W        W 6212   4.357  36.308  12.424
39804W        W 6213  37.436   9.469   1.777
39805W        W 6214  30.997  17.803   0.794
39806W        W 6215  41.045  17.377  11.084
39807W        W 6216  25.630  26.059   3.367
39808W        W 6217  40.041  41.356   4.409
39809W        W 6218  25.528   1.630  14.250
39810W        W 6219  44.310  11.842   1.718
39811W        W 6220  25.455  29.362  12.613
39812W        W 6221  11.928  38.669   0.227
39813W        W 6222  36.328  15.518   4.552
39814W        W 6223  11.866  12.980   4.068
39815W        W 6224   0.940  39.272  14.455
39816W        W 6225  21.236  40.427  12.555
39817W        W 6226  10.783   8.173  12.440
39818W        W 6227   3.731  23.656   5.073
39819W        W 6228  24.204   7.469   3.627
39820W        W 6229  23.010  11.854  11.594
39821W        W 6230  19.818  41.900   1.927
39822W        W 6231  36.208  43.471   3.444
39823W        W 6232  40.652  18.667   5.153
39824W        W 6233   1.334  34.813   0.743
39825W        W 6234  37.063   0.246   3.671
39826W        W 6235  31.120  40.953  14.397
39827W        W 6236  11.617   2.014  10.718
39828W        W 6237  39.827  26.840  13.456
39829W        W 6238  28.458  43.867  12.000
39830W        W 6239  23.746  20.259  13.551
39831W        W 6240   4.616  33.483  10.836
39832W        W 6241  43.000  38.202   2.686
39833W        W 6242  40.020  43.213  12.853
39834W        W 6243  25.569   1.195   1.642
39835W        W 6244  37.844  34.560   4.491
39836W        W 6245  25.382  35.939  11.060
39837W        W 6246   5.250  17.832   4.636
39838W        W 6247  18.083  36.028  12.618
39839W        W 6248   4.520  15.604  13.017
39840W        W 6249  37.486  43.228   2.581
39841W        W 6250  38.719  28.957  12.785
39842W        W 6251  32.934  19.573   2.169
39843W        W 6252   2.163  18.680   4.422
39844W        W 6253  21.384  19.850  10.711
39845W        W 6254  32.504  29.152  14.686
39846W        W 6255  27.961  16.777   4.626
39847W        W 6256  32.723  16.287  12.986
39848W        W 6257  20.589  43.379  13.672
39849W        W 6258  24.421   8.631   0.959
39850W        W 6259   7.818  39.869   1.008
39851W        W 6260  37.690   6.196  12.927
39852W        W 6261   0.096  39.220  14.329
39853W        W 6262  41.189  33.223   4.062
39854W        W 6263  10.710  44.947   1.946
39855W        W 6264  36.461  11.759  13.013
39856W        W 6265  35.364  24.397  12.230
39857W        W 6266  33.168  29.586   0.028
39858W        W 6267  33.698  22.133   1.994
39859W        W 6268  36.077  13.788  10.595
39860W        W 6269   9.158  18.553  14.904
39861W        W 6270  36.865  28.591  14.014
39862W        W 6271  13.834  17.581   4.073
39863W        W 6272  27.468  17.182   1.463
39864W        W 6273  15.661  40.958  10.883
39865W        W 6274   7.667  23.459  14.536
39866W        W 6275   4.172   7.767  14.890
39867W        W 6276  37.433  14.113  14.374
39868W        W 6277  21.263  27.860  12.906
39869W        W 6278   0.883  17.669   2.721
39870W        W 6279  15.225  17.244   1.707
39871W        W 6280  40.929  23.198   3.399
39872W        W 6281   1.838  30.994   4.681
39873W        W 6282  13.213  42.337  14.582
39874W        W 6283  41.540  21.633   3.759
39875W        W 6284  27.174  43.078   2.152
39876W        W 6285  12.840  36.510   3.076
39877W        W 6286  33.193  10.794   4.521
39878W        W 6287  12.915  10.796  10.703
39879W        W 6288  28.393   4.629   3.826
39880W        W 6289  17.322  41.364   4.885
39881W        W 6290  14.049  32.477  13.258
39882W        W 6291  11.632   3.804   2.181
39883W        W 6292  11.173  33.529   3.124
39884W        W 6293   5.452  20.582   2.618
39885W        W 6294  39.758  16.893  11.561
39886W        W 6295  22.413  35.122  13.315
39887W        W 6296  37.018  36.351  10.774
39888W        W 6297  43.546  28.313   1.462
39889W        W 6298  15.078  19.910  10.638
39890W        W 6299  11.618  11.392   0.398
39891W        W 6300   0.346  26.647  11.003
39892W        W 6301  10.131  11.668   0.431
39893W        W 6302   0.122   0.585  10.926
39894W        W 6303   9.147  10.465  10.425
39895W        W 6304   1.280  21.950   0.930
39896W        W 6305  27.984  15.810   0.437
39897W        W 6306   7.551  41.811  13.872
39898W        W 6307   9.717  34.643  11.726
39899W        W 6308  17.122  33.916   1.189
39900W        W 6309  30.239  23.985  11.061
39901W        W 6310   8.723  21.058  14.780
39902W        W 6311   0.275   6.167  10.876
39903W        W 6312   0.644  36.034   0.005
39904W        W 6313   8.680   6.158  11.123
39905W        W 6314  20.291  12.933  14.570
39906W        W 6315  44.726  19.500  14.745
39907W        W 6316  27.148  35.495   2.199
39908W        W 6317  37.313  12.210   1.814
39909W        W 6318  31.056  17.509   1.219
39910W        W 6319   3.376  39.189   1.422
39911W        W 6320  44.934  17.555   2.755
39912W        W 6321   6.128   9.332   2.893
39913W        W 6322  15.537   4.804  11.840
39914W        W 6323  15.672  24.515   2.676
39915W        W 6324  21.943  28.188   3.163
39916W        W 6325   5.682  30.493   0.064
39917W        W 6326  26.008   3.262  14.733
39918W        W 6327  23.046  14.024   0.464
39919W        W 6328  24.988  11.852  13.751
39920W        W 6329  29.835  34.457   4.307
39921W        W 6330  11.298  41.364  14.947
39922W        W 6331  34.488  23.075   4.234
39923W        W 6332  14.127  22.324  10.451
39924W        W 6333   1.873   1.802   3.675
39925W        W 6334  14.837   8.344   0.833
39926W        W 6335  10.631   8.930  11.541
39927W        W 6336   7.623  18.794   1.956
39928W        W 6337  22.038  32.494  14.958
39929W        W 6338  44.836  39.544   0.690
39930W        W 6339   8.729  29.112   2.851
39931W        W 6340  19.246   1.994   4.701
39932W        W 6341  44.677  24.694  14.609
39933W        W 6342  15.984  26.697   4.021
39934W        W 6343  13.141  15.887  13.989
39935W        W 6344   2.036  36.574   1.860
39936W        W 6345  44.465  39.381   4.639
39937W        W 6346  10.755   0.635  11.503
39938W        W 6347  15.767  39.072  14.851
39939W        W 6348  23.614   7.418   4.252
39940W        W 6349  29.247  36.600  12.094
39941W        W 6350  30.122   8.382   9.712
39942W        W 6351  11.350  18.062   3.622
39943W        W 6352  30.875  38.535  11.212
39944W        W 6353  39.541  22.018  10.556
39945W        W 6354  21.504  36.535  11.386
39946W        W 6355  33.726  33.421  10.229
39947W        W 6356  16.677  13.219  12.228
39948W        W 6357  26.107  33.469  14.449
39949W        W 6358  10.201  31.669  14.061
39950W        W 6359   5.029  15.713  13.043
39951W        W 6360  25.376  33.974  14.295
39952W        W 6361  34.792  15.380   3.333
39953W        W 6362  28.704  37.855   1.766
39954W        W 6363  41.992  28.086   1.342
39955W        W 6364  30.688  38.381   2.241
39956W        W 6365   3.455  37.499  11.669
39957W        W 6366   2.459  16.260  12.547
39958W        W 6367  29.839  14.014  13.066
39959W        W 6368   5.940   0.883   0.408
39960W        W 6369  33.129  40.136  11.195
39961W        W 6370  14.734  17.659   3.681
39962W        W 6371   2.016   1.704   4.667
39963W        W 6372   0.254  34.989   3.269
39964W        W 6373  30.222  23.075   4.159
39965W        W 6374  25.924  36.221  14.666
39966W        W 6375  40.380  30.970  13.948
39967W        W 6376  16.985  19.768  12.390
39968W        W 6377  23.593  26.926   3.844
39969W        W 6378  22.441  17.728   4.199
39970W        W 6379  28.687  43.545  11.105
39971W        W 6380   3.365  10.445  10.416
39972W        W 6381   0.479  40.976  11.089
39973W        W 6382  38.263  31.444  14.109
39974W        W 6383   3.988   2.037  13.916
39975W        W 6384  28.462   6.936  11.112
39976W        W 6385   1.213   9.407   4.601
39977W        W 6386   9.118  39.303  10.857
39978W        W 6387  36.634  24.293   4.685
39979W        W 6388   4.752   0.235   3.692
39980W        W 6389  41.467  40.603   3.668
39981W        W 6390   9.937   8.439  11.247
39982W        W 6391   3.057  26.867  12.523
39983W        W 6392  26.261  42.123   1.735
39984W        W 6393  40.411  41.670   2.846
39985W        W 6394  25.680  32.543   3.637
39986W        W 6395  35.542  42.471   0.921
39987W        W 6396   3.845  13.637   2.443
39988W        W 6397  28.573   6.360   1.067
39989W        W 6398  11.676  30.544  14.407
39990W        W 6399  37.904  39.431  11.652
39991W        W 6400  10.299  27.221  13.372
39992W        W 6401  31.902  36.393   4.530
39993W        W 6402  14.205  23.575   2.516
39994W        W 6403  25.288  40.681  11.146
39995W        W 6404   4.246  27.939   0.069
39996W        W 6405  32.017  33.786  11.163
39997W        W 6406   7.591  41.077   4.163
39998W        W 6407   9.533   7.187  13.426
39999W        W 6408   8.526  36.785   3.784
40000W        W 6409  20.664  36.192   4.065
40001W        W 6410  23.738  30.410  14.804
40002W        W 6411   7.757  16.820   1.956
40003W        W 6412  13.135  38.898  10.749
40004W        W 6413  27.194  41.817   0.617
40005W        W 6414  39.550  33.168   1.350
40006W        W 6415  30.016  20.322   1.799
40007W        W 6416  15.131  29.116   0.831
40008W        W 6417   1.351  35.327  13.880
40009W        W 6418  26.724  23.076   0.142
40010W        W 6419  30.607  17.391   3.777
40011W        W 6420   2.242  26.625  10.645
40012W        W 6421   3.559  38.924  14.424
40013W        W 6422  42.463  21.451   2.800
40014W        W 6423  32.777   5.091  13.918
40015W        W 6424  16.157  24.083  14.937
40016W        W 6425  37.546  29.851  14.373
40017W        W 6426  11.743  22.119   4.649
40018W        W 6427  40.591  18.102  14.772
40019W        W 6428   7.166  29.846   1.362
40020W        W 6429   2.345   1.222  12.544
40021W        W 6430  24.182  15.143   0.731
40022W        W 6431  26.145  35.303   3.399
40023W        W 6432  44.278  31.807   3.782
40024W        W 6433  37.330   4.729   2.681
40025W        W 6434  37.971  40.470  13.953
40026W        W 6435  16.151  37.235  14.496
40027W        W 6436  22.548  13.574   0.879
40028W        W 6437  25.712  43.860  13.100
40029W        W 6438  41.046  18.819  13.380
40030W        W 6439  16.256  29.178  10.826
40031W        W 6440  21.552  19.911   4.294
40032W        W 6441  41.942   9.634  13.598
40033W        W 6442  14.105  41.462  12.879
40034W        W 6443   2.212   4.148  14.491
40035W        W 6444  31.288  27.548  13.792
40036W        W 6445  13.204  25.885  10.724
40037W        W 6446  32.460  31.884   0.625
40038W        W 6447   8.526   5.916   2.406
40039W        W 6448  13.777  43.741  13.017
40040W        W 6449  10.290  18.786  12.899
40041W        W 6450  35.914  40.531   4.225
40042W        W 6451  23.205  30.690  13.958
40043W        W 6452  36.651  44.556   4.072
40044W        W 6453  27.712  24.035  13.466
40045W        W 6454   9.180  11.733  12.538
40046W        W 6455  24.799  25.533  12.963
40047W        W 6456  15.702  23.116   1.303
40048W        W 6457  34.096  18.790   0.314
40049W        W 6458  30.612  41.573   3.205
40050W        W 6459  22.917  29.664   3.204
40051W        W 6460   3.400  11.681  14.252
40052W        W 6461   6.171   6.878   2.326
40053W        W 6462  35.204  29.900  12.462
40054W        W 6463  10.729  43.685   1.375
40055W        W 6464   4.899   9.876   5.187
40056W        W 6465  38.442  29.046   1.830
40057W        W 6466  25.690  25.069  12.371
40058W        W 6467  26.197  40.973   3.600
40059W        W 6468  27.199  19.108   4.753
40060W        W 6469  41.045  27.094  13.753
40061W        W 6470  14.142   2.733   1.728
40062W        W 6471  22.149  30.955  11.987
40063W        W 6472  36.844   8.667   3.318
40064W        W 6473  15.017  35.485   0.511
40065W        W 6474  34.725   3.267  11.288
40066W        W 6475  11.484  20.111  10.736
40067W        W 6476  29.961  13.683   2.301
40068W        W 6477  37.330  35.179  14.941
40069W        W 6478  13.446  21.077  13.828
40070W        W 6479  19.166  36.896  13.404
40071W        W 6480   5.251  12.094   1.443
40072W        W 6481   3.781  12.434   2.668
40073W        W 6482  15.189  25.229  10.127
40074W        W 6483  12.935  15.472   5.067
40075W        W 6484  39.084  17.806  12.545
40076W        W 6485   3.319   5.448   4.296
40077W        W 6486   9.325   9.830   1.101
40078W        W 6487  42.450   7.362   0.373
40079W        W 6488  20.817   4.314   3.289
40080W        W 6489   4.403  37.643  13.321
40081W        W 6490  33.884  33.989  10.976
40082W        W 6491   0.353  23.245   3.589
40083W        W 6492  15.491  35.943  13.079
40084W        W 6493  25.489  28.678   3.489
40085W        W 6494  29.355  28.636  13.489
40086W        W 6495  37.846  28.923  12.045
40087W        W 6496   8.354   3.361  14.841
40088W        W 6497  36.133  41.171   3.191
40089W        W 6498  12.495  36.968  12.344
40090W        W 6499   4.220  10.327  10.512
40091W        W 6500  30.706  15.558  10.441
40092W        W 6501  37.865  43.536   3.375
40093W        W 6502   9.433   3.928   1.743
40094W        W 6503  30.496  16.033   3.341
40095W        W 6504  31.689  37.202  12.823
40096W        W 6505  30.514   7.682  10.350
40097W        W 6506  37.275   6.484  12.962
40098W        W 6507  35.616   2.315   4.214
40099W        W 6508  30.680  22.831  12.619
40100W        W 6509  14.084   6.370  11.480
40101W        W 6510   1.205  11.326   9.885
40102W        W 6511  20.320  27.890   2.179
40103W        W 6512  35.827  29.578  11.113
40104W        W 6513  41.915  13.817  10.913
40105W        W 6514   5.423   0.732  11.105
40106W        W 6515  21.328   0.947  10.796
40107W        W 6516   0.508   3.937   1.800
40108W        W 6517  32.592  13.220  12.240
40109W        W 6518  37.595  40.535  14.807
40110W        W 6519  38.372  18.620   0.397
40111W        W 6520  30.557  12.062   3.719
40112W        W 6521  10.140  22.668  12.552
40113W        W 6522  23.230  40.569  12.083
40114W        W 6523  11.858  18.280   1.203
40115W        W 6524   4.271  21.086   4.545
40116W        W 6525  21.684  26.174  14.795
40117W        W 6526  15.123  10.839   1.819
40118W        W 6527  35.230  25.203  12.503
40119W        W 6528  35.489  11.154   3.430
40120W        W 6529   6.743   5.318  14.733
40121W        W 6530  15.417   7.303   1.783
40122W        W 6531   4.715  26.694  13.890
40123W        W 6532   0.595   0.586   3.584
40124W        W 6533  24.227  39.905  14.326
40125W        W 6534  26.860   6.841   1.237
40126W        W 6535  30.994  13.242   4.789
40127W        W 6536  28.554  42.262   4.373
40128W        W 6537  31.874  37.286  11.555
40129W        W 6538  19.658   9.426  12.105
40130W        W 6539  22.061  27.731   2.257
40131W        W 6540  30.933  28.379   4.173
40132W        W 6541  34.812  36.421  14.071
40133W        W 6542  11.314  30.303   0.097
40134W        W 6543  22.301  39.309  12.941
40135W        W 6544  21.622  22.956  14.870
40136W        W 6545  41.822  42.415   3.017
40137W        W 6546   0.275  31.072   0.347
40138W        W 6547  21.953  23.122   0.223
40139W        W 6548  20.592  41.931   4.055
40140W        W 6549  42.374   8.497   1.542
40141W        W 6550  28.534  35.488  14.914
40142W        W 6551  25.521  42.305  10.708
40143W        W 6552  21.183  13.317  12.815
40144W        W 6553  33.068  12.696  13.875
40145W        W 6554   9.603  15.249  14.460
40146W        W 6555  39.038  35.129  12.495
40147W        W 6556  18.136  14.701   0.136
40148W        W 6557  39.891  33.694   0.116
40149W        W 6558   9.752  38.420  13.533
40150W        W 6559  33.533  19.652   0.357
40151W        W 6560  20.995   6.796   2.414
40152W        W 6561   0.348   3.322  10.741
40153W        W 6562  30.860   3.002  12.497
40154W        W 6563  24.046  25.711   1.003
40155W        W 6564  28.491  15.226  13.598
40156W        W 6565  13.052   8.753   2.316
40157W        W 6566  37.839  35.048  14.955
40158W        W 6567  12.674  27.180   0.911
40159W        W 6568  32.208   9.293   3.302
40160W        W 6569  36.253  25.886  14.296
40161W        W 6570   4.965  32.070  13.476
40162W        W 6571   8.728  43.651  11.389
40163W        W 6572  13.645  28.026  12.248
40164W        W 6573  25.677  26.647  11.213
40165W        W 6574  38.948  32.154  14.440
40166W        W 6575  31.580  20.738  11.654
40167W        W 6576  37.533  18.124  14.298
40168W        W 6577  14.294  34.071  13.372
40169W        W 6578  28.654  44.478  13.365
40170W        W 6579  23.001   1.277   0.843
40171W        W 6580   2.381  34.427   3.832
40172W        W 6581  25.229   9.722   2.734
40173W        W 6582  12.221  27.289  11.618
40174W        W 6583   1.227  32.128  12.592
40175W        W 6584   8.330  13.562  11.037
40176W        W 6585  34.499  38.096   4.247
40177W        W 6586  33.103   5.332   1.174
40178W        W 6587  36.445  43.681   2.065
40179W        W 6588  43.586  35.006   0.995
40180W        W 6589  38.550   5.012  10.971
40181W        W 6590  19.281   3.895  14.014
40182W        W 6591  12.208  29.645  10.662
40183W        W 6592  23.458   8.421   3.379
40184W        W 6593  18.939   7.733  12.935
40185W        W 6594  38.179  15.072   9.814
40186W        W 6595  24.730  17.741   1.780
40187W        W 6596  18.520  16.105   2.467
40188W        W 6597  32.835   5.823   5.037
40189W        W 6598  14.129   1.212   1.304
40190W        W 6599   4.997  19.288   1.953
40191W        W 6600  35.502  18.353  12.933
40192W        W 6601  35.262  36.552   0.160
40193W        W 6602  19.786  27.473  12.079
40194W        W 6603   9.813  35.111  11.535
40195W        W 6604  16.709   9.765   1.816
40196W        W 6605  39.029  29.832   1.776
40197W        W 6606  13.684   6.063   1.684
40198W        W 6607   3.746  13.276   3.277
40199W        W 6608  29.134  38.942  13.796
40200W        W 6609  26.588  12.601   0.496
40201W        W 6610   0.456  41.897  12.971
40202W        W 6611   3.989   2.628  13.052
40203W        W 6612  39.953  28.486   4.107
40204W        W 6613  32.437  41.439  11.012
40205W        W 6614  17.086  28.145  10.244
40206W        W 6615  19.607  37.876   4.486
40207W        W 6616   1.779  14.670  14.498
40208W        W 6617  35.918  27.109  10.792
40209W        W 6618  34.130  16.136   2.694
40210W        W 6619  29.726   9.604  10.496
40211W        W 6620  22.255  26.071  10.871
40212W        W 6621  30.629   3.409  13.385
40213W        W 6622  24.179  37.951  11.916
40214W        W 6623  12.812  24.562  14.278
40215W        W 6624   5.224  16.047   0.030
40216W        W 6625  42.255   7.928  14.431
40217W        W 6626  14.600  19.239   3.662
40218W        W 6627   5.604   3.861   4.222
40219W        W 6628  10.256  22.041   2.606
40220W        W 6629  33.835  16.018   4.535
40221W        W 6630  13.303  21.492   5.213
40222W        W 6631   8.660  15.591   2.321
40223W        W 6632  34.291  17.155  12.032
40224W        W 6633  26.978   6.799   5.001
40225W        W 6634  22.937  37.482   0.997
40226W        W 6635  34.332   0.721  13.568
40227W        W 6636  13.146  14.166  12.462
40228W        W 6637  17.079  16.228  12.503
40229W        W 6638  14.222  22.777  13.163
40230W        W 6639  15.149  33.202  11.240
40231W        W 6640  44.989  30.069   0.773
40232W        W 6641  37.251  41.233  12.408
40233W        W 6642  32.142   6.917  14.212
40234W        W 6643  31.745   0.561  12.991
40235W        W 6644  36.125  12.697  12.032
40236W        W 6645  41.934  32.085   5.083
40237W        W 6646  15.683  27.938  14.662
40238W        W 6647  36.317   3.162   1.337
40239W        W 6648  37.563  21.297   2.269
40240W        W 6649   4.909   2.455   4.154
40241W        W 6650  22.451  23.703  11.079
40242W        W 6651  38.579  27.942  12.954
40243W        W 6652  11.319  27.024  14.359
40244W        W 6653  20.255  19.800   2.713
40245W        W 6654  44.871  43.186  10.862
40246W        W 6655  33.860  37.023  12.139
40247W        W 6656  18.819  40.886   1.297
40248W        W 6657   4.183  44.926   0.506
40249W        W 6658  21.820  10.337  14.282
40250W        W 6659  14.321  33.160  12.000
40251W        W 6660  20.397  20.700  13.884
40252W        W 6661  44.464  33.589   0.272
40253W        W 6662  32.133  27.047  12.131
40254W        W 6663  33.459  30.023   3.139
40255W        W 6664  28.188  29.744   4.527
40256W        W 6665  36.994   5.844   4.914
40257W        W 6666   3.664   8.879  11.142
40258W        W 6667  28.283   2.303   1.801
40259W        W 6668  28.340  17.202  11.673
40260W        W 6669   8.436  18.141   3.790
40261W        W 6670  15.140  39.850   3.313
40262W        W 6671  37.258  26.575  12.585
40263W        W 6672  12.479   5.773  13.445
40264W        W 6673  17.562   7.084  11.644
40265W        W 6674   2.923  14.248   1.177
40266W        W 6675  38.906  35.405  14.031
40267W        W 6676  23.635  13.677  14.022
40268W        W 6677  27.144  15.181   4.663
40269W        W 6678  27.714  23.956  12.452
40270W        W 6679  23.255  19.615  14.359
40271W        W 6680  37.348  28.516   1.302
40272W        W 6681  18.689   3.341   1.205
40273W        W 6682  16.226  23.211  12.890
40274W        W 6683  43.330  17.535  14.988
40275W        W 6684  43.731  42.615   0.666
40276W        W 6685  33.929   5.525  12.105
40277W        W 6686  43.492  31.158   2.594
40278W        W 6687  28.251  30.966  14.842
40279W        W 6688  12.177   6.826  12.973
40280W        W 6689  44.517  34.676  14.466
40281W        W 6690   5.678   5.639   4.112
40282W        W 6691  41.526  16.385   4.139
40283W        W 6692  37.763   2.203  14.324
40284W        W 6693  20.670  13.411  12.462
40285W        W 6694  11.386  36.948  13.632
40286W        W 6695   7.773  27.176  11.089
40287W        W 6696  20.346  16.158   4.544
40288W        W 6697  14.332   6.680   0.379
40289W        W 6698  33.608  29.783  14.445
40290W        W 6699  19.959  11.451  13.242
40291W        W 6700   1.735   0.588   2.348
40292W        W 6701  39.397  14.986  14.864
40293W        W 6702  22.069   6.923   0.456
40294W        W 6703  33.987  17.954  11.651
40295W        W 6704  31.513   3.971  13.946
40296W        W 6705   1.427   8.752   0.710
40297W        W 6706  31.805  42.781   1.009
40298W        W 6707  38.582  28.516  13.642
40299W        W 6708  35.994  13.219  14.846
40300W        W 6709  20.940  38.175  11.818
40301W        W 6710  28.586  32.390   4.204
40302W        W 6711  12.857  40.506   4.518
40303W        W 6712  18.450  26.474  11.551
40304W        W 6713   1.722  29.735   4.223
40305W        W 6714   6.814  10.286  10.434
40306W        W 6715  10.089  42.409  14.361
40307W        W 6716   7.940  24.500  13.345
40308W        W 6717  21.123   7.327   3.146
40309W        W 6718   2.642  35.100  13.501
40310W        W 6719  12.016  37.856   1.705
40311W        W 6720   6.404  34.170  12.401
40312W        W 6721  19.190   6.903  10.519
40313W        W 6722  11.220   0.449  14.388
40314W        W 6723   6.481  44.626   1.439
40315W        W 6724  34.958  30.611   2.604
40316W        W 6725  39.807   2.452   0.120
40317W        W 6726   0.693  11.747  13.968
40318W        W 6727  28.554  21.961   2.169
40319W        W 6728   3.247  34.401   3.782
40320W        W 6729   9.127  32.051   3.632
40321W        W 6730  35.938   1.997  14.704
40322W        W 6731  44.803  14.820   1.779
40323W        W 6732  14.406  16.153  13.263
40324W        W 6733  31.459  25.721   4.598
40325W        W 6734  30.701  30.434   4.172
40326W        W 6735  32.396  21.671  11.195
40327W        W 6736  21.004  12.470   4.033
40328W        W 6737  35.535   1.523   4.797
40329W        W 6738  35.896   1.112   4.010
40330W        W 6739  29.153   0.926   2.086
40331W        W 6740  32.361  38.174  12.203
40332W        W 6741  15.950   2.912  12.450
40333W        W 6742  15.151  30.141   0.824
40334W        W 6743  39.212  35.063  13.093
40335W        W 6744  31.359  10.163   1.231
40336W        W 6745  30.569  19.704   4.155
40337W        W 6746  11.518  42.451  14.476
40338W        W 6747  21.178   8.598  12.605
40339W        W 6748   8.120   7.809   4.400
40340W        W 6749   1.944   7.273   0.871
40341W        W 6750  18.579   4.154   0.780
40342W        W 6751  17.084   6.673   4.119
40343W        W 6752  12.172  31.609  11.735
40344W        W 6753  32.280  32.569  12.828
40345W        W 6754  24.313   5.383  13.877
40346W        W 6755  13.713  33.990  12.519
40347W        W 6756  36.321  33.426  11.786
40348W        W 6757   2.531  20.083  11.574
40349W        W 6758  31.146  33.959  13.286
40350W        W 6759  10.501  13.655   2.242
40351W        W 6760   4.279  39.879   3.284
40352W        W 6761  16.538  36.895   0.501
40353W        W 6762   4.206  35.987  10.755
40354W        W 6763  27.281  43.657  11.968
40355W        W 6764   0.052  10.709  11.237
40356W        W 6765  34.646   8.953  13.398
40357W        W 6766   8.752  26.410  11.237
40358W        W 6767  31.501   2.936  14.554
40359W        W 6768   6.742  34.119   3.825
40360W        W 6769  10.261  23.644  11.534
40361W        W 6770   3.203   8.128   1.860
40362W        W 6771  30.684  22.489   3.307
40363W        W 6772   3.055  36.587  11.125
40364W        W 6773   8.767  37.761   2.735
40365W        W 6774  11.588   4.123   0.945
40366W        W 6775  36.904  20.259  14.289
40367W        W 6776  18.293  20.217   0.777
40368W        W 6777   5.501  29.551   3.812
40369W        W 6778  26.175  38.555  12.484
40370W        W 6779  24.863  35.411  11.575
40371W        W 6780   3.061  41.414   0.626
40372W        W 6781  40.431  27.021   0.230
40373W        W 6782  29.997  27.573   4.634
40374W        W 6783  42.268  10.982   4.017
40375W        W 6784  21.105  37.026   0.537
40376W        W 6785  15.671  32.885  12.844
40377W        W 6786   4.963  36.599   0.251
40378W        W 6787  16.663  14.297   4.594
40379W        W 6788   1.835  10.672  10.489
40380W        W 6789   0.161   7.433   2.892
40381W        W 6790  10.103  27.007  10.144
40382W        W 6791  44.988   9.306   1.347
40383W        W 6792  30.583  10.736  12.081
40384W        W 6793  29.979  25.616   1.807
40385W        W 6794  32.274   0.638   1.430
40386W        W 6795  41.326  25.723  14.777
40387W        W 6796   4.735  38.722   1.765
40388W        W 6797  11.137  16.194  14.625
40389W        W 6798  27.557  40.463   1.002
40390W        W 6799  22.942  22.482   1.403
40391W        W 6800  32.096   2.368   3.593
40392W        W 6801  24.319   5.239   2.170
40393W        W 6802  27.663   4.623   1.188
40394W        W 6803   1.932  40.016   4.548
40395W        W 6804  33.583  43.341   3.866
40396W        W 6805  38.211  32.081   2.808
40397W        W 6806  26.957  19.004  13.739
40398W        W 6807   9.823   2.011   1.770
40399W        W 6808  17.639  11.330   1.475
40400W        W 6809   2.198  33.906   0.721
40401W        W 6810  39.189  18.120   3.115
40402W        W 6811  37.961  38.750   1.126
40403W        W 6812  43.229   0.989  13.957
40404W        W 6813  32.688  39.383   0.929
40405W        W 6814  34.671  24.215   4.636
40406W        W 6815  25.739  29.206  11.024
40407W        W 6816   8.704  14.358   0.201
40408W        W 6817  34.170   4.340  12.485
40409W        W 6818   4.305  25.745   1.689
40410W        W 6819  11.758  14.558   1.912
40411W        W 6820  15.337  31.370   1.477
40412W        W 6821  42.326  43.005   1.005
40413W        W 6822  35.382   9.706  13.411
40414W        W 6823   8.235  44.997   2.869
40415W        W 6824  28.177  35.802  14.482
40416W        W 6825  13.495  19.524  12.336
40417W        W 6826  28.999  16.117  11.029
40418W        W 6827  18.510  13.095   0.378
40419W        W 6828  15.110   9.742   3.665
40420W        W 6829  35.114  44.239  14.748
40421W        W 6830  39.343   7.041  14.027
40422W        W 6831  33.756  23.081   1.569
40423W        W 6832   6.424  30.891  10.652
40424W        W 6833  37.820  42.278  11.177
40425W        W 6834   0.737  24.571  13.132
40426W        W 6835  22.675  15.709   3.687
40427W        W 6836  14.540  36.738   4.486
40428W        W 6837  32.529  15.190   3.833
40429W        W 6838   1.380  11.743   0.688
40430W        W 6839   7.424  27.005   1.667
40431W        W 6840  42.265  30.166  13.446
40432W        W 6841  11.286  29.171   0.239
40433W        W 6842  34.945  41.503  12.999
40434W        W 6843  44.017  32.979  14.878
40435W        W 6844  41.424  41.103   3.720
40436W        W 6845  36.304  41.336   2.265
40437W        W 6846  10.464  29.350   2.310
40438W        W 6847  40.379  29.974  14.057
40439W        W 6848  15.280   9.639   2.675
40440W        W 6849   1.725  32.019  12.460
40441W        W 6850  14.998  36.098   3.750
40442W        W 6851  20.459  10.840  11.516
40443W        W 6852  12.965  35.429  10.625
40444W        W 6853   5.221  35.982   3.806
40445W        W 6854  33.723  38.174   5.007
40446W        W 6855  19.744  44.112  14.594
40447W        W 6856   7.490   6.759   4.186
40448W        W 6857  34.007   3.341   1.939
40449W        W 6858  17.161  41.780  10.915
40450W        W 6859  30.122  12.377   2.674
40451W        W 6860   7.722   3.860  13.724
40452W        W 6861   6.343  35.541   2.473
40453W        W 6862  14.034  27.949  13.464
40454W        W 6863   2.281  15.390  11.648
40455W        W 6864  40.614  35.744  10.120
40456W        W 6865  13.845  10.561  12.051
40457W        W 6866   9.891  19.255   3.792
40458W        W 6867  30.142   6.002  14.094
40459W        W 6868   9.272  35.058  12.859
40460W        W 6869   8.510  21.573   2.171
40461W        W 6870  27.632  31.586   0.799
40462W        W 6871  30.044  25.610  14.900
40463W        W 6872  29.152  40.898   1.702
40464W        W 6873  16.493  43.115   0.240
40465W        W 6874  28.057  17.494  11.178
40466W        W 6875   9.141  14.132  11.456
40467W        W 6876  20.176   4.914   1.448
40468W        W 6877  13.441  31.517  12.618
40469W        W 6878  27.344  26.931  10.752
40470W        W 6879  36.972  20.638  12.547
40471W        W 6880  34.659  11.780   2.713
40472W        W 6881  32.818  15.338   0.664
40473W        W 6882  10.319  17.266   3.409
40474W        W 6883  33.341  30.199   3.632
40475W        W 6884  38.766  12.202  14.959
40476W        W 6885  23.079   0.386  10.785
40477W        W 6886  38.843  19.168   4.019
40478W        W 6887  21.126  41.393   0.180
40479W        W 6888  34.625  25.565   2.884
40480W        W 6889   1.341  32.566   3.216
40481W        W 6890  27.524  30.068  10.732
40482W        W 6891  12.190  38.396  14.878
40483W        W 6892  23.506  26.020  13.991
40484W        W 6893  43.920  20.831   4.101
40485W        W 6894  18.765  18.868   1.454
40486W        W 6895  22.037   7.184   4.539
40487W        W 6896  41.115   5.871  12.170
40488W        W 6897  20.490   8.320  11.081
40489W        W 6898  24.972  37.908   3.365
40490W        W 6899  37.221  40.840   4.593
40491W        W 6900  42.920  30.689   4.486
40492W        W 6901  22.068  44.311   3.212
40493W        W 6902   1.769  39.446   4.132
40494W        W 6903  38.464  14.519   2.328
40495W        W 6904  17.521  35.220   2.845
40496W        W 6905   4.471  42.054   2.824
40497W        W 6906   6.205  29.044   3.610
40498W        W 6907  24.731  24.876   1.969
40499W        W 6908  23.798   0.797  14.550
40500W        W 6909   0.023  34.837   0.411
40501W        W 6910   0.906  29.425  12.474
40502W        W 6911  23.890  27.571  11.967
40503W        W 6912  26.136  27.343   4.610
40504W        W 6913  31.680   3.868   1.806
40505W        W 6914  24.255   3.834  14.411
40506W        W 6915  33.785  40.147  10.025
40507W        W 6916  43.364   6.704   1.675
40508W        W 6917  40.001  20.013   1.853
40509W        W 6918  24.100  18.937   1.016
40510W        W 6919  25.276  36.371   2.866
40511W        W 6920  28.943  38.862   3.819
40512W        W 6921  24.824   9.259   4.471
40513W        W 6922  30.493  25.140  12.361
40514W        W 6923  32.196  36.686   1.142
40515W        W 6924  43.992  16.180  13.808
40516W        W 6925  29.907  32.802  14.654
40517W        W 6926  30.969  12.096   1.240
40518W        W 6927  38.620  22.628  13.615
40519W        W 6928   4.870  29.050   4.405
40520W        W 6929  14.172  10.698   1.314
40521W        W 6930  44.179  43.400   1.273
40522W        W 6931  37.971  44.077  13.027
40523W        W 6932  33.621   5.695  13.381
40524W        W 6933  13.534   3.226  12.422
40525W        W 6934  13.470  13.299  12.611
40526W        W 6935  29.702  44.230   0.766
40527W        W 6936  22.310  42.825   0.917
40528W        W 6937  26.239  18.684  10.670
40529W        W 6938  22.256  27.608   1.709
40530W        W 6939  21.128  34.469   3.270
40531W        W 6940  42.707  13.215   2.237
40532W        W 6941   3.342  44.243  13.397
40533W        W 6942  23.110  36.579   3.289
40534W        W 6943  16.965  11.850   0.009
40535W        W 6944  26.499   6.990  13.552
40536W        W 6945   9.610  44.863  10.685
40537W        W 6946  40.435   4.564  14.871
40538W        W 6947   4.819  43.601  11.461
40539W        W 6948   0.803  12.108  11.932
40540W        W 6949  18.005  42.295   0.709
40541W        W 6950  33.566  18.016   3.338
40542W        W 6951  41.941  35.382  13.794
40543W        W 6952   1.357  40.104  14.396
40544W        W 6953  20.268  32.106  14.333
40545W        W 6954   5.908  37.865  13.481
40546W        W 6955  41.243  23.517   0.463
40547W        W 6956  13.777  26.550   1.173
40548W        W 6957  21.705  31.843  14.385
40549W        W 6958   4.366  15.332   1.194
40550W        W 6959  30.497  12.275  13.917
40551W        W 6960   2.951  13.019   3.576
40552W        W 6961   7.529   7.493  13.796
40553W        W 6962  18.719  33.016  13.022
40554W        W 6963   2.908  27.674  11.236
40555W        W 6964  24.948   5.915  12.870
40556W        W 6965   6.748  30.637   3.262
40557W        W 6966  25.173  21.574  14.891
40558W        W 6967  30.686  22.052   0.418
40559W        W 6968  17.097  28.216  14.911
40560W        W 6969  41.434  36.341   1.925
40561W        W 6970   4.898  25.980  10.774
40562W        W 6971  31.023   4.814  12.743
40563W        W 6972  44.693  22.656   0.273
40564W        W 6973  37.673  19.226   2.594
40565W        W 6974  40.713   0.989   1.901
40566W        W 6975  20.959  11.528  14.947
40567W        W 6976  25.027  39.746  12.004
40568W        W 6977   4.939   3.866  11.557
40569W        W 6978  42.059  33.294  12.111
40570W        W 6979  37.673  41.895   0.835
40571W        W 6980  22.168  14.560   0.339
40572W        W 6981   0.947   5.262  12.999
40573W        W 6982  24.060  30.208  12.567
40574W        W 6983  12.756   4.699  12.145
40575W        W 6984   6.153  15.876   2.851
40576W        W 6985  16.343  22.797   2.884
40577W        W 6986  27.054  38.001  11.979
40578W        W 6987  36.226   6.325   4.005
40579W        W 6988  24.966  26.570   4.598
40580W        W 6989  44.404  28.682   1.820
40581W        W 6990  31.410  10.627   0.953
40582W        W 6991   3.113  16.637   2.016
40583W        W 6992  26.162  18.735   4.104
40584W        W 6993   2.119  40.719   0.926
40585W        W 6994  10.232   7.293   1.802
40586W        W 6995   7.187  34.290   9.886
40587W        W 6996   8.722  10.667  11.595
40588W        W 6997  41.373  38.676   1.923
40589W        W 6998  20.538  36.170  14.936
40590W        W 6999   8.774  20.301  14.195
40591W        W 7000   3.764  35.574  14.749
40592W        W 7001  42.724  36.520  14.917
40593W        W 7002  40.048  10.758   4.980
40594W        W 7003  31.969   1.993  13.357
40595W        W 7004  11.149  43.209  14.008
40596W        W 7005  21.136  33.419  12.009
40597W        W 7006  14.969  27.805  11.195
40598W        W 7007  18.660   0.917   0.889
40599W        W 7008  42.242  15.702   3.667
40600W        W 7009  27.637  26.075  11.690
40601W        W 7010   8.573   4.603  10.199
40602W        W 7011  25.515  11.027   0.532
40603W        W 7012  44.374  44.784   3.643
40604W        W 7013  13.941   4.613  12.375
40605W        W 7014  33.433  42.387  11.964
40606W        W 7015  32.006  34.327  12.089
40607W        W 7016   5.762  32.579   4.893
40608W        W 7017  38.294  16.584  11.985
40609W        W 7018   1.743  14.180  13.314
40610W        W 7019  16.707  29.625  14.804
40611W        W 7020  30.909  17.833   3.946
40612W        W 7021  29.417  44.813   2.712
40613W        W 7022  23.109  13.904   2.694
40614W        W 7023   9.117  41.098   0.873
40615W        W 7024  20.806  14.558   0.362
40616W        W 7025  35.409  39.735   0.765
40617W        W 7026  19.457  26.069  12.093
40618W        W 7027  38.975   5.660   4.951
40619W        W 7028  17.792  16.009  12.072
40620W        W 7029  22.618  16.878  10.509
40621W        W 7030  38.785   7.023   4.267
40622W        W 7031  29.416  29.381   3.755
40623W        W 7032  14.740  26.208   3.407
40624W        W 7033  29.078  25.217  11.206
40625W        W 7034  31.193   7.028   1.288
40626W        W 7035  35.104  19.629  10.130
40627W        W 7036   3.975  16.186   2.277
40628W        W 7037   1.034  12.626   1.444
40629W        W 7038  18.595  14.098   3.244
40630W        W 7039   3.397  16.028   3.839
40631W        W 7040  22.640  37.768  13.550
40632W        W 7041  30.557   9.741  10.265
40633W        W 7042  26.086  39.412  12.541
40634W        W 7043  36.569  15.133   1.906
40635W        W 7044  29.022  34.310  12.270
40636W        W 7045  36.404  28.342   3.993
40637W        W 7046  15.352  14.189  13.499
40638W        W 7047  12.147  28.176  12.206
40639W        W 7048   7.646  14.219  14.327
40640W        W 7049  26.555  11.789   1.618
40641W        W 7050  42.559  39.939   3.768
40642W        W 7051  41.343  20.067   4.534
40643W        W 7052   4.318  25.883   1.170
40644W        W 7053  21.271  12.858   2.959
40645W        W 7054  25.092  19.940  10.258
40646W        W 7055  24.504  36.034   0.663
40647W        W 7056  32.683  43.776  10.669
40648W        W 7057  18.028  41.358   3.525
40649W        W 7058   0.856  10.816   2.059
40650W        W 7059  44.003  13.564  13.621
40651W        W 7060  10.572   4.020  13.811
40652W        W 7061  41.902   9.668   1.410
40653W        W 7062  27.905   5.619  13.458
40654W        W 7063   5.536   4.695  11.620
40655W        W 7064  20.084  44.501  10.681
40656W        W 7065  13.828  36.189  11.119
40657W        W 7066  37.951  17.374   0.463
40658W        W 7067  25.838  18.250   3.377
40659W        W 7068  36.288  25.090  12.734
40660W        W 7069  32.920  12.811  11.137
40661W        W 7070   2.021  27.431  11.673
40662W        W 7071  19.161  10.649  13.331
40663W        W 7072  41.540  31.828   2.852
40664W        W 7073  31.887  27.115   1.263
40665W        W 7074  28.859  17.521   4.345
40666W        W 7075  33.033  14.406  13.036
40667W        W 7076  10.333   6.361   3.562
40668W        W 7077  10.871   7.698  12.629
40669W        W 7078  10.391   4.870  14.526
40670W        W 7079  12.053  38.567   3.294
40671W        W 7080  14.298  32.830  12.417
40672W        W 7081  39.480   2.843  11.577
40673W        W 7082  16.430  29.508  10.433
40674W        W 7083  26.563  16.772   0.813
40675W        W 7084  19.318  12.537   2.786
40676W        W 7085  35.920   7.914  13.058
40677W        W 7086  31.452  27.948   1.211
40678W        W 7087   1.518  29.592  12.016
40679W        W 7088  14.961   2.856   3.038
40680W        W 7089  18.603  29.216   0.732
40681W        W 7090  39.793  24.433  11.163
40682W        W 7091  38.021   5.144   0.685
40683W        W 7092  25.646  44.279  11.233
40684W        W 7093  11.599  25.463  12.670
40685W        W 7094  14.923   8.669   2.881
40686W        W 7095  24.303  29.212   2.823
40687W        W 7096  24.790  21.833  12.121
40688W        W 7097  33.711   4.046  12.063
40689W        W 7098  13.573  20.281   2.265
40690W        W 7099  24.207  24.687   3.628
40691W        W 7100  14.403   0.965   3.399
40692W        W 7101  30.224  26.509  10.641
40693W        W 7102  11.806  30.983   4.597
40694W        W 7103  13.729  21.298   3.562
40695W        W 7104  18.251  35.630   3.864
40696W        W 7105  24.480  15.439   4.768
40697W        W 7106   7.442   6.325   4.497
40698W        W 7107  43.922  14.237   3.759
40699W        W 7108   9.431  42.481   1.840
40700W        W 7109  36.598  35.560   3.583
40701W        W 7110  17.480  30.629   2.396
40702W        W 7111   5.684   8.235   2.209
40703W        W 7112  33.391  13.295  11.721
40704W        W 7113   0.766  28.014   3.643
40705W        W 7114  18.239  29.116  11.403
40706W        W 7115  23.743  32.006   3.659
40707W        W 7116  27.115   0.073  11.165
40708W        W 7117  29.930  42.754   3.591
40709W        W 7118  18.188  37.583  11.878
40710W        W 7119  11.298  18.637  13.163
40711W        W 7120  20.146  24.669   0.080
40712W        W 7121  11.616  29.459  14.945
40713W        W 7122  32.829  30.902  14.620
40714W        W 7123  25.006  23.456  14.729
40715W        W 7124  12.330   6.479   5.228
40716W        W 7125   5.949  14.588   1.328
40717W        W 7126  33.996  34.082   4.644
40718W        W 7127   3.919  15.076  10.517
40719W        W 7128  21.627  11.277   0.414
40720W        W 7129  36.000  28.641  11.966
40721W        W 7130  14.125  43.590   3.784
40722W        W 7131  31.877  21.468   0.247
40723W        W 7132   7.970  27.494  13.166
40724W        W 7133  38.835   5.679   9.927
40725W        W 7134  18.623  37.120  11.787
40726W        W 7135  15.031  42.957   1.107
40727W        W 7136  39.816  34.695   0.272
40728W        W 7137  17.225  11.800  11.436
40729W        W 7138  33.946  44.680   2.040
40730W        W 7139  39.994   7.442   0.744
40731W        W 7140  38.445   4.573  13.189
40732W        W 7141  13.687   3.682   0.746
40733W        W 7142  22.458   1.681   3.077
40734W        W 7143  19.002   6.045  13.474
40735W        W 7144  19.081  11.076  10.757
40736W        W 7145   5.725  32.998   1.338
40737W        W 7146  17.331   6.438  13.884
40738W        W 7147  18.495   1.339   2.950
40739W        W 7148   0.449  40.829   2.180
40740W        W 7149   3.748   1.056  11.820
40741W        W 7150  44.870  12.744  11.440
40742W        W 7151  23.445   2.865  13.917
40743W        W 7152  28.736  40.918  11.581
40744W        W 7153  18.402   6.250  14.889
40745W        W 7154  20.052  10.898   4.539
40746W        W 7155  22.755  25.760   3.761
40747W        W 7156  26.712  11.776   3.618
40748W        W 7157  21.012   5.977   3.420
40749W        W 7158   8.954  25.577   4.932
40750W        W 7159  33.547  37.319  13.856
40751W        W 7160   7.344   4.156   1.711
40752W        W 7161  43.249  32.514   4.604
40753W        W 7162   7.792  29.845   0.791
40754W        W 7163  38.272  37.427   2.425
40755W        W 7164   6.905   6.204  14.753
40756W        W 7165  40.250   6.846  13.535
40757W        W 7166  21.800   4.783   3.568
40758W        W 7167   2.880  17.201   0.258
40759W        W 7168  16.016   8.420   2.406
40760W        W 7169  14.120   3.755   0.471
40761W        W 7170  10.416  44.501  12.108
40762W        W 7171  13.864  24.262  12.861
40763W        W 7172  32.371  16.181   4.304
40764W        W 7173  31.403  22.652  10.460
40765W        W 7174  21.006  41.635  12.551
40766W        W 7175  37.618  38.346   1.212
40767W        W 7176  12.359  18.716   0.687
40768W        W 7177  27.590  20.045  13.292
40769W        W 7178  12.753  30.444  11.486
40770W        W 7179  36.048  31.392   0.970
40771W        W 7180  23.444  35.036  13.613
40772W        W 7181  37.848  34.480   2.932
40773W        W 7182  25.229  44.796  12.671
40774W        W 7183  10.335  35.157   3.681
40775W        W 7184  12.151   7.144  11.481
40776W        W 7185  17.806   6.933   1.691
40777W        W 7186   4.248  23.713  13.858
40778W        W 7187  10.424   5.421   4.252
40779W        W 7188  34.377  34.426  14.504
40780W        W 7189   7.896   2.818  10.672
40781W        W 7190   4.999  21.844   3.138
40782W        W 7191   4.941   6.304  13.918
40783W        W 7192  26.632  32.389  13.475
40784W        W 7193  39.913  37.609  13.081
40785W        W 7194  33.015  22.099   0.256
40786W        W 7195  41.933  35.996   1.865
40787W        W 7196   7.646  18.247  14.053
40788W        W 7197   9.120  38.916   2.252
40789W        W 7198   7.953  37.458   1.372
40790W        W 7199  24.332   3.235  13.822
40791W        W 7200  26.871  30.997  13.474
40792W        W 7201   0.752   3.187  13.966
40793W        W 7202  21.610   0.684  14.314
40794W        W 7203  20.293  26.466   1.931
40795W        W 7204   0.838  32.988  12.071
40796W        W 7205  19.098  10.718   0.083
40797W        W 7206  40.275  16.594  12.930
40798W        W 7207  36.550  29.644  14.584
40799W        W 7208  20.619  13.128  13.458
40800W        W 7209   4.699  19.583  10.648
40801W        W 7210  17.701  33.944  11.889
40802W        W 7211  43.900  39.352   1.631
40803W        W 7212   7.712   8.151   0.855
40804W        W 7213  11.626  13.751   2.766
40805W        W 7214   1.995  37.093  14.267
40806W        W 7215  34.047   2.083   0.807
40807W        W 7216  25.560   2.501  12.224
40808W        W 7217  22.362  31.209   2.752
40809W        W 7218   9.898  18.272   2.289
40810W        W 7219  14.186   9.284  12.046
40811W        W 7220  35.111  27.692  14.876
40812W        W 7221  30.977   9.122   1.960
40813W        W 7222  14.284  29.450  11.718
40814W        W 7223  34.396  35.886   2.455
40815W        W 7224   0.733  14.799   2.220
40816W        W 7225   6.881  27.145  11.601
40817W        W 7226  34.586  42.842   4.058
40818W        W 7227  35.450   5.460  14.415
40819W        W 7228  16.043  31.981  10.991
40820W        W 7229  20.690  13.291  12.981
40821W        W 7230  25.467  37.580   5.029
40822W        W 7231  24.113  43.886   0.950
40823W        W 7232   6.378  44.249  10.674
40824W        W 7233  41.383  23.755  12.089
40825W        W 7234  32.194  21.621   0.624
40826W        W 7235   2.758  31.113   0.643
40827W        W 7236   4.955   9.116   0.334
40828W        W 7237  43.169  14.364  14.901
40829W        W 7238  10.607  19.182   0.444
40830W        W 7239  12.337  42.135  12.965
40831W        W 7240   1.826  28.422  14.550
40832W        W 7241  14.142  36.824  14.463
40833W        W 7242  29.514  17.800   2.595
40834W        W 7243  14.372  15.201  12.769
40835W        W 7244  13.232   4.953   0.826
40836W        W 7245  12.398  23.497  14.877
40837W        W 7246   5.855   5.763   2.792
40838W        W 7247   8.928  31.697  11.165
40839W        W 7248  34.120  26.099  13.880
40840W        W 7249   4.221   3.707  11.100
40841W        W 7250   0.642  13.708  12.964
40842W        W 7251  29.998  44.469  11.358
40843W        W 7252   7.319   9.856   3.468
40844W        W 7253  43.711  28.807   1.337
40845W        W 7254  13.684  16.326   3.191
40846W        W 7255  12.636   7.178   3.269
40847W        W 7256  30.152  17.530   0.229
40848W        W 7257  19.229  39.511  12.428
40849W        W 7258  29.487  22.694  12.516
40850W        W 7259  40.614  11.625  14.584
40851W        W 7260  15.649  40.935   0.052
40852W        W 7261  13.837  39.067  11.994
40853W        W 7262   2.226  22.143  12.597
40854W        W 7263  25.240   9.282  12.358
40855W        W 7264  37.729  23.276  14.630
40856W        W 7265  22.198  28.018   2.733
40857W        W 7266  30.569  19.822   2.303
40858W        W 7267   6.316  34.013  12.927
40859W        W 7268  20.691  23.243  13.359
40860W        W 7269  18.086  22.831  14.417
40861W        W 7270  32.383  39.047  13.777
40862W        W 7271  15.285  23.805   3.124
40863W        W 7272   3.277  39.064  14.956
40864W        W 7273   3.802  16.774   1.288
40865W        W 7274  13.333  10.905  14.276
40866W        W 7275  24.456  24.810  10.540
40867W        W 7276  34.977  28.052  14.504
40868W        W 7277  20.072  20.196   1.419
40869W        W 7278  31.918   5.733   0.797
40870W        W 7279   0.759  35.135  13.334
40871W        W 7280  10.855  41.912   3.167
40872W        W 7281  34.338  41.980   3.202
40873W        W 7282  17.896  40.765   2.705
40874W        W 7283  29.779   8.372   4.489
40875W        W 7284  29.819   6.718   5.053
40876W        W 7285  26.562  21.176  12.833
40877W        W 7286  21.578  29.653   3.122
40878W        W 7287   3.048  42.661   1.895
40879W        W 7288  33.602  14.390   3.998
40880W        W 7289  31.996  24.814  12.552
40881W        W 7290  16.781  15.130  12.996
40882W        W 7291  39.712   5.018  14.761
40883W        W 7292  25.751   7.775  12.656
40884W        W 7293  29.504  19.236   4.226
40885W        W 7294  35.896  36.751  11.222
40886W        W 7295  18.976  20.156  11.616
40887W        W 7296  41.516  11.705  11.976
40888W        W 7297  13.201  39.026  14.485
40889W        W 7298   9.202  34.893   2.595
40890W        W 7299   0.376  30.468  11.364
40891W        W 7300  28.005  25.686  13.739
40892W        W 7301  38.401  37.207  11.499
40893W        W 7302  14.576  38.957  14.334
40894W        W 7303  42.806  32.996   3.999
40895W        W 7304   2.566  29.543  13.486
40896W        W 7305  35.791  40.204  11.165
40897W        W 7306  33.434  23.733   0.465
40898W        W 7307   7.354   0.001   3.205
40899W        W 7308  25.071  41.354  11.629
40900W        W 7309  10.644  36.470  10.885
40901W        W 7310  10.716  41.873   0.965
40902W        W 7311  13.670   1.635  13.790
40903W        W 7312  40.300  21.727   2.281
40904W        W 7313  25.428  44.367  14.407
40905W        W 7314  23.427   6.389   4.081
40906W        W 7315  39.565   2.253  14.303
40907W        W 7316  17.036   4.863  10.766
40908W        W 7317  13.389  18.025   0.545
40909W        W 7318  27.523  36.744   4.737
40910W        W 7319  32.650  27.561   1.792
40911W        W 7320  39.232  29.209   4.073
40912W        W 7321   9.673  30.705  12.033
40913W        W 7322  27.949  40.580   2.801
40914W        W 7323  38.689   9.833   2.399
40915W        W 7324   0.373  18.226  14.427
40916W        W 7325  38.787  32.013   4.287
40917W        W 7326   8.385  17.711   4.040
40918W        W 7327  16.144  11.635  13.967
40919W        W 7328  23.056  22.256   0.447
40920W        W 7329   1.246  21.090   2.836
40921W        W 7330  18.541  35.223   2.736
40922W        W 7331   3.777  25.314   0.717
40923W        W 7332  32.751  11.977   0.701
40924W        W 7333  42.249  26.832   4.197
40925W        W 7334  19.516  43.350   1.863
40926W        W 7335  33.076  36.006   4.428
40927W        W 7336  30.778  14.778   1.532
40928W        W 7337  18.770  25.438  14.720
40929W        W 7338  20.598   2.772   3.721
40930W        W 7339  18.889  12.720   2.572
40931W        W 7340  16.576  26.715   2.312
40932W        W 7341  13.836  42.064  11.147
40933W        W 7342  14.414   7.198  12.817
40934W        W 7343  41.608  33.359  12.357
40935W        W 7344  25.395  38.560   1.461
40936W        W 7345  23.139  33.671  12.972
40937W        W 7346  41.553   8.189   3.073
40938W        W 7347  23.700   5.191  14.495
40939W        W 7348  42.057  20.680  13.324
40940W        W 7349  33.914  37.600  11.604
40941W        W 7350  27.626  20.326   0.667
40942W        W 7351  12.796   1.339  12.895
40943W        W 7352  35.883  30.297   3.538
40944W        W 7353  12.105   6.450   3.327
40945W        W 7354  24.892  33.673   1.270
40946W        W 7355  20.869  41.081   3.724
40947W        W 7356   4.338  29.894   1.196
40948W        W 7357  27.422  39.972  10.684
40949W        W 7358  24.891  13.671   2.441
40950W        W 7359  33.056  23.588   3.688
40951W        W 7360   3.257  38.368  10.700
40952W        W 7361  16.404   5.730  11.630
40953W        W 7362  22.574  43.917   1.399
40954W        W 7363  34.383  14.529   0.924
40955W        W 7364   9.353  39.567   0.751
40956W        W 7365   8.812  20.292  13.429
40957W        W 7366  22.705   7.788   4.507
40958W        W 7367  10.150  34.092   2.316
40959W        W 7368  40.254  11.076   3.637
40960W        W 7369  10.624  22.814  14.322
40961W        W 7370  31.121  30.066   2.851
40962W        W 7371  21.790  27.209   3.095
40963W        W 7372   2.219  23.235   0.022
40964W        W 7373  18.590   8.828   1.783
40965W        W 7374  44.969  25.558  12.582
40966W        W 7375  12.555  22.570   5.056
40967W        W 7376   7.348   4.405   0.463
40968W        W 7377  40.621   2.989   3.255
40969W        W 7378  18.730   1.769   2.769
40970W        W 7379  41.073  29.360  14.921
40971W        W 7380   2.225   3.960   2.665
40972W        W 7381  41.169  34.049   0.419
40973W        W 7382  37.751  10.884   0.583
40974W        W 7383   4.647  40.740  12.255
40975W        W 7384  41.978  37.976  10.970
40976W        W 7385  25.446  31.595   4.664
40977W        W 7386  38.252   1.814  11.722
40978W        W 7387  26.660  35.388   4.921
40979W        W 7388  43.758  42.569  14.022
40980W        W 7389  16.693  41.667  14.020
40981W        W 7390  23.180  24.963  14.246
40982W        W 7391  26.904  19.954   4.920
40983W        W 7392   9.739  13.491  11.919
40984W        W 7393  21.394  31.310   3.775
40985W        W 7394  33.007  30.350   0.835
40986W        W 7395  42.828  16.272   4.037
40987W        W 7396   3.877  38.858   1.674
40988W        W 7397  26.467  41.398   0.392
40989W        W 7398  41.745  13.338  11.068
40990W        W 7399   5.060  30.879   3.719
40991W        W 7400   9.424   5.345  10.691
40992W        W 7401  40.586  34.614   1.929
40993W        W 7402  21.180   5.708   0.715
40994W        W 7403  22.398  15.331   0.734
40995W        W 7404  12.935  25.032  10.649
40996W        W 7405  14.882  18.024  13.393
40997W        W 7406  28.448   5.286   2.111
40998W        W 7407  33.758  17.801   2.203
40999W        W 7408  18.977  10.857   1.492
41000W        W 7409  27.943  40.802   1.911
41001W        W 7410  21.978  44.407   2.386
41002W        W 7411   2.026  39.369  11.176
41003W        W 7412   7.420  20.124  11.938
41004W        W 7413   5.203  18.327  12.835
41005W        W 7414  38.294  39.293  14.017
41006W        W 7415  10.446  29.227  10.134
41007W        W 7416  33.396  25.054  13.547
41008W        W 7417  26.621   6.632  12.528
41009W        W 7418  30.263  15.681  14.522
41010W        W 7419   4.485  32.988   4.331
41011W        W 7420  12.077  16.679   1.262
41012W        W 7421  24.581  30.227   4.572
41013W        W 7422  12.195  34.854  14.641
41014W        W 7423  11.298  31.577   1.313
41015W        W 7424  13.724  43.223   1.843
41016W        W 7425  44.838   1.937   2.704
41017W        W 7426   6.092  29.999  10.209
41018W        W 7427  16.113  26.088  13.529
41019W        W 7428   8.618  25.208  11.548
41020W        W 7429   5.871  38.151   2.778
41021W        W 7430  25.120  32.468  10.937
41022W        W 7431   3.271   0.471  14.970
41023W        W 7432  23.394  34.602   4.253
41024W        W 7433  23.584  28.347  12.934
41025W        W 7434  15.830   1.876   2.540
41026W        W 7435  28.896  16.997   0.618
41027W        W 7436  19.406  19.502   1.262
41028W        W 7437  22.441   7.995  12.735
41029W        W 7438  16.161  16.856  14.148
41030W        W 7439   4.500  28.618   1.846
41031W        W 7440  40.130  39.490   2.851
41032W        W 7441  35.109  36.091   5.177
41033W        W 7442   8.982  22.705  12.988
41034W        W 7443  25.523   4.803  14.056
41035W        W 7444  26.165  33.973  13.284
41036W        W 7445  20.133  44.731   0.353
41037W        W 7446  30.700  39.748  12.490
41038W        W 7447  18.800   3.318  10.084
41039W        W 7448  40.541  35.040  10.879
41040W        W 7449  21.235  32.531   0.346
41041W        W 7450  43.853  39.537   2.546
41042W        W 7451  12.695  37.446  11.998
41043W        W 7452  27.554  39.487   3.615
41044W        W 7453  43.731  24.638   2.673
41045W        W 7454  37.329  20.269   1.924
41046W        W 7455  33.721   4.403   2.402
41047W        W 7456  38.865  17.019   1.049
41048W        W 7457  44.538  34.803  11.956
41049W        W 7458  10.376  20.668   3.655
41050W        W 7459  15.138   4.661   3.174
41051W        W 7460  16.512  38.868   0.338
41052W        W 7461  29.667  31.221  13.875
41053W        W 7462  33.645  43.449   4.372
41054W        W 7463  32.208  16.179   2.255
41055W        W 7464  23.485  25.013   2.361
41056W        W 7465  33.919  16.586   2.928
41057W        W 7466  15.126   3.732   3.600
41058W        W 7467  35.882  41.425   1.429
41059W        W 7468  19.361  18.691  13.542
41060W        W 7469  18.595  32.462   4.020
41061W        W 7470  25.154  11.908   4.585
41062W        W 7471  23.941  11.120   0.392
41063W        W 7472  13.759  26.060   1.885
41064W        W 7473  28.322   5.674   4.010
41065W        W 7474  43.331  16.502  11.385
41066W        W 7475   4.618  22.221   3.243
41067W        W 7476  31.656  32.401  14.644
41068W        W 7477  37.946  28.552  14.574
41069W        W 7478  11.780   4.406   0.562
41070W        W 7479  28.002   9.222   3.205
41071W        W 7480  40.886  43.883  13.517
41072W        W 7481  33.516  42.963   1.387
41073W        W 7482   9.802  25.808  10.915
41074W        W 7483  44.015  29.223   3.100
41075W        W 7484  31.905   2.768   2.865
41076W        W 7485  20.420  24.478   4.115
41077W        W 7486  33.026   8.155   3.580
41078W        W 7487  38.945   2.762   1.390
41079W        W 7488  32.639  12.595   0.343
41080W        W 7489  24.258   8.568  12.453
41081W        W 7490  37.269   8.164  12.397
41082W        W 7491  41.041  31.771  11.556
41083W        W 7492  42.784  39.302   3.350
41084W        W 7493  23.866  30.623   2.469
41085W        W 7494  25.743   7.071  11.476
41086W        W 7495  26.999  37.495  12.012
41087W        W 7496   2.958   8.330  10.951
41088W        W 7497   7.480  23.364   1.795
41089W        W 7498  20.474  23.933   3.693
41090W        W 7499  20.182  26.634   3.753
41091W        W 7500   9.875  10.897   1.369
41092W        W 7501  27.468  12.420   3.328
41093W        W 7502  39.123  20.467   3.136
41094W        W 7503  16.223  40.077   2.239
41095W        W 7504  40.525  43.521  14.485
41096W        W 7505  41.807  12.613   2.262
41097W        W 7506  35.440   7.673   2.458
41098W        W 7507  11.088  38.345  14.835
41099W        W 7508  13.714  38.002  13.549
41100W        W 7509  17.491  16.636  13.267
41101W        W 7510  18.770  26.624  12.471
41102W        W 7511  42.483  32.691  14.917
41103W        W 7512  12.119   9.337   4.144
41104W        W 7513  28.384  44.000  10.986
41105W        W 7514  19.074  41.639   4.533
41106W        W 7515  14.343   9.743   0.101
41107W        W 7516  29.093  37.975   4.446
41108W        W 7517  21.537  39.561   2.333
41109W        W 7518  31.645  24.223   2.865
41110W        W 7519  17.715  42.886  11.602
41111W        W 7520  23.607  26.555  13.601
41112W        W 7521  28.549  31.859   4.262
41113W        W 7522   3.959  11.862   3.995
41114W        W 7523  19.686  21.966   2.736
41115W        W 7524  27.075   8.462  14.101
41116W        W 7525  25.742  24.497  14.080
41117W        W 7526   5.713  29.130   0.878
41118W        W 7527  33.111  22.040  14.240
41119W        W 7528   5.145   1.504   2.273
41120W        W 7529  19.370  42.968  11.499
41121W        W 7530  30.067   1.984  11.434
41122W        W 7531  18.189   7.191   0.990
41123W        W 7532  43.867   7.141   5.435
41124W        W 7533  15.422   1.785   0.057
41125W        W 7534  41.871  19.669   3.770
41126W        W 7535  24.226  10.220  14.675
41127W        W 7536   8.115  16.405   2.668
41128W        W 7537   9.568   9.692  10.702
41129W        W 7538   8.919   5.626  12.395
41130W        W 7539  24.507   3.348   0.146
41131W        W 7540   7.837  31.172   2.299
41132W        W 7541   1.723  20.511   2.700
41133W        W 7542  14.787   9.390  11.494
41134W        W 7543  29.529  41.745  14.524
41135W        W 7544   1.597  15.591   2.494
41136W        W 7545  31.907  19.191   4.574
41137W        W 7546  19.136  21.786  10.958
41138W        W 7547   8.318  11.655   2.285
41139W        W 7548  31.606  18.257   1.229
41140W        W 7549   6.117  36.935  12.432
41141W        W 7550  27.116  18.077  14.205
41142W        W 7551  35.571  40.497   3.403
41143W        W 7552  19.096  18.179  13.460
41144W        W 7553  23.576   1.858   1.607
41145W        W 7554  43.822  20.030  13.520
41146W        W 7555  15.875   8.162  12.877
41147W        W 7556  25.945  10.004  10.762
41148W        W 7557  21.022  18.624   1.299
41149W        W 7558  20.600   8.139   0.444
41150W        W 7559  33.189   1.390   4.115
41151W        W 7560  17.298  16.620   2.811
41152W        W 7561  12.147   9.569   4.596
41153W        W 7562   6.853  12.063   3.843
41154W        W 7563  20.199  27.433  14.336
41155W        W 7564  14.564  41.026  14.016
41156W        W 7565  28.919  10.289  11.949
41157W        W 7566  35.119  24.792  14.469
41158W        W 7567  38.168  21.206  11.461
41159W        W 7568   0.551  37.180  10.608
41160W        W 7569   8.664   4.656   4.083
41161W        W 7570   0.715  34.115   1.768
41162W        W 7571  10.168  20.155  10.124
41163W        W 7572  38.858  14.032  13.421
41164W        W 7573  26.171  36.955  13.830
41165W        W 7574   6.644  13.613   0.102
41166W        W 7575  11.729  32.093  11.652
41167W        W 7576  38.651   5.356  12.944
41168W        W 7577  14.100  15.787   3.574
41169W        W 7578  36.110   3.833  13.322
41170W        W 7579  10.977  29.486   3.387
41171W        W 7580  33.618  11.907  10.649
41172W        W 7581  29.365  36.781  13.915
41173W        W 7582  31.946  42.206  13.710
41174W        W 7583  25.032  29.228   1.242
41175W        W 7584  35.482  40.591  14.520
41176W        W 7585   3.765  14.076   2.676
41177W        W 7586  34.321  36.598   3.769
41178W        W 7587  33.972  42.558  13.574
41179W        W 7588  32.925  33.651  13.346
41180W        W 7589  32.919  17.211   1.255
41181W        W 7590  44.931  19.714   3.396
41182W        W 7591  42.927  21.245  10.369
41183W        W 7592  26.122  33.669   3.002
41184W        W 7593  28.855  42.432  13.856
41185W        W 7594  40.627  30.416  14.813
41186W        W 7595  19.035  36.321   4.225
41187W        W 7596  31.430  14.144   2.294
41188W        W 7597  17.895  18.832   3.059
41189W        W 7598  37.449   2.727  12.830
41190W        W 7599  12.158   6.994  12.449
41191W        W 7600  36.439   4.015   0.357
41192W        W 7601   9.821   6.278   4.289
41193W        W 7602  17.343  24.524   0.242
41194W        W 7603  33.665  16.874   2.210
41195W        W 7604  26.486  38.335  10.703
41196W        W 7605  34.492  28.152  13.531
41197W        W 7606  43.896  21.126   0.915
41198W        W 7607  38.082  13.861  11.966
41199W        W 7608  23.009  31.258   4.320
41200W        W 7609  18.163   1.654  14.881
41201W        W 7610  24.289   1.641   2.310
41202W        W 7611  24.142   0.052  11.699
41203W        W 7612   6.918  15.693   1.047
41204W        W 7613  25.488  26.596   0.968
41205W        W 7614  13.674  16.072   3.636
41206W        W 7615  44.547   0.923   1.238
41207W        W 7616  10.617  12.728  12.651
41208W        W 7617   6.875   6.224  13.871
41209W        W 7618   7.557  23.230  13.553
41210W        W 7619  42.325  40.453   4.621
41211W        W 7620  12.503  36.937   4.566
41212W        W 7621  40.329  10.021   0.097
41213W        W 7622  25.356  27.402   1.369
41214W        W 7623  28.239   9.219  10.700
41215W        W 7624  43.433  33.579  11.159
41216W        W 7625  44.907  21.256  11.597
41217W        W 7626  13.250  14.197  10.979
41218W        W 7627   3.635  26.175   3.905
41219W        W 7628   6.689  42.091  11.582
41220W        W 7629  33.548  17.286   0.420
41221W        W 7630  34.831  12.490   3.709
41222W        W 7631  35.578  25.005  11.244
41223W        W 7632  41.724  21.789  13.661
41224W        W 7633  39.573  11.972  12.890
41225W        W 7634  40.918  26.414  11.023
41226W        W 7635  17.224  10.645  11.997
41227W        W 7636   7.206  35.927   0.079
41228W        W 7637   3.201  36.397   3.588
41229W        W 7638   2.212  33.357  13.040
41230W        W 7639  41.815  13.123   4.787
41231W        W 7640  23.019  31.420  11.167
41232W        W 7641  26.918  39.259  13.866
41233W        W 7642  34.769  37.555  14.540
41234W        W 7643  31.457  22.627  14.143
41235W        W 7644   3.506  14.878   0.939
41236W        W 7645  25.326  37.999  13.809
41237W        W 7646  30.422   7.599   1.945
41238W        W 7647   8.295  20.783   0.467
41239W        W 7648   7.645  23.749   2.128
41240W        W 7649   0.526  11.386  14.791
41241W        W 7650   3.047  40.970   0.902
41242W        W 7651   0.350  43.015  14.384
41243W        W 7652   9.744  20.920  14.871
41244W        W 7653  14.204   9.425  14.405
41245W        W 7654  26.281  19.180   4.853
41246W        W 7655  20.741  34.340   0.281
41247W        W 7656  35.567  26.718   1.247
41248W        W 7657   7.669  22.124   4.594
41249W        W 7658  11.560  24.980  12.423
41250W        W 7659   5.689   9.831  10.698
41251W        W 7660  26.952   5.167   1.888
41252W        W 7661   3.690  25.547   0.129
41253W        W 7662   0.495  16.040   0.268
41254W        W 7663   6.317  11.255   2.912
41255W        W 7664  13.056  22.647   2.642
41256W        W 7665   6.615  40.039   0.799
41257W        W 7666   6.922   3.823  11.615
41258W        W 7667  19.964   7.815  11.224
41259W        W 7668  22.145  11.391  14.674
41260W        W 7669  21.696  42.358   2.739
41261W        W 7670   4.401  38.394  11.225
41262W        W 7671  19.694   1.526   4.419
41263W        W 7672  24.566  18.038  13.675
41264W        W 7673   4.224   2.453   3.635
41265W        W 7674  16.571  37.544   2.238
41266W        W 7675  17.339  34.040   3.699
41267W        W 7676  32.086  34.071   1.651
41268W        W 7677  41.535  15.762  14.301
41269W        W 7678  25.365  10.964  13.339
41270W        W 7679  26.516  10.462  11.121
41271W        W 7680  10.755  31.727   2.296
41272W        W 7681  22.815  38.021   4.865
41273W        W 7682  11.092  34.958  13.555
41274W        W 7683  15.332  36.387   0.052
41275W        W 7684  33.481  42.935   0.231
41276W        W 7685  40.726   9.157   3.558
41277W        W 7686  35.798  28.051  12.591
41278W        W 7687  29.036  12.466   2.223
41279W        W 7688  26.165  13.605  12.917
41280W        W 7689  28.730  40.857  14.341
41281W        W 7690  21.156  32.970  11.737
41282W        W 7691  32.030  40.027  13.081
41283W        W 7692  23.637  39.294   3.836
41284W        W 7693  28.976   6.300  11.645
41285W        W 7694  30.918   7.861  13.484
41286W        W 7695  42.255  16.198   3.894
41287W        W 7696  31.070  35.592  12.409
41288W        W 7697  30.868   8.401  11.839
41289W        W 7698   2.455  24.103  10.574
41290W        W 7699  25.424   0.033  10.853
41291W        W 7700  19.101  34.857  11.517
41292W        W 7701  31.454  38.595  14.462
41293W        W 7702  38.576  37.872  12.670
41294W        W 7703  37.514  35.364   0.783
41295W        W 7704   8.334  28.966   3.336
41296W        W 7705  19.083  43.549   0.029
41297W        W 7706  10.648   1.313  14.346
41298W        W 7707  23.928   4.200   4.044
41299W        W 7708  10.916  26.615   3.735
41300W        W 7709   8.869   3.839  12.123
41301W        W 7710  15.527  14.319  10.803
41302W        W 7711   2.762  16.644  11.312
41303W        W 7712  43.421   8.357   0.665
41304W        W 7713  27.615   6.238   4.649
41305W        W 7714  26.385   0.052  11.818
41306W        W 7715   2.260   7.649   4.082
41307W        W 7716   6.681  32.423   0.748
41308W        W 7717   3.492  40.088   4.570
41309W        W 7718  42.739  15.529   0.991
41310W        W 7719   2.166  43.438  10.553
41311W        W 7720  29.516   8.345  14.026
41312W        W 7721  26.553  34.009   3.039
41313W        W 7722  29.594  31.652   4.829
41314W        W 7723  44.786   7.277  10.637
41315W        W 7724  30.120  11.780   0.786
41316W        W 7725  24.025  40.372   4.470
41317W        W 7726  21.200  17.790  10.871
41318W        W 7727  43.717  25.992  14.265
41319W        W 7728  13.427  36.909   2.907
41320W        W 7729   7.447  30.719  10.660
41321W        W 7730  31.848  26.655  14.115
41322W        W 7731   4.880  21.602   2.150
41323W        W 7732  16.960   5.679   4.098
41324W        W 7733   2.995  18.579  13.282
41325W        W 7734  15.650  10.545   4.613
41326W        W 7735   5.607  11.242  11.690
41327W        W 7736  30.094  22.538  10.944
41328W        W 7737  33.093  12.625   4.118
41329W        W 7738  23.663  15.830  12.479
41330W        W 7739  26.152  18.132  13.064
41331W        W 7740   5.441  38.501  13.343
41332W        W 7741  40.187  21.973  14.384
41333W        W 7742  41.544  10.191  11.976
41334W        W 7743   5.955  35.743   3.266
41335W        W 7744  11.764  35.147  14.588
41336W        W 7745   7.675  12.172  11.565
41337W        W 7746  34.387  31.629  13.391
41338W        W 7747  39.545  31.183   2.700
41339W        W 7748  21.579  31.203   0.127
41340W        W 7749  21.179  36.338   4.099
41341W        W 7750  25.942   2.314  13.922
41342W        W 7751   0.192  38.501   3.500
41343W        W 7752  43.918  38.372  11.925
41344W        W 7753  15.714   3.362  14.912
41345W        W 7754  23.259   0.033   2.993
41346W        W 7755  39.262  19.570   1.732
41347W        W 7756   4.693  35.454  11.496
41348W        W 7757  15.343   0.825   1.366
41349W        W 7758  12.087  39.099   3.346
41350W        W 7759  22.514  31.718   4.844
41351W        W 7760  42.100  18.051  13.404
41352W        W 7761  18.520   9.157  13.557
41353W        W 7762  33.555  16.633  14.118
41354W        W 7763  43.401   4.170   2.261
41355W        W 7764   3.860  20.777   4.675
41356W        W 7765  29.800   9.407   5.371
41357W        W 7766  25.212  40.978   3.712
41358W        W 7767  34.881   3.035   1.806
41359W        W 7768   1.396  37.073   1.967
41360W        W 7769  31.870  40.673   4.998
41361W        W 7770  41.035  40.861  14.712
41362W        W 7771  22.477   4.005  13.496
41363W        W 7772  25.007  22.598  13.490
41364W        W 7773  42.436  23.972  13.398
41365W        W 7774  44.831  32.864  12.451
41366W        W 7775  28.233  30.201  13.967
41367W        W 7776  21.415  25.010   2.397
41368W        W 7777  39.379   9.643   0.404
41369W        W 7778  27.550  13.598  12.639
41370W        W 7779  33.398  25.359  12.520
41371W        W 7780  41.647  32.732   4.657
41372W        W 7781  34.947  37.926   4.452
41373W        W 7782  33.106  17.649   3.607
41374W        W 7783   3.515   0.699  12.160
41375W        W 7784  27.033  39.519  10.779
41376W        W 7785  22.475  15.114   1.605
41377W        W 7786  14.810  30.087   3.666
41378W        W 7787  14.448  29.489   0.326
41379W        W 7788  26.985  24.081   1.680
41380W        W 7789  40.488   7.840   4.417
41381W        W 7790  34.144  12.116  11.442
41382W        W 7791  32.366  29.945   2.352
41383W        W 7792  35.042  41.278  10.172
41384W        W 7793   6.246  29.518   1.279
41385W        W 7794  27.799  34.079  10.730
41386W        W 7795  26.092   4.093  12.565
41387W        W 7796   0.131  35.989   0.003
41388W        W 7797  43.771  17.824  14.991
41389W        W 7798  15.540  29.704   4.786
41390W        W 7799  41.714  23.598   3.731
41391W        W 7800  24.531  13.714   4.810
41392W        W 7801   5.236  29.028   1.639
41393W        W 7802  35.821   2.421  14.384
41394W        W 7803  23.717   8.354   4.650
41395W        W 7804  32.787   6.880  12.021
41396W        W 7805  12.317  37.256   2.930
41397W        W 7806  34.055  12.310   0.363
41398W        W 7807   1.486   6.277  12.359
41399W        W 7808  19.841   9.657   1.843
41400W        W 7809  14.598  12.253   1.363
41401W        W 7810  43.290  44.978   3.589
41402W        W 7811   5.146  37.621   3.183
41403W        W 7812  21.183  19.045   4.855
41404W        W 7813  13.040  35.241  13.851
41405W        W 7814   7.922   7.155   0.928
41406W        W 7815  28.978  23.930   2.547
41407W        W 7816   9.892  40.898  10.734
41408W        W 7817   6.414  27.343   1.749
41409W        W 7818  22.059  25.736  12.179
41410W        W 7819   3.042  12.292   0.904
41411W        W 7820   2.550  35.538   3.353
41412W        W 7821   0.706  40.447  11.560
41413W        W 7822  40.814   8.730   3.252
41414W        W 7823  37.535  13.310  11.693
41415W        W 7824  22.603  40.952   5.015
41416W        W 7825  37.055  44.991  13.077
41417W        W 7826  22.728  27.116   3.361
41418W        W 7827  23.954  35.572  12.976
41419W        W 7828  39.910  41.882   3.626
41420W        W 7829   6.112  10.606  10.715
41421W        W 7830  29.215  27.174  14.895
41422W        W 7831  31.973  19.057   2.740
41423W        W 7832  36.032  27.138  11.293
41424W        W 7833  41.293  35.835  14.405
41425W        W 7834  43.807  25.151   0.823
41426W        W 7835   0.164  26.469  13.778
41427W        W 7836  44.621  42.564  12.437
41428W        W 7837  31.002   9.131  10.886
41429W        W 7838  23.472  29.974   3.560
41430W        W 7839  22.106  27.324   0.853
41431W        W 7840   7.303  11.115   0.786
41432W        W 7841   3.733  26.191   4.738
41433W        W 7842  31.733  20.454   3.308
41434W        W 7843  28.194  35.478  14.061
41435W        W 7844   9.769  22.687   0.345
41436W        W 7845   3.717  34.413  10.718
41437W        W 7846  21.146  14.566   0.786
41438W        W 7847  12.465  29.626   2.453
41439W        W 7848  31.396  14.195   4.892
41440W        W 7849  22.836  15.853   1.713
41441W        W 7850   9.203  31.551  10.760
41442W        W 7851  12.823  39.920  14.374
41443W        W 7852  15.774  25.490  11.607
41444W        W 7853  38.933  31.258  13.379
41445W        W 7854  26.391  29.444   3.122
41446W        W 7855  10.473   5.196  14.935
41447W        W 7856  43.342  11.868  10.624
41448W        W 7857   7.734  32.151  14.415
41449W        W 7858  36.386   3.387  13.479
41450W        W 7859  40.323  21.272  13.035
41451W        W 7860  44.219  30.153  13.468
41452W        W 7861  10.959  13.750  11.670
41453W        W 7862  37.100  41.310   2.655
41454W        W 7863  41.915  10.250  10.767
41455W        W 7864  22.476  19.799  13.020
41456W        W 7865   6.211  13.269  11.605
41457W        W 7866  20.185  12.561   0.534
41458W        W 7867  41.481  34.141  13.036
41459W        W 7868  34.843  35.860   4.720
41460W        W 7869  34.354  27.044  13.469
41461W        W 7870  25.133  34.855   1.834
41462W        W 7871  14.696  11.651  10.721
41463W        W 7872  27.158   7.267   1.308
41464W        W 7873  40.051  34.424  12.016
41465W        W 7874  39.556   4.766  14.334
41466W        W 7875  20.986  43.951  13.840
41467W        W 7876  38.417  15.210   0.305
41468W        W 7877   7.802  39.383  10.949
41469W        W 7878   9.474  36.372  11.610
41470W        W 7879  34.169   1.221  14.267
41471W        W 7880  43.431  36.518   2.677
41472W        W 7881  32.495  44.330   0.811
41473W        W 7882  43.941  32.477  12.822
41474W        W 7883  25.035  15.023   4.425
41475W        W 7884  11.786   3.938   0.371
41476W        W 7885  16.540  13.360  11.151
41477W        W 7886  11.084  27.110  14.808
41478W        W 7887  21.534  32.031  13.912
41479W        W 7888  39.614  36.483  12.886
41480W        W 7889   6.323  25.136  12.769
41481W        W 7890  15.373  24.443  13.963
41482W        W 7891  18.065  41.986  14.534
41483W        W 7892  16.713   8.388  13.817
41484W        W 7893  21.717  15.662   0.322
41485W        W 7894  42.322  10.234   2.683
41486W        W 7895  16.983  28.976   4.087
41487W        W 7896  35.875  15.825   3.727
41488W        W 7897  13.728   2.236  14.394
41489W        W 7898  34.157  26.415  11.544
41490W        W 7899  16.372  32.363  10.991
41491W        W 7900   9.418   3.219  10.340
41492W        W 7901  37.089  37.140   1.251
41493W        W 7902  38.266   4.140   4.163
41494W        W 7903  34.521  35.915   1.574
41495W        W 7904  34.027   7.558   3.339
41496W        W 7905  35.320  23.217  11.656
41497W        W 7906  28.012   4.347  14.905
41498W        W 7907  41.712   3.576   3.262
41499W        W 7908  15.599  31.005   4.068
41500W        W 7909  24.087   2.703   2.137
41501W        W 7910  21.328  12.206   2.332
41502W        W 7911  44.883  44.350  12.866
41503W        W 7912   8.579  15.267   1.888
41504W        W 7913   1.519   3.336   2.237
41505W        W 7914  35.257   9.768  12.471
41506W        W 7915   5.375  10.821  13.426
41507W        W 7916  24.562   9.582   2.212
41508W        W 7917  14.322  35.903  13.795
41509W        W 7918  38.693   6.320  12.917
41510W        W 7919  22.528  37.660   0.329
41511W        W 7920  15.470  42.913   4.970
41512W        W 7921  11.779  13.021  10.394
41513W        W 7922   8.741  10.517  12.882
41514W        W 7923  34.375  44.864   0.956
41515W        W 7924  32.498  16.706   2.690
41516W        W 7925  41.535  24.038   3.434
41517W        W 7926  29.707  38.268  13.967
41518W        W 7927  12.190  19.641  13.485
41519W        W 7928  42.323  19.252   0.925
41520W        W 7929  22.036  28.552   1.161
41521W        W 7930  19.119  36.142   0.914
41522W        W 7931  38.785  43.857   0.455
41523W        W 7932  15.290  44.818   3.105
41524W        W 7933  35.070  18.025  14.101
41525W        W 7934  38.032  21.312   0.071
41526W        W 7935  40.203  34.551  14.962
41527W        W 7936  33.885  22.891   4.885
41528W        W 7937  27.888  11.826   2.482
41529W        W 7938  29.605  40.999   3.846
41530W        W 7939  32.609  33.578   1.019
41531W        W 7940  38.054  43.790  11.169
41532W        W 7941  18.832  13.644   2.624
41533W        W 7942  24.273   8.838   0.508
41534W        W 7943  13.272  44.309  11.225
41535W        W 7944  17.140  15.687   4.114
41536W        W 7945  17.229   2.557   0.774
41537W        W 7946   0.303   5.663  12.456
41538W        W 7947  10.692   3.760  14.269
41539W        W 7948   4.926   3.979  13.808
41540W        W 7949   9.722  11.307  12.895
41541W        W 7950  28.878  36.553   1.871
41542W        W 7951   7.467  20.654   4.421
41543W        W 7952  19.048  10.598   4.690
41544W        W 7953  43.474  38.550  11.464
41545W        W 7954  19.534  34.318   1.404
41546W        W 7955   3.569  11.055   2.729
41547W        W 7956  37.817  32.076  13.887
41548W        W 7957  13.658   3.180   0.009
41549W        W 7958   5.300  11.848   4.933
41550W        W 7959  29.900  14.278   2.941
41551W        W 7960  18.722  40.440   0.914
41552W        W 7961  42.108  17.586   0.466
41553W        W 7962  41.444   9.418  13.434
41554W        W 7963  26.900  13.963   2.784
41555W        W 7964  16.864   9.484   2.212
41556W        W 7965  14.632  24.077   1.149
41557W        W 7966   8.593  13.094   2.393
41558W        W 7967  17.663  15.682   4.111
41559W        W 7968  25.287  44.859  13.159
41560W        W 7969  34.532  29.695   3.164
41561W        W 7970  39.411  11.047  10.767
41562W        W 7971  31.535   0.518   5.475
41563W        W 7972   2.464  43.868  10.596
41564W        W 7973  26.923  31.605   1.356
41565W        W 7974  22.821  20.563  12.592
41566W        W 7975  10.185  32.151   2.783
41567W        W 7976  26.220  29.946  11.973
41568W        W 7977  12.050  39.742  13.833
41569W        W 7978   7.120  30.024  10.563
41570W        W 7979   7.012  28.771  12.777
41571W        W 7980  38.079  33.681   3.237
41572W        W 7981   6.245  42.799  10.661
41573W        W 7982   7.157   4.778   3.103
41574W        W 7983   7.654   4.606  14.357
41575W        W 7984  24.443   4.046  10.613
41576W        W 7985  19.761  34.427  14.509
41577W        W 7986  11.761  37.546   2.620
41578W        W 7987   3.249  42.178   4.115
41579W        W 7988   7.689  10.408   1.310
41580W        W 7989  19.754   7.797   4.384
41581W        W 7990  37.680   5.980   1.752
41582W        W 7991  36.945  14.039   1.209
41583W        W 7992   4.286  15.481  13.876
41584W        W 7993  30.491   3.229  11.595
41585W        W 7994  26.033  25.477  12.205
41586W        W 7995  31.456  15.976   2.646
41587W        W 7996  38.451  34.935   0.887
41588W        W 7997  23.613  21.251  11.943
41589W        W 7998  25.084  19.682  13.812
41590W        W 7999  17.217  41.786   4.542
41591W        W 8000  20.743  34.894   0.322
41592W        W 8001  35.532   2.319   9.613
41593W        W 8002  36.010   7.923  14.075
41594W        W 8003  27.246  31.880  11.194
41595W        W 8004   3.801   3.299   4.433
41596W        W 8005  20.876   8.702  11.930
41597W        W 8006  20.545   9.191  11.221
41598W        W 8007  20.795  11.241  11.736
41599W        W 8008   1.074   4.198  13.438
41600W        W 8009  42.212  30.568   0.837
41601W        W 8010  39.506  13.084  14.695
41602W        W 8011  26.475  44.517  11.800
41603W        W 8012  32.438  27.800  14.758
41604W        W 8013  44.379  18.767  12.192
41605W        W 8014   3.161  34.030   0.861
41606W        W 8015  10.841   7.793  10.745
41607W        W 8016  39.483  39.773  12.721
41608W        W 8017  21.924   8.345   2.094
41609W        W 8018  31.400  29.639   1.907
41610W        W 8019   9.334  43.450   4.164
41611W        W 8020  31.675   5.977   0.380
41612W        W 8021  16.097  36.311   4.556
41613W        W 8022  36.417  26.545   1.420
41614W        W 8023  32.708  16.063  11.875
41615W        W 8024   3.145   6.836   3.072
41616W        W 8025  18.294   3.246   0.750
41617W        W 8026   4.128  43.607   1.754
41618W        W 8027  18.598  37.940  11.750
41619W        W 8028  43.061  24.435  12.010
41620W        W 8029  13.353   3.999   2.734
41621W        W 8030  14.279  10.352  10.665
41622W        W 8031  16.228  22.062  13.329
41623W        W 8032   5.475  37.445   0.396
41624W        W 8033  21.214  25.026   4.652
41625W        W 8034  32.823  20.380  14.116
41626W        W 8035   9.485  10.307   1.862
41627W        W 8036  33.347   5.204   4.694
41628W        W 8037  35.514  42.747  13.940
41629W        W 8038  34.514  20.991   0.201
41630W        W 8039  25.686  21.168   1.694
41631W        W 8040  35.516  37.421  13.412
41632W        W 8041   7.870  18.337  10.828
41633W        W 8042  31.537  34.216   0.742
41634W        W 8043  16.574  25.865   5.050
41635W        W 8044  37.754  29.822   1.455
41636W        W 8045  43.537  31.187   0.659
41637W        W 8046  31.057   1.505  14.721
41638W        W 8047   0.727  13.831   2.199
41639W        W 8048  24.696   2.350   2.851
41640W        W 8049  33.868  30.959  11.886
41641W        W 8050   2.049  35.347  10.751
41642W        W 8051  18.032  17.323   4.046
41643W        W 8052  29.231  23.065   4.150
41644W        W 8053  18.552   2.767  14.645
41645W        W 8054  20.554  42.523   2.810
41646W        W 8055  43.499  26.534   2.351
41647W        W 8056   8.211  23.264  11.213
41648W        W 8057  16.798  10.770   3.590
41649W        W 8058  25.852  29.909   1.256
41650W        W 8059   5.835   2.140   4.152
41651W        W 8060  19.633  16.294  14.737
41652W        W 8061  14.207  14.341   0.683
41653W        W 8062  36.327  12.161   0.356
41654W        W 8063   4.057  23.696   2.257
41655W        W 8064  29.646  37.092  12.487
41656W        W 8065  29.687  13.973   1.221
41657W        W 8066   2.042  37.423   0.505
41658W        W 8067  34.912  26.167   2.196
41659W        W 8068  31.456  12.806   1.047
41660W        W 8069  32.975  13.600   1.748
41661W        W 8070  44.853  17.995  12.532
41662W        W 8071  14.389  44.884   4.623
41663W        W 8072  33.311  17.975  13.898
41664W        W 8073  10.523   6.174  10.163
41665W        W 8074  28.091   1.016  13.471
41666W        W 8075   8.373  21.961   1.263
41667W        W 8076  39.397  16.585   2.757
41668W        W 8077  35.672  11.704   2.749
41669W        W 8078  39.066  27.305  13.145
41670W        W 8079  11.834  16.834   5.018
41671W        W 8080  12.771  23.782  11.226
41672W        W 8081  20.051  23.980  12.370
41673W        W 8082  11.299  19.530  13.199
41674W        W 8083  32.458  43.298   0.700
41675W        W 8084  39.617  41.562  10.728
41676W        W 8085  34.258  17.022   4.063
41677W        W 8086  27.759  21.261   0.324
41678W        W 8087  17.724  14.719  10.760
41679W        W 8088  32.547  34.293   1.725
41680W        W 8089  43.708   4.779   2.259
41681W        W 8090  19.088  22.754   0.559
41682W        W 8091  10.048   2.023   1.297
41683W        W 8092  22.567   1.234  13.414
41684W        W 8093  28.226  23.445   3.740
41685W        W 8094  42.422  19.177  14.113
41686W        W 8095   1.152   0.376  13.509
41687W        W 8096   6.303  26.438   1.975
41688W        W 8097  15.661   9.734  14.034
41689W        W 8098  39.692  14.436   5.028
41690W        W 8099   0.066  16.777   0.284
41691W        W 8100  33.140  33.413  11.102
41692W        W 8101  34.078   7.731  14.576
41693W        W 8102  38.974  36.888   3.096
41694W        W 8103   1.621   4.444  13.918
41695W        W 8104  26.562  13.925   0.804
41696W        W 8105  39.964  20.849   1.496
41697W        W 8106  36.725  22.492   4.230
41698W        W 8107  33.282  43.922  11.753
41699W        W 8108  17.772  18.865  10.755
41700W        W 8109  28.178  20.041   2.962
41701W        W 8110  23.521   6.853  11.220
41702W        W 8111  27.728  39.064   0.502
41703W        W 8112  16.782  16.612   0.313
41704W        W 8113   1.356  25.459   2.447
41705W        W 8114  43.044  38.929  14.553
41706W        W 8115  36.925  17.663  13.809
41707W        W 8116  24.156   6.894   0.332
41708W        W 8117  20.661   0.775   2.864
41709W        W 8118  19.143  38.341  13.544
41710W        W 8119  17.197   7.381  11.146
41711W        W 8120   0.664  12.309  10.664
41712W        W 8121  32.501  42.957   3.617
41713W        W 8122  16.855  12.174  12.873
41714W        W 8123   2.747  11.145  11.484
41715W        W 8124  28.430  28.196  14.991
41716W        W 8125  44.497  20.877  10.380
41717W        W 8126  35.113  35.312   0.253
41718W        W 8127  37.143   8.801  14.208
41719W        W 8128   2.493  25.480  11.256
41720W        W 8129  19.705   5.892  14.848
41721W        W 8130  32.302  23.483  13.843
41722W        W 8131  34.746  17.649  14.387
41723W        W 8132  30.835  16.273   2.445
41724W        W 8133  37.659   1.917  12.253
41725W        W 8134   2.674  43.703   1.744
41726W        W 8135  29.169  30.663  11.182
41727W        W 8136   4.942  22.475   3.628
41728W        W 8137  15.894  31.842   4.518
41729W        W 8138  41.732  33.533   4.498
41730W        W 8139  28.828  34.431   2.671
41731W        W 8140  29.930  21.197  10.443
41732W        W 8141  14.213  19.009   0.071
41733W        W 8142  22.114  40.915  13.377
41734W        W 8143  38.157   7.328  10.803
41735W        W 8144  10.873  22.128  14.532
41736W        W 8145  19.774   8.442  10.561
41737W        W 8146  44.922  44.757  11.098
41738W        W 8147  15.192  24.351   1.340
41739W        W 8148   4.230   0.213  13.889
41740W        W 8149   5.826  32.809  12.414
41741W        W 8150  26.143  36.404  10.641
41742W        W 8151  30.666  12.031  14.804
41743W        W 8152  13.008  37.810   1.883
41744W        W 8153   2.160  37.164  13.381
41745W        W 8154   8.308  13.076   0.638
41746W        W 8155  30.145   1.792   3.283
41747W        W 8156  32.124  16.247   3.862
41748W        W 8157  40.371  17.823   3.597
41749W        W 8158  38.091  38.589  12.948
41750W        W 8159  27.510   1.275   3.961
41751W        W 8160   1.339  41.548  14.361
41752W        W 8161  32.860  10.356   1.447
41753W        W 8162   5.435  21.026  12.488
41754W        W 8163  24.633   2.201  12.004
41755W        W 8164  34.073   1.958  11.833
41756W        W 8165   3.177  20.055   4.395
41757W        W 8166   6.682  28.155  12.576
41758W        W 8167  33.288  27.625   0.613
41759W        W 8168  21.494  30.444   0.281
41760W        W 8169  19.946  20.903  14.030
41761W        W 8170   2.258  22.473   0.327
41762W        W 8171  24.176  44.865  14.472
41763W        W 8172  20.853  24.248  12.538
41764W        W 8173   0.826   5.316   1.918
41765W        W 8174  30.746  22.641  12.110
41766W        W 8175  32.445   5.266  11.432
41767W        W 8176  43.762  33.611  13.515
41768W        W 8177  29.564  36.271  14.910
41769W        W 8178  41.050   3.097  13.814
41770W        W 8179   3.217  36.728   0.198
41771W        W 8180  13.168  19.861  13.268
41772W        W 8181  10.344  17.069   0.467
41773W        W 8182  17.204  15.061   1.356
41774W        W 8183   5.313  14.898  14.954
41775W        W 8184  38.678  25.044  12.372
41776W        W 8185  20.365   9.790   4.750
41777W        W 8186  39.327  20.829  12.002
41778W        W 8187  10.888  14.193  10.476
41779W        W 8188  25.123  34.500   3.272
41780W        W 8189  26.908  33.629   2.324
41781W        W 8190   2.416   2.359   3.302
41782W        W 8191  44.477   6.267   2.285
41783W        W 8192  18.106  23.965  13.720
41784W        W 8193  27.019  21.557   2.750
41785W        W 8194  19.110  10.236   1.847
41786W        W 8195  15.141  31.689  13.942
41787W        W 8196  26.942  23.532  13.341
41788W        W 8197  36.029   1.392   4.850
41789W        W 8198  22.764  43.270   2.671
41790W        W 8199  36.640   2.145   0.879
41791W        W 8200  19.738  13.373   2.630
41792W        W 8201  42.474  15.177  11.824
41793W        W 8202  30.973  43.557   3.625
41794W        W 8203  25.142   3.165   0.485
41795W        W 8204  18.526  34.546   3.266
41796W        W 8205  16.240  10.917   1.649
41797W        W 8206   1.613  20.036   1.315
41798W        W 8207   8.223   8.297   0.825
41799W        W 8208   5.857   2.718   1.887
41800W        W 8209   4.932  36.360   0.718
41801W        W 8210  32.879  32.057  12.473
41802W        W 8211  29.834  35.731  11.567
41803W        W 8212  42.761   3.311   2.107
41804W        W 8213  10.219  32.549   2.444
41805W        W 8214  43.424   9.708  13.296
41806W        W 8215  23.522  30.450  14.333
41807W        W 8216  19.755  12.351   0.710
41808W        W 8217  27.705  22.288   4.368
41809W        W 8218   4.837  11.380   0.498
41810W        W 8219  16.556  23.616   3.285
41811W        W 8220  22.023  32.103   0.302
41812W        W 8221   9.676  43.965   0.933
41813W        W 8222  25.096  38.851  10.886
41814W        W 8223  22.609   1.383  12.403
41815W        W 8224  27.004  11.239  12.303
41816W        W 8225  11.996  13.332   2.909
41817W        W 8226   0.906  25.411  11.763
41818W        W 8227  44.543  18.062  13.289
41819W        W 8228  13.209   3.715  10.570
41820W        W 8229  23.115  38.871   3.248
41821W        W 8230  18.196  21.033  11.098
41822W        W 8231  43.009  41.021  14.953
41823W        W 8232  14.113   6.459   0.802
41824W        W 8233  16.538  19.125   2.248
41825W        W 8234   5.406  26.444  14.425
41826W        W 8235  38.099  44.325   1.953
41827W        W 8236  23.886   8.694  11.617
41828W        W 8237  10.290  30.763  14.796
41829W        W 8238   0.540  42.296   1.314
41830W        W 8239  19.192   3.386  11.124
41831W        W 8240  23.754  44.399   4.381
41832W        W 8241  25.159  23.726  11.572
41833W        W 8242   1.367  35.993  12.768
41834W        W 8243   4.765  20.643  13.165
41835W        W 8244  41.469   1.540  13.988
41836W        W 8245  43.266  12.112  12.396
41837W        W 8246  11.065  36.059   5.036
41838W        W 8247  27.605  11.451  14.268
41839W        W 8248   9.755  14.632  13.011
41840W        W 8249  20.528  25.613   2.089
41841W        W 8250  28.775  10.139  12.850
41842W        W 8251  44.558  36.569   3.183
41843W        W 8252  42.476  34.149  12.978
41844W        W 8253  33.416  17.390  11.079
41845W        W 8254  38.928  18.249  11.981
41846W        W 8255  31.920  27.995  10.748
41847W        W 8256  34.353  14.731   4.250
41848W        W 8257  21.748   7.614   4.600
41849W        W 8258  36.850  32.413  13.923
41850W        W 8259   2.932   9.463   3.767
41851W        W 8260  17.826  28.056  14.259
41852W        W 8261  26.025  23.604   4.563
41853W        W 8262  12.830   4.431  12.602
41854W        W 8263   7.582  21.943  11.975
41855W        W 8264  26.132   2.751   0.565
41856W        W 8265   3.874   9.772  14.507
41857W        W 8266  27.186   9.693   3.496
41858W        W 8267  36.882  13.840   0.267
41859W        W 8268  19.310  22.073   0.246
41860W        W 8269  42.245  36.102   3.308
41861W        W 8270  43.789  24.169   2.422
41862W        W 8271  21.593   8.168   1.311
41863W        W 8272  29.293   9.088  13.275
41864W        W 8273   5.602  30.977   1.209
41865W        W 8274   6.106  32.526  14.889
41866W        W 8275  15.784  17.291  11.626
41867W        W 8276  35.239  34.139  14.909
41868W        W 8277  10.772   6.660  12.731
41869W        W 8278  20.623  32.831  10.708
41870W        W 8279  25.036   0.503   1.798
41871W        W 8280  12.885  17.760  13.958
41872W        W 8281  30.404   7.810  13.848
41873W        W 8282  43.018  16.278  12.758
41874W        W 8283   2.819  23.195   2.455
41875W        W 8284  43.062   1.416  14.198
41876W        W 8285  37.856  15.169   3.955
41877W        W 8286  12.622  24.245   1.565
41878W        W 8287   3.821   1.977   0.506
41879W        W 8288  32.133  31.429  11.604
41880W        W 8289   6.692  17.699   4.556
41881W        W 8290  41.315   0.502   1.386
41882W        W 8291  23.942  26.960   4.223
41883W        W 8292   6.042  42.835   4.183
41884W        W 8293  18.164   3.486   2.384
41885W        W 8294   9.377  13.185  12.920
41886W        W 8295   1.193  11.195  10.847
41887W        W 8296  26.598  36.332  11.575
41888W        W 8297   0.176  28.985  14.876
41889W        W 8298  37.160  33.785  12.057
41890W        W 8299  41.225   4.436  10.807
41891W        W 8300  29.875  25.641   3.164
41892W        W 8301   9.893  18.886  13.863
41893W        W 8302  24.352  27.248  12.544
41894W        W 8303  14.263  30.020   2.156
41895W        W 8304   9.093  11.349  10.622
41896W        W 8305  35.321  22.487   4.833
41897W        W 8306  36.006  36.349  12.513
41898W        W 8307  31.798  17.497   1.310
41899W        W 8308  15.177  42.295  14.677
41900W        W 8309  42.359   8.768  13.854
41901W        W 8310  13.715  29.199   0.789
41902W        W 8311   2.413  32.035   0.306
41903W        W 8312   7.747   9.599   0.983
41904W        W 8313  33.403  40.284   3.239
41905W        W 8314  39.377   5.968   2.269
41906W        W 8315  38.859   4.909  11.894
41907W        W 8316  18.816   0.720   3.799
41908W        W 8317  30.036  29.675  14.411
41909W        W 8318  35.992   6.417  13.852
41910W        W 8319  19.318  33.139   3.632
41911W        W 8320   0.666  35.587   3.967
41912W        W 8321  25.490  21.978  13.934
41913W        W 8322   1.048  22.164  10.383
41914W        W 8323  42.994  35.598  12.007
41915W        W 8324  32.713  19.183  14.953
41916W        W 8325  29.112   8.136  10.714
41917W        W 8326   9.396  10.597  11.774
41918W        W 8327  20.747  41.908  12.193
41919W        W 8328  32.748   8.342   1.461
41920W        W 8329  30.525  26.076  10.674
41921W        W 8330   7.884  21.983   2.934
41922W        W 8331   3.016   1.349  13.879
41923W        W 8332  20.470  19.548   0.068
41924W        W 8333   5.675  11.674  12.042
41925W        W 8334   9.779  28.309   2.719
41926W        W 8335  23.143  44.383  10.268
41927W        W 8336  44.997  38.338  12.875
41928W        W 8337   7.575  32.017   1.340
41929W        W 8338  40.452  36.715   4.836
41930W        W 8339   5.302  37.909   1.351
41931W        W 8340  15.057  31.500   2.795
41932W        W 8341  37.212  12.755  10.469
41933W        W 8342  21.195  32.503  12.928
41934W        W 8343   7.923  25.604   1.339
41935W        W 8344  19.707  22.363  13.816
41936W        W 8345   3.256  40.996   1.363
41937W        W 8346  36.530   7.643   4.593
41938W        W 8347  19.279   5.181  11.179
41939W        W 8348   7.644  25.118   1.246
41940W        W 8349  23.014  27.827  12.314
41941W        W 8350  44.610  42.411  11.513
41942W        W 8351   5.168   4.266   0.705
41943W        W 8352  21.552  30.974  13.640
41944W        W 8353  25.584  14.525  14.303
41945W        W 8354  31.913  28.705  14.840
41946W        W 8355  13.568  26.629   3.207
41947W        W 8356  29.182  12.228  10.786
41948W        W 8357   6.801   9.080  12.012
41949W        W 8358   4.136  37.909   3.210
41950W        W 8359  41.540   6.381  14.261
41951W        W 8360  34.304  12.697   1.308
41952W        W 8361  22.108  36.993   0.412
41953W        W 8362  43.271  40.655  11.097
41954W        W 8363  38.008  12.876  12.127
41955W        W 8364  37.032  17.555  12.926
41956W        W 8365  17.762  44.914  13.540
41957W        W 8366  34.590  18.789   0.494
41958W        W 8367  14.645  41.586  12.956
41959W        W 8368   6.045  22.126   3.149
41960W        W 8369  13.593  12.791   4.334
41961W        W 8370  44.908  25.730  10.734
41962W        W 8371  32.622  24.641  13.512
41963W        W 8372  15.634   7.374  13.390
41964W        W 8373   8.387   9.282  14.794
41965W        W 8374  38.368   4.920  12.820
41966W        W 8375  28.552  19.335  12.618
41967W        W 8376  31.004   3.349  12.949
41968W        W 8377  27.896  30.587  13.931
41969W        W 8378  40.020   2.492  12.477
41970W        W 8379   0.287   8.307   2.327
41971W        W 8380  20.982  42.198   2.063
41972W        W 8381   7.118  29.914  11.816
41973W        W 8382  17.595  39.362  12.513
41974W        W 8383   7.888   7.808   3.925
41975W        W 8384  29.405  32.398  10.757
41976W        W 8385  25.650   6.706   0.471
41977W        W 8386  30.931  34.857  12.875
41978W        W 8387  11.234  24.701   2.735
41979W        W 8388  44.838  34.144  10.781
41980W        W 8389   6.397  15.272  10.387
41981W        W 8390   9.297  30.571   1.353
41982W        W 8391   8.855  21.280  13.021
41983W        W 8392  23.426  26.087   0.343
41984W        W 8393  10.228   4.749   0.582
41985W        W 8394  30.297   0.059  13.872
41986W        W 8395  13.119  35.516   3.122
41987W        W 8396  31.063  25.476   4.037
41988W        W 8397  15.289  18.324  12.557
41989W        W 8398  20.646  21.230  14.969
41990W        W 8399  25.708  18.727  10.475
41991W        W 8400  15.577  17.226   1.304
41992W        W 8401  16.242  17.657  13.072
41993W        W 8402  16.107  41.862  13.374
41994W        W 8403  31.940  22.778   0.073
41995W        W 8404  13.210  25.742  11.656
41996W        W 8405  25.966  31.973  10.622
41997W        W 8406  32.965  44.771  13.513
41998W        W 8407  15.663  30.478   4.099
41999W        W 8408  22.587  15.374  10.530
42000W        W 8409  17.585  39.441  11.053
42001W        W 8410  39.783   9.283   9.908
42002W        W 8411  17.036  16.148   3.212
42003W        W 8412  43.049  26.263  14.865
42004W        W 8413  22.134  12.539  12.164
42005W        W 8414  23.038   1.350  14.939
42006W        W 8415  20.320  18.480  14.258
42007W        W 8416   4.867   0.552   2.334
42008W        W 8417  29.157   1.697  13.383
42009W        W 8418  12.922  41.969   4.350
42010W        W 8419  30.128   8.415  10.469
42011W        W 8420   2.249  24.547   2.237
42012W        W 8421  15.015  24.998  12.913
42013W        W 8422   4.600   8.331  13.003
42014W        W 8423  37.271   8.959   4.335
42015W        W 8424  12.401  32.238   0.402
42016W        W 8425   8.902  41.076   4.463
42017W        W 8426  32.416  11.562   0.775
42018W        W 8427  41.054   4.921  10.732
42019W        W 8428  42.815  40.519  10.090
42020W        W 8429  28.162  42.916  14.040
42021W        W 8430   7.094  23.639  14.569
42022W        W 8431  21.032  27.688   3.244
42023W        W 8432  19.903   0.700  13.044
42024W        W 8433  43.354  30.982  11.388
42025W        W 8434   1.749   7.400   3.729
42026W        W 8435   4.311  10.411   0.336
42027W        W 8436  21.162  30.641   4.882
42028W        W 8437  22.144  21.292  14.878
42029W        W 8438  32.013  10.656  11.589
42030W        W 8439   0.371  10.709  12.874
42031W        W 8440  26.980  21.944  12.016
42032W        W 8441  11.889  33.868  13.923
42033W        W 8442  16.301  15.142   2.147
42034W        W 8443   4.546  25.761   4.108
42035W        W 8444  10.653  21.506  12.573
42036W        W 8445  34.367   7.315  14.500
42037W        W 8446   1.411  15.010  12.031
42038W        W 8447  44.756  16.099   0.919
42039W        W 8448  30.450   8.084  13.412
42040W        W 8449  38.344  39.036   0.838
42041W        W 8450   8.214   8.355  11.810
42042W        W 8451  30.882  14.204   2.813
42043W        W 8452  21.546  21.456  10.363
42044W        W 8453  41.747   6.284   3.813
42045W        W 8454  29.714  34.513  12.613
42046W        W 8455  10.851  19.037  11.553
42047W        W 8456  19.282  26.543  13.034
42048W        W 8457  36.353  28.029   4.383
42049W        W 8458   9.383   7.564  11.389
42050W        W 8459  22.768   6.231   2.596
42051W        W 8460  10.829  30.484   5.290
42052W        W 8461  30.602  43.453  10.451
42053W        W 8462  43.841  32.971   0.710
42054W        W 8463   2.362   2.938  14.226
42055W        W 8464   0.746  32.064  12.119
42056W        W 8465  29.552  17.284   3.689
42057W        W 8466   0.797  14.367   4.599
42058W        W 8467  24.977  39.372  14.119
42059W        W 8468  13.126  10.631  13.440
42060W        W 8469  33.025  34.052  10.761
42061W        W 8470  26.763   6.202  11.650
42062W        W 8471   0.585  11.219  13.939
42063W        W 8472  23.058   7.645  12.060
42064W        W 8473  29.683  13.021  14.804
42065W        W 8474  38.433  28.154  10.754
42066W        W 8475  25.723  36.415  13.461
42067W        W 8476  44.952  28.091   4.954
42068W        W 8477  33.305  43.260  11.185
42069W        W 8478   4.380  13.543   4.151
42070W        W 8479   8.690  28.209  14.331
42071W        W 8480  18.271   3.956   2.597
42072W        W 8481  29.548   2.280   2.719
42073W        W 8482  28.468  36.357   2.787
42074W        W 8483   8.825  25.013   1.945
42075W        W 8484  11.376  40.380   0.749
42076W        W 8485  13.636  27.165  13.107
42077W        W 8486  41.841  39.682  11.376
42078W        W 8487  17.597   9.318   2.725
42079W        W 8488  14.345  23.644  14.037
42080W        W 8489   1.422  22.499  13.119
42081W        W 8490  39.454  34.142   3.375
42082W        W 8491  18.134   6.859   3.647
42083W        W 8492  33.555  24.592   0.349
42084W        W 8493   0.200   5.735  11.110
42085W        W 8494   7.941  18.178   1.331
42086W        W 8495  36.818  10.086  13.731
42087W        W 8496   8.710  21.534   1.668
42088W        W 8497  15.941  14.061  14.373
42089W        W 8498  42.539  39.231  12.986
42090W        W 8499  35.418   9.848   1.690
42091W        W 8500  27.571  14.712  14.542
42092W        W 8501  20.347  41.852  10.594
42093W        W 8502   5.926  17.312  14.920
42094W        W 8503  35.267  37.268   4.967
42095W        W 8504  35.120  28.564  14.579
42096W        W 8505  26.318  17.805   0.789
42097W        W 8506  41.441  21.560   4.724
42098W        W 8507  20.915   5.354   1.004
42099W        W 8508  28.644  33.374   3.237
42100W        W 8509  15.023   5.843   4.554
42101W        W 8510  39.371  14.343  14.051
42102W        W 8511  19.672  43.901   0.074
42103W        W 8512  42.976  44.171   1.431
42104W        W 8513   1.106  23.936  13.987
42105W        W 8514  36.416  14.717   0.540
42106W        W 8515  44.231  19.454   4.617
42107W        W 8516  44.335  12.699  13.510
42108W        W 8517  33.131  21.272   2.120
42109W        W 8518  19.841  37.831  13.971
42110W        W 8519  35.908   2.012   3.579
42111W        W 8520   5.453  26.624  11.415
42112W        W 8521   3.974   4.283  14.746
42113W        W 8522   3.861   4.935  13.490
42114W        W 8523  34.085  36.230   1.430
42115W        W 8524  24.272  19.222  14.954
42116W        W 8525  16.980   9.175   0.483
42117W        W 8526   9.812  31.972  11.274
42118W        W 8527  15.277   6.664   2.154
42119W        W 8528  38.116  41.775   4.703
42120W        W 8529  38.218  15.533  10.526
42121W        W 8530  18.261  36.460   4.724
42122W        W 8531  12.619  33.426   2.256
42123W        W 8532  40.338  10.328   1.730
42124W        W 8533   1.280  15.188   4.717
42125W        W 8534   9.307   9.728   3.507
42126W        W 8535  35.884  35.455   4.343
42127W        W 8536   5.635  25.535   0.689
42128W        W 8537  35.228   0.388   1.653
42129W        W 8538  31.633  44.587   3.116
42130W        W 8539  43.586   2.190   4.169
42131W        W 8540  43.081  27.914  13.807
42132W        W 8541  15.051  29.766  13.870
42133W        W 8542   7.221   1.378  11.526
42134W        W 8543  21.311  21.936   1.654
42135W        W 8544  26.718  18.549  10.512
42136W        W 8545  22.358   0.772  13.581
42137W        W 8546  18.781  39.102  13.913
42138W        W 8547   7.389  44.935   1.190
42139W        W 8548  44.227  28.596   0.194
42140W        W 8549   3.418   5.427   0.252
42141W        W 8550  38.863  30.154  12.497
42142W        W 8551  27.021  36.735   4.256
42143W        W 8552  27.151  44.905   2.406
42144W        W 8553  16.083  12.684  10.577
42145W        W 8554  35.496  36.413   4.517
42146W        W 8555  19.402  31.748  13.374
42147W        W 8556  26.622  36.865   1.866
42148W        W 8557  22.616   3.148   3.409
42149W        W 8558  29.372  23.572  14.882
42150W        W 8559  27.291   6.777   2.242
42151W        W 8560   6.157  14.321  14.267
42152W        W 8561  25.702   7.858   0.975
42153W        W 8562  26.279  36.562  14.992
42154W        W 8563  18.834  34.522   4.569
42155W        W 8564  15.660   2.624   0.204
42156W        W 8565  11.196  10.430  13.367
42157W        W 8566  22.102  17.591  13.411
42158W        W 8567  35.111  21.568   3.121
42159W        W 8568   1.963   6.345  12.217
42160W        W 8569  29.558  20.472  14.574
42161W        W 8570  39.341   8.703   4.355
42162W        W 8571  19.519  29.693   1.651
42163W        W 8572  26.231  34.184   1.225
42164W        W 8573  14.874  22.283  13.742
42165W        W 8574  32.877   1.427  12.968
42166W        W 8575  44.404   2.758   0.684
42167W        W 8576  18.764  10.701  10.946
42168W        W 8577  32.032  12.605   3.859
42169W        W 8578  21.752  21.609  11.618
42170W        W 8579  35.922  16.133  12.537
42171W        W 8580  43.425  15.537   4.973
42172W        W 8581  38.464  29.827   4.616
42173W        W 8582  37.975  20.482  12.058
42174W        W 8583  32.389   2.375   0.029
42175W        W 8584  41.401  16.191  10.412
42176W        W 8585   2.412  34.199  12.034
42177W        W 8586  33.101  38.847   3.341
42178W        W 8587   1.479  40.488   1.274
42179W        W 8588   2.292   9.410   1.188
42180W        W 8589  21.522   6.253   4.790
42181W        W 8590  15.031  44.412   2.804
42182W        W 8591  21.130  23.628  13.360
42183W        W 8592  29.582  31.460  14.905
42184W        W 8593  20.092  26.658   1.501
42185W        W 8594  35.586  30.973  11.216
42186W        W 8595  17.708  29.188   1.761
42187W        W 8596   0.504  35.402  12.022
42188W        W 8597  28.040  42.912   0.904
42189W        W 8598  22.517   9.383  10.673
42190W        W 8599  35.669  16.064   1.771
42191W        W 8600   6.535  23.470  12.915
42192W        W 8601  38.245  40.583  13.002
42193W        W 8602  40.106  26.455  14.267
42194W        W 8603  27.972  26.079   3.128
42195W        W 8604  22.236  12.136  10.759
42196W        W 8605  22.085  12.294   1.338
42197W        W 8606  32.425  43.800   0.871
42198W        W 8607   2.850  19.162   0.981
42199W        W 8608   0.486  21.663   3.949
42200W        W 8609  21.690  12.181  10.618
42201W        W 8610   6.364  35.379   1.442
42202W        W 8611  15.272  41.589   0.507
42203W        W 8612  12.099  29.018   4.188
42204W        W 8613  18.264  22.214   1.756
42205W        W 8614  38.974  29.459  10.687
42206W        W 8615  17.093  20.783  11.642
42207W        W 8616  33.639  15.383   2.202
42208W        W 8617  40.271   0.393  13.399
42209W        W 8618   6.792   7.414  13.320
42210W        W 8619  21.317   6.216  12.301
42211W        W 8620  30.955  34.555   4.253
42212W        W 8621  27.983  38.366  14.312
42213W        W 8622  14.980   1.242  13.584
42214W        W 8623   5.309   4.242  12.552
42215W        W 8624  20.564  36.603   0.721
42216W        W 8625  43.030  28.108   1.368
42217W        W 8626   3.665   4.894   2.117
42218W        W 8627  29.489  30.018  11.455
42219W        W 8628  27.545  34.596   0.666
42220W        W 8629  11.045   8.301   2.768
42221W        W 8630  15.299   2.201   5.398
42222W        W 8631  38.445  24.035   3.792
42223W        W 8632   5.237  43.903   3.651
42224W        W 8633   5.557  24.510   0.408
42225W        W 8634  28.754  29.159   0.822
42226W        W 8635  10.145  19.735  13.874
42227W        W 8636  43.097  20.610   0.874
42228W        W 8637  20.678   0.193  13.478
42229W        W 8638  13.459  34.884  13.842
42230W        W 8639  40.941  36.930  13.828
42231W        W 8640  18.517   1.231  12.924
42232W        W 8641  23.258   8.406  12.975
42233W        W 8642  31.596  31.170   3.300
42234W        W 8643  44.210   4.754  14.869
42235W        W 8644  26.931  36.316  14.094
42236W        W 8645  36.811  44.764  12.505
42237W        W 8646   0.017  35.417   3.121
42238W        W 8647   3.163  19.645   3.205
42239W        W 8648  38.922   7.377   1.810
42240W        W 8649  33.857   7.456   0.927
42241W        W 8650  30.833  36.809  11.172
42242W        W 8651  34.940  11.126   0.305
42243W        W 8652  16.314  20.009   0.364
42244W        W 8653  16.413   2.677  11.738
42245W        W 8654  24.662  22.860  14.991
42246W        W 8655  19.005  38.866   0.320
42247W        W 8656  43.519   8.716  12.054
42248W        W 8657   4.721   8.458  10.962
42249W        W 8658  11.842  40.908  11.234
42250W        W 8659  14.575  32.871   1.704
42251W        W 8660  18.143  41.514   4.475
42252W        W 8661   4.022  27.541   1.324
42253W        W 8662  40.016   6.062   1.176
42254W        W 8663  31.947  17.874  12.026
42255W        W 8664  37.395  14.085   2.291
42256W        W 8665   0.764  11.849   4.696
42257W        W 8666  27.134  44.229  14.381
42258W        W 8667  38.103  26.726  11.652
42259W        W 8668  20.078  17.790   4.461
42260W        W 8669   1.136  22.769  10.881
42261W        W 8670   8.933  43.490  13.824
42262W        W 8671  30.292  40.445  11.225
42263W        W 8672  15.824  19.706  12.131
42264W        W 8673   2.453  41.512  13.018
42265W        W 8674   1.004  29.628  11.987
42266W        W 8675  16.075  35.422  14.322
42267W        W 8676  28.155  35.584  12.501
42268W        W 8677   3.308  24.972   2.757
42269W        W 8678   1.969  24.795  11.533
42270W        W 8679  22.183  30.488  14.746
42271W        W 8680   7.933   6.637   0.892
42272W        W 8681  10.790  22.750   0.432
42273W        W 8682  22.213  18.592   3.280
42274W        W 8683  30.318  25.191   1.863
42275W        W 8684   5.721  15.244   0.217
42276W        W 8685   2.343  13.382  12.123
42277W        W 8686   7.740  37.530   3.216
42278W        W 8687   4.881  39.097   2.719
42279W        W 8688  32.935  41.052  12.580
42280W        W 8689  26.964  30.685   5.037
42281W        W 8690  36.192  17.324   0.630
42282W        W 8691  20.056  31.794  11.175
42283W        W 8692  44.784  14.374  11.168
42284W        W 8693  22.723  13.124   3.584
42285W        W 8694  34.398  18.110  12.154
42286W        W 8695   3.416  19.852  11.170
42287W        W 8696  21.187  18.627   4.541
42288W        W 8697   7.270  13.675  13.943
42289W        W 8698  43.689  10.177   2.867
42290W        W 8699  39.457   1.306  12.488
42291W        W 8700  19.140  40.537  14.596
42292W        W 8701  10.370  24.896   0.301
42293W        W 8702  18.097  23.555   1.786
42294W        W 8703  31.678   3.631   0.917
42295W        W 8704  13.537  15.661  13.646
42296W        W 8705  25.090  33.888   2.243
42297W        W 8706   3.345  31.934  13.989
42298W        W 8707  21.978  22.688   2.163
42299W        W 8708  37.289  19.503   2.802
42300W        W 8709  38.401   0.313  12.058
42301W        W 8710  30.064  23.061   1.188
42302W        W 8711   6.772  12.027  11.692
42303W        W 8712   8.846   1.569  12.972
42304W        W 8713  39.879  44.742  11.096
42305W        W 8714  19.154   1.167  13.319
42306W        W 8715  34.820  39.643   0.404
42307W        W 8716  43.482  20.891   1.243
42308W        W 8717  20.128  41.533   1.783
42309W        W 8718  16.045   9.206  13.537
42310W        W 8719   7.799  30.871   1.880
42311W        W 8720  17.307  43.431  14.958
42312W        W 8721  21.695  23.488  11.527
42313W        W 8722  43.771  41.991   2.755
42314W        W 8723  30.121  31.388   1.950
42315W        W 8724  16.603   0.314  12.546
42316W        W 8725  14.906  44.902   5.368
42317W        W 8726   7.423  30.124   0.051
42318W        W 8727  43.307  16.771  13.444
42319W        W 8728  33.535   9.642  11.128
42320W        W 8729  31.923   6.283  13.054
42321W        W 8730  18.643   3.616   0.731
42322W        W 8731  13.897  12.613  12.783
42323W        W 8732   7.833  20.487  13.278
42324W        W 8733  22.092  20.066  11.106
42325W        W 8734  40.712  40.866   2.295
42326W        W 8735  13.227   7.155  13.388
42327W        W 8736  44.438  26.733   4.322
42328W        W 8737  36.923   3.264  11.323
42329W        W 8738  35.570  27.643   2.182
42330W        W 8739   7.793  44.769  10.482
42331W        W 8740  28.384  44.742   0.965
42332W        W 8741  29.995  43.485  13.185
42333W        W 8742  19.827  21.312  11.099
42334W        W 8743  24.559   5.502   0.447
42335W        W 8744   3.141  22.498  12.433
42336W        W 8745  10.340  23.135  11.713
42337W        W 8746   5.385  43.224   3.323
42338W        W 8747  41.963  24.949  13.315
42339W        W 8748  23.911   5.816   0.947
42340W        W 8749   7.921   4.657   4.466
42341W        W 8750  10.386  14.832   3.386
42342W        W 8751  14.425  20.686  12.496
42343W        W 8752   9.350  38.590   1.865
42344W        W 8753  33.083  24.787  11.054
42345W        W 8754  24.037  28.528   3.624
42346W        W 8755  42.842  10.033   0.400
42347W        W 8756  43.003  27.971   2.674
42348W        W 8757  30.926   3.626  14.614
42349W        W 8758  28.764  36.913  14.796
42350W        W 8759  34.984  30.985  13.921
42351W        W 8760  28.003  11.964   5.030
42352W        W 8761  15.765  16.734   1.261
42353W        W 8762  14.909   6.938  10.625
42354W        W 8763  25.376   1.790   0.979
42355W        W 8764  13.073  23.449   0.435
42356W        W 8765  23.967   3.513  14.744
42357W        W 8766  36.634  38.754  13.912
42358W        W 8767   3.973  20.564   2.795
42359W        W 8768   3.288   2.025  13.441
42360W        W 8769  35.489   2.739  11.160
42361W        W 8770  30.961   4.330  12.940
42362W        W 8771  14.142  20.071  13.740
42363W        W 8772  39.724  24.594   1.398
42364W        W 8773  35.818  33.076  13.387
42365W        W 8774  30.341  21.546  12.759
42366W        W 8775  36.643   1.250   3.672
42367W        W 8776  13.199  33.371  11.933
42368W        W 8777  32.622   5.919  12.151
42369W        W 8778  20.571  41.204  14.887
42370W        W 8779  28.999  26.127   4.634
42371W        W 8780  30.375   3.845  13.619
42372W        W 8781  42.021  25.934   2.693
42373W        W 8782  41.010  16.044  14.875
42374W        W 8783  19.836  13.116   4.144
42375W        W 8784  28.520  13.156   1.407
42376W        W 8785   2.704  33.463  13.025
42377W        W 8786  25.882  37.329  11.121
42378W        W 8787  28.622   0.980   3.878
42379W        W 8788  39.396  36.040   1.313
42380W        W 8789  26.163  44.809  13.027
42381W        W 8790  31.091  35.810  14.849
42382W        W 8791  18.959  26.702  10.767
42383W        W 8792   6.602  33.598  10.058
42384W        W 8793  35.519  41.605  11.156
42385W        W 8794  10.180  41.832  10.726
42386W        W 8795  12.826  25.309   1.478
42387W        W 8796  42.286  19.748  10.951
42388W        W 8797  35.030  37.173  14.298
42389W        W 8798  32.627  44.088   1.267
42390W        W 8799  12.710  37.316   4.192
42391W        W 8800  10.731   6.394   4.349
42392W        W 8801  38.318  34.334   4.401
42393W        W 8802   4.754  25.452  11.994
42394W        W 8803  31.961  22.263  14.985
42395W        W 8804  38.441  29.949   2.158
42396W        W 8805  29.240  14.693  12.616
42397W        W 8806  16.217   0.942   4.135
42398W        W 8807  26.618  26.853   3.984
42399W        W 8808   0.274  14.914   2.033
42400W        W 8809  32.319  39.728   0.762
42401W        W 8810  42.101  15.144  11.470
42402W        W 8811   6.332  22.966  14.901
42403W        W 8812   9.404   7.125   0.510
42404W        W 8813  25.289  25.176   0.267
42405W        W 8814  33.954  29.050  14.943
42406W        W 8815  16.039  17.769  10.928
42407W        W 8816  25.768  32.728   2.251
42408W        W 8817  25.316  24.619   4.931
42409W        W 8818   8.749  11.580  12.822
42410W        W 8819  23.925  44.390   2.530
42411W        W 8820  10.935  34.625  11.984
42412W        W 8821  36.096   2.933  13.458
42413W        W 8822   0.176   5.225   3.136
42414W        W 8823  39.348   4.665  11.190
42415W        W 8824  18.646  18.249  10.433
42416W        W 8825   7.714   7.917   1.363
42417W        W 8826   8.082   1.042   3.630
42418W        W 8827  12.289  15.539   0.099
42419W        W 8828  10.895  41.111   0.262
42420W        W 8829  14.777  10.689  12.888
42421W        W 8830  21.214  39.475  13.817
42422W        W 8831   8.130  27.099   3.352
42423W        W 8832   4.667  13.177  13.798
42424W        W 8833  27.449  24.110   0.057
42425W        W 8834   3.531  22.221  13.154
42426W        W 8835  20.585  42.517   1.879
42427W        W 8836  25.604   0.293  11.269
42428W        W 8837   8.286  34.849  12.431
42429W        W 8838  15.527   1.378   0.920
42430W        W 8839  41.737  34.660  12.635
42431W        W 8840   9.836  13.271   4.094
42432W        W 8841  11.571  28.070   2.357
42433W        W 8842  35.573   2.224   0.915
42434W        W 8843  33.542  35.426   3.428
42435W        W 8844  14.823   9.402   2.273
42436W        W 8845  41.949  19.133  14.977
42437W        W 8846  31.643  27.554  10.666
42438W        W 8847  22.763  20.038   4.151
42439W        W 8848  42.041  14.820   1.288
42440W        W 8849   1.226  39.456  13.547
42441W        W 8850  21.556  36.004  11.231
42442W        W 8851  28.633  21.472  14.972
42443W        W 8852  15.637   7.927   0.295
42444W        W 8853   4.837  19.584   3.809
42445W        W 8854  30.191  30.542  13.474
42446W        W 8855  18.623  34.398  14.896
42447W        W 8856  26.593  43.346  14.530
42448W        W 8857  40.473  23.636  12.481
42449W        W 8858  13.278  14.636   1.899
42450W        W 8859   7.690  16.709   0.383
42451W        W 8860  43.663  21.293  11.544
42452W        W 8861  11.190   5.679   0.459
42453W        W 8862  19.553  36.282   3.381
42454W        W 8863  16.551  44.801  12.418
42455W        W 8864  34.973   7.899   0.031
42456W        W 8865  43.501  23.297  14.282
42457W        W 8866  23.202  24.632   4.446
42458W        W 8867  38.928   3.250   4.592
42459W        W 8868  26.080  29.274  13.079
42460W        W 8869  32.133  14.950  11.520
42461W        W 8870   2.828  39.973  11.293
42462W        W 8871  29.441   5.865   1.476
42463W        W 8872  23.352  39.974   0.415
42464W        W 8873  15.556   9.729  11.274
42465W        W 8874  31.440  42.476   2.283
42466W        W 8875   0.120  18.844  13.398
42467W        W 8876  11.840  39.544   3.689
42468W        W 8877  37.414  15.269   4.182
42469W        W 8878   7.409   7.322  14.732
42470W        W 8879  29.372  24.667  12.826
42471W        W 8880  30.400  16.682   0.376
42472W        W 8881  32.002   7.523   1.099
42473W        W 8882  35.541  25.924   2.877
42474W        W 8883  40.472  21.459  13.502
42475W        W 8884   9.649  10.700   3.751
42476W        W 8885  43.249  32.609   1.901
42477W        W 8886  25.014  27.584   3.813
42478W        W 8887   3.502  11.676   2.448
42479W        W 8888  13.354   8.305  14.241
42480W        W 8889  41.116   3.241  12.461
42481W        W 8890  24.576  14.263   3.072
42482W        W 8891  39.039   5.570  13.941
42483W        W 8892  10.075  10.571  11.060
42484W        W 8893   8.395  35.317   2.307
42485W        W 8894  43.047  16.847   2.703
42486W        W 8895   7.862  35.843  13.010
42487W        W 8896   6.703  37.881  11.975
42488W        W 8897  19.695  33.601   0.074
42489W        W 8898  40.085  36.772  13.755
42490W        W 8899  39.300  24.258  12.093
42491W        W 8900   3.328   0.757  10.965
42492W        W 8901  17.233   9.733   0.340
42493W        W 8902  22.156   2.360   3.170
42494W        W 8903  19.101  18.046  12.477
42495W        W 8904  40.300  41.774   4.161
42496W        W 8905   4.795   3.501  13.041
42497W        W 8906  29.811  16.524   0.372
42498W        W 8907  22.704  28.980  11.453
42499W        W 8908  37.198   7.417  10.403
42500W        W 8909  29.688  44.900  12.577
42501W        W 8910   9.814  30.052   2.766
42502W        W 8911   9.142  17.370   4.226
42503W        W 8912  33.854  18.132   4.299
42504W        W 8913  15.707  12.065  13.976
42505W        W 8914  15.129  28.629  10.743
42506W        W 8915  17.767  43.449  12.478
42507W        W 8916   2.258   1.239   0.216
42508W        W 8917  35.437  43.559   3.217
42509W        W 8918   9.390  10.227   3.677
42510W        W 8919  20.588   2.456  12.964
42511W        W 8920  44.929   0.022  11.586
42512W        W 8921  15.325  11.197  12.663
42513W        W 8922  15.317  11.715  12.499
42514W        W 8923  26.815   2.352   2.949
42515W        W 8924  14.651   7.835   4.663
42516W        W 8925   3.121   1.497   2.584
42517W        W 8926  32.054  11.692   1.143
42518W        W 8927  32.117  20.718   3.521
42519W        W 8928  23.193   4.356   0.873
42520W        W 8929  14.630  14.057   1.348
42521W        W 8930  13.260  15.252   4.622
42522W        W 8931   4.890  15.207  10.558
42523W        W 8932  22.245  28.232   4.485
42524W        W 8933  28.336  28.568  13.317
42525W        W 8934   7.749  28.546  13.933
42526W        W 8935  39.036  30.031  13.591
42527W        W 8936  27.894   7.121  10.593
42528W        W 8937   1.860  19.145   2.943
42529W        W 8938  41.480  43.335   3.767
42530W        W 8939   4.964  34.931   0.405
42531W        W 8940   5.535  13.136  12.409
42532W        W 8941  20.481  18.208  14.823
42533W        W 8942  33.661  24.004   3.301
42534W        W 8943  10.371  35.080  13.556
42535W        W 8944  21.664   3.673   1.174
42536W        W 8945  18.066  40.128  14.459
42537W        W 8946  39.309  44.413   1.425
42538W        W 8947  39.340   9.904   2.859
42539W        W 8948  33.922  43.292   1.453
42540W        W 8949   4.448  43.373  11.765
42541W        W 8950   2.535   3.059   4.800
42542W        W 8951  42.770   4.631   1.642
42543W        W 8952  10.337  37.108   5.539
42544W        W 8953   6.103  35.888   1.700
42545W        W 8954  24.445   1.727  11.559
42546W        W 8955  36.806   3.382   1.325
42547W        W 8956  17.338   7.899   0.045
42548W        W 8957  36.034  24.897   5.253
42549W        W 8958   6.679  41.255   3.759
42550W        W 8959  43.002  27.624  14.249
42551W        W 8960  18.277  37.576   3.635
42552W        W 8961  11.084  38.590  14.071
42553W        W 8962  11.401   0.340  12.973
42554W        W 8963   7.613  37.044   1.399
42555W        W 8964  25.699  25.265   5.173
42556W        W 8965   3.381  11.400  12.692
42557W        W 8966  11.648   3.186   1.695
42558W        W 8967  37.811  42.534  14.785
42559W        W 8968  38.286  40.061  14.315
42560W        W 8969  33.601  27.681   4.592
42561W        W 8970  12.617  42.291   4.044
42562W        W 8971  18.571   8.284  14.108
42563W        W 8972  17.971  32.453  14.055
42564W        W 8973  17.619  42.952  12.550
42565W        W 8974   9.333  14.538  14.891
42566W        W 8975  27.426  30.414   4.958
42567W        W 8976   9.491   7.392   0.018
42568W        W 8977  41.448  38.783  13.433
42569W        W 8978  15.926  38.807  13.298
42570W        W 8979  22.065   5.348  11.854
42571W        W 8980  21.090  33.526  10.527
42572W        W 8981   7.744  14.603  10.503
42573W        W 8982  39.987  20.315   1.450
42574W        W 8983  28.369   5.308  14.804
42575W        W 8984  29.452  32.981  14.885
42576W        W 8985   4.433  21.521   0.815
42577W        W 8986  22.427  11.344   2.296
42578W        W 8987  36.299  35.148   3.678
42579W        W 8988  20.957  17.845  14.060
42580W        W 8989  39.770  14.160   2.370
42581W        W 8990   2.040  37.480  13.947
42582W        W 8991   3.453  18.551   1.228
42583W        W 8992  33.457  32.451   2.327
42584W        W 8993  44.388  36.878  12.030
42585W        W 8994  43.446  18.263  12.688
42586W        W 8995  42.994  37.006   1.381
42587W        W 8996  34.008  30.551  11.544
42588W        W 8997  43.732  16.290   3.886
42589W        W 8998  38.128  12.464   3.756
42590W        W 8999  11.863   9.620   2.781
42591W        W 9000  43.976  29.741  12.010
42592W        W 9001  24.082  34.111  11.715
42593W        W 9002  20.445  15.686  13.903
42594W        W 9003  10.238  25.304  12.056
42595W        W 9004   0.905  26.020  12.575
42596W        W 9005  24.657  38.621  14.759
42597W        W 9006  22.050  44.339  14.381
42598W        W 9007  32.174  25.706  10.679
42599W        W 9008   4.180  13.653  11.638
42600W        W 9009  19.654  31.801   3.332
42601W        W 9010  18.666  42.895   0.862
42602W        W 9011  24.406  38.909   2.131
42603W        W 9012  21.136  28.700   0.213
42604W        W 9013  33.916  19.838   2.112
42605W        W 9014  35.505  16.133  11.871
42606W        W 9015  20.826  35.935  10.494
42607W        W 9016  37.342  37.553  11.168
42608W        W 9017  15.592   7.378   3.264
42609W        W 9018  36.940  13.691  10.706
42610W        W 9019  37.493  28.171  11.695
42611W        W 9020  15.247  36.816  13.953
42612W        W 9021  18.782  29.118  14.425
42613W        W 9022  33.982   8.936   0.271
42614W        W 9023  21.755  10.649  11.002
42615W        W 9024  40.816  38.818   0.898
42616W        W 9025   6.352  37.977   1.371
42617W        W 9026   7.443  37.803  11.630
42618W        W 9027  35.165   2.372  14.977
42619W        W 9028   0.017  42.919   0.436
42620W        W 9029   4.204   8.921  11.117
42621W        W 9030   0.388  25.416  11.605
42622W        W 9031  23.132  23.570   4.267
42623W        W 9032  44.301  33.001   2.642
42624W        W 9033  31.887  22.520  11.683
42625W        W 9034  18.737  30.359  12.060
42626W        W 9035  25.507  16.767   2.490
42627W        W 9036  30.981  28.060   1.400
42628W        W 9037  34.835  35.817  14.811
42629W        W 9038   8.429  25.542  11.906
42630W        W 9039  38.341  23.782   3.336
42631W        W 9040  37.795   8.467   1.802
42632W        W 9041  40.353  10.057   4.347
42633W        W 9042   9.105  42.880   1.914
42634W        W 9043  18.867  44.306   5.003
42635W        W 9044  11.915  38.351  11.667
42636W        W 9045  22.968  15.223  13.451
42637W        W 9046  11.585   1.526  12.373
42638W        W 9047  40.444   0.622  12.032
42639W        W 9048  13.860  28.732  12.888
42640W        W 9049  22.608  44.338  13.118
42641W        W 9050  21.610  11.730   1.292
42642W        W 9051  14.703  43.792  13.018
42643W        W 9052  43.671  41.102   0.345
42644W        W 9053  42.036  35.345  12.847
42645W        W 9054   3.495  40.722   3.686
42646W        W 9055  14.807   8.852   0.082
42647W        W 9056  34.587   6.582  12.358
42648W        W 9057  12.883   5.286  14.792
42649W        W 9058  29.493  15.805  10.238
42650W        W 9059   3.769  26.975   4.234
42651W        W 9060  14.075  40.349   2.915
42652W        W 9061   9.923   2.818   4.083
42653W        W 9062  15.865  42.431   4.579
42654W        W 9063  14.514  27.085  10.680
42655W        W 9064  11.257  17.203  14.949
42656W        W 9065  25.701  16.802   0.984
42657W        W 9066   1.350  44.074   3.655
42658W        W 9067  35.486  40.590   1.444
42659W        W 9068  39.032  10.663   2.163
42660W        W 9069  42.499  13.605   1.420
42661W        W 9070  41.628  15.390   2.909
42662W        W 9071   6.224  23.475   9.875
42663W        W 9072   0.316  35.083  11.632
42664W        W 9073  31.879  37.775  11.382
42665W        W 9074  36.335  13.492   1.693
42666W        W 9075  29.555  14.560   3.230
42667W        W 9076  31.813  42.256  11.403
42668W        W 9077   9.653  35.720  12.003
42669W        W 9078  23.301  22.055   1.372
42670W        W 9079  18.528  36.935  14.417
42671W        W 9080  35.829   2.290  12.282
42672W        W 9081   4.962   8.277   5.074
42673W        W 9082  35.346  16.046  14.791
42674W        W 9083   6.684  31.597   0.506
42675W        W 9084   8.571   2.167   4.655
42676W        W 9085  40.063  10.957   1.256
42677W        W 9086  34.339  28.724   3.994
42678W        W 9087   7.766  37.545  13.655
42679W        W 9088  39.369  43.078  14.494
42680W        W 9089   9.297   2.206  12.021
42681W        W 9090  24.774  10.259  12.067
42682W        W 9091   0.896  17.638   1.683
42683W        W 9092  26.674  16.935  12.658
42684W        W 9093  14.621  13.333   2.328
42685W        W 9094  27.526  44.731  13.275
42686W        W 9095  35.426  28.427   0.335
42687W        W 9096   4.727  44.386   4.316
42688W        W 9097   2.507   4.274  11.992
42689W        W 9098  44.440   0.335  11.618
42690W        W 9099  28.262  20.629  14.903
42691W        W 9100  32.507  10.749   1.873
42692W        W 9101  25.096   7.861   4.780
42693W        W 9102  28.541  38.042  12.899
42694W        W 9103  22.254  19.131  11.090
42695W        W 9104   0.223  14.522   1.715
42696W        W 9105  14.040  17.529  13.268
42697W        W 9106  18.663  26.857   2.784
42698W        W 9107  17.259  25.090  12.511
42699W        W 9108  27.464  17.154   2.355
42700W        W 9109  15.270   0.992   3.586
42701W        W 9110  35.488  27.885  12.997
42702W        W 9111  39.931   3.481   0.578
42703W        W 9112  38.367  24.275   4.268
42704W        W 9113  43.031  36.769  14.527
42705W        W 9114  12.554  16.841   0.113
42706W        W 9115  43.438  21.057   1.736
42707W        W 9116  33.561  19.313  14.909
42708W        W 9117  24.930   1.376  14.845
42709W        W 9118  20.076  31.944  10.260
42710W        W 9119   2.488  34.433   1.381
42711W        W 9120  31.885   9.905   1.395
42712W        W 9121   1.972  37.146  12.497
42713W        W 9122  40.626  15.250   4.744
42714W        W 9123  30.418  15.643   4.314
42715W        W 9124  11.743  43.932  13.310
42716W        W 9125  16.899  22.441   5.382
42717W        W 9126  26.585  25.239  12.822
42718W        W 9127  20.910  25.379   1.749
42719W        W 9128  12.052  12.385  11.494
42720W        W 9129  41.952  25.487   5.207
42721W        W 9130  20.064  27.603   2.835
42722W        W 9131   9.310  38.627  12.368
42723W        W 9132  27.932  14.253   0.375
42724W        W 9133  13.810  18.682  11.056
42725W        W 9134   1.862  40.216   3.699
42726W        W 9135  24.736  10.140   1.086
42727W        W 9136  20.635  39.315  12.611
42728W        W 9137  34.390  32.441   2.153
42729W        W 9138  15.570  18.523  10.567
42730W        W 9139   8.895   6.343   2.384
42731W        W 9140  30.403  23.266  12.617
42732W        W 9141  19.985  35.400  13.419
42733W        W 9142   9.229   1.353  10.670
42734W        W 9143  27.158  44.209   1.357
42735W        W 9144  15.660  16.218   0.033
42736W        W 9145   3.951  34.107   2.334
42737W        W 9146   6.240  43.462  12.508
42738W        W 9147  20.925  17.199   1.249
42739W        W 9148  13.292  17.517  13.052
42740W        W 9149  39.248  12.644  10.830
42741W        W 9150   5.285   0.522   2.688
42742W        W 9151  16.416   1.360   1.709
42743W        W 9152  17.349  13.115   4.126
42744W        W 9153   1.218   6.706   3.559
42745W        W 9154   5.442  17.776   3.177
42746W        W 9155   7.728  23.115  10.780
42747W        W 9156  21.435   0.759   4.460
42748W        W 9157  34.064   1.751   0.367
42749W        W 9158  19.281   6.478  10.830
42750W        W 9159  42.868  36.161  12.098
42751W        W 9160  20.316  26.334   4.161
42752W        W 9161   1.280  15.855  12.652
42753W        W 9162  21.046  30.332  11.224
42754W        W 9163  25.232  15.534   0.864
42755W        W 9164  44.833  14.291  13.517
42756W        W 9165  13.720   6.357   4.056
42757W        W 9166  33.430   4.476  12.928
42758W        W 9167  22.564  24.507   2.303
42759W        W 9168  24.661  38.148  11.195
42760W        W 9169  32.169  14.934  12.944
42761W        W 9170  23.008  28.591   3.814
42762W        W 9171  23.430  32.198  14.982
42763W        W 9172  19.531  30.457  13.429
42764W        W 9173  32.082  24.403   2.102
42765W        W 9174  16.184  27.695  13.030
42766W        W 9175  11.114  33.423   0.013
42767W        W 9176  28.545   7.665  13.601
42768W        W 9177  31.736  26.572  14.967
42769W        W 9178  36.987  33.527  14.361
42770W        W 9179  18.693  26.930  13.318
42771W        W 9180  33.715  23.187   1.034
42772W        W 9181  27.585  11.931  13.486
42773W        W 9182  18.923  28.051   2.146
42774W        W 9183  41.422   0.410  11.739
42775W        W 9184   3.752  26.411  14.037
42776W        W 9185  12.245  21.616  14.874
42777W        W 9186  12.135   2.445   4.051
42778W        W 9187   6.669   7.676   1.830
42779W        W 9188  14.915  26.916   4.210
42780W        W 9189  28.241  42.260  12.129
42781W        W 9190  14.163   2.252  13.378
42782W        W 9191  14.399  22.239  13.986
42783W        W 9192  19.030  44.194   3.712
42784W        W 9193  31.491  11.383   3.651
42785W        W 9194  39.746  10.204   3.751
42786W        W 9195  28.584  41.886  13.047
42787W        W 9196  27.979  28.911   2.680
42788W        W 9197   7.384  42.519  11.138
42789W        W 9198  23.061  43.059  13.631
42790W        W 9199  37.904  38.889   2.634
42791W        W 9200   3.203  21.196  11.096
42792W        W 9201  14.321  25.223   2.734
42793W        W 9202  41.743   0.005  11.585
42794W        W 9203   5.157  38.063  13.312
42795W        W 9204  13.804  25.452  11.916
42796W        W 9205   8.463   4.421  14.622
42797W        W 9206   9.830   4.777   4.884
42798W        W 9207   5.813  26.281   4.537
42799W        W 9208  42.075   3.233   2.029
42800W        W 9209  13.498  44.931   4.944
42801W        W 9210  23.170  23.028   4.411
42802W        W 9211  27.433  16.907   1.010
42803W        W 9212  17.048  15.188   4.214
42804W        W 9213  18.935  27.617  13.894
42805W        W 9214  11.638  36.457   1.867
42806W        W 9215  11.872  16.282  14.136
42807W        W 9216   7.674  20.087   5.039
42808W        W 9217  36.919  40.355  12.701
42809W        W 9218   1.324  43.372   0.671
42810W        W 9219  43.795  37.583   1.970
42811W        W 9220  37.778  17.632  14.716
42812W        W 9221  18.317   6.416   4.764
42813W        W 9222  33.989  36.411   4.640
42814W        W 9223  22.607  37.152   0.301
42815W        W 9224  34.582  17.536   1.843
42816W        W 9225   7.332  20.211   1.824
42817W        W 9226  11.448  37.859  11.190
42818W        W 9227   9.422  43.554   0.734
42819W        W 9228   4.029   6.314  11.578
42820W        W 9229  24.183  40.780  14.356
42821W        W 9230  12.045  12.798   3.616
42822W        W 9231  16.200  11.417   1.485
42823W        W 9232  16.275   5.642   1.982
42824W        W 9233  34.057  25.204   1.299
42825W        W 9234  26.475  27.413  11.974
42826W        W 9235  28.094  33.912  11.430
42827W        W 9236   0.521  23.280   1.701
42828W        W 9237  44.927  34.479  12.043
42829W        W 9238  33.619  43.945  13.437
42830W        W 9239   6.831  43.491   1.958
42831W        W 9240  13.623  17.249  13.910
42832W        W 9241  21.698  42.377   4.111
42833W        W 9242  30.271  12.699   3.668
42834W        W 9243  16.422  42.172   3.781
42835W        W 9244   0.374  30.444   4.160
42836W        W 9245  33.470  28.853  14.916
42837W        W 9246  29.149  32.957   1.630
42838W        W 9247  19.480  34.455  13.544
42839W        W 9248  28.660  17.354   0.959
42840W        W 9249   7.221  42.981  11.275
42841W        W 9250  15.365  41.974  14.313
42842W        W 9251  37.533  24.425  12.290
42843W        W 9252  24.998   2.151  13.542
42844W        W 9253   4.148  31.853  11.130
42845W        W 9254  20.119  24.441   0.569
42846W        W 9255  20.362  23.745  14.943
42847W        W 9256  44.765  33.819  12.604
42848W        W 9257  13.871  22.657  10.137
42849W        W 9258  23.275  23.200   3.926
42850W        W 9259  24.638  14.179  12.508
42851W        W 9260  27.671  36.672  11.183
42852W        W 9261  36.833   4.947   1.429
42853W        W 9262   9.769  27.187  12.658
42854W        W 9263  33.633   5.299   3.366
42855W        W 9264  34.588  30.063   0.467
42856W        W 9265  18.038  25.612   4.592
42857W        W 9266  22.449  20.633   4.107
42858W        W 9267   7.600  12.762   1.274
42859W        W 9268  23.874   1.336   1.272
42860W        W 9269  12.449  35.368  11.432
42861W        W 9270   9.816   0.534   3.694
42862W        W 9271  18.623  10.044  13.474
42863W        W 9272  35.020  14.313   3.260
42864W        W 9273  22.147  31.167   1.821
42865W        W 9274  18.004  26.419   1.872
42866W        W 9275   0.263  31.025   3.283
42867W        W 9276  26.469  12.667  14.536
42868W        W 9277  10.149  43.403   2.802
42869W        W 9278  31.418  30.531  11.293
42870W        W 9279   7.121  38.344   3.700
42871W        W 9280  39.982  32.215   0.722
42872W        W 9281  28.007  31.966  13.630
42873W        W 9282  32.952  10.741  12.902
42874W        W 9283  20.611  35.615   0.782
42875W        W 9284  10.617   8.877   3.223
42876W        W 9285  43.291  25.669   2.722
42877W        W 9286  23.444   1.027  14.880
42878W        W 9287   2.874  23.648   1.201
42879W        W 9288   8.177   6.865   2.576
42880W        W 9289  26.676  17.020   5.157
42881W        W 9290   6.072  16.835  10.505
42882W        W 9291  12.252  19.489   4.199
42883W        W 9292  39.582   6.024  10.820
42884W        W 9293   1.474   8.670   0.196
42885W        W 9294   0.353   5.679   1.446
42886W        W 9295  12.831  15.850   3.577
42887W        W 9296  13.439   7.402  12.971
42888W        W 9297  20.551  28.494   2.550
42889W        W 9298   1.513   6.359  13.580
42890W        W 9299   2.322  43.516   2.787
42891W        W 9300  20.187  33.876  14.889
42892W        W 9301   2.187  10.334  12.639
42893W        W 9302   9.785  38.020  11.207
42894W        W 9303   0.010  42.219  12.433
42895W        W 9304  30.721  20.424  11.864
42896W        W 9305  44.365   5.266  10.097
42897W        W 9306  17.257  26.967   0.787
42898W        W 9307   7.320  34.643  10.250
42899W        W 9308  41.412   3.941  10.807
42900W        W 9309  28.740  31.620   1.938
42901W        W 9310  34.583   9.150   2.826
42902W        W 9311  15.793  12.178  12.905
42903W        W 9312   8.318   8.474   4.945
42904W        W 9313  44.163  10.838   0.234
42905W        W 9314  24.297  25.667  13.060
42906W        W 9315  10.361  27.167   0.158
42907W        W 9316   9.118  15.192  14.282
42908W        W 9317  19.689  40.305  13.836
42909W        W 9318  29.505   4.578  13.308
42910W        W 9319  15.149  44.001  10.604
42911W        W 9320  39.270  16.297   1.964
42912W        W 9321  28.671  24.781  12.716
42913W        W 9322   2.478  39.088   1.604
42914W        W 9323  31.942  16.135  13.813
42915W        W 9324  44.328  16.347   0.738
42916W        W 9325  26.189  31.702  14.892
42917W        W 9326  33.868  13.428   3.434
42918W        W 9327  25.721   0.961  14.082
42919W        W 9328  40.466  22.862  12.921
42920W        W 9329  34.632  44.011   4.019
42921W        W 9330  28.269   8.107   0.870
42922W        W 9331  44.383  12.650   0.346
42923W        W 9332   5.697  37.084  10.748
42924W        W 9333  14.723  26.436  13.053
42925W        W 9334  30.631  43.409  10.961
42926W        W 9335  28.465  29.984   0.969
42927W        W 9336  18.586  33.818   3.793
42928W        W 9337  36.939  14.180   2.093
42929W        W 9338  43.232  13.357  10.869
42930W        W 9339   9.886  36.178   4.529
42931W        W 9340   0.277   2.901  13.882
42932W        W 9341  21.567  33.770   3.588
42933W        W 9342   2.487  20.046  13.503
42934W        W 9343  25.473  28.549  13.971
42935W        W 9344  11.429  41.865  13.381
42936W        W 9345  18.206  30.112  10.419
42937W        W 9346  30.556  11.695  10.514
42938W        W 9347   3.678  31.649  10.444
42939W        W 9348  21.080   6.281   2.190
42940W        W 9349  32.999   8.336   2.010
42941W        W 9350  16.189   6.898  14.483
42942W        W 9351  41.272  16.755   0.757
42943W        W 9352  40.947   7.690   4.603
42944W        W 9353  42.387  25.702   1.426
42945W        W 9354  17.109   2.910  14.466
42946W        W 9355  27.207  41.832   1.940
42947W        W 9356  32.470  23.626   4.503
42948W        W 9357  41.012  35.658  10.456
42949W        W 9358  17.105  16.017  10.728
42950W        W 9359  17.512  32.933   0.735
42951W        W 9360  33.252  38.939  14.020
42952W        W 9361  22.331   3.131   5.207
42953W        W 9362  26.032  12.566  12.037
42954W        W 9363  34.448  16.705  13.866
42955W        W 9364  35.910  36.676  14.339
42956W        W 9365  41.110  25.450   1.780
42957W        W 9366   3.012  11.464  11.144
42958W        W 9367   6.418  35.303  14.050
42959W        W 9368  28.631  35.146   4.719
42960W        W 9369  35.445  19.974   2.909
42961W        W 9370  38.823  17.368  11.649
42962W        W 9371  22.871   2.262  14.721
42963W        W 9372  38.794   1.223  12.148
42964W        W 9373   4.356  29.956  11.776
42965W        W 9374  28.587  34.870   2.705
42966W        W 9375  44.867   5.375  13.981
42967W        W 9376  41.223  38.862   1.202
42968W        W 9377  10.298  34.130  14.937
42969W        W 9378  11.834  39.127   2.819
42970W        W 9379  12.365  15.874   0.513
42971W        W 9380   4.513  21.692   3.265
42972W        W 9381  28.421  12.181  11.509
42973W        W 9382  35.898  24.276   2.209
42974W        W 9383   4.846  23.982   1.620
42975W        W 9384  28.765  23.236  13.593
42976W        W 9385  24.612  40.110   0.995
42977W        W 9386  28.297   9.894  12.793
42978W        W 9387  42.339   1.589  12.533
42979W        W 9388  42.593  26.523   4.490
42980W        W 9389  35.101  22.144  11.414
42981W        W 9390  24.791  39.060   4.191
42982W        W 9391  41.795  16.093   0.433
42983W        W 9392  12.730  42.840  12.122
42984W        W 9393  25.741  35.628  13.182
42985W        W 9394  14.789  40.927   4.730
42986W        W 9395  28.218  43.277  14.433
42987W        W 9396  27.182  14.605   3.380
42988W        W 9397  12.258  40.257  13.713
42989W        W 9398  32.225   6.196   3.522
42990W        W 9399  40.443   1.250   3.688
42991W        W 9400  27.017  37.480   1.189
42992W        W 9401   8.278  16.280  13.998
42993W        W 9402  27.761  25.217   0.303
42994W        W 9403  20.340  30.859   0.335
42995W        W 9404  39.416  32.717  14.658
42996W        W 9405  30.991  10.628  14.604
42997W        W 9406   5.659  10.113  13.903
42998W        W 9407  34.545  38.099  14.034
42999W        W 9408   2.487  24.464  12.389
43000W        W 9409  27.511   0.126   3.672
43001W        W 9410  37.256   5.379   0.531
43002W        W 9411  44.344  42.366   1.274
43003W        W 9412  24.655   9.941  11.253
43004W        W 9413   7.951  16.625  10.978
43005W        W 9414  38.827   9.415  12.943
43006W        W 9415   8.694   4.240  11.392
43007W        W 9416  17.605   3.812  12.599
43008W        W 9417  28.663   7.767  10.752
43009W        W 9418  17.754   7.116  13.993
43010W        W 9419  20.750  40.226  11.550
43011W        W 9420  19.072  16.322   1.196
43012W        W 9421  24.558  40.999   1.181
43013W        W 9422  29.084  30.736   3.529
43014W        W 9423  26.034  35.013   2.419
43015W        W 9424  20.559  20.560  13.423
43016W        W 9425   3.655  40.789  10.584
43017W        W 9426  28.206  24.656  11.994
43018W        W 9427  33.795  23.665  10.040
43019W        W 9428  39.557  32.908  12.915
43020W        W 9429  12.129  39.342   2.460
43021W        W 9430  27.173  16.112  14.790
43022W        W 9431  15.619  36.849  14.953
43023W        W 9432  39.481  28.519  11.676
43024W        W 9433   8.180  20.249  12.793
43025W        W 9434  36.278  40.266  13.985
43026W        W 9435  30.704   0.685  11.639
43027W        W 9436  20.591  33.592  12.896
43028W        W 9437   7.194   7.778  11.712
43029W        W 9438  15.914  23.027   5.524
43030W        W 9439   1.019  15.198  14.352
43031W        W 9440  36.399  13.966   1.887
43032W        W 9441  18.585   1.857   0.806
43033W        W 9442  42.362  15.242  12.331
43034W        W 9443   6.491  35.441   4.777
43035W        W 9444  44.942  36.135   2.227
43036W        W 9445  42.348  37.634  13.768
43037W        W 9446  26.221  41.603   1.898
43038W        W 9447  30.415   0.181   3.642
43039W        W 9448   7.118  33.072  12.513
43040W        W 9449  14.040  13.076  13.994
43041W        W 9450  22.354  12.714   3.810
43042W        W 9451  32.549  21.334   1.381
43043W        W 9452  41.523   5.703   1.136
43044W        W 9453  31.375  27.135   1.222
43045W        W 9454  20.623  26.512  10.931
43046W        W 9455   5.272  18.020  13.324
43047W        W 9456  37.917  41.009  13.957
43048W        W 9457  14.350   4.702   1.570
43049W        W 9458  24.133  29.888  12.157
43050W        W 9459   6.206  16.372  13.899
43051W        W 9460  10.731  43.082  13.699
43052W        W 9461  20.203  35.958   3.939
43053W        W 9462  42.597  27.069   1.335
43054W        W 9463  13.682  36.345   4.111
43055W        W 9464   6.763   7.520  11.196
43056W        W 9465   6.688  38.771   3.024
43057W        W 9466   0.260  27.502  10.684
43058W        W 9467  23.522  16.738   4.285
43059W        W 9468  12.397  27.937  11.813
43060W        W 9469  23.560   6.873   2.741
43061W        W 9470  27.017  33.645   1.436
43062W        W 9471  39.054  39.640  13.494
43063W        W 9472   6.677  36.638   1.427
43064W        W 9473  23.992  14.873  12.059
43065W        W 9474  32.194  11.086   0.030
43066W        W 9475  10.386  34.906  14.472
43067W        W 9476   0.818   7.870   0.044
43068W        W 9477  20.025   3.437   4.360
43069W        W 9478  20.626  15.730  13.015
43070W        W 9479  36.408   5.762  13.920
43071W        W 9480  35.891  37.532   2.640
43072W        W 9481  17.537  41.395   3.653
43073W        W 9482  42.754  16.304   2.501
43074W        W 9483  21.390  35.439   2.497
43075W        W 9484  15.732  33.193   0.966
43076W        W 9485  10.661  13.019  14.462
43077W        W 9486   6.790  38.628  13.592
43078W        W 9487   0.100  40.922   3.949
43079W        W 9488  14.096  39.432   4.574
43080W        W 9489   7.598  20.212  14.530
43081W        W 9490  43.986  32.806   4.786
43082W        W 9491  11.932   9.158   0.514
43083W        W 9492  25.333   4.299   3.363
43084W        W 9493  25.230  29.982  12.000
43085W        W 9494  32.596  19.168   4.107
43086W        W 9495  20.200  39.253   2.261
43087W        W 9496  33.070   9.712  10.653
43088W        W 9497   5.109  28.980   0.796
43089W        W 9498  23.378  40.481  14.343
43090W        W 9499  35.642   7.829   1.968
43091W        W 9500  39.937   6.943   3.786
43092W        W 9501  32.329  34.008   3.820
43093W        W 9502  13.641  25.072  13.516
43094W        W 9503  27.508  12.208  13.997
43095W        W 9504   4.494  19.803  14.418
43096W        W 9505  43.059  41.988   3.330
43097W        W 9506  34.411  42.261  14.935
43098W        W 9507  39.395  42.159   1.244
43099W        W 9508  31.463  19.266  11.592
43100W        W 9509   0.355  41.645   3.270
43101W        W 9510  17.812   7.048   3.273
43102W        W 9511   2.462  42.551  10.368
43103W        W 9512   5.932  32.350  11.524
43104W        W 9513  29.599   6.080   2.324
43105W        W 9514  20.711  12.760   1.389
43106W        W 9515  43.259  30.107  11.724
43107W        W 9516  17.134  22.125  10.828
43108W        W 9517   8.165  43.996  10.817
43109W        W 9518  13.716  10.802   0.248
43110W        W 9519  38.900  22.194  13.445
43111W        W 9520  41.127   2.947   0.310
43112W        W 9521  30.560   9.117   2.474
43113W        W 9522  28.618  31.217  13.995
43114W        W 9523  38.670   5.854  10.684
43115W        W 9524  36.836  10.109  10.813
43116W        W 9525  30.651  11.774   4.155
43117W        W 9526  17.081  15.724  12.926
43118W        W 9527  35.274   2.285  12.319
43119W        W 9528   2.791  28.399   1.217
43120W        W 9529  23.722   6.733   1.843
43121W        W 9530  42.972  12.181  10.271
43122W        W 9531  34.943  10.804   3.280
43123W        W 9532   4.687  22.577  12.518
43124W        W 9533  17.431  28.259   4.492
43125W        W 9534  24.055   7.224   4.053
43126W        W 9535   1.683  30.677   2.393
43127W        W 9536  32.046   6.504  10.713
43128W        W 9537   2.768  19.192  14.012
43129W        W 9538   2.961  35.390   0.370
43130W        W 9539  18.299  43.381   3.247
43131W        W 9540  13.770  17.095   4.289
43132W        W 9541  39.396   4.866  12.868
43133W        W 9542  40.332  42.893   1.869
43134W        W 9543   0.415  12.323   3.245
43135W        W 9544  21.096  24.911   0.924
43136W        W 9545   7.351  10.837   2.140
43137W        W 9546   8.679  28.117   0.347
43138W        W 9547   2.451  11.193   3.708
43139W        W 9548  34.118  37.058  14.826
43140W        W 9549  38.761  15.918  12.875
43141W        W 9550   8.383  10.255   1.636
43142W        W 9551   6.807   7.213   0.205
43143W        W 9552  21.736  20.095   1.460
43144W        W 9553   8.185  44.523   0.350
43145W        W 9554  41.839  21.680   1.567
43146W        W 9555  22.161  34.074  10.722
43147W        W 9556   8.364  44.855  11.804
43148W        W 9557  27.090   7.334  12.457
43149W        W 9558  11.712  43.903   0.591
43150W        W 9559   0.430  22.449   2.299
43151W        W 9560  41.021  38.679  10.811
43152W        W 9561  32.172  44.859   4.898
43153W        W 9562  30.916  14.161  13.841
43154W        W 9563  14.787  14.069  10.317
43155W        W 9564  31.404  32.521  12.211
43156W        W 9565   9.213  14.672   4.334
43157W        W 9566   0.006  37.896  13.426
43158W        W 9567  13.014  13.350   4.547
43159W        W 9568  29.448   4.277  11.262
43160W        W 9569  25.721  29.185  13.451
43161W        W 9570  10.775  30.465  13.906
43162W        W 9571  30.418   0.927   0.247
43163W        W 9572  43.313  23.012   1.451
43164W        W 9573  31.453   0.927   4.687
43165W        W 9574  37.401   4.016  11.103
43166W        W 9575   2.852  42.239   2.739
43167W        W 9576  42.036  37.330  11.435
43168W        W 9577  32.187  28.932   3.818
43169W        W 9578  21.005   9.751  14.775
43170W        W 9579  26.699  42.494   0.791
43171W        W 9580  11.103  12.195   2.382
43172W        W 9581  13.325  24.527  14.465
43173W        W 9582  35.918  43.062  12.918
43174W        W 9583  27.402  11.059  14.539
43175W        W 9584  10.802  42.386  14.960
43176W        W 9585  22.435  38.536  11.089
43177W        W 9586  43.191  27.155   3.135
43178W        W 9587  17.679  13.196  12.090
43179W        W 9588   2.830  30.169  10.748
43180W        W 9589  25.732  44.777  11.182
43181W        W 9590   7.311  14.652   1.786
43182W        W 9591  16.183  33.939   0.761
43183W        W 9592  14.530  33.041  14.486
43184W        W 9593  28.325  38.277   4.666
43185W        W 9594  37.050  13.323   5.015
43186W        W 9595  29.720  20.169  12.967
43187W        W 9596  29.049  43.104  11.160
43188W        W 9597  12.202   6.405  11.042
43189W        W 9598  36.051  15.005   0.226
43190W        W 9599   2.312  31.223   4.586
43191W        W 9600  21.538  44.689   0.449
43192W        W 9601  37.555  36.525  10.750
43193W        W 9602  39.422  14.692   5.403
43194W        W 9603   8.847   6.462  13.602
43195W        W 9604  12.250  28.442  13.135
43196W        W 9605   1.232  38.397   1.954
43197W        W 9606  22.616   2.862  14.334
43198W        W 9607  30.437  28.964  12.865
43199W        W 9608  20.048  40.275   3.828
43200W        W 9609  41.550  14.836  14.303
43201W        W 9610  36.166  34.111   1.829
43202W        W 9611   9.454   1.520  14.821
43203W        W 9612  35.341  42.871   4.951
43204W        W 9613  36.959  34.835   1.438
43205W        W 9614  43.782   7.778   4.619
43206W        W 9615   4.642  42.539   2.865
43207W        W 9616   9.641  44.459  13.301
43208W        W 9617   6.744  15.273  14.460
43209W        W 9618  30.985  35.838  11.150
43210W        W 9619  28.542  23.024  11.243
43211W        W 9620   6.910  39.493  13.386
43212W        W 9621  35.593   2.743  13.357
43213W        W 9622  33.374  36.136   3.727
43214W        W 9623  38.604  40.105  10.036
43215W        W 9624   2.409  43.817   4.136
43216W        W 9625  37.272  26.557   2.758
43217W        W 9626  24.174  12.836  11.647
43218W        W 9627   4.775  16.265   1.953
43219W        W 9628  26.928  20.067   4.076
43220W        W 9629  36.537  41.941  14.298
43221W        W 9630   0.382   2.805   2.312
43222W        W 9631  16.548  21.785  14.343
43223W        W 9632  20.685   9.968   3.331
43224W        W 9633  23.255   0.356   2.175
43225W        W 9634  37.851   0.486   2.994
43226W        W 9635   8.241  15.844  10.624
43227W        W 9636  11.899  42.491  11.174
43228W        W 9637   7.625   4.802   2.672
43229W        W 9638  44.841  15.071  14.495
43230W        W 9639  32.008  40.742  11.688
43231W        W 9640   7.182  26.660  13.777
43232W        W 9641  22.923  10.563   3.500
43233W        W 9642  37.865  20.060   2.788
43234W        W 9643   3.889   2.007   2.765
43235W        W 9644   8.692  39.881   4.679
43236W        W 9645   0.285  26.191   5.054
43237W        W 9646  28.150   1.738   3.229
43238W        W 9647  35.318  40.902  13.319
43239W        W 9648  38.477  35.154  12.549
43240W        W 9649  24.138  14.065  14.111
43241W        W 9650  40.460  26.272  14.781
43242W        W 9651  11.261  26.224  14.996
43243W        W 9652  26.601  10.182   2.348
43244W        W 9653  33.959  21.761  12.496
43245W        W 9654  32.637  29.455   3.730
43246W        W 9655  31.832  25.554   3.159
43247W        W 9656  35.546  17.808  12.739
43248W        W 9657   9.971  33.107  11.240
43249W        W 9658   4.886  10.797   2.233
43250W        W 9659  40.417  35.052  11.358
43251W        W 9660  13.652  36.151   0.033
43252W        W 9661  39.108  25.771  11.117
43253W        W 9662  22.176  11.348  11.677
43254W        W 9663  13.602  41.484   4.343
43255W        W 9664  36.008   0.876  12.910
43256W        W 9665  23.253  27.757   3.800
43257W        W 9666  20.715   8.801   4.571
43258W        W 9667  29.892  34.511   1.837
43259W        W 9668  11.184  28.457   2.488
43260W        W 9669  11.128   3.235   3.595
43261W        W 9670  22.293  24.988  11.522
43262W        W 9671  12.818  23.151  14.784
43263W        W 9672   9.838  44.257   1.460
43264W        W 9673  37.880   2.824  13.768
43265W        W 9674  25.560  23.496   2.320
43266W        W 9675  27.217   7.279  11.965
43267W        W 9676  26.143   6.343   4.679
43268W        W 9677  32.938  34.581   1.880
43269W        W 9678  19.785  10.209  13.840
43270W        W 9679  27.690  22.297  12.129
43271W        W 9680  19.841   0.257   2.189
43272W        W 9681  38.582  21.785   3.151
43273W        W 9682   0.477  33.282   4.482
43274W        W 9683   5.022  13.190   3.637
43275W        W 9684  41.361  31.182  14.521
43276W        W 9685  25.210   1.913  12.690
43277W        W 9686  19.370   6.283   3.433
43278W        W 9687  10.686  30.062   5.008
43279W        W 9688  18.968  30.002   0.560
43280W        W 9689  16.876  15.665   1.171
43281W        W 9690  21.975  24.090   1.304
43282W        W 9691   3.851   2.866  12.142
43283W        W 9692  37.177  12.201  11.073
43284W        W 9693  39.601  12.467  12.989
43285W        W 9694  24.621   4.260  12.991
43286W        W 9695  21.973  36.971   3.354
43287W        W 9696   8.349  10.358  14.700
43288W        W 9697   8.863  43.249   4.215
43289W        W 9698  34.468  21.492   3.154
43290W        W 9699  29.933  31.570   4.002
43291W        W 9700  26.720  10.067  10.300
43292W        W 9701  12.226  20.455   4.460
43293W        W 9702   3.020  23.073   0.436
43294W        W 9703  30.396  34.638   1.771
43295W        W 9704  16.121  11.860   1.244
43296W        W 9705   5.714  43.658  10.558
43297W        W 9706   5.587   4.083   0.438
43298W        W 9707   7.630  15.049   1.522
43299W        W 9708  18.228  43.329  12.673
43300W        W 9709  22.681  30.565   3.262
43301W        W 9710   5.399  14.194   2.891
43302W        W 9711  30.839  17.017   4.057
43303W        W 9712  31.680   9.706  12.918
43304W        W 9713  44.833  38.660   1.843
43305W        W 9714  32.047   8.485  14.540
43306W        W 9715   9.944  27.596   4.674
43307W        W 9716  34.911  39.318   4.967
43308W        W 9717  12.952   1.700  13.226
43309W        W 9718  14.558   0.225   4.108
43310W        W 9719   4.156  42.971  11.600
43311W        W 9720   2.356  41.186  14.025
43312W        W 9721  27.925  32.379   3.716
43313W        W 9722  12.743  16.975   2.851
43314W        W 9723   1.213   6.082   1.385
43315W        W 9724  37.851  14.413  14.481
43316W        W 9725  44.232  38.328   3.729
43317W        W 9726  10.082  19.441   1.614
43318W        W 9727   4.296  43.507   1.269
43319W        W 9728  30.578  24.066  11.995
43320W        W 9729  11.236  12.677  11.096
43321W        W 9730   7.291   9.558  12.424
43322W        W 9731  32.407  15.882  13.815
43323W        W 9732   0.355  42.891  12.898
43324W        W 9733  33.890  29.003   0.455
43325W        W 9734   0.679   1.316   4.651
43326W        W 9735  18.226  22.786  11.604
43327W        W 9736  24.258  31.667   1.206
43328W        W 9737  19.963   1.697  13.072
43329W        W 9738   9.667   3.804   4.526
43330W        W 9739  37.402  42.816  12.922
43331W        W 9740  12.834  29.641   1.065
43332W        W 9741  10.412  16.234   2.772
43333W        W 9742  15.746   8.867   3.718
43334W        W 9743  35.714  14.741   2.778
43335W        W 9744  41.687   9.687  11.766
43336W        W 9745  25.377  25.964  13.498
43337W        W 9746  12.764  36.466  12.901
43338W        W 9747  23.774  17.416   2.616
43339W        W 9748  41.955  28.114   3.104
43340W        W 9749  15.609  10.006   4.635
43341W        W 9750  38.795  35.965  14.424
43342W        W 9751  13.642   8.368   2.707
43343W        W 9752  33.529   1.616  10.292
43344W        W 9753  21.613  43.319   0.132
43345W        W 9754  43.419  23.447   1.697
43346W        W 9755  41.340  15.325   2.346
43347W        W 9756  21.094  25.403  14.002
43348W        W 9757  22.285  25.192  12.900
43349W        W 9758   7.180  37.121   3.235
43350W        W 9759  31.899   6.307   2.116
43351W        W 9760  16.785   0.539   4.756
43352W        W 9761   1.225  36.444   1.493
43353W        W 9762  39.331  10.867  13.058
43354W        W 9763  14.701  27.107   4.664
43355W        W 9764  37.227  29.584  11.508
43356W        W 9765  35.059  42.288  11.605
43357W        W 9766   1.740  36.753  12.212
43358W        W 9767  42.712  12.958   5.324
43359W        W 9768  44.536  36.946   2.835
43360W        W 9769  23.139   8.396   1.782
43361W        W 9770  24.221  25.176  13.429
43362W        W 9771  27.314   6.428  12.494
43363W        W 9772   1.880  29.157  11.188
43364W        W 9773   7.100  27.401  14.226
43365W        W 9774   3.809   1.235  14.430
43366W        W 9775  35.271  38.660   4.728
43367W        W 9776  11.646  34.019   4.145
43368W        W 9777  17.762  19.805  11.973
43369W        W 9778  21.033  13.401   1.147
43370W        W 9779  32.107  29.968  10.527
43371W        W 9780   9.238  26.279   4.229
43372W        W 9781  34.348  14.323   1.865
43373W        W 9782  32.833   3.351   2.226
43374W        W 9783  19.403  18.661   2.140
43375W        W 9784  19.235  28.322   2.645
43376W        W 9785  26.169  21.442  12.178
43377W        W 9786   3.709  36.301   3.731
43378W        W 9787   2.166  21.332  12.932
43379W        W 9788   4.409   0.335  12.540
43380W        W 9789  23.139  30.105   4.354
43381W        W 9790  26.253  42.003  14.390
43382W        W 9791   4.776  40.018   1.292
43383W        W 9792   5.396   0.522   1.685
43384W        W 9793  38.165  28.039   4.568
43385W        W 9794   7.854  42.214   3.224
43386W        W 9795   4.248  24.757   4.102
43387W        W 9796   6.221  18.848  10.841
43388W        W 9797  12.345  23.788  12.495
43389W        W 9798  13.263  25.275   2.632
43390W        W 9799  34.288  13.216   3.653
43391W        W 9800  19.984  15.681   2.387
43392W        W 9801  41.887   0.002   4.694
43393W        W 9802  32.711  33.349   4.590
43394W        W 9803  39.253  24.522   3.794
43395W        W 9804  22.544  33.615   3.715
43396W        W 9805  39.584   3.193   1.771
43397W        W 9806  33.894  33.542  12.463
43398W        W 9807  36.438  10.715  12.947
43399W        W 9808  36.896  30.095  12.752
43400W        W 9809  44.985   0.734  12.552
43401W        W 9810   9.462  11.805   3.801
43402W        W 9811  13.833  33.580  11.379
43403W        W 9812   4.191  29.592   4.064
43404W        W 9813   9.173  26.540  13.902
43405W        W 9814  20.487  43.748   3.129
43406W        W 9815  31.317  14.808  14.229
43407W        W 9816  39.398   9.391  14.944
43408W        W 9817  38.742  14.758  12.906
43409W        W 9818  29.878   2.685  13.738
43410W        W 9819  26.025  10.900   2.248
43411W        W 9820  44.753  22.606  10.382
43412W        W 9821  29.771  38.410  12.506
43413W        W 9822  36.083  35.929  11.579
43414W        W 9823  19.047  38.542   0.752
43415W        W 9824   2.844   6.800  14.785
43416W        W 9825  30.632  28.698   2.970
43417W        W 9826  43.351  12.758   1.010
43418W        W 9827  39.428  37.332  13.964
43419W        W 9828   8.234  22.153   2.093
43420W        W 9829  38.497  33.342   3.143
43421W        W 9830  41.388  32.475   0.288
43422W        W 9831   0.698  39.846  10.311
43423W        W 9832   4.804   0.172   1.019
43424W        W 9833   4.848  38.418   3.391
43425W        W 9834   6.815  25.073   3.660
43426W        W 9835  22.014   9.749   4.008
43427W        W 9836  12.930  10.834   3.341
43428W        W 9837   6.375  35.090   0.501
43429W        W 9838  29.183  15.571  13.949
43430W        W 9839  34.986  35.654   1.540
43431W        W 9840  33.458  21.648   2.014
43432W        W 9841  37.385   5.634   4.083
43433W        W 9842  29.682  42.042   4.734
43434W        W 9843  18.261  18.633  14.366
43435W        W 9844  13.696  39.427   0.446
43436W        W 9845  17.662  33.826  14.799
43437W        W 9846  39.850   0.645   0.107
43438W        W 9847  22.480  13.281  11.230
43439W        W 9848  30.390  25.942  12.296
43440W        W 9849  20.330  19.685  13.471
43441W        W 9850  26.587  19.762  14.112
43442W        W 9851  43.742   7.032  12.915
43443W        W 9852  40.715  43.853   0.558
43444W        W 9853  21.474  14.841   3.310
43445W        W 9854   9.734  19.397  13.953
43446W        W 9855   3.534  24.042  14.617
43447W        W 9856   6.254  30.457  10.948
43448W        W 9857  13.147  22.078  12.972
43449W        W 9858   3.837  15.006   4.661
43450W        W 9859  15.197  23.494   0.327
43451W        W 9860  37.624  21.057  14.852
43452W        W 9861  29.149  33.271   3.432
43453W        W 9862  28.722  38.667  13.933
43454W        W 9863  18.686  40.762  14.717
43455W        W 9864  19.155  11.203  12.081
43456W        W 9865  13.748  39.331  12.885
43457W        W 9866  44.875  43.748  14.305
43458W        W 9867  36.384   4.124  13.985
43459W        W 9868   1.838  12.148   1.714
43460W        W 9869  11.627  28.195   0.913
43461W        W 9870  19.416  35.367  12.368
43462W        W 9871   1.559  31.050   3.320
43463W        W 9872  34.608  13.145   2.775
43464W        W 9873  19.013   5.837   2.144
43465W        W 9874  20.463  40.362   3.311
43466W        W 9875  22.513   7.141   2.668
43467W        W 9876  14.784  14.960  11.438
43468W        W 9877  39.006  36.341   2.189
43469W        W 9878  15.560  22.883  13.343
43470W        W 9879  12.997   5.756   1.341
43471W        W 9880   9.774  23.518  11.571
43472W        W 9881  19.243   4.799   0.534
43473W        W 9882  25.347  23.320  11.903
43474W        W 9883   2.173  26.628   0.380
43475W        W 9884  26.499   8.743  14.993
43476W        W 9885  11.850  25.064   1.416
43477W        W 9886  10.127  19.569  11.263
43478W        W 9887  20.548   0.494   1.417
43479W        W 9888  18.786   4.924   0.243
43480W        W 9889  20.094  27.583   3.366
43481W        W 9890  21.161   1.518   3.359
43482W        W 9891  34.987  16.768   4.402
43483W        W 9892  28.601  14.603   2.795
43484W        W 9893  20.642  18.997   2.431
43485W        W 9894  16.329  36.563  12.131
43486W        W 9895  17.767  19.229  11.973
43487W        W 9896   2.550  11.206  12.666
43488W        W 9897   1.309   6.586   1.274
43489W        W 9898   4.030   0.639  11.980
43490W        W 9899  42.342   3.917   4.144
43491W        W 9900  35.440  42.367   1.937
43492W        W 9901  16.392   3.246  13.626
43493W        W 9902  24.246  19.501  12.011
43494W        W 9903  11.817  13.178  13.556
43495W        W 9904  20.814  27.625  11.187
43496W        W 9905  16.204  26.833  12.500
43497W        W 9906  28.219  23.538   1.187
43498W        W 9907  42.355  41.528  13.254
43499W        W 9908   0.666  37.315  14.493
43500W        W 9909  43.967  31.912  13.938
43501W        W 9910  43.018   6.259   0.008
43502W        W 9911  29.397   5.245   2.787
43503W        W 9912  21.230  13.809  13.023
43504W        W 9913  32.102  13.119  10.990
43505W        W 9914  36.247   2.960  11.657
43506W        W 9915  44.838  10.886  14.099
43507W        W 9916  39.259  32.479   2.305
43508W        W 9917   6.620  21.578  13.861
43509W        W 9918  20.063  27.039  12.980
43510W        W 9919  43.206  19.658  11.150
43511W        W 9920  44.248  36.158  14.672
43512W        W 9921   6.969  36.444   2.734
43513W        W 9922  22.650  44.693   1.831
43514W        W 9923  24.351  32.893   4.334
43515W        W 9924  16.925  20.034   1.846
43516W        W 9925   4.827   2.806   3.308
43517W        W 9926   3.374  44.493   0.880
43518W        W 9927  36.444  34.318   2.223
43519W        W 9928  15.702  23.602   4.511
43520W        W 9929  28.242  29.140   2.259
43521W        W 9930  11.606  23.612  12.889
43522W        W 9931  36.782   3.192   0.019
43523W        W 9932   9.815  44.991   0.461
43524W        W 9933   3.490  23.681  14.984
43525W        W 9934  26.258  15.238   0.320
43526W        W 9935  22.060  32.705   3.758
43527W        W 9936  42.104  19.520  14.358
43528W        W 9937  32.922  34.834   2.340
43529W        W 9938   6.182  18.733  12.662
43530W        W 9939   1.865  41.063   4.592
43531W        W 9940  38.145   5.155   3.717
43532W        W 9941  18.511  14.822  14.730
43533W        W 9942  33.999  42.511   3.298
43534W        W 9943  18.189  19.817   2.279
43535W        W 9944  27.871  17.981  11.147
43536W        W 9945   9.575   4.277   4.172
43537W        W 9946   6.118  31.853   1.189
43538W        W 9947  27.166  32.351  14.757
43539W        W 9948  31.493  28.459   2.411
43540W        W 9949  16.376  32.015  11.392
43541W        W 9950  39.553  42.487   2.847
43542W        W 9951  42.494  40.094  12.820
43543W        W 9952  22.162   3.728   0.302
43544W        W 9953  43.986  36.756  12.473
43545W        W 9954  35.124  16.028   4.637
43546W        W 9955  23.224   7.169   2.445
43547W        W 9956  31.610  34.277  11.761
43548W        W 9957  42.763  24.145  14.903
43549W        W 9958  33.591  42.738  10.342
43550W        W 9959  22.210   3.333  14.897
43551W        W 9960   8.219  44.480   3.378
43552W        W 9961   5.996   9.881   3.964
43553W        W 9962  31.509   0.746   1.772
43554W        W 9963  40.582  13.791   2.320
43555W        W 9964  26.835   9.744  11.585
43556W        W 9965  28.747  34.387  11.449
43557W        W 9966  10.072  29.647   2.569
43558W        W 9967  43.360  27.054   3.612
43559W        W 9968  14.827  15.250   2.281
43560W        W 9969  20.242   7.305   0.424
43561W        W 9970  10.242  29.159   1.833
43562W        W 9971  28.976  12.532  10.419
43563W        W 9972  27.556  36.669   1.407
43564W        W 9973  34.575  22.672  12.117
43565W        W 9974   4.194   8.272  14.952
43566W        W 9975  40.927  34.601  13.364
43567W        W 9976  11.222  43.482   4.922
43568W        W 9977  11.327  23.048   3.852
43569W        W 9978  26.657  11.086  10.054
43570W        W 9979  24.576  31.125   4.426
43571W        W 9980  17.349  27.118  11.978
43572W        W 9981  34.985  31.558  14.480
43573W        W 9982   6.896   0.155  13.914
43574W        W 9983  22.924  25.579  13.815
43575W        W 9984   7.181  29.544  13.821
43576W        W 9985  20.020  34.004  14.383
43577W        W 9986  13.241  32.409  14.928
43578W        W 9987  15.878  26.101  11.148
43579W        W 9988  14.294   5.130   4.655
43580W        W 9989  28.948  29.156  11.544
43581W        W 9990   8.388  35.402   3.603
43582W        W 9991   5.958  23.041   3.215
43583W        W 9992   4.637   1.289  12.633
43584W        W 9993   6.552  14.222  14.575
43585W        W 9994  17.682   8.401  13.455
43586W        W 9995   1.307   9.957   3.869
43587W        W 9996  15.701  38.797   3.280
43588W        W 9997  18.329  10.247   3.623
43589W        W 9998  33.507  31.860  10.671
43590W        W 9999  25.281  16.402  13.370
43591W        W10000  16.529  10.573  12.437
43592W        W10001   8.221   0.213  13.300
43593W        W10002  19.412  36.955  10.721
43594W        W10003  42.540  12.205  10.573
43595W        W10004  18.096  26.724  13.493
43596W        W10005   6.444  23.618   1.206
43597W        W10006   2.035  30.064  13.817
43598W        W10007  40.482  26.986  12.867
43599W        W10008  34.878  19.382  12.320
43600W        W10009  42.235  19.685   0.424
43601W        W10010   3.881   1.791  12.644
43602W        W10011   9.127  40.149   2.769
43603W        W10012  34.014  26.006   2.176
43604W        W10013  11.001  42.191  11.143
43605W        W10014  30.426  12.123   1.833
43606W        W10015  21.439  11.163   1.469
43607W        W10016   9.367  41.250   4.617
43608W        W10017  25.215   1.304  11.576
43609W        W10018  37.319  18.202   1.833
43610W        W10019  38.157  25.317   2.882
43611W        W10020   7.795   3.736   3.410
43612W        W10021   0.813  26.360   3.279
43613W        W10022  23.928   0.019   3.664
43614W        W10023  29.757  25.237   4.209
43615W        W10024  30.763  10.949  13.518
43616W        W10025   6.316  38.482  12.812
43617W        W10026   4.234  20.449   0.939
43618W        W10027  34.740  21.522   0.826
43619W        W10028  15.779   7.575  14.094
43620W        W10029  33.338   0.415  14.887
43621W        W10030  23.996  20.737   3.340
43622W        W10031   5.134  12.540   3.617
43623W        W10032  25.764  11.648  13.427
43624W        W10033  40.325  39.548   3.320
43625W        W10034   8.377   0.872   0.003
43626W        W10035  28.100   0.032  11.174
43627W        W10036   0.427  11.825  14.407
43628W        W10037  42.454  16.351   1.022
43629W        W10038  45.000  43.349  14.017
43630W        W10039  30.138  21.672  10.443
43631W        W10040  25.024  18.499  13.026
43632W        W10041  42.392  17.620  11.521
43633W        W10042  11.330  18.126   2.745
43634W        W10043  24.756   2.322   1.499
43635W        W10044  23.446  22.540   1.255
43636W        W10045  22.170  14.583  10.596
43637W        W10046  26.015  14.696  13.996
43638W        W10047  31.055  21.735  13.410
43639W        W10048  36.515   8.552  13.426
43640W        W10049   3.863  31.725   0.896
43641W        W10050  17.045  26.802  11.641
43642W        W10051  22.653  35.347  14.127
43643W        W10052  30.454  30.617  14.479
43644W        W10053  39.176   1.867  10.270
43645W        W10054  16.162  17.860  14.035
43646W        W10055   0.935  18.951   5.044
43647W        W10056  31.142  44.557   3.671
43648W        W10057  37.044  19.217   1.899
43649W        W10058  15.001   4.513  13.380
43650W        W10059  21.916   0.448   0.502
43651W        W10060  41.185  20.949  14.545
43652W        W10061  11.399  41.203  10.621
43653W        W10062  10.629  33.060   1.717
43654W        W10063   7.610  34.610   4.121
43655W        W10064  26.705  40.926   0.257
43656W        W10065   0.311  10.190   2.186
43657W        W10066  17.756  34.725   2.801
43658W        W10067  12.589  18.131   4.232
43659W        W10068   0.852   8.554   5.393
43660W        W10069  26.904  17.594  13.920
43661W        W10070  36.987  31.358  10.915
43662W        W10071  14.023  23.124  14.373
43663W        W10072   2.622  14.041  14.761
43664W        W10073   6.005  27.660   3.786
43665W        W10074   0.285  36.029  14.488
43666W        W10075   1.241  38.189  13.054
43667W        W10076  34.090  43.237   4.112
43668W        W10077  26.932   3.420  14.728
43669W        W10078  18.755  40.848  13.363
43670W        W10079   2.296  28.654  14.439
43671W        W10080  40.337   3.642  11.207
43672W        W10081  34.800  15.097   2.901
43673W        W10082  34.524  30.648  11.543
43674W        W10083  36.279  28.381  11.045
43675W        W10084  27.417  34.878  13.043
43676W        W10085  22.220  33.110  13.566
43677W        W10086  42.896  28.653   2.049
43678W        W10087   4.800   7.262   1.475
43679W        W10088  33.051  33.513   2.732
43680W        W10089  26.067  34.390  10.463
43681W        W10090   2.476  37.627  12.649
43682W        W10091  37.662  13.814  12.930
43683W        W10092  39.074  29.383  12.839
43684W        W10093  36.534  19.392  14.011
43685W        W10094  25.867  38.953  12.448
43686W        W10095  38.149   3.127  11.971
43687W        W10096  37.870  26.592  12.074
43688W        W10097  35.720  25.338  14.866
43689W        W10098  17.633  24.592  14.597
43690W        W10099  41.525  22.703  14.736
43691W        W10100  10.337   7.302  11.914
43692W        W10101   5.218  32.115  14.732
43693W        W10102  24.261  37.609   3.637
43694W        W10103  42.417  19.673   3.804
43695W        W10104  22.461  41.262   4.641
43696W        W10105  32.547  35.074  11.703
43697W        W10106  41.905  21.785   0.003
43698W        W10107  38.397   1.241  13.390
43699W        W10108   3.820   4.731  14.488
43700W        W10109   0.873  34.118  14.916
43701W        W10110  42.800  37.532  13.089
43702W        W10111  39.384  26.663   2.745
43703W        W10112   0.872  20.000   3.902
43704W        W10113  34.472   6.576   1.362
43705W        W10114  10.078  43.898  13.596
43706W        W10115  31.954   9.134  11.656
43707W        W10116  34.054  32.629  10.882
43708W        W10117  44.392  28.642   4.496
43709W        W10118  15.303  27.924  14.294
43710W        W10119  33.644   6.854   2.928
43711W        W10120  19.578   0.713   2.284
43712W        W10121  36.540  10.069   1.644
43713W        W10122  27.156  28.897  11.193
43714W        W10123  13.598  23.168  12.110
43715W        W10124  38.813  27.226  11.868
43716W        W10125  42.611  35.782   0.267
43717W        W10126   5.405  11.276   0.706
43718W        W10127  16.108   7.726   1.046
43719W        W10128  27.183  24.695  12.983
43720W        W10129   8.638  44.295   0.353
43721W        W10130  34.587  34.287  11.037
43722W        W10131  32.154  18.485   1.406
43723W        W10132  28.000  16.866  14.848
43724W        W10133   2.418  16.501   4.154
43725W        W10134  35.390   1.868   3.396
43726W        W10135  12.758  12.490   4.898
43727W        W10136   9.821   4.711   3.441
43728W        W10137  42.354  37.381   2.705
43729W        W10138  28.824  34.651   4.650
43730W        W10139  23.330  12.564   0.317
43731W        W10140  20.467  29.995   1.354
43732W        W10141  30.341   5.471   2.326
43733W        W10142  43.920  22.705   3.726
43734W        W10143   1.272  21.320   3.306
43735W        W10144  34.365  29.695  11.118
43736W        W10145  17.729  19.838   4.895
43737W        W10146  36.314  24.940   1.632
43738W        W10147  38.021   5.647   1.988
43739W        W10148  13.039  29.443   1.518
43740W        W10149  15.736  29.141   3.717
43741W        W10150  20.216  34.658  11.674
43742W        W10151  20.537  19.251  13.135
43743W        W10152  14.050  11.382  10.807
43744W        W10153  35.775   6.876  10.616
43745W        W10154   0.081  43.455  12.873
43746W        W10155   9.392  21.475   2.785
43747W        W10156  13.546  29.166  12.777
43748W        W10157   8.394  14.298  12.143
43749W        W10158   0.234  41.721  11.558
43750W        W10159  34.917  28.149   1.433
43751W        W10160  23.668   6.275   2.089
43752W        W10161  43.069  36.608   3.850
43753W        W10162   6.550  34.682  14.498
43754W        W10163  17.496  13.064  11.160
43755W        W10164   2.446  27.522  11.028
43756W        W10165  10.910   7.079  13.060
43757W        W10166   7.111  31.036   0.016
43758W        W10167  43.820   7.433   0.960
43759W        W10168   4.844  28.325  14.448
43760W        W10169  27.411  31.957   0.001
43761W        W10170  13.037  29.175  11.951
43762W        W10171   3.517  13.376   2.819
43763W        W10172  35.492  39.272  14.886
43764W        W10173  39.813   8.768   4.530
43765W        W10174  28.682  28.535   1.729
43766W        W10175  15.738  29.571   1.370
43767W        W10176  31.098  21.474  12.485
43768W        W10177   8.680  33.636  11.561
43769W        W10178  17.516   5.424  13.004
43770W        W10179  12.985  23.875  13.240
43771W        W10180  19.583  18.348  12.779
43772W        W10181   9.137   2.377   2.116
43773W        W10182  36.066  35.532   0.395
43774W        W10183  26.076  20.523   3.578
43775W        W10184  17.353  41.388  10.570
43776W        W10185   0.040  41.758  14.374
43777W        W10186   4.179  43.689  12.578
43778W        W10187  19.756   3.667   5.007
43779W        W10188  32.914  10.280   0.387
43780W        W10189  42.292  12.821  13.453
43781W        W10190  20.338  23.062   4.259
43782W        W10191  16.067  44.376   4.408
43783W        W10192  36.857   8.407  12.182
43784W        W10193   9.995  22.166  12.528
43785W        W10194   3.406  28.084   4.629
43786W        W10195  20.954  15.727  13.977
43787W        W10196  18.417  44.783  11.068
43788W        W10197  11.582  43.177  14.965
43789W        W10198  30.508  10.800   1.389
43790W        W10199   2.863  23.287   4.730
43791W        W10200   1.760   9.873  14.367
43792W        W10201  25.677   4.195   1.168
43793W        W10202  14.577  41.484   4.582
43794W        W10203  19.285  20.148  13.824
43795W        W10204   6.807  21.383   2.756
43796W        W10205   2.276   6.297  14.358
43797W        W10206  16.252  14.077   3.725
43798W        W10207  37.943  15.863  10.810
43799W        W10208  23.774  15.186   1.947
43800W        W10209  20.656   9.117  11.716
43801W        W10210   9.838  40.793   0.446
43802W        W10211  26.624  22.102   0.740
43803W        W10212  41.488  41.804   2.021
43804W        W10213  36.863  19.061   4.549
43805W        W10214  25.993  15.890  12.111
43806W        W10215  41.479  16.633  14.540
43807W        W10216  35.323  36.115  12.645
43808W        W10217  19.655  39.516   2.109
43809W        W10218  19.660  42.193   2.325
43810W        W10219  11.307  12.737   0.966
43811W        W10220  26.173  17.656   3.701
43812W        W10221  17.194   2.839   1.231
43813W        W10222  42.571  33.292   1.350
43814W        W10223  34.557  33.906  12.371
43815W        W10224  20.822  12.366  11.111
43816W        W10225  36.440   0.568  11.507
43817W        W10226   3.146   1.154  11.280
43818W        W10227  35.348  17.086  12.121
43819W        W10228  20.782   7.349  11.218
43820W        W10229  35.211  34.456   3.564
43821W        W10230  22.415  16.098   0.792
43822W        W10231  39.031  38.618   3.270
43823W        W10232  15.185  18.357  14.299
43824W        W10233  32.182  34.959   1.282
43825W        W10234  13.689   5.806  12.912
43826W        W10235   1.682  40.542  14.367
43827W        W10236  35.041  29.923   1.828
43828W        W10237  23.340  24.589   1.284
43829W        W10238   1.474  37.461   2.307
43830W        W10239  26.973  18.632  12.931
43831W        W10240   5.682  14.057  13.437
43832W        W10241  36.149  24.683   2.556
43833W        W10242  18.879   4.301   1.211
43834W        W10243  15.329  37.039  13.492
43835W        W10244  10.026  20.481  14.832
43836W        W10245  34.443  36.616  12.700
43837W        W10246   6.158  33.513  12.971
43838W        W10247  11.397  38.957   1.828
43839W        W10248   7.640  16.563  10.197
43840W        W10249   0.019  30.147  13.056
43841W        W10250  36.747  17.746  13.324
43842W        W10251  10.302  10.417  14.841
43843W        W10252   5.831   6.222   0.331
43844W        W10253  24.441  20.504   2.453
43845W        W10254  17.635  17.848   4.508
43846W        W10255  32.651   9.657   1.864
43847W        W10256  11.356  21.688  10.482
43848W        W10257   1.308  15.751  13.916
43849W        W10258  12.333  21.265  14.165
43850W        W10259   5.833  33.609   0.957
43851W        W10260   7.139  11.831   2.116
43852W        W10261  37.282  18.483  13.992
43853W        W10262   7.839  24.722  14.451
43854W        W10263  15.167  31.365  11.021
43855W        W10264  32.432   4.448  12.191
43856W        W10265   7.456  14.160  14.837
43857W        W10266  13.536  24.860   2.724
43858W        W10267  12.815   6.303   3.749
43859W        W10268  20.191  32.332   1.247
43860W        W10269  31.040   4.398   2.339
43861W        W10270  29.136  43.959   3.618
43862W        W10271   0.894  35.525  14.926
43863W        W10272   1.275  25.859   4.699
43864W        W10273  43.400  20.703   2.172
43865W        W10274  30.572  42.228   3.646
43866W        W10275  43.247  16.557  14.897
43867W        W10276   3.416   9.802  11.694
43868W        W10277  39.305  20.530   0.284
43869W        W10278  13.399  26.436   4.688
43870W        W10279   0.994  19.618  12.996
43871W        W10280  21.518   9.845   4.129
43872W        W10281  44.282   6.825  10.750
43873W        W10282  30.579   1.496   3.192
43874W        W10283  37.803   3.987  12.814
43875W        W10284   1.552  24.241   3.684
43876W        W10285  23.749  40.855  13.452
43877W        W10286  40.459  15.268   4.258
43878W        W10287  13.603  14.144  14.195
43879W        W10288  10.805  27.001   1.097
43880W        W10289  23.121  12.350  11.979
43881W        W10290  29.732  18.756  14.776
43882W        W10291  35.530  33.097  13.838
43883W        W10292  20.742   6.185   3.811
43884W        W10293  31.703  36.061  11.820
43885W        W10294  21.996  18.097  10.775
43886W        W10295  11.728  30.196   3.213
43887W        W10296  42.302   3.008  13.523
43888W        W10297  40.583  36.075  13.946
43889W        W10298  12.014   1.714   0.260
43890W        W10299   0.809  16.582   4.535
43891W        W10300  31.435  17.677  11.912
43892W        W10301   5.518  43.027   1.956
43893W        W10302  40.605  33.763   2.676
43894W        W10303  17.345  30.141   4.717
43895W        W10304  30.560  20.335  12.845
43896W        W10305  31.516  25.984   4.142
43897W        W10306  28.564  28.363   3.138
43898W        W10307  15.246  16.300  11.925
43899W        W10308  25.304  21.830  12.093
43900W        W10309  33.646  42.314   0.509
43901W        W10310   6.450  34.859  14.993
43902W        W10311  23.692  20.902  10.242
43903W        W10312  44.040  43.398  12.624
43904W        W10313  36.004  19.639   1.004
43905W        W10314  14.158  35.361   1.410
43906W        W10315  32.500  44.806   1.734
43907W        W10316  13.287   0.886  13.741
43908W        W10317  41.373  31.171  12.669
43909W        W10318  31.218  24.765   2.218
43910W        W10319   1.548   6.685  14.012
43911W        W10320   3.034  41.390   0.107
43912W        W10321  19.791   3.919  14.076
43913W        W10322   2.371  34.209  11.193
43914W        W10323  33.416  14.618   2.115
43915W        W10324  36.597  24.078   0.752
43916W        W10325   3.352  32.795   0.238
43917W        W10326   3.352  11.075  13.077
43918W        W10327  10.768  10.279  11.912
43919W        W10328   2.697  30.749   2.794
43920W        W10329  34.428  31.998   1.902
43921W        W10330  23.988  14.832  13.822
43922W        W10331  21.672   6.883  13.857
43923W        W10332   3.490  12.348  11.571
43924W        W10333   9.800  24.673  12.500
43925W        W10334  31.219  30.541  13.282
43926W        W10335  41.031  30.099   4.347
43927W        W10336  37.347  40.017   0.888
43928W        W10337   9.134   2.234   0.335
43929W        W10338  12.400  23.269  10.798
43930W        W10339  14.042  41.212   4.987
43931W        W10340  13.256   9.719  14.309
43932W        W10341   8.801  34.686  11.584
43933W        W10342  22.613  32.624   1.288
43934W        W10343  28.278  36.662  14.861
43935W        W10344  15.626  12.765   4.871
43936W        W10345  38.659   7.473  10.608
43937W        W10346  14.623  16.747   2.399
43938W        W10347   5.153  20.348  13.577
43939W        W10348   3.059  13.803  13.417
43940W        W10349   7.940  29.337   1.786
43941W        W10350   9.711   5.269   0.455
43942W        W10351  11.096   8.909  13.440
43943W        W10352  13.925  12.838   3.945
43944W        W10353  38.562  10.658   2.433
43945W        W10354  44.447  41.802   0.656
43946W        W10355  36.937  12.614  11.265
43947W        W10356  19.329   3.332  13.338
43948W        W10357  30.227  12.294   0.693
43949W        W10358  11.636  10.086  14.694
43950W        W10359  14.260  20.309   2.956
43951W        W10360  21.667  24.020   3.269
43952W        W10361  24.951  21.561  14.380
43953W        W10362   2.791   6.617  11.188
43954W        W10363  35.820  24.524  13.869
43955W        W10364   3.043   0.434   1.311
43956W        W10365  35.469  19.464   9.707
43957W        W10366  15.610   9.680   3.787
43958W        W10367  37.914  28.100  10.907
43959W        W10368  37.909   6.159   3.747
43960W        W10369  27.482  10.907  11.105
43961W        W10370  18.426   7.937  11.076
43962W        W10371  14.197  39.337   0.312
43963W        W10372  32.259  17.009  14.974
43964W        W10373   0.785   4.715   2.193
43965W        W10374  37.299  10.915  11.028
43966W        W10375   7.252   1.722   3.095
43967W        W10376  21.183  34.690  11.638
43968W        W10377   8.684  35.411  11.104
43969W        W10378  35.365  43.982  14.034
43970W        W10379  41.197  44.324  11.145
43971W        W10380   0.662   0.953  11.993
43972W        W10381  13.506  20.268  13.257
43973W        W10382  40.074  43.818  12.166
43974W        W10383  36.084   2.780  12.408
43975W        W10384   4.735  10.083   1.158
43976W        W10385  19.484  44.146  12.005
43977W        W10386  35.058  20.118   2.586
43978W        W10387   1.286  17.864  10.756
43979W        W10388  17.975  32.534   3.300
43980W        W10389  18.287  14.165   3.663
43981W        W10390   0.937  39.790  14.335
43982W        W10391  26.781  31.486  12.996
43983W        W10392  16.532   2.836  13.299
43984W        W10393  38.656  21.152  12.390
43985W        W10394  34.359  14.731   2.251
43986W        W10395  36.332  32.566   0.806
43987W        W10396  10.488  27.433   2.727
43988W        W10397  35.732  29.494   2.322
43989W        W10398  27.177  17.720   3.792
43990W        W10399  38.932  17.887  11.626
43991W        W10400  13.127  14.319   1.284
43992W        W10401   5.895  19.063   2.782
43993W        W10402   9.104  22.125   0.258
43994W        W10403  10.734  41.449  12.294
43995W        W10404   9.631  35.522  13.477
43996W        W10405  25.750  40.313   1.111
43997W        W10406  11.090  42.748  14.316
43998W        W10407  32.562  37.863  12.538
43999W        W10408  34.657  30.563  13.846
44000W        W10409  12.395  31.827  14.456
44001W        W10410  29.593  20.864  14.226
44002W        W10411  25.006  29.200  12.458
44003W        W10412  17.615  28.857  13.377
44004W        W10413  31.828  21.735  13.898
44005W        W10414   9.708  21.228  10.959
44006W        W10415  33.925  13.883  12.147
44007W        W10416  39.283   0.824   4.120
44008W        W10417  25.030  33.931  12.200
44009W        W10418   7.442  23.120   0.330
44010W        W10419  33.146   3.051   0.202
44011W        W10420  17.187  20.324   3.356
44012W        W10421  29.668   8.691  12.046
44013W        W10422   6.375  38.339   0.502
44014W        W10423   1.209  43.727   3.194
44015W        W10424  24.035  12.853  10.784
44016W        W10425  18.996   7.901   0.726
44017W        W10426   5.278  22.078   2.754
44018W        W10427   7.409  39.839   4.165
44019W        W10428   5.895  33.487  14.910
44020W        W10429  38.978  29.147   2.325
44021W        W10430  28.337   3.999   1.370
44022W        W10431  26.594  39.504   0.964
44023W        W10432  13.375  36.792   5.576
44024W        W10433  12.180  40.891  11.621
44025W        W10434  30.845  21.281  10.728
44026W        W10435  11.398  44.071   3.616
44027W        W10436  30.556   0.540  10.731
44028W        W10437  15.744  27.444  14.793
44029W        W10438  43.436  23.448   1.187
44030W        W10439  36.993  19.053   3.212
44031W        W10440   7.652   0.449  14.453
44032W        W10441  10.629  40.519  11.831
44033W        W10442  33.413  41.803  11.826
44034W        W10443   2.784  23.534  13.716
44035W        W10444  40.559   0.103   0.379
44036W        W10445  17.631  28.007   3.330
44037W        W10446  39.877  31.180   0.783
44038W        W10447   8.180   0.025   0.524
44039W        W10448  37.905  32.852   1.707
44040W        W10449   4.477   5.294  11.034
44041W        W10450   8.863  18.694  10.700
44042W        W10451  35.654  36.857   3.278
44043W        W10452  42.103  37.405   4.937
44044W        W10453  34.635  43.853   3.489
44045W        W10454  27.741  13.721   2.726
44046W        W10455  13.225   4.179  12.825
44047W        W10456  11.714   2.065  14.905
44048W        W10457  41.329   1.409   0.389
44049W        W10458  39.150   6.467  12.065
44050W        W10459  10.292   9.222  10.676
44051W        W10460  23.586  39.468  11.248
44052W        W10461  10.286  18.711  14.171
44053W        W10462   2.851  19.509  13.153
44054W        W10463  39.304   4.972  11.616
44055W        W10464  27.115  33.591  14.393
44056W        W10465   7.686  43.480   1.867
44057W        W10466   3.106  21.791   4.352
44058W        W10467  24.707  18.438   0.198
44059W        W10468   6.461  12.173  14.312
44060W        W10469  32.998  12.219   4.603
44061W        W10470  17.249  23.051   3.078
44062W        W10471  17.958  39.434  13.039
44063W        W10472  36.113   6.259  11.764
44064W        W10473  33.848  13.974  11.198
44065W        W10474   4.428   4.859   3.728
44066W        W10475  17.210  42.436  11.190
44067W        W10476  42.847  43.353  10.732
44068W        W10477  28.438  13.749   0.883
44069W        W10478  43.374  41.914  13.480
44070W        W10479  29.186  17.800  13.522
44071W        W10480   5.868  27.190   0.894
44072W        W10481  14.472  15.476   0.465
44073W        W10482  37.910  19.720  13.795
44074W        W10483  38.824  32.467  13.841
44075W        W10484   0.176  17.686   2.176
44076W        W10485  40.890  32.579   4.032
44077W        W10486   4.382  42.476   4.527
44078W        W10487  25.625   9.718  11.116
44079W        W10488  37.494  42.291   2.823
44080W        W10489  35.760   1.096  11.997
44081W        W10490   1.395   7.103   1.310
44082W        W10491  21.002  32.730   0.793
44083W        W10492   9.658  26.651   0.041
44084W        W10493  21.042  19.390   3.176
44085W        W10494  16.234  26.583  13.619
44086W        W10495  32.987  40.425  14.851
44087W        W10496   4.988   3.319   4.563
44088W        W10497  40.111  33.605  12.576
44089W        W10498  22.275  26.412  10.457
44090W        W10499  40.477  30.412   3.141
44091W        W10500  38.313   2.341  11.451
44092W        W10501  29.971  30.862   0.360
44093W        W10502   3.945   5.642   2.825
44094W        W10503  16.808  28.160  14.040
44095W        W10504  14.693  22.669   1.352
44096W        W10505   0.256  23.430  11.588
44097W        W10506  33.831  13.936   3.329
44098W        W10507  26.437  18.334  13.588
44099W        W10508  35.086  10.120  13.564
44100W        W10509   7.234  21.728  10.629
44101W        W10510  42.288  18.695   2.866
44102W        W10511   2.904  43.564   1.298
44103W        W10512  18.150  40.396  14.925
44104W        W10513   6.225   3.674   1.152
44105W        W10514  43.438  12.246   0.908
44106W        W10515  16.953  33.711  12.028
44107W        W10516  16.222   6.332   1.248
44108W        W10517  41.432  41.355   0.875
44109W        W10518  43.587   2.000  12.628
44110W        W10519  33.436  27.268  11.184
44111W        W10520  43.371   2.801   1.882
44112W        W10521  30.553  33.259   4.503
44113W        W10522  34.223  26.588  13.672
44114W        W10523  16.549  11.121  11.710
44115W        W10524   4.726  22.399   4.107
44116W        W10525   6.373  31.423  11.590
44117W        W10526  12.451  40.888   0.239
44118W        W10527  10.172  23.786   4.750
44119W        W10528  14.197  12.647  14.284
44120W        W10529  22.781  27.173   2.243
44121W        W10530   7.358  27.969  10.570
44122W        W10531  30.567  43.575   1.088
44123W        W10532  12.589  12.842  12.381
44124W        W10533  40.553  16.111   4.479
44125W        W10534  11.257   5.887   3.209
44126W        W10535  40.857  41.767  11.998
44127W        W10536   3.886  17.797   4.516
44128W        W10537  12.871   4.805   2.695
44129W        W10538  44.198  24.699  11.956
44130W        W10539  21.045  24.431  12.966
44131W        W10540  25.166  34.287   3.753
44132W        W10541   9.951   1.664  13.992
44133W        W10542  32.662  27.432  13.455
44134W        W10543  25.018  24.444  11.230
44135W        W10544   7.690  30.290  14.342
44136W        W10545  28.549   5.335   0.296
44137W        W10546  26.601   2.510  14.807
44138W        W10547  40.417  18.866   0.584
44139W        W10548   3.708  31.888   1.734
44140W        W10549   0.653  34.108  13.447
44141W        W10550  11.175  25.328  12.369
44142W        W10551   1.391   7.750  14.207
44143W        W10552  29.969   3.838   2.930
44144W        W10553  34.572   2.755  12.605
44145W        W10554  31.031  11.706  10.191
44146W        W10555  10.866  18.518  11.576
44147W        W10556  35.326  35.975  12.135
44148W        W10557   2.831  30.906  14.501
44149W        W10558  41.388   7.445   3.257
44150W        W10559  41.803   0.477   4.513
44151W        W10560  28.637  35.864   3.414
44152W        W10561  10.967   3.820  14.755
44153W        W10562  14.533  22.952   0.712
44154W        W10563   3.456  35.979  11.680
44155W        W10564  25.050  28.356  13.086
44156W        W10565  42.669   9.715   2.741
44157W        W10566  42.510  25.689   4.782
44158W        W10567  44.007  23.496  14.183
44159W        W10568   1.082   0.472   3.729
44160W        W10569  42.534  33.622  11.380
44161W        W10570  23.532  25.125  12.434
44162W        W10571  25.002  30.474   1.573
44163W        W10572  23.067   1.387   2.587
44164W        W10573  37.958  10.132   0.800
44165W        W10574   7.730  31.192   4.452
44166W        W10575  44.824  22.141   2.834
44167W        W10576  23.491  26.005   1.706
44168W        W10577   0.119  37.765   2.803
44169W        W10578  37.145  10.514  13.878
44170W        W10579   0.311  13.895  14.482
44171W        W10580  36.637  21.526  11.956
44172W        W10581  36.527  40.823   3.088
44173W        W10582  41.404   8.909   0.084
44174W        W10583  39.146  37.662  14.665
44175W        W10584  36.352   4.187   1.372
44176W        W10585  42.804  43.883  12.410
44177W        W10586  20.969  25.462   0.333
44178W        W10587  24.017  33.985  14.947
44179W        W10588  18.053  31.694   1.765
44180W        W10589   7.840  30.477  13.498
44181W        W10590   3.272  28.715  10.788
44182W        W10591  28.125   2.617  14.443
44183W        W10592  24.461  40.509   4.193
44184W        W10593   1.387  20.024  14.442
44185W        W10594  33.036  28.584  10.860
44186W        W10595  15.362  21.415   3.077
44187W        W10596  39.938   6.983   4.424
44188W        W10597  39.317   8.304   1.841
44189W        W10598  38.836  17.019  14.744
44190W        W10599  40.304  19.579  12.375
44191W        W10600  38.288  16.874   3.352
44192W        W10601  43.295  43.888  12.580
44193W        W10602  11.759   9.895  13.852
44194W        W10603  13.756  22.719  11.879
44195W        W10604  37.438   0.937  14.219
44196W        W10605  38.511  24.029  14.511
44197W        W10606  23.027   2.110   2.386
44198W        W10607  28.769  32.655  13.330
44199W        W10608  26.414  32.080   0.966
44200W        W10609  44.009  32.601  11.861
44201W        W10610  31.942  34.060   2.726
44202W        W10611  22.676  23.653   2.809
44203W        W10612  35.943  24.489  12.973
44204W        W10613  19.197  37.754   1.712
44205W        W10614  23.775  30.715   0.746
44206W        W10615  11.796  35.492  11.608
44207W        W10616   3.898  25.527   2.233
44208W        W10617   4.107  20.703   4.198
44209W        W10618  27.596  18.625   0.016
44210W        W10619  42.973   5.443   3.927
44211W        W10620  19.985  38.308   2.376
44212W        W10621  26.898  39.873  12.443
44213W        W10622  29.027  11.534   4.606
44214W        W10623  43.857   3.873   0.916
44215W        W10624  16.600   7.668  12.563
44216W        W10625  36.478  31.963   2.625
44217W        W10626  26.003  31.789  13.999
44218W        W10627  38.444  43.063  12.423
44219W        W10628  42.307  18.535  13.354
44220W        W10629  37.897  23.570   2.075
44221W        W10630  38.552   8.017   3.754
44222W        W10631  27.482  39.366   2.686
44223W        W10632   6.282   8.476   3.341
44224W        W10633  13.705  19.066   4.486
44225W        W10634  18.331  19.578  13.141
44226W        W10635  25.203  10.717  13.777
44227W        W10636  17.361  25.963   1.334
44228W        W10637  42.822  26.056  10.873
44229W        W10638   1.780  38.410   2.071
44230W        W10639   4.022  40.010  13.409
44231W        W10640   9.687  35.404   0.110
44232W        W10641  37.331  20.917   0.295
44233W        W10642  13.927  30.733   3.882
44234W        W10643   9.119  36.564   0.508
44235W        W10644  25.950  15.656  12.872
44236W        W10645  26.172   2.282   3.767
44237W        W10646  12.301  40.711  12.913
44238W        W10647  10.584  26.449   4.131
44239W        W10648  28.228  29.543  12.561
44240W        W10649  41.482  13.084   3.674
44241W        W10650   4.928   3.382  14.562
44242W        W10651  42.027  37.008  12.530
44243W        W10652  41.841  42.961   1.762
44244W        W10653  41.312  32.056  14.418
44245W        W10654   0.674  22.945   4.447
44246W        W10655  29.933  34.073  14.760
44247W        W10656  34.385  25.696   4.721
44248W        W10657   8.442  12.666   0.952
44249W        W10658  32.696   6.139   3.739
44250W        W10659  12.922   8.797  14.442
44251W        W10660  16.750   3.807  13.116
44252W        W10661  29.647  40.256   1.202
44253W        W10662  38.916  30.252   0.123
44254W        W10663  29.206  44.047   2.786
44255W        W10664  42.902   6.651   0.366
44256W        W10665   4.378  37.351   3.958
44257W        W10666  23.492  20.578   3.292
44258W        W10667   3.067  13.770   1.670
44259W        W10668  20.820   7.695  11.600
44260W        W10669   0.370  37.404   2.328
44261W        W10670  42.061  29.273   0.909
44262W        W10671   2.977  32.961  10.824
44263W        W10672   8.737  19.764  13.380
44264W        W10673  42.555   0.413  14.272
44265W        W10674  42.033   6.771   0.316
44266W        W10675   6.592  16.771   4.624
44267W        W10676   0.856  30.999   0.439
44268W        W10677   3.571  27.868   0.047
44269W        W10678   2.295  39.280   4.792
44270W        W10679  42.006   9.353  12.547
44271W        W10680  30.439  19.653   2.817
44272W        W10681  22.051  43.797   4.511
44273W        W10682  40.259  38.531  12.954
44274W        W10683  43.596  27.316   1.287
44275W        W10684  33.741  33.577   4.748
44276W        W10685  35.750  39.987   0.383
44277W        W10686  28.206  42.888   4.330
44278W        W10687  17.699  35.612   3.150
44279W        W10688   6.136   4.029  11.988
44280W        W10689   6.296  36.492  10.621
44281W        W10690  11.204  33.822  12.649
44282W        W10691   1.768   3.206  14.329
44283W        W10692   1.451   1.465  14.721
44284W        W10693  42.350  43.908  12.141
44285W        W10694  27.615  43.466  10.398
44286W        W10695   4.370  12.361  14.470
44287W        W10696  12.131  24.738   4.080
44288W        W10697   0.807  35.803  12.574
44289W        W10698  36.412   6.222  13.631
44290W        W10699  37.062  41.194  13.956
44291W        W10700  41.983  38.321  13.931
44292W        W10701  15.155  40.071   0.788
44293W        W10702  32.703   4.281   2.180
44294W        W10703  27.016  22.580   3.111
44295W        W10704  39.472  26.795   1.169
44296W        W10705  27.598  24.504  13.822
44297W        W10706   1.898  34.869  14.412
44298W        W10707  14.185   0.073  10.679
44299W        W10708  31.982  43.666  11.915
44300W        W10709  10.837   7.445   2.649
44301W        W10710  16.020  40.533  11.609
44302W        W10711  28.982  38.592  14.948
44303W        W10712   5.647  43.855  11.019
44304W        W10713  16.138  28.637  12.539
44305W        W10714  44.804  44.766  12.013
44306W        W10715   4.359  35.350   0.454
44307W        W10716  44.021  10.183   3.720
44308W        W10717  29.475   1.438  13.711
44309W        W10718  31.091  31.658  13.154
44310W        W10719   5.823   4.457  14.209
44311W        W10720   6.677  40.540   3.319
44312W        W10721   6.692   5.338  13.808
44313W        W10722  15.969  27.056   1.198
44314W        W10723  36.027  29.937  10.800
44315W        W10724  41.914  41.432  11.501
44316W        W10725   0.564  30.460   4.672
44317W        W10726  31.418  43.287   3.625
44318W        W10727   5.035  11.170   1.473
44319W        W10728   6.878   1.312   3.062
44320W        W10729  32.051  22.610   0.556
44321W        W10730  39.292  35.883  10.552
44322W        W10731  23.572  17.542   0.731
44323W        W10732  38.376  23.699  11.198
44324W        W10733  22.063  24.433   1.879
44325W        W10734  35.587  27.454  11.616
44326W        W10735  12.140  18.825  12.661
44327W        W10736  34.155  34.290  11.311
44328W        W10737  30.385  26.573  14.744
44329W        W10738  11.627  40.775  10.801
44330W        W10739  10.647  16.630  12.024
44331W        W10740  43.384  11.013  14.012
44332W        W10741  43.124  27.005  13.994
44333W        W10742   5.872  18.334   0.717
44334W        W10743  42.474  23.494  14.884
44335W        W10744  19.111  19.919   1.940
44336W        W10745   1.940  24.336   4.013
44337W        W10746  27.524   9.391   3.240
44338W        W10747   4.361  42.588   1.795
44339W        W10748  10.379  12.605   2.136
44340W        W10749  36.402  20.060   0.466
44341W        W10750  19.730  12.293  12.017
44342W        W10751  30.670  42.096   4.835
44343W        W10752  14.242  28.150   0.495
44344W        W10753  28.825  40.755  11.010
44345W        W10754  10.786  38.347  10.895
44346W        W10755  42.720  43.315   2.298
44347W        W10756  19.157  28.070  11.516
44348W        W10757  38.426  18.932  12.337
44349W        W10758   8.198  29.137   0.128
44350W        W10759  43.449  38.336   0.316
44351W        W10760  30.226  44.097  11.630
44352W        W10761  28.237  16.612  12.302
44353W        W10762  17.723  40.764   0.023
44354W        W10763  18.163   8.284  13.366
44355W        W10764  26.985  22.475  14.541
44356W        W10765  11.968   4.276  12.653
44357W        W10766  22.130   9.460   0.983
44358W        W10767   8.398  44.036   4.657
44359W        W10768   3.773   9.086  12.560
44360W        W10769   6.965  39.550  14.218
44361W        W10770  13.075   3.018   1.800
44362W        W10771  21.652   6.896  12.787
44363W        W10772   0.298  37.286   2.825
44364W        W10773  42.278  15.398  13.492
44365W        W10774  29.084  12.746  13.436
44366W        W10775   2.912  14.273   2.150
44367W        W10776  17.996  23.502   0.802
44368W        W10777  15.505  21.280   0.562
44369W        W10778   7.481  27.086  13.893
44370W        W10779  42.490  17.665   2.329
44371W        W10780  18.820  32.841  10.807
44372W        W10781  13.845  17.800   0.411
44373W        W10782  21.010  32.009  12.935
44374W        W10783   4.884  31.886   0.734
44375W        W10784  12.103  14.006   1.250
44376W        W10785  32.449  32.605   3.350
44377W        W10786   5.447  42.218   2.371
44378W        W10787   6.681  27.117  14.291
44379W        W10788  21.288   6.184   0.886
44380W        W10789  31.910  44.287   1.274
44381W        W10790   2.266  11.076  13.119
44382W        W10791  36.169  26.607   0.030
44383W        W10792  36.496  27.903  13.089
44384W        W10793  22.680  24.218  12.347
44385W        W10794   2.699  38.599   0.924
44386W        W10795   8.362  39.458  12.396
44387W        W10796   9.333  10.849  14.012
44388W        W10797  10.823  28.419  11.084
44389W        W10798  34.944   8.215  12.761
44390W        W10799  18.354  27.494   3.121
44391W        W10800   7.541   9.161   1.752
44392W        W10801  21.909   7.068   3.622
44393W        W10802   2.815   9.938   0.813
44394W        W10803  23.125   4.406  12.965
44395W        W10804  24.727  20.027   2.627
44396W        W10805  18.123  18.544   1.173
44397W        W10806  33.939  44.685  12.982
44398W        W10807  44.842   4.064  10.742
44399W        W10808  43.908  25.049   1.472
44400W        W10809  14.644  10.809   4.306
44401W        W10810  22.408   2.561   1.413
44402W        W10811  42.829  29.559   2.175
44403W        W10812  17.052  18.113  10.823
44404W        W10813  20.421  43.048  14.569
44405W        W10814  29.612  24.012   2.304
44406W        W10815  30.803   2.318   3.340
44407W        W10816  33.595  42.281  13.890
44408W        W10817  40.551  44.988   1.480
44409W        W10818  17.135  19.896   1.094
44410W        W10819  29.487  35.318  13.838
44411W        W10820  12.624  43.020  14.079
44412W        W10821  40.465   0.514   1.942
44413W        W10822  33.737  33.164  14.925
44414W        W10823   2.184  16.063  12.990
44415W        W10824  44.987   8.704   4.110
44416W        W10825  42.838  14.762  12.906
44417W        W10826  35.783  31.710  13.816
44418W        W10827   8.996  22.778  11.451
44419W        W10828  14.386   0.285   0.058
44420W        W10829  32.369  10.263   3.278
44421W        W10830   3.056  35.093   4.529
44422W        W10831  31.570   0.382   0.194
44423W        W10832  18.181  15.107   1.120
44424W        W10833  24.005   0.246  13.810
44425W        W10834  43.213  11.126  10.079
44426W        W10835   0.708  17.731   9.905
44427W        W10836  40.024  33.696  13.105
44428W        W10837   3.904  21.080  13.955
44429W        W10838  15.363  11.692   4.165
44430W        W10839  27.531  25.006  13.883
44431W        W10840  22.903  17.317   3.547
44432W        W10841   4.798   8.977  10.095
44433W        W10842   9.762  43.041  11.001
44434W        W10843   3.872  17.285  13.548
44435W        W10844  24.704  14.930  13.362
44436W        W10845  39.372   5.286  14.430
44437W        W10846   1.789  30.598   3.351
44438W        W10847  34.045  31.956  11.553
44439W        W10848   1.950   1.220   1.077
44440W        W10849  21.725   4.147   1.487
44441W        W10850  35.154  43.896   4.085
44442W        W10851  23.130  12.639  13.029
44443W        W10852  37.580  18.789   4.113
44444W        W10853  34.186  22.115  11.040
44445W        W10854  20.582  27.418   1.465
44446W        W10855  35.212  24.047   1.977
44447W        W10856  35.359   8.771   0.284
44448W        W10857   9.840  17.173   3.262
44449W        W10858  37.645  13.207  14.774
44450W        W10859   5.345  21.251  11.556
44451W        W10860  30.189   1.266   4.462
44452W        W10861  16.251  19.908  10.237
44453W        W10862   5.791  10.188   2.818
44454W        W10863  20.731  10.797   4.451
44455W        W10864   0.930   5.704   0.737
44456W        W10865  22.332   6.324   1.118
44457W        W10866  11.302  17.787  14.935
44458W        W10867  36.803  26.809  12.508
44459W        W10868  32.598  14.723  11.637
44460W        W10869   4.670  25.185  13.371
44461W        W10870  15.111  30.425  10.940
44462W        W10871  43.781  35.644   2.735
44463W        W10872  15.192  15.324   3.922
44464W        W10873  35.663  31.022   4.614
44465W        W10874   2.355  17.621  11.036
44466W        W10875  32.865  31.048  11.988
44467W        W10876  24.708  32.236   0.991
44468W        W10877   3.639  17.310   1.785
44469W        W10878  44.968   6.123  11.602
44470W        W10879  13.178   5.368  12.462
44471W        W10880   9.757  29.400  12.953
44472W        W10881  31.369  27.565   0.877
44473W        W10882  28.866  37.242   2.940
44474W        W10883  12.837  44.716  13.713
44475W        W10884  14.693   9.419  12.419
44476W        W10885  38.974   2.974  11.553
44477W        W10886  30.449  39.772   1.000
44478W        W10887   0.856  21.794  14.621
44479W        W10888  21.349  16.041  10.032
44480W        W10889  11.169  44.776   5.499
44481W        W10890  42.061  24.198  13.071
44482W        W10891  29.273  34.649  14.458
44483W        W10892  26.190   2.094  12.934
44484W        W10893  40.650  22.297  11.238
44485W        W10894   6.010   6.010  14.880
44486W        W10895  43.526   9.366  11.016
44487W        W10896   1.671   9.271   4.425
44488W        W10897  17.538  41.976  12.452
44489W        W10898   4.210  22.540   3.323
44490W        W10899  10.458  41.899  11.702
44491W        W10900  37.302   3.325  14.996
44492W        W10901  20.236   2.343   3.639
44493W        W10902   2.182  24.531   1.407
44494W        W10903   7.289  31.536  12.552
44495W        W10904  40.705  15.653  13.127
44496W        W10905  12.963   3.978  13.531
44497W        W10906  25.089  34.000  11.198
44498W        W10907  25.696  37.682  13.971
44499W        W10908  28.063  34.483   4.527
44500W        W10909  42.962  39.806  13.556
44501W        W10910  34.140  19.713  12.789
44502W        W10911   2.228  26.335   3.237
44503W        W10912  28.219  39.997   4.001
44504W        W10913  34.846   5.259   4.002
44505W        W10914  21.909   2.665   1.312
44506W        W10915  36.683   5.806  13.494
44507W        W10916  36.929   2.596   4.246
44508W        W10917  10.314   3.946  12.127
44509W        W10918  32.177  10.199   2.667
44510W        W10919  32.773  42.481   3.697
44511W        W10920  34.639  34.795  14.782
44512W        W10921   7.883  14.319   4.274
44513W        W10922  23.972  26.716   3.585
44514W        W10923  29.247   9.649  11.636
44515W        W10924  29.623  18.477  13.263
44516W        W10925  28.104  11.065  13.425
44517W        W10926  30.916  15.108  12.121
44518W        W10927   4.812  40.786  14.045
44519W        W10928  17.721  10.137  13.460
44520W        W10929  27.470  37.431   0.881
44521W        W10930  36.847   1.497  12.924
44522W        W10931  15.705   5.671   2.730
44523W        W10932  30.135  38.308   4.271
44524W        W10933  11.956   0.744  13.354
44525W        W10934  44.856  13.527  12.452
44526W        W10935  23.526  27.886  10.738
44527W        W10936   8.765  39.436  12.740
44528W        W10937  35.459  18.637  14.498
44529W        W10938  31.523  17.205  10.993
44530W        W10939  40.010  18.366  14.328
44531W        W10940  17.905  34.280  11.110
44532W        W10941  30.084  29.007  14.832
44533W        W10942   8.740   8.721  12.561
44534W        W10943  28.713  30.978  12.380
44535W        W10944  40.699  44.809  10.626
44536W        W10945  36.373   0.904  10.739
44537W        W10946  32.892   7.301   1.866
44538W        W10947  22.751  32.127   4.632
44539W        W10948   8.239  26.929   2.867
44540W        W10949   0.810  14.326   3.176
44541W        W10950  23.447  23.734  11.102
44542W        W10951  21.181  44.741   2.623
44543W        W10952  25.569   0.293  14.246
44544W        W10953  30.953  22.610  14.994
44545W        W10954  16.053   0.481  11.691
44546W        W10955   0.265   6.025  12.805
44547W        W10956  23.100  12.839  10.671
44548W        W10957  38.944  13.047  12.465
44549W        W10958  33.626  11.697  13.940
44550W        W10959  20.837  23.401   2.423
44551W        W10960  11.638  21.510   5.040
44552W        W10961  10.104  18.940   4.542
44553W        W10962   2.348  13.259   2.723
44554W        W10963  41.465  13.155   0.007
44555W        W10964  25.767  30.101   4.103
44556W        W10965  32.665   0.558  11.162
44557W        W10966   4.972  42.129   2.743
44558W        W10967  24.040  39.908   0.835
44559W        W10968  26.094  27.206  13.761
44560W        W10969   8.409  26.779  11.438
44561W        W10970  15.704   9.637  10.778
44562W        W10971  37.665  44.217   2.687
44563W        W10972   7.139  17.794   3.656
44564W        W10973  33.309  17.182  12.884
44565W        W10974   7.448  16.092   2.398
44566W        W10975  18.249  44.381  14.512
44567W        W10976   4.292  25.270   1.889
44568W        W10977  13.697  25.704  11.480
44569W        W10978  14.209   9.928  11.949
44570W        W10979  15.169  21.173  12.887
44571W        W10980  24.546  14.113  11.463
44572W        W10981  36.102   2.285   0.875
44573W        W10982  18.030  38.330   9.789
44574W        W10983   7.097   2.276  14.366
44575W        W10984  30.551   7.400  12.462
44576W        W10985   9.762  42.074   3.395
44577W        W10986  41.455  40.961  11.264
44578W        W10987  35.822  16.563  12.943
44579W        W10988   6.750  10.261  11.426
44580W        W10989  31.400   7.603  11.458
44581W        W10990  11.380  36.901   0.659
44582W        W10991  21.512   9.381   0.345
44583W        W10992  22.522  44.432   4.119
44584W        W10993  34.389  23.632  14.921
44585W        W10994  37.166  16.720   5.430
44586W        W10995  25.736  16.738  10.646
44587W        W10996  35.267  36.445   1.645
44588W        W10997  20.429   2.374   0.695
44589W        W10998   8.783  43.637  14.577
44590W        W10999  32.310  27.398   0.869
44591W        W11000   4.229   1.841  11.239
44592W        W11001   4.854  29.532   1.987
44593W        W11002  30.176  21.760   3.177
44594W        W11003  13.075  44.438   1.634
44595W        W11004   7.470   0.261   3.888
44596W        W11005  42.360  41.239   2.285
44597W        W11006  34.519  44.537   3.873
44598W        W11007  16.722  40.624   4.157
44599W        W11008  41.520   0.552  12.211
44600W        W11009   1.786  25.431   0.465
44601W        W11010  29.126  10.724  12.143
44602W        W11011   9.217  22.970  12.599
44603W        W11012  11.352  16.236   3.768
44604W        W11013  40.122  21.017  12.616
44605W        W11014  16.422  40.679  11.182
44606W        W11015  21.257  31.838   3.541
44607W        W11016   3.800  13.332  12.597
44608W        W11017  12.316  35.559  11.895
44609W        W11018  30.580  33.413  11.503
44610W        W11019  24.245  39.802   3.269
44611W        W11020  37.528  41.210  12.886
44612W        W11021  38.027  10.125  11.176
44613W        W11022  42.759  44.667   2.794
44614W        W11023  18.557  44.375   0.874
44615W        W11024  13.693  21.819  12.616
44616W        W11025  32.973  20.099   0.375
44617W        W11026   7.148  42.437   0.284
44618W        W11027  23.816  37.133   4.457
44619W        W11028  12.994  18.508  11.670
44620W        W11029  41.446   1.775   3.540
44621W        W11030  10.330  16.315   2.270
44622W        W11031  28.649  43.260   2.630
44623W        W11032  27.098  39.869   1.839
44624W        W11033  24.889  14.184   0.269
44625W        W11034   3.770   0.505  13.846
44626W        W11035  26.410   7.063   2.501
44627W        W11036  37.341  28.501   4.203
44628W        W11037  10.818  12.540   4.396
44629W        W11038  32.780  21.519   2.785
44630W        W11039   9.883   4.685  13.317
44631W        W11040  21.973  12.357   3.719
44632W        W11041  13.197  34.039   3.834
44633W        W11042   0.801  37.578  11.325
44634W        W11043  14.959  10.292  14.803
44635W        W11044   1.962  34.869   2.598
44636W        W11045  24.430   0.411  14.058
44637W        W11046   8.935  32.189   1.816
44638W        W11047  35.063  25.704   3.776
44639W        W11048  39.142  43.187  11.478
44640W        W11049  33.446   5.791  12.409
44641W        W11050  35.538  21.617   4.268
44642W        W11051  40.951  43.930  12.457
44643W        W11052  33.544  27.830  10.387
44644W        W11053  41.397  19.886   3.659
44645W        W11054  29.994  41.409  13.278
44646W        W11055   7.007  13.872   0.414
44647W        W11056  24.844  21.985  14.758
44648W        W11057   3.128  37.546   2.820
44649W        W11058  29.681  36.188   2.242
44650W        W11059  28.442  33.617   1.466
44651W        W11060  37.539  19.083  14.777
44652W        W11061  10.850  41.555  11.793
44653W        W11062  10.886  43.384  11.590
44654W        W11063   4.194  43.441   0.350
44655W        W11064  16.740  27.154  14.201
44656W        W11065  37.525  18.778  10.704
44657W        W11066   7.086   2.984   2.230
44658W        W11067   2.210  35.648  11.178
44659W        W11068   4.180  18.593  12.403
44660W        W11069   0.747  40.025  12.902
44661W        W11070  43.846  20.765   1.897
44662W        W11071  43.096  13.277  13.079
44663W        W11072  39.414  39.880   1.969
44664W        W11073   8.376  25.658  13.059
44665W        W11074  27.654   1.118   3.450
44666W        W11075  36.716   4.344  13.655
44667W        W11076   8.300   4.493  12.639
44668W        W11077  19.967  17.985   0.874
44669W        W11078   9.434   8.195  13.981
44670W        W11079  10.935  32.876   3.066
44671W        W11080  39.054  35.251  11.573
44672W        W11081   1.789  20.705  11.543
44673W        W11082  11.043   7.265  10.513
44674W        W11083  23.717  40.475  12.991
44675W        W11084  34.755  25.047  12.371
44676W        W11085  11.658  33.355   9.244
44677W        W11086  12.733  34.608  12.882
44678W        W11087  34.932  44.978   1.864
44679W        W11088  10.637   4.516  14.822
44680W        W11089  29.028  26.828  10.919
44681W        W11090  40.684  26.311   2.742
44682W        W11091  12.490  40.281  14.563
44683W        W11092  13.063  21.871  13.449
44684W        W11093  34.938  18.135   0.120
44685W        W11094  16.614  26.478  14.983
44686W        W11095  14.802   4.959  13.838
44687W        W11096  32.279  43.253  11.020
44688W        W11097  28.209  22.006   3.084
44689W        W11098  23.565   0.489  13.896
44690W        W11099  14.295  40.555  11.565
44691W        W11100  17.367  34.504   4.550
44692W        W11101   8.682   4.016   2.902
44693W        W11102  17.081  31.404  13.816
44694W        W11103  22.218  19.631  14.374
44695W        W11104   3.396   2.772   0.828
44696W        W11105   5.902   3.120  12.072
44697W        W11106  25.080  12.194   3.790
44698W        W11107  15.835  43.062  14.345
44699W        W11108  29.575  42.228   1.868
44700W        W11109  10.372  12.180  14.371
44701W        W11110   6.265  40.533  11.028
44702W        W11111  12.820  31.320   2.120
44703W        W11112  24.413  10.128   2.815
44704W        W11113  40.793  42.964  12.860
44705W        W11114  23.920   5.811  14.573
44706W        W11115   0.344  44.392   4.531
44707W        W11116  40.421  14.221  10.740
44708W        W11117  23.124  43.912   1.369
44709W        W11118  41.304  36.348  13.474
44710W        W11119   5.946   8.230   3.061
44711W        W11120  40.075  30.442  14.016
44712W        W11121  42.651  22.686  11.429
44713W        W11122  30.996  14.085   4.197
44714W        W11123  35.579  27.961  11.638
44715W        W11124   5.033   9.229  14.810
44716W        W11125  41.573  19.595  14.266
44717W        W11126  16.696  18.092  12.864
44718W        W11127  37.509  36.601   4.158
44719W        W11128   6.310  33.678  12.503
44720W        W11129   2.706  22.020  10.729
44721W        W11130   8.841   1.694  10.664
44722W        W11131  30.195  28.154  11.132
44723W        W11132  12.004  43.177  13.110
44724W        W11133   5.753  35.454   4.266
44725W        W11134  19.996  32.634   2.645
44726W        W11135  17.590   7.869   1.783
44727W        W11136  28.943  13.289   0.412
44728W        W11137   7.763  27.063   5.152
44729W        W11138  23.708  10.261  10.442
44730W        W11139  31.030  35.421   0.528
44731W        W11140  18.181  42.792   0.751
44732W        W11141  41.871  33.365   2.354
44733W        W11142  20.086  22.257  14.586
44734W        W11143  38.688  27.471  14.416
44735W        W11144  42.421  44.665   2.342
44736W        W11145  12.567  32.791  13.450
44737W        W11146  26.016  42.379  14.656
44738W        W11147  38.100  22.975   2.978
44739W        W11148  18.831   7.278  14.453
44740W        W11149  30.209  38.642  13.318
44741W        W11150  25.061  17.822   3.169
44742W        W11151  17.996  30.479  11.713
44743W        W11152  12.355  11.610   2.407
44744W        W11153   8.429  15.212  13.380
44745W        W11154  36.961   2.403  11.529
44746W        W11155  19.704  10.148   1.703
44747W        W11156  36.486   2.769   4.473
44748W        W11157   3.364  27.950   3.702
44749W        W11158  10.145   9.576   0.338
44750W        W11159  11.116  29.195  13.040
44751W        W11160  19.694  32.629  11.931
44752W        W11161  21.316  30.135  12.579
44753W        W11162  23.792  39.060   2.702
44754W        W11163   9.950  30.785  12.475
44755W        W11164   0.353  17.302  10.755
44756W        W11165  24.677   1.236  14.394
44757W        W11166  23.177  44.700  12.528
44758W        W11167  14.699   3.663   9.600
44759W        W11168  44.668  13.896  12.759
44760W        W11169  31.011  33.647  13.667
44761W        W11170  38.653  33.807  13.893
44762W        W11171  42.348  28.567   4.305
44763W        W11172  36.266   6.709  12.092
44764W        W11173  35.334  37.725   1.426
44765W        W11174  39.727  20.357   3.670
44766W        W11175  35.920  33.225   2.758
44767W        W11176   4.481  43.854   0.145
44768W        W11177  24.590  40.984   3.161
44769W        W11178  34.361   9.210   3.716
44770W        W11179  11.793  34.036   2.121
44771W        W11180  10.463  25.113  14.365
44772W        W11181  37.345  34.046  13.438
44773W        W11182  14.317   5.670   0.356
44774W        W11183  44.936  43.360  11.850
44775W        W11184  12.404   2.680  14.437
44776W        W11185   8.136  17.697  12.484
44777W        W11186  31.496  11.610   2.504
44778W        W11187  31.439  38.602   1.268
44779W        W11188   2.192   2.879  12.482
44780W        W11189   4.334  24.983   0.101
44781W        W11190  43.242  29.141  12.584
44782W        W11191  26.466  33.689  13.688
44783W        W11192  34.075  37.156  13.951
44784W        W11193  40.227  24.058   4.282
44785W        W11194  37.845   8.976  14.875
44786W        W11195   1.945  24.797  10.773
44787W        W11196  11.992  34.468  10.738
44788W        W11197  29.956  21.028   2.720
44789W        W11198   3.051  22.022  11.701
44790W        W11199  41.524  23.357   4.523
44791W        W11200  28.385  24.494   9.790
44792W        W11201  30.081   9.944  10.366
44793W        W11202  38.807  31.767  11.166
44794W        W11203  43.321   0.502   4.844
44795W        W11204  34.921  26.692   2.172
44796W        W11205   0.544  14.133   4.210
44797W        W11206  40.236  14.159  13.453
44798W        W11207  24.220  21.231   2.672
44799W        W11208   0.872   1.726   1.387
44800W        W11209  37.839  16.181  14.108
44801W        W11210  31.661  32.337  13.449
44802W        W11211  18.253  11.593  14.351
44803W        W11212  32.628   7.688  14.206
44804W        W11213  35.886  15.547  12.953
44805W        W11214  34.896  19.644  10.822
44806W        W11215   9.810  33.880  14.859
44807W        W11216  30.177   7.311   0.355
44808W        W11217  33.603  35.960  13.036
44809W        W11218   0.511   4.451  11.154
44810W        W11219  14.022  32.730   1.871
44811W        W11220  27.598   7.615   0.909
44812W        W11221  39.826   4.914   0.699
44813W        W11222  39.974   8.746   0.463
44814W        W11223  36.510   5.854   4.599
44815W        W11224  27.431  41.118  11.213
44816W        W11225  20.971   3.839  10.846
44817W        W11226  29.975  16.634   4.077
44818W        W11227  38.922   7.599   2.681
44819W        W11228   3.086  16.647  13.199
44820W        W11229  18.819   9.753   1.725
44821W        W11230  17.740  30.351  13.353
44822W        W11231  36.426  17.453  10.292
44823W        W11232  17.613  44.928   1.653
44824W        W11233  22.430  37.484   1.888
44825W        W11234   8.696  41.047  13.917
44826W        W11235  36.418  31.508   2.231
44827W        W11236  42.243   1.141   5.162
44828W        W11237  11.784   8.947   4.015
44829W        W11238  29.896  36.821  12.881
44830W        W11239  25.191  20.751   4.095
44831W        W11240   8.279  35.626  14.663
44832W        W11241  20.963  13.184   0.347
44833W        W11242   2.435  39.107  11.563
44834W        W11243  38.971  32.048   1.372
44835W        W11244  32.662  16.989   4.999
44836W        W11245  20.793  34.870   3.254
44837W        W11246  41.810  39.497   4.257
44838W        W11247  29.656   3.450  10.728
44839W        W11248  23.840  23.049   2.252
44840W        W11249   0.214   0.366   1.451
44841W        W11250   5.674  43.887   1.305
44842W        W11251  35.371  11.074  14.520
44843W        W11252  34.636  22.357   3.611
44844W        W11253   1.738  43.046   4.205
44845W        W11254  27.135  24.408  14.305
44846W        W11255  22.437  37.571   3.317
44847W        W11256  20.305  36.146   1.289
44848W        W11257  13.780  22.274   1.750
44849W        W11258  37.981  29.829  14.641
44850W        W11259  25.279  39.278   3.350
44851W        W11260  13.907   8.459  13.474
44852W        W11261  10.339  19.092   3.567
44853W        W11262   0.175  36.481  12.101
44854W        W11263  43.012  25.662   4.547
44855W        W11264  31.500   0.693  13.870
44856W        W11265  32.206  31.008  14.813
44857W        W11266  21.061  36.553   3.162
44858W        W11267  30.656   6.891  12.403
44859W        W11268  10.326  10.749  10.635
44860W        W11269  38.558   6.914  10.777
44861W        W11270  31.490  35.078  12.975
44862W        W11271   3.412  37.704   2.398
44863W        W11272  10.250  13.991   5.013
44864W        W11273  44.774   7.495   3.646
44865W        W11274  18.640  36.957  12.276
44866W        W11275  26.661  38.422  12.453
44867W        W11276  14.335   6.552   4.272
44868W        W11277  24.508  13.343   0.322
44869W        W11278  40.871  38.835   0.375
44870W        W11279  27.689  16.100  12.831
44871W        W11280  26.229  25.798  10.741
44872W        W11281  29.121  34.349   2.249
44873W        W11282   1.425  32.551   4.087
44874W        W11283   0.562  25.920   2.936
44875W        W11284  37.863  24.002   2.351
44876W        W11285  28.085  28.718   4.781
44877W        W11286  24.142  25.216  13.959
44878W        W11287  21.237   7.998  11.522
44879W        W11288  29.873  28.461  10.865
44880W        W11289   9.361  27.554  12.013
44881W        W11290  19.709  21.688   0.957
44882W        W11291  37.692  39.848   3.692
44883W        W11292  44.047  23.766  12.379
44884W        W11293  26.582  28.779   2.633
44885W        W11294  22.412   6.267   0.169
44886W        W11295   7.077  25.263  11.532
44887W        W11296   3.720  20.242   0.039
44888W        W11297  14.905   5.852  13.857
44889W        W11298  28.282  25.196   4.146
44890W        W11299  12.862   6.781  13.479
44891W        W11300  32.930   2.625  12.134
44892W        W11301  39.181  42.788   2.681
44893W        W11302  11.296  27.229  11.225
44894W        W11303   2.907  17.252  12.086
44895W        W11304  22.201   5.200  11.368
44896W        W11305  36.415  40.031  11.467
44897W        W11306  25.469  37.622  10.501
44898W        W11307  19.181  43.566   1.515
44899W        W11308  26.156  29.115   3.833
44900W        W11309   9.921   8.665  14.375
44901W        W11310   9.550  11.225  10.809
44902W        W11311  19.958  41.857  13.403
44903W        W11312   1.690  34.563  12.143
44904W        W11313  39.820  36.127  10.700
44905W        W11314   1.451   1.970  14.588
44906W        W11315  10.114   0.716  13.561
44907W        W11316  28.240   9.918   2.665
44908W        W11317  29.289  16.200  12.069
44909W        W11318  40.655  27.863  12.620
44910W        W11319  39.884  44.660  10.573
44911W        W11320  16.001   8.359  12.380
44912W        W11321   0.271  14.288   1.260
44913W        W11322  39.459  15.507  10.118
44914W        W11323  34.697  11.231  11.812
44915W        W11324  10.642  34.405  11.517
44916W        W11325  19.145  26.613   0.670
44917W        W11326   5.921   5.305  11.158
44918W        W11327  15.590  12.291   3.237
44919W        W11328  18.805  30.893   0.381
44920W        W11329   1.402  11.721  14.243
44921W        W11330   9.441  43.926   1.391
44922W        W11331   4.693  38.477  13.849
44923W        W11332  12.968  12.993   3.739
44924W        W11333  23.758  28.396   0.243
44925W        W11334   2.478  38.393  13.633
44926W        W11335  12.180  15.537  12.684
44927W        W11336   2.443  44.064   2.956
44928W        W11337  10.289   0.014   4.069
44929W        W11338  13.385  21.554  11.604
44930W        W11339  11.603  21.222   2.621
44931W        W11340  35.445  32.885   4.148
44932W        W11341  30.027  23.984   4.456
44933W        W11342   5.383  18.779   0.887
44934W        W11343   9.754   6.703   0.649
44935W        W11344  43.393  24.874  10.424
44936W        W11345  21.051  20.222  12.388
44937W        W11346   8.438   5.801  12.915
44938W        W11347   1.410  36.300  14.019
44939W        W11348  27.774  25.227   3.982
44940W        W11349  13.108  37.274   2.443
44941W        W11350  20.671  35.407  12.590
44942W        W11351   5.713  42.189   1.188
44943W        W11352  15.213   1.251  12.749
44944W        W11353  26.332  17.032   2.719
44945W        W11354   4.982   7.890   2.144
44946W        W11355  20.021  25.499   2.011
44947W        W11356  11.405  22.573   3.215
44948W        W11357  12.155   5.083  12.671
44949W        W11358  27.001  33.392  10.087
44950W        W11359  30.595  32.858  13.557
44951W        W11360  29.728  22.456  11.796
44952W        W11361  29.889  11.189  10.153
44953W        W11362  36.085  11.596   3.716
44954W        W11363  12.093  30.359  12.836
44955W        W11364  36.526  40.124   3.684
44956W        W11365  37.467  12.103   2.307
44957W        W11366  36.102  36.969   4.379
44958W        W11367   9.419   0.773   0.371
44959W        W11368  13.468  17.979   3.267
44960W        W11369  22.767  43.104   0.862
44961W        W11370  16.512  25.986   1.777
44962W        W11371   5.461  29.326  11.581
44963W        W11372  19.279   0.640   3.605
44964W        W11373   9.241  16.263  13.139
44965W        W11374  10.374  23.958  13.294
44966W        W11375  44.497  27.099   3.961
44967W        W11376  39.917  37.959   1.783
44968W        W11377  14.481  42.895  13.857
44969W        W11378  32.586   2.767   2.315
44970W        W11379  42.440   0.270  12.401
44971W        W11380   4.971   3.305  12.418
44972W        W11381  35.967   5.367  10.679
44973W        W11382  20.033   1.684   0.975
44974W        W11383  21.171  10.135   1.854
44975W        W11384  33.185  37.044  10.788
44976W        W11385  36.861   6.045  12.463
44977W        W11386  25.649   6.666  12.523
44978W        W11387   2.344  32.421  10.906
44979W        W11388  43.710  43.260  13.045
44980W        W11389  34.503  28.289   4.900
44981W        W11390  16.089  35.861  12.252
44982W        W11391  26.730   7.802   2.105
44983W        W11392  11.230   7.703   3.679
44984W        W11393  39.728  34.685   4.654
44985W        W11394  24.111  14.686  14.693
44986W        W11395  11.682  44.563  14.910
44987W        W11396  30.651  40.072   0.055
44988W        W11397  24.466  24.931   4.510
44989W        W11398   2.984   7.264  13.537
44990W        W11399  21.577  39.169  14.538
44991W        W11400  35.607   3.037  13.796
44992W        W11401   8.213  15.131   1.271
44993W        W11402   6.285  27.270  11.108
44994W        W11403  24.165  30.342  10.296
44995W        W11404  43.020  26.037   4.040
44996W        W11405  30.627   1.402  12.941
44997W        W11406  14.298  16.506   0.403
44998W        W11407  30.894  42.930  12.467
44999W        W11408  23.711  36.217   2.226
45000W        W11409  36.529   1.289  14.738
45001W        W11410  42.362  13.391  14.387
45002W        W11411  25.289   5.073  12.918
45003W        W11412  34.346  30.947  13.650
45004W        W11413  40.342   9.197   3.193
45005W        W11414  15.068  13.924   2.923
45006W        W11415  20.024  40.522   1.266
45007W        W11416  10.340   4.905   1.865
45008W        W11417   2.515  12.253   0.828
45009W        W11418  40.908   8.328  14.942
45010W        W11419   0.371   1.210   1.128
45011W        W11420   1.298   7.935  12.723
45012W        W11421  37.935  20.322  12.996
45013W        W11422   2.279  27.920   2.393
45014W        W11423  40.455   9.124   2.339
45015W        W11424  34.988  43.069  13.983
45016W        W11425  44.914  40.064  12.005
45017W        W11426   6.450  41.999   1.884
45018W        W11427  32.580   0.590  14.297
45019W        W11428  30.530  21.773  11.621
45020W        W11429  34.077  14.510  12.968
45021W        W11430  37.411   3.824  10.608
45022W        W11431  43.959   3.292   3.725
45023W        W11432  43.317  28.105  14.225
45024W        W11433  43.369  37.514   3.180
45025W        W11434  34.351   3.844   4.102
45026W        W11435  14.831  25.123  11.524
45027W        W11436  18.982  13.500   0.876
45028W        W11437  34.836  19.440  14.635
45029W        W11438  30.431   9.418   1.498
45030W        W11439  41.198  43.971  13.953
45031W        W11440  32.551   3.097  13.388
45032W        W11441   3.376  39.745  12.672
45033W        W11442  30.092  36.321  12.015
45034W        W11443  11.280   8.098   2.328
45035W        W11444  22.708  44.942   2.289
45036W        W11445   3.177  34.900   3.854
45037W        W11446  31.696  36.392  13.288
45038W        W11447  26.129   2.224   0.431
45039W        W11448  16.169  17.255   1.762
45040W        W11449  28.438   3.301   2.655
45041W        W11450  39.586  40.118  14.522
45042W        W11451  41.453  35.428  13.500
45043W        W11452  13.148  14.392   9.821
45044W        W11453   8.335  38.836   3.224
45045W        W11454  40.544   3.308   0.977
45046W        W11455  19.626  30.420  14.573
45047W        W11456   0.363  42.275   1.851
45048W        W11457  11.500  24.231   1.183
45049W        W11458  11.138   8.725  14.648
45050W        W11459  39.612  20.052   2.792
45051W        W11460  31.495  19.267   2.356
45052W        W11461  30.430  22.013  12.956
45053W        W11462  25.685  26.525   0.475
45054W        W11463  16.638  25.433   1.791
45055W        W11464  30.804  20.064  13.855
45056W        W11465  39.376   4.172   1.240
45057W        W11466  35.023  29.184   3.710
45058W        W11467  43.837  34.426   3.361
45059W        W11468  36.463  29.714   0.392
45060W        W11469  29.058  29.910   4.214
45061W        W11470  18.442  30.427  14.276
45062W        W11471  19.063  37.856  14.442
45063W        W11472  36.013  35.150   2.839
45064W        W11473  23.040   1.518  12.707
45065W        W11474   8.348  23.277  12.936
45066W        W11475  16.266  23.778  14.161
45067W        W11476  39.995   7.367   0.224
45068W        W11477   1.810  42.394  14.300
45069W        W11478  13.893  42.811  10.898
45070W        W11479  41.313  40.481   4.562
45071W        W11480  19.102  33.973   1.700
45072W        W11481   9.367  31.613  13.480
45073W        W11482  16.146   0.020   1.092
45074W        W11483  15.210  16.959   0.302
45075W        W11484  32.425  12.703  10.384
45076W        W11485   8.661  36.526   3.358
45077W        W11486  29.458  37.842  10.370
45078W        W11487   4.868  28.512   0.497
45079W        W11488  22.003   1.052  11.567
45080W        W11489   2.505  21.985   3.710
45081W        W11490  24.002  27.690  10.641
45082W        W11491  35.444   0.854   0.861
45083W        W11492  44.418  17.718   3.365
45084W        W11493  17.089  21.177  11.981
45085W        W11494  15.805  26.480   4.888
45086W        W11495  10.076  20.558  11.916
45087W        W11496  14.629  14.637   3.572
45088W        W11497   2.389  30.724   4.556
45089W        W11498  36.571  43.041  12.101
45090W        W11499  23.023  15.013   3.280
45091W        W11500   9.245  34.429  11.653
45092W        W11501  38.830  32.614   3.102
45093W        W11502  10.717  10.758   2.782
45094W        W11503   1.507  21.413  12.311
45095W        W11504  30.964  23.235   3.706
45096W        W11505  27.199   2.965  12.533
45097W        W11506   2.913  29.645  13.111
45098W        W11507  36.373   3.560   4.055
45099W        W11508   0.778  37.084   3.670
45100W        W11509  35.341  21.021   4.986
45101W        W11510  24.759  40.602  14.360
45102W        W11511  28.784   8.197   0.831
45103W        W11512  28.839   4.008   1.877
45104W        W11513  24.871  30.264  12.521
45105W        W11514  33.575  11.603  11.952
45106W        W11515  44.234  43.962  12.191
45107W        W11516   0.331   8.827  11.634
45108W        W11517   8.148  19.102   4.198
45109W        W11518  41.421  13.187  13.596
45110W        W11519  32.032   3.888  13.772
45111W        W11520   6.646  40.756   4.709
45112W        W11521  22.512  17.246   1.324
45113W        W11522  34.220   0.040  14.863
45114W        W11523  20.096  40.219  11.986
45115W        W11524  37.782  40.484   2.301
45116W        W11525  28.080  13.557  10.900
45117W        W11526  11.346  44.699   4.243
45118W        W11527   9.149  13.015   1.263
45119W        W11528  12.736   1.175   0.574
45120W        W11529  24.721   3.156  11.559
45121W        W11530  44.340   9.973   0.351
45122W        W11531  26.413  18.586  12.954
45123W        W11532  40.271  25.565  12.727
45124W        W11533  11.725  42.971   1.012
45125W        W11534  26.031  43.258  12.911
45126W        W11535  23.645  10.750   2.351
45127W        W11536  32.320  20.801  12.880
45128W        W11537  36.017  18.126   0.349
45129W        W11538  34.839  14.243  11.482
45130W        W11539  33.055  43.689  11.036
45131W        W11540  31.572  22.737  12.632
45132W        W11541  15.597   3.409  10.080
45133W        W11542   0.647  29.634   0.246
45134W        W11543   2.998   2.814   2.888
45135W        W11544  23.596  17.056   4.715
45136W        W11545  11.884  31.974   3.599
45137W        W11546  16.222  27.618  11.421
45138W        W11547   0.294  11.638   3.904
45139W        W11548   2.282  36.562  12.540
45140W        W11549  37.292  16.886  13.939
45141W        W11550  22.114  34.618  14.057
45142W        W11551   3.157  17.566   1.104
45143W        W11552  43.889  23.617   1.030
45144W        W11553   3.017  10.000  12.542
45145W        W11554  40.490  14.794  13.749
45146W        W11555  30.062  28.473   1.938
45147W        W11556  19.589  12.673   3.210
45148W        W11557   7.236  30.471   3.294
45149W        W11558  37.412  33.446   0.626
45150W        W11559  44.828  36.598   0.411
45151W        W11560  10.363  17.633   1.844
45152W        W11561   6.283  14.325   2.834
45153W        W11562   6.716   7.661  14.497
45154W        W11563  28.128   1.760   3.958
45155W        W11564  28.393   8.261  12.125
45156W        W11565  22.062  39.374  14.444
45157W        W11566  17.684  40.801   1.023
45158W        W11567   0.944  10.091   1.848
45159W        W11568  38.936  24.538  10.549
45160W        W11569   2.781  43.870   0.271
45161W        W11570   3.861  29.183   3.323
45162W        W11571  10.768  12.864   2.428
45163W        W11572  27.936   6.299   2.841
45164W        W11573  33.598  42.001   2.697
45165W        W11574  39.213  18.228  10.169
45166W        W11575  40.626  14.185  11.205
45167W        W11576   0.741   3.951   0.331
45168W        W11577  39.415  23.259   1.933
45169W        W11578   0.819  34.454   2.203
45170W        W11579  27.200  18.777   0.935
45171W        W11580  15.747  35.948  11.209
45172W        W11581  27.136   5.494  12.896
45173W        W11582  21.436   7.227  12.430
45174W        W11583  40.456  34.138   0.884
45175W        W11584  44.305  27.618  13.117
45176W        W11585  37.500   3.922   3.210
45177W        W11586  41.556  27.070  12.487
45178W        W11587  35.488   8.993   1.711
45179W        W11588  43.059  35.275  11.103
45180W        W11589  35.945  33.314   4.586
45181W        W11590  18.000  37.586  11.387
45182W        W11591  20.034   0.232   0.391
45183W        W11592  19.055  31.515  12.983
45184W        W11593  23.227  30.892  13.491
45185W        W11594  11.114  37.006   9.806
45186W        W11595   2.438   7.749  10.529
45187W        W11596  24.220  34.812   1.635
45188W        W11597  22.182  10.101   3.673
45189W        W11598  22.314  23.009   2.457
45190W        W11599  18.530  10.187   4.190
45191W        W11600  38.908  21.345   0.011
45192W        W11601  14.099  40.841   4.176
45193W        W11602  18.330  11.823   1.805
45194W        W11603  25.208   6.713   4.064
45195W        W11604  26.321  10.549  12.517
45196W        W11605   9.158  24.271   1.339
45197W        W11606  32.908  32.145  14.581
45198W        W11607  40.222  12.354  12.019
45199W        W11608   3.717  43.743   0.393
45200W        W11609  34.715  43.999  11.925
45201W        W11610  16.304   2.004  12.524
45202W        W11611  36.915   8.932   0.220
45203W        W11612   8.703   8.336  11.636
45204W        W11613  20.020   9.885   4.330
45205W        W11614  41.983  44.915   2.467
45206W        W11615  40.032  25.060   1.120
45207W        W11616  34.332  21.577   3.656
45208W        W11617  40.487   4.795   0.737
45209W        W11618  15.509   4.464  12.443
45210W        W11619  28.873  34.916  12.430
45211W        W11620   8.188   3.528   1.224
45212W        W11621  11.367   5.407  14.821
45213W        W11622  28.994  32.825  12.571
45214W        W11623  44.522  17.197   5.020
45215W        W11624  20.617  31.631   0.335
45216W        W11625  31.649  31.626  11.728
45217W        W11626  18.820  20.641  13.229
45218W        W11627  17.426  43.735  10.664
45219W        W11628  19.847  36.819  13.932
45220W        W11629   6.695   9.162  12.866
45221W        W11630  24.443  11.907   3.405
45222W        W11631  34.686  32.514  12.619
45223W        W11632  41.904  17.198  13.915
45224W        W11633   7.190  31.595   1.826
45225W        W11634   2.807   6.181  13.044
45226W        W11635   9.353  23.991   0.378
45227W        W11636  31.023  33.023   3.315
45228W        W11637  30.714   4.403  12.378
45229W        W11638   8.421   7.654  13.879
45230W        W11639  14.641  43.713  14.521
45231W        W11640  12.663  28.076  12.499
45232W        W11641  33.928  14.782   0.910
45233W        W11642  40.146   8.363   3.758
45234W        W11643  18.045  25.928   0.746
45235W        W11644  16.055  42.517  11.185
45236W        W11645   7.714  17.082  11.139
45237W        W11646   7.091   5.732  10.631
45238W        W11647   4.369  37.038  11.559
45239W        W11648  28.284  41.488   2.789
45240W        W11649   3.066  12.851  12.418
45241W        W11650  19.180  30.014   3.961
45242W        W11651  10.589  42.855  12.372
45243W        W11652  28.094  38.239  11.613
45244W        W11653  12.457  25.449   0.927
45245W        W11654  24.553  11.820  12.387
45246W        W11655   0.655   4.049  14.295
45247W        W11656  15.890  14.218   2.656
45248W        W11657   2.364   8.955   1.455
45249W        W11658  37.767  15.685  10.335
45250W        W11659  20.231   4.865   0.447
45251W        W11660  42.286  37.134  12.977
45252W        W11661   7.509  29.861   2.523
45253W        W11662  27.896   6.059  11.029
45254W        W11663  10.822  15.154  13.997
45255W        W11664  27.756  10.788   2.831
45256W        W11665   8.124  20.229  14.371
45257W        W11666  33.936  39.047  11.553
45258W        W11667  43.859   8.143   0.431
45259W        W11668  24.629  28.177  14.243
45260W        W11669  33.927  41.287  12.511
45261W        W11670   2.907  17.100   4.224
45262W        W11671  42.269  17.266  11.971
45263W        W11672  29.271  30.463  11.643
45264W        W11673  19.395   0.245   1.916
45265W        W11674  20.331  29.936  14.424
45266W        W11675  40.338  40.339  10.685
45267W        W11676  18.191  13.839  11.617
45268W        W11677  28.212  14.278   4.150
45269W        W11678   8.321   0.567   3.603
45270W        W11679  25.539  15.416   1.304
45271W        W11680   3.366  14.046   1.296
45272W        W11681  22.507  41.550   1.303
45273W        W11682   6.477   0.493  11.094
45274W        W11683  41.894  30.867  11.620
45275W        W11684  41.954   3.771  14.551
45276W        W11685  12.642  25.802   1.526
45277W        W11686   2.544  22.794  11.134
45278W        W11687  24.089   4.458   1.916
45279W        W11688  37.987  16.176  14.610
45280W        W11689  32.531  32.369   2.185
45281W        W11690   4.220  16.026  12.886
45282W        W11691   2.170  25.576  10.849
45283W        W11692  21.758  27.477   1.628
45284W        W11693  23.009  22.844   3.632
45285W        W11694  17.868   6.298   0.002
45286W        W11695  32.288  19.704   0.639
45287W        W11696  37.443  23.144   4.202
45288W        W11697  30.401  30.081  13.355
45289W        W11698  37.493  29.365   1.186
45290W        W11699  40.276  44.921  10.310
45291W        W11700  13.544  17.820  11.114
45292W        W11701  15.308  36.562   5.382
45293W        W11702  11.645   8.720  12.131
45294W        W11703   6.880  14.540   3.804
45295W        W11704  10.217  24.275   3.332
45296W        W11705   0.369  30.038   3.022
45297W        W11706   4.815  19.639  11.141
45298W        W11707  23.546  17.282   1.273
45299W        W11708  32.975  35.479  12.990
45300W        W11709   8.857  10.807   4.140
45301W        W11710  20.438  39.913   1.878
45302W        W11711  26.313  39.364   1.876
45303W        W11712  17.036  12.214  14.332
45304W        W11713  43.509  41.714  13.019
45305W        W11714  18.279  38.523   2.841
45306W        W11715  25.534  41.229  12.878
45307W        W11716  34.734  22.064   4.326
45308W        W11717  30.921  38.794  12.070
45309W        W11718  15.253   6.410  11.579
45310W        W11719   9.569  38.793  11.652
45311W        W11720  10.067  13.338   2.223
45312W        W11721  36.921  27.485  10.359
45313W        W11722  34.070  15.590   1.189
45314W        W11723  13.068  34.262   2.480
45315W        W11724   6.055  10.823   3.996
45316W        W11725  14.218   9.289  13.016
45317W        W11726  41.056  32.530   1.667
45318W        W11727  29.019  16.574   1.042
45319W        W11728  33.912   1.611   5.021
45320W        W11729   2.467  13.714  13.788
45321W        W11730  20.262   1.718  13.673
45322W        W11731  26.759   1.775  13.789
45323W        W11732  37.645  32.863  11.520
45324W        W11733  19.745  19.717  11.667
45325W        W11734  27.996   0.077   0.816
45326W        W11735  41.575  36.496   3.854
45327W        W11736  34.472  27.111  11.189
45328W        W11737  20.677   7.637   0.305
45329W        W11738  22.119   2.050  11.799
45330W        W11739  28.148  29.713   3.712
45331W        W11740  15.927  28.706  12.040
45332W        W11741  18.300  31.216  13.842
45333W        W11742  26.972  39.344   2.665
45334W        W11743  31.513  39.800  11.945
45335W        W11744  13.109  16.116   1.840
45336W        W11745  26.717   6.794  11.153
45337W        W11746   2.675   4.005  12.416
45338W        W11747   4.425  32.538   4.577
45339W        W11748  11.215   6.331   4.092
45340W        W11749  20.825  26.261  14.022
45341W        W11750  36.937  15.289   3.972
45342W        W11751  11.907  14.654   3.794
45343W        W11752  43.219  15.977   4.188
45344W        W11753   9.279  34.571  13.961
45345W        W11754   7.994  25.167   1.670
45346W        W11755  12.704  21.494  13.333
45347W        W11756   4.947  12.953   0.816
45348W        W11757  32.365  30.685  12.523
45349W        W11758  18.100  41.006   3.886
45350W        W11759  44.978   3.806  13.813
45351W        W11760  26.171   1.481  14.432
45352W        W11761  31.120  23.716  13.393
45353W        W11762  23.498  42.175  12.683
45354W        W11763  11.804  24.618   1.686
45355W        W11764  13.564  42.963  14.038
45356W        W11765  44.343  30.029   4.258
45357W        W11766  18.278  28.238  12.032
45358W        W11767  31.943  24.276  11.975
45359W        W11768  32.016  25.593   2.639
45360W        W11769  20.288  10.124   3.597
45361W        W11770  27.918  21.756   0.280
45362W        W11771  17.785  25.197  14.260
45363W        W11772  31.638   9.420  13.365
45364W        W11773  40.335  32.512  11.880
45365W        W11774  29.013  39.458  13.761
45366W        W11775  29.447  38.889  12.007
45367W        W11776  24.026   4.844   2.227
45368W        W11777  16.092  32.098  12.878
45369W        W11778   6.916  43.817   3.992
45370W        W11779  30.161  41.424   4.624
45371W        W11780   4.760   7.684   3.013
45372W        W11781  29.299  11.037   0.405
45373W        W11782  12.173   8.770   0.730
45374W        W11783  14.169  18.933   3.545
45375W        W11784  43.279  14.630   4.883
45376W        W11785   5.225  11.862  14.446
45377W        W11786  43.944  10.650   2.839
45378W        W11787  24.026  30.769   0.049
45379W        W11788  26.199  24.555  12.842
45380W        W11789   0.653  25.123   5.217
45381W        W11790  30.439  38.470   1.383
45382W        W11791  37.340  11.349   3.672
45383W        W11792  42.685   0.930  11.549
45384W        W11793  42.538  32.511   2.042
45385W        W11794  14.014  34.890   1.275
45386W        W11795  33.014  26.801  10.771
45387W        W11796  27.564  44.823  13.767
45388W        W11797   7.870  28.742  13.412
45389W        W11798  32.897   1.740  13.447
45390W        W11799  44.691  24.950  13.230
45391W        W11800  43.767   2.214  10.898
45392W        W11801  20.251  40.467  11.537
45393W        W11802   7.665  37.918   0.756
45394W        W11803  12.854   2.925   3.081
45395W        W11804  38.425   3.345  11.436
45396W        W11805  27.495   9.408  11.152
45397W        W11806  22.122  23.249   3.341
45398W        W11807  38.315  37.272  14.457
45399W        W11808  32.880  33.875  11.764
45400W        W11809   8.785  26.365   1.751
45401W        W11810  37.488  20.562  14.926
45402W        W11811   8.605  42.887  11.620
45403W        W11812   0.882  44.943  14.806
45404W        W11813  18.715  30.096   4.644
45405W        W11814  38.310  23.696   2.394
45406W        W11815  41.779  13.937   1.643
45407W        W11816  42.391  40.759  12.173
45408W        W11817  14.323  44.744   4.134
45409W        W11818  17.717  40.375  13.152
45410W        W11819   9.526  30.101   1.310
45411W        W11820  42.891  32.557   4.233
45412W        W11821   7.079  35.497  14.486
45413W        W11822  14.312   8.353   0.749
45414W        W11823   2.452  38.424   3.816
45415W        W11824  14.978  29.133   4.140
45416W        W11825  16.115  43.871  10.933
45417W        W11826  42.739   4.162   1.951
45418W        W11827   9.765   2.314   3.250
45419W        W11828  42.680  29.618  12.096
45420W        W11829  44.917  19.852   5.005
45421W        W11830  33.306   1.036  13.838
45422W        W11831   0.415  35.585  14.734
45423W        W11832   3.738  26.697  11.162
45424W        W11833  28.942  40.462  11.457
45425W        W11834  11.336  16.976  14.361
45426W        W11835   0.901  32.573  14.541
45427W        W11836   2.322  33.018  11.635
45428W        W11837  38.003  12.583  10.705
45429W        W11838   1.376   5.816   3.883
45430W        W11839   0.844   6.985  11.590
45431W        W11840  44.968   6.349  12.132
45432W        W11841  15.230   5.436   2.737
45433W        W11842  34.035  37.858   3.545
45434W        W11843  17.230   4.980  13.012
45435W        W11844   8.366  31.462  14.513
45436W        W11845   8.255  38.326   2.263
45437W        W11846  28.030  34.782   0.644
45438W        W11847  13.039  22.105   0.939
45439W        W11848   8.907  21.673   4.211
45440W        W11849  32.484  15.296   4.830
45441W        W11850  15.099  25.265   0.086
45442W        W11851   3.154  38.361   1.844
45443W        W11852   5.904  43.379  12.091
45444W        W11853  25.709  14.713   1.737
45445W        W11854  14.901  24.263   4.566
45446W        W11855  10.599  44.768   1.479
45447W        W11856  37.563   2.473   0.014
45448W        W11857  21.263  29.002   2.797
45449W        W11858  44.302  40.899   2.327
45450W        W11859   6.388   9.779  14.147
45451W        W11860  25.704  13.641  12.677
45452W        W11861  36.414   2.247  13.549
45453W        W11862  41.395  30.735  11.155
45454W        W11863  44.068  31.932   4.527
45455W        W11864  26.283  42.352  12.694
45456W        W11865  42.469   0.334   3.805
45457W        W11866  12.747  15.856  14.770
45458W        W11867   5.539  15.755   3.665
45459W        W11868  27.098  41.578   1.219
45460W        W11869  17.363  20.252  14.975
45461W        W11870  31.358  26.621   4.746
45462W        W11871  38.001  41.044  13.059
45463W        W11872  44.790  18.455  13.534
45464W        W11873  24.576  29.659   2.947
45465W        W11874  29.655  13.059  11.968
45466W        W11875  42.141  22.128   2.253
45467W        W11876  42.901  22.222   2.869
45468W        W11877  23.819  35.496  14.947
45469W        W11878   9.765  40.028  10.942
45470W        W11879   3.693  42.167  13.626
45471W        W11880  34.124  31.645   3.907
45472W        W11881   0.292  41.984  13.478
45473W        W11882  15.782  15.199   0.017
45474W        W11883  38.548   1.976  14.454
45475W        W11884  41.300   2.530   2.252
45476W        W11885  11.814  11.457   2.259
45477W        W11886  37.506  39.397  12.654
45478W        W11887  24.268  24.087   3.629
45479W        W11888  24.560  44.215   0.930
45480W        W11889  18.290   6.467  12.505
45481W        W11890  13.328  27.146   4.324
45482W        W11891  14.456  38.034   3.154
45483W        W11892   8.123   4.826   2.752
45484W        W11893  11.799  35.613   0.837
45485W        W11894  19.293  37.943  10.382
45486W        W11895  34.590  11.734  11.890
45487W        W11896  41.580  43.772   2.563
45488W        W11897  22.569  17.158   3.139
45489W        W11898   0.276  38.037   2.360
45490W        W11899   5.128  25.054  12.755
45491W        W11900  36.936  13.831  12.427
45492W        W11901   4.089   1.236   2.261
45493W        W11902  16.622  34.119   1.029
45494W        W11903  28.011  25.705  10.501
45495W        W11904  42.132  16.256  13.713
45496W        W11905  26.196  32.285  12.498
45497W        W11906  28.881   7.924   1.260
45498W        W11907  38.967  34.805   0.822
45499W        W11908  21.321   2.416  14.436
45500W        W11909  31.637   9.818  12.032
45501W        W11910   0.948   7.418   3.574
45502W        W11911  44.404  12.332   2.854
45503W        W11912  15.233   2.284  10.186
45504W        W11913  32.707  31.939  11.907
45505W        W11914   8.354  15.897   1.985
45506W        W11915  39.518  32.068   0.918
45507W        W11916  17.764  35.581  11.721
45508W        W11917  11.695  29.201   2.854
45509W        W11918  38.474  18.946  13.884
45510W        W11919   6.768   4.218  12.313
45511W        W11920  43.700  33.034  12.993
45512W        W11921  32.574  30.161  11.619
45513W        W11922  24.692   0.397  13.370
45514W        W11923  15.377  44.932  13.438
45515W        W11924   8.343  30.163   1.634
45516W        W11925  41.775  38.535  14.981
45517W        W11926  19.515  38.767  11.372
45518W        W11927  18.058  25.018  13.848
45519W        W11928   1.148  26.318  11.195
45520W        W11929  36.404  41.570   1.811
45521W        W11930  35.915  42.386  12.136
45522W        W11931  23.799  30.620   4.072
45523W        W11932  31.144  41.858  13.857
45524W        W11933   1.087  29.008  13.562
45525W        W11934  38.600  32.997   3.827
45526W        W11935  31.496   0.213  12.662
45527W        W11936  36.532  41.618  12.046
45528W        W11937  16.070  38.836   2.725
45529W        W11938   2.465  27.105   0.523
45530W        W11939  19.196  20.671   2.407
45531W        W11940  17.010  33.886   3.329
45532W        W11941  42.915  10.671  12.007
45533W        W11942  19.007  30.036   3.464
45534W        W11943  33.656  15.696  10.852
45535W        W11944  41.369  29.535   3.107
45536W        W11945  21.640  42.834  11.632
45537W        W11946   8.786  42.392  11.481
45538W        W11947  16.571  32.733   2.224
45539W        W11948  23.945   6.158   3.275
45540W        W11949  14.090  32.383   4.788
45541W        W11950  26.635  29.325   2.691
45542W        W11951  35.903  14.724   1.478
45543W        W11952  33.560  21.986   3.325
45544W        W11953   8.017   9.289   1.953
45545W        W11954   2.038  29.652  12.054
45546W        W11955  25.022  27.007  11.143
45547W        W11956   7.137  31.529   4.399
45548W        W11957  24.299  35.467  14.736
45549W        W11958  21.547  31.028  14.654
45550W        W11959  41.486  15.153  12.941
45551W        W11960  41.360  42.930  11.628
45552W        W11961  34.938  29.594  14.747
45553W        W11962  26.910   6.962   2.646
45554W        W11963  10.138  23.000   4.073
45555W        W11964  37.558  38.514  14.870
45556W        W11965  35.346  39.422   1.954
45557W        W11966  22.329   6.844   4.270
45558W        W11967  31.769  15.683  10.119
45559W        W11968   5.850   5.088  11.685
45560W        W11969  26.666  43.273  10.793
45561W        W11970   1.789   6.489  14.489
45562W        W11971  35.903  21.038  14.258
45563W        W11972  39.885  15.603   3.268
45564W        W11973  37.084  18.695  10.968
45565W        W11974   8.737   1.212   4.298
45566W        W11975   5.792  28.621  14.337
45567W        W11976   5.234  44.250   4.491
45568W        W11977  40.603  18.834   4.268
45569W        W11978   5.269  21.162   9.598
45570W        W11979  25.588  21.430   0.742
45571W        W11980  29.351  40.540   0.034
45572W        W11981  33.484  28.688  10.618
45573W        W11982  29.143  34.502  11.763
45574W        W11983  40.318   5.705   3.156
45575W        W11984  17.126  23.710  13.870
45576W        W11985  26.498  32.482  12.893
45577W        W11986  19.813  13.227  12.948
45578W        W11987   6.332  13.299   3.699
45579W        W11988  13.103  41.851   3.165
45580W        W11989   9.647  38.414   1.195
45581W        W11990   6.146  18.678   4.547
45582W        W11991  20.051  43.432  12.965
45583W        W11992  15.606  30.412   1.999
45584W        W11993  15.044  36.623   4.511
45585W        W11994  32.838  40.562  12.675
45586W        W11995   3.686  44.775  14.590
45587W        W11996  10.815  27.386  11.422
45588W        W11997  17.775   2.359  14.419
45589W        W11998  20.318   3.734   1.339
45590W        W11999  38.910   0.751   2.122
45591W        W12000  34.961   4.340  12.907
45592W        W12001  36.692  36.515  14.777
45593W        W12002   4.511   2.395   3.207
45594W        W12003  23.248   5.792   3.354
45595W        W12004  37.476  31.926   4.666
45596W        W12005  35.099  25.921   0.743
45597W        W12006  19.599  35.142  13.207
45598W        W12007  39.260  31.655   1.138
45599W        W12008  28.505  25.571  14.467
45600W        W12009  42.845   6.685   1.823
45601W        W12010  36.458  36.400  10.731
45602W        W12011  12.059  29.082  11.162
45603W        W12012  39.128  26.624  11.589
45604W        W12013  32.438  14.417  14.999
45605W        W12014  29.424  31.454   1.326
45606W        W12015  34.847  18.674   2.855
45607W        W12016   3.985  16.782  13.529
45608W        W12017  25.053  19.348   3.715
45609W        W12018  34.270  15.167  14.852
45610W        W12019  15.768  23.526   3.709
45611W        W12020  17.718  35.817  14.901
45612W        W12021  13.501   5.855   1.252
45613W        W12022  24.609   5.234   3.588
45614W        W12023  17.127  20.698  14.883
45615W        W12024  37.934  29.604  10.811
45616W        W12025   6.866  24.659  13.291
45617W        W12026  15.330  34.930  12.472
45618W        W12027  20.004   2.207   0.900
45619W        W12028  27.236  14.295  14.475
45620W        W12029   0.463   6.943   4.131
45621W        W12030  40.081  13.740   2.330
45622W        W12031  31.473  43.266  13.079
45623W        W12032   9.977  30.505   0.498
45624W        W12033   2.688  27.626  12.929
45625W        W12034  16.730  37.436   1.761
45626W        W12035   1.418   3.538  14.896
45627W        W12036  21.800  33.363  11.155
45628W        W12037  37.304  22.016  11.680
45629W        W12038  25.788  32.580   4.595
45630W        W12039  21.468   9.820   4.672
45631W        W12040  26.996   6.443  12.921
45632W        W12041   0.970  24.585  10.699
45633W        W12042  35.994  18.988  12.754
45634W        W12043  41.759  40.301   0.331
45635W        W12044  30.984  39.696   1.842
45636W        W12045  42.578  14.633   0.030
45637W        W12046  37.369  28.056  14.700
45638W        W12047  25.044  39.643   2.289
45639W        W12048   9.296  41.151   1.712
45640W        W12049  19.278  20.413  14.581
45641W        W12050  24.050  42.079  11.662
45642W        W12051   9.339  37.249  11.013
45643W        W12052  28.025   1.702   1.321
45644W        W12053  43.063  28.947   3.281
45645W        W12054   6.068   3.671   1.647
45646W        W12055  35.881  42.013  13.107
45647W        W12056  29.408  14.297   0.330
45648W        W12057  11.970  25.098   3.649
45649W        W12058  10.279  17.823  11.888
45650W        W12059  27.191   7.929  14.991
45651W        W12060   3.794  21.166   2.131
45652W        W12061  13.968  37.886  13.106
45653W        W12062  23.055  34.195   1.924
45654W        W12063  34.257  30.202   4.196
45655W        W12064  40.745   9.331  14.708
45656W        W12065   7.038  21.157  13.647
45657W        W12066  23.048   1.285   1.750
45658W        W12067  31.630  36.869  14.029
45659W        W12068  22.181  37.098   1.319
45660W        W12069  44.262  16.797  14.417
45661W        W12070  30.374  40.774  13.974
45662W        W12071  33.691  32.000  12.033
45663W        W12072  26.947   5.958   2.769
45664W        W12073  21.639  12.436   1.989
45665W        W12074  14.693  34.936   2.242
45666W        W12075  23.767  41.726  13.510
45667W        W12076   2.465  15.698   3.584
45668W        W12077  41.614   7.150   4.123
45669W        W12078  37.441  23.564   0.751
45670W        W12079  40.289  23.017   1.712
45671W        W12080  27.581  43.288  12.849
45672W        W12081  42.546   5.420   4.230
45673W        W12082  32.093  27.089   2.270
45674W        W12083   6.777  24.358   4.951
45675W        W12084  12.141  21.296   3.375
45676W        W12085  41.481  24.535   2.643
45677W        W12086  23.672  33.707  11.964
45678W        W12087  31.900   7.753   2.837
45679W        W12088  24.313   2.511   1.269
45680W        W12089   2.995  13.176   0.978
45681W        W12090  18.659   4.525  11.263
45682W        W12091  43.967  15.162   3.338
45683W        W12092  20.695  27.655  13.052
45684W        W12093  15.377  41.705  14.788
45685W        W12094   5.391   7.021   0.384
45686W        W12095  42.803   1.252   4.354
45687W        W12096  25.268  18.058  14.567
45688W        W12097  32.167  40.288   4.798
45689W        W12098  34.838  31.961   4.999
45690W        W12099  19.230  27.787   2.684
45691W        W12100  11.394  23.566  11.069
45692W        W12101  21.030   7.877   4.210
45693W        W12102  22.726   4.070  13.011
45694W        W12103  22.977  23.257   0.298
45695W        W12104  19.066  20.580   2.905
45696W        W12105  26.012  17.487   0.443
45697W        W12106  14.749  31.376  12.900
45698W        W12107  40.574  31.587   1.897
45699W        W12108  40.888  39.959   4.081
45700W        W12109  10.621  34.047  14.278
45701W        W12110  23.040   0.398   2.661
45702W        W12111   6.176  16.079   1.940
45703W        W12112  37.718  35.242   1.248
45704W        W12113  39.075  20.208  12.527
45705W        W12114  31.382  43.453  14.846
45706W        W12115   1.930  44.011  13.394
45707W        W12116   5.842   9.449  11.084
45708W        W12117  10.611  28.660  10.669
45709W        W12118  13.560  17.041   0.804
45710W        W12119  19.526  28.069  10.680
45711W        W12120  11.581  20.961   5.000
45712W        W12121  34.821  34.952   0.481
45713W        W12122  22.590  25.286  10.614
45714W        W12123   1.703  14.194  11.949
45715W        W12124  20.901  42.841   3.538
45716W        W12125  39.032   8.397  12.863
45717W        W12126   9.460   0.906  10.131
45718W        W12127  17.598  38.132  11.480
45719W        W12128  20.752   5.641  12.399
45720W        W12129   2.841  37.549  11.388
45721W        W12130  29.882  33.675   1.238
45722W        W12131  27.411  12.706   4.172
45723W        W12132  38.782  32.070  10.703
45724W        W12133  33.637  33.602   3.633
45725W        W12134  36.892  22.066  12.396
45726W        W12135  15.584  15.372  10.965
45727W        W12136  41.380  15.638   3.605
45728W        W12137  11.934   3.448  10.286
45729W        W12138   5.151  35.067   3.680
45730W        W12139   0.843  19.230   2.701
45731W        W12140   7.362  37.296   0.071
45732W        W12141  32.616  32.501  12.396
45733W        W12142  26.531  39.942   1.964
45734W        W12143  33.627  38.534  10.673
45735W        W12144  36.913  40.505   3.294
45736W        W12145  29.114  30.343  12.976
45737W        W12146  25.738   0.944   0.047
45738W        W12147  39.761  31.898  11.015
45739W        W12148  33.697  33.497   1.165
45740W        W12149   9.365  41.081   2.628
45741W        W12150  34.353   9.802   0.001
45742W        W12151  33.969   9.727  12.330
45743W        W12152  43.247  33.464   0.054
45744W        W12153  43.245  20.802  14.498
45745W        W12154  32.111   7.037  13.305
45746W        W12155  28.517  36.218   4.945
45747W        W12156   1.046  36.393   1.983
45748W        W12157  39.822  36.249   1.724
45749W        W12158  12.126  20.467  13.815
45750W        W12159  35.680  27.547  13.400
45751W        W12160  41.437  44.537  12.016
45752W        W12161  37.369  14.871   4.579
45753W        W12162  38.768   6.153   4.181
45754W        W12163  20.680   6.754  11.598
45755W        W12164  38.472  33.083   2.662
45756W        W12165  14.163  43.052   0.800
45757W        W12166  19.460  17.802   0.889
45758W        W12167   6.358  33.336   2.371
45759W        W12168  18.351   0.882   4.028
45760W        W12169  31.609  20.220   2.261
45761W        W12170  23.142  12.470  13.870
45762W        W12171  30.936  40.888   0.305
45763W        W12172  31.244   8.892  14.886
45764W        W12173  27.393   9.713  12.429
45765W        W12174   8.061   4.366   2.253
45766W        W12175  21.741  20.480  14.795
45767W        W12176  10.961  30.564   0.470
45768W        W12177  32.174   3.444   0.178
45769W        W12178  39.455   4.579  14.800
45770W        W12179  14.064  16.559  13.144
45771W        W12180  39.054  11.584  14.324
45772W        W12181   7.198  19.719   1.822
45773W        W12182  25.714  24.603   1.471
45774W        W12183   5.074  44.525  14.856
45775W        W12184  17.835  18.120   1.776
45776W        W12185   1.787  36.815  13.269
45777W        W12186  32.833  40.010   1.622
45778W        W12187  28.832  12.762   1.309
45779W        W12188   0.109  37.327   3.340
45780W        W12189  27.538  12.471   4.617
45781W        W12190  20.234   0.828   0.880
45782W        W12191  10.018   5.156   0.888
45783W        W12192  35.642  32.034   3.738
45784W        W12193  30.937  43.926  14.305
45785W        W12194  20.215  35.872  14.535
45786W        W12195   5.283  30.922   0.792
45787W        W12196  20.539   2.779   1.467
45788W        W12197   3.501  39.454  12.009
45789W        W12198  36.589  41.218  13.754
45790W        W12199  16.966  13.401   2.983
45791W        W12200  33.096  39.382  13.390
45792W        W12201  42.889  33.421   3.405
45793W        W12202  32.450   4.704   2.342
45794W        W12203  39.565  33.584  14.144
45795W        W12204  12.058  42.352   3.067
45796W        W12205  36.690  36.495   2.578
45797W        W12206   1.636   2.478   4.108
45798W        W12207  28.895  42.973   3.690
45799W        W12208  25.290  42.919   2.217
45800W        W12209  34.061   8.591  14.875
45801W        W12210  16.109  12.523   4.167
45802W        W12211   0.553  21.665  11.629
45803W        W12212  29.173  39.351  12.001
45804W        W12213   3.532   5.947   0.161
45805W        W12214  41.787   0.833  11.213
45806W        W12215   0.775  13.108   1.603
45807W        W12216   7.790  36.574   1.498
45808W        W12217  15.223   4.369   2.747
45809W        W12218   5.001  40.964  13.580
45810W        W12219  22.051  29.762   3.371
45811W        W12220  15.094   2.170   2.242
45812W        W12221  42.917   3.742  14.422
45813W        W12222  31.129  13.322   2.878
45814W        W12223  19.023  24.436   3.661
45815W        W12224  41.325   6.619   3.838
45816W        W12225  30.632  28.588  11.551
45817W        W12226  22.652   7.253   1.189
45818W        W12227  10.425  24.954   2.655
45819W        W12228  42.817  34.894  14.806
45820W        W12229  14.826  32.648  11.110
45821W        W12230  40.334   2.055  14.292
45822W        W12231  14.821  43.031   2.311
45823W        W12232  22.723   5.112   2.338
45824W        W12233  13.048   4.405   3.704
45825W        W12234  44.167  31.018  10.764
45826W        W12235  26.958  39.994  12.940
45827W        W12236  43.370  27.005  10.697
45828W        W12237  29.024  15.710  11.337
45829W        W12238   6.434   7.435  12.391
45830W        W12239  18.993   1.386  12.834
45831W        W12240  26.910  19.185   2.141
45832W        W12241  33.139  39.920  14.847
45833W        W12242  22.327   9.997  13.363
45834W        W12243  32.699  25.970   3.683
45835W        W12244  15.617  28.455  12.451
45836W        W12245  42.493  32.568  11.000
45837W        W12246  38.777  17.214  13.842
45838W        W12247   9.309  15.083   3.431
45839W        W12248  30.202  40.360  14.263
45840W        W12249  19.278  17.664  14.291
45841W        W12250  32.413  43.254   1.714
45842W        W12251  10.253  25.500  12.554
45843W        W12252   4.188   6.834  10.927
45844W        W12253  26.957  11.659   0.639
45845W        W12254  40.700  42.713   2.798
45846W        W12255  28.429   0.287  12.385
45847W        W12256  40.929  23.061  14.867
45848W        W12257  22.152  42.343   0.772
45849W        W12258  14.179  34.511  11.189
45850W        W12259  25.662  15.400  14.162
45851W        W12260  13.824  16.630   4.659
45852W        W12261   0.884  37.690  12.576
45853W        W12262  27.135  27.405   2.275
45854W        W12263  38.227  23.021  12.509
45855W        W12264  20.256  37.813  10.654
45856W        W12265  16.292  10.729  10.569
45857W        W12266  37.025  22.763  13.733
45858W        W12267  24.216   6.977   4.857
45859W        W12268  24.079  20.393   1.634
45860W        W12269  20.519  28.105  11.526
45861W        W12270  33.417  36.099  11.583
45862W        W12271  12.219   7.671  13.041
45863W        W12272  10.343  41.998   3.159
45864W        W12273  33.059  16.156   4.687
45865W        W12274   1.239  39.518   1.291
45866W        W12275  13.616  14.558   3.163
45867W        W12276  12.514  28.520  14.843
45868W        W12277  16.544  35.627   3.501
45869W        W12278   4.998   3.778   1.834
45870W        W12279  24.692  27.651  12.468
45871W        W12280   0.814  35.896  14.540
45872W        W12281   6.329  15.692  13.323
45873W        W12282  26.034  33.465  13.071
45874W        W12283  33.613  22.218   1.455
45875W        W12284   9.470  21.140   1.637
45876W        W12285  23.156  34.653  13.361
45877W        W12286  30.428  14.573   3.257
45878W        W12287  41.371  35.861   4.186
45879W        W12288  25.028  37.314  10.697
45880W        W12289  17.154   3.818   0.493
45881W        W12290   6.792   0.837   2.793
45882W        W12291   2.578   6.957  11.607
45883W        W12292  27.447  37.387  12.930
45884W        W12293   1.409  17.216   0.523
45885W        W12294   1.251  30.128  14.455
45886W        W12295   3.935   7.625   3.669
45887W        W12296   5.635  22.607   5.028
45888W        W12297  44.950   3.409   3.368
45889W        W12298  39.859  42.397   2.419
45890W        W12299   9.802  15.663  14.187
45891W        W12300  21.766  17.179   4.511
45892W        W12301  41.045  11.057   0.753
45893W        W12302   3.379  23.760   0.482
45894W        W12303  24.758  34.587   0.234
45895W        W12304  41.436  41.301  11.662
45896W        W12305  29.919  18.938  11.176
45897W        W12306  18.976   9.686   2.791
45898W        W12307   7.456   3.474   2.791
45899W        W12308  23.649  42.374  11.952
45900W        W12309  12.201   1.170  10.835
45901W        W12310  44.744  12.191   1.218
45902W        W12311   2.308  40.331  13.363
45903W        W12312  16.657  27.665   2.598
45904W        W12313  28.007  42.020  14.745
45905W        W12314  35.512  43.892   0.426
45906W        W12315   2.928  37.923  12.548
45907W        W12316  29.447   4.635   4.957
45908W        W12317   4.591  22.818   3.740
45909W        W12318   5.750  33.162   3.647
45910W        W12319  12.462  20.865  10.244
45911W        W12320  43.849  27.019  14.290
45912W        W12321  15.407  32.032  13.655
45913W        W12322  14.782  16.473   2.864
45914W        W12323  21.602  33.320  14.784
45915W        W12324  10.372  23.445   2.916
45916W        W12325  12.967  14.927   3.835
45917W        W12326  37.522  16.353   1.795
45918W        W12327  31.586  39.720  11.041
45919W        W12328  29.331  43.747  10.664
45920W        W12329  35.469   5.145   4.232
45921W        W12330  37.094  15.712   4.288
45922W        W12331  40.077  33.828   3.691
45923W        W12332  40.253  26.936   4.240
45924W        W12333  42.003  15.826   4.953
45925W        W12334  40.463  29.362  12.964
45926W        W12335  14.945  34.629  12.650
45927W        W12336   3.484  35.783   3.320
45928W        W12337  36.899  40.706  13.910
45929W        W12338  43.376  40.053  11.375
45930W        W12339  11.629  36.410  11.014
45931W        W12340  24.472  43.382   2.330
45932W        W12341  41.461   6.786   2.521
45933W        W12342  36.462  41.284   3.559
45934W        W12343   5.315   9.461   0.179
45935W        W12344  15.909   8.792   2.796
45936W        W12345  31.713  40.723  13.496
45937W        W12346  33.492   5.644  11.610
45938W        W12347  40.394  18.056   0.707
45939W        W12348  16.700   3.565   0.506
45940W        W12349  32.125  37.697   4.765
45941W        W12350  17.835  24.299  12.137
45942W        W12351  29.569  27.955   0.827
45943W        W12352  17.274  19.499   1.862
45944W        W12353  42.900   7.736  10.091
45945W        W12354  37.547  25.952   1.687
45946W        W12355   1.558  26.209  13.420
45947W        W12356  13.573  25.994  11.916
45948W        W12357  24.982  40.373   3.685
45949W        W12358   5.354  33.053  12.374
45950W        W12359  31.351  35.516  13.706
45951W        W12360  12.900  12.719   2.231
45952W        W12361  32.455  32.403   4.168
45953W        W12362   6.324  35.946  12.393
45954W        W12363  17.340  35.958   0.241
45955W        W12364   2.908  10.862   2.205
45956W        W12365  22.249   8.212   3.727
45957W        W12366  29.688   6.251  14.039
45958W        W12367  35.301   8.758   1.291
45959W        W12368  22.011  11.405   0.728
45960W        W12369  19.340  10.729   3.357
45961W        W12370  30.068  36.911  13.356
45962W        W12371  20.220  13.619   3.721
45963W        W12372  22.129   2.687  12.448
45964W        W12373  14.271   8.791  12.855
45965W        W12374  18.601  44.706  11.985
45966W        W12375  12.291   2.008  11.948
45967W        W12376  12.872  39.375   1.571
45968W        W12377  35.373  33.422   2.854
45969W        W12378  42.496   3.055   2.853
45970W        W12379  24.758  43.359   0.462
45971W        W12380   3.021  33.670  11.638
45972W        W12381  41.318   7.585  11.156
45973W        W12382  42.604   7.296  11.125
45974W        W12383  17.215  20.900   4.016
45975W        W12384  10.718  25.657  12.384
45976W        W12385  28.985  13.211   2.663
45977W        W12386   8.610  16.940   2.133
45978W        W12387  29.782  21.905   1.888
45979W        W12388  28.563  24.556   4.420
45980W        W12389  32.754  15.660   3.861
45981W        W12390  11.937  20.404  14.575
45982W        W12391   6.504  29.069   2.501
45983W        W12392  25.972  44.832  10.738
45984W        W12393  30.541  42.338   1.827
45985W        W12394  42.333   7.133   4.600
45986W        W12395  33.381  16.916   2.696
45987W        W12396   3.876   6.416   3.271
45988W        W12397  26.048  33.167   2.912
45989W        W12398  11.825  42.683   4.238
45990W        W12399   4.762  24.162   2.121
45991W        W12400  31.662   2.560   3.304
45992W        W12401  26.621  33.041  14.367
45993W        W12402  33.590   9.448   3.310
45994W        W12403  37.565  11.383  13.907
45995W        W12404  19.210   2.405  10.902
45996W        W12405  13.092  18.221  13.816
45997W        W12406  12.713   0.629  11.543
45998W        W12407   6.419  14.734  14.512
45999W        W12408  29.067   7.848  13.580
46000W        W12409  28.174  41.863  13.387
46001W        W12410  21.718   0.889  12.479
46002W        W12411   7.862  12.256  13.752
46003W        W12412   1.958  24.903   3.165
46004W        W12413  16.660  24.914   4.526
46005W        W12414  42.441  11.307  12.377
46006W        W12415  26.082  19.628   1.542
46007W        W12416   4.260   5.309   0.522
46008W        W12417  24.250  33.475  10.524
46009W        W12418  23.458  42.849   3.865
46010W        W12419  32.501   1.331  11.625
46011W        W12420  39.515  40.805   4.234
46012W        W12421  29.609  30.394  11.140
46013W        W12422  27.958  11.411   2.176
46014W        W12423  32.061  12.528   0.918
46015W        W12424  35.575  35.407   2.285
46016W        W12425  30.995  37.534   3.186
46017W        W12426  24.508  15.685  12.144
46018W        W12427  18.178   4.369   1.788
46019W        W12428  11.360  24.667   0.949
46020W        W12429   2.200  17.306  12.580
46021W        W12430   3.413  39.115   4.468
46022W        W12431  39.053  16.124  13.852
46023W        W12432  17.469  44.260  10.684
46024W        W12433  25.073  37.262  13.115
46025W        W12434  40.005   0.760  14.381
46026W        W12435  40.250   4.185  12.060
46027W        W12436   0.792   2.214   1.776
46028W        W12437  32.540  13.065  12.724
46029W        W12438  11.254  42.373   3.860
46030W        W12439  27.540  16.172  13.339
46031W        W12440  29.519   3.272  12.572
46032W        W12441  28.973   4.439   3.625
46033W        W12442   1.838   9.865   0.602
46034W        W12443   1.096  11.633   4.381
46035W        W12444  38.524  33.869   2.411
46036W        W12445  39.852  21.687   0.319
46037W        W12446  13.823   6.135   2.861
46038W        W12447  39.921  10.638   2.843
46039W        W12448  27.927   9.600  13.022
46040W        W12449   1.766  36.143   1.720
46041W        W12450   6.842   5.395  13.314
46042W        W12451   7.413  20.853  13.935
46043W        W12452  34.795  26.508   3.238
46044W        W12453  11.340  33.628   3.653
46045W        W12454  40.312  26.746  12.037
46046W        W12455  15.561  31.498  12.043
46047W        W12456  41.018  13.822   0.375
46048W        W12457  25.876  37.970  12.990
46049W        W12458  40.354  19.965   3.170
46050W        W12459  43.771   6.705   4.499
46051W        W12460   0.454  42.849  13.397
46052W        W12461   7.332  16.866  14.285
46053W        W12462  31.562   0.256   1.570
46054W        W12463  43.404  18.034  13.929
46055W        W12464  32.134  27.829   2.808
46056W        W12465  24.833   9.343  14.725
46057W        W12466   0.387  26.746   4.162
46058W        W12467  36.722  26.143  14.437
46059W        W12468  25.584  12.810   2.113
46060W        W12469  27.579  11.263  11.569
46061W        W12470  41.765  38.687  10.405
46062W        W12471  32.193  22.119   0.450
46063W        W12472   6.237  23.630   1.681
46064W        W12473  14.750  10.353   4.080
46065W        W12474   2.818  15.609  13.032
46066W        W12475  31.700   3.766   0.042
46067W        W12476   2.987  15.769   3.601
46068W        W12477  19.738  14.729   4.426
46069W        W12478  13.188  40.603   9.837
46070W        W12479   2.511  17.746   4.581
46071W        W12480  28.478  14.215   1.148
46072W        W12481  36.959   6.748  13.906
46073W        W12482  19.682  38.744   1.204
46074W        W12483  21.286  11.264   5.051
46075W        W12484  35.478  27.385   3.691
46076W        W12485   3.552  12.573   4.776
46077W        W12486   8.438  37.298   2.474
46078W        W12487   1.694  28.678  11.104
46079W        W12488  42.259  29.118   4.587
46080W        W12489   6.701  40.477  14.358
46081W        W12490  35.503  13.878  13.469
46082W        W12491   0.889  16.713   2.252
46083W        W12492  44.230  20.571  10.000
46084W        W12493  34.954  18.797   4.140
46085W        W12494  21.003   7.174   0.875
46086W        W12495  22.498   7.136  11.703
46087W        W12496   5.392  40.838   2.784
46088W        W12497  15.921  44.431  10.280
46089W        W12498  21.647   9.187  14.425
46090W        W12499  42.576   5.374   1.759
46091W        W12500  17.068  33.126  12.940
46092W        W12501  14.312  34.163   5.212
46093W        W12502  25.705   8.940   0.200
46094W        W12503  15.236  24.081  14.710
46095W        W12504  23.302  16.152  14.515
46096W        W12505   8.770   6.639  12.473
46097W        W12506  37.589  14.752   4.127
46098W        W12507  38.448   5.266  13.785
46099W        W12508   2.007  11.926  12.925
46100W        W12509  15.180  13.561  12.460
46101W        W12510  10.142  15.069  12.648
46102W        W12511  12.775  12.906   4.218
46103W        W12512   0.535   0.023   2.183
46104W        W12513  32.563  23.110  11.909
46105W        W12514  26.721  22.022   1.685
46106W        W12515  43.611  44.401  10.721
46107W        W12516  32.577  43.809  12.679
46108W        W12517  14.364   5.088   2.013
46109W        W12518  38.968   2.679   4.807
46110W        W12519  37.525  42.509  12.544
46111W        W12520  18.139  41.001   4.395
46112W        W12521   8.986  36.672  14.890
46113W        W12522  22.036  36.628  12.492
46114W        W12523  33.406  42.333   1.436
46115W        W12524  43.936  21.131  12.089
46116W        W12525  35.128  24.513   3.253
46117W        W12526  15.165  43.740   4.611
46118W        W12527  25.437  33.137   2.388
46119W        W12528  11.377  40.477   0.231
46120W        W12529   5.636   9.388   4.665
46121W        W12530   9.224  16.849   0.680
46122W        W12531   6.132  35.725  14.087
46123W        W12532   7.378   9.096  11.076
46124W        W12533  26.202   6.304  13.688
46125W        W12534  20.118  10.010  10.678
46126W        W12535   4.258  36.876   3.162
46127W        W12536  44.241  34.378  13.062
46128W        W12537  38.516   1.223   2.808
46129W        W12538   5.825   4.410   3.218
46130W        W12539  10.152  15.503  12.988
46131W        W12540  22.357   5.308  12.960
46132W        W12541  14.594  23.655   1.814
46133W        W12542   0.179  24.528  14.990
46134W        W12543  36.422  17.555   5.029
46135W        W12544  44.631  21.243  14.379
46136W        W12545   7.158  25.406  12.752
46137W        W12546  18.584   3.899  13.472
46138W        W12547   2.223  44.126  11.372
46139W        W12548  35.181   5.332   3.594
46140W        W12549  10.870  25.219  13.415
46141W        W12550  27.020  20.797   3.132
46142W        W12551  10.186   8.610   3.156
46143W        W12552   4.990  44.965  11.514
46144W        W12553  21.758  30.700  11.599
46145W        W12554   6.320  12.538   4.133
46146W        W12555  31.650   2.274   2.853
46147W        W12556  41.379  36.888  14.453
46148W        W12557  31.076  34.714   3.509
46149W        W12558   9.265   7.380   0.940
46150W        W12559  40.410   3.247  10.177
46151W        W12560  28.613  26.473  12.943
46152W        W12561  12.126  10.118  14.847
46153W        W12562  13.331   6.216  14.068
46154W        W12563  31.019  28.585   0.044
46155W        W12564  43.776   8.006   3.182
46156W        W12565  13.152  26.802   0.879
46157W        W12566   8.233   3.646  10.960
46158W        W12567  18.733  36.334   3.783
46159W        W12568  11.546  29.304  10.542
46160W        W12569  38.648  28.579   1.806
46161W        W12570  13.124  33.089   1.621
46162W        W12571   6.970  28.286   4.511
46163W        W12572  21.516  30.015  12.110
46164W        W12573  12.635  16.299  12.366
46165W        W12574   3.316  27.923   0.936
46166W        W12575  29.449  27.039   1.824
46167W        W12576  28.613  25.732   3.728
46168W        W12577   8.260  29.932  13.524
46169W        W12578  36.436   5.733  11.666
46170W        W12579  31.223  26.379   4.322
46171W        W12580  39.443  10.727   3.064
46172W        W12581  15.264  19.264  12.517
46173W        W12582   0.306  23.238  13.048
46174W        W12583  20.788  39.913   3.260
46175W        W12584   0.475  44.870   3.097
46176W        W12585  30.690  19.749   3.645
46177W        W12586  43.503   3.963  11.595
46178W        W12587   4.172  43.185  12.143
46179W        W12588  18.616  15.352   3.522
46180W        W12589  18.908  14.951  12.499
46181W        W12590   7.040  44.938  13.003
46182W        W12591  37.024  25.230   4.387
46183W        W12592  12.557   5.654  12.160
46184W        W12593  41.850   5.266   1.186
46185W        W12594  32.579  32.178   3.607
46186W        W12595  14.087   2.922  12.978
46187W        W12596  38.940  11.058  14.325
46188W        W12597   4.460  29.812   4.487
46189W        W12598  17.062  14.792  14.826
46190W        W12599  42.808  14.936  13.693
46191W        W12600  21.764   8.385   3.794
46192W        W12601  33.577  18.970   0.884
46193W        W12602  26.454  21.962   1.222
46194W        W12603   9.452   7.346   2.875
46195W        W12604   6.571   1.349  12.421
46196W        W12605  17.581   6.052   3.345
46197W        W12606  42.522  25.098   4.216
46198W        W12607  32.457  14.900  11.121
46199W        W12608  26.568   3.017  10.685
46200W        W12609  19.467  18.815   0.871
46201W        W12610  26.761  17.211   4.168
46202W        W12611  41.795   7.701   0.245
46203W        W12612   4.882  38.678  12.518
46204W        W12613   7.931  30.012  11.979
46205W        W12614   5.318   4.837   2.729
46206W        W12615  44.397  30.945   4.229
46207W        W12616  38.915  38.613  14.293
46208W        W12617  33.524   0.389  13.073
46209W        W12618   0.837  19.147  13.797
46210W        W12619  26.986  18.268   2.003
46211W        W12620   5.940  26.586   3.733
46212W        W12621  42.313  34.038  13.588
46213W        W12622  16.747  30.117   4.759
46214W        W12623   8.422  20.691   4.936
46215W        W12624   9.265  13.196   2.867
46216W        W12625  13.218   3.468  14.951
46217W        W12626  22.729  29.512  13.995
46218W        W12627  29.248  19.453  12.501
46219W        W12628  34.909  13.528   4.513
46220W        W12629  14.191  29.880   4.353
46221W        W12630  25.519  28.546   2.978
46222W        W12631  40.492  33.334  14.504
46223W        W12632   7.332  34.184  14.445
46224W        W12633   9.249  44.527  14.775
46225W        W12634  17.038  36.091  11.107
46226W        W12635  28.084  26.745  12.026
46227W        W12636  14.169   7.344   4.528
46228W        W12637  43.323  22.145  13.952
46229W        W12638   0.329   1.647   1.425
46230W        W12639  26.621  24.274   4.529
46231W        W12640   5.726  38.850  10.640
46232W        W12641  19.130   1.460   1.360
46233W        W12642  10.173  17.781   0.376
46234W        W12643  22.093   1.414  14.517
46235W        W12644  14.592  43.917   4.482
46236W        W12645  34.486  22.673  14.895
46237W        W12646  30.510   4.772   1.535
46238W        W12647  32.280  30.418   3.602
46239W        W12648  15.528  32.528  13.433
46240W        W12649  19.751  26.536  12.802
46241W        W12650  17.382  17.215   3.397
46242W        W12651  10.184  16.364  10.248
46243W        W12652  23.067  17.810  13.495
46244W        W12653   8.345  17.762   4.549
46245W        W12654  29.864  28.869   0.744
46246W        W12655  42.222   3.771  12.072
46247W        W12656   3.849  23.676   1.784
46248W        W12657  27.490  12.452  11.998
46249W        W12658   6.846  23.558   3.307
46250W        W12659  27.256  34.562   4.928
46251W        W12660  32.923  41.464  11.318
46252W        W12661  22.464  24.705  14.966
46253W        W12662  23.926  43.309   4.768
46254W        W12663   1.488  37.992  14.320
46255W        W12664  19.170  23.993  12.332
46256W        W12665   1.712  37.085   4.604
46257W        W12666  43.748   7.291   2.812
46258W        W12667   5.508   5.869  12.297
46259W        W12668  14.348  15.233  14.709
46260W        W12669  32.154  11.498   3.186
46261W        W12670  23.295  20.270  11.329
46262W        W12671  37.349   2.277  10.636
46263W        W12672  28.661  44.294   4.562
46264W        W12673  39.340  27.415   3.781
46265W        W12674  26.210  26.207  14.839
46266W        W12675  35.227   6.785  12.012
46267W        W12676  21.444  42.153   1.770
46268W        W12677  26.111  37.596   0.511
46269W        W12678  17.586   2.409  14.895
46270W        W12679  11.436   3.481   3.256
46271W        W12680  41.692   8.843   0.986
46272W        W12681  26.996  36.907  13.294
46273W        W12682  12.811  19.195   2.177
46274W        W12683  14.117  36.767  12.575
46275W        W12684  11.820  10.562   4.666
46276W        W12685  40.149  38.411   1.907
46277W        W12686   7.382  20.300  13.135
46278W        W12687  39.863  43.199   3.831
46279W        W12688  12.797   9.285  11.996
46280W        W12689  27.037  41.776  10.873
46281W        W12690  11.077  40.176  12.545
46282W        W12691  37.046  43.048   0.310
46283W        W12692   7.937  10.526   0.486
46284W        W12693  30.878  18.135  13.027
46285W        W12694  39.791  16.013  14.083
46286W        W12695  39.260   7.258  12.941
46287W        W12696  13.562  32.390   4.676
46288W        W12697  17.044  22.463  11.195
46289W        W12698   5.161  18.334  14.619
46290W        W12699  17.524   1.944   3.469
46291W        W12700  16.688  36.973   2.008
46292W        W12701   7.589  34.459  13.521
46293W        W12702  42.084  44.530  11.553
46294W        W12703  37.670  14.154  12.541
46295W        W12704   6.010  34.726  12.405
46296W        W12705   7.554   6.888  13.089
46297W        W12706  15.363  15.293   5.081
46298W        W12707  18.950  12.181   0.466
46299W        W12708  38.010   4.726  13.413
46300W        W12709  40.529  23.736  11.603
46301W        W12710   1.799   2.310   2.591
46302W        W12711  32.074  15.356   3.632
46303W        W12712   6.083   5.310  14.839
46304W        W12713  32.355  43.291   3.989
46305W        W12714  25.946   2.738   3.835
46306W        W12715  24.697  28.390   0.353
46307W        W12716  29.527  18.248  14.221
46308W        W12717  21.055  30.949   0.950
46309W        W12718  39.696  42.238   3.289
46310W        W12719  25.912  27.612   4.215
46311W        W12720   5.340   8.244  14.863
46312W        W12721  26.566  35.504  12.605
46313W        W12722   7.250  42.881  13.519
46314W        W12723  44.822  13.422   1.758
46315W        W12724   4.251  44.216   4.149
46316W        W12725   2.185  40.366  12.467
46317W        W12726  30.039  30.137   4.640
46318W        W12727   1.481  30.665   4.460
46319W        W12728  34.855  16.144   2.142
46320W        W12729  22.987  35.353  11.129
46321W        W12730  16.804  11.050   0.936
46322W        W12731  16.330  25.182  11.021
46323W        W12732   0.211  32.882  11.520
46324W        W12733   8.789   0.622   9.845
46325W        W12734  21.932  12.716   0.763
46326W        W12735  17.554   9.047  11.190
46327W        W12736  33.981  34.256   2.859
46328W        W12737  15.894   9.066   4.552
46329W        W12738  26.887  44.072  11.118
46330W        W12739  11.452  39.974   2.249
46331W        W12740  17.104  11.313   4.137
46332W        W12741  12.255   4.675  14.490
46333W        W12742   2.720  22.592   3.622
46334W        W12743  10.276  13.729  10.489
46335W        W12744  26.186  15.650  13.573
46336W        W12745  32.081  23.794  12.034
46337W        W12746  43.429  20.810  11.899
46338W        W12747  40.845   5.324  10.451
46339W        W12748  25.606  29.681  10.826
46340W        W12749  41.606  40.045   4.530
46341W        W12750   0.705  19.275   1.776
46342W        W12751  25.195  24.612  13.087
46343W        W12752  23.969  21.378   5.411
46344W        W12753  40.773  10.099   1.871
46345W        W12754  28.574  29.833  13.810
46346W        W12755   1.275  42.832  12.372
46347W        W12756  26.668   9.931   0.612
46348W        W12757   0.463  36.511  14.185
46349W        W12758  39.538  34.988  13.526
46350W        W12759  23.860  36.663  14.403
46351W        W12760   2.414   5.617  13.027
46352W        W12761  40.324  24.131   0.759
46353W        W12762   4.894   1.942   1.328
46354W        W12763  42.002  31.749  14.057
46355W        W12764  21.150  26.726   1.361
46356W        W12765  32.436  18.067  12.023
46357W        W12766  34.882   0.275   2.596
46358W        W12767  33.801  32.971   3.724
46359W        W12768  43.761  14.760  14.062
46360W        W12769  14.257  24.584   0.534
46361W        W12770  39.385  21.421  13.342
46362W        W12771  28.502   3.524  14.789
46363W        W12772  37.979   6.793  14.572
46364W        W12773  33.038  31.085  13.417
46365W        W12774  34.346   0.630  12.027
46366W        W12775  23.182  15.305   2.145
46367W        W12776   2.852  38.813   0.192
46368W        W12777  40.968  24.184  13.426
46369W        W12778   8.881  35.982  10.331
46370W        W12779   6.697  26.584  10.023
46371W        W12780   7.654  18.656   3.465
46372W        W12781  31.148  40.686   0.752
46373W        W12782   0.077  43.780   4.154
46374W        W12783  11.817   1.095   2.640
46375W        W12784  19.072  29.968  11.964
46376W        W12785   8.259  31.100   2.617
46377W        W12786  35.173  11.880   2.684
46378W        W12787  25.606  10.750  12.060
46379W        W12788  26.714   1.396  11.710
46380W        W12789  33.930  25.869  13.020
46381W        W12790  11.911  43.979   3.677
46382W        W12791  28.652  17.776  10.655
46383W        W12792   9.234  13.625   0.271
46384W        W12793  21.554   1.240   3.588
46385W        W12794  26.277  27.885  11.991
46386W        W12795  34.415  19.589  13.906
46387W        W12796  18.575  41.492   3.321
46388W        W12797  42.537  28.884   2.359
46389W        W12798   3.233  23.537   2.606
46390W        W12799  22.486  43.371  11.753
46391W        W12800  31.537   1.520  13.127
46392W        W12801  29.629   1.004  12.426
46393W        W12802  30.496   0.121  12.432
46394W        W12803   2.379  32.564  11.411
46395W        W12804  43.714   0.250  13.395
46396W        W12805   2.153  27.261   3.319
46397W        W12806  24.113   5.222   0.430
46398W        W12807  39.623  25.149  14.750
46399W        W12808  43.246  22.291  14.451
46400W        W12809   2.412  15.669   2.755
46401W        W12810  20.632  35.181   2.880
46402W        W12811  20.775  40.702  14.877
46403W        W12812   7.854  13.820  11.160
46404W        W12813  42.982  20.623   4.281
46405W        W12814   6.974  14.168   4.655
46406W        W12815  37.078  42.904  10.916
46407W        W12816  19.587  16.174  12.779
46408W        W12817  29.608  44.495  11.020
46409W        W12818  23.554  36.635   4.530
46410W        W12819  21.703  37.965  12.136
46411W        W12820  13.163   4.228  14.256
46412W        W12821  19.624  20.832  11.089
46413W        W12822   0.546  37.072   3.205
46414W        W12823  19.899  29.247  10.318
46415W        W12824  31.648  25.928  12.921
46416W        W12825  42.653  19.148   1.322
46417W        W12826   5.097  21.503  11.183
46418W        W12827  12.104  22.390  10.358
46419W        W12828  43.368   6.374   0.378
46420W        W12829  25.702  36.109  10.701
46421W        W12830  15.749  25.858  14.762
46422W        W12831   8.324  39.088   2.786
46423W        W12832  40.890  42.478  11.534
46424W        W12833  14.670  35.297  12.103
46425W        W12834  30.557  27.784  11.130
46426W        W12835  35.383  39.148   3.842
46427W        W12836  12.665  28.907  11.687
46428W        W12837  37.673  42.033  13.921
46429W        W12838  37.199   7.713   1.602
46430W        W12839  27.102   2.317  14.448
46431W        W12840  13.052  28.191   1.342
46432W        W12841  10.778  26.687   9.972
46433W        W12842  33.397   3.083   3.553
46434W        W12843  10.715  21.235   3.556
46435W        W12844  26.974  11.344   2.679
46436W        W12845  38.440  10.202  11.465
46437W        W12846  33.967   9.119   5.091
46438W        W12847  11.843  43.449   0.869
46439W        W12848  30.714  15.551   3.169
46440W        W12849  36.405  35.333   3.152
46441W        W12850  19.211   7.699   3.645
46442W        W12851  20.872  18.487   0.820
46443W        W12852  33.101  28.300   4.622
46444W        W12853  33.093  43.844   1.281
46445W        W12854   8.199  29.595  14.881
46446W        W12855  18.645  21.910  12.567
46447W        W12856  43.544  33.402  12.181
46448W        W12857  42.019   8.364  13.275
46449W        W12858  14.925  26.892  12.856
46450W        W12859  18.805  25.379  12.503
46451W        W12860  38.828   0.525   1.654
46452W        W12861  24.138  31.034   4.706
46453W        W12862  43.728  41.461  11.094
46454W        W12863  31.194   3.769   1.744
46455W        W12864  24.636  39.009  14.429
46456W        W12865  17.692  14.592   0.413
46457W        W12866   8.767  31.534  12.563
46458W        W12867  34.648   8.336  14.971
46459W        W12868  37.553  20.214   1.396
46460W        W12869  37.622  34.482  13.467
46461W        W12870   4.413  44.282  12.774
46462W        W12871  14.568   1.350   2.241
46463W        W12872  14.391   8.992  12.409
46464W        W12873  11.038   3.707  13.856
46465W        W12874  32.048  40.123  13.977
46466W        W12875  23.157   8.546  12.497
46467W        W12876  13.524  44.363  14.939
46468W        W12877  42.847   0.703  11.104
46469W        W12878  28.237  42.531   2.960
46470W        W12879  12.031  29.152  10.662
46471W        W12880  43.437  44.410   1.369
46472W        W12881  18.706  26.755   4.581
46473W        W12882  22.290   5.813   3.800
46474W        W12883  28.690   6.265  12.496
46475W        W12884  11.564  28.448  14.799
46476W        W12885  19.795  29.978  12.605
46477W        W12886  34.790   4.782  11.728
46478W        W12887   2.557  35.977  11.414
46479W        W12888   7.439   6.363  12.049
46480W        W12889  17.060  17.293   2.048
46481W        W12890  17.122   2.388   2.079
46482W        W12891  37.052  26.025  14.840
46483W        W12892  43.904   6.639  13.192
46484W        W12893   3.698   1.356   0.045
46485W        W12894  23.174  14.127   4.591
46486W        W12895  25.602  30.373  14.748
46487W        W12896   8.337   2.322  14.895
46488W        W12897   3.243  42.747   1.403
46489W        W12898   6.455   7.690   3.820
46490W        W12899  27.889  11.831  12.160
46491W        W12900  33.306  40.562  12.867
46492W        W12901  43.850  44.888  14.143
46493W        W12902  22.877  27.451   1.798
46494W        W12903  26.229  39.291   4.489
46495W        W12904   8.638   7.527  10.360
46496W        W12905  29.717   5.902  14.912
46497W        W12906  39.279  15.395   2.288
46498W        W12907  30.088   0.806  12.468
46499W        W12908   6.417  39.486  13.116
46500W        W12909  40.681   8.413  10.229
46501W        W12910   5.899  23.051  13.773
46502W        W12911   3.904  42.534  12.778
46503W        W12912   8.328  19.623   1.938
46504W        W12913  31.994  33.567  13.547
46505W        W12914   5.290  19.065   0.194
46506W        W12915  29.491  39.331   4.633
46507W        W12916  23.200  11.786  12.949
46508W        W12917  20.895  19.630  10.757
46509W        W12918  14.297  20.951  14.300
46510W        W12919  25.635  10.721  12.953
46511W        W12920  40.371  37.241  12.108
46512W        W12921  21.180  23.193   3.251
46513W        W12922  22.425  24.351  10.309
46514W        W12923  16.269   5.855   0.342
46515W        W12924  19.272  37.419   2.150
46516W        W12925  39.008  13.539  11.583
46517W        W12926  30.959  25.920   1.364
46518W        W12927   6.177  10.827   3.509
46519W        W12928  26.972  18.537  12.029
46520W        W12929  39.684  10.108  11.787
46521W        W12930   5.320  29.727   1.339
46522W        W12931   4.381   7.524   3.902
46523W        W12932  16.664   4.491   4.028
46524W        W12933   8.131  14.212   1.906
46525W        W12934  34.473  25.134   0.311
46526W        W12935  37.530  15.204   2.296
46527W        W12936  35.855  38.242  11.663
46528W        W12937  32.663  42.885  14.930
46529W        W12938  18.513  26.071   1.019
46530W        W12939   3.916  21.133  10.746
46531W        W12940   3.392  13.575   0.328
46532W        W12941  24.831  35.501  14.681
46533W        W12942  17.077  10.892  14.569
46534W        W12943  24.509  30.690  14.868
46535W        W12944  26.943   1.219   1.267
46536W        W12945  40.319  16.636  13.575
46537W        W12946   0.896  44.403  12.607
46538W        W12947   4.208   4.883  12.923
46539W        W12948   0.712  36.366   1.464
46540W        W12949  41.782  29.277   1.351
46541W        W12950   3.532  20.668   1.311
46542W        W12951  23.054  22.082  14.420
46543W        W12952   3.924  30.180  11.516
46544W        W12953  25.005  28.505   4.238
46545W        W12954  24.193  38.570  14.385
46546W        W12955  18.768  23.526   2.243
46547W        W12956   9.749  18.098  11.403
46548W        W12957  18.040  10.684  14.321
46549W        W12958  20.004   9.226  12.937
46550W        W12959  25.110   3.880  11.652
46551W        W12960  24.196   6.296   1.393
46552W        W12961  11.685   9.338   4.400
46553W        W12962  38.901  25.707  11.581
46554W        W12963  30.455  32.998  13.080
46555W        W12964  21.012  35.447   4.691
46556W        W12965  43.960  13.338   3.424
46557W        W12966   1.530  16.410   3.434
46558W        W12967  14.413  26.985   4.254
46559W        W12968  15.709  39.096  13.680
46560W        W12969  39.914   9.176  13.786
46561W        W12970  27.613  33.908  11.179
46562W        W12971  23.851   8.608   1.303
46563W        W12972  15.809   1.364  14.920
46564W        W12973   2.298  13.092  11.694
46565W        W12974  15.314  37.089   3.616
46566W        W12975  17.714   7.479   0.294
46567W        W12976   1.560  29.489   1.439
46568W        W12977  23.288   6.421  11.463
46569W        W12978  13.274  24.025  12.842
46570W        W12979  18.190  15.752  11.895
46571W        W12980  21.851  30.185  13.439
46572W        W12981  16.928  43.579  10.685
46573W        W12982  27.006   1.789   1.315
46574W        W12983  28.665   4.012   3.199
46575W        W12984  18.656  11.449  12.155
46576W        W12985  26.604  27.948  11.223
46577W        W12986  18.881   8.828   4.483
46578W        W12987  43.975  25.679   2.174
46579W        W12988  13.627  26.840   2.659
46580W        W12989   5.396  32.650   0.445
46581W        W12990  31.938  13.412   4.660
46582W        W12991  33.082  37.042  11.661
46583W        W12992  13.841  16.195   2.722
46584W        W12993  10.547   2.289   1.906
46585W        W12994  23.509   7.395  11.946
46586W        W12995  22.440  26.684  11.283
46587W        W12996   1.216  23.075   0.875
46588W        W12997  34.384  15.058  13.518
46589W        W12998   9.395  39.985  11.668
46590W        W12999  44.657  36.633   4.493
46591W        W13000  26.697  30.980  12.973
46592W        W13001  24.619  17.798  12.173
46593W        W13002  20.598  41.909  14.462
46594W        W13003  43.856  30.858   0.881
46595W        W13004   2.794  42.075  12.603
46596W        W13005  35.602  19.216  14.708
46597W        W13006   9.431  22.418  13.887
46598W        W13007   2.995   3.695  14.420
46599W        W13008   4.188  37.351  12.944
46600W        W13009   0.725   0.466   2.405
46601W        W13010   3.288   1.178  14.385
46602W        W13011   8.387  31.432   0.129
46603W        W13012   0.923  15.602   4.497
46604W        W13013   8.772  16.169  13.360
46605W        W13014   3.323  36.495  12.509
46606W        W13015  14.232   4.292  13.764
46607W        W13016   6.854  41.087  14.408
46608W        W13017  36.441  15.847   3.179
46609W        W13018  13.731  28.681   0.703
46610W        W13019  18.270  32.870  12.765
46611W        W13020  39.669  23.456  11.407
46612W        W13021   6.338  23.207  10.756
46613W        W13022  24.310  20.127  12.812
46614W        W13023   1.777   1.639   1.876
46615W        W13024  42.052  32.524  11.246
46616W        W13025  30.120  41.013   2.536
46617W        W13026  21.285   3.357   3.689
46618W        W13027  44.065  17.781   0.482
46619W        W13028  21.580  25.225  13.874
46620W        W13029   5.786   8.380   4.623
46621W        W13030  31.983   6.392  12.131
46622W        W13031  28.655   9.752  12.004
46623W        W13032  39.021   9.875  12.835
46624W        W13033  32.075  15.670  10.584
46625W        W13034  38.166  25.206   1.005
46626W        W13035  35.468  30.943   3.586
46627W        W13036  11.695  38.262  13.508
46628W        W13037   8.660  14.745  13.371
46629W        W13038  11.788   2.953  12.820
46630W        W13039   5.893  17.676  10.441
46631W        W13040  30.006  34.866   2.466
46632W        W13041  39.109  24.432   1.958
46633W        W13042  38.503  30.672  14.369
46634W        W13043  38.078   8.003   0.719
46635W        W13044  26.494  12.830   0.026
46636W        W13045   1.468   9.064  14.370
46637W        W13046  21.588   1.965  11.726
46638W        W13047   5.725  31.258   1.718
46639W        W13048   3.403   4.419  10.851
46640W        W13049  42.339  13.309   3.361
46641W        W13050  24.524  21.272  14.467
46642W        W13051  15.651   1.212   3.839
46643W        W13052  29.114  22.979  11.391
46644W        W13053  10.176   7.313  10.949
46645W        W13054  11.994  28.782   2.932
46646W        W13055   1.272  18.737   1.321
46647W        W13056  20.121  20.352   3.427
46648W        W13057  21.900  25.266  11.249
46649W        W13058  38.738  14.803   2.727
46650W        W13059  19.830  35.861  13.627
46651W        W13060  23.980  32.998  10.652
46652W        W13061  40.009  29.669   2.996
46653W        W13062   2.869  11.887   0.236
46654W        W13063  27.474   2.106   3.698
46655W        W13064  23.719  23.413   3.125
46656W        W13065   3.873  23.280   3.301
46657W        W13066  31.459   3.655  11.567
46658W        W13067  11.580  35.950  14.848
46659W        W13068   5.666  19.974   1.153
46660W        W13069  38.333   8.369   0.447
46661W        W13070  20.175  29.947   0.167
46662W        W13071   6.638   6.691  12.993
46663W        W13072   2.069  42.930   4.598
46664W        W13073  32.694   8.081  12.889
46665W        W13074  15.655  12.155   1.424
46666W        W13075  31.580  28.085  13.126
46667W        W13076  33.761  22.030   4.640
46668W        W13077   1.820  34.831  10.499
46669W        W13078  30.811  25.377   1.447
46670W        W13079  16.140  28.029   0.436
46671W        W13080  35.952  28.095   3.870
46672W        W13081   7.195  26.644   3.254
46673W        W13082   7.189  39.581   2.551
46674W        W13083  23.746  31.346   3.085
46675W        W13084  10.166  25.187   4.477
46676W        W13085   3.014  38.136  14.339
46677W        W13086   2.774  10.110  14.330
46678W        W13087   1.032  25.084   1.779
46679W        W13088  25.393  19.165   3.353
46680W        W13089  26.911   5.784  14.372
46681W        W13090  27.542  44.571   4.545
46682W        W13091  33.106   1.013   0.999
46683W        W13092  10.224  42.391   5.280
46684W        W13093  36.320   6.080   2.372
46685W        W13094   5.246  43.760  11.897
46686W        W13095  14.098  17.562   4.526
46687W        W13096  19.762   1.269  10.582
46688W        W13097   8.931  16.305  11.942
46689W        W13098   7.828  23.228  12.511
46690W        W13099  37.596   0.338  10.547
46691W        W13100  36.505  17.860  12.884
46692W        W13101  35.628  42.399  10.908
46693W        W13102  26.680  24.202  14.376
46694W        W13103  17.745  26.407   2.399
46695W        W13104   0.770   8.733  10.244
46696W        W13105  14.349  16.205   1.274
46697W        W13106  39.754  42.454   0.895
46698W        W13107  10.634  24.949  11.307
46699W        W13108   2.900   4.293  10.730
46700W        W13109  44.513  30.889   1.753
46701W        W13110  33.461   7.960  12.507
46702W        W13111  24.067   4.422   1.011
46703W        W13112  37.096  12.285   1.323
46704W        W13113  35.489  22.732   3.254
46705W        W13114   7.254   2.480  12.106
46706W        W13115  43.839  43.974  10.978
46707W        W13116  44.371  43.042   4.134
46708W        W13117   8.185  12.022  11.627
46709W        W13118   7.032  33.427   4.945
46710W        W13119  40.130  35.984   1.413
46711W        W13120  41.559   0.060   1.271
46712W        W13121   8.198  37.748  11.151
46713W        W13122  17.276   4.825   4.601
46714W        W13123   2.466  43.485   2.270
46715W        W13124  13.051  16.667   1.286
46716W        W13125  17.832  13.500   1.845
46717W        W13126  39.896  11.815   0.396
46718W        W13127  36.952  30.017   3.204
46719W        W13128   1.260  44.775  12.455
46720W        W13129   4.402   5.791   0.696
46721W        W13130  33.425  44.811   0.725
46722W        W13131  16.301   2.910  12.820
46723W        W13132  24.294  41.956   3.366
46724W        W13133  19.276  40.096   2.897
46725W        W13134   8.885  27.460  12.885
46726W        W13135  11.209   5.815   4.247
46727W        W13136   8.863  26.444   3.802
46728W        W13137  24.590  43.715   0.817
46729W        W13138   9.857  19.776   3.660
46730W        W13139  39.444  33.987   0.996
46731W        W13140  35.916  17.496   5.079
46732W        W13141  37.339  27.591   4.669
46733W        W13142  10.172  31.822  10.768
46734W        W13143  40.098  12.120   2.803
46735W        W13144   0.694   7.739   1.667
46736W        W13145  33.601   7.243   2.276
46737W        W13146  40.479   6.798   1.318
46738W        W13147  10.842  17.646  14.288
46739W        W13148   2.440   8.176  12.605
46740W        W13149   9.940  42.679   4.134
46741W        W13150  38.301  34.205  11.130
46742W        W13151  20.537  29.506   0.775
46743W        W13152  30.122  19.417  14.025
46744W        W13153  11.121  33.406   1.873
46745W        W13154  17.315  40.695   0.340
46746W        W13155  22.176   7.192  12.107
46747W        W13156  17.831  39.772   2.713
46748W        W13157  25.210  15.889  13.375
46749W        W13158  33.490  36.379  14.842
46750W        W13159  40.383   9.304   0.771
46751W        W13160  27.967  12.573  11.817
46752W        W13161  40.733   6.400  13.897
46753W        W13162  14.378  32.478   4.338
46754W        W13163  17.215  12.690  13.960
46755W        W13164  30.936  13.884  12.548
46756W        W13165  16.321  18.176  12.532
46757W        W13166  38.501  33.404   4.134
46758W        W13167  31.612  18.866  14.549
46759W        W13168  38.125   5.959   0.078
46760W        W13169  40.759  20.494   1.155
46761W        W13170  12.627   5.261  12.524
46762W        W13171   1.382  30.065  12.129
46763W        W13172  11.389  36.496  13.369
46764W        W13173  38.410  23.517   0.722
46765W        W13174  25.677  29.649  11.827
46766W        W13175  30.386  14.850  13.978
46767W        W13176  19.426  19.209   2.754
46768W        W13177  26.731  21.615   2.286
46769W        W13178  27.069  26.392   2.142
46770W        W13179   4.665  17.346  12.979
46771W        W13180  34.939  15.108  12.044
46772W        W13181  30.465  14.042  12.357
46773W        W13182  33.383  23.167  13.627
46774W        W13183  28.555   1.947  11.080
46775W        W13184  39.875  27.548  12.624
46776W        W13185  27.771  41.547  13.467
46777W        W13186   6.424  20.629  14.989
46778W        W13187  26.205   1.440   1.840
46779W        W13188  19.206  17.757   4.281
46780W        W13189  33.857  22.209   2.608
46781W        W13190  14.007  44.690   2.582
46782W        W13191  38.140  19.427   2.411
46783W        W13192  43.523  29.601  11.626
46784W        W13193  25.441  33.984  12.531
46785W        W13194  24.989  43.862   3.848
46786W        W13195   9.211   3.707  13.020
46787W        W13196  26.243  15.361   0.872
46788W        W13197  21.099  34.496  13.656
46789W        W13198  12.862  21.422   2.556
46790W        W13199   3.578  18.234  13.883
46791W        W13200   9.286  10.819   0.532
46792W        W13201  43.429   7.632  12.952
46793W        W13202  32.372  30.987  12.015
46794W        W13203  15.709  22.510  14.355
46795W        W13204  11.909  31.951  14.374
46796W        W13205  14.809  19.737   3.643
46797W        W13206  25.262  39.500  14.973
46798W        W13207   6.933  17.236   1.962
46799W        W13208  22.967  14.973   4.856
46800W        W13209  14.586  28.175  11.204
46801W        W13210  15.314  40.557  14.533
46802W        W13211   3.757  24.767   4.643
46803W        W13212  14.717  20.303  14.877
46804W        W13213   7.917  20.677   4.737
46805W        W13214  32.097  10.309  13.490
46806W        W13215  16.196  22.615   5.307
46807W        W13216  14.198  34.649   0.824
46808W        W13217  28.012   2.025  11.125
46809W        W13218  39.350  44.336  12.136
46810W        W13219  26.876  20.515  14.069
46811W        W13220  21.794   4.570   2.744
46812W        W13221  18.688  38.302   1.393
46813W        W13222  43.319  37.549   0.702
46814W        W13223  40.993  32.602  10.714
46815W        W13224  19.010  26.922  14.788
46816W        W13225  14.304  38.042   0.891
46817W        W13226  39.522  28.575  13.954
46818W        W13227   7.994  21.566  14.585
46819W        W13228  32.779  22.295   2.249
46820W        W13229  32.948  28.627   4.185
46821W        W13230   0.974  11.741   1.656
46822W        W13231  39.077   8.818   0.812
46823W        W13232   4.315  32.005   0.881
46824W        W13233  25.582  40.705  12.894
46825W        W13234  27.505  29.072   2.569
46826W        W13235   6.203  37.686  13.950
46827W        W13236   5.225  40.636   0.827
46828W        W13237  29.471  22.006   4.184
46829W        W13238  25.553  13.888   4.852
46830W        W13239   9.793   0.639   4.515
46831W        W13240   2.480  11.312   4.651
46832W        W13241   6.122   6.661   2.801
46833W        W13242  21.516   8.036   2.272
46834W        W13243  26.244  42.775  13.049
46835W        W13244  20.470   4.524  11.436
46836W        W13245   5.346  12.736  13.898
46837W        W13246  35.483  12.487  11.580
46838W        W13247  37.714  22.246  10.244
46839W        W13248  21.142  27.181  12.086
46840W        W13249  35.972  27.850   4.739
46841W        W13250  15.787   9.130   0.763
46842W        W13251  14.899  39.261   2.893
46843W        W13252  35.054  11.693  13.897
46844W        W13253  42.630   8.649   3.629
46845W        W13254  17.066  18.564   4.078
46846W        W13255   6.698  27.805  12.179
46847W        W13256  34.026   1.466  13.247
46848W        W13257  25.197   1.015  12.368
46849W        W13258  31.903  41.979  10.712
46850W        W13259  35.788  18.768   4.285
46851W        W13260  42.292  16.495  14.666
46852W        W13261  10.431   3.300  14.273
46853W        W13262  39.810  19.664   4.525
46854W        W13263  33.171  42.871  14.838
46855W        W13264  19.403  35.321   0.589
46856W        W13265  10.529  18.585  12.459
46857W        W13266   5.595   9.095   1.043
46858W        W13267  26.449  37.656   2.333
46859W        W13268   6.870   8.747   4.896
46860W        W13269  25.135  38.301  14.550
46861W        W13270  23.681  21.141   3.194
46862W        W13271  10.126  30.686  13.959
46863W        W13272  19.816  28.740   1.855
46864W        W13273  20.462   1.502   1.249
46865W        W13274  29.641  11.215   2.224
46866W        W13275   8.019  16.318  10.571
46867W        W13276  27.563  40.446  11.717
46868W        W13277  40.223   1.096  12.103
46869W        W13278  36.133   8.927  13.369
46870W        W13279  27.922  18.365   1.279
46871W        W13280   6.852  16.631   0.750
46872W        W13281  38.556  34.134  10.209
46873W        W13282  10.915  35.118   9.779
46874W        W13283   2.135  27.590  13.770
46875W        W13284  39.930  33.107   4.737
46876W        W13285   3.868  24.537  13.538
46877W        W13286  42.322  23.758  12.945
46878W        W13287  25.129  38.380  11.101
46879W        W13288  28.540  21.265   1.743
46880W        W13289   9.850   0.238   2.422
46881W        W13290  21.059   5.427  13.946
46882W        W13291   6.786  38.683   4.614
46883W        W13292   1.238  27.137  10.698
46884W        W13293  15.748  10.087   4.139
46885W        W13294  39.298   6.288   3.575
46886W        W13295  29.979   4.019   3.791
46887W        W13296  21.617  26.464  12.392
46888W        W13297  44.805  27.168   0.242
46889W        W13298  28.148  17.540   3.644
46890W        W13299  44.788  37.424  13.390
46891W        W13300  21.635  29.198   4.048
46892W        W13301  22.951  34.132   2.810
46893W        W13302  41.905  34.414   0.220
46894W        W13303  36.462   2.719   3.851
46895W        W13304  15.823   7.230  10.943
46896W        W13305  38.087  16.530   1.602
46897W        W13306   5.882  21.869   1.377
46898W        W13307   6.606  42.558  14.356
46899W        W13308  41.510  25.600  10.473
46900W        W13309  35.986  24.185  10.769
46901W        W13310   6.190   4.223  10.753
46902W        W13311  43.777  39.289  14.495
46903W        W13312  35.028  23.712   1.612
46904W        W13313  12.903   1.135   1.918
46905W        W13314   5.852   1.518   0.761
46906W        W13315  14.371   9.192   0.860
46907W        W13316  19.732   6.492  12.607
46908W        W13317  34.360  12.915  14.642
46909W        W13318   9.956  29.523  13.420
46910W        W13319  41.936  28.908  14.934
46911W        W13320  11.129  36.586  10.989
46912W        W13321  11.677  38.987  12.803
46913W        W13322  22.697  38.573   0.776
46914W        W13323  22.979   5.249  10.458
46915W        W13324  38.363  27.891  11.194
46916W        W13325  39.394  15.387   3.290
46917W        W13326  38.873  10.114  14.821
46918W        W13327  34.093  22.132  12.831
46919W        W13328  29.111  24.921  12.485
46920W        W13329  16.667  19.951  11.584
46921W        W13330  15.975  19.937   3.338
46922W        W13331  17.586  22.550   2.432
46923W        W13332  19.112  36.406  11.551
46924W        W13333  15.167  23.738  11.261
46925W        W13334  41.880  43.839   0.249
46926W        W13335  32.138  17.127   2.210
46927W        W13336   3.314  23.840   3.875
46928W        W13337  33.001  16.269   1.150
46929W        W13338  28.999  27.372  11.070
46930W        W13339  38.836   9.873  11.336
46931W        W13340  41.689   6.717  14.771
46932W        W13341  15.025   9.830  11.604
46933W        W13342  43.143   3.025  12.068
46934W        W13343   1.743   5.982  13.249
46935W        W13344  25.721  34.019   4.036
46936W        W13345  44.018  28.765  11.535
46937W        W13346  44.045  18.549  12.545
46938W        W13347   2.691  12.854  11.163
46939W        W13348  36.872   7.991   1.183
46940W        W13349  33.349  41.521   0.935
46941W        W13350  33.877  39.951  13.550
46942W        W13351   0.945  13.233  12.123
46943W        W13352  41.165  18.701  14.854
46944W        W13353  29.178  23.783  14.412
46945W        W13354   6.749  32.199   3.945
46946W        W13355  30.064  40.881   3.027
46947W        W13356  42.983  38.494   1.425
46948W        W13357   7.414  36.568  10.605
46949W        W13358   5.010  35.023   2.308
46950W        W13359   8.781  16.583   0.841
46951W        W13360  19.758  13.596   1.231
46952W        W13361  16.828  40.567   1.761
46953W        W13362  15.059   2.693   0.855
46954W        W13363  43.343  25.928  11.389
46955W        W13364  29.331  31.594   3.296
46956W        W13365  33.373  19.223   1.288
46957W        W13366  21.947  39.712  11.733
46958W        W13367  41.870  37.300  10.161
46959W        W13368   5.948  17.913   3.160
46960W        W13369  44.867  41.039  10.619
46961W        W13370  43.445  26.664  14.201
46962W        W13371   9.192  13.368   0.895
46963W        W13372   8.826  14.272   1.362
46964W        W13373  37.929  41.594   1.681
46965W        W13374  44.102  42.842  14.313
46966W        W13375  36.216  26.705   4.867
46967W        W13376  37.321  15.712   3.247
46968W        W13377  41.989  29.144  10.330
46969W        W13378  26.125  27.111   4.122
46970W        W13379  12.730  27.200  14.507
46971W        W13380   8.641  11.380  10.353
46972W        W13381  41.950  38.486   2.307
46973W        W13382  23.656  40.921   1.036
46974W        W13383  44.900  21.540  14.933
46975W        W13384  19.744  15.307  11.374
46976W        W13385  24.355  43.263   3.797
46977W        W13386  24.910  38.635   2.398
46978W        W13387   5.806  18.025  14.442
46979W        W13388  11.721  41.675   0.122
46980W        W13389   0.257  43.256   0.775
46981W        W13390  22.654  15.767   3.161
46982W        W13391  28.004  15.708   3.265
46983W        W13392  43.962  38.983  12.675
46984W        W13393   3.003  24.413  13.950
46985W        W13394  43.037  28.673  12.567
46986W        W13395   6.629  30.016   4.828
46987W        W13396   8.292   8.944  12.766
46988W        W13397  35.845  40.056  13.406
46989W        W13398  42.423   9.884   3.184
46990W        W13399  39.048   3.910   3.455
46991W        W13400  28.079  38.602   4.975
46992W        W13401  17.754  22.130   5.062
46993W        W13402  30.637  19.402   4.559
46994W        W13403   8.219  30.168   0.767
46995W        W13404  30.510  36.092   4.023
46996W        W13405   9.401   4.997   1.631
46997W        W13406  35.061  34.099  14.417
46998W        W13407  44.238  34.482   0.323
46999W        W13408   0.741  35.801   3.212
47000W        W13409  32.303  44.071  10.896
47001W        W13410   2.864  20.311   0.833
47002W        W13411   1.949  20.621  12.020
47003W        W13412  41.252  15.075   0.981
47004W        W13413  35.366  33.575   3.367
47005W        W13414   3.182  26.714   3.361
47006W        W13415  38.788  37.488  12.379
47007W        W13416  19.649   5.738  13.926
47008W        W13417  15.752  20.200   4.234
47009W        W13418  22.119   6.777   0.961
47010W        W13419   1.975  34.572   3.525
47011W        W13420   4.868   8.798  12.883
47012W        W13421  30.536   3.735   4.898
47013W        W13422  18.028   1.024   2.694
47014W        W13423  39.949  31.016  10.905
47015W        W13424  32.307  26.968  14.410
47016W        W13425  44.334   4.915   0.354
47017W        W13426   1.247  30.368  13.992
47018W        W13427  32.850  17.569   2.716
47019W        W13428  27.486   6.939  12.466
47020W        W13429  44.186  22.011  12.792
47021W        W13430  34.338  43.893  12.843
47022W        W13431  30.410   4.000   0.494
47023W        W13432  29.650  27.306   2.690
47024W        W13433   1.349  30.696   1.962
47025W        W13434   1.695  11.681  12.031
47026W        W13435   7.703  22.781  13.354
47027W        W13436  15.423  38.831   4.112
47028W        W13437  43.234  39.529   3.307
47029W        W13438  44.315   1.990  12.958
47030W        W13439  25.642  16.210  10.547
47031W        W13440  40.870   9.077   5.114
47032W        W13441  20.137  35.921  11.029
47033W        W13442   4.932  21.625   3.606
47034W        W13443  35.913  43.428  13.639
47035W        W13444  34.871  41.330  11.574
47036W        W13445  32.616  11.262   3.122
47037W        W13446  27.959  32.216   2.017
47038W        W13447   6.773   2.269   3.960
47039W        W13448  32.124  15.239   4.461
47040W        W13449  24.533  25.050  14.326
47041W        W13450  11.033   4.702   1.226
47042W        W13451  26.077  26.155   3.132
47043W        W13452   5.972  30.178   0.723
47044W        W13453  12.315   3.016   5.062
47045W        W13454  27.059  14.207   0.781
47046W        W13455   4.663   8.715  13.331
47047W        W13456  25.219  22.232   1.845
47048W        W13457  19.215   5.888  14.674
47049W        W13458  37.357  40.326  13.066
47050W        W13459  44.439   0.932  11.648
47051W        W13460  30.223  25.147  11.707
47052W        W13461  11.753  36.727  13.068
47053W        W13462  30.062  18.985   0.467
47054W        W13463  19.280  44.899   1.419
47055W        W13464  41.853  32.834   2.373
47056W        W13465  44.530  12.195  13.521
47057W        W13466  44.944   4.934  10.686
47058W        W13467  23.913   1.012   1.699
47059W        W13468  19.691  18.033   0.431
47060W        W13469  13.267  22.764  12.109
47061W        W13470  32.540   4.995   4.971
47062W        W13471  22.768   3.810   4.155
47063W        W13472   2.716  32.239   5.124
47064W        W13473  24.798  13.285  11.090
47065W        W13474  16.061   6.021   1.645
47066W        W13475  11.902  42.147   1.772
47067W        W13476  40.236  23.201   0.233
47068W        W13477   8.386  19.135   2.817
47069W        W13478   6.355  11.111   0.767
47070W        W13479   6.725  35.362   0.823
47071W        W13480  12.336   8.142   2.293
47072W        W13481  14.515   5.883   3.292
47073W        W13482   9.802  11.370   4.949
47074W        W13483   7.878  32.457   3.649
47075W        W13484  33.837  17.584   1.005
47076W        W13485   8.401  43.834   0.272
47077W        W13486   2.407  18.832   2.619
47078W        W13487  11.294  28.231   4.526
47079W        W13488  10.378  14.195   2.656
47080W        W13489  28.444  14.218   0.629
47081W        W13490  24.456   0.795  11.636
47082W        W13491  24.090  30.694  10.667
47083W        W13492   2.974  38.451   1.367
47084W        W13493  28.069  22.160  12.616
47085W        W13494   9.570  35.948   2.160
47086W        W13495   8.084  14.447  13.959
47087W        W13496  32.666  31.590   1.927
47088W        W13497  15.504  17.620   4.395
47089W        W13498  31.018  23.414   4.699
47090W        W13499  20.203  37.431   4.090
47091W        W13500  37.538  15.208   3.545
47092W        W13501  21.043  22.102   1.252
47093W        W13502  20.143  23.189   1.881
47094W        W13503  29.073   7.687   1.683
47095W        W13504   4.445  36.252  11.145
47096W        W13505  42.530  21.389   4.699
47097W        W13506  37.479  21.652  12.386
47098W        W13507  39.607   4.941   2.341
47099W        W13508  29.933  20.671  11.733
47100W        W13509   7.692  38.422  12.655
47101W        W13510  30.422  30.451  12.943
47102W        W13511  27.958  37.454  12.866
47103W        W13512  35.622  30.467   1.004
47104W        W13513  38.380  26.110   3.957
47105W        W13514  18.687   2.855   3.720
47106W        W13515  38.410  22.131   0.436
47107W        W13516   5.307  35.106   0.775
47108W        W13517  22.964  39.593   3.674
47109W        W13518  25.471  35.015   9.497
47110W        W13519  18.926  28.788   4.549
47111W        W13520   6.359  11.329   3.426
47112W        W13521  42.475   8.056  11.482
47113W        W13522  12.289  27.531  12.882
47114W        W13523  41.093  18.068   2.737
47115W        W13524  29.329  44.398  12.427
47116W        W13525  36.979   4.517  11.912
47117W        W13526  11.385   9.350  12.639
47118W        W13527  30.293  19.969   0.429
47119W        W13528  32.974  11.605  14.318
47120W        W13529  35.992  12.898   0.267
47121W        W13530  36.803  42.795  11.712
47122W        W13531  40.854  26.937  11.042
47123W        W13532  13.416   3.943  13.259
47124W        W13533  37.120  14.206  13.821
47125W        W13534  38.079   0.995  12.205
47126W        W13535  32.066   9.444  13.741
47127W        W13536  30.124  13.567  12.381
47128W        W13537  13.899  21.840  12.159
47129W        W13538  33.199  30.719   1.750
47130W        W13539  13.813  16.630  12.648
47131W        W13540  31.199   7.098  12.246
47132W        W13541   4.268  22.662   1.893
47133W        W13542  11.190  24.445  12.475
47134W        W13543  15.014  37.252   1.233
47135W        W13544  10.146  34.096  12.068
47136W        W13545  27.149  34.904   0.790
47137W        W13546  44.551   5.540   0.950
47138W        W13547  43.619  30.559  11.159
47139W        W13548   1.360   9.765  14.726
47140W        W13549  41.875  18.756   2.565
47141W        W13550  33.956   0.662  12.844
47142W        W13551   4.831  12.704  13.969
47143W        W13552  13.521  29.004  11.959
47144W        W13553  29.415  23.832   2.858
47145W        W13554  30.862  23.269  13.397
47146W        W13555  30.217  29.406   0.312
47147W        W13556   6.892   3.169  13.963
47148W        W13557   4.924  18.280   0.766
47149W        W13558  40.009  22.119   4.056
47150W        W13559  31.090  30.408  13.782
47151W        W13560  18.717  32.371  11.648
47152W        W13561   8.337   1.779  12.141
47153W        W13562  10.678   0.213   3.298
47154W        W13563  34.959  22.016   3.337
47155W        W13564  29.352  31.159  11.271
47156W        W13565  22.695  26.442  13.483
47157W        W13566  31.278   9.699   3.751
47158W        W13567  28.492  30.030  11.656
47159W        W13568  35.091   1.857  10.383
47160W        W13569  33.448   2.465   1.891
47161W        W13570  26.449  17.104   2.202
47162W        W13571  19.319  31.584   0.654
47163W        W13572  24.157  36.119  11.651
47164W        W13573  15.112  16.471   0.247
47165W        W13574   8.412   6.502   0.107
47166W        W13575   2.122  11.918   3.488
47167W        W13576  32.250  25.666  12.045
47168W        W13577   4.276  17.358  14.318
47169W        W13578  34.662  35.852   3.423
47170W        W13579   3.006  14.695   0.913
47171W        W13580  39.844  30.521   2.602
47172W        W13581  40.031  33.529   2.395
47173W        W13582   8.290  30.260  10.678
47174W        W13583  15.257  15.993   0.299
47175W        W13584  24.908  36.171   3.675
47176W        W13585  36.464   7.077   2.373
47177W        W13586   1.928  43.955  10.618
47178W        W13587  14.352  10.445  12.042
47179W        W13588  44.238  44.798   2.720
47180W        W13589  18.214  20.596  10.245
47181W        W13590  23.980   8.635  14.066
47182W        W13591  30.103  16.461   3.602
47183W        W13592  27.897   5.537   2.844
47184W        W13593  20.557  10.696  13.813
47185W        W13594  12.345   9.495   3.291
47186W        W13595  10.900  21.188  13.944
47187W        W13596  17.088   8.376   2.357
47188W        W13597  19.072  19.647  14.020
47189W        W13598   5.554   8.885   3.713
47190W        W13599  11.078   4.049   1.825
47191W        W13600  10.356   5.476  10.806
47192W        W13601   0.551   7.638  12.230
47193W        W13602   2.193  40.031   4.079
47194W        W13603   2.811  44.286   2.645
47195W        W13604  18.697  25.032   1.480
47196W        W13605   8.694  20.280  11.552
47197W        W13606  25.164  30.027  12.869
47198W        W13607  23.708  18.833  11.108
47199W        W13608  37.134  32.851   2.420
47200W        W13609  17.891   4.025   2.929
47201W        W13610  31.507  34.265   0.212
47202W        W13611  21.766  39.749  12.744
47203W        W13612   9.413  11.215  13.332
47204W        W13613  10.012  24.235  13.056
47205W        W13614  16.603  39.309  12.535
47206W        W13615   9.755  17.310   1.438
47207W        W13616  20.270  23.734   3.166
47208W        W13617  33.342  34.528   3.230
47209W        W13618  35.400  16.864   0.424
47210W        W13619  38.801  13.672  13.958
47211W        W13620  23.525   8.911   3.284
47212W        W13621  12.758  12.667   1.157
47213W        W13622  44.679  28.158  14.412
47214W        W13623  32.890  32.684   0.285
47215W        W13624  36.069   4.279   2.681
47216W        W13625  16.378  28.063   3.132
47217W        W13626   4.136  36.624  14.670
47218W        W13627   9.439   3.967  14.733
47219W        W13628  29.046  33.013  11.682
47220W        W13629  21.786  17.383  11.945
47221W        W13630  43.045  42.406   1.203
47222W        W13631  35.040   9.483  13.048
47223W        W13632  12.084  31.464   1.829
47224W        W13633  34.387   5.484  10.679
47225W        W13634  22.434   1.061  13.997
47226W        W13635  43.266  10.160  12.457
47227W        W13636   4.318  17.314   4.521
47228W        W13637  42.257  22.966   2.598
47229W        W13638  22.166  39.373  13.892
47230W        W13639  37.234  32.058   1.968
47231W        W13640   9.715  40.822   1.859
47232W        W13641  39.136  26.253   2.487
47233W        W13642  11.971  15.214   1.075
47234W        W13643  14.771  11.853   3.214
47235W        W13644  25.958  37.311   5.001
47236W        W13645   9.223   6.191   4.113
47237W        W13646  14.130   1.670   3.237
47238W        W13647  13.634   2.410  13.443
47239W        W13648  18.008  21.135   5.014
47240W        W13649  12.109  25.965   2.744
47241W        W13650  40.802   5.892   3.875
47242W        W13651  39.541  29.527  14.086
47243W        W13652  34.099  17.587  12.949
47244W        W13653  12.037  23.181  12.054
47245W        W13654  15.215  27.687  13.552
47246W        W13655  34.133  20.193  14.549
47247W        W13656   5.700  25.025  12.049
47248W        W13657   1.860   0.633  12.826
47249W        W13658  27.935  26.609   4.174
47250W        W13659   9.305  18.803   1.374
47251W        W13660  34.123  16.616   4.414
47252W        W13661  42.904   6.320   2.278
47253W        W13662   8.278  41.313  12.163
47254W        W13663   5.124  42.223  13.463
47255W        W13664  21.546  17.278   3.516
47256W        W13665  33.131  10.249  10.746
47257W        W13666  32.564  25.424   4.431
47258W        W13667  37.077  14.806   4.118
47259W        W13668  18.173  26.110   2.805
47260W        W13669  21.790  12.215  11.918
47261W        W13670  13.657  44.335   3.100
47262W        W13671   1.205  22.567   2.046
47263W        W13672   2.548   2.323   4.237
47264W        W13673  22.787   5.009  14.632
47265W        W13674   5.816  43.631  14.459
47266W        W13675  32.460  20.598  10.551
47267W        W13676  16.187  33.081  12.073
47268W        W13677  40.224  28.911   4.312
47269W        W13678  23.179   9.825  12.819
47270W        W13679  25.870  37.580  11.613
47271W        W13680  23.209  36.017  11.586
47272W        W13681  33.960   8.098  12.397
47273W        W13682  28.380  14.831  13.918
47274W        W13683  39.097  15.816   3.867
47275W        W13684  37.409  43.511   0.330
47276W        W13685  38.438   0.401  12.982
47277W        W13686  38.137  22.494  13.760
47278W        W13687  32.916   7.351   0.307
47279W        W13688  19.500  10.291   2.575
47280W        W13689   1.380   9.524   3.559
47281W        W13690   8.362  24.707   1.072
47282W        W13691   2.828  10.444   0.641
47283W        W13692  13.330  28.669  13.513
47284W        W13693  12.613   6.313  13.451
47285W        W13694  37.864   3.895  10.842
47286W        W13695   5.029  39.641  11.037
47287W        W13696   8.924  18.022   3.686
47288W        W13697  21.693  21.482  14.700
47289W        W13698   6.835  28.096   0.127
47290W        W13699  23.289  31.435  10.744
47291W        W13700  42.646  33.338  14.511
47292W        W13701  28.568  17.995  14.600
47293W        W13702  20.162  40.449   4.628
47294W        W13703  25.649   7.676  14.990
47295W        W13704   0.714  44.237   3.569
47296W        W13705  39.806  39.311   2.492
47297W        W13706   7.199  40.513  13.741
47298W        W13707  12.055  14.091   1.766
47299W        W13708  17.268  27.484   0.825
47300W        W13709  12.162   6.836  14.849
47301W        W13710  36.876  14.358  12.489
47302W        W13711   2.056  36.626   0.930
47303W        W13712  42.652  26.577   1.116
47304W        W13713  44.770  32.990   2.431
47305W        W13714  36.091   7.175  11.897
47306W        W13715  34.671  19.313  11.614
47307W        W13716  13.232  35.257  14.323
47308W        W13717   4.130   7.268   2.801
47309W        W13718   4.509  27.670   1.360
47310W        W13719  30.461  14.090   3.101
47311W        W13720   5.720  28.888  11.494
47312W        W13721  19.557  20.576  13.958
47313W        W13722   4.963  41.880   4.170
47314W        W13723  14.780  25.462  10.707
47315W        W13724  13.976  26.825  12.064
47316W        W13725  20.012  29.861  13.084
47317W        W13726  18.946  38.368   2.229
47318W        W13727  20.049  14.540  12.961
47319W        W13728  12.869  22.954   2.265
47320W        W13729   5.102  19.842  13.555
47321W        W13730   5.240   4.277  11.575
47322W        W13731  17.787  23.726  10.809
47323W        W13732  33.081  38.566  12.326
47324W        W13733  30.005  37.578   0.294
47325W        W13734  43.186   1.963  12.983
47326W        W13735   1.739  12.129   0.374
47327W        W13736  21.552  10.171   3.240
47328W        W13737  42.092   3.439   4.201
47329W        W13738  24.693  18.876  14.890
47330W        W13739  11.668   5.316   0.234
47331W        W13740  44.935   9.504   0.877
47332W        W13741   7.217  42.026  12.931
47333W        W13742   5.455   4.732   4.464
47334W        W13743  35.581  20.705   4.143
47335W        W13744  31.958  28.515   2.123
47336W        W13745  25.794   7.081   3.283
47337W        W13746  36.470  37.940   3.944
47338W        W13747  19.987   1.238   0.693
47339W        W13748  32.098  13.130   1.564
47340W        W13749  27.598  19.565  10.578
47341W        W13750   9.046  18.741   0.378
47342W        W13751  43.266  17.540  13.985
47343W        W13752  26.589  26.041  11.281
47344W        W13753  13.787  10.331   4.242
47345W        W13754   0.858  32.527  13.542
47346W        W13755  24.352  43.430  12.340
47347W        W13756   0.002  10.916   0.130
47348W        W13757  25.136  26.612  13.927
47349W        W13758  19.153   2.415   1.155
47350W        W13759  27.051  32.046   4.395
47351W        W13760  22.941  43.427   4.857
47352W        W13761  23.806  41.405  12.997
47353W        W13762  37.875  36.971   0.789
47354W        W13763  23.515   2.285  11.502
47355W        W13764   4.048  44.784   1.443
47356W        W13765  31.122  28.072   2.425
47357W        W13766  38.628  25.530   0.292
47358W        W13767   2.691   2.806  12.544
47359W        W13768   8.679  37.562   3.273
47360W        W13769  13.402  31.466  13.508
47361W        W13770  27.686  35.559   0.321
47362W        W13771   3.393   4.734  13.454
47363W        W13772  24.209  25.196  10.267
47364W        W13773  33.154   8.619  13.182
47365W        W13774  40.917  18.175   0.956
47366W        W13775  34.458  36.251   2.823
47367W        W13776  15.519  32.493  10.620
47368W        W13777  41.456  24.392   1.685
47369W        W13778  15.104  30.468  13.445
47370W        W13779  29.439  23.671  10.469
47371W        W13780  37.782  37.382   1.669
47372W        W13781  18.502  29.726   1.598
47373W        W13782   4.835  40.809   9.940
47374W        W13783   8.956  12.635   0.986
47375W        W13784  40.855  13.217   0.202
47376W        W13785  15.426  44.865   0.642
47377W        W13786  32.052   6.907   0.255
47378W        W13787  20.164  11.389   0.387
47379W        W13788  37.311  38.922  12.766
47380W        W13789  17.881  23.548  13.448
47381W        W13790  31.587   4.847   4.059
47382W        W13791  27.359  35.479   4.216
47383W        W13792  33.615  12.299   1.782
47384W        W13793  34.512  17.062   3.618
47385W        W13794  40.091  31.723   4.198
47386W        W13795  44.847  39.175   1.753
47387W        W13796  20.505  34.212   3.893
47388W        W13797  44.429  37.066  13.305
47389W        W13798  20.021  14.160  11.658
47390W        W13799   6.839  18.388   3.374
47391W        W13800  21.059  20.256   3.070
47392W        W13801   6.445  12.582   2.268
47393W        W13802  41.668  26.840   4.945
47394W        W13803  23.485  32.799   3.306
47395W        W13804  15.751  21.705  11.651
47396W        W13805  37.028  22.456   2.447
47397W        W13806  37.768  10.067   2.686
47398W        W13807  17.550   3.541   4.214
47399W        W13808  24.105  20.007  11.341
47400W        W13809  22.441  13.721   9.772
47401W        W13810  39.560  23.037   3.856
47402W        W13811  33.384  42.952   0.765
47403W        W13812  41.266  18.898   3.782
47404W        W13813  33.840   0.068   4.101
47405W        W13814  12.646   8.768  11.998
47406W        W13815  27.180   4.130  11.152
47407W        W13816  23.963  43.223   2.517
47408W        W13817  14.812  44.862   4.338
47409W        W13818  37.010  17.752   1.887
47410W        W13819  15.257  41.843  12.962
47411W        W13820  33.227  15.749  14.026
47412W        W13821   6.837  17.185  10.607
47413W        W13822  17.605  28.230   0.043
47414W        W13823  38.202  36.080   1.740
47415W        W13824  17.099  25.514   0.990
47416W        W13825  43.703  25.994   1.260
47417W        W13826  38.028  43.429   1.866
47418W        W13827   4.894   8.617  10.505
47419W        W13828  40.443  14.741   4.112
47420W        W13829  29.121  16.150   2.721
47421W        W13830  44.972  31.051   0.769
47422W        W13831   3.790  22.009  13.713
47423W        W13832  39.003  10.679   3.320
47424W        W13833  11.845  44.900   0.298
47425W        W13834   6.316  29.339  13.655
47426W        W13835  42.528  24.513  12.061
47427W        W13836  20.219  10.581   1.862
47428W        W13837  10.430  12.324   4.656
47429W        W13838  12.608  25.047  14.930
47430W        W13839  28.862  11.679  13.102
47431W        W13840  24.243  40.002  13.360
47432W        W13841   9.331  18.842  14.518
47433W        W13842  37.343   0.439   1.270
47434W        W13843   7.626  37.023   2.417
47435W        W13844  27.864  15.570  14.082
47436W        W13845  19.158   0.411   4.100
47437W        W13846  32.032  39.263  13.454
47438W        W13847   0.279   3.473   1.884
47439W        W13848  26.263  16.203   0.503
47440W        W13849  17.723  25.927   2.617
47441W        W13850  15.588   0.006  14.357
47442W        W13851   0.548  15.196  12.037
47443W        W13852   1.250  33.547   3.373
47444W        W13853  36.613  20.138   4.568
47445W        W13854   0.472  32.871  14.765
47446W        W13855  18.011   4.061   1.095
47447W        W13856   6.579   6.233  14.299
47448W        W13857  40.896  39.015   3.721
47449W        W13858  43.490  17.273  13.517
47450W        W13859   8.653   9.989  12.808
47451W        W13860  23.162  40.983  11.249
47452W        W13861   5.419  23.102   0.031
47453W        W13862  15.780  34.068  10.241
47454W        W13863  36.097  35.503  12.201
47455W        W13864  37.329  10.849   0.272
47456W        W13865  35.606  17.005   3.198
47457W        W13866  29.543   5.150   4.939
47458W        W13867  21.154  24.227   2.334
47459W        W13868   1.447  14.125   2.168
47460W        W13869  24.209  16.301   0.166
47461W        W13870  44.879   5.504   1.343
47462W        W13871  11.709  23.006   2.438
47463W        W13872  27.269  10.892   2.532
47464W        W13873  23.044  25.677  10.107
47465W        W13874  43.523  20.095   1.503
47466W        W13875   2.952  36.087  11.851
47467W        W13876  13.350  15.675   3.452
47468W        W13877  15.165   0.249  10.064
47469W        W13878  19.348  36.323  12.493
47470W        W13879   9.611   7.662  12.253
47471W        W13880   3.691   5.593  14.805
47472W        W13881  19.209  14.520  12.244
47473W        W13882  28.861  42.881   1.414
47474W        W13883  38.254  19.829   1.761
47475W        W13884   3.299   3.822  13.474
47476W        W13885   8.906  10.603   3.277
47477W        W13886  16.751  14.753  10.600
47478W        W13887  33.553  21.549   0.464
47479W        W13888  37.396  12.146   3.244
47480W        W13889  17.167   8.336  10.763
47481W        W13890  18.277  31.673   0.749
47482W        W13891  14.909  21.239   1.784
47483W        W13892  18.293  24.747   2.693
47484W        W13893  12.688  14.004   0.485
47485W        W13894  15.302   4.377  12.944
47486W        W13895  12.310  24.800   0.516
47487W        W13896  44.219  30.771  12.144
47488W        W13897  42.794   6.963  12.608
47489W        W13898   6.677  21.983  10.639
47490W        W13899  38.557   6.126  14.273
47491W        W13900  16.152  20.111   5.255
47492W        W13901  42.958  29.430   3.651
47493W        W13902  15.059  19.554  12.921
47494W        W13903  12.434  36.829   2.658
47495W        W13904   1.615   9.779   3.160
47496W        W13905   6.738  26.536  10.564
47497W        W13906  21.689  27.180   1.212
47498W        W13907  12.169   5.881  14.832
47499W        W13908  26.095  31.510   3.241
47500W        W13909   7.763  11.563   0.028
47501W        W13910  41.251  34.405  10.747
47502W        W13911  29.289  34.890   1.154
47503W        W13912  28.015  28.505  14.982
47504W        W13913  37.984  19.115  11.326
47505W        W13914   8.647  39.892  12.502
47506W        W13915   8.244  13.023   4.704
47507W        W13916  42.620  16.707   5.543
47508W        W13917  26.845  28.479   3.224
47509W        W13918  43.057   3.893   2.746
47510W        W13919  27.102  26.620  11.718
47511W        W13920  25.809   3.745  14.835
47512W        W13921  25.897  41.929   2.121
47513W        W13922  12.734  34.698  13.804
47514W        W13923  24.100  15.376  11.994
47515W        W13924  43.915  25.520  12.033
47516W        W13925  18.811  13.289   4.373
47517W        W13926   9.353   7.493  10.798
47518W        W13927  17.195  39.274   2.277
47519W        W13928  44.454  24.464  11.559
47520W        W13929   4.817  36.616  12.434
47521W        W13930  24.045  16.619  14.298
47522W        W13931   3.085   3.139  13.155
47523W        W13932  37.510  44.436   0.372
47524W        W13933  30.067  29.349  10.638
47525W        W13934   6.738  18.143   4.290
47526W        W13935   3.901  35.266   4.560
47527W        W13936  42.968  13.611   4.333
47528W        W13937  21.723  16.873   0.407
47529W        W13938  18.283  13.154  13.093
47530W        W13939   8.227  44.901  14.104
47531W        W13940  36.606  30.728  12.184
47532W        W13941  10.106  29.533  14.527
47533W        W13942  12.756  20.275  14.042
47534W        W13943  33.920  19.649  13.728
47535W        W13944  24.096  16.063  13.428
47536W        W13945  26.378   7.669   4.974
47537W        W13946  10.894  19.535   2.321
47538W        W13947  30.533  31.913   4.010
47539W        W13948  31.015  42.600   1.802
47540W        W13949  35.521  25.413  14.030
47541W        W13950  15.074  41.449   0.978
47542W        W13951  26.976  14.953   1.828
47543W        W13952   6.197   5.858  11.768
47544W        W13953  35.960   2.645   1.894
47545W        W13954  34.907   9.270  11.596
47546W        W13955  39.921  34.044  12.332
47547W        W13956  34.980  22.694  10.281
47548W        W13957  41.332  15.902  12.603
47549W        W13958  28.465  33.871  10.832
47550W        W13959   9.253  18.327   4.541
47551W        W13960  10.087  25.007  11.498
47552W        W13961  14.646  14.659   0.674
47553W        W13962   5.062  10.614  14.533
47554W        W13963  12.797  15.151  12.984
47555W        W13964  17.718   1.366   3.602
47556W        W13965  28.464  35.366   2.734
47557W        W13966  24.252   7.869   0.760
47558W        W13967  37.214  33.126   3.502
47559W        W13968   1.731  19.406  11.624
47560W        W13969  34.033  21.919  11.978
47561W        W13970  12.206  35.001   0.539
47562W        W13971  30.723  11.788  12.359
47563W        W13972  11.849  20.084  14.979
47564W        W13973  26.659  15.187   2.795
47565W        W13974  14.554  43.999   2.279
47566W        W13975   4.555  21.486  11.120
47567W        W13976  29.507  21.559  12.736
47568W        W13977  33.133  34.488   2.708
47569W        W13978   5.990  27.715   1.811
47570W        W13979  34.035  43.462  13.947
47571W        W13980  43.335  20.232  13.807
47572W        W13981  28.508  38.737  11.202
47573W        W13982  26.238  21.773  13.951
47574W        W13983  19.173   8.706   0.367
47575W        W13984  39.160  13.190   0.677
47576W        W13985  12.705  32.010   0.770
47577W        W13986  28.637   2.935  11.092
47578W        W13987   4.765  32.601  10.710
47579W        W13988   3.052  12.869  13.517
47580W        W13989  27.477  40.900   2.147
47581W        W13990  22.781  32.476   2.301
47582W        W13991  43.262  10.362   0.200
47583W        W13992  43.372   7.972  11.478
47584W        W13993  27.545  26.192   2.209
47585W        W13994  28.419   0.974  12.096
47586W        W13995  28.825   2.998   2.802
47587W        W13996  33.586  41.592   2.987
47588W        W13997   9.832  23.942   3.131
47589W        W13998  31.054  13.600   0.457
47590W        W13999  27.492   4.596  11.613
47591W        W14000  20.066   1.927  14.110
47592W        W14001  43.553  33.836   4.195
47593W        W14002  39.162  35.078   3.272
47594W        W14003  34.827  13.841  11.123
47595W        W14004  20.247  30.695   3.614
47596W        W14005  16.347  42.935  11.352
47597W        W14006   8.405  43.843   4.155
47598W        W14007  14.857  34.483   4.954
47599W        W14008  27.620  18.051  13.291
47600W        W14009  14.123  43.348  12.258
47601W        W14010  33.164   1.966  13.067
47602W        W14011  34.067  36.556  11.484
47603W        W14012  32.112  27.365  13.443
47604W        W14013   7.783  16.526   3.363
47605W        W14014   0.307   0.268  12.947
47606W        W14015  29.924   1.942   3.705
47607W        W14016  25.604  12.153  11.162
47608W        W14017  40.788   1.750   2.308
47609W        W14018  42.424  24.992  13.551
47610W        W14019   9.002  44.399  12.363
47611W        W14020  22.491   4.179   2.188
47612W        W14021  30.752  11.473  11.961
47613W        W14022  27.638   2.970   0.792
47614W        W14023  32.821  34.472   3.151
47615W        W14024  24.607  26.984   1.179
47616W        W14025  17.321  11.254  13.819
47617W        W14026   1.851  30.126  11.956
47618W        W14027  44.860  40.314  12.785
47619W        W14028   0.292   2.949  12.999
47620W        W14029   4.799  42.022  12.415
47621W        W14030  19.080  17.065   0.715
47622W        W14031  10.661  34.576   0.775
47623W        W14032  28.136   0.179   2.267
47624W        W14033  17.107  43.957  14.985
47625W        W14034  24.270  44.332  13.822
47626W        W14035  17.348  29.409  12.523
47627W        W14036  17.069   5.434  13.923
47628W        W14037  23.537  35.325  14.078
47629W        W14038  37.007  34.254  12.120
47630W        W14039  30.047  42.672  11.137
47631W        W14040  16.779  16.733   2.158
47632W        W14041   3.670   2.338   0.912
47633W        W14042  14.136  27.187  14.881
47634W        W14043  17.622  36.965   1.724
47635W        W14044  15.324  33.421   4.405
47636W        W14045  43.480  27.124   2.703
47637W        W14046  42.700  18.701   3.161
47638W        W14047  30.351  33.085  11.140
47639W        W14048  44.540  18.591   0.419
47640W        W14049  13.672  31.129  13.877
47641W        W14050  44.921  36.589   0.945
47642W        W14051   0.486  20.473  14.280
47643W        W14052  35.255  12.890   3.778
47644W        W14053  22.432   5.327  12.220
47645W        W14054   4.912  17.710   3.178
47646W        W14055  17.296   0.403  12.385
47647W        W14056  19.719  33.492   2.015
47648W        W14057  29.071  36.030   0.034
47649W        W14058  42.420  44.891  12.049
47650W        W14059  23.552  31.850   3.187
47651W        W14060  10.316   4.091   4.405
47652W        W14061  36.033  39.832   3.679
47653W        W14062  39.740  38.847  12.661
47654W        W14063  19.149   7.360  12.245
47655W        W14064  38.183  21.265  12.522
47656W        W14065   8.129   4.916  13.971
47657W        W14066   5.426  16.081   4.044
47658W        W14067  22.728  19.270   2.303
47659W        W14068   1.515  33.483   2.702
47660W        W14069  41.978  24.050   0.423
47661W        W14070   9.911  26.726  11.455
47662W        W14071   2.787  36.129   4.870
47663W        W14072  16.751  13.286   2.115
47664W        W14073  33.225  23.867   4.624
47665W        W14074  12.789  31.902   0.222
47666W        W14075  29.079  41.423  13.665
47667W        W14076  35.067   7.285   2.263
47668W        W14077  19.691  14.390  11.005
47669W        W14078  22.137  40.621   1.857
47670W        W14079  18.876  35.857   5.012
47671W        W14080  35.800  16.742   1.343
47672W        W14081  17.922  44.941  11.050
47673W        W14082  39.254  39.509  11.768
47674W        W14083   6.753  34.572   4.624
47675W        W14084   8.951   9.537   0.891
47676W        W14085  35.018  12.322  14.271
47677W        W14086  10.866   4.352  11.535
47678W        W14087  43.176   3.254   5.028
47679W        W14088  29.342  20.792   4.921
47680W        W14089  43.401   6.117  14.452
47681W        W14090  17.096  19.942  12.880
47682W        W14091   2.459  13.586  11.656
47683W        W14092   5.489  12.161   3.639
47684W        W14093  13.246  40.934  12.921
47685W        W14094  13.869  44.821   1.559
47686W        W14095  44.355   9.900   2.215
47687W        W14096  35.299  28.742  11.130
47688W        W14097  19.724  34.697   2.678
47689W        W14098  35.886  23.653  12.549
47690W        W14099  25.870   7.513   4.984
47691W        W14100  25.264   9.195   2.166
47692W        W14101  41.934  36.011   2.911
47693W        W14102  11.241  39.595   4.112
47694W        W14103  17.603  27.001  11.511
47695W        W14104  42.261   8.403   4.071
47696W        W14105  19.093   6.868  12.974
47697W        W14106  29.909  14.534  13.049
47698W        W14107  16.371  33.671   3.162
47699W        W14108  37.841  31.499  13.801
47700W        W14109  17.722  30.600   0.489
47701W        W14110   8.808  16.267  12.854
47702W        W14111   0.513  32.388  10.675
47703W        W14112  21.030  22.996   0.308
47704W        W14113  21.748  18.129  11.692
47705W        W14114  28.740  21.711   3.193
47706W        W14115  27.575  17.249  11.091
47707W        W14116  44.137   9.206  13.819
47708W        W14117   2.617  44.457  11.227
47709W        W14118  18.120  29.143   1.433
47710W        W14119  15.106   0.778   2.699
47711W        W14120  18.567  27.951  14.058
47712W        W14121  16.308  15.699  13.532
47713W        W14122  43.297  23.285   3.627
47714W        W14123  28.833  10.195   4.919
47715W        W14124  13.253   7.304  14.314
47716W        W14125  27.231  15.956   1.876
47717W        W14126  10.525   5.636   2.142
47718W        W14127  37.838   5.360   2.409
47719W        W14128  12.035   1.624  12.629
47720W        W14129   4.134  12.680   1.807
47721W        W14130  32.260   2.744  13.958
47722W        W14131   8.464  15.283   3.248
47723W        W14132  39.571  20.866   3.675
47724W        W14133  19.087  32.940  13.901
47725W        W14134   0.046  12.195  14.297
47726W        W14135  25.120  14.504   1.183
47727W        W14136  11.845  33.991  14.829
47728W        W14137  42.724  41.843   4.779
47729W        W14138   5.453   2.185  13.448
47730W        W14139   8.409  10.732   1.395
47731W        W14140   2.231  28.781  11.820
47732W        W14141  36.822  27.556   0.407
47733W        W14142  10.252  17.316  11.997
47734W        W14143  16.839   8.380  12.869
47735W        W14144  37.885  17.138  11.635
47736W        W14145   1.197   7.290  14.400
47737W        W14146  26.007  38.334   4.160
47738W        W14147  23.814  28.501   1.660
47739W        W14148  35.865  41.835   0.377
47740W        W14149  43.518  11.041   2.235
47741W        W14150   2.999   3.400  13.584
47742W        W14151  39.477   6.318  12.499
47743W        W14152  43.253  21.866  14.796
47744W        W14153  41.891  40.332  14.453
47745W        W14154  26.872   0.826  12.768
47746W        W14155  25.479  29.400  14.896
47747W        W14156  16.559  16.583  14.402
47748W        W14157  29.156   1.962   2.611
47749W        W14158  42.514  15.044   0.354
47750W        W14159  29.710  44.968   3.137
47751W        W14160   1.516  11.246  14.961
47752W        W14161  11.967  34.412  14.473
47753W        W14162  26.884   0.210  11.831
47754W        W14163  41.979   7.795  13.808
47755W        W14164  34.801  34.770   4.773
47756W        W14165  35.479  13.113   3.244
47757W        W14166  20.706   7.835  10.728
47758W        W14167  19.521  43.086   4.536
47759W        W14168   8.480  39.444  14.461
47760W        W14169  39.936  40.863  14.737
47761W        W14170  20.485  32.302  12.480
47762W        W14171  10.709  19.994   2.150
47763W        W14172  31.373   7.031   2.806
47764W        W14173  19.775  26.260  11.474
47765W        W14174  26.951  11.056  14.774
47766W        W14175   3.444  22.149   1.425
47767W        W14176  21.009   8.709  13.090
47768W        W14177  14.137  37.966   1.824
47769W        W14178  20.053  16.586   4.571
47770W        W14179  19.786  26.383  10.984
47771W        W14180  11.394  10.201   2.674
47772W        W14181  15.767  15.034   0.931
47773W        W14182   8.553  27.854   4.492
47774W        W14183   1.779   4.766   2.232
47775W        W14184  35.319   3.180   1.564
47776W        W14185  42.624   6.973   9.902
47777W        W14186  30.527  36.162  13.536
47778W        W14187   7.764   2.533  12.003
47779W        W14188   4.721  20.180  12.361
47780W        W14189  16.171  33.879   1.269
47781W        W14190  31.722   6.452  12.576
47782W        W14191  37.323  38.383  13.354
47783W        W14192  21.954  40.428  13.495
47784W        W14193  27.158   0.745  13.792
47785W        W14194  22.765   2.589  11.174
47786W        W14195   3.729  18.880   0.199
47787W        W14196  25.750  33.269  11.881
47788W        W14197   3.530  23.292  10.303
47789W        W14198  29.185  44.898  12.535
47790W        W14199  30.560  28.836  14.885
47791W        W14200   4.727  14.110   4.819
47792W        W14201   1.174  23.219  11.656
47793W        W14202  14.228  25.631  10.745
47794W        W14203  30.042  26.022  11.570
47795W        W14204  15.070   1.381  10.589
47796W        W14205  28.970  40.976  14.924
47797W        W14206  40.899   1.503  11.094
47798W        W14207  35.464   3.270  14.559
47799W        W14208   5.468  28.026   2.664
47800W        W14209  40.975  12.134  10.743
47801W        W14210  36.576  26.386  12.706
47802W        W14211  19.328  20.083   4.150
47803W        W14212  27.942  38.876   3.144
47804W        W14213   6.235  23.193  12.109
47805W        W14214  26.132   1.428   3.944
47806W        W14215  10.884  12.054   4.598
47807W        W14216  13.551  28.924  11.113
47808W        W14217  36.367   1.357   4.109
47809W        W14218  21.749  34.563   2.234
47810W        W14219  24.589   9.721   4.479
47811W        W14220  34.626  26.645  12.422
47812W        W14221   5.168  20.074  14.819
47813W        W14222  18.349  41.097  13.019
47814W        W14223  28.860  32.252   4.626
47815W        W14224  16.102  24.194  13.333
47816W        W14225   1.663  28.358  11.537
47817W        W14226  41.100  24.165  11.886
47818W        W14227  25.964  32.804   1.378
47819W        W14228  38.901  31.004   0.664
47820W        W14229  28.343  13.217   1.918
47821W        W14230  39.846   4.910   4.306
47822W        W14231  29.571   1.940   1.366
47823W        W14232  21.656  40.165  12.462
47824W        W14233  23.450  11.812  14.958
47825W        W14234   8.276  43.947  11.325
47826W        W14235   8.478  23.738   1.933
47827W        W14236  15.361   3.549   0.256
47828W        W14237  34.204  16.144   4.182
47829W        W14238  14.871   0.822   4.565
47830W        W14239  22.829  17.869   1.888
47831W        W14240  25.929  40.716   3.237
47832W        W14241  16.755  12.471  13.838
47833W        W14242  44.618  34.343  11.624
47834W        W14243   1.292   9.378  11.066
47835W        W14244   8.859  38.363   4.563
47836W        W14245  41.755   0.633  12.978
47837W        W14246  25.109  18.350  11.936
47838W        W14247  26.893   0.919   2.894
47839W        W14248  35.076  33.638  13.498
47840W        W14249  38.239  35.347   1.290
47841W        W14250  29.534  25.535  14.794
47842W        W14251  27.069   3.561   4.074
47843W        W14252  32.751  39.739   3.835
47844W        W14253  16.051  32.195   4.161
47845W        W14254  19.611   9.874  10.744
47846W        W14255  12.812  35.376   3.996
47847W        W14256  10.194   5.411  12.902
47848W        W14257  27.746  20.302   4.798
47849W        W14258  35.990   9.757   4.166
47850W        W14259   3.249  30.526  12.064
47851W        W14260  15.378  15.177  11.973
47852W        W14261   7.043   0.833   4.484
47853W        W14262  37.823  32.493  10.648
47854W        W14263  33.179  29.472   3.966
47855W        W14264  12.844  38.132  13.290
47856W        W14265  33.148  37.512   1.699
47857W        W14266   6.186  20.340   3.706
47858W        W14267  40.992  16.064   4.753
47859W        W14268  32.340   5.270  13.096
47860W        W14269  34.033  35.434  12.433
47861W        W14270  43.142   1.235   3.947
47862W        W14271  24.473   7.155   4.374
47863W        W14272  33.192   5.182   9.817
47864W        W14273   4.535  39.794   4.432
47865W        W14274  21.441  18.306   2.110
47866W        W14275  41.924  13.516  12.416
47867W        W14276  24.196  29.898   3.241
47868W        W14277  21.409  30.150   3.235
47869W        W14278  16.625   2.946   2.790
47870W        W14279   4.916  11.427  12.404
47871W        W14280  32.979  34.596  13.471
47872W        W14281  29.193  39.342   2.261
47873W        W14282  44.612  18.956  13.393
47874W        W14283  36.366  15.854  13.673
47875W        W14284  14.503   3.374   2.239
47876W        W14285   9.685  31.203  13.890
47877W        W14286  17.276  35.101   3.727
47878W        W14287  19.186   9.813  11.663
47879W        W14288   5.700  22.704   2.385
47880W        W14289  28.022  40.467   1.263
47881W        W14290  10.777  26.165  14.417
47882W        W14291  13.686   0.001  12.395
47883W        W14292   6.306  13.801  11.612
47884W        W14293  27.510  19.837   0.557
47885W        W14294  13.852   4.128   2.626
47886W        W14295  35.091  24.005   0.789
47887W        W14296  40.550  16.526   0.423
47888W        W14297  12.046   5.424   3.149
47889W        W14298  11.325  22.404   4.602
47890W        W14299  25.008  35.600  12.037
47891W        W14300   2.968  28.501  11.150
47892W        W14301  25.133  10.242  14.832
47893W        W14302  24.457   9.570  12.514
47894W        W14303  18.366   2.796  11.233
47895W        W14304   8.741  14.883  12.873
47896W        W14305  22.605  35.098  12.061
47897W        W14306  16.254  38.066   3.356
47898W        W14307   4.541  24.077   3.733
47899W        W14308  28.708   9.433  11.592
47900W        W14309  38.546  37.937   1.800
47901W        W14310  28.607  16.426  11.115
47902W        W14311  35.666   4.048   3.655
47903W        W14312  34.978  11.387   2.284
47904W        W14313  18.726   2.025  12.474
47905W        W14314  14.749   3.649  11.972
47906W        W14315  22.751   3.338   1.658
47907W        W14316  26.709  22.026  13.821
47908W        W14317   8.216  20.056  10.850
47909W        W14318  38.352  36.955   1.208
47910W        W14319  29.072  23.439   0.278
47911W        W14320  15.272  33.957   0.789
47912W        W14321  26.006  38.725   3.847
47913W        W14322  14.897  27.566   0.025
47914W        W14323  30.403   2.720   3.600
47915W        W14324  44.782  31.643   3.097
47916W        W14325  44.098   3.233  14.548
47917W        W14326  28.737   4.867  11.420
47918W        W14327  29.115   4.832   0.392
47919W        W14328  31.130  36.573   3.346
47920W        W14329   3.247  20.517   1.727
47921W        W14330  43.189  42.176  10.950
47922W        W14331  25.959  17.757   3.229
47923W        W14332   9.813   0.336  11.865
47924W        W14333   5.884   5.150  13.456
47925W        W14334   7.197  17.717  12.045
47926W        W14335  21.232  36.278  13.334
47927W        W14336  41.256  38.515  14.334
47928W        W14337   2.402  17.152  12.127
47929W        W14338   5.807   6.132   4.143
47930W        W14339   9.545  11.701  13.202
47931W        W14340   6.948  33.042  11.169
47932W        W14341  39.587   9.484  12.531
47933W        W14342  13.000  27.031   4.772
47934W        W14343  35.039  28.793   2.479
47935W        W14344  32.001  41.018   2.315
47936W        W14345  41.914  29.419  11.656
47937W        W14346  44.438  19.725  14.318
47938W        W14347  44.900   1.415   2.821
47939W        W14348   4.518  23.875  14.276
47940W        W14349  10.701   5.158   2.194
47941W        W14350  34.165  15.407  13.845
47942W        W14351  44.357   7.273  11.433
47943W        W14352   0.683  17.050  11.518
47944W        W14353  40.853  17.024   4.476
47945W        W14354  22.400  40.298  12.143
47946W        W14355  10.555   1.411   3.027
47947W        W14356  22.603  37.489   4.182
47948W        W14357   5.761  10.761   3.145
47949W        W14358  23.753  35.740   1.236
47950W        W14359  40.117  30.743   9.846
47951W        W14360  34.337   4.872   0.350
47952W        W14361   1.466  26.037   3.845
47953W        W14362  36.025  11.050   4.598
47954W        W14363  20.420   0.549   0.279
47955W        W14364  34.998   9.106   0.963
47956W        W14365   8.655  17.534  11.610
47957W        W14366  15.615  40.817  12.358
47958W        W14367  29.308   5.304   1.133
47959W        W14368   6.327  33.957  11.415
47960W        W14369   8.006  33.883  12.164
47961W        W14370  23.020  10.776  13.116
47962W        W14371  34.849   0.413   4.898
47963W        W14372  34.357   6.435  10.097
47964W        W14373  12.274  31.104   5.047
47965W        W14374  41.303   7.782   2.892
47966W        W14375   3.773  29.776   0.842
47967W        W14376  33.779  40.579  13.056
47968W        W14377   0.871   7.100  13.962
47969W        W14378  31.457   7.254   0.840
47970W        W14379  25.236  32.480  10.431
47971W        W14380  27.950  13.855   4.281
47972W        W14381  40.725  19.232   1.775
47973W        W14382  21.180  10.553   3.193
47974W        W14383  34.865   0.523  11.011
47975W        W14384  20.442  38.320  10.653
47976W        W14385  12.605   7.430  10.682
47977W        W14386  35.985   1.803   0.202
47978W        W14387   8.300  35.791   0.867
47979W        W14388  21.212  23.361  12.924
47980W        W14389  17.208  26.406  13.496
47981W        W14390   8.989   2.860  11.388
47982W        W14391  16.306  31.427  14.440
47983W        W14392  33.111  11.507   0.033
47984W        W14393  16.166  44.258   3.486
47985W        W14394   4.314  15.241  13.338
47986W        W14395   0.960   7.160   4.929
47987W        W14396  37.357  20.252  12.301
47988W        W14397  16.831   4.497  10.428
47989W        W14398  15.048  11.254  14.333
47990W        W14399  10.344  12.725  13.089
47991W        W14400   2.799  19.594  12.423
47992W        W14401   6.336  34.404   2.313
47993W        W14402   9.762  21.939   2.690
47994W        W14403  22.627   7.888  12.258
47995W        W14404  24.092   3.941   3.623
47996W        W14405  13.276   7.758  12.371
47997W        W14406   7.785  11.655  11.546
47998W        W14407   4.442   8.110  12.552
47999W        W14408  10.196  24.196   5.076
48000W        W14409  40.929   3.613  13.691
48001W        W14410   5.237  34.906  10.790
48002W        W14411   1.374   4.263  12.593
48003W        W14412   9.940  34.126   1.133
48004W        W14413   0.955   5.829  14.259
48005W        W14414   3.491  30.446  12.922
48006W        W14415   9.743  34.644  10.246
48007W        W14416   0.412  23.207   0.291
48008W        W14417   9.741  32.808  11.609
48009W        W14418  39.673  42.826  14.825
48010W        W14419  25.920  26.083   0.336
48011W        W14420  14.309   4.407   1.061
48012W        W14421   0.729  11.316   0.315
48013W        W14422  43.281  22.779  14.262
48014W        W14423   7.739   8.068   4.790
48015W        W14424  21.448  40.135  12.939
48016W        W14425   7.259   7.924   0.713
48017W        W14426  12.309  30.287   0.468
48018W        W14427  13.771  44.153  11.114
48019W        W14428  39.426  44.886  10.626
48020W        W14429  20.198   5.139   3.189
48021W        W14430  20.134  39.178  14.231
48022W        W14431  39.302  22.413  10.785
48023W        W14432  30.649  34.015  12.398
48024W        W14433  36.094  43.958  11.185
48025W        W14434  29.195  40.643   4.038
48026W        W14435  25.989  28.193   4.217
48027W        W14436  40.558  17.723  14.055
48028W        W14437  13.288  36.355  11.032
48029W        W14438  12.282   4.670  12.384
48030W        W14439  16.906  21.287   0.773
48031W        W14440  23.069  30.024   2.840
48032W        W14441  14.244  39.636  10.443
48033W        W14442  38.116  10.560   1.876
48034W        W14443  28.974   1.446   2.337
48035W        W14444  39.311  13.084  10.546
48036W        W14445  16.489   4.068   1.384
48037W        W14446   2.367  28.188  12.218
48038W        W14447  10.121  31.040  13.423
48039W        W14448  11.194  22.983   2.353
48040W        W14449   6.694  32.992  12.121
48041W        W14450  31.156  21.136   3.192
48042W        W14451  27.556  37.906  13.671
48043W        W14452   1.967  16.542  13.857
48044W        W14453   8.491  26.603   0.326
48045W        W14454  21.106  21.179   2.133
48046W        W14455  38.329  34.198   2.746
48047W        W14456  40.030   4.283   3.135
48048W        W14457  17.340  32.825   1.861
48049W        W14458  27.762   1.786  11.714
48050W        W14459  15.835  37.760  13.291
48051W        W14460  42.608  40.461  14.101
48052W        W14461  26.492  29.058  10.481
48053W        W14462  37.056  19.478  13.943
48054W        W14463   7.848  14.658   1.795
48055W        W14464  38.385  41.405   0.901
48056W        W14465  15.801   0.731  10.931
48057W        W14466  10.429  35.643  11.939
48058W        W14467  29.065   3.002  11.669
48059W        W14468   9.180  36.497  12.012
48060W        W14469  14.729   8.557  12.863
48061W        W14470  14.865  28.968   2.898
48062W        W14471   0.789  19.637  13.467
48063W        W14472  42.722  35.343   0.517
48064W        W14473   5.687  26.693   0.910
48065W        W14474  20.557  23.487   4.018
48066W        W14475   0.433  37.307   1.387
48067W        W14476  21.991   8.130   2.574
48068W        W14477  30.338  34.579   0.310
48069W        W14478  11.291  41.714  12.042
48070W        W14479  12.889  17.272  12.800
48071W        W14480  22.633  22.119   3.403
48072W        W14481  19.560  23.522  13.954
48073W        W14482  24.176  33.579  11.818
48074W        W14483  40.781  21.609  13.126
48075W        W14484  39.941  40.620   0.652
48076W        W14485  33.866  35.415   1.971
48077W        W14486  13.020  13.426  11.280
48078W        W14487   4.864  28.044   3.868
48079W        W14488  16.344  35.149   3.417
48080W        W14489  15.087   9.440   4.075
48081W        W14490  14.062  21.045   3.193
48082W        W14491  32.701  17.590  14.804
48083W        W14492  28.111  23.771   0.270
48084W        W14493  36.318  29.391   2.977
48085W        W14494  31.835  42.338   3.182
48086W        W14495  39.803  17.879  14.143
48087W        W14496  13.240  40.393   0.696
48088W        W14497  21.765  15.552   2.814
48089W        W14498  41.464  16.506   1.228
48090W        W14499  12.291  40.994   4.459
48091W        W14500  39.913   3.281  10.031
48092W        W14501  26.431  41.141  14.884
48093W        W14502  39.293   7.112   4.190
48094W        W14503  19.082   3.227   2.509
48095W        W14504  37.296  13.620   0.036
48096W        W14505   5.856   1.047  10.457
48097W        W14506  29.031  32.650   4.306
48098W        W14507   2.485  13.678   0.118
48099W        W14508   4.392  17.857  12.923
48100W        W14509   6.841  28.170   5.007
48101W        W14510  22.552  12.883   3.139
48102W        W14511  30.044  44.219   4.195
48103W        W14512  38.295  25.221   4.529
48104W        W14513   0.780  15.002  10.754
48105W        W14514  20.120  38.348   3.752
48106W        W14515  29.211  42.384   0.704
48107W        W14516  37.561  41.243   4.556
48108W        W14517  41.265  10.579   0.783
48109W        W14518   9.648  25.996  14.409
48110W        W14519  28.777   2.155   1.841
48111W        W14520  44.259  11.667   0.878
48112W        W14521  25.612   7.285  11.939
48113W        W14522  42.762  34.317  13.602
48114W        W14523   7.718  40.854   0.723
48115W        W14524  14.278  15.386   3.260
48116W        W14525  31.402  41.023  10.690
48117W        W14526   7.222  20.547  14.315
48118W        W14527  19.582  38.195  11.153
48119W        W14528  37.607   9.327  12.460
48120W        W14529   3.548   4.891  10.490
48121W        W14530   0.919  38.271  11.932
48122W        W14531  42.344  27.005   2.740
48123W        W14532  38.545  44.326   0.369
48124W        W14533  37.978  21.261   4.232
48125W        W14534  36.082  19.649   0.371
48126W        W14535  26.981  36.105  10.339
48127W        W14536  12.529  33.298   0.249
48128W        W14537  16.354  12.101   3.928
48129W        W14538  28.342  42.942  13.483
48130W        W14539  29.915  23.271  11.477
48131W        W14540  29.912  36.910   3.687
48132W        W14541  10.777  37.356  13.836
48133W        W14542  12.250  41.548  13.390
48134W        W14543  27.485  30.760  10.488
48135W        W14544  21.827  19.038  12.807
48136W        W14545   2.476  28.494   0.769
48137W        W14546  13.249  34.553  10.776
48138W        W14547   2.455   3.159  12.840
48139W        W14548  34.016  40.117  13.083
48140W        W14549  41.894  14.749   4.455
48141W        W14550  15.387   5.885  11.513
48142W        W14551  34.503  39.803  11.887
48143W        W14552  19.782  30.963  11.205
48144W        W14553  18.489  39.790  12.808
48145W        W14554  23.965  24.570  13.360
48146W        W14555  15.208  10.259  11.809
48147W        W14556  18.269   2.309  14.507
48148W        W14557  22.904  29.425  12.155
48149W        W14558  12.608  30.769   3.629
48150W        W14559  11.438  26.484  14.000
48151W        W14560  12.830  38.075   2.847
48152W        W14561  29.175   5.036   4.186
48153W        W14562  44.472  35.327   0.723
48154W        W14563  35.138   5.515  14.821
48155W        W14564  37.468  26.416   1.458
48156W        W14565  16.730  34.640   1.262
48157W        W14566   1.264  30.415  13.075
48158W        W14567  28.876  34.874  11.514
48159W        W14568  33.937  41.890   4.578
48160W        W14569   2.931   0.528   2.239
48161W        W14570   9.970  29.303   3.523
48162W        W14571  16.207  36.347   2.329
48163W        W14572   9.238  15.531   3.726
48164W        W14573  20.811  37.924   1.329
48165W        W14574  13.259  36.420  13.167
48166W        W14575  24.077   1.066  11.414
48167W        W14576  21.037  40.495  13.029
48168W        W14577   2.292  13.777   2.605
48169W        W14578   9.169  37.339   4.305
48170W        W14579  36.016  43.943   2.174
48171W        W14580  39.421  11.033  11.605
48172W        W14581  43.681  20.515  10.619
48173W        W14582  18.031  41.050   4.904
48174W        W14583   3.201   6.819  12.522
48175W        W14584   9.638  28.659  10.480
48176W        W14585  23.646   1.314  14.479
48177W        W14586  39.524  32.546  10.673
48178W        W14587  44.878  15.205   3.384
48179W        W14588  37.375  44.301  13.637
48180W        W14589  24.234  37.149   0.009
48181W        W14590  38.601  43.843  14.938
48182W        W14591  19.857  44.404   3.647
48183W        W14592  14.093  32.075   4.149
48184W        W14593   7.711  29.031  14.684
48185W        W14594  39.630  43.642   3.410
48186W        W14595  14.925  19.570  14.261
48187W        W14596   4.800   0.931   1.437
48188W        W14597  43.635  26.909   3.154
48189W        W14598  19.300   1.945   1.349
48190W        W14599  19.594   5.237  13.187
48191W        W14600  33.274  26.629  11.667
48192W        W14601   7.469   6.846   0.928
48193W        W14602  32.937   2.652  14.317
48194W        W14603  42.313  18.028  12.462
48195W        W14604  36.899  39.252  13.485
48196W        W14605  36.715  16.620   5.198
48197W        W14606  30.746  37.928   3.729
48198W        W14607  24.429  21.108   2.214
48199W        W14608  44.950  15.209  12.870
48200W        W14609  28.565   4.854   0.512
48201W        W14610  32.565  24.311   1.338
48202W        W14611   5.976  22.654   1.773
48203W        W14612  40.935  38.975   2.641
48204W        W14613  29.931  18.201  11.989
48205W        W14614  15.344  17.526   3.500
48206W        W14615   3.505  11.177   1.134
48207W        W14616  30.657  44.649  12.439
48208W        W14617  40.123  44.265   5.068
48209W        W14618  33.746   4.711  11.642
48210W        W14619  16.604  18.232  11.044
48211W        W14620  27.791   8.234  12.854
48212W        W14621  42.997  41.230   0.782
48213W        W14622  32.288  42.863   0.913
48214W        W14623  22.058  43.126  11.518
48215W        W14624  20.813  24.862  11.224
48216W        W14625  10.584  20.608  14.794
48217W        W14626  40.967  12.411   2.328
48218W        W14627   7.020  32.126  14.920
48219W        W14628   0.775  42.961  13.994
48220W        W14629   0.813  12.217   1.180
48221W        W14630  21.496  17.125   2.204
48222W        W14631  24.171   9.836  13.848
48223W        W14632  29.593  37.577  12.258
48224W        W14633  12.112  40.941   0.857
48225W        W14634  21.320   1.507  10.798
48226W        W14635  42.061  41.025  14.747
48227W        W14636  24.102   4.616  12.129
48228W        W14637   0.338  28.721  13.129
48229W        W14638  31.519  41.374   4.394
48230W        W14639  21.726   8.825   2.125
48231W        W14640  42.270  23.537  12.014
48232W        W14641  38.986  15.901   0.233
48233W        W14642  40.077  39.576   4.262
48234W        W14643  36.275  20.287  13.816
48235W        W14644  11.315  33.913  14.849
48236W        W14645  20.806  27.049   3.699
48237W        W14646  29.922  15.501   4.238
48238W        W14647  19.307   6.390  13.865
48239W        W14648  19.950  41.930  12.534
48240W        W14649  29.538   8.686   3.658
48241W        W14650  36.556  14.314   0.952
48242W        W14651   2.486  10.373  11.174
48243W        W14652  29.197  36.369   2.224
48244W        W14653  35.265  28.661  13.718
48245W        W14654  37.639   1.210   3.692
48246W        W14655  34.394  36.682  13.908
48247W        W14656  38.108  43.573  13.051
48248W        W14657  26.480  30.004   2.441
48249W        W14658  30.671  40.461   0.858
48250W        W14659  36.824  18.642  14.243
48251W        W14660  24.029   6.029   1.814
48252W        W14661  11.409   3.884  12.910
48253W        W14662  21.968  10.489   0.986
48254W        W14663  35.950  28.992   3.013
48255W        W14664  15.337  33.512   4.895
48256W        W14665  20.762  14.792   4.599
48257W        W14666   0.286  12.626   1.813
48258W        W14667  14.112   1.869   2.386
48259W        W14668  31.600  24.938   2.824
48260W        W14669   0.741  38.034   0.460
48261W        W14670   1.921   9.279   0.033
48262W        W14671  27.775  28.731   0.424
48263W        W14672  17.739  13.317  10.758
48264W        W14673  43.345  38.997  13.419
48265W        W14674  36.122  43.330  11.585
48266W        W14675  21.306  15.684   3.112
48267W        W14676  44.469  36.316   4.123
48268W        W14677  14.180   4.967   3.399
48269W        W14678   6.710   6.845  13.842
48270W        W14679  41.995  20.210  12.585
48271W        W14680   3.713  21.176  11.222
48272W        W14681  22.651  34.861  10.749
48273W        W14682  36.034  13.723  12.585
48274W        W14683  29.253  29.067  13.788
48275W        W14684   1.260  28.178   3.782
48276W        W14685   3.172  19.039  14.330
48277W        W14686  30.234  31.753   2.771
48278W        W14687  32.953   1.774   2.877
48279W        W14688  16.874  29.545  12.656
48280W        W14689  36.602  25.414   1.742
48281W        W14690  38.853  14.050   4.084
48282W        W14691  39.681   3.072   4.139
48283W        W14692  13.258  32.908  14.858
48284W        W14693  32.881  40.889   1.350
48285W        W14694   8.191  35.903   1.833
48286W        W14695  27.837  13.399  12.242
48287W        W14696  39.526  11.622   3.737
48288W        W14697   0.971  20.231   4.899
48289W        W14698  20.951  38.646  11.022
48290W        W14699  35.725  30.896   2.251
48291W        W14700  11.268  29.048  12.518
48292W        W14701  24.478  38.603   1.700
48293W        W14702   9.469  23.289   2.807
48294W        W14703   0.956  25.068  14.904
48295W        W14704  23.977   0.306  12.891
48296W        W14705  19.524  21.062   3.703
48297W        W14706   6.702  43.382   4.174
48298W        W14707  26.086  37.890   3.895
48299W        W14708  44.433   4.551   0.791
48300W        W14709  24.693  14.198   5.037
48301W        W14710  17.203  26.967  12.593
48302W        W14711  21.673  21.690   4.625
48303W        W14712  26.642  43.992   0.162
48304W        W14713  31.365  26.118  12.519
48305W        W14714  22.698  24.734   3.641
48306W        W14715  27.499  15.614   3.143
48307W        W14716   9.143  13.147  14.924
48308W        W14717  19.242  18.069   0.056
48309W        W14718  20.660  32.480  13.765
48310W        W14719  15.350  21.317   1.086
48311W        W14720  28.380  23.688   3.292
48312W        W14721  17.347  20.501   4.888
48313W        W14722  34.011   0.805  14.532
48314W        W14723  17.529  23.065   4.103
48315W        W14724  43.043   9.458   4.028
48316W        W14725  18.195  30.427  14.747
48317W        W14726  40.931  37.386   3.605
48318W        W14727  36.017  24.758   1.175
48319W        W14728  43.887   2.239  11.396
48320W        W14729   9.949  39.892   2.421
48321W        W14730   9.142   3.944   2.702
48322W        W14731   4.801  31.485   1.707
48323W        W14732  38.945  15.405   0.424
48324W        W14733   4.583  11.244  13.885
48325W        W14734   0.131  26.258  11.287
48326W        W14735   7.397  40.349   1.156
48327W        W14736   1.957  34.666   2.107
48328W        W14737  33.308  19.782   0.819
48329W        W14738  22.864   1.308  13.843
48330W        W14739   2.489  33.633   0.256
48331W        W14740  42.113  27.607   3.121
48332W        W14741   9.564  24.992  11.597
48333W        W14742  39.783  38.336  12.638
48334W        W14743  14.300  44.344  11.231
48335W        W14744  29.471  27.079  12.011
48336W        W14745   4.355  19.338  14.131
48337W        W14746   6.156  44.378   2.850
48338W        W14747  26.140  36.879  12.047
48339W        W14748  31.018  26.022  14.028
48340W        W14749  15.149  41.320   2.448
48341W        W14750  43.900  41.846  13.574
48342W        W14751  32.807  38.930   4.212
48343W        W14752  35.416  37.378   4.267
48344W        W14753  37.443  34.184   2.575
48345W        W14754  21.136   3.625   2.190
48346W        W14755  26.513  13.858   3.980
48347W        W14756  26.538  34.163   4.571
48348W        W14757   5.195  25.972  14.071
48349W        W14758  16.283  36.072   4.146
48350W        W14759  10.106  16.162  14.844
48351W        W14760  42.843  28.539  11.271
48352W        W14761  18.553  39.375  11.873
48353W        W14762   6.806  17.707  10.616
48354W        W14763  39.805  43.521   1.420
48355W        W14764  28.103  12.688   1.895
48356W        W14765  26.412  12.133  11.480
48357W        W14766  16.767  40.610  12.111
48358W        W14767  10.280  10.359  11.816
48359W        W14768   8.755   4.188   1.398
48360W        W14769   6.225   5.959   2.143
48361W        W14770   1.999   9.398  12.973
48362W        W14771  33.414  13.594  11.207
48363W        W14772  26.098  18.177   2.945
48364W        W14773  36.550  26.327   5.048
48365W        W14774  31.317   9.313  12.201
48366W        W14775  25.626  12.493   3.038
48367W        W14776  29.084  37.565  10.944
48368W        W14777  19.705  37.975  11.603
48369W        W14778  17.582  32.342  11.431
48370W        W14779  44.763  36.509  10.852
48371W        W14780  39.511  37.864  12.882
48372W        W14781  23.023  32.911   1.028
48373W        W14782   9.224   4.035   1.230
48374W        W14783  40.364  14.452  13.039
48375W        W14784  31.385  38.686   4.384
48376W        W14785   6.887  44.500   4.518
48377W        W14786  33.892  29.390  11.018
48378W        W14787  22.789  17.110   0.897
48379W        W14788  30.155   1.833   1.852
48380W        W14789  26.273   7.694  12.619
48381W        W14790  41.810  30.437  13.412
48382W        W14791  10.441  41.279  13.818
48383W        W14792   7.882  33.455  11.914
48384W        W14793  41.696   9.813  12.691
48385W        W14794  34.594   3.764  11.114
48386W        W14795   1.195  42.165  10.660
48387W        W14796  15.552  43.444  12.794
48388W        W14797  21.578  44.382  14.064
48389W        W14798  24.751  40.386   2.765
48390W        W14799  18.641  38.893   3.749
48391W        W14800  21.506  12.336  14.556
48392W        W14801  44.319  10.137  13.433
48393W        W14802   2.294  44.256  10.880
48394W        W14803  43.901  43.780   2.819
48395W        W14804  34.898  38.995   2.776
48396W        W14805  41.995   7.609   2.221
48397W        W14806  15.335  29.561  13.497
48398W        W14807   6.172  15.075   4.124
48399W        W14808  25.486   8.811   1.871
48400W        W14809  10.272   5.849  12.053
48401W        W14810  33.396  12.295   5.050
48402W        W14811  22.522  29.514  13.042
48403W        W14812   4.798   2.542  11.108
48404W        W14813   8.126  25.294  12.818
48405W        W14814  14.618  37.545   2.295
48406W        W14815  12.876  26.338  10.423
48407W        W14816  35.765  28.481  13.826
48408W        W14817  42.369  32.908   1.745
48409W        W14818   7.420  34.808  11.441
48410W        W14819  36.251  11.415  13.477
48411W        W14820  24.111  10.578  11.136
48412W        W14821  18.811   9.441   3.228
48413W        W14822  24.409  23.835  11.158
48414W        W14823  22.579  13.932   2.205
48415W        W14824  39.258  34.045   4.243
48416W        W14825  19.498  21.127  14.162
48417W        W14826   2.643  35.780   1.735
48418W        W14827   0.224  36.933   0.507
48419W        W14828  42.404  24.446  14.429
48420W        W14829  38.119   3.989   2.202
48421W        W14830   0.309  21.624   1.790
48422W        W14831  25.963  31.496   4.672
48423W        W14832  18.681  29.957   4.149
48424W        W14833  42.795   3.985   3.833
48425W        W14834  33.615  27.900  11.644
48426W        W14835   6.644  43.963  14.312
48427W        W14836  14.973  35.747   1.852
48428W        W14837  16.713  23.005  13.638
48429W        W14838  31.217  28.942   0.350
48430W        W14839  27.118   2.170  13.908
48431W        W14840  10.276  33.878   1.872
48432W        W14841  18.509  22.729  14.124
48433W        W14842   2.140  19.482   4.191
48434W        W14843  18.414  10.990  11.614
48435W        W14844  14.704   6.134  14.519
48436W        W14845  10.220  44.427  11.598
48437W        W14846  22.912  38.141   3.913
48438W        W14847  39.927  19.756  13.360
48439W        W14848   1.023  17.823  11.520
48440W        W14849  42.253   8.624  11.422
48441W        W14850  41.825   1.854   1.910
48442W        W14851  17.347  21.056   9.843
48443W        W14852  29.176  41.998   2.807
48444W        W14853  28.078  34.914   2.675
48445W        W14854   6.208   6.922  13.763
48446W        W14855   8.336  36.065  10.541
48447W        W14856   3.889  35.822   2.841
48448W        W14857  32.620  14.523   0.902
48449W        W14858   7.194  39.537  12.062
48450W        W14859  18.783  26.871  11.495
48451W        W14860  23.787   9.433  11.123
48452W        W14861  13.528  33.593   5.609
48453W        W14862  36.987  36.952   2.604
48454W        W14863  32.798  35.055  14.544
48455W        W14864  35.459  19.010  11.919
48456W        W14865  26.930   3.455   4.579
48457W        W14866  36.553  29.878  13.541
48458W        W14867  37.111   0.237  10.667
48459W        W14868  16.830  24.272  12.054
48460W        W14869  28.247  24.323  11.129
48461W        W14870   5.182  43.812  12.809
48462W        W14871  27.518   1.557  12.937
48463W        W14872  27.457  44.613   3.749
48464W        W14873  43.276  19.873  11.609
48465W        W14874  29.622  25.684  12.555
48466W        W14875  32.945  20.629   2.890
48467W        W14876  24.564   3.490  13.389
48468W        W14877  20.083  26.069  12.929
48469W        W14878   3.518  21.229  12.540
48470W        W14879  14.243   2.903  11.467
48471W        W14880  30.805  23.084  11.395
48472W        W14881  13.989   3.193   2.260
48473W        W14882  26.552   0.175  13.176
48474W        W14883  15.654   5.823   1.934
48475W        W14884  19.791  14.348  14.313
48476W        W14885  42.343  37.161  14.744
48477W        W14886   3.529  27.292   1.315
48478W        W14887  28.002  14.496   3.741
48479W        W14888   7.919  44.681   9.998
48480W        W14889   8.903  36.948   5.034
48481W        W14890  10.600  20.975  12.511
48482W        W14891  25.618  31.970  11.506
48483W        W14892   0.907   7.844  14.355
48484W        W14893  16.959  21.538  14.541
48485W        W14894   2.608  26.973  10.534
48486W        W14895  23.006  15.646  10.704
48487W        W14896   4.002  19.535   3.681
48488W        W14897  42.859  12.856  13.989
48489W        W14898  28.687  42.264   2.882
48490W        W14899  30.193  10.359  11.465
48491W        W14900   0.326  26.529   9.931
48492W        W14901   6.795  42.972  13.275
48493W        W14902   9.159  28.047  14.483
48494W        W14903   7.195  10.322  14.994
48495W        W14904  40.013  43.430   0.924
48496W        W14905  25.946  18.541   1.256
48497W        W14906   6.032  34.395  10.646
48498W        W14907  40.033  17.501   1.822
48499W        W14908   3.048  14.309  11.284
48500W        W14909  34.120   6.140   4.812
48501W        W14910  21.214  36.023   1.338
48502W        W14911   2.011   9.159  10.657
48503W        W14912  39.802  11.068   4.647
48504W        W14913  37.050  29.744  14.483
48505W        W14914   2.064  25.784   4.244
48506W        W14915  22.492  27.513  14.938
48507W        W14916  15.526  13.119   3.382
48508W        W14917  19.344  15.819   1.444
48509W        W14918   0.484  44.742  13.588
48510W        W14919  10.766  28.914   0.036
48511W        W14920  41.145  34.557   0.471
48512W        W14921   0.299   3.485  11.625
48513W        W14922  42.312  34.051   3.690
48514W        W14923   2.790  25.782  14.574
48515W        W14924  28.656  14.218  14.685
48516W        W14925   1.603  23.826   3.988
48517W        W14926  17.868  23.433   2.236
48518W        W14927   9.108  35.720   0.066
48519W        W14928  12.616  27.011  12.951
48520W        W14929   0.820  13.173   3.638
48521W        W14930  27.899   6.700   4.011
48522W        W14931  14.358   0.034   3.659
48523W        W14932  13.300  44.662   0.344
48524W        W14933  40.912  23.550  10.585
48525W        W14934  21.919  37.505  12.011
48526W        W14935   6.757  36.601   0.530
48527W        W14936  30.279  41.473  12.039
48528W        W14937  28.229  17.729   0.268
48529W        W14938  36.930   1.771   3.759
48530W        W14939  37.169  16.408   4.976
48531W        W14940  20.264  25.623  11.028
48532W        W14941  32.875   4.611   5.030
48533W        W14942  44.863   0.140   4.068
48534W        W14943  22.133  42.249  14.007
48535W        W14944  42.067  22.063  13.352
48536W        W14945  25.942  16.797  12.161
48537W        W14946  23.059   0.198  12.702
48538W        W14947  13.668  22.355   3.610
48539W        W14948  32.956  10.369  11.218
48540W        W14949   2.674  10.264  12.984
48541W        W14950  17.669   2.487   4.314
48542W        W14951  29.012  16.411  12.558
48543W        W14952  25.564  21.187  10.254
48544W        W14953   0.848   4.110   3.713
48545W        W14954  30.369  27.605  12.836
48546W        W14955  19.603   8.618   1.704
48547W        W14956  24.381   9.144  10.294
48548W        W14957  15.337  33.434   3.354
48549W        W14958  29.356  38.579   2.875
48550W        W14959  42.228   0.831   3.234
48551W        W14960  34.106  18.246   2.200
48552W        W14961  42.512  42.497  14.356
48553W        W14962   0.459  43.729  12.452
48554W        W14963  39.466  44.428  13.871
48555W        W14964  28.011   3.380   4.148
48556W        W14965  34.486  10.990   0.624
48557W        W14966  14.327   9.020  10.282
48558W        W14967   0.379  25.196   0.311
48559W        W14968  38.296  31.784  13.705
48560W        W14969  18.382  37.273   4.042
48561W        W14970  11.959   7.341   3.554
48562W        W14971  26.366  17.102  12.274
48563W        W14972   9.272  38.464   0.821
48564W        W14973  11.639  39.056   3.684
48565W        W14974   4.774   6.481   4.232
48566W        W14975  43.231  20.199   1.997
48567W        W14976  40.580   9.224  10.498
48568W        W14977  41.750   2.469  13.849
48569W        W14978  36.645   6.757   0.446
48570W        W14979   0.592   8.779  12.066
48571W        W14980  17.080   8.830  11.091
48572W        W14981  30.466  33.991   2.374
48573W        W14982  25.016  30.545   2.308
48574W        W14983  35.704  42.269   2.862
48575W        W14984  35.922  20.546  14.101
48576W        W14985  32.384  41.740   4.209
48577W        W14986  40.057  26.457   2.175
48578W        W14987  26.437   5.648  12.482
48579W        W14988  29.151  35.929  14.080
48580W        W14989  43.729  34.068  13.286
48581W        W14990  44.778  32.367   0.347
48582W        W14991   1.461  41.597  12.066
48583W        W14992  21.746  18.685   2.839
48584W        W14993  41.931   8.398   1.862
48585W        W14994  20.145  39.284  10.437
48586W        W14995  17.164   5.292  10.095
48587W        W14996  39.833  22.208   1.227
48588W        W14997  26.373  16.804  13.075
48589W        W14998  10.266  33.514   4.404
48590W        W14999   9.217  15.075  14.794
48591W        W15000  44.407  34.022   0.546
48592W        W15001  22.269  27.509   2.683
48593W        W15002  26.121  20.609   0.631
48594W        W15003  34.609  15.735  12.359
48595W        W15004  21.309  28.651  13.711
48596W        W15005  10.865  21.997  11.586
48597W        W15006  34.545  33.087  12.963
48598W        W15007  21.144  44.096  11.277
48599W        W15008  12.325  10.325  11.673
48600W        W15009   4.025  32.059  11.613
48601W        W15010  27.313  20.734   2.237
48602W        W15011  25.796  38.212  13.945
48603W        W15012   2.868   3.282   5.127
48604W        W15013   1.069  43.211  12.642
48605W        W15014   9.755  18.279   3.805
48606W        W15015  15.797  28.035  12.988
48607W        W15016  37.095  16.134  11.755
48608W        W15017  38.928  21.884  14.765
48609W        W15018  24.735  31.703  11.180
48610W        W15019  18.302  43.016   1.216
48611W        W15020   0.974   4.416   1.283
48612W        W15021  20.704  26.552   3.845
48613W        W15022  19.296  31.039   1.178
48614W        W15023  21.116   3.944   3.084
48615W        W15024   7.740  24.906   9.922
48616W        W15025  27.619  33.038   2.367
48617W        W15026  11.236   2.229   0.757
48618W        W15027  38.356  39.983   0.780
48619W        W15028   4.860  39.234   0.854
48620W        W15029   1.161   9.206   1.819
48621W        W15030  14.243  27.590   2.791
48622W        W15031  30.903  22.254  11.159
48623W        W15032  19.403  32.026  13.812
48624W        W15033  22.959   3.765  13.881
48625W        W15034  44.752   9.920   1.228
48626W        W15035  20.608  27.604  11.657
48627W        W15036  41.354  13.606   2.824
48628W        W15037  44.423  38.904   4.390
48629W        W15038  33.620  12.993   0.201
48630W        W15039   1.250  33.544  14.368
48631W        W15040  44.408  12.241  14.895
48632W        W15041  38.236  41.604  10.865
48633W        W15042  24.769  33.048  12.894
48634W        W15043  16.514   3.003   5.103
48635W        W15044  18.221  10.188  11.685
48636W        W15045   1.258  26.601  10.485
48637W        W15046   8.019  23.461   1.911
48638W        W15047   6.094   5.391   1.444
48639W        W15048  17.530   8.677  14.777
48640W        W15049  13.272   1.337  13.052
48641W        W15050  29.033  24.692   1.786
48642W        W15051   7.445  19.768   3.831
48643W        W15052  40.016   7.789  13.965
48644W        W15053  37.023   8.414   3.740
48645W        W15054  20.019  26.551  14.612
48646W        W15055  29.916  24.215   3.489
48647W        W15056  13.309  41.611  10.368
48648W        W15057   7.696  13.773  13.018
48649W        W15058   2.960  42.795  14.005
48650W        W15059  43.174  39.115   3.670
48651W        W15060  40.834  13.563   4.073
48652W        W15061  10.331  38.962  13.086
48653W        W15062   6.719  38.050   1.736
48654W        W15063  37.029   6.114   3.701
48655W        W15064  24.942  22.742   4.105
48656W        W15065  38.338  32.441   2.425
48657W        W15066  38.497  18.609   3.484
48658W        W15067  12.960  34.288  10.018
48659W        W15068   0.728  20.043  11.194
48660W        W15069   4.976  28.121   4.638
48661W        W15070  22.613  29.731   2.773
48662W        W15071  31.209  26.287   1.913
48663W        W15072  33.095  18.175   4.897
48664W        W15073  34.946  37.486   0.596
48665W        W15074  24.057  37.585   4.693
48666W        W15075  44.119  13.810  12.019
48667W        W15076  26.619  11.413  12.011
48668W        W15077  31.381  37.437  10.610
48669W        W15078  39.922  27.399  11.098
48670W        W15079  36.377  14.136  12.567
48671W        W15080   1.163  28.622   2.654
48672W        W15081  36.439   3.477  10.314
48673W        W15082  27.739   4.114   1.241
48674W        W15083  44.740  28.077   2.339
48675W        W15084  37.402   1.521  13.802
48676W        W15085   2.508   1.276  14.756
48677W        W15086  24.069   6.796   2.772
48678W        W15087  34.405  33.213  11.873
48679W        W15088  18.545  11.304   2.314
48680W        W15089  16.247  20.398  12.754
48681W        W15090  31.641  32.634   0.655
48682W        W15091   8.606   0.849   4.630
48683W        W15092   7.667   2.303  11.566
48684W        W15093  10.622   3.069  11.660
48685W        W15094   5.786  32.876   4.205
48686W        W15095  13.671  14.429  12.509
48687W        W15096  23.667   4.735  12.408
48688W        W15097   4.385  20.573   4.661
48689W        W15098  15.784  34.708  12.599
48690W        W15099  30.070  22.977  14.674
48691W        W15100  33.851  39.928  10.548
48692W        W15101  15.357  12.004  13.208
48693W        W15102  27.239  28.140   4.525
48694W        W15103  22.692  16.596  12.886
48695W        W15104  28.419  33.803   3.720
48696W        W15105   5.857   3.614  13.445
48697W        W15106  14.243  25.022  14.335
48698W        W15107   9.704  42.547  10.960
48699W        W15108  25.075   0.776   0.471
48700W        W15109  13.561  34.104   4.219
48701W        W15110  13.079  39.448  13.615
48702W        W15111   0.321  28.003   4.603
48703W        W15112  31.411  44.249   1.144
48704W        W15113   8.826  29.189  14.335
48705W        W15114  30.629   6.265   2.701
48706W        W15115  11.208  38.449   0.724
48707W        W15116  37.884   5.228  12.499
48708W        W15117  32.692  24.790   1.124
48709W        W15118  39.115   1.662   4.143
48710W        W15119  35.586   2.948   4.881
48711W        W15120  44.083  13.299  12.995
48712W        W15121  24.468  13.808   2.182
48713W        W15122   4.453  43.725   3.242
48714W        W15123  29.088   0.193  10.289
48715W        W15124  10.740  23.514  11.607
48716W        W15125   5.881   2.679   2.797
48717W        W15126  38.390  11.922   3.137
48718W        W15127   3.157   5.422  14.026
48719W        W15128  41.164   5.607  12.907
48720W        W15129   8.336  34.008   0.309
48721W        W15130  32.567   5.210   1.120
48722W        W15131  36.873   6.844   2.082
48723W        W15132  19.641  26.388   1.492
48724W        W15133  16.837   3.238  12.419
48725W        W15134  21.662  15.332   3.310
48726W        W15135  32.607  10.243  14.904
48727W        W15136   7.862  25.807   4.111
48728W        W15137   2.836  29.215   2.348
48729W        W15138  34.904  38.858   0.819
48730W        W15139  26.196  20.962  14.375
48731W        W15140  31.150  16.131  10.744
48732W        W15141  25.184   6.143   2.317
48733W        W15142   6.941  41.470  13.417
48734W        W15143  12.831  35.067   1.871
48735W        W15144  19.859  37.347  12.207
48736W        W15145  37.306  23.470   2.743
48737W        W15146  39.545  13.026   3.770
48738W        W15147  12.686  34.466   2.204
48739W        W15148  29.994  16.651  11.597
48740W        W15149  27.292  11.698   3.754
48741W        W15150  21.867   3.765   5.054
48742W        W15151   5.789  21.126  14.499
48743W        W15152  39.326  12.773   4.466
48744W        W15153   2.780  28.471  13.841
48745W        W15154  44.128  11.270  12.154
48746W        W15155  22.120  32.933  13.077
48747W        W15156  11.805   5.464   1.227
48748W        W15157   1.156  25.707   1.361
48749W        W15158  17.166  30.023   3.832
48750W        W15159  44.328  26.168   2.990
48751W        W15160  43.794  10.931   3.295
48752W        W15161  27.206   7.658   3.601
48753W        W15162  36.109  26.146   1.352
48754W        W15163  14.237  39.756   2.316
48755W        W15164  28.077   7.682  14.413
48756W        W15165  11.768   2.497   3.554
48757W        W15166  25.090  44.369   4.362
48758W        W15167  41.821   8.666  11.701
48759W        W15168   5.390   3.770  14.049
48760W        W15169   4.715  28.465  13.287
48761W        W15170  33.740  33.306   3.227
48762W        W15171  24.028  11.163  13.316
48763W        W15172   4.650  42.266  11.979
48764W        W15173  42.734  25.136  11.624
48765W        W15174   9.261  37.220  11.573
48766W        W15175  31.884   1.224  11.177
48767W        W15176  19.546   3.192   3.528
48768W        W15177  36.561  34.277   3.943
48769W        W15178  13.935  11.914   0.746
48770W        W15179  16.789  27.921  11.652
48771W        W15180  13.736   0.642   1.632
48772W        W15181  30.905  32.171   0.483
48773W        W15182   2.982  14.205  12.640
48774W        W15183  22.048  26.555  10.935
48775W        W15184  23.918  38.370  12.107
48776W        W15185  43.718   5.646   2.252
48777W        W15186  22.829   3.391  14.227
48778W        W15187  43.902   0.209  12.897
48779W        W15188  39.253  26.344   0.431
48780W        W15189  37.980   8.962   1.679
48781W        W15190  12.846  35.150  11.126
48782W        W15191  36.157  43.886   3.750
48783W        W15192   8.354   7.135  13.867
48784W        W15193   9.407   6.979   1.236
48785W        W15194  22.073  26.023  12.692
48786W        W15195   8.694   2.742  12.370
48787W        W15196  35.013  42.273  14.407
48788W        W15197  34.882  14.702  11.233
48789W        W15198   1.080  15.021  10.327
48790W        W15199  38.548  11.931   4.635
48791W        W15200   4.438  20.763   3.719
48792W        W15201  22.238  43.285   2.720
48793W        W15202  40.796  31.632  13.179
48794W        W15203  33.242  44.338   3.717
48795W        W15204  22.237  15.308   2.630
48796W        W15205   1.587  18.846   1.707
48797W        W15206   3.135   6.754  11.522
48798W        W15207   6.164  27.686  10.802
48799W        W15208  19.418  14.965  12.515
48800W        W15209  43.606  10.218  13.934
48801W        W15210   2.027  23.503   3.133
48802W        W15211  23.760  42.050   4.427
48803W        W15212  37.088  15.807   0.759
48804W        W15213  35.166  20.196   1.237
48805W        W15214  44.869  17.044   2.804
48806W        W15215  32.351  19.648  13.564
48807W        W15216  15.264   0.037   1.965
48808W        W15217  44.202  22.750  14.435
48809W        W15218  20.233  42.403   4.180
48810W        W15219  26.203  28.426   1.380
48811W        W15220   8.264  31.684  11.560
48812W        W15221  35.170  26.659  11.634
48813W        W15222  16.176  38.033  11.631
48814W        W15223  43.977  13.072  13.447
48815W        W15224  21.004  21.517   2.967
48816W        W15225   7.820  41.045   0.253
48817W        W15226   4.883   2.008   0.050
48818W        W15227  12.571  35.475  10.296
48819W        W15228  28.128   7.768  12.337
48820W        W15229   9.901   4.378   0.376
48821W        W15230  25.267  32.007  11.142
48822W        W15231  44.857  31.940   1.240
48823W        W15232  20.283  22.626   4.538
48824W        W15233   6.631  11.730   2.615
48825W        W15234   4.926  27.228  10.747
48826W        W15235  22.698  18.571   3.096
48827W        W15236  34.111   9.457   3.272
48828W        W15237  13.130  12.353  11.658
48829W        W15238  42.348  31.539  11.986
48830W        W15239  40.893  27.895  14.817
48831W        W15240  14.630  32.454  13.894
48832W        W15241  21.111   5.459   3.354
48833W        W15242  30.853   4.480   1.846
48834W        W15243  11.540  18.866   2.368
48835W        W15244  34.808  23.377   0.159
48836W        W15245   6.419  14.287   3.757
48837W        W15246  15.813  28.473   0.479
48838W        W15247  23.799  12.915   4.970
48839W        W15248  17.709  42.116   0.308
48840W        W15249  42.747  24.920   1.214
48841W        W15250  36.459   0.115  14.685
48842W        W15251  16.879  13.319  10.371
48843W        W15252  10.812  42.021   0.483
48844W        W15253  20.164   0.495  10.525
48845W        W15254  17.771  32.823  11.502
48846W        W15255  36.265  19.019  11.919
48847W        W15256  35.965  28.063  14.568
48848W        W15257  11.284  21.120  10.613
48849W        W15258  37.513  15.013   5.073
48850W        W15259   2.638  37.544   2.703
48851W        W15260  26.486  16.791   1.781
48852W        W15261  31.093  41.639   4.868
48853W        W15262  21.636  13.739   0.663
48854W        W15263   6.844  32.569   3.570
48855W        W15264  24.289  32.210  12.802
48856W        W15265  14.685  27.570  13.464
48857W        W15266  15.322   9.234   3.656
48858W        W15267  38.962  37.298  13.739
48859W        W15268  22.618  10.848   0.194
48860W        W15269  37.350  11.859  13.908
48861W        W15270  31.174  21.110  13.887
48862W        W15271  42.511   3.343  12.057
48863W        W15272  20.961  29.057  13.575
48864W        W15273  39.405  28.759  13.446
48865W        W15274  40.362   3.538  14.906
48866W        W15275  25.512  12.145   1.298
48867W        W15276  26.472  12.317  14.094
48868W        W15277  24.727  35.567   0.188
48869W        W15278   8.787  21.492  13.498
48870W        W15279   4.435   4.951  12.078
48871W        W15280  13.461   7.891   2.727
48872W        W15281  24.285  23.653   0.362
48873W        W15282   0.680   7.385  14.346
48874W        W15283  22.742  33.785   2.482
48875W        W15284  26.473  26.642  12.373
48876W        W15285  28.809   9.513   3.179
48877W        W15286  17.038  37.996  14.413
48878W        W15287  28.090  33.608  12.350
48879W        W15288  18.161  33.329  13.429
48880W        W15289  23.646   5.211  12.638
48881W        W15290   7.859  41.916   1.827
48882W        W15291  17.027   6.991  13.509
48883W        W15292  18.956  41.812  10.572
48884W        W15293   6.063  13.775   0.253
48885W        W15294   7.474  19.608  11.100
48886W        W15295  36.999   9.931   1.343
48887W        W15296  22.754  11.859   4.848
48888W        W15297  17.243  42.415   2.755
48889W        W15298   0.818   8.961  13.384
48890W        W15299   8.659  12.284  12.934
48891W        W15300  41.842  33.126   0.544
48892W        W15301  40.358   5.741   3.692
48893W        W15302  22.094  34.143  14.961
48894W        W15303  12.902   3.822  10.137
48895W        W15304   9.445   5.820  14.442
48896W        W15305   7.375  18.104  14.998
48897W        W15306  33.173  12.553  13.378
48898W        W15307  37.632  13.128  13.840
48899W        W15308  23.694  26.055  13.465
48900W        W15309  37.455  23.526  14.239
48901W        W15310  27.019   1.844   1.917
48902W        W15311  22.766  35.411   2.782
48903W        W15312   7.728  19.163  14.152
48904W        W15313  22.259  40.930  10.932
48905W        W15314   4.641  37.419   3.132
48906W        W15315  44.784  24.106   0.460
48907W        W15316   2.685   6.876  12.589
48908W        W15317  16.029  30.751   4.897
48909W        W15318   3.672   5.086  14.869
48910W        W15319  13.133  20.721  10.724
48911W        W15320  28.175  18.061  13.518
48912W        W15321  38.172  29.187   3.800
48913W        W15322  31.644  31.662  10.817
48914W        W15323  12.371  16.294  13.910
48915W        W15324  16.238   1.077  12.937
48916W        W15325  31.584  21.260  11.441
48917W        W15326   2.773  32.662  12.598
48918W        W15327   5.954  39.752  11.168
48919W        W15328  16.631  20.276  13.074
48920W        W15329   1.957  36.838   3.172
48921W        W15330  28.577  34.295  12.550
48922W        W15331  36.030  32.853  12.487
48923W        W15332   6.641  35.969   3.625
48924W        W15333  26.210  18.548  14.373
48925W        W15334  19.146  34.244  14.874
48926W        W15335  40.387  14.882  14.737
48927W        W15336   9.870   9.304   0.947
48928W        W15337  29.924  11.195   1.771
48929W        W15338  28.181  35.217   4.010
48930W        W15339  13.899   9.293   3.325
48931W        W15340  41.474  22.113  14.834
48932W        W15341  16.775  16.262  13.978
48933W        W15342  10.761  16.548  10.903
48934W        W15343  25.008  40.101   1.941
48935W        W15344  15.791   9.708  12.820
48936W        W15345  11.567   2.428   0.410
48937W        W15346  18.007  34.483  10.637
48938W        W15347  30.662  14.906   4.711
48939W        W15348  27.867   2.796  11.820
48940W        W15349   4.381  36.082   2.263
48941W        W15350  32.551  16.120  14.936
48942W        W15351   9.236  41.724   1.508
48943W        W15352  23.691   5.685  12.413
48944W        W15353  26.120  23.977  11.995
48945W        W15354  34.458  23.217  12.993
48946W        W15355   9.595  19.263   1.448
48947W        W15356  36.351   6.878   1.912
48948W        W15357  28.966   0.561  11.205
48949W        W15358  36.454  11.384   3.438
48950W        W15359  44.362  16.836   1.781
48951W        W15360   9.706   9.324   3.603
48952W        W15361  23.283  44.469   1.755
48953W        W15362  15.183  41.021  13.388
48954W        W15363  33.475  13.607  10.685
48955W        W15364  36.593  37.105  11.662
48956W        W15365  17.015  41.975  12.288
48957W        W15366  30.343  27.068   0.422
48958W        W15367  41.844   7.653   1.315
48959W        W15368  19.932  26.203  11.975
48960W        W15369  27.653  28.115  14.511
48961W        W15370  13.138  40.618   0.257
48962W        W15371   4.468  34.938   2.234
48963W        W15372  37.091   4.653   1.781
48964W        W15373  35.588  24.941  12.199
48965W        W15374  19.206  34.950   4.690
48966W        W15375  44.189  35.459   3.731
48967W        W15376  27.979   5.007   2.835
48968W        W15377   9.189  13.203  12.430
48969W        W15378  12.056  34.124   1.675
48970W        W15379   7.360   7.179   4.508
48971W        W15380  18.442   2.705   2.726
48972W        W15381  22.785  30.593  13.548
48973W        W15382  29.950  16.246  10.756
48974W        W15383   3.213  36.330   5.101
48975W        W15384  16.199  17.883  10.443
48976W        W15385  37.629  14.089  12.005
48977W        W15386   1.709  12.942  12.531
48978W        W15387  35.454   3.275  11.747
48979W        W15388  37.866  44.626  10.225
48980W        W15389  37.092   3.912   4.459
48981W        W15390  30.935   9.308   2.863
48982W        W15391  16.763   0.846   2.960
48983W        W15392  43.514  31.108   1.670
48984W        W15393   3.734  27.114   3.743
48985W        W15394   8.290   5.564   1.336
48986W        W15395   9.118  23.654  12.907
48987W        W15396  42.261  30.051   3.098
48988W        W15397  17.750  19.254   4.154
48989W        W15398  21.993   4.224   2.389
48990W        W15399   1.763   4.269   1.118
48991W        W15400  31.752   0.678   5.035
48992W        W15401  31.125   3.883   0.865
48993W        W15402  17.352  11.603   3.205
48994W        W15403   6.553  42.893   4.097
48995W        W15404   1.410   3.764  11.964
48996W        W15405  36.683  28.944   0.787
48997W        W15406  25.494  17.831  10.613
48998W        W15407  41.063  31.454  13.586
48999W        W15408  29.225  24.552  12.028
49000W        W15409   2.691   9.591   0.441
49001W        W15410  15.731  14.872  11.700
49002W        W15411  20.653  26.241  10.027
49003W        W15412  19.819   9.462   3.180
49004W        W15413  18.176  30.005   3.945
49005W        W15414  22.511   2.468   0.522
49006W        W15415  31.047  36.049   3.409
49007W        W15416  26.697  10.751   1.644
49008W        W15417  24.695   0.969  13.459
49009W        W15418  27.110  38.566  14.564
49010W        W15419  35.866  21.562  10.995
49011W        W15420  17.055  18.647   1.871
49012W        W15421  33.346  25.382   0.866
49013W        W15422  10.815  34.410   2.766
49014W        W15423  36.580  10.547  12.489
49015W        W15424   5.798  14.183   4.560
49016W        W15425  25.956  42.874   0.951
49017W        W15426  44.760  17.033   1.471
49018W        W15427  43.509  30.120   2.475
49019W        W15428  37.553  31.515  11.612
49020W        W15429   7.358   8.626   4.122
49021W        W15430  31.148   3.231  14.309
49022W        W15431  33.940   2.852  11.945
49023W        W15432  34.210  14.033  13.438
49024W        W15433  44.255   1.730  12.054
49025W        W15434  27.711  27.677   4.222
49026W        W15435  14.811  29.475  10.500
49027W        W15436  26.947   1.850   2.869
49028W        W15437   1.289  10.635  11.558
49029W        W15438  19.604  17.781  10.810
49030W        W15439  36.142  20.913  10.591
49031W        W15440  22.278  33.855  11.182
49032W        W15441  24.812  37.957   2.876
49033W        W15442  44.842   8.836  12.581
49034W        W15443  27.686  32.867   4.118
49035W        W15444   3.240  36.141  14.309
49036W        W15445  16.140  31.063   1.904
49037W        W15446   3.405  10.289   1.225
49038W        W15447  38.164  44.120   3.582
49039W        W15448  40.721  40.584   1.656
49040W        W15449  26.372  39.414  12.997
49041W        W15450  13.273  39.442  13.126
49042W        W15451   7.801  35.631   0.213
49043W        W15452  27.488  38.251  14.371
49044W        W15453  35.376  21.127  14.287
49045W        W15454   3.145  26.070  11.013
49046W        W15455  20.811   9.156   1.036
49047W        W15456  22.754  13.518  14.932
49048W        W15457  16.564   2.609   1.944
49049W        W15458  35.437  44.856   1.729
49050W        W15459  30.165  20.661   2.370
49051W        W15460  25.345   3.261   1.469
49052W        W15461  14.318   6.391  13.157
49053W        W15462  19.198   4.489   1.922
49054W        W15463  15.132  34.008  12.925
49055W        W15464  21.712  10.310   3.713
49056W        W15465   4.893  23.112   0.337
49057W        W15466   2.828  37.979   2.945
49058W        W15467   0.497  42.739   2.809
49059W        W15468   7.931   2.032  13.189
49060W        W15469  17.297  20.655  13.439
49061W        W15470  22.936  38.669   2.246
49062W        W15471  22.124   3.097   1.521
49063W        W15472  18.142   9.210   4.144
49064W        W15473  18.038  16.269   1.714
49065W        W15474  26.375  31.132  13.393
49066W        W15475  40.270  21.054   1.836
49067W        W15476  22.487  29.974  14.874
49068W        W15477   2.200  14.743   2.676
49069W        W15478  10.211  25.026   2.176
49070W        W15479  17.354   5.799   1.271
49071W        W15480   3.501   4.317   2.318
49072W        W15481  21.519  42.574  11.156
49073W        W15482  15.731  37.982  11.885
49074W        W15483  39.251  16.209   1.020
49075W        W15484   2.530  23.920   5.036
49076W        W15485  36.478  11.612   2.972
49077W        W15486  17.635  17.037  11.108
49078W        W15487  18.754   6.979   3.198
49079W        W15488  28.086  43.376   4.156
49080W        W15489  15.326  36.582   2.721
49081W        W15490  23.152  39.337  14.167
49082W        W15491  27.219  43.925  13.020
49083W        W15492  34.867  12.803   0.438
49084W        W15493  15.762  11.595  11.183
49085W        W15494  20.545  36.640   1.781
49086W        W15495  27.611  39.353   4.126
49087W        W15496  29.880  22.157   1.438
49088W        W15497  22.490  18.193  12.153
49089W        W15498  12.702  30.234  12.553
49090W        W15499   1.298   7.431   2.268
49091W        W15500  25.015  17.819  13.832
49092W        W15501  24.116   5.947  12.152
49093W        W15502  18.302  39.616  10.056
49094W        W15503   0.933  30.062  11.075
49095W        W15504   9.703  33.095   2.329
49096W        W15505  43.203  18.679   3.135
49097W        W15506  18.318  12.274   3.735
49098W        W15507   8.355  28.299  14.986
49099W        W15508   2.988   9.321  10.802
49100W        W15509  19.787   0.861  14.495
49101W        W15510   6.306  29.617   4.464
49102W        W15511  15.921  23.867   4.120
49103W        W15512  21.317  37.265  13.416
49104W        W15513  42.536  28.988   1.825
49105W        W15514  29.369   0.681  12.078
49106W        W15515   9.607  34.989   4.946
49107W        W15516  36.787  39.711   4.162
49108W        W15517   2.802  11.074  13.248
49109W        W15518  32.902  22.678   3.485
49110W        W15519  37.019  43.991  12.908
49111W        W15520   9.853  30.573   4.296
49112W        W15521   4.324   8.264  13.440
49113W        W15522  11.568  13.706   0.761
49114W        W15523  21.847   7.273  11.048
49115W        W15524  11.291  19.311   3.248
49116W        W15525  41.885  19.616   2.482
49117W        W15526   8.383  12.142   2.552
49118W        W15527   8.222  29.041  14.571
49119W        W15528  28.113  35.579   1.909
49120W        W15529  36.032  38.504   1.206
49121W        W15530  28.712   6.741  14.499
49122W        W15531  37.338  15.863   2.720
49123W        W15532  11.211   5.898  14.849
49124W        W15533  33.490  14.249   3.081
49125W        W15534  38.309  42.442   2.278
49126W        W15535  14.391   4.018   1.422
49127W        W15536  11.142  26.176  12.171
49128W        W15537  41.427  41.034  13.331
49129W        W15538  36.194  31.108   1.378
49130W        W15539  36.994   6.263  11.156
49131W        W15540   4.195  16.074   0.443
49132W        W15541   2.352  24.739  11.982
49133W        W15542  29.543   5.807  14.422
49134W        W15543  32.362  30.419   0.434
49135W        W15544  43.462  38.036  11.524
49136W        W15545  38.761  15.919   4.782
49137W        W15546  33.523  38.002  10.667
49138W        W15547  37.518  44.406  14.485
49139W        W15548   9.635  18.587   1.957
49140W        W15549  20.736  17.043  11.890
49141W        W15550   6.123  43.817  10.860
49142W        W15551   0.385   1.932   0.452
49143W        W15552  32.715   8.746  14.896
49144W        W15553  39.320  44.895   3.783
49145W        W15554  35.048  32.412  14.422
49146W        W15555   7.725  33.083   1.943
49147W        W15556  20.431   8.912  12.156
49148W        W15557   0.705  13.080   2.557
49149W        W15558  44.945  40.669   2.265
49150W        W15559  15.002  22.554  11.663
49151W        W15560  40.155  39.040  12.899
49152W        W15561   9.456  37.959  12.010
49153W        W15562  17.488  21.340   2.077
49154W        W15563  38.069  20.916  10.553
49155W        W15564  26.018   3.413   2.720
49156W        W15565  42.187  33.787   3.237
49157W        W15566  27.597  11.904  10.894
49158W        W15567   2.140   1.908   3.244
49159W        W15568  38.273  42.810  12.841
49160W        W15569  25.731  42.839  12.959
49161W        W15570  43.744  27.100   0.821
49162W        W15571  44.410  24.316  14.280
49163W        W15572   1.300  37.978   0.327
49164W        W15573   7.862  21.611  13.345
49165W        W15574  15.041  27.023  13.844
49166W        W15575  38.843  25.000  11.370
49167W        W15576  32.083  38.431  12.781
49168W        W15577  13.930  38.939   4.741
49169W        W15578  39.487  43.494   0.985
49170W        W15579  28.510  41.635   0.387
49171W        W15580  16.637  38.972   1.917
49172W        W15581  40.906  28.351   1.854
49173W        W15582  39.809  12.758   1.337
49174W        W15583  27.406  35.050   3.889
49175W        W15584  17.072   9.973   2.108
49176W        W15585   0.651  40.431  12.489
49177W        W15586   0.649  17.528  11.275
49178W        W15587   8.635  27.751   2.821
49179W        W15588  16.630   1.544   0.250
49180W        W15589  29.024  36.622  12.896
49181W        W15590  31.631   6.660  10.458
49182W        W15591  40.359  27.642   1.666
49183W        W15592  18.182   1.415   4.612
49184W        W15593  44.906  22.236   2.324
49185W        W15594  40.611  44.827   2.502
49186W        W15595   1.634   3.096   4.116
49187W        W15596  44.939  43.096   1.270
49188W        W15597  35.818  37.574   1.127
49189W        W15598  21.114  20.215  14.906
49190W        W15599  14.571  36.958  13.090
49191W        W15600  24.949  15.737  12.950
49192W        W15601  19.511  12.539   2.297
49193W        W15602  13.574  16.097   0.821
49194W        W15603  24.802  26.182  12.314
49195W        W15604  26.267  42.809   5.088
49196W        W15605  21.007  18.662   0.336
49197W        W15606  21.061  42.714   4.461
49198W        W15607  23.044  28.212  11.499
49199W        W15608  19.100   7.723  14.436
49200W        W15609  32.126  17.990   0.388
49201W        W15610  28.861   5.430  14.898
49202W        W15611  23.561  14.572  13.735
49203W        W15612  13.358  30.772   2.613
49204W        W15613  26.570  19.335  11.181
49205W        W15614  18.814  32.596   0.241
49206W        W15615   6.414  18.681   3.254
49207W        W15616  13.273  37.578   1.503
49208W        W15617   6.423   7.917   0.478
49209W        W15618  14.768   9.104   4.299
49210W        W15619  31.556  37.485   1.953
49211W        W15620   9.213  31.787   5.002
49212W        W15621  13.103  26.522   0.457
49213W        W15622  40.808  22.735  11.543
49214W        W15623   0.747  27.062  14.371
49215W        W15624   6.957  15.097   4.604
49216W        W15625   9.605  24.623  14.022
49217W        W15626  21.776  13.711  14.705
49218W        W15627  15.246  44.992  10.871
49219W        W15628  34.076  22.376   1.227
49220W        W15629  14.838   1.426   0.706
49221W        W15630  28.200  27.054   3.846
49222W        W15631  27.531  21.595   2.742
49223W        W15632   2.711  19.627  10.722
49224W        W15633  28.482  29.440  10.176
49225W        W15634   4.319  12.302   4.633
49226W        W15635  22.981  19.008   0.442
49227W        W15636  39.790  40.359   3.341
49228W        W15637  38.030  23.122   2.424
49229W        W15638  10.800  27.501   4.442
49230W        W15639  14.782  30.188  13.762
49231W        W15640  36.934  44.327   2.498
49232W        W15641  14.790  34.964  11.681
49233W        W15642  43.357  22.359   1.486
49234W        W15643  27.119  11.668   3.245
49235W        W15644  28.067  37.668  14.960
49236W        W15645   4.113  22.590  10.389
49237W        W15646   4.281  31.512  13.384
49238W        W15647   6.758  41.550   4.240
49239W        W15648  38.445  10.964  14.058
49240W        W15649  17.075  34.676   4.129
49241W        W15650  37.667  30.535   2.408
49242W        W15651  27.333  21.651  11.412
49243W        W15652  43.282  10.250   1.645
49244W        W15653   8.892  35.184  11.590
49245W        W15654   3.453  33.568   4.007
49246W        W15655  27.145  18.338  11.547
49247W        W15656   9.672  31.018  14.884
49248W        W15657  25.651  20.717   3.813
49249W        W15658  35.894  31.832   0.737
49250W        W15659  22.116   3.009  11.624
49251W        W15660  33.887  38.317   3.226
49252W        W15661  17.745   2.033  13.973
49253W        W15662  29.311  14.286   2.295
49254W        W15663  33.506  16.597  11.416
49255W        W15664  27.690   4.951   2.154
49256W        W15665  26.557  12.429  11.873
49257W        W15666  14.788  13.207   0.535
49258W        W15667  22.755  16.762   1.302
49259W        W15668  25.631  33.419  14.715
49260W        W15669  29.975  13.443   0.498
49261W        W15670  12.969  18.631   3.913
49262W        W15671  20.349  29.806  13.510
49263W        W15672  27.304  10.424   0.483
49264W        W15673  28.107  16.676   2.181
49265W        W15674   5.232  40.548  13.805
49266W        W15675  22.671   4.201  13.943
49267W        W15676  16.338  16.558   2.387
49268W        W15677  37.038  13.199  11.921
49269W        W15678  34.152  34.162   2.275
49270W        W15679  14.562  18.451  13.346
49271W        W15680  33.293  28.180  10.679
49272W        W15681  15.614   0.394  13.306
49273W        W15682  27.760  24.156  11.189
49274W        W15683   6.942  31.184   4.054
49275W        W15684  32.882  25.150  14.366
49276W        W15685  27.636  40.270  13.995
49277W        W15686   0.308  24.198   0.384
49278W        W15687  10.617  11.058   4.958
49279W        W15688  14.662  40.537  11.196
49280W        W15689  27.180  33.041  12.891
49281W        W15690   6.704  26.774  11.999
49282W        W15691   1.289  25.269  13.986
49283W        W15692  36.789  28.272   4.556
49284W        W15693  40.077  23.981  12.412
49285W        W15694  43.415  20.856  11.369
49286W        W15695  39.113  15.112  11.004
49287W        W15696  41.338  35.580  11.227
49288W        W15697  43.528  11.654  12.910
49289W        W15698  29.992   1.885  10.407
49290W        W15699  43.658  18.298  13.550
49291W        W15700   6.292  24.543  13.439
49292W        W15701   1.082   3.862   2.757
49293W        W15702  31.988  40.385   1.453
49294W        W15703  37.459   6.977   0.942
49295W        W15704  28.587   8.901  13.054
49296W        W15705  13.346  33.885   2.737
49297W        W15706  41.833  15.912   2.907
49298W        W15707  28.179   6.396  12.809
49299W        W15708  28.114  23.609  10.661
49300W        W15709  40.760  38.360   0.100
49301W        W15710  32.410  12.110   0.282
49302W        W15711  12.065  10.286   4.131
49303W        W15712   3.007  20.731  14.957
49304W        W15713  43.799   7.155   0.361
49305W        W15714  20.721  38.538   2.258
49306W        W15715  30.752   7.176  11.986
49307W        W15716  14.836  27.310  11.212
49308W        W15717  15.634  40.762   3.343
49309W        W15718  28.447  32.499  12.932
49310W        W15719  40.587  20.970  13.390
49311W        W15720   8.152  14.072  12.533
49312W        W15721  28.213  31.026   3.034
49313W        W15722   2.480  16.028   4.864
49314W        W15723  10.214  21.319  10.007
49315W        W15724  15.854  17.847  13.356
49316W        W15725  17.052  36.757   0.493
49317W        W15726  19.622  23.454   0.311
49318W        W15727  17.103  17.911  13.638
49319W        W15728   6.713   7.717  12.901
49320W        W15729   5.956  33.370   4.105
49321W        W15730  37.074   1.185   2.308
49322W        W15731  35.478  15.242  11.167
49323W        W15732  34.938  23.236  12.440
49324W        W15733   3.976  44.042   0.015
49325W        W15734   3.933  11.450   2.637
49326W        W15735  40.998  17.215  14.836
49327W        W15736  12.611  18.681  11.982
49328W        W15737  10.773  40.513   4.480
49329W        W15738  39.309  36.162  11.229
49330W        W15739  17.784  15.502  12.093
49331W        W15740  17.779  18.340   4.546
49332W        W15741   1.407  23.715   4.455
49333W        W15742  40.859  39.371  11.477
49334W        W15743  18.466  17.649   1.450
49335W        W15744  26.679  34.077   2.517
49336W        W15745  37.836  12.399  12.048
49337W        W15746  38.983  24.474  11.051
49338W        W15747   9.128  30.065   0.457
49339W        W15748   4.821  10.060  13.443
49340W        W15749  41.999  12.519   0.847
49341W        W15750  11.725  31.854   1.169
49342W        W15751  13.413  32.803   1.971
49343W        W15752  11.400   7.771   1.266
49344W        W15753  12.806  38.943  14.808
49345W        W15754  22.769  32.438   1.771
49346W        W15755   0.448  15.867  13.321
49347W        W15756  37.052  44.688   4.355
49348W        W15757   1.839   0.322   4.520
49349W        W15758  20.358  37.529  11.155
49350W        W15759   4.150  20.775  14.314
49351W        W15760   2.517  31.609   2.961
49352W        W15761  30.173  42.300   2.660
49353W        W15762   5.366  21.811  10.851
49354W        W15763  27.812  19.563   2.324
49355W        W15764  43.501  29.621  14.196
49356W        W15765   0.712  36.877   0.241
49357W        W15766  25.907  15.041   3.915
49358W        W15767  32.093  18.345  13.473
49359W        W15768  40.508   5.411   0.936
49360W        W15769  42.351   5.974   0.768
49361W        W15770  15.718  25.122   4.507
49362W        W15771  13.237   2.664   1.446
49363W        W15772  32.556  11.176   2.302
49364W        W15773  26.291  34.556   2.301
49365W        W15774  28.963  22.135  11.505
49366W        W15775  10.103  37.090   4.642
49367W        W15776   7.911  22.267  14.963
49368W        W15777  30.730   1.075  13.759
49369W        W15778  15.834  42.842  11.524
49370W        W15779  22.013  33.605  11.552
49371W        W15780  41.932  35.345   1.216
49372W        W15781   6.308  43.203   3.439
49373W        W15782  14.588  25.415  13.897
49374W        W15783  33.315   0.565  12.037
49375W        W15784  38.142  31.582  11.602
49376W        W15785   9.598  20.204  12.817
49377W        W15786  32.317  36.283  13.966
49378W        W15787  43.434  34.011  12.294
49379W        W15788  27.063  16.756  10.699
49380W        W15789   5.353   4.970   3.602
49381W        W15790  44.319  32.220   5.047
49382W        W15791  33.164  15.836   1.398
49383W        W15792  24.660  42.555  12.008
49384W        W15793  30.601  12.312   3.252
49385W        W15794  17.593  25.766   1.749
49386W        W15795  28.610  25.271  13.534
49387W        W15796   7.114  16.560  12.108
49388W        W15797  44.968  44.008  10.629
49389W        W15798  17.324  22.150   3.135
49390W        W15799  15.064  32.558   0.831
49391W        W15800  33.874   3.398  12.556
49392W        W15801  25.285  18.287  12.583
49393W        W15802  24.616  29.455  10.759
49394W        W15803  41.862  34.577   3.146
49395W        W15804   2.697  33.623  12.100
49396W        W15805  26.266  15.917  12.567
49397W        W15806   4.781  11.149  11.647
49398W        W15807  39.543  10.588   2.192
49399W        W15808  38.560  41.480   0.384
49400W        W15809  36.527   3.931   1.772
49401W        W15810  20.551  40.517  12.871
49402W        W15811  19.697  10.384  10.678
49403W        W15812  32.864  27.131  12.615
49404W        W15813   3.397  43.407  13.098
49405W        W15814   4.463  21.199   0.399
49406W        W15815  28.754  35.633  11.205
49407W        W15816  39.359  30.977  13.506
49408W        W15817  36.528  16.802   2.704
49409W        W15818  17.532  25.415   2.756
49410W        W15819   9.722  14.202   3.859
49411W        W15820  35.104  20.616   3.931
49412W        W15821   2.162  31.835  12.214
49413W        W15822   8.899  21.632   0.330
49414W        W15823  19.655  37.349  10.476
49415W        W15824  34.021  44.718   1.512
49416W        W15825  34.561  32.386  14.571
49417W        W15826   7.693  31.015  13.696
49418W        W15827  29.039  32.347  14.441
49419W        W15828  15.227  19.572  14.996
49420W        W15829   2.864   3.431  11.628
49421W        W15830  43.438  31.440  12.667
49422W        W15831  23.975  22.580   1.735
49423W        W15832  44.460   7.344   4.438
49424W        W15833  41.937  25.498  11.421
49425W        W15834  32.867  26.556   4.500
49426W        W15835  13.097   7.372  12.061
49427W        W15836  42.457  43.806  14.019
49428W        W15837  38.031  19.958   1.314
49429W        W15838   9.369  23.042  13.082
49430W        W15839  16.109  12.364   1.183
49431W        W15840  37.121  12.769  12.231
49432W        W15841  23.848  16.681  13.356
49433W        W15842   4.678  38.144   4.256
49434W        W15843  38.371  27.004   0.652
49435W        W15844  39.477  12.348  12.495
49436W        W15845   9.117  27.728  12.502
49437W        W15846  32.480   2.578  13.469
49438W        W15847  19.310  13.209   3.529
49439W        W15848  36.420  43.435  14.321
49440W        W15849  44.949  31.126   1.668
49441W        W15850  20.242  35.345  14.512
49442W        W15851  11.282  32.176  11.022
49443W        W15852  27.875  39.373   1.748
49444W        W15853  38.394   1.322  12.491
49445W        W15854  18.894  18.623   2.216
49446W        W15855   2.306  40.288   0.728
49447W        W15856  27.895  11.482  10.575
49448W        W15857  26.689  20.715  13.096
49449W        W15858  24.737  26.570  11.138
49450W        W15859  10.395  21.121  13.779
49451W        W15860  14.111  27.018   1.179
49452W        W15861  14.624  14.497  11.216
49453W        W15862  20.613   9.026   5.028
49454W        W15863  12.117  28.651  10.751
49455W        W15864   4.586  43.388  12.422
49456W        W15865   9.670  24.076   1.327
49457W        W15866  10.106   4.603  11.160
49458W        W15867  15.366  26.856   1.971
49459W        W15868  26.827   5.106   4.903
49460W        W15869   2.010  33.075  14.218
49461W        W15870   8.671  20.610   2.787
49462W        W15871  25.650  29.329   2.651
49463W        W15872  32.930  14.636   4.591
49464W        W15873  41.745  44.353  13.370
49465W        W15874  14.432  20.111   3.755
49466W        W15875  15.456  32.872  14.804
49467W        W15876   1.303  16.033   2.456
49468W        W15877  10.654  10.607  11.034
49469W        W15878  33.922   3.924   1.269
49470W        W15879  34.451  22.410  12.575
49471W        W15880  13.366   7.733   4.099
49472W        W15881   0.287  17.563   3.114
49473W        W15882  13.317  12.232  13.048
49474W        W15883  11.679  41.408  12.705
49475W        W15884  33.133  26.078   4.544
49476W        W15885  13.584   7.487   0.336
49477W        W15886  14.730  17.076   1.904
49478W        W15887  27.157  40.798  14.303
49479W        W15888  42.067  18.766   0.748
49480W        W15889  25.758   3.913   0.325
49481W        W15890   6.804  27.293  12.073
49482W        W15891  36.840  36.421   3.877
49483W        W15892   3.939   6.678   4.240
49484W        W15893  40.757   6.694  12.210
49485W        W15894  28.785  39.892  13.954
49486W        W15895  39.830  11.334   0.984
49487W        W15896   2.533  14.617  13.939
49488W        W15897  23.443  21.153   3.727
49489W        W15898   1.179  15.115   0.838
49490W        W15899   7.288  20.455   3.157
49491W        W15900  25.705   3.051  10.282
49492W        W15901  40.312  44.361  14.901
49493W        W15902  32.115  30.888   3.797
49494W        W15903  12.652  10.180  14.784
49495W        W15904  33.889  27.300   4.906
49496W        W15905  16.136  44.085  14.307
49497W        W15906  21.583  31.246   4.629
49498W        W15907  23.646  17.918  11.154
49499W        W15908  13.442  33.425  10.805
49500W        W15909  42.396  35.443  13.536
49501W        W15910  23.246  37.544  10.988
49502W        W15911  19.096  40.778   2.246
49503W        W15912  32.417   9.691  12.416
49504W        W15913  18.557  12.763  12.921
49505W        W15914  16.354  31.986  10.575
49506W        W15915  34.923  17.100  10.328
49507W        W15916  28.457  26.117   0.338
49508W        W15917  42.784  31.116   2.262
49509W        W15918  26.059   8.275  11.894
49510W        W15919   7.262  21.812   3.746
49511W        W15920  13.927  20.330  11.615
49512W        W15921  40.186  43.202   2.673
49513W        W15922   6.435   7.949  11.099
49514W        W15923  29.323  19.472  13.727
49515W        W15924  12.759  13.072   4.901
49516W        W15925  41.469  21.262  11.871
49517W        W15926   4.647  12.572  10.261
49518W        W15927  34.586   5.800   0.324
49519W        W15928  44.960  24.438  11.548
49520W        W15929   2.182  22.615  14.203
49521W        W15930  28.124  44.455  11.028
49522W        W15931  31.906   5.717   3.651
49523W        W15932  23.873   8.215  13.771
49524W        W15933  41.460   7.351  12.557
49525W        W15934  14.123  26.390  11.846
49526W        W15935  10.660  41.297  14.291
49527W        W15936  10.284  38.965  12.502
49528W        W15937   9.908  13.731  12.340
49529W        W15938  32.674  35.870  12.840
49530W        W15939  21.774   5.806   4.631
49531W        W15940  20.464   9.609   0.416
49532W        W15941  27.991  14.664  10.766
49533W        W15942  15.634   3.651  12.671
49534W        W15943  44.529  22.258  11.125
49535W        W15944  31.149   2.668   3.189
49536W        W15945   5.593  25.921   0.325
49537W        W15946  38.998  14.550  12.505
49538W        W15947  34.818  42.552  14.811
49539W        W15948   6.868  42.100  14.412
49540W        W15949  33.602  18.823   2.267
49541W        W15950  25.968  33.569  13.576
49542W        W15951  43.761  11.637  14.175
49543W        W15952  28.446  20.205  12.334
49544W        W15953   7.765  13.133  14.311
49545W        W15954  16.209  33.218  14.505
49546W        W15955  23.578  36.586   3.600
49547W        W15956  35.093  23.940  11.093
49548W        W15957  43.761   4.442  10.673
49549W        W15958  23.999  43.688  13.474
49550W        W15959  25.565   6.405  14.362
49551W        W15960  25.542  37.147  10.684
49552W        W15961   7.261   9.483  13.989
49553W        W15962  43.972   4.925   4.500
49554W        W15963  20.582  14.840   2.390
49555W        W15964  11.448   4.771  13.138
49556W        W15965  24.790  10.749  10.420
49557W        W15966   0.755   0.138   3.984
49558W        W15967  22.154  11.549  12.551
49559W        W15968  43.926  32.189   3.242
49560W        W15969  44.125  18.557   2.100
49561W        W15970  20.720  35.902  13.505
49562W        W15971  17.056  40.304  12.458
49563W        W15972  34.970  16.123   1.198
49564W        W15973  20.155  20.000  12.869
49565W        W15974  20.192  37.175  12.555
49566W        W15975   6.685  29.482   4.120
49567W        W15976  42.230  25.745  11.088
49568W        W15977  14.736  26.682  12.431
49569W        W15978  17.235  15.847  13.393
49570W        W15979  10.570  30.481  11.826
49571W        W15980  38.532   8.527   3.657
49572W        W15981  34.664  15.844   4.862
49573W        W15982  41.941  38.967  14.612
49574W        W15983  16.820  19.958  10.246
49575W        W15984  35.602  44.189   1.376
49576W        W15985  30.554  32.464   3.930
49577W        W15986  35.570  22.224   2.320
49578W        W15987  15.548  21.546  12.119
49579W        W15988  40.341  25.646   1.239
49580W        W15989  30.230  25.127  14.903
49581W        W15990  25.085  14.167   3.153
49582W        W15991  33.437  40.536   3.680
49583W        W15992  20.792  20.632   2.765
49584W        W15993  26.921  26.033  14.351
49585W        W15994  28.601   4.749  12.770
49586W        W15995  15.528   8.381   2.567
49587W        W15996  42.372  43.486  10.915
49588W        W15997   2.630   6.656   1.241
49589W        W15998   4.631  43.204   3.790
49590W        W15999  36.437  15.568  10.218
49591W        W16000   7.375  26.068   0.911
49592W        W16001  31.093  36.329   0.003
49593W        W16002  44.378  28.552   3.702
49594W        W16003  11.076   2.213   0.257
49595W        W16004  14.096  35.508   1.910
49596W        W16005   7.406  22.905  12.413
49597W        W16006  41.760  41.800  14.332
49598W        W16007   8.157  28.961  11.904
49599W        W16008  31.164   0.771  10.424
49600W        W16009  26.179   7.935   0.799
49601W        W16010  37.345  32.397   2.354
49602W        W16011   8.363  33.414   3.113
49603W        W16012  10.749  40.566   0.332
49604W        W16013   5.368  27.020   4.216
49605W        W16014   2.775  43.270   2.670
49606W        W16015   4.156  16.814   4.546
49607W        W16016  16.494  15.609   1.528
49608W        W16017  20.817   0.496   3.296
49609W        W16018  17.210   4.430  11.665
49610W        W16019  26.611  42.368   2.656
49611W        W16020   2.944  36.331  13.890
49612W        W16021  34.328  37.836  11.306
49613W        W16022   3.855  15.162   2.450
49614W        W16023  28.495  37.338  14.848
49615W        W16024  14.281  31.097   5.084
49616W        W16025  41.795  39.046   0.096
49617W        W16026  10.623  14.313   4.794
49618W        W16027  40.834  31.033  14.354
49619W        W16028  25.419  19.042   1.493
49620W        W16029   8.295  40.556  14.513
49621W        W16030  32.570  37.564   1.566
49622W        W16031   0.342  31.536   1.392
49623W        W16032  21.253  37.743   2.236
49624W        W16033  29.757  35.584   4.035
49625W        W16034  22.749   1.538  10.945
49626W        W16035  17.292  37.808  14.832
49627W        W16036  34.687   9.698   0.413
49628W        W16037   4.272  37.931   1.049
49629W        W16038  11.060   6.910   3.255
49630W        W16039  37.252  36.190  12.842
49631W        W16040   5.735  28.413   0.290
49632W        W16041  41.702   5.006   3.350
49633W        W16042   2.736   3.187   0.320
49634W        W16043  23.514   2.852  13.031
49635W        W16044  41.869  27.588   1.223
49636W        W16045  23.842  37.838   0.028
49637W        W16046   2.525  18.892  11.852
49638W        W16047  12.480  32.506  11.782
49639W        W16048  21.129  12.836  13.033
49640W        W16049  44.962  39.555   4.638
49641W        W16050  14.398   6.687   3.006
49642W        W16051  34.008  16.012  13.009
49643W        W16052  33.974   7.726  11.275
49644W        W16053   4.781   9.252  13.126
49645W        W16054   0.933  25.628   2.698
49646W        W16055  13.755  37.677  12.056
49647W        W16056  38.723  18.155   3.360
49648W        W16057  26.110   1.932   4.175
49649W        W16058  34.915   7.665  11.683
49650W        W16059  28.403  19.135  14.974
49651W        W16060  25.226  24.192  14.417
49652W        W16061   2.061  17.387  14.745
49653W        W16062   0.031  19.089  11.157
49654W        W16063   0.364   8.134   4.870
49655W        W16064  42.769  16.040   1.645
49656W        W16065   2.889  11.338   1.928
49657W        W16066  30.679  23.694   3.767
49658W        W16067   1.687   8.641   1.170
49659W        W16068  38.574   9.931   0.238
49660W        W16069   9.433  23.678   5.106
49661W        W16070  20.282  21.761  14.740
49662W        W16071  12.802  12.918   0.660
49663W        W16072  38.840  26.837  12.600
49664W        W16073  30.108   5.000  11.487
49665W        W16074  44.186  32.600  13.632
49666W        W16075  10.863   7.000   0.968
49667W        W16076   0.458  11.592   4.385
49668W        W16077  35.829   7.195   0.738
49669W        W16078   3.846   7.211  11.793
49670W        W16079  43.167  12.184  11.343
49671W        W16080  10.688  17.202   1.792
49672W        W16081  40.379  27.464   2.152
49673W        W16082  39.564   6.220  14.403
49674W        W16083  28.369  34.434   2.912
49675W        W16084  19.831  21.372  13.866
49676W        W16085  35.402  34.221  12.709
49677W        W16086  11.528   2.541   2.566
49678W        W16087   3.074  38.538   0.573
49679W        W16088  35.844  20.692   0.919
49680W        W16089  21.755  13.562   2.749
49681W        W16090  19.540  34.174  11.033
49682W        W16091  15.635  26.560  11.143
49683W        W16092  42.107  39.972   4.561
49684W        W16093  21.022  39.446  11.071
49685W        W16094  28.096  31.951   0.563
49686W        W16095   4.384  20.270  10.539
49687W        W16096  18.478   7.219  14.817
49688W        W16097   3.850  35.503   0.260
49689W        W16098   1.230   0.867   3.144
49690W        W16099  29.975  39.860   1.347
49691W        W16100  41.208  16.303  13.435
49692W        W16101  44.948  30.532  11.093
49693W        W16102  43.925  30.407   2.728
49694W        W16103   8.618  44.688   2.122
49695W        W16104  32.527   8.670  11.198
49696W        W16105  12.834  35.461   2.658
49697W        W16106  30.059  35.821  14.308
49698W        W16107  40.786  22.166   1.687
49699W        W16108  32.433  29.718   1.841
49700W        W16109  24.935  24.242   5.002
49701W        W16110  39.939  35.824   3.768
49702W        W16111  34.085  12.251   0.876
49703W        W16112  10.466  27.295   4.024
49704W        W16113   6.520  24.875  10.779
49705W        W16114  22.069  13.623   4.377
49706W        W16115  39.513  41.473   2.816
49707W        W16116  19.004  41.935   0.178
49708W        W16117  24.208  36.294  14.444
49709W        W16118   0.243   6.811   3.686
49710W        W16119  10.911  16.311   2.841
49711W        W16120  33.166  24.118  13.201
49712W        W16121  19.932   9.512  10.547
49713W        W16122  13.424   3.974  10.151
49714W        W16123  38.866  22.487   2.115
49715W        W16124  37.017  36.714   2.153
49716W        W16125  28.026  13.462   2.343
49717W        W16126  22.514  10.711  14.699
49718W        W16127  24.436  44.396   2.659
49719W        W16128  27.091  19.320  13.354
49720W        W16129  40.393  20.702   2.178
49721W        W16130  28.276  27.016  10.696
49722W        W16131  27.955  26.995  10.278
49723W        W16132  34.846   1.042   4.643
49724W        W16133  22.039  40.980  11.446
49725W        W16134   0.969   8.678   1.833
49726W        W16135  16.157  36.296  12.526
49727W        W16136  38.451   3.512   0.381
49728W        W16137  15.777   1.266  11.101
49729W        W16138   6.598  42.777  11.879
49730W        W16139  32.796   6.617  11.052
49731W        W16140  32.595  29.541   3.214
49732W        W16141  38.939  22.463  11.674
49733W        W16142   8.730   3.876  14.064
49734W        W16143  39.878  10.939   2.400
49735W        W16144   7.918   5.442   3.985
49736W        W16145   5.484  32.363   2.661
49737W        W16146  18.737  39.810   2.750
49738W        W16147   9.887   9.244  12.835
49739W        W16148  38.159  10.193   3.041
49740W        W16149   2.808  32.718   0.040
49741W        W16150  23.640   3.748   3.474
49742W        W16151  22.694  22.241   1.876
49743W        W16152  30.124  38.972  14.279
49744W        W16153  16.807  39.537   2.750
49745W        W16154  43.438  23.061   4.455
49746W        W16155   9.128  23.659  10.939
49747W        W16156  36.290  18.993   2.210
49748W        W16157  36.912  25.990  10.680
49749W        W16158   6.077   0.630  14.020
49750W        W16159   3.313  17.205   3.264
49751W        W16160  17.103   4.353   4.824
49752W        W16161  20.236  40.341  13.403
49753W        W16162  37.103  20.768   4.154
49754W        W16163  43.269  28.501   0.624
49755W        W16164  13.189  39.422   4.076
49756W        W16165  33.819  14.815   4.223
49757W        W16166  17.109  34.945   4.591
49758W        W16167  19.607  42.365  13.794
49759W        W16168   6.808   4.700   0.254
49760W        W16169  20.988   8.291  11.131
49761W        W16170  37.889   4.459   1.356
49762W        W16171  28.009  11.092  12.491
49763W        W16172  40.968  40.743   3.720
49764W        W16173  40.907  25.439  14.817
49765W        W16174   2.987   1.956  14.894
49766W        W16175  13.283  40.822   4.506
49767W        W16176  38.343  34.361   2.238
49768W        W16177  26.914  14.181  12.088
49769W        W16178  26.194  10.598  13.855
49770W        W16179  32.513  44.741   4.071
49771W        W16180  27.143  31.100   3.836
49772W        W16181  16.057  18.059   2.255
49773W        W16182  32.148  14.418   9.929
49774W        W16183  26.936  30.596  11.097
49775W        W16184  16.153   0.620  12.633
49776W        W16185  11.139  24.781  11.101
49777W        W16186   2.191   8.635  13.014
49778W        W16187   3.156  16.638  14.612
49779W        W16188  36.125   4.434  14.423
49780W        W16189  22.127  17.095  10.447
49781W        W16190   7.491  24.182  13.519
49782W        W16191   4.466  24.411  12.338
49783W        W16192   0.959  36.863  10.614
49784W        W16193  38.301  39.910  14.848
49785W        W16194   1.688  30.994  10.531
49786W        W16195  26.573  11.920  11.956
49787W        W16196  43.800   0.909   0.791
49788W        W16197  44.518  14.245   2.914
49789W        W16198  33.895  18.578   1.747
49790W        W16199  25.969  38.504  10.707
49791W        W16200   4.266  12.108  14.033
49792W        W16201  26.157  33.286  13.960
49793W        W16202  34.122  34.772   2.938
49794W        W16203  30.939  21.238  14.399
49795W        W16204   2.896  40.328  13.953
49796W        W16205  18.689  21.721  10.728
49797W        W16206   7.318   5.866   0.838
49798W        W16207  12.167   5.704  10.478
49799W        W16208  11.173  17.384   3.408
49800W        W16209  13.750  32.258   5.143
49801W        W16210  13.700  22.876  14.701
49802W        W16211  34.543  11.129  12.979
49803W        W16212   6.884  13.183   4.579
49804W        W16213  11.243  31.971   2.861
49805W        W16214  34.960  14.680  11.738
49806W        W16215   0.518   1.794  10.484
49807W        W16216   6.551  31.842   5.140
49808W        W16217  40.396  40.934   4.375
49809W        W16218  39.197  29.939  12.872
49810W        W16219   2.876  10.311   1.161
49811W        W16220  18.173  26.537  11.126
49812W        W16221  24.724  28.583   1.987
49813W        W16222   9.876   3.031  11.139
49814W        W16223  12.582  12.622   2.662
49815W        W16224  25.928  14.886  14.454
49816W        W16225  17.789  40.578  13.649
49817W        W16226  19.343  20.914   4.159
49818W        W16227  26.913  38.518   4.160
49819W        W16228  15.334  32.126   3.701
49820W        W16229  41.829  14.627   3.152
49821W        W16230  32.537  34.873  13.626
49822W        W16231   5.225  14.644   4.144
49823W        W16232  26.023  20.719   2.088
49824W        W16233  20.624  42.468  11.125
49825W        W16234  33.529  18.526  12.544
49826W        W16235   8.359  13.228  12.155
49827W        W16236  26.234  20.574   1.142
49828W        W16237  26.380   6.981  10.771
49829W        W16238  29.772   3.862  11.815
49830W        W16239  28.408  23.082   0.925
49831W        W16240  31.557  24.405   2.021
49832W        W16241   4.047  36.586   1.914
49833W        W16242  39.057  11.237  11.923
49834W        W16243  36.127  23.512  12.092
49835W        W16244  16.158  29.207  13.426
49836W        W16245   6.206  21.267   1.250
49837W        W16246  44.795  18.285   2.774
49838W        W16247  19.101  23.430   3.886
49839W        W16248  29.469  42.086  13.383
49840W        W16249  43.459  31.842   4.043
49841W        W16250  24.147  38.677   1.309
49842W        W16251  17.354  31.896   3.306
49843W        W16252  27.175   8.882   4.330
49844W        W16253   8.750  34.555   4.860
49845W        W16254  35.544  21.452   0.448
49846W        W16255  17.250   6.279   4.676
49847W        W16256  41.430  25.767   4.582
49848W        W16257  12.142  25.000   0.981
49849W        W16258   7.212  31.637  13.342
49850W        W16259  17.797  17.771  13.841
49851W        W16260   0.812  28.978  12.980
49852W        W16261  35.650   1.355   3.055
49853W        W16262  33.315  36.122   1.877
49854W        W16263  19.342  12.821  14.580
49855W        W16264  31.095  25.474   2.399
49856W        W16265  41.357  10.645   2.096
49857W        W16266  37.327   6.162   4.113
49858W        W16267  28.183   9.050  13.359
49859W        W16268  34.868  43.547   3.859
49860W        W16269  39.577  24.719   0.569
49861W        W16270  23.753   0.892  13.628
49862W        W16271  20.245  33.396  12.127
49863W        W16272   5.199  42.909  10.766
49864W        W16273   1.966  26.024   1.413
49865W        W16274  15.756  31.669   2.287
49866W        W16275  12.012  10.728  13.944
49867W        W16276   4.040   9.276   0.099
49868W        W16277  33.898   7.771   2.836
49869W        W16278  10.306  11.479   4.972
49870W        W16279  26.080  16.273   4.721
49871W        W16280  31.485  16.861   2.233
49872W        W16281  24.963  41.852  12.419
49873W        W16282  21.350   2.568  10.508
49874W        W16283  42.045   8.382   4.779
49875W        W16284  11.805   2.177   0.812
49876W        W16285  20.258  16.962  10.742
49877W        W16286  44.811  13.144   4.594
49878W        W16287  15.860  11.059  14.007
49879W        W16288   4.163  12.298  13.013
49880W        W16289  37.015  21.254  10.702
49881W        W16290  16.807  13.991  11.159
49882W        W16291  28.134   3.282   3.649
49883W        W16292  25.545   3.851   4.544
49884W        W16293   2.922   2.384   3.168
49885W        W16294   1.769   9.374  12.436
49886W        W16295   0.016  16.498  11.970
49887W        W16296  20.206  31.602  14.019
49888W        W16297   4.230   9.122  12.862
49889W        W16298  16.748  28.222  12.677
49890W        W16299  43.656  43.224  14.902
49891W        W16300  40.088  11.815   3.270
49892W        W16301  44.517  29.253   3.212
49893W        W16302   1.376   8.780   5.393
49894W        W16303  14.871  16.338  11.022
49895W        W16304  24.273  17.090  14.277
49896W        W16305  28.475  42.021  10.818
49897W        W16306  32.836  13.495   4.131
49898W        W16307   0.005  30.886  12.501
49899W        W16308   6.335  13.235   2.612
49900W        W16309  32.353  27.587  13.856
49901W        W16310  12.802   3.314  10.232
49902W        W16311  33.435  22.686  13.847
49903W        W16312  27.611  29.271  14.428
49904W        W16313  43.984  33.014   4.295
49905W        W16314  13.313   6.428  12.157
49906W        W16315  24.536  11.686   4.412
49907W        W16316  40.881   6.869   3.635
49908W        W16317  15.591  38.302  10.976
49909W        W16318  14.714   3.561   1.791
49910W        W16319  16.793  37.823   0.377
49911W        W16320  22.133   6.039  10.718
49912W        W16321  20.162  16.044  10.823
49913W        W16322  24.360  26.839  10.921
49914W        W16323  12.698  25.907  14.049
49915W        W16324  43.941  43.455  12.087
49916W        W16325  32.763   3.461  14.246
49917W        W16326   0.007  38.266   2.767
49918W        W16327   8.942  30.169  10.106
49919W        W16328   3.755  42.725   0.294
49920W        W16329  16.996  12.446   3.354
49921W        W16330   7.495  30.006  11.176
49922W        W16331   4.371  27.664  13.919
49923W        W16332  17.548   2.985  13.717
49924W        W16333  14.700  38.868  11.783
49925W        W16334   3.016  27.473   4.275
49926W        W16335  40.012  39.933   3.135
49927W        W16336  17.712  35.162  13.474
49928W        W16337  22.126   0.156   9.952
49929W        W16338  31.520  32.788  11.492
49930W        W16339  23.426  18.071   1.853
49931W        W16340  27.196  40.414   4.689
49932W        W16341  26.816  32.620   2.310
49933W        W16342   2.111  17.922  14.875
49934W        W16343   9.663  10.430  10.229
49935W        W16344  33.273  44.812   2.143
49936W        W16345   1.421  23.536   2.201
49937W        W16346  19.617  10.329   3.075
49938W        W16347  35.353  15.654   3.696
49939W        W16348   6.126  18.253  11.063
49940W        W16349   8.100  15.762  12.900
49941W        W16350  38.816  42.814   0.874
49942W        W16351  34.834   8.233  14.403
49943W        W16352   8.193  35.597  11.957
49944W        W16353  27.668   8.133   0.932
49945W        W16354  17.976   9.454   1.921
49946W        W16355  43.279  35.553   4.930
49947W        W16356  23.820  27.910   1.810
49948W        W16357  35.832  18.038  13.144
49949W        W16358  24.782  42.354  12.495
49950W        W16359   8.569  20.166  14.655
49951W        W16360  21.338  37.486   3.558
49952W        W16361  15.043  25.936   1.390
49953W        W16362  11.113  10.126  14.570
49954W        W16363   0.185  31.419  12.915
49955W        W16364  38.045  14.312   3.741
49956W        W16365  18.808  41.974   1.945
49957W        W16366  30.364  11.193  11.219
49958W        W16367  24.542  24.082   3.185
49959W        W16368   2.776  30.354  12.125
49960W        W16369  28.423  14.642  14.844
49961W        W16370  42.170  43.232   4.883
49962W        W16371  27.392  44.431  14.975
49963W        W16372  12.874  42.038  14.354
49964W        W16373   4.836  25.171  13.854
49965W        W16374   8.618  40.804  12.575
49966W        W16375  12.147  27.126  11.141
49967W        W16376  43.974   5.910  12.470
49968W        W16377   5.277  37.387  11.036
49969W        W16378  39.070   1.214   0.387
49970W        W16379   7.277  18.285   0.479
49971W        W16380  24.893   7.551   1.358
49972W        W16381  33.944   8.908  13.459
49973W        W16382  16.445  28.504  11.983
49974W        W16383  18.203  25.805  14.401
49975W        W16384  31.889  12.978   0.763
49976W        W16385  42.578  29.194   0.864
49977W        W16386  32.459  16.676   2.170
49978W        W16387   7.104  33.177   2.780
49979W        W16388  29.864  30.539  12.516
49980W        W16389  13.115  19.166   5.088
49981W        W16390  19.324  21.330  11.066
49982W        W16391  36.579  20.682  14.758
49983W        W16392  16.808  29.874  10.494
49984W        W16393  42.396  24.227   2.451
49985W        W16394   3.257  16.786  10.455
49986W        W16395  43.912  24.479   0.721
49987W        W16396  11.388   6.102  13.052
49988W        W16397  36.280  30.963  12.511
49989W        W16398  15.654  30.292  10.157
49990W        W16399  24.140   4.414  13.068
49991W        W16400  39.598  13.426   0.793
49992W        W16401  41.778  43.100  12.937
49993W        W16402  17.219  18.928  13.442
49994W        W16403  22.135  14.758   1.378
49995W        W16404  17.691   5.390   0.698
49996W        W16405   1.402  28.438   4.199
49997W        W16406  34.813  16.767   3.258
49998W        W16407  33.083  23.728   1.327
49999W        W16408   0.068  13.615  12.002
50000W        W16409  10.765  19.816   3.710
50001W        W16410  39.547  39.170   0.674
50002W        W16411  28.130  38.007   1.008
50003W        W16412  26.968  38.513  12.846
50004W        W16413   3.351  40.906  14.389
50005W        W16414  11.608  28.927  13.794
50006W        W16415  28.122  44.199  14.523
50007W        W16416   3.814   0.744   1.294
50008W        W16417  13.539  35.893   4.343
50009W        W16418   4.089  24.547  10.200
50010W        W16419   0.816  11.358  13.170
50011W        W16420  24.515   8.021  13.461
50012W        W16421  30.826   4.265   2.795
50013W        W16422   1.225   5.994  13.295
50014W        W16423  11.222  15.902   2.780
50015W        W16424  13.215  11.353  14.581
50016W        W16425  29.265  35.794   4.052
50017W        W16426  29.634   4.787   2.809
50018W        W16427   3.761  34.002   3.233
50019W        W16428  23.204  32.129   2.256
50020W        W16429   3.465  35.326   1.916
50021W        W16430  36.098   0.416  10.756
50022W        W16431  24.352  38.801   4.094
50023W        W16432  37.645  35.299  11.564
50024W        W16433  18.293  35.175   1.885
50025W        W16434  37.205  43.495   4.902
50026W        W16435  36.320  44.380   3.711
50027W        W16436  43.333  12.037  13.915
50028W        W16437  27.377  27.416  12.332
50029W        W16438   8.840  13.300  14.333
50030W        W16439  43.423  39.118   4.098
50031W        W16440  32.999  33.370  12.036
50032W        W16441   4.760  32.516  11.668
50033W        W16442   5.856  11.707  11.558
50034W        W16443  43.798  20.998   3.133
50035W        W16444  38.026  19.712   3.381
50036W        W16445  11.301  37.925  10.699
50037W        W16446  42.786  18.854  11.280
50038W        W16447  14.360  29.634  12.774
50039W        W16448  27.274  30.571  11.496
50040W        W16449  27.751  11.631  12.620
50041W        W16450  17.973   9.884   3.745
50042W        W16451  17.491  19.816   0.704
50043W        W16452  22.553  14.184   2.718
50044W        W16453  19.113  28.176  12.607
50045W        W16454   3.348  12.650  13.911
50046W        W16455  21.676  27.410   0.257
50047W        W16456   3.236  20.600  10.470
50048W        W16457  30.644  44.900   1.311
50049W        W16458   5.504  35.582   1.739
50050W        W16459  37.140   8.412   2.712
50051W        W16460   5.364  38.942   2.896
50052W        W16461  41.297  25.479   4.144
50053W        W16462  18.780  11.879  13.111
50054W        W16463  19.264  32.967  11.047
50055W        W16464   8.268  28.130  10.336
50056W        W16465  26.905   0.446   4.132
50057W        W16466  44.855  11.097   1.856
50058W        W16467   7.692   6.562  14.443
50059W        W16468   7.883  27.867  10.572
50060W        W16469  24.494  28.134  11.594
50061W        W16470   3.180  23.196  12.920
50062W        W16471  14.763  43.759   0.965
50063W        W16472  35.360  40.096  11.998
50064W        W16473   8.162   4.957   3.261
50065W        W16474  14.708  11.626   2.223
50066W        W16475  20.655  30.424   5.009
50067W        W16476  40.966  16.408   0.986
50068W        W16477  43.370   3.687   0.875
50069W        W16478  21.082  17.553   3.614
50070W        W16479   1.456   7.429   0.877
50071W        W16480  21.867  12.301  12.831
50072W        W16481  42.002  30.735  13.806
50073W        W16482  19.807  11.797   2.677
50074W        W16483  28.738   5.917   2.715
50075W        W16484  32.168  33.463   0.769
50076W        W16485  39.804  23.632  12.701
50077W        W16486  43.614   5.198   0.911
50078W        W16487  23.649   0.420   3.463
50079W        W16488  24.460  33.922  14.601
50080W        W16489  24.548   2.819   1.631
50081W        W16490  26.247  17.605  13.212
50082W        W16491  32.232   4.811  11.539
50083W        W16492   3.259  32.866   1.855
50084W        W16493   3.041   4.659  12.000
50085W        W16494  34.890  31.678  13.506
50086W        W16495  13.518  40.354  12.200
50087W        W16496   7.458   8.637  11.675
50088W        W16497  30.269  43.232   1.375
50089W        W16498  41.666  26.020   0.775
50090W        W16499  21.128  41.383  13.834
50091W        W16500  33.310  11.752   4.556
50092W        W16501  28.640  42.552   3.330
50093W        W16502   2.516  26.035  12.556
50094W        W16503  15.731  13.531   0.570
50095W        W16504  21.038  14.585  11.126
50096W        W16505   8.277   5.848  13.433
50097W        W16506  16.321  36.637   1.227
50098W        W16507  27.144  23.742  13.768
50099W        W16508  44.324   7.174   3.416
50100W        W16509  32.118  22.564  14.356
50101W        W16510  42.025  42.026  10.668
50102W        W16511  29.417   9.275  14.976
50103W        W16512  30.919  33.289   4.148
50104W        W16513  21.603  43.384  11.650
50105W        W16514  25.008   1.016  11.198
50106W        W16515   5.980  29.557   1.794
50107W        W16516  28.348  16.107  13.000
50108W        W16517  38.398  39.883   1.823
50109W        W16518   9.128  27.430   3.644
50110W        W16519  19.911  40.054  11.533
50111W        W16520  24.277   8.738   3.178
50112W        W16521  18.670   6.447  13.460
50113W        W16522  40.256  20.966  12.111
50114W        W16523  44.148  41.785  12.109
50115W        W16524   3.510   8.739  12.126
50116W        W16525  26.511   4.041   1.449
50117W        W16526   8.703  22.014   1.911
50118W        W16527   1.407  18.303   2.157
50119W        W16528  39.279  14.333  13.530
50120W        W16529  31.987   6.457   1.630
50121W        W16530   0.496   3.650   1.370
50122W        W16531   1.703  42.100  10.718
50123W        W16532  14.786  22.537  13.307
50124W        W16533   9.755  15.869   0.162
50125W        W16534  26.649  34.089   1.548
50126W        W16535  38.008  28.500  11.770
50127W        W16536   3.468  36.876   0.932
50128W        W16537   7.281  16.698   4.084
50129W        W16538   5.423  33.578  12.079
50130W        W16539  14.477  13.262   0.973
50131W        W16540  30.152  31.240   0.011
50132W        W16541  31.104   3.955   3.646
50133W        W16542  26.533  30.211   3.702
50134W        W16543   5.985   4.454  13.720
50135W        W16544  15.266   6.326   4.525
50136W        W16545  22.515   6.452  13.481
50137W        W16546  29.359  20.634  13.127
50138W        W16547  17.807   7.404  14.425
50139W        W16548  40.098  11.758  14.867
50140W        W16549  36.736  44.048   0.327
50141W        W16550  42.102  42.707   5.010
50142W        W16551  16.825  37.552   2.683
50143W        W16552   7.135  28.924   3.914
50144W        W16553  44.405   9.274  14.588
50145W        W16554  42.748  14.143   2.306
50146W        W16555  12.885  17.273   3.707
50147W        W16556  19.523  26.018   2.931
50148W        W16557  35.409  12.312   0.903
50149W        W16558   0.086  18.324   4.556
50150W        W16559  28.724   0.416  13.939
50151W        W16560  22.231  41.748  12.781
50152W        W16561  15.669  29.589   2.345
50153W        W16562  12.668  35.879  10.590
50154W        W16563  44.521  17.365   1.149
50155W        W16564  17.048  36.902  13.634
50156W        W16565  42.535  41.593   3.913
50157W        W16566  19.104  24.122  11.345
50158W        W16567  27.660   2.521   3.419
50159W        W16568  24.181  10.368   0.196
50160W        W16569   3.508  36.480   2.244
50161W        W16570  29.179  33.210  11.175
50162W        W16571  31.174  20.255  11.632
50163W        W16572  30.405  22.619   1.774
50164W        W16573  36.350  14.875  13.445
50165W        W16574  12.794   4.339   2.880
50166W        W16575   6.284   7.469  10.975
50167W        W16576  15.735  16.981   1.743
50168W        W16577  18.342  36.614  12.042
50169W        W16578  28.462   3.202  12.385
50170W        W16579   8.700  16.587   3.565
50171W        W16580  36.618  25.080  11.646
50172W        W16581   9.171  41.354   3.780
50173W        W16582  18.680   6.150  13.912
50174W        W16583  35.500  16.792   0.915
50175W        W16584  27.937  13.254  12.868
50176W        W16585  28.203  17.001  12.645
50177W        W16586  26.679  17.625   3.821
50178W        W16587  31.921  37.912   4.323
50179W        W16588  12.076  29.481   3.714
50180W        W16589  10.355  15.346   3.310
50181W        W16590  35.384  30.491  14.754
50182W        W16591   1.032   0.380   4.962
50183W        W16592  38.101  16.480   9.968
50184W        W16593  20.531  34.640  14.909
50185W        W16594   5.950  34.984  11.179
50186W        W16595  37.885  22.757  10.261
50187W        W16596   7.604   9.110  11.522
50188W        W16597  18.617  40.347  13.339
50189W        W16598  10.759  40.316  11.307
50190W        W16599  23.272   3.636   4.012
50191W        W16600   4.461   6.170  14.835
50192W        W16601   6.310  19.751   5.004
50193W        W16602  43.858  38.459   1.210
50194W        W16603  30.910   2.899  11.671
50195W        W16604   4.653  28.722   0.923
50196W        W16605  44.305  15.174  14.821
50197W        W16606   1.846   8.314  13.224
50198W        W16607   2.124  39.033  14.813
50199W        W16608   7.416  36.707  13.844
50200W        W16609  10.655  22.813  12.328
50201W        W16610  20.664  32.055   1.402
50202W        W16611   7.907   0.861  11.571
50203W        W16612  43.915  11.330   4.555
50204W        W16613  36.835  11.768  13.381
50205W        W16614   1.435  38.331  11.189
50206W        W16615  34.448  44.747  10.854
50207W        W16616  35.770   1.530  13.458
50208W        W16617  30.201  35.349  13.471
50209W        W16618  36.302  17.054  11.179
50210W        W16619  35.907   6.339   4.412
50211W        W16620  16.650  24.169  14.271
50212W        W16621  34.559   9.374   0.809
50213W        W16622  26.491  19.992   1.415
50214W        W16623  28.912  18.179  12.117
50215W        W16624  28.442  19.583  13.781
50216W        W16625  23.282  40.027  11.252
50217W        W16626  13.706  35.372   2.263
50218W        W16627  30.211  24.630   0.449
50219W        W16628  42.562  37.968   1.789
50220W        W16629  42.472   6.675  13.420
50221W        W16630  40.997  18.615  14.361
50222W        W16631   4.466  19.318  14.609
50223W        W16632   5.605  27.386  12.977
50224W        W16633  21.704  18.152   2.537
50225W        W16634  13.509  44.462   4.723
50226W        W16635  41.454   6.875   4.826
50227W        W16636  41.600  13.130   2.770
50228W        W16637  11.641   1.781   2.263
50229W        W16638  38.367   2.256   3.649
50230W        W16639  19.267  43.888  14.688
50231W        W16640  32.424  11.681   3.884
50232W        W16641   6.716  32.055   3.429
50233W        W16642  17.747  18.741   9.823
50234W        W16643  40.091  43.349   1.836
50235W        W16644   5.797   0.281   1.880
50236W        W16645  44.456   4.923  10.524
50237W        W16646  13.161  43.274  14.182
50238W        W16647  16.097  24.602  14.747
50239W        W16648  32.985  42.898   2.310
50240W        W16649  28.193  32.403  14.808
50241W        W16650  20.549  16.764   3.727
50242W        W16651   0.865  40.836   4.934
50243W        W16652  10.122  40.550  11.948
50244W        W16653  36.775  14.374  10.763
50245W        W16654  22.337  29.053  12.913
50246W        W16655  33.855  26.193  12.022
50247W        W16656   4.276  14.101   2.707
50248W        W16657   0.203  25.448   3.693
50249W        W16658  39.725  18.203  10.069
50250W        W16659  10.770  12.655  13.469
50251W        W16660  17.344   3.899   4.601
50252W        W16661  27.329   2.453  12.438
50253W        W16662   6.674   6.652  11.894
50254W        W16663   6.681  29.201  10.615
50255W        W16664  27.637  35.447   2.051
50256W        W16665  37.336  36.309   4.729
50257W        W16666   4.976  12.706   5.095
50258W        W16667  33.686  38.456   4.101
50259W        W16668  29.546  28.581   4.241
50260W        W16669  20.822  41.421  12.058
50261W        W16670   1.955   2.270  10.707
50262W        W16671  11.393  35.819  11.726
50263W        W16672   8.502  23.206   2.676
50264W        W16673   3.922  40.808   1.850
50265W        W16674   1.627  25.091   2.778
50266W        W16675  37.257   6.965  11.215
50267W        W16676  23.208   2.014   1.274
50268W        W16677  13.385  16.807   4.900
50269W        W16678   7.915  42.018  11.243
50270W        W16679  26.431   4.899  11.060
50271W        W16680  22.952  39.029   0.930
50272W        W16681  15.656   8.529   1.263
50273W        W16682  20.585   2.956   1.935
50274W        W16683  13.355  40.309   4.634
50275W        W16684  12.857  25.527  10.926
50276W        W16685   4.872  27.063   0.524
50277W        W16686   0.040  38.723  14.334
50278W        W16687   9.382   0.453   0.827
50279W        W16688  25.609  42.803  10.031
50280W        W16689  33.390  20.361  12.010
50281W        W16690  40.349  27.560   3.675
50282W        W16691  12.189  32.619  10.685
50283W        W16692   1.639  26.737   4.854
50284W        W16693  31.652  24.654   3.725
50285W        W16694  30.531  17.551  10.906
50286W        W16695  39.842  37.598  10.965
50287W        W16696  42.542   4.305  12.858
50288W        W16697  17.755  26.400   4.091
50289W        W16698  28.517  24.661  14.293
50290W        W16699  40.811  43.100   3.251
50291W        W16700  32.911  18.641  13.992
50292W        W16701   8.617  42.610  13.380
50293W        W16702  17.436   8.798   1.364
50294W        W16703  39.998  26.469   0.728
50295W        W16704  36.623  41.854  11.600
50296W        W16705  12.532  10.410  13.442
50297W        W16706   0.468  10.382  11.233
50298W        W16707  35.750   7.237  14.208
50299W        W16708  24.965  28.519  14.007
50300W        W16709  33.607  24.011  10.393
50301W        W16710   8.361  34.497   0.495
50302W        W16711   7.266  34.416   0.351
50303W        W16712   8.981  24.455   3.150
50304W        W16713  34.325   4.432  10.393
50305W        W16714  27.074  44.811  13.580
50306W        W16715  32.598  22.509   4.257
50307W        W16716  10.414  43.255  11.475
50308W        W16717  16.677  36.340  12.493
50309W        W16718   4.483  41.351  11.941
50310W        W16719  12.670  20.225   1.420
50311W        W16720  31.125  27.061  13.829
50312W        W16721   0.433   3.186   2.726
50313W        W16722  16.775  36.329  10.728
50314W        W16723  30.357   5.646  12.089
50315W        W16724  21.694  15.787  10.624
50316W        W16725  21.185  30.046  10.768
50317W        W16726   2.436  12.712   1.914
50318W        W16727  18.455  16.633   0.389
50319W        W16728  29.712  37.847   3.613
50320W        W16729   6.709  28.695   4.711
50321W        W16730  15.779   0.560   1.484
50322W        W16731   8.875  17.696  14.869
50323W        W16732  37.288   3.072  11.039
50324W        W16733  25.191  34.309   0.482
50325W        W16734  39.974  41.827  13.728
50326W        W16735  20.830  11.763  10.552
50327W        W16736  27.405  10.851   4.554
50328W        W16737   1.002  39.049   1.317
50329W        W16738  31.059  23.969   1.269
50330W        W16739  24.454  32.264  14.644
50331W        W16740  23.958  22.418  14.858
50332W        W16741  43.460  15.641  11.800
50333W        W16742  42.315  15.234  10.712
50334W        W16743  17.792  29.342  13.402
50335W        W16744  38.469  38.100  11.167
50336W        W16745  14.375   2.433   3.610
50337W        W16746  37.841   6.438  11.624
50338W        W16747  41.286  35.394   2.764
50339W        W16748  35.708   3.555   0.353
50340W        W16749  28.955   7.279   0.736
50341W        W16750  30.462  38.856   2.177
50342W        W16751  11.667  25.018  12.920
50343W        W16752   8.336  24.363  11.214
50344W        W16753  17.547   2.712  13.260
50345W        W16754  41.512  16.663   3.100
50346W        W16755   7.440  21.915  13.362
50347W        W16756  20.587  29.582  12.424
50348W        W16757   1.835  33.105   3.355
50349W        W16758  39.894  42.708   3.151
50350W        W16759  18.740  19.506   5.229
50351W        W16760  32.596  43.283  11.443
50352W        W16761  31.944  39.810   4.700
50353W        W16762  27.255  33.328  13.906
50354W        W16763  27.735  23.754  12.967
50355W        W16764  38.389  36.421   1.367
50356W        W16765   8.933   3.508   2.928
50357W        W16766  13.181   3.833   2.270
50358W        W16767  26.476  37.192   4.134
50359W        W16768  17.054  19.117  12.083
50360W        W16769  40.380  12.096  14.540
50361W        W16770  12.071  41.340  11.405
50362W        W16771   2.266  29.962  14.270
50363W        W16772  39.351  44.987  12.600
50364W        W16773  40.944  15.189  13.009
50365W        W16774   5.047  27.670  14.716
50366W        W16775   8.653  11.772  13.285
50367W        W16776  34.884  33.634  10.699
50368W        W16777   6.673  17.624   0.370
50369W        W16778  14.110  34.037  14.775
50370W        W16779  25.184  26.514  10.903
50371W        W16780  34.953  37.813   1.798
50372W        W16781  22.759  15.675  12.033
50373W        W16782  43.495  19.571   3.549
50374W        W16783  16.036  11.294   0.382
50375W        W16784  36.923  24.970   3.478
50376W        W16785  17.325  19.180  11.628
50377W        W16786  40.724  16.517  11.647
50378W        W16787  19.830  15.379  11.886
50379W        W16788  17.212  30.004   0.272
50380W        W16789  31.442  26.287  14.315
50381W        W16790  11.376   0.794   1.823
50382W        W16791   9.190  27.477   1.754
50383W        W16792   6.308  35.345   0.047
50384W        W16793  36.118  44.073   1.266
50385W        W16794  27.590   7.379   9.787
50386W        W16795  28.647  17.810  13.466
50387W        W16796  35.459  29.636   0.998
50388W        W16797  33.472  24.671   4.698
50389W        W16798   7.080  14.686  13.459
50390W        W16799  13.199  42.973   1.215
50391W        W16800   4.292  22.696  12.143
50392W        W16801  25.939  16.559   2.685
50393W        W16802   7.825  36.165   3.980
50394W        W16803  27.991   2.665  10.485
50395W        W16804  31.856   9.242  14.732
50396W        W16805   3.677  11.895   0.149
50397W        W16806  41.865  39.578  11.896
50398W        W16807  24.041   9.787  12.178
50399W        W16808  43.828  44.806  12.072
50400W        W16809  21.526  17.704   3.839
50401W        W16810  42.544  38.617  12.947
50402W        W16811  41.253  31.520   3.206
50403W        W16812  31.049  28.559   2.683
50404W        W16813  27.020  35.070  11.437
50405W        W16814  38.781  23.585   2.143
50406W        W16815   6.487  37.505  11.673
50407W        W16816  36.450  15.038  11.932
50408W        W16817  32.773   3.552   4.024
50409W        W16818   4.003  34.923  14.550
50410W        W16819  26.529  19.460   1.332
50411W        W16820  26.679  44.000   0.665
50412W        W16821   2.456  21.464   3.707
50413W        W16822  16.328  28.704  10.657
50414W        W16823  39.427  32.514   4.043
50415W        W16824   3.381  22.369   0.015
50416W        W16825   0.173  28.102  14.362
50417W        W16826   1.356  37.309  14.010
50418W        W16827  36.454   8.973  12.483
50419W        W16828  44.145  16.127   2.172
50420W        W16829  22.863  14.047  12.387
50421W        W16830   9.223  11.829   4.543
50422W        W16831   6.804  26.073  14.295
50423W        W16832   2.554  29.957  13.803
50424W        W16833  27.624  38.181  11.160
50425W        W16834  10.753   1.903  14.963
50426W        W16835  17.256  37.394   3.641
50427W        W16836  26.501   6.287   0.499
50428W        W16837  23.952  22.486   3.572
50429W        W16838   2.579  18.630  13.628
50430W        W16839   4.692  42.038   4.581
50431W        W16840  28.003  19.988   0.752
50432W        W16841  18.661  42.215  14.914
50433W        W16842  13.541  16.636  13.085
50434W        W16843  26.007  40.051  14.465
50435W        W16844  41.832  26.492   4.148
50436W        W16845  43.346  41.589  12.501
50437W        W16846  11.348  14.515  11.679
50438W        W16847  19.018   9.150  10.936
50439W        W16848  22.084  16.653  12.212
50440W        W16849   2.395   1.778   1.159
50441W        W16850   8.675  41.311   2.716
50442W        W16851  20.974  24.933  12.925
50443W        W16852  43.520   9.094  14.513
50444W        W16853  44.057  35.498  12.092
50445W        W16854  15.396  37.725  12.179
50446W        W16855  42.908  29.858  14.780
50447W        W16856  41.239  44.269  13.484
50448W        W16857  29.553  35.045  14.277
50449W        W16858  33.620   8.236   2.771
50450W        W16859  25.423  17.626   4.132
50451W        W16860  13.822   0.209   2.378
50452W        W16861  14.589   0.860   2.462
50453W        W16862   9.191  20.411   1.971
50454W        W16863   6.157  26.130  12.011
50455W        W16864  31.574  39.100   0.284
50456W        W16865   1.009  33.029  14.267
50457W        W16866  34.085  10.690   1.199
50458W        W16867  15.311  15.331  10.518
50459W        W16868  40.059   1.661  12.074
50460W        W16869  20.582  10.078  13.121
50461W        W16870  30.844  17.580   4.709
50462W        W16871   3.267  19.261  13.854
50463W        W16872  39.360   8.622   4.889
50464W        W16873  22.004  39.784   0.187
50465W        W16874  38.887  32.917  13.037
50466W        W16875  15.707   9.041   1.256
50467W        W16876   1.966  39.077  12.542
50468W        W16877   2.630  30.509   2.334
50469W        W16878  15.573  35.891   0.791
50470W        W16879  42.846  36.292  14.437
50471W        W16880  10.324   1.952   0.870
50472W        W16881  12.475  40.063   4.478
50473W        W16882   9.495   0.446  12.536
50474W        W16883   7.690  32.831  13.701
50475W        W16884  20.177   0.691   3.588
50476W        W16885  13.603  19.566   4.494
50477W        W16886  42.986  44.000  14.684
50478W        W16887  31.665  16.674  13.482
50479W        W16888  42.420  21.475  12.552
50480W        W16889  18.579   1.472  11.608
50481W        W16890   6.355   2.900  14.933
50482W        W16891  28.627  17.637  11.950
50483W        W16892   9.409  18.036   3.542
50484W        W16893  39.926   4.408   3.619
50485W        W16894  24.078  25.680   0.442
50486W        W16895  41.751  28.096   0.340
50487W        W16896  20.551  24.476   1.407
50488W        W16897  16.850  16.370  14.849
50489W        W16898  34.667   8.486   1.941
50490W        W16899  32.011   8.742   4.663
50491W        W16900   0.106  13.589  12.912
50492W        W16901  29.990  23.835   1.151
50493W        W16902  20.412   4.854  11.880
50494W        W16903  33.829  31.349   2.334
50495W        W16904  41.185  17.899  11.094
50496W        W16905  31.379   5.612  12.981
50497W        W16906   3.872  23.760   0.398
50498W        W16907  21.391  22.138  10.953
50499W        W16908  19.738  41.087  12.116
50500W        W16909  20.505   3.341   4.557
50501W        W16910   6.863  17.221   4.674
50502W        W16911  41.722  11.295  11.733
50503W        W16912  33.463  12.610  11.186
50504W        W16913  43.449  13.800   4.401
50505W        W16914  19.504   9.762  14.944
50506W        W16915  23.334  21.762   9.796
50507W        W16916  22.723   9.182   3.577
50508W        W16917  19.638  23.346   3.599
50509W        W16918  39.419  14.803   1.254
50510W        W16919  18.172  43.394   3.979
50511W        W16920  11.798  39.790  13.392
50512W        W16921  22.704   5.707  13.051
50513W        W16922  38.774  16.739   4.806
50514W        W16923  13.826  16.589   3.602
50515W        W16924   7.466  43.450  13.331
50516W        W16925  17.760  33.494   4.351
50517W        W16926   8.246  23.788  11.188
50518W        W16927  22.244   9.363   3.764
50519W        W16928   3.244  44.351  14.301
50520W        W16929  14.614   3.252   3.109
50521W        W16930  23.747  13.787   1.414
50522W        W16931   7.821  33.874   3.579
50523W        W16932  15.447  20.669   1.306
50524W        W16933  28.404  37.576   4.035
50525W        W16934   0.487   7.783  14.623
50526W        W16935  28.561   5.986  12.937
50527W        W16936  31.773  22.732   4.530
50528W        W16937  34.018  26.604   5.064
50529W        W16938   4.944  15.605  11.203
50530W        W16939  22.220  33.830   2.320
50531W        W16940  44.287  10.268  14.399
50532W        W16941   1.194  17.504  11.161
50533W        W16942  14.676  23.176   2.086
50534W        W16943   7.350  35.333   1.513
50535W        W16944  41.772  35.478   1.727
50536W        W16945   4.177  27.587   2.253
50537W        W16946  44.319  44.693  13.455
50538W        W16947  18.779  33.525  12.471
50539W        W16948   5.565  21.842   0.083
50540W        W16949  10.430   0.629  12.502
50541W        W16950  32.287   8.964  13.857
50542W        W16951   9.180  22.650  13.487
50543W        W16952  44.711  33.997   2.716
50544W        W16953  32.883  38.639   0.057
50545W        W16954  43.437  43.809  14.474
50546W        W16955  38.506   0.931  12.908
50547W        W16956  14.738  40.069  12.128
50548W        W16957  10.749   7.184  12.585
50549W        W16958   5.282  19.253  11.629
50550W        W16959  18.205  22.021  12.839
50551W        W16960  33.770  17.990  12.969
50552W        W16961  39.322  31.891   1.810
50553W        W16962   2.404  38.386   4.322
50554W        W16963   6.609  27.220  12.859
50555W        W16964   0.786  19.751   1.007
50556W        W16965  35.089  44.367  11.831
50557W        W16966  31.206  19.818   0.520
50558W        W16967  18.346  36.440  12.517
50559W        W16968  13.856  15.355  11.405
50560W        W16969  22.609  12.295   3.141
50561W        W16970  22.515  31.421  11.151
50562W        W16971  21.501   7.775  13.113
50563W        W16972  15.123  22.828  12.102
50564W        W16973  12.250  27.681   3.312
50565W        W16974  20.119   8.125   4.591
50566W        W16975  19.797   1.659  11.747
50567W        W16976  28.121  30.938  11.686
50568W        W16977  38.636  43.836   4.131
50569W        W16978  32.906  40.074   0.256
50570W        W16979  37.488   1.487   2.326
50571W        W16980   2.016  25.008   0.757
50572W        W16981  34.335  29.160  11.125
50573W        W16982  12.766  33.693  11.936
50574W        W16983  44.046  30.548   4.255
50575W        W16984  39.073  24.035  10.734
50576W        W16985  36.625  30.853   1.261
50577W        W16986  27.187  43.124  13.154
50578W        W16987   0.294  25.087   4.640
50579W        W16988   5.221  25.238  14.794
50580W        W16989  20.658  44.569   4.753
50581W        W16990  15.276  36.760   3.191
50582W        W16991   1.760  13.798   2.632
50583W        W16992  44.823  33.036   1.902
50584W        W16993  41.045  28.044   2.268
50585W        W16994   6.784  28.209  11.793
50586W        W16995  23.885  43.727   0.268
50587W        W16996  39.862  23.014  10.708
50588W        W16997  13.171  43.638   0.447
50589W        W16998  16.085  30.346  11.457
50590W        W16999   4.297  14.769   1.243
50591W        W17000   1.777  33.232   3.861
50592W        W17001  18.077  18.960  14.702
50593W        W17002  23.040  25.877  14.252
50594W        W17003  43.683   3.255  12.447
50595W        W17004   5.630  33.124   0.202
50596W        W17005  26.029  22.654   3.177
50597W        W17006  36.571   7.708  11.139
50598W        W17007  33.407  14.155   3.584
50599W        W17008  24.186  44.244  10.732
50600W        W17009  16.867  38.305   3.888
50601W        W17010  41.241  42.844   4.569
50602W        W17011   3.199  40.360  13.517
50603W        W17012  38.035  16.779  13.488
50604W        W17013  41.420  30.995   0.452
50605W        W17014  24.442  31.220  14.964
50606W        W17015   6.306  15.356  11.631
50607W        W17016  18.688   0.915  13.400
50608W        W17017  32.492  42.438  13.582
50609W        W17018  44.266  35.146  13.523
50610W        W17019   0.246  27.047  11.410
50611W        W17020  32.869  14.719   3.708
50612W        W17021  28.627  21.736  11.648
50613W        W17022  17.520  15.288  11.648
50614W        W17023  18.618   7.357  12.036
50615W        W17024   8.008  12.821  10.089
50616W        W17025  12.670  35.851   4.044
50617W        W17026  12.144   3.867  11.254
50618W        W17027  32.797  28.344   1.696
50619W        W17028  33.736  29.023   2.218
50620W        W17029   6.261  16.602   4.249
50621W        W17030  40.882   6.566   0.662
50622W        W17031  20.817  17.994  10.071
50623W        W17032  11.291  44.890  10.091
50624W        W17033   5.155  28.566  12.109
50625W        W17034   9.468   6.673   4.198
50626W        W17035   2.955   5.184   2.590
50627W        W17036  30.412  34.111   1.867
50628W        W17037  21.931   3.274   0.371
50629W        W17038   5.780  17.628   3.563
50630W        W17039   9.872  34.099  13.546
50631W        W17040  24.495  35.884  12.079
50632W        W17041   1.762  13.145   3.442
50633W        W17042   5.360  10.598  12.436
50634W        W17043   9.118  25.872   1.789
50635W        W17044  35.097   9.318  14.948
50636W        W17045  26.292   1.452  13.510
50637W        W17046  35.556  24.738   3.067
50638W        W17047   1.044  36.845   2.264
50639W        W17048  10.845  34.142  12.896
50640W        W17049  14.139   9.939   3.275
50641W        W17050   1.966  32.420  12.694
50642W        W17051  39.483   3.320  14.387
50643W        W17052  11.834  14.648   4.799
50644W        W17053   3.349  30.467   1.810
50645W        W17054   7.373  18.741  12.075
50646W        W17055  25.965   5.215   3.452
50647W        W17056  40.745  38.459  12.810
50648W        W17057  32.870  15.478  11.170
50649W        W17058   6.413   0.118   1.314
50650W        W17059   5.860   1.435  11.236
50651W        W17060  19.629  33.181   3.207
50652W        W17061  17.268  25.779  11.900
50653W        W17062  18.974   0.958   2.243
50654W        W17063  11.310  31.169  11.946
50655W        W17064  42.268  43.478   0.281
50656W        W17065  28.648  41.429   0.841
50657W        W17066  30.676  15.789   2.410
50658W        W17067  41.378   1.561   2.120
50659W        W17068   9.699  24.821  11.145
50660W        W17069   2.194  38.842  12.084
50661W        W17070  30.476   7.896   3.259
50662W        W17071  23.734  32.477  13.524
50663W        W17072  42.246   7.176  10.287
50664W        W17073  36.821   3.176  10.824
50665W        W17074  12.622  26.016   2.750
50666W        W17075  38.511  38.326   4.150
50667W        W17076  39.574  27.505  10.708
50668W        W17077  10.910  31.806   5.509
50669W        W17078  11.100   3.895  11.621
50670W        W17079  30.951  24.114   3.672
50671W        W17080  20.612  12.762  10.293
50672W        W17081  36.145  30.657   1.152
50673W        W17082  27.691   3.917   4.089
50674W        W17083  23.958   6.271   0.377
50675W        W17084   8.936  25.648  11.720
50676W        W17085  21.031  19.132  12.535
50677W        W17086   7.800  20.520  13.784
50678W        W17087  27.657  33.958  12.906
50679W        W17088  40.995   5.960   4.747
50680W        W17089  34.121  29.689  10.650
50681W        W17090  27.118  20.748   1.397
50682W        W17091  14.766  42.523   1.359
50683W        W17092  26.105  23.190  12.531
50684W        W17093  34.966  12.149   1.806
50685W        W17094  20.297   3.953  13.964
50686W        W17095  16.580   4.936   1.316
50687W        W17096  25.542  21.701   1.191
50688W        W17097  34.190  27.377   3.749
50689W        W17098   5.931  15.752   2.367
50690W        W17099  35.391  13.580   4.050
50691W        W17100  43.440   4.192   0.904
50692W        W17101  38.460  13.050  11.928
50693W        W17102  13.736  21.701   0.229
50694W        W17103  37.044  26.179   3.335
50695W        W17104  32.397  11.648   4.399
50696W        W17105   3.844  22.117   0.193
50697W        W17106  12.353   8.915   4.011
50698W        W17107  21.385  44.925  11.367
50699W        W17108  32.047  34.667   0.037
50700W        W17109  30.633   1.300   0.891
50701W        W17110  26.381  13.880   3.047
50702W        W17111  12.045  43.606  14.948
50703W        W17112  21.710   3.337  13.450
50704W        W17113  34.597  20.980  13.866
50705W        W17114  30.786  26.985   3.260
50706W        W17115  30.984  35.033  11.564
50707W        W17116   1.701  25.079  12.385
50708W        W17117  15.459  34.042  14.267
50709W        W17118  32.047   7.316   4.655
50710W        W17119  42.337  31.030  13.022
50711W        W17120  27.630  30.864   4.754
50712W        W17121   3.816  28.222   3.754
50713W        W17122  38.808  37.514   2.500
50714W        W17123  32.701  42.390  10.559
50715W        W17124  22.059  31.882   4.969
50716W        W17125  35.934  44.735   1.938
50717W        W17126   7.643  14.041  12.570
50718W        W17127  39.647   6.935  11.530
50719W        W17128  38.337   4.239  11.109
50720W        W17129  12.291  40.950   3.953
50721W        W17130  37.894  44.908   4.909
50722W        W17131  26.045  19.601  11.556
50723W        W17132  44.842  39.014   2.239
50724W        W17133   9.965  35.039  11.057
50725W        W17134  32.973  14.512   2.400
50726W        W17135  35.828  13.846  12.104
50727W        W17136  17.583  14.818   4.663
50728W        W17137  17.275  27.262   4.599
50729W        W17138  20.535  23.451   1.346
50730W        W17139  40.606  20.831  12.492
50731W        W17140  26.471  10.115  10.743
50732W        W17141   1.917  15.162  11.966
50733W        W17142  34.820  43.760  10.716
50734W        W17143   6.116  43.904  13.842
50735W        W17144   6.865  29.114   0.296
50736W        W17145  37.855  12.083   0.311
50737W        W17146   9.151  10.847  13.021
50738W        W17147   9.086   4.197   4.084
50739W        W17148   7.922  15.548  10.945
50740W        W17149  28.395   5.271   3.044
50741W        W17150  25.162  38.315   3.617
50742W        W17151  27.973  22.798   5.297
50743W        W17152  24.290   9.348  12.072
50744W        W17153  33.241   1.238  14.347
50745W        W17154  17.110   1.350   0.179
50746W        W17155  38.093  38.676   4.236
50747W        W17156  26.178  19.140   3.778
50748W        W17157   4.388  34.508  14.066
50749W        W17158   5.589  28.526   2.685
50750W        W17159  43.976  32.402  14.061
50751W        W17160  30.304  36.675   1.763
50752W        W17161  28.482  37.464   0.375
50753W        W17162  34.492   3.439  14.921
50754W        W17163  44.275  26.203   1.064
50755W        W17164   4.473  14.596   2.667
50756W        W17165   2.151  29.133  14.606
50757W        W17166  37.881  31.397  10.761
50758W        W17167  39.380  26.019   3.467
50759W        W17168  19.328  22.556  11.681
50760W        W17169   0.483   4.179   4.346
50761W        W17170  22.497  23.953  10.638
50762W        W17171  24.974   9.161   1.736
50763W        W17172   4.005  15.216   4.226
50764W        W17173  43.350   8.673   2.453
50765W        W17174  28.517  30.475   3.751
50766W        W17175  32.858  17.448  12.808
50767W        W17176  41.977  15.837  11.596
50768W        W17177   1.730  34.950  14.894
50769W        W17178  36.783  35.029   9.864
50770W        W17179   6.281  32.728   4.926
50771W        W17180  43.826  12.619   4.153
50772W        W17181   4.202   8.704   1.721
50773W        W17182  31.031  28.899  13.931
50774W        W17183  12.223  36.382   0.817
50775W        W17184   7.632   6.890   3.703
50776W        W17185  37.571  30.356  14.498
50777W        W17186  25.613  20.532   1.847
50778W        W17187   6.850  18.227  13.450
50779W        W17188  19.035  35.118   3.802
50780W        W17189  39.151  26.270  11.170
50781W        W17190  20.177  16.561   3.182
50782W        W17191  22.741   9.899  12.528
50783W        W17192  38.796   6.242   3.684
50784W        W17193  43.836  21.581  13.440
50785W        W17194   9.758  18.686   1.005
50786W        W17195  26.285  39.833   2.976
50787W        W17196  32.610  30.844  13.935
50788W        W17197   5.084   9.981   4.193
50789W        W17198   7.611   4.979  11.624
50790W        W17199   5.627   2.833   2.391
50791W        W17200  37.852  16.380   0.692
50792W        W17201   6.898  14.750   0.379
50793W        W17202   9.427  42.824  13.840
50794W        W17203  15.732  31.714   1.359
50795W        W17204  23.788  44.904  13.132
50796W        W17205  33.899  42.843   1.051
50797W        W17206  37.105  29.404   2.363
50798W        W17207  10.671   9.158   4.861
50799W        W17208   0.473  21.730  13.867
50800W        W17209  35.602  16.566  11.148
50801W        W17210  44.862   5.806   0.656
50802W        W17211  31.790   0.477   2.934
50803W        W17212   1.544  11.173  12.403
50804W        W17213  31.999   2.515   1.580
50805W        W17214  43.098   7.323   1.117
50806W        W17215  29.574  16.075  13.491
50807W        W17216  37.050  29.877  10.497
50808W        W17217  30.610  13.570   1.753
50809W        W17218   1.793  27.164   3.675
50810W        W17219  19.174  35.652  11.090
50811W        W17220  11.116  33.915  14.339
50812W        W17221  24.504  42.402   1.386
50813W        W17222  27.710  22.309   1.725
50814W        W17223   8.561  25.066  13.841
50815W        W17224  44.695  31.354  14.371
50816W        W17225  28.234  12.280  10.299
50817W        W17226  36.567  24.024  13.484
50818W        W17227   9.801   9.942   2.172
50819W        W17228  18.042  14.835  11.597
50820W        W17229  28.147   9.360   1.864
50821W        W17230   1.215  35.031  14.798
50822W        W17231  41.786  42.398   1.964
50823W        W17232   0.446  14.068   1.746
50824W        W17233  12.308  12.625  11.110
50825W        W17234  17.541   3.955  11.632
50826W        W17235  40.673  28.053   0.270
50827W        W17236  34.443  34.976   1.265
50828W        W17237   4.754  15.588  11.671
50829W        W17238  24.726  33.559  13.707
50830W        W17239  12.195   5.165  14.373
50831W        W17240  18.959  40.081  13.948
50832W        W17241  28.140  17.846   1.357
50833W        W17242   7.905  30.355   1.868
50834W        W17243  12.200  14.299   2.201
50835W        W17244  38.446  26.563  13.319
50836W        W17245  23.245  13.218   3.638
50837W        W17246  15.713  22.861  14.743
50838W        W17247  27.868  22.627   0.964
50839W        W17248   4.234  33.608   1.913
50840W        W17249  26.498  12.878   4.030
50841W        W17250  29.562  26.859   0.112
50842W        W17251  35.541   8.317   1.065
50843W        W17252  28.146   3.444  12.855
50844W        W17253  33.923   6.329  13.827
50845W        W17254  13.880  39.432  14.017
50846W        W17255  29.541  14.723   0.047
50847W        W17256  39.367   1.736   3.697
50848W        W17257  26.274  21.230  13.915
50849W        W17258  38.904  29.525  13.774
50850W        W17259  35.553   4.727   2.920
50851W        W17260   2.889  13.282  14.303
50852W        W17261   5.825   4.954   1.315
50853W        W17262  25.029  36.628   2.355
50854W        W17263   0.453   7.306   3.757
50855W        W17264  34.032  26.960   0.934
50856W        W17265  11.228  33.940   1.896
50857W        W17266  12.689  12.352  12.199
50858W        W17267  43.366  30.653   4.779
50859W        W17268  15.100  28.565  13.887
50860W        W17269  33.984  12.606   1.908
50861W        W17270  44.804  41.011  12.191
50862W        W17271  13.143  17.285   1.022
50863W        W17272  39.822  42.898   1.761
50864W        W17273  14.835  42.361  13.244
50865W        W17274  43.447  39.054   1.724
50866W        W17275  33.431  36.816  13.570
50867W        W17276  43.755   3.305   0.216
50868W        W17277  44.482  43.894  10.727
50869W        W17278  18.659   5.830  11.145
50870W        W17279  41.370  30.109  12.557
50871W        W17280  23.298  25.271  12.877
50872W        W17281   7.603  18.101   4.976
50873W        W17282   8.329   3.923  10.507
50874W        W17283   5.215  14.632   1.943
50875W        W17284   1.939  21.342   1.739
50876W        W17285  14.369  39.421  11.586
50877W        W17286  32.861  41.628  11.779
50878W        W17287  42.287  11.828  12.429
50879W        W17288   9.161  38.322   4.137
50880W        W17289   2.415  39.978   2.626
50881W        W17290  41.242  12.699   3.456
50882W        W17291   6.896  32.172   9.512
50883W        W17292  18.467   8.557   0.736
50884W        W17293  39.821  38.827   1.893
50885W        W17294  13.715  16.556  13.560
50886W        W17295   3.263  32.323  10.364
50887W        W17296  12.834  27.485  11.127
50888W        W17297  26.923   3.692  11.192
50889W        W17298  19.712  44.490  14.235
50890W        W17299  20.307  29.056   3.649
50891W        W17300  16.719  44.537   2.320
50892W        W17301   7.840  30.480   0.003
50893W        W17302   1.280  19.942   0.904
50894W        W17303  30.720  30.648   2.263
50895W        W17304   9.058  41.331  11.645
50896W        W17305  24.529  21.097   0.809
50897W        W17306  13.171   0.956   0.438
50898W        W17307   3.339  29.490   0.881
50899W        W17308  19.079   0.604   0.999
50900W        W17309  39.088  30.837   3.225
50901W        W17310   4.763   0.991  13.029
50902W        W17311  17.803  20.327   5.069
50903W        W17312  23.021  32.956   3.157
50904W        W17313  18.339  36.116   2.762
50905W        W17314  41.317  15.974   1.179
50906W        W17315  25.794  30.006   3.224
50907W        W17316  44.422  12.450  11.208
50908W        W17317  20.942   0.351   0.228
50909W        W17318  44.787  17.642   5.013
50910W        W17319  13.269  38.750  12.480
50911W        W17320  24.444  17.263   1.882
50912W        W17321  17.744   2.426   3.334
50913W        W17322   5.755  34.732  12.850
50914W        W17323   8.945  39.814  13.071
50915W        W17324  10.314  39.135  14.028
50916W        W17325  32.394  37.156   4.153
50917W        W17326  34.101  12.092   1.886
50918W        W17327   5.454  38.880   1.303
50919W        W17328  31.810  14.452   5.190
50920W        W17329  10.858  13.331   3.002
50921W        W17330  12.723  11.984   1.713
50922W        W17331  27.372  36.412   3.989
50923W        W17332  13.730  24.144   2.404
50924W        W17333  30.380   2.387  14.844
50925W        W17334  19.101  15.050  14.024
50926W        W17335   2.456  18.984   4.132
50927W        W17336  11.445  13.131   0.442
50928W        W17337  13.583  15.340  12.597
50929W        W17338  15.612  32.667   0.769
50930W        W17339   0.498  41.495  11.107
50931W        W17340   3.162  36.973   1.859
50932W        W17341  39.594  29.638   4.168
50933W        W17342  29.954   3.823  13.246
50934W        W17343  20.750  23.900   2.269
50935W        W17344   9.609  18.788  12.586
50936W        W17345  31.630  26.581   4.041
50937W        W17346  40.879  23.003   2.934
50938W        W17347  29.615   6.827   3.194
50939W        W17348  15.629  35.056  12.962
50940W        W17349   1.777   8.848  14.788
50941W        W17350  26.480  33.356  13.312
50942W        W17351  18.224  26.623   2.658
50943W        W17352   9.729  33.434   3.525
50944W        W17353  17.843  21.931  10.203
50945W        W17354  43.432  40.588  13.743
50946W        W17355   9.138  23.679  10.432
50947W        W17356   9.119   3.939   3.634
50948W        W17357  35.446  43.844   1.744
50949W        W17358   3.267  38.802   3.515
50950W        W17359   0.681   9.847   2.266
50951W        W17360   4.413  41.550   2.771
50952W        W17361   0.183  21.449   3.257
50953W        W17362  21.084   1.638   2.809
50954W        W17363  41.592  21.878   3.049
50955W        W17364   8.333  35.249  14.287
50956W        W17365   6.619   8.842  13.589
50957W        W17366  11.271  41.474  13.062
50958W        W17367  12.619  39.871  12.953
50959W        W17368  33.967  41.422   2.226
50960W        W17369  25.398  30.095   1.461
50961W        W17370  25.339   7.797   2.302
50962W        W17371  10.826  42.857   2.765
50963W        W17372   2.118  38.837  11.163
50964W        W17373   8.297  43.425  13.119
50965W        W17374  36.246  10.663   2.323
50966W        W17375  13.162  14.099   0.300
50967W        W17376  42.768  38.361  12.538
50968W        W17377  25.600   3.371  13.136
50969W        W17378   1.959  37.956   0.852
50970W        W17379  41.964  22.718  13.902
50971W        W17380  39.107  25.391   4.896
50972W        W17381  25.739   1.354   3.606
50973W        W17382   5.256  39.146  11.419
50974W        W17383  19.699   9.938  13.405
50975W        W17384   4.093  15.584   0.812
50976W        W17385  11.780  16.670  11.553
50977W        W17386   0.718  33.815   1.337
50978W        W17387   5.778  30.478   1.355
50979W        W17388   4.225  26.075  11.323
50980W        W17389  14.534  42.767  10.515
50981W        W17390  39.460  42.061  13.517
50982W        W17391  39.804  22.019  12.434
50983W        W17392  10.418  35.946  13.586
50984W        W17393   6.110  33.346   1.917
50985W        W17394  31.071  15.699  13.937
50986W        W17395  41.457  16.284  14.911
50987W        W17396   6.769  23.771  13.271
50988W        W17397  34.794  10.291   3.304
50989W        W17398  42.283  23.018  10.684
50990W        W17399  42.544  31.070  12.128
50991W        W17400  26.207  23.290  13.427
50992W        W17401  27.947  34.716  13.395
50993W        W17402  25.167  42.895  11.352
50994W        W17403   2.363  16.087   0.365
50995W        W17404   8.761   5.172  11.049
50996W        W17405  14.881  20.960  12.491
50997W        W17406  33.532   8.376  14.001
50998W        W17407  28.976   1.442  12.949
50999W        W17408  26.565  12.440   4.795
51000W        W17409   8.933  20.692   1.177
51001W        W17410  10.613  23.499  14.939
51002W        W17411  38.481   9.627  12.116
51003W        W17412  43.770  19.714   1.760
51004W        W17413   5.977   9.643  14.471
51005W        W17414  28.728  42.077   0.565
51006W        W17415   9.985  22.532  11.650
51007W        W17416  35.340  30.134  11.090
51008W        W17417  11.933   2.723   4.420
51009W        W17418   9.454  31.804   9.925
51010W        W17419   3.736   1.261   1.334
51011W        W17420   2.187  34.104  12.527
51012W        W17421  44.746   8.357  13.898
51013W        W17422   8.632  42.900   3.224
51014W        W17423  37.054  26.183   1.793
51015W        W17424   3.765  12.826   3.990
51016W        W17425   7.146  15.662   2.009
51017W        W17426  14.544  35.855   0.974
51018W        W17427   6.606  19.114   0.207
51019W        W17428  25.474  15.992  11.234
51020W        W17429  44.207  32.127  11.819
51021W        W17430  40.507  38.969   5.245
51022W        W17431  13.918  25.831   2.884
51023W        W17432  42.989  21.143  13.352
51024W        W17433  44.828  13.864  14.259
51025W        W17434   0.881  42.201   4.788
51026W        W17435  15.385  37.848  13.050
51027W        W17436  28.562  21.776  14.534
51028W        W17437  15.108  33.511  13.493
51029W        W17438   5.526   4.499  12.987
51030W        W17439   7.182  27.025   1.185
51031W        W17440  17.561   9.285  13.192
51032W        W17441  12.763   2.695  13.074
51033W        W17442  43.055  18.306   2.398
51034W        W17443  13.411  28.124   2.695
51035W        W17444  43.293  27.636   4.765
51036W        W17445  40.779  11.424   1.987
51037W        W17446  39.724  13.515  13.819
51038W        W17447  12.884  30.918  11.627
51039W        W17448  11.221  11.894  10.412
51040W        W17449  35.941  30.409   3.048
51041W        W17450  27.457  19.592   3.593
51042W        W17451   9.313  42.991   4.379
51043W        W17452  10.363  33.646   9.843
51044W        W17453   3.761  43.869   3.639
51045W        W17454  42.810  15.893   2.167
51046W        W17455  16.247  29.510   4.072
51047W        W17456  43.465  32.622  13.959
51048W        W17457   1.485  22.056  11.283
51049W        W17458  25.598  43.039  10.660
51050W        W17459  11.698   0.610  13.791
51051W        W17460  33.566   2.672   1.437
51052W        W17461  29.831  29.188  14.432
51053W        W17462  28.042  20.954   4.092
51054W        W17463  40.857  21.624   4.608
51055W        W17464   4.243  38.373   4.055
51056W        W17465  34.129  35.522  13.613
51057W        W17466  27.618  41.526   1.084
51058W        W17467  23.067  20.120  12.682
51059W        W17468   7.039  18.838  11.686
51060W        W17469  23.403  19.495  11.500
51061W        W17470   3.897  27.852   0.459
51062W        W17471   2.864  28.252  13.372
51063W        W17472  14.884  35.104  11.189
51064W        W17473  31.214  25.077   3.195
51065W        W17474   8.883  30.576  11.446
51066W        W17475   2.926  18.598  11.646
51067W        W17476  25.637   7.921   1.852
51068W        W17477  29.177  40.015   1.894
51069W        W17478  19.270  32.486  13.150
51070W        W17479  21.384  39.065   5.062
51071W        W17480  29.486   6.304  11.719
51072W        W17481  31.954  40.982   0.286
51073W        W17482  30.125  40.492  12.102
51074W        W17483  41.588   4.232   2.769
51075W        W17484  27.452  34.002   3.417
51076W        W17485   7.535  21.315  13.788
51077W        W17486   2.657   4.195  13.754
51078W        W17487  33.615  21.235  14.689
51079W        W17488   2.746  19.965   4.122
51080W        W17489  24.395  15.666  11.064
51081W        W17490  18.536  10.985   3.288
51082W        W17491   8.756   8.158  11.150
51083W        W17492  25.035  40.889  14.050
51084W        W17493  28.015  11.382  11.943
51085W        W17494  39.285  29.904   2.467
51086W        W17495  20.927  38.409   1.163
51087W        W17496  16.795   6.507  13.878
51088W        W17497  28.000  12.171   9.851
51089W        W17498  17.839  24.668   0.058
51090W        W17499  29.155  32.600  12.003
51091W        W17500  23.850  17.134   3.726
51092W        W17501  28.327  19.562   4.179
51093W        W17502  41.714  24.042  10.320
51094W        W17503   8.249  11.679  13.945
51095W        W17504   8.490  28.248   0.804
51096W        W17505   7.133  26.433  12.025
51097W        W17506  13.421   2.208   1.247
51098W        W17507   3.884  43.916  10.362
51099W        W17508  26.694  23.066  13.383
51100W        W17509  14.590   3.584   2.704
51101W        W17510  28.777  30.377   4.189
51102W        W17511   5.434  43.459  11.220
51103W        W17512  42.863   7.345  14.566
51104W        W17513  24.488  33.143   3.348
51105W        W17514  41.884  38.774   0.504
51106W        W17515   7.823   3.927   1.030
51107W        W17516   8.319  15.309  10.669
51108W        W17517  35.904  23.779  11.694
51109W        W17518  43.635  32.867  14.387
51110W        W17519   4.759  37.187  10.307
51111W        W17520   1.788  37.887   3.323
51112W        W17521  12.042   0.065  10.204
51113W        W17522  37.103  27.072   3.134
51114W        W17523  14.596   5.233  14.839
51115W        W17524  22.563   0.656   3.892
51116W        W17525   7.488  32.983   0.023
51117W        W17526  30.411   5.889   3.653
51118W        W17527   5.344  21.376   0.204
51119W        W17528  10.794  42.308  12.950
51120W        W17529   6.195  12.912   1.330
51121W        W17530  21.635  30.589   3.402
51122W        W17531   2.387  35.592  12.188
51123W        W17532  41.018  36.836  11.648
51124W        W17533   5.882  27.124  10.782
51125W        W17534  24.628   3.438   2.041
51126W        W17535   2.878   6.753   3.943
51127W        W17536   2.769  36.754  14.752
51128W        W17537  26.007  35.050  12.109
51129W        W17538   6.418  19.788  14.969
51130W        W17539   9.399  25.770   4.174
51131W        W17540  37.007   4.743   4.077
51132W        W17541  31.429  24.198   3.845
51133W        W17542   2.347  42.017   3.800
51134W        W17543   3.793   2.829   3.067
51135W        W17544  44.475  29.930   1.458
51136W        W17545  12.299  25.021  10.653
51137W        W17546  28.978  39.090  14.808
51138W        W17547  36.772  12.838  14.854
51139W        W17548  20.665  12.261   1.726
51140W        W17549  17.276  34.547   2.773
51141W        W17550  40.483  12.814  13.957
51142W        W17551  20.469  32.098  11.200
51143W        W17552  38.273  22.621   0.605
51144W        W17553   6.255   3.640  13.794
51145W        W17554  38.145  11.217   0.587
51146W        W17555  33.841  27.418  11.611
51147W        W17556  13.244  38.215   2.144
51148W        W17557   0.667  31.924   4.633
51149W        W17558  13.438  25.350   5.175
51150W        W17559  23.149   7.792  11.578
51151W        W17560   5.728   4.839  11.177
51152W        W17561  39.481  40.292  13.600
51153W        W17562   4.557   8.269   1.802
51154W        W17563  35.099  26.177   3.511
51155W        W17564  37.028  28.224  11.475
51156W        W17565  44.435  39.030   3.069
51157W        W17566  11.776  20.219   4.539
51158W        W17567  41.103  11.232   0.234
51159W        W17568  23.119  29.686  11.756
51160W        W17569   8.924   4.470   2.589
51161W        W17570   7.286   9.139   4.202
51162W        W17571   1.267  24.607   3.922
51163W        W17572  25.551   4.057  11.887
51164W        W17573  35.302  21.524  13.928
51165W        W17574   4.723  27.630  14.326
51166W        W17575  35.912   8.947  12.905
51167W        W17576   4.843  11.596  11.930
51168W        W17577   7.780  14.552  12.452
51169W        W17578   2.076  34.361   0.497
51170W        W17579   4.265  29.708   2.565
51171W        W17580  39.420  23.810   0.494
51172W        W17581   9.192  41.599   0.789
51173W        W17582  43.114  32.492   3.775
51174W        W17583  39.029  43.766   1.009
51175W        W17584   3.367  40.031   2.903
51176W        W17585  37.906  17.545   2.519
51177W        W17586  21.289  25.421   3.783
51178W        W17587  32.794  15.887   4.312
51179W        W17588   9.867  29.518   0.030
51180W        W17589  36.645  33.990   0.982
51181W        W17590  18.498  44.521  13.241
51182W        W17591  41.799  31.615   3.791
51183W        W17592  22.626  33.191   1.207
51184W        W17593  24.997  35.909   2.864
51185W        W17594  18.315  37.980  13.862
51186W        W17595  23.635  24.194   4.134
51187W        W17596  41.982  28.399   1.770
51188W        W17597  13.573  26.944   4.730
51189W        W17598  42.263  39.348  12.121
51190W        W17599  43.043  25.396   0.347
51191W        W17600   1.769  15.298   1.574
51192W        W17601   4.688  25.393   5.038
51193W        W17602  23.525  28.133  13.431
51194W        W17603   0.478  43.724   0.841
51195W        W17604   3.370  34.383  14.280
51196W        W17605  24.433  44.434  14.292
51197W        W17606  33.451   6.413  12.088
51198W        W17607  18.640   3.203   4.147
51199W        W17608  29.453   0.519   4.537
51200W        W17609  17.313  22.795  11.448
51201W        W17610   8.038  14.153   4.741
51202W        W17611  21.543   9.898  10.741
51203W        W17612  31.684  38.474  13.136
51204W        W17613   1.638  13.687  13.154
51205W        W17614  39.312  25.818   2.263
51206W        W17615  14.131   7.252  13.770
51207W        W17616  35.509   1.162  14.236
51208W        W17617  14.787  15.063   2.810
51209W        W17618  32.490   7.281   0.015
51210W        W17619  13.101  16.628  14.452
51211W        W17620  33.595  31.624  14.908
51212W        W17621  15.726  24.922  12.494
51213W        W17622  21.081  10.785  12.068
51214W        W17623  18.656  23.654   4.054
51215W        W17624   9.710  21.511   1.912
51216W        W17625  30.664  12.509   0.900
51217W        W17626   5.646  13.221  10.731
51218W        W17627  22.046  34.171   3.207
51219W        W17628  27.760  39.686  12.546
51220W        W17629  40.104   9.334   1.333
51221W        W17630  34.993  34.367   2.707
51222W        W17631  15.047  20.531   0.265
51223W        W17632   0.275   0.296   0.921
51224W        W17633  42.230  18.199   4.610
51225W        W17634  33.155  32.245   0.649
51226W        W17635  39.007  19.682   2.185
51227W        W17636  16.506  35.394  13.927
51228W        W17637  44.450   3.486  12.825
51229W        W17638  24.476  30.440   1.711
51230W        W17639  21.102  33.416  14.699
51231W        W17640   0.382  11.121  10.528
51232W        W17641  31.849  28.870  13.424
51233W        W17642  33.186  31.967  12.055
51234W        W17643  26.100  20.704   4.080
51235W        W17644  41.890  41.359  14.063
51236W        W17645   0.540  36.930   2.226
51237W        W17646  26.118  17.718   0.002
51238W        W17647  40.345  21.749  12.844
51239W        W17648  42.423  26.008  12.556
51240W        W17649   2.840  11.830   0.734
51241W        W17650  13.221   3.522  11.080
51242W        W17651  14.238  35.874   1.416
51243W        W17652  34.081  32.500   0.814
51244W        W17653  39.232   2.964   0.373
51245W        W17654  25.826  25.678   3.664
51246W        W17655  16.148  17.365  10.635
51247W        W17656  24.748  31.684   1.040
51248W        W17657  44.678  23.593  10.392
51249W        W17658  40.599  37.579  11.567
51250W        W17659  11.811  14.364  14.067
51251W        W17660  32.681  23.078  13.072
51252W        W17661  24.245  43.483  14.302
51253W        W17662  23.968  14.862  11.171
51254W        W17663  10.782  44.463  13.071
51255W        W17664  43.863  42.567   1.172
51256W        W17665  18.853  22.690  14.774
51257W        W17666  39.013  11.278   1.321
51258W        W17667  44.745  25.092   0.519
51259W        W17668  42.999  25.089   3.978
51260W        W17669  28.055  16.380   2.591
51261W        W17670  42.739  38.491  14.599
51262W        W17671  16.359  14.010   2.694
51263W        W17672  12.165   9.807   1.194
51264W        W17673   3.280   7.829   2.858
51265W        W17674  18.611  15.022  14.247
51266W        W17675  10.739   7.442   4.000
51267W        W17676  22.720   1.972   0.494
51268W        W17677  24.664  11.665  10.458
51269W        W17678  20.906  41.839   0.326
51270W        W17679  24.254  28.073   3.642
51271W        W17680  22.485   4.936  13.304
51272W        W17681   7.229   0.911   3.107
51273W        W17682   4.762   4.932  14.119
51274W        W17683  36.369  44.070   0.710
51275W        W17684   1.868  18.553  13.782
51276W        W17685  36.481   4.379   2.962
51277W        W17686  18.394   6.638  10.834
51278W        W17687  23.475  22.482  11.719
51279W        W17688   5.846  15.079  11.585
51280W        W17689  12.366  27.421  14.783
51281W        W17690  27.524  34.427   1.641
51282W        W17691  38.700   4.221  12.592
51283W        W17692  33.362  14.805   3.819
51284W        W17693   7.453   1.696   2.119
51285W        W17694  44.287   4.471  10.708
51286W        W17695   1.726  22.938   3.766
51287W        W17696   0.775  12.988   4.119
51288W        W17697  36.021   6.487  10.228
51289W        W17698  30.091  40.166   4.920
51290W        W17699  18.534  18.966  11.601
51291W        W17700  41.465   2.296   4.386
51292W        W17701  16.220  18.390   2.628
51293W        W17702   3.460  26.245   1.281
51294W        W17703  13.559  22.160   0.931
51295W        W17704  44.822  16.063   2.801
51296W        W17705  16.518  21.563   1.666
51297W        W17706  18.630  38.980  13.399
51298W        W17707  36.874  18.170  13.966
51299W        W17708  22.752  30.423   2.782
51300W        W17709  29.529  31.945  13.391
51301W        W17710   3.452  10.245   3.549
51302W        W17711  31.632  13.842  12.080
51303W        W17712  42.498   8.491   9.987
51304W        W17713  26.348  10.943  10.987
51305W        W17714  16.813  42.002   1.833
51306W        W17715  41.549   8.080   2.125
51307W        W17716  26.734   7.434  12.047
51308W        W17717  15.918   7.735  10.848
51309W        W17718  24.968  41.344   1.249
51310W        W17719  43.429   4.975   2.730
51311W        W17720  16.210  14.209   2.231
51312W        W17721  32.008  11.683  12.478
51313W        W17722  10.729  25.158  12.159
51314W        W17723   3.045  18.310  13.952
51315W        W17724  29.172  29.396   2.934
51316W        W17725  32.635  38.793  11.079
51317W        W17726  14.790  18.258  10.991
51318W        W17727  31.391   7.910  14.514
51319W        W17728  41.552  11.363   3.025
51320W        W17729  32.363   4.782   1.437
51321W        W17730   9.626   4.861  10.572
51322W        W17731  19.552  14.309   4.151
51323W        W17732  29.321  12.764   4.654
51324W        W17733  14.347  38.572   2.606
51325W        W17734  17.591  39.285   3.179
51326W        W17735  24.542   3.179   9.768
51327W        W17736  11.841   0.383   3.770
51328W        W17737  14.155  36.607   3.204
51329W        W17738  27.458  43.656   0.661
51330W        W17739  36.041  38.934   2.429
51331W        W17740  22.091  10.841  13.051
51332W        W17741   9.405  31.137   2.174
51333W        W17742  24.480  29.893  13.881
51334W        W17743  43.242  14.644   0.768
51335W        W17744  27.113  36.307   1.304
51336W        W17745  27.614  39.574   1.336
51337W        W17746   8.091  33.298  12.341
51338W        W17747  13.501  32.483  12.883
51339W        W17748  44.494   8.601   4.971
51340W        W17749  44.698   1.483  12.146
51341W        W17750  39.943  22.294  13.413
51342W        W17751  30.874   3.782   0.443
51343W        W17752   0.508  14.664  13.799
51344W        W17753  14.811   2.148  14.537
51345W        W17754  18.486  38.066   2.241
51346W        W17755  41.782  10.878  11.424
51347W        W17756   3.746  12.588  12.359
51348W        W17757   1.260   8.851  11.146
51349W        W17758   0.186  43.315  13.519
51350W        W17759   6.069  22.506  13.984
51351W        W17760   1.021   5.200   2.387
51352W        W17761   5.158  40.049   0.072
51353W        W17762   9.432  39.391   1.335
51354W        W17763  43.779  10.526  14.427
51355W        W17764  37.377   5.456  13.887
51356W        W17765  12.555  19.810   1.780
51357W        W17766  11.546  12.891   1.829
51358W        W17767  33.800  38.625  14.856
51359W        W17768  16.419   4.971  12.513
51360W        W17769  34.989  11.654   0.464
51361W        W17770  21.245  25.984   4.485
51362W        W17771  14.055   9.690  13.875
51363W        W17772  23.545   9.413   3.330
51364W        W17773  27.685  29.059   4.145
51365W        W17774  12.627  15.135   4.668
51366W        W17775  43.649  14.154  14.819
51367W        W17776   0.098  38.428   3.985
51368W        W17777   8.707  23.991  11.066
51369W        W17778  37.328  12.772  14.948
51370W        W17779  31.921  30.956   5.065
51371W        W17780  11.251  31.694  13.915
51372W        W17781   2.660   4.730  12.767
51373W        W17782  11.660  19.179  11.994
51374W        W17783  33.358  37.873  12.144
51375W        W17784  10.243   4.965   2.638
51376W        W17785  21.485  15.142   3.765
51377W        W17786  35.926  32.521  12.958
51378W        W17787   5.656  39.818   0.345
51379W        W17788  28.143  13.922   5.103
51380W        W17789  43.399  25.750  10.893
51381W        W17790  35.551  40.283  10.702
51382W        W17791  40.283  14.225   2.321
51383W        W17792  18.083  15.306  12.523
51384W        W17793  22.752  37.431  10.210
51385W        W17794  32.550  44.148   2.726
51386W        W17795  15.921   5.474   1.261
51387W        W17796   3.003   0.886  12.125
51388W        W17797  40.221  39.839  12.623
51389W        W17798   4.180  43.012   1.234
51390W        W17799  27.382  24.570   0.335
51391W        W17800   0.788  14.493   1.747
51392W        W17801  32.709  35.577  11.613
51393W        W17802  17.290  17.811  12.128
51394W        W17803   2.370  40.783   1.741
51395W        W17804  22.387  33.915   4.523
51396W        W17805  29.039   3.150  13.617
51397W        W17806  23.513   4.258   4.751
51398W        W17807   7.467  28.618  11.646
51399W        W17808   1.534  11.485  11.084
51400W        W17809  40.001  35.641  11.583
51401W        W17810  37.459  23.045   0.460
51402W        W17811   8.924  21.971  11.097
51403W        W17812  26.331  44.240   0.991
51404W        W17813  37.872  41.473   2.191
51405W        W17814  15.762   6.079  14.501
51406W        W17815   8.202  37.547  13.300
51407W        W17816  26.654  35.476   2.942
51408W        W17817  24.501  35.918  14.691
51409W        W17818  28.986  11.135  12.927
51410W        W17819   5.319  17.944  13.863
51411W        W17820  12.459  40.902  12.048
51412W        W17821  11.280  38.488  10.837
51413W        W17822  44.775  27.956  13.938
51414W        W17823  20.060  31.425  10.180
51415W        W17824   0.305  44.317   1.688
51416W        W17825  17.028   5.183  14.399
51417W        W17826   8.375   7.134   0.670
51418W        W17827  29.589  14.410   1.505
51419W        W17828  27.163  24.735  11.184
51420W        W17829   9.907  42.472   0.925
51421W        W17830  34.477  11.075   0.054
51422W        W17831   8.296   6.256   3.810
51423W        W17832  28.471   6.475   1.558
51424W        W17833  10.702  16.496  10.380
51425W        W17834  30.254  36.319   1.233
51426W        W17835  12.881   6.929  14.349
51427W        W17836  34.589  16.539  13.401
51428W        W17837   7.947  28.047   0.940
51429W        W17838  39.885  15.061  12.574
51430W        W17839  19.681  30.339  11.138
51431W        W17840  12.649  38.823  12.028
51432W        W17841  37.768  25.734  11.029
51433W        W17842  16.238  32.852  10.699
51434W        W17843  24.900  19.051  10.447
51435W        W17844  44.928  18.143   5.030
51436W        W17845  40.972   0.249   0.718
51437W        W17846   6.357  30.934  11.159
51438W        W17847  37.000  34.052  11.602
51439W        W17848  18.303  24.235   2.393
51440W        W17849  42.999  14.583   2.235
51441W        W17850  27.616  34.748  12.584
51442W        W17851  17.475  22.732  12.105
51443W        W17852  44.357   8.078   2.465
51444W        W17853  36.967   3.809  12.365
51445W        W17854   9.206   8.532   5.384
51446W        W17855  21.612  41.841   2.681
51447W        W17856  36.753  41.355  12.448
51448W        W17857  41.392  19.148   4.313
51449W        W17858  35.246  10.288  14.104
51450W        W17859  16.502  43.869  10.577
51451W        W17860  16.117  18.694   4.025
51452W        W17861  44.518  39.590  14.926
51453W        W17862  39.091  16.681   5.227
51454W        W17863  44.909  43.035  13.137
51455W        W17864   8.160  17.602   1.686
51456W        W17865  28.385  34.797  11.644
51457W        W17866  13.686  39.070  13.313
51458W        W17867  21.102  39.536   2.051
51459W        W17868  20.839  33.686   4.932
51460W        W17869   7.463  15.572   2.410
51461W        W17870   2.266   2.442   2.383
51462W        W17871   7.161   3.855  13.822
51463W        W17872  24.612  35.303   2.437
51464W        W17873  34.492  36.065   1.075
51465W        W17874  22.963  38.012   3.404
51466W        W17875  25.052  26.095  11.238
51467W        W17876  18.160  43.035   3.614
51468W        W17877  40.018  24.200   2.239
51469W        W17878  38.322   4.692   2.834
51470W        W17879  43.357   5.259   1.368
51471W        W17880   8.360  35.072  12.894
51472W        W17881   9.666   4.260   3.226
51473W        W17882  33.142  29.502  14.480
51474W        W17883  39.227   5.784  12.376
51475W        W17884  18.766  14.737  12.015
51476W        W17885   1.035  21.559   3.714
51477W        W17886  27.251  33.899   0.228
51478W        W17887  26.545   1.169  13.025
51479W        W17888  36.560  36.929   0.442
51480W        W17889   3.919  15.075  13.020
51481W        W17890   6.936  16.672  14.827
51482W        W17891  29.742  12.533   1.154
51483W        W17892  11.706  35.754  13.318
51484W        W17893  12.071  21.586  11.467
51485W        W17894  41.559  14.905   2.653
51486W        W17895  23.017  36.814   0.294
51487W        W17896  26.532  10.703   2.339
51488W        W17897   1.581  29.958   2.158
51489W        W17898  37.081  39.821  12.937
51490W        W17899  34.122  31.947   0.719
51491W        W17900  34.031  13.816   0.630
51492W        W17901  41.945  38.487   4.613
51493W        W17902  40.944  44.205   4.772
51494W        W17903   9.016   0.053  11.692
51495W        W17904  33.419  22.857   0.757
51496W        W17905  10.845  36.697   4.677
51497W        W17906  20.156   6.389   1.442
51498W        W17907  41.484  41.130  12.140
51499W        W17908  28.141  39.397   0.416
51500W        W17909   6.850   9.354   2.435
51501W        W17910  36.432  31.896   3.640
51502W        W17911   4.337  11.747   2.361
51503W        W17912  25.605  20.653   2.371
51504W        W17913  19.638  20.315   0.781
51505W        W17914  38.334  26.226  10.890
51506W        W17915  35.787  33.901  12.950
51507W        W17916  17.032  35.998   1.396
51508W        W17917  37.130  29.204   0.805
51509W        W17918  41.986  22.604   4.602
51510W        W17919   7.992  24.744   3.336
51511W        W17920  43.986  10.700  12.977
51512W        W17921  27.845  44.452   3.290
51513W        W17922  12.326  32.069  12.012
51514W        W17923  34.895  30.426   1.714
51515W        W17924   2.921  23.810   4.740
51516W        W17925  40.508  31.197  12.551
51517W        W17926   3.993   5.886   4.685
51518W        W17927  36.861  10.804  13.277
51519W        W17928  34.069   3.848   1.781
51520W        W17929  18.687  26.510   2.370
51521W        W17930  19.793  13.639  12.588
51522W        W17931  43.578   3.836   4.807
51523W        W17932  14.212  10.316   4.566
51524W        W17933  29.916  37.486  12.648
51525W        W17934  44.427  19.821  12.884
51526W        W17935  37.472  10.736  11.564
51527W        W17936   7.085  20.719  12.911
51528W        W17937  13.121  11.014  11.233
51529W        W17938  21.005   1.832  10.525
51530W        W17939  20.794  43.802  14.847
51531W        W17940  18.954  26.043  11.993
51532W        W17941  26.580   9.100  14.644
51533W        W17942  15.396  39.651   5.013
51534W        W17943  14.400   6.371   4.783
51535W        W17944   2.410   2.055  14.292
51536W        W17945  15.039  28.133  13.340
51537W        W17946  37.809  38.160   1.883
51538W        W17947  17.671  21.261  13.002
51539W        W17948  43.170  36.505  14.068
51540W        W17949   6.911  10.811   3.184
51541W        W17950  15.941  31.013  13.948
51542W        W17951  21.426  37.006   3.339
51543W        W17952  35.498  37.024   3.791
51544W        W17953  34.629  11.011   2.294
51545W        W17954  16.862  14.976  11.096
51546W        W17955  26.463  11.230   2.353
51547W        W17956  35.150  44.908  12.072
51548W        W17957  15.753   6.676   4.537
51549W        W17958   2.391  17.480   1.367
51550W        W17959  38.678  13.273   3.150
51551W        W17960  42.949  28.538   2.538
51552W        W17961  12.689  28.282  11.154
51553W        W17962  17.122  34.134  13.087
51554W        W17963  31.188  25.535  14.751
51555W        W17964  29.673  15.838  14.742
51556W        W17965  24.548  13.124  13.833
51557W        W17966  17.076  42.687   3.271
51558W        W17967  31.173  31.452  10.782
51559W        W17968  39.481  26.695  14.820
51560W        W17969  43.291  18.283   4.745
51561W        W17970  35.080   4.998  14.872
51562W        W17971  14.569  19.760  11.549
51563W        W17972  17.240   1.981   1.657
51564W        W17973   5.859   9.399   2.363
51565W        W17974  22.262  16.779   2.402
51566W        W17975   6.719  19.335   3.026
51567W        W17976  33.573  42.287  12.897
51568W        W17977  24.721  16.068   1.612
51569W        W17978   7.652  17.814   2.870
51570W        W17979  19.767  44.724  14.715
51571W        W17980  30.693  11.958  13.367
51572W        W17981  22.694  32.327  10.741
51573W        W17982  42.801  33.700   0.030
51574W        W17983  16.013   7.947  14.446
51575W        W17984  24.476   5.015  14.236
51576W        W17985  10.036  32.083   5.024
51577W        W17986  26.071  10.175  14.565
51578W        W17987  16.748  11.961  13.855
51579W        W17988   8.458  38.902  13.357
51580W        W17989  14.086  43.825   1.241
51581W        W17990  35.936  23.452   0.031
51582W        W17991  36.082  24.395  13.443
51583W        W17992  29.467  23.114   0.299
51584W        W17993  36.320  29.981   0.803
51585W        W17994  36.932   3.945   0.461
51586W        W17995  23.352  25.856  11.869
51587W        W17996  16.766  42.312  12.638
51588W        W17997  21.608   8.525   1.689
51589W        W17998  34.268   4.869   4.118
51590W        W17999   8.431  28.209   2.676
51591W        W18000   5.282  41.708   3.249
51592W        W18001  15.844  30.720   3.671
51593W        W18002  30.497  13.365  11.551
51594W        W18003  39.091   0.973  10.577
51595W        W18004  13.618  42.797   2.748
51596W        W18005   0.507  20.291  11.677
51597W        W18006  14.200  21.485   0.451
51598W        W18007  37.630   0.289  12.431
51599W        W18008   1.436   0.358  10.682
51600W        W18009  33.119   7.286  13.240
51601W        W18010  21.171  13.205  12.337
51602W        W18011   5.917   3.895   0.796
51603W        W18012   0.514   3.244  12.033
51604W        W18013  11.108  21.352  10.160
51605W        W18014  16.214  22.576   3.848
51606W        W18015  43.986   5.676  10.309
51607W        W18016  36.207  30.893  11.598
51608W        W18017   5.880   0.929   3.833
51609W        W18018  19.811  30.580   2.736
51610W        W18019   9.830  28.515   4.492
51611W        W18020   9.425  20.419  11.989
51612W        W18021  28.481  25.730   2.227
51613W        W18022  13.259   3.484   2.676
51614W        W18023  26.094  37.973  11.892
51615W        W18024   7.672  38.926  10.665
51616W        W18025  23.513  27.027  11.162
51617W        W18026  28.029   6.239  10.569
51618W        W18027  12.619   3.705  11.120
51619W        W18028   3.249  16.869  12.030
51620W        W18029  28.787  26.593   2.697
51621W        W18030  16.753  19.655   0.084
51622W        W18031  13.786  33.396   4.222
51623W        W18032  17.815  36.633  13.399
51624W        W18033  39.456   2.491   4.737
51625W        W18034   0.876  18.548  12.104
51626W        W18035  40.801  40.079  14.114
51627W        W18036  17.147  16.892   0.578
51628W        W18037   8.368  27.789   0.073
51629W        W18038  19.049  11.290   2.178
51630W        W18039  32.154   5.778   0.336
51631W        W18040  11.747  32.944  11.556
51632W        W18041   2.015  21.704  14.061
51633W        W18042  30.131   5.517  14.990
51634W        W18043  20.573  24.027  12.917
51635W        W18044  31.467  37.804   3.356
51636W        W18045  38.264   0.872   4.710
51637W        W18046  12.636  15.923  12.030
51638W        W18047  31.013  22.645  10.849
51639W        W18048  41.559  34.122  13.946
51640W        W18049  33.868  33.409  13.517
51641W        W18050   4.214  19.391   3.155
51642W        W18051   5.200  41.392  13.403
51643W        W18052  15.762  40.861   2.354
51644W        W18053  14.001   5.781   3.371
51645W        W18054  44.352  17.791   0.924
51646W        W18055  27.251  30.941   0.352
51647W        W18056   5.945  34.941  10.668
51648W        W18057   8.305  22.517  10.909
51649W        W18058  27.251   0.839   2.128
51650W        W18059   2.147  33.381   2.130
51651W        W18060   0.081   8.701   4.960
51652W        W18061  20.557   7.423   0.810
51653W        W18062  28.358  42.871   0.503
51654W        W18063  15.163  31.869  11.166
51655W        W18064  15.615  42.393   3.190
51656W        W18065   6.727  11.225  10.985
51657W        W18066  33.513   2.727  11.674
51658W        W18067  28.446  10.462   1.928
51659W        W18068   1.750   1.017  11.153
51660W        W18069  43.774  37.852   1.322
51661W        W18070  14.676  34.206  12.570
51662W        W18071  33.629  13.605   0.875
51663W        W18072   9.283  26.249   3.161
51664W        W18073  40.246  11.141   0.763
51665W        W18074  21.596  21.170   3.392
51666W        W18075  22.996  33.480  14.762
51667W        W18076   2.862  28.143   4.551
51668W        W18077   1.352  30.199  12.614
51669W        W18078  44.050  29.614  11.507
51670W        W18079  24.161  25.175  10.775
51671W        W18080   1.997  44.715   1.003
51672W        W18081  24.233  27.432  13.446
51673W        W18082  15.898  18.873   0.278
51674W        W18083   9.269  39.078   4.653
51675W        W18084  23.086  23.642  14.298
51676W        W18085  10.585  27.287  12.436
51677W        W18086  35.789  26.664   3.365
51678W        W18087  18.167  40.588  12.911
51679W        W18088  29.510  42.343   0.227
51680W        W18089   1.796  27.073  12.898
51681W        W18090  32.669  24.014  13.097
51682W        W18091  11.944  35.096   0.076
51683W        W18092  38.919  27.650   2.814
51684W        W18093  16.295   4.787  14.025
51685W        W18094  19.298  10.367  13.743
51686W        W18095  15.297  35.930   0.363
51687W        W18096  40.594   4.306   1.841
51688W        W18097  32.544   2.992  14.327
51689W        W18098  42.605  23.574   1.779
51690W        W18099  43.711  41.164   1.243
51691W        W18100  16.596   6.256  11.360
51692W        W18101  25.710  40.456   2.410
51693W        W18102  40.919  33.836  13.981
51694W        W18103  23.545  40.975   2.911
51695W        W18104  17.122   3.264   2.134
51696W        W18105  17.800  43.504   0.369
51697W        W18106  19.429  18.351   2.905
51698W        W18107   7.877  11.306  13.797
51699W        W18108  32.793  28.131  10.149
51700W        W18109  16.796  28.404  14.501
51701W        W18110  29.680  16.248   4.702
51702W        W18111  20.216   2.874  13.867
51703W        W18112  33.193  31.639   1.259
51704W        W18113  16.288  21.747   0.269
51705W        W18114  33.151   8.101  13.239
51706W        W18115   6.291  31.511   2.353
51707W        W18116  44.955  41.397   0.886
51708W        W18117   9.233  36.111   5.044
51709W        W18118  42.773  17.845   1.676
51710W        W18119  43.831  10.865   0.667
51711W        W18120   8.429  11.961   4.919
51712W        W18121  35.944   0.354  13.134
51713W        W18122  39.719  22.332   2.664
51714W        W18123   0.030  34.999  12.046
51715W        W18124  28.926  27.991   0.048
51716W        W18125  25.166  35.408   0.464
51717W        W18126  39.361  37.908   4.362
51718W        W18127  17.329  14.539   1.354
51719W        W18128  37.091   5.680   3.404
51720W        W18129  39.928  18.685   0.569
51721W        W18130  20.330  32.175  13.436
51722W        W18131  12.670  37.118  13.350
51723W        W18132   1.364  12.573  13.105
51724W        W18133  26.030  42.704   1.458
51725W        W18134  43.395  21.353  10.612
51726W        W18135  42.053  35.526   2.170
51727W        W18136  26.802  31.495   3.758
51728W        W18137  10.257  38.319  14.260
51729W        W18138   3.724  31.092  11.577
51730W        W18139  18.181   7.483  10.971
51731W        W18140   7.450  13.619   0.931
51732W        W18141   5.909  13.678  10.641
51733W        W18142  27.509  12.095   0.399
51734W        W18143  11.131  10.592   3.785
51735W        W18144  16.074   8.960  11.172
51736W        W18145   9.324  13.119   4.207
51737W        W18146  26.235  17.550   1.242
51738W        W18147  34.460  38.786   1.518
51739W        W18148  37.100  38.889  11.502
51740W        W18149   3.899  31.091   3.300
51741W        W18150  21.242  12.788  14.524
51742W        W18151   0.485  15.185  14.320
51743W        W18152   9.853  25.166  12.439
51744W        W18153   9.599  35.036  12.007
51745W        W18154  27.695  26.614   0.236
51746W        W18155  36.228  11.335  14.307
51747W        W18156   4.978   3.213  11.558
51748W        W18157   6.665  26.426   3.249
51749W        W18158  40.726  21.148  12.074
51750W        W18159  17.904  29.610   2.314
51751W        W18160  27.712   5.931   1.949
51752W        W18161  20.147  16.318  14.957
51753W        W18162  26.165  28.926  13.468
51754W        W18163   9.126  36.518   4.230
51755W        W18164  41.789   3.015  13.418
51756W        W18165  14.854  43.523  12.410
51757W        W18166   3.329  36.943  13.841
51758W        W18167  21.210  28.447  10.622
51759W        W18168   6.245  38.905  10.310
51760W        W18169   6.251  11.332   4.753
51761W        W18170   0.329  30.321   2.131
51762W        W18171  33.371  43.698   0.842
51763W        W18172  21.522  16.754  11.576
51764W        W18173  23.256  18.659  13.880
51765W        W18174  37.876  22.513   3.135
51766W        W18175  25.984  20.307  13.877
51767W        W18176  32.448  31.460   4.902
51768W        W18177  15.327   5.862   3.626
51769W        W18178  22.364   2.987  12.088
51770W        W18179  22.056  20.943   4.071
51771W        W18180  18.824  17.376   3.573
51772W        W18181  38.098  38.631  11.126
51773W        W18182   3.356  31.455  11.610
51774W        W18183  24.260  11.340   4.088
51775W        W18184  23.038  40.857   1.649
51776W        W18185  30.515  39.253   2.807
51777W        W18186  19.590  11.172   4.267
51778W        W18187  25.133  36.242  12.958
51779W        W18188  14.311   2.391  13.879
51780W        W18189  26.110  16.007  13.228
51781W        W18190   2.457  30.996   2.396
51782W        W18191  26.424  10.421  13.415
51783W        W18192  11.342   7.153  13.829
51784W        W18193  31.735  31.895   3.641
51785W        W18194  10.936  43.886  11.391
51786W        W18195  25.483  14.637   0.326
51787W        W18196  37.411  38.924   2.846
51788W        W18197  21.699  13.081  13.410
51789W        W18198  38.830  35.403  11.135
51790W        W18199  23.373  21.457   0.464
51791W        W18200   2.900  34.082   2.093
51792W        W18201  38.887  27.407   4.555
51793W        W18202   9.216  37.507   0.525
51794W        W18203  39.557  15.046   3.654
51795W        W18204  14.621  16.245   3.718
51796W        W18205  26.421  10.739   3.724
51797W        W18206  33.816   8.810  13.959
51798W        W18207  21.998  31.436  11.188
51799W        W18208  14.958  34.231  12.134
51800W        W18209  43.049  22.956  11.213
51801W        W18210  13.052  15.768   2.587
51802W        W18211  22.218  17.229   4.112
51803W        W18212  37.341  15.681  12.788
51804W        W18213  16.969  40.826  13.776
51805W        W18214  41.462  30.539  14.437
51806W        W18215   1.892  42.452   4.754
51807W        W18216  36.444   7.902   2.322
51808W        W18217  32.057  35.728  14.012
51809W        W18218   3.094  17.551  10.954
51810W        W18219  11.816  34.385  13.987
51811W        W18220  19.548  31.109   0.751
51812W        W18221  23.655  37.887  14.522
51813W        W18222  21.734  36.301  14.043
51814W        W18223  30.838  43.341   2.145
51815W        W18224  37.383  14.737  13.344
51816W        W18225  26.230  41.097  13.456
51817W        W18226   2.912  29.489   1.496
51818W        W18227  30.915  13.631   1.334
51819W        W18228  15.838  41.412  10.693
51820W        W18229  36.630   3.721   2.212
51821W        W18230  11.157   9.887   0.858
51822W        W18231   4.285  33.872   3.279
51823W        W18232   5.258  42.340   4.144
51824W        W18233   3.466  38.823  12.420
51825W        W18234   3.239  30.721   4.977
51826W        W18235  13.339  43.956   0.829
51827W        W18236  43.019  39.340  12.838
51828W        W18237  12.524   2.699   5.411
51829W        W18238  37.692  34.041   3.306
51830W        W18239  33.498   1.329  11.580
51831W        W18240  10.244  23.195   2.043
51832W        W18241  11.277  23.595  13.532
51833W        W18242  38.546  21.688   2.125
51834W        W18243  12.114  40.394   1.494
51835W        W18244  11.430  17.159  13.327
51836W        W18245   1.761   0.252   1.721
51837W        W18246  37.488  35.566   1.843
51838W        W18247  18.654   7.135   0.723
51839W        W18248  34.391   1.974  14.891
51840W        W18249   6.664  23.743   2.857
51841W        W18250  19.924  12.824   0.942
51842W        W18251   7.357  32.804  10.949
51843W        W18252  37.705  30.049   2.164
51844W        W18253  34.038  43.204   3.585
51845W        W18254  39.529  28.025   4.662
51846W        W18255  34.489  27.203   1.836
51847W        W18256  24.421   4.334  13.479
51848W        W18257  12.911  10.401  13.965
51849W        W18258   2.584   9.351   3.019
51850W        W18259  10.893  14.325  14.991
51851W        W18260   5.438  11.295   3.752
51852W        W18261   5.744  16.268   2.266
51853W        W18262  12.326   6.638   2.264
51854W        W18263  17.413  14.309  14.039
51855W        W18264  17.222  10.491  14.883
51856W        W18265  21.593  27.429  12.131
51857W        W18266  37.580  15.199  12.839
51858W        W18267   1.349   7.260  13.363
51859W        W18268   8.174  10.217  11.484
51860W        W18269  24.418   0.194   3.704
51861W        W18270  27.984  24.150  10.720
51862W        W18271  43.919  35.489   4.176
51863W        W18272  20.655  17.708   0.206
51864W        W18273   6.177  23.687  10.719
51865W        W18274  32.100  42.265  14.530
51866W        W18275   9.248  43.454   1.210
51867W        W18276  40.224  23.610  11.214
51868W        W18277   9.366   9.190  12.962
51869W        W18278  25.534   7.150  10.627
51870W        W18279  44.598  21.979   4.107
51871W        W18280  22.526  43.483   4.502
51872W        W18281  21.544  14.007  13.938
51873W        W18282  21.705  30.251  10.807
51874W        W18283  13.549   7.158  10.869
51875W        W18284  22.013  17.210   2.227
51876W        W18285  33.613   4.700   0.894
51877W        W18286  34.862  23.027  14.772
51878W        W18287  34.323   3.460   2.338
51879W        W18288  10.967  33.471  12.939
51880W        W18289  38.272  39.215  10.296
51881W        W18290  16.335  24.145   4.876
51882W        W18291  43.237  33.914  13.352
51883W        W18292   7.515  39.159  11.944
51884W        W18293  40.005  41.623   0.570
51885W        W18294   0.005  20.668   0.469
51886W        W18295   5.647   4.351   0.915
51887W        W18296  32.198  39.670  14.868
51888W        W18297  32.039   7.236  13.755
51889W        W18298  40.790  29.087   3.636
51890W        W18299  16.869  40.932   0.422
51891W        W18300  23.990  21.587   3.377
51892W        W18301   1.435  26.991  14.662
51893W        W18302  21.765   6.723   3.231
51894W        W18303  12.271  38.314   2.712
51895W        W18304   2.814  27.857   1.108
51896W        W18305  20.526  20.325   3.103
51897W        W18306  23.994  25.638  13.541
51898W        W18307  20.328  26.177  13.978
51899W        W18308  24.132  37.225  10.516
51900W        W18309  18.689  41.627  12.961
51901W        W18310  39.600  44.061  14.731
51902W        W18311  21.311  34.539   1.938
51903W        W18312  31.092  17.169  13.905
51904W        W18313  33.817  27.510  10.709
51905W        W18314  40.760  18.770  12.063
51906W        W18315  33.822   0.376   0.405
51907W        W18316   1.442  31.646   3.263
51908W        W18317  25.908  20.860  13.934
51909W        W18318   2.709   7.899  11.077
51910W        W18319  13.834   4.343   4.985
51911W        W18320  23.018  41.023  12.953
51912W        W18321   7.475  24.101  12.635
51913W        W18322  13.088  31.531  12.250
51914W        W18323  43.346  36.508   0.762
51915W        W18324  31.880  41.334   1.313
51916W        W18325  43.969  25.463   0.350
51917W        W18326  32.679  11.095  13.501
51918W        W18327  11.341  38.645  13.615
51919W        W18328  36.048  34.926  11.541
51920W        W18329  14.200  41.323   2.644
51921W        W18330  41.849  28.401   4.145
51922W        W18331  41.570   4.916  12.515
51923W        W18332  34.954  17.988   2.880
51924W        W18333  36.518  36.914  13.028
51925W        W18334  36.326  19.797   4.338
51926W        W18335  34.573  31.907   3.709
51927W        W18336  26.841  13.612   3.147
51928W        W18337  22.874  18.600  11.230
51929W        W18338  16.214   9.889  14.294
51930W        W18339  33.788  25.788  10.092
51931W        W18340  19.857   2.856   0.928
51932W        W18341  20.102  17.302  13.915
51933W        W18342  39.586  31.671   2.852
51934W        W18343  16.372  18.579   0.285
51935W        W18344  11.919  30.087  14.315
51936W        W18345   4.992  10.152  14.741
51937W        W18346  32.519  30.618  10.776
51938W        W18347  30.470  43.911  10.936
51939W        W18348  16.119  15.826   3.298
51940W        W18349  41.032  10.748   1.249
51941W        W18350   1.447   9.911   0.953
51942W        W18351  33.629  19.214  13.462
51943W        W18352  29.768  10.311  11.716
51944W        W18353  42.405  41.294  11.327
51945W        W18354   9.181  21.424   4.575
51946W        W18355  15.834  23.014   2.786
51947W        W18356   1.771  12.295   4.062
51948W        W18357  35.000  28.718   4.632
51949W        W18358  22.902  32.195  12.612
51950W        W18359   8.166   2.370   3.244
51951W        W18360  13.617  15.621   3.912
51952W        W18361   6.666  42.055   4.127
51953W        W18362  41.297  43.732   4.533
51954W        W18363  22.545  32.963   2.959
51955W        W18364  22.616  20.566  14.476
51956W        W18365   8.545  29.853   1.260
51957W        W18366  32.537  37.865  14.404
51958W        W18367  23.615  22.046   3.011
51959W        W18368   0.428   7.844  13.565
51960W        W18369  31.186  43.386  12.534
51961W        W18370  31.897  10.139   0.338
51962W        W18371  14.767  26.712   5.018
51963W        W18372  12.147  31.325  13.007
51964W        W18373   3.300   3.271  14.471
51965W        W18374  21.209  22.415  10.548
51966W        W18375  28.190  13.522   1.280
51967W        W18376  38.511  35.678   1.777
51968W        W18377  28.541  22.669   2.718
51969W        W18378  43.557  22.624  13.795
51970W        W18379  42.377  36.804  10.768
51971W        W18380  15.670   9.612   1.021
51972W        W18381  44.959  44.163   3.737
51973W        W18382   0.873  33.319  10.741
51974W        W18383  13.088  19.611   2.670
51975W        W18384   5.311  16.520  13.974
51976W        W18385  36.966   1.063  14.520
51977W        W18386  18.128  43.185   1.699
51978W        W18387  34.760  12.281   2.599
51979W        W18388   6.948  20.894   0.403
51980W        W18389  18.267   7.796  11.663
51981W        W18390   2.780  31.155   3.161
51982W        W18391  25.093  39.375   0.452
51983W        W18392  30.433  19.987  11.033
51984W        W18393  14.550   4.846   3.757
51985W        W18394  36.035  19.135  13.253
51986W        W18395  25.530   9.809   5.047
51987W        W18396  39.826   3.759  14.217
51988W        W18397  20.817  13.752   1.913
51989W        W18398  30.089  23.977   0.678
51990W        W18399   8.928  31.168   3.972
51991W        W18400  39.591   0.530   4.431
51992W        W18401  34.071   3.833  12.388
51993W        W18402   0.151  17.711   3.718
51994W        W18403  21.098  29.194   4.091
51995W        W18404  40.188  40.993   2.219
51996W        W18405  18.716  37.948   1.766
51997W        W18406   1.817  26.193   1.881
51998W        W18407  41.918  21.794  10.759
51999W        W18408  40.013  15.722  10.744
52000W        W18409  17.014  41.537   1.679
52001W        W18410  10.964   8.759  12.960
52002W        W18411  11.051  28.196   3.782
52003W        W18412  11.128  38.538   3.973
52004W        W18413  21.173  41.499  11.640
52005W        W18414  31.706  16.028   2.183
52006W        W18415   7.544  29.081   4.214
52007W        W18416  11.938   7.053  10.131
52008W        W18417  13.178   9.330   0.075
52009W        W18418  20.480  29.014   2.337
52010W        W18419   9.111  29.083  12.115
52011W        W18420  20.180  20.854  14.527
52012W        W18421  39.720  13.122   4.449
52013W        W18422   5.452  24.426  14.398
52014W        W18423  38.561  42.241  10.631
52015W        W18424  30.895  42.438  11.895
52016W        W18425  36.366  25.183  14.040
52017W        W18426  16.394  13.232   3.827
52018W        W18427  36.561  28.903  11.524
52019W        W18428  17.463  13.146   1.787
52020W        W18429  26.838  26.084   4.225
52021W        W18430   6.159  15.519   5.079
52022W        W18431  33.079  31.708   2.734
52023W        W18432  42.719  42.875  10.903
52024W        W18433  39.027  18.754  12.722
52025W        W18434  19.702  40.313   2.686
52026W        W18435  16.974  29.721   1.192
52027W        W18436  35.031  17.071   2.268
52028W        W18437  38.010  36.226   3.328
52029W        W18438  44.809   8.197   4.124
52030W        W18439  37.817  41.387  14.877
52031W        W18440  17.779  11.812  14.830
52032W        W18441  44.308  44.650  12.254
52033W        W18442  40.244  29.671  11.170
52034W        W18443  16.581   3.812  10.743
52035W        W18444  10.302   0.201   1.721
52036W        W18445  21.040   4.601   0.659
52037W        W18446  36.556   4.034   2.607
52038W        W18447  21.145   9.703  12.872
52039W        W18448   3.255  11.351  10.703
52040W        W18449  37.805  14.806   1.696
52041W        W18450  12.290  43.350  12.687
52042W        W18451  23.452  12.730  12.070
52043W        W18452  25.202  31.393   0.874
52044W        W18453  40.843  29.008  14.073
52045W        W18454  15.407  28.696  13.385
52046W        W18455  36.320  35.435   1.430
52047W        W18456   1.821   5.205   1.006
52048W        W18457   0.887   0.539  11.630
52049W        W18458  11.916  23.505  12.442
52050W        W18459  37.434  34.027   0.562
52051W        W18460   0.063   2.440  14.354
52052W        W18461  28.690  10.864   2.129
52053W        W18462  15.779   9.762   2.787
52054W        W18463  30.877  43.080   3.764
52055W        W18464  12.383  26.192   2.322
52056W        W18465  20.419  12.369   2.329
52057W        W18466  28.627  41.215  11.167
52058W        W18467  26.174  29.219   4.324
52059W        W18468  31.583   9.888   3.377
52060W        W18469   0.751  11.094  11.907
52061W        W18470  14.865  30.766  11.669
52062W        W18471  34.195   0.469   3.189
52063W        W18472  22.223  42.677  14.261
52064W        W18473  23.599  29.945  11.452
52065W        W18474  35.181   3.240   4.997
52066W        W18475  15.577  43.439   3.064
52067W        W18476  31.891  36.369   0.811
52068W        W18477  32.849  12.177  11.685
52069W        W18478  19.036  24.989  14.910
52070W        W18479  33.887  39.019  10.503
52071W        W18480   3.745  31.510   1.363
52072W        W18481   9.308  11.359  14.276
52073W        W18482   3.325   3.404   4.241
52074W        W18483   9.366  40.101   0.737
52075W        W18484  44.790  41.690   2.321
52076W        W18485  22.527  32.084   0.431
52077W        W18486  19.220   9.375  14.725
52078W        W18487   2.381   2.424  11.654
52079W        W18488   3.150  22.531   3.350
52080W        W18489   3.296   8.996   2.636
52081W        W18490  38.868   0.025   4.588
52082W        W18491   9.799  26.888   2.215
52083W        W18492  39.445  34.059  14.429
52084W        W18493  20.775  43.429   0.604
52085W        W18494   1.791  13.850  10.553
52086W        W18495  39.277  17.187  14.020
52087W        W18496  15.429  30.850  11.612
52088W        W18497  12.122  28.648   3.410
52089W        W18498  13.764  35.637  14.969
52090W        W18499  31.348  17.309   0.808
52091W        W18500  22.664  24.064   0.612
52092W        W18501  33.641  37.464  12.020
52093W        W18502   7.752  43.837   1.484
52094W        W18503   1.651  39.781   2.853
52095W        W18504  37.569   1.920  13.492
52096W        W18505  18.042  11.724  10.505
52097W        W18506   9.709  35.039   2.689
52098W        W18507  29.702  13.232   4.108
52099W        W18508  13.094  39.786  14.859
52100W        W18509  38.458  21.046  10.220
52101W        W18510  24.013  13.768   1.924
52102W        W18511   8.501   6.891   4.095
52103W        W18512  40.970   4.332  13.827
52104W        W18513  16.296  21.835   3.209
52105W        W18514  21.638  34.518  12.813
52106W        W18515  26.599  12.799  12.229
52107W        W18516  13.743   9.890  14.276
52108W        W18517  42.048   5.318   4.108
52109W        W18518  32.553   3.945   3.733
52110W        W18519  42.536   5.192  12.750
52111W        W18520  26.534  42.386  13.467
52112W        W18521  36.534  38.292  12.921
52113W        W18522  40.289   7.789   0.401
52114W        W18523  29.592  19.014  10.752
52115W        W18524  20.159  35.097  10.761
52116W        W18525  19.083   2.071  13.519
52117W        W18526   6.488  10.815   2.577
52118W        W18527  13.553  43.396   1.366
52119W        W18528  27.600  23.630   0.289
52120W        W18529  32.511  32.909   2.172
52121W        W18530  23.536   0.205  11.479
52122W        W18531  27.364  43.003  13.631
52123W        W18532  13.344  43.501  13.560
52124W        W18533  10.240   9.576   3.171
52125W        W18534  24.002  36.038   3.324
52126W        W18535  40.062   1.978   2.972
52127W        W18536  24.914  36.542   1.017
52128W        W18537  44.360  17.083   2.354
52129W        W18538  44.920  12.232  14.799
52130W        W18539  22.971  24.524  14.997
52131W        W18540   3.148  24.513   2.513
52132W        W18541   7.223  12.969   2.914
52133W        W18542   6.451  34.487   0.832
52134W        W18543  14.727  18.084   4.948
52135W        W18544  18.631   4.980  13.394
52136W        W18545  39.022  12.665   0.063
52137W        W18546   7.630  42.255  12.722
52138W        W18547  14.243  14.838   4.689
52139W        W18548  43.020  11.624   4.149
52140W        W18549  19.657  10.070  14.317
52141W        W18550  42.459  31.848   2.896
52142W        W18551  17.291  38.802  11.962
52143W        W18552   7.248   0.882  13.880
52144W        W18553  30.970   0.309   2.349
52145W        W18554  43.049   6.033   2.677
52146W        W18555  44.657  11.026   3.710
52147W        W18556   6.203  11.099  10.837
52148W        W18557  11.879  22.563   2.251
52149W        W18558  42.811  11.854  14.980
52150W        W18559   1.396  21.534  12.794
52151W        W18560  24.201  10.103   3.524
52152W        W18561  30.778  20.065   1.389
52153W        W18562  18.230   7.581   0.275
52154W        W18563  36.314  24.300  13.890
52155W        W18564   5.268  16.602  13.081
52156W        W18565   6.320  22.890   5.519
52157W        W18566  22.594  27.188  14.498
52158W        W18567  25.226  23.066  14.418
52159W        W18568   0.928  30.166  11.949
52160W        W18569  34.432   4.934   3.272
52161W        W18570  40.406  28.940  11.707
52162W        W18571  19.214  39.582   2.897
52163W        W18572   1.335  22.912  12.758
52164W        W18573  38.571  12.816   1.877
52165W        W18574  39.820  22.201   4.938
52166W        W18575   2.580  11.248   1.033
52167W        W18576  36.804  31.369   0.731
52168W        W18577  17.504  17.298  14.959
52169W        W18578  38.534  42.498  14.302
52170W        W18579  32.303  34.636  10.810
52171W        W18580  40.757   8.072  13.602
52172W        W18581  26.959  44.330  11.584
52173W        W18582  22.740   9.298  13.037
52174W        W18583  10.853  35.698   4.721
52175W        W18584   8.679  36.342  12.070
52176W        W18585  11.683   1.252   2.157
52177W        W18586  43.082  26.517  10.722
52178W        W18587  20.642  33.331  12.449
52179W        W18588  43.797   5.524  14.916
52180W        W18589  14.729  22.005  13.319
52181W        W18590  43.428  31.134  13.958
52182W        W18591  41.052  44.817   3.334
52183W        W18592  40.261  22.498   3.261
52184W        W18593  15.572  16.379   0.516
52185W        W18594  15.600  10.859   4.203
52186W        W18595  32.320  33.233   0.319
52187W        W18596  33.011  11.839   3.741
52188W        W18597  29.390  13.184   1.757
52189W        W18598  15.347   3.315   3.817
52190W        W18599  17.648  16.260   2.438
52191W        W18600  14.263  21.476  12.120
52192W        W18601  25.142  32.271  13.133
52193W        W18602  23.170  16.694  11.291
52194W        W18603  18.557  26.401  12.047
52195W        W18604  38.544  31.247   1.216
52196W        W18605  32.096  32.481  12.354
52197W        W18606  36.452  10.509  14.569
52198W        W18607  25.000  11.950  10.133
52199W        W18608  25.974  11.051  14.053
52200W        W18609  40.618   2.171   3.661
52201W        W18610  13.505   5.872   3.176
52202W        W18611  35.531  13.558   1.842
52203W        W18612   8.585   1.825  13.865
52204W        W18613   8.970  11.883   5.019
52205W        W18614  22.498  16.265   4.762
52206W        W18615  20.694  14.186  11.191
52207W        W18616  35.585  33.523  13.478
52208W        W18617  42.237   1.316   0.244
52209W        W18618   9.701  15.781   2.369
52210W        W18619  21.545  34.937   1.176
52211W        W18620  34.137  17.846   1.351
52212W        W18621  32.430  35.396   1.392
52213W        W18622  22.538  43.730   2.734
52214W        W18623  24.100  18.742   1.984
52215W        W18624   6.928  33.521   4.070
52216W        W18625  26.606  42.735  12.513
52217W        W18626  36.120  16.549   2.903
52218W        W18627  19.815  42.322   4.812
52219W        W18628  31.786   2.159   1.957
52220W        W18629   8.397  32.074  12.914
52221W        W18630  38.453  41.787   3.566
52222W        W18631  40.650  27.891   4.937
52223W        W18632  32.606  27.575  12.665
52224W        W18633  17.600   2.458  10.713
52225W        W18634   2.389  35.841   3.758
52226W        W18635  41.947  42.478  11.625
52227W        W18636   1.541   6.413   0.846
52228W        W18637  31.460  39.863  13.313
52229W        W18638  44.209  11.341   0.109
52230W        W18639  32.086   6.363  14.070
52231W        W18640  39.295   6.198   0.330
52232W        W18641  14.797  36.168  12.462
52233W        W18642  30.954  35.965   0.358
52234W        W18643   5.911  38.399  13.533
52235W        W18644  34.411   1.912   2.622
52236W        W18645   2.601   3.589   4.760
52237W        W18646   7.903  19.739   3.524
52238W        W18647  40.714  22.313   0.527
52239W        W18648  25.747   3.738   3.115
52240W        W18649  34.024   9.867   2.945
52241W        W18650   0.273  15.395   3.680
52242W        W18651  41.735  16.324  13.394
52243W        W18652   6.412   3.781   0.682
52244W        W18653   7.190  44.420  14.902
52245W        W18654  22.550  17.392  12.520
52246W        W18655  14.765  26.989   3.316
52247W        W18656   2.194  44.954   0.063
52248W        W18657  15.874   4.499  12.082
52249W        W18658  30.973  29.137  14.949
52250W        W18659  20.408  13.282  11.439
52251W        W18660  17.892   3.324   1.551
52252W        W18661   7.794   5.125  14.314
52253W        W18662   6.658  41.861  14.829
52254W        W18663  24.908  35.365   3.811
52255W        W18664  36.620  35.960  10.489
52256W        W18665  25.750  13.842  13.152
52257W        W18666  32.467  19.761  13.077
52258W        W18667  37.619  27.815   3.363
52259W        W18668  15.929  32.633  13.730
52260W        W18669   2.275  39.371  14.173
52261W        W18670  26.250  34.578   4.699
52262W        W18671   5.676  29.014  12.930
52263W        W18672  44.246  34.525  14.040
52264W        W18673  35.635  28.458  11.573
52265W        W18674  10.834  31.318   1.368
52266W        W18675  19.100  35.876   4.501
52267W        W18676   7.704   1.454  13.520
52268W        W18677   9.754  38.880  12.510
52269W        W18678   7.383  25.713   3.891
52270W        W18679  15.634  19.814   0.229
52271W        W18680  10.554   4.583   4.308
52272W        W18681  35.037  43.625   0.412
52273W        W18682  29.958   7.831  13.601
52274W        W18683  38.627   6.250   2.760
52275W        W18684  16.227  34.990  12.468
52276W        W18685   1.768   7.881  12.958
52277W        W18686  38.055  40.593   1.821
52278W        W18687   7.176  29.046  10.539
52279W        W18688   6.520  22.924   1.750
52280W        W18689  18.621   9.432  11.133
52281W        W18690  34.950  31.665   4.548
52282W        W18691  44.619  29.698  14.522
52283W        W18692   2.233   8.436   3.789
52284W        W18693  12.141  13.446   4.127
52285W        W18694  25.950  30.010  12.404
52286W        W18695  43.184  37.712  11.988
52287W        W18696   3.770  14.139  14.620
52288W        W18697  36.821  33.842  12.450
52289W        W18698  44.536  19.283  11.333
52290W        W18699   2.420   6.179  10.491
52291W        W18700  13.307  25.936   4.634
52292W        W18701  11.259  33.192   2.324
52293W        W18702  16.246  24.030   1.486
52294W        W18703  10.688  30.094  12.608
52295W        W18704  34.622  29.950  14.517
52296W        W18705  25.976  17.179   3.835
52297W        W18706  43.785  32.575   0.349
52298W        W18707  24.294  29.657   2.298
52299W        W18708  26.567  11.355   4.395
52300W        W18709   0.421  38.040   1.835
52301W        W18710  13.025   5.850  14.334
52302W        W18711   8.729   0.246   4.253
52303W        W18712   3.860  15.610   2.819
52304W        W18713   8.776  26.958  12.049
52305W        W18714  16.519  34.552   0.772
52306W        W18715  21.378   1.669  12.114
52307W        W18716  24.684  36.507  12.891
52308W        W18717  16.227  30.079  14.871
52309W        W18718   8.756  31.654   3.752
52310W        W18719  44.999  32.849  13.418
52311W        W18720  35.331  36.508  12.967
52312W        W18721   9.021  29.009   0.007
52313W        W18722  10.096  13.737   2.587
52314W        W18723   8.625   4.854   2.788
52315W        W18724  29.569  19.144   0.489
52316W        W18725  41.761  26.935   0.885
52317W        W18726  22.142  39.657   4.570
52318W        W18727  22.720  28.030  14.941
52319W        W18728  31.380  40.616   0.259
52320W        W18729  27.177   8.069  10.733
52321W        W18730   5.672  10.835   3.639
52322W        W18731  18.286  19.813   0.422
52323W        W18732  28.707  13.682   1.338
52324W        W18733  30.109  28.864   2.912
52325W        W18734  17.106  20.835   0.940
52326W        W18735   0.730  23.219  14.879
52327W        W18736  25.755  16.067  12.585
52328W        W18737  18.772  37.522   0.794
52329W        W18738  33.952   4.918  11.223
52330W        W18739  32.513   3.162   1.425
52331W        W18740  43.812   2.249  10.384
52332W        W18741  24.476  18.573   4.565
52333W        W18742  17.144  14.315  13.014
52334W        W18743   5.249  20.776  12.057
52335W        W18744  33.225  21.383  11.976
52336W        W18745   7.343  31.872   2.272
52337W        W18746  17.028  42.798   0.302
52338W        W18747  33.072  36.524  11.493
52339W        W18748   8.899   1.874  14.372
52340W        W18749  40.537   8.431   1.268
52341W        W18750  30.675  40.631  12.112
52342W        W18751  19.079   2.974   3.327
52343W        W18752  14.429  29.933   2.631
52344W        W18753  16.867   0.383  14.552
52345W        W18754  29.988  22.472   3.605
52346W        W18755  27.305  38.655   4.647
52347W        W18756  40.624  39.349  13.378
52348W        W18757  37.624  34.574  14.942
52349W        W18758   4.247   1.477   1.814
52350W        W18759  43.409   7.724   5.093
52351W        W18760  42.603  18.536  11.644
52352W        W18761  41.280  32.325   3.743
52353W        W18762  12.804  24.501   3.289
52354W        W18763  23.167  32.902  14.340
52355W        W18764  10.171  10.635   0.558
52356W        W18765   6.900  11.898   0.851
52357W        W18766  31.509  13.892   0.519
52358W        W18767  30.820  40.948   4.154
52359W        W18768  32.788  29.740   4.151
52360W        W18769  35.531  41.303   4.392
52361W        W18770  25.764  41.336   2.729
52362W        W18771   9.856  20.417  11.258
52363W        W18772   4.950  23.117  14.781
52364W        W18773   2.287  30.449  13.534
52365W        W18774  17.016   8.436   1.427
52366W        W18775  23.711  21.699   2.415
52367W        W18776  15.306  19.855  14.528
52368W        W18777  36.141  28.510   2.107
52369W        W18778  23.055  21.996   2.302
52370W        W18779  29.723  41.797  11.550
52371W        W18780  30.362  35.556  10.580
52372W        W18781  17.971  38.350  13.758
52373W        W18782  17.322  43.421  12.170
52374W        W18783  30.000  32.544  13.821
52375W        W18784  12.595  25.215   0.436
52376W        W18785  27.940   9.148  11.135
52377W        W18786  24.768   1.198   3.568
52378W        W18787  17.692  21.751  14.839
52379W        W18788  36.865  32.349  10.993
52380W        W18789  38.649  15.168   5.104
52381W        W18790   7.709   7.591  14.280
52382W        W18791  24.623  20.807  10.159
52383W        W18792  10.876  35.638  14.410
52384W        W18793  39.525  10.565  10.629
52385W        W18794  37.287  19.384   0.751
52386W        W18795  23.490  28.274   4.106
52387W        W18796   3.533   1.708   2.341
52388W        W18797  16.615   6.093  13.476
52389W        W18798   5.201  14.809  13.630
52390W        W18799  16.621  35.213   3.835
52391W        W18800  43.469  21.743  11.795
52392W        W18801  28.151  20.789  13.840
52393W        W18802  10.318  40.774   4.619
52394W        W18803  43.502  10.723   4.924
52395W        W18804  12.815  13.680  11.689
52396W        W18805   7.843   6.275  13.574
52397W        W18806  37.106   3.444   0.468
52398W        W18807  23.376  33.008  12.451
52399W        W18808  25.297  20.191  12.953
52400W        W18809  18.618  35.190  14.342
52401W        W18810  10.537  33.578  13.758
52402W        W18811  14.835   1.369   0.180
52403W        W18812  16.768  36.807   0.976
52404W        W18813  36.401  19.091  14.461
52405W        W18814  27.360  19.005  11.547
52406W        W18815  15.342  34.912  14.331
52407W        W18816   8.217  27.707   1.877
52408W        W18817  15.752   2.873  14.749
52409W        W18818  36.861  12.121  14.609
52410W        W18819  15.671   4.129   2.691
52411W        W18820  17.476  21.727   1.409
52412W        W18821  23.410  16.527   1.657
52413W        W18822  41.887  41.780  13.344
52414W        W18823  21.754  37.889   1.253
52415W        W18824  27.409  23.163   1.711
52416W        W18825   0.683  25.004  12.444
52417W        W18826  36.841  42.457   4.210
52418W        W18827  27.142  40.985  12.483
52419W        W18828  33.202  44.917  14.807
52420W        W18829  27.637  17.703   4.618
52421W        W18830  25.907  29.512  14.034
52422W        W18831   9.268  10.382  14.302
52423W        W18832  21.058  26.693   3.395
52424W        W18833  23.452   1.837   4.350
52425W        W18834  13.796  28.470  11.202
52426W        W18835  42.021  13.143   4.297
52427W        W18836   7.551  33.685   4.928
52428W        W18837  15.123  34.958  10.636
52429W        W18838  29.096  32.686  11.077
52430W        W18839  24.032  15.733  11.613
52431W        W18840  12.576   4.209  10.974
52432W        W18841  29.922  32.177  11.672
52433W        W18842   5.803  32.814   3.271
52434W        W18843  10.806  30.584  12.810
52435W        W18844   4.938  33.320  12.621
52436W        W18845  12.809  26.097   4.296
52437W        W18846  44.901   7.092   2.614
52438W        W18847   8.862  13.305  11.388
52439W        W18848  37.795  44.382  14.918
52440W        W18849   8.427  41.970   2.311
52441W        W18850  24.046   9.511  13.457
52442W        W18851  38.952  30.658   3.702
52443W        W18852  32.301   8.100   2.733
52444W        W18853   5.901   0.263   1.351
52445W        W18854   8.467  24.252   1.840
52446W        W18855   6.456  29.073   1.128
52447W        W18856   2.278  38.106   0.061
52448W        W18857  16.729   6.719  12.127
52449W        W18858  13.140   4.406  13.783
52450W        W18859   5.303   7.737  13.910
52451W        W18860  22.605  19.351  13.376
52452W        W18861  44.028  13.334   0.869
52453W        W18862  23.451  39.475   1.530
52454W        W18863   6.863  39.252   2.818
52455W        W18864  33.828  31.690   1.064
52456W        W18865  44.943  20.629  14.952
52457W        W18866   5.709  44.632  14.045
52458W        W18867  20.992  17.849  11.472
52459W        W18868   1.842  19.570   2.134
52460W        W18869   7.467  11.376  12.989
52461W        W18870  24.079  36.847   2.719
52462W        W18871  26.361   4.458  14.963
52463W        W18872  11.754  31.975  11.172
52464W        W18873   6.851  16.096  12.162
52465W        W18874  44.978   1.932   3.704
52466W        W18875   0.220  22.990  11.287
52467W        W18876  24.615  19.316   0.326
52468W        W18877  17.783  43.213  14.891
52469W        W18878  33.340   0.551  14.001
52470W        W18879  23.827  29.616  13.312
52471W        W18880  15.397  14.268   1.692
52472W        W18881  21.045  28.606   4.225
52473W        W18882   5.343  18.587   4.136
52474W        W18883  21.682  16.279  14.047
52475W        W18884  35.660   2.298   2.211
52476W        W18885  12.213  44.167   5.141
52477W        W18886  34.253  23.118   1.701
52478W        W18887  37.323  31.472   0.735
52479W        W18888   5.920   6.751   0.931
52480W        W18889  18.190  22.407   4.181
52481W        W18890  39.011   0.721  13.002
52482W        W18891  22.513  35.619  11.191
52483W        W18892  31.716  36.637   1.327
52484W        W18893  21.931  32.959  13.960
52485W        W18894  24.435   1.524   3.248
52486W        W18895  18.247  26.247   2.310
52487W        W18896  36.105  28.106  14.050
52488W        W18897  36.859  23.000  14.901
52489W        W18898  14.702  16.270  11.914
52490W        W18899  44.302  34.971   3.613
52491W        W18900   4.743  25.685  12.511
52492W        W18901  12.373  21.524   2.405
52493W        W18902   5.757  28.908   2.359
52494W        W18903  23.047   9.904  14.192
52495W        W18904  24.178  14.906   4.229
52496W        W18905  44.507   0.083   2.279
52497W        W18906  15.891  17.008   3.120
52498W        W18907  33.169  21.231  12.889
52499W        W18908  19.569   3.930  12.042
52500W        W18909  11.919  12.916   0.277
52501W        W18910   5.484  44.985  11.518
52502W        W18911  38.362   6.034   0.533
52503W        W18912  21.087  38.937  14.606
52504W        W18913  27.611   6.341   1.201
52505W        W18914  34.481   1.807   2.118
52506W        W18915  25.000   5.219   0.509
52507W        W18916   1.439  43.859  10.744
52508W        W18917  15.536   1.604  10.707
52509W        W18918  14.654  19.249   5.366
52510W        W18919  15.163  25.066  14.606
52511W        W18920  39.946  17.389  13.449
52512W        W18921  25.583  39.367  12.350
52513W        W18922   9.940  11.808  12.874
52514W        W18923  13.872   6.718   1.287
52515W        W18924  14.667  29.589   3.717
52516W        W18925  41.462  27.685  13.103
52517W        W18926  11.195  41.970  12.899
52518W        W18927  38.640  12.602   2.350
52519W        W18928  19.453  26.209   0.836
52520W        W18929   3.307   0.362  14.089
52521W        W18930   6.765  44.849  14.305
52522W        W18931  35.691  26.561   4.572
52523W        W18932   4.269  25.227  10.307
52524W        W18933  12.687  19.150  14.328
52525W        W18934   5.582  27.549   4.073
52526W        W18935  28.052  23.005   0.070
52527W        W18936  37.677   4.914   4.610
52528W        W18937  34.987  39.109   0.339
52529W        W18938  17.524  39.876   1.846
52530W        W18939   5.912  17.644   2.719
52531W        W18940   6.933  26.867   4.878
52532W        W18941  17.594  27.333   2.825
52533W        W18942  23.527  15.133  11.113
52534W        W18943  24.534  20.549  12.571
52535W        W18944  16.347  40.419   3.470
52536W        W18945   8.848  17.534   4.621
52537W        W18946  24.411  16.163   0.657
52538W        W18947  12.531  13.451  11.317
52539W        W18948  12.854  12.733  12.826
52540W        W18949   3.919  29.416  11.048
52541W        W18950   2.706  35.675   0.028
52542W        W18951  32.048  43.254  12.201
52543W        W18952  37.908   9.597  12.050
52544W        W18953  35.940  27.627  12.915
52545W        W18954  23.794  34.782  13.313
52546W        W18955  44.145  14.297  14.878
52547W        W18956  20.180   6.899   1.406
52548W        W18957   1.802   0.503  12.335
52549W        W18958  37.014  34.387   1.678
52550W        W18959   8.421   0.247   9.983
52551W        W18960  23.452   9.065   2.790
52552W        W18961  26.450  25.646   1.773
52553W        W18962  18.327   9.296   3.278
52554W        W18963  31.577  40.374  14.825
52555W        W18964  12.236  35.337  14.440
52556W        W18965   3.845  11.867   3.068
52557W        W18966  29.176  25.440  12.476
52558W        W18967  21.278  21.888  10.501
52559W        W18968  11.562  19.494   2.813
52560W        W18969  11.236  34.717   1.667
52561W        W18970  12.770   9.770   3.184
52562W        W18971   0.253   0.832   0.769
52563W        W18972   6.721  35.928   0.817
52564W        W18973  19.796  16.033   3.719
52565W        W18974  23.448  15.709  13.344
52566W        W18975  31.609  29.318   0.151
52567W        W18976  41.069  20.293   3.097
52568W        W18977  35.764  21.731   0.852
52569W        W18978  17.322  28.061  12.035
52570W        W18979  24.487   6.130  12.938
52571W        W18980  37.594   1.144  12.431
52572W        W18981  25.279  30.470   2.796
52573W        W18982  39.735  30.656   2.109
52574W        W18983  31.536   5.670   1.644
52575W        W18984  22.698  41.387  14.061
52576W        W18985  12.609  29.193   4.171
52577W        W18986  30.669  41.767   1.481
52578W        W18987  32.884  41.244   0.810
52579W        W18988  23.174  35.106   0.743
52580W        W18989   8.836  34.350   1.351
52581W        W18990  20.803   4.225   4.181
52582W        W18991  30.172  38.590   3.423
52583W        W18992  29.702  12.566   3.343
52584W        W18993  41.627  31.564   1.908
52585W        W18994  29.326  30.511  10.711
52586W        W18995   8.379  36.834  11.222
52587W        W18996   0.337  32.896   1.672
52588W        W18997   3.204   3.999   3.320
52589W        W18998  33.979  21.535   4.605
52590W        W18999  12.227  16.880   3.246
52591W        W19000  31.346  15.854  11.128
52592W        W19001  33.844  14.399   1.834
52593W        W19002  38.931  21.532  12.142
52594W        W19003   2.339  38.623   0.143
52595W        W19004  13.324  31.988  12.425
52596W        W19005  17.128  15.528  10.814
52597W        W19006  29.872  40.470   3.275
52598W        W19007   0.705  24.595  14.982
52599W        W19008  10.686  18.592   1.906
52600W        W19009  16.071   6.199   0.779
52601W        W19010   0.245  42.639   0.805
52602W        W19011  19.120  38.343   3.114
52603W        W19012   0.879  25.905   0.143
52604W        W19013  41.569  30.487   3.230
52605W        W19014   5.154  19.847  10.635
52606W        W19015  34.302  33.514  13.805
52607W        W19016  10.919  23.201  10.631
52608W        W19017  43.711   9.198   1.224
52609W        W19018  40.276  31.776   4.686
52610W        W19019  44.036   4.509  11.153
52611W        W19020  27.634  23.636   1.726
52612W        W19021  34.651  33.705   1.000
52613W        W19022  39.819   7.376   1.735
52614W        W19023  13.284  19.288   1.866
52615W        W19024  14.814  40.050  11.136
52616W        W19025   3.922  16.994  13.059
52617W        W19026  44.744   0.270  11.160
52618W        W19027  21.165  33.413   3.613
52619W        W19028  24.075   4.836  14.503
52620W        W19029  15.618  39.754   3.082
52621W        W19030  31.037  31.855   4.150
52622W        W19031  23.787  16.830   1.339
52623W        W19032   6.984  13.719   1.857
52624W        W19033  35.705  26.591  13.704
52625W        W19034  22.333  23.746   5.066
52626W        W19035  23.737  27.422  13.276
52627W        W19036  44.347  20.343   3.222
52628W        W19037  16.345  29.377   0.582
52629W        W19038  31.688  36.935  14.913
52630W        W19039  25.156   7.309  14.526
52631W        W19040   3.508  33.163  14.324
52632W        W19041  13.294  26.237   4.173
52633W        W19042  13.465  10.619  13.847
52634W        W19043  31.537   8.327   1.153
52635W        W19044  30.884  32.763   4.185
52636W        W19045  35.915  12.733  10.701
52637W        W19046  12.505  15.565  11.697
52638W        W19047   8.810  35.154   1.653
52639W        W19048  25.247  26.470   1.411
52640W        W19049  21.574  39.314  12.462
52641W        W19050   7.007  43.944   0.887
52642W        W19051   2.621   0.478   4.041
52643W        W19052  43.493   2.480   4.589
52644W        W19053   4.784  17.080   4.540
52645W        W19054  23.002   0.954  11.446
52646W        W19055  14.616   1.876   0.855
52647W        W19056  41.499  23.978  13.495
52648W        W19057  12.247   4.298  13.749
52649W        W19058  15.546  16.625  14.714
52650W        W19059   7.235  11.147   0.249
52651W        W19060  38.274   0.744  13.336
52652W        W19061  44.362   4.727  11.984
52653W        W19062  43.081   4.791  12.390
52654W        W19063  29.240   5.456   3.915
52655W        W19064  35.051   4.000  10.902
52656W        W19065   9.142  26.158  14.401
52657W        W19066  26.659  23.161   9.736
52658W        W19067  12.739   8.681   4.254
52659W        W19068  44.100  10.441  12.561
52660W        W19069  30.352   6.268   4.040
52661W        W19070   3.947  11.671  10.093
52662W        W19071  25.905   2.864  12.041
52663W        W19072  42.900  21.256  12.477
52664W        W19073  36.498  25.988  13.395
52665W        W19074   5.510  21.778   4.290
52666W        W19075  31.435   8.831   0.405
52667W        W19076   1.535   9.686   9.686
52668W        W19077   5.766  19.072  11.046
52669W        W19078   8.752  35.050  12.502
52670W        W19079  36.308  17.305   4.568
52671W        W19080  29.957  38.555  11.218
52672W        W19081  35.517   9.810   4.449
52673W        W19082  27.147  37.792  11.087
52674W        W19083   7.700  36.128  11.211
52675W        W19084  25.483  33.442  13.733
52676W        W19085  27.353  15.108   1.480
52677W        W19086   6.387  16.502  14.835
52678W        W19087  41.383  23.312   1.329
52679W        W19088  30.656  28.969   1.112
52680W        W19089  15.163   1.911  10.533
52681W        W19090  35.779  43.081   2.347
52682W        W19091  29.254   8.439   2.178
52683W        W19092  17.667  20.530   0.294
52684W        W19093  39.859  39.935  13.551
52685W        W19094  37.058  25.465   0.839
52686W        W19095  12.248   1.457  10.378
52687W        W19096  34.545  25.201   2.502
52688W        W19097  32.306  36.056   0.679
52689W        W19098  31.411  24.707   4.723
52690W        W19099  21.708  43.002   1.450
52691W        W19100  44.433  27.198   1.399
52692W        W19101  44.399  10.291   1.058
52693W        W19102  43.998  15.292   2.838
52694W        W19103  12.874  21.180  13.910
52695W        W19104   3.149  10.516  12.596
52696W        W19105  21.242   3.370  13.618
52697W        W19106   7.175  41.353   2.138
52698W        W19107  40.091  24.892  11.175
52699W        W19108  20.498  28.665  12.226
52700W        W19109  39.141  17.306  13.006
52701W        W19110  10.876   2.820   3.441
52702W        W19111  15.845  17.285  12.887
52703W        W19112  31.625   6.500   0.358
52704W        W19113  40.699   8.220  14.479
52705W        W19114  28.042  30.622   3.598
52706W        W19115  42.696  27.097   4.264
52707W        W19116  11.542  44.605   4.739
52708W        W19117  34.445   4.364   4.166
52709W        W19118  28.987   7.737   5.246
52710W        W19119  22.055   4.152  12.414
52711W        W19120  34.409   4.876   1.306
52712W        W19121  21.605  24.983   3.761
52713W        W19122  18.691  36.103  14.821
52714W        W19123  35.964  20.744  11.764
52715W        W19124   9.410   3.478   2.745
52716W        W19125  13.640  32.133   2.769
52717W        W19126  18.242   5.335  13.985
52718W        W19127  35.196   3.732   0.816
52719W        W19128  32.108  30.148   2.726
52720W        W19129  19.715  12.767  13.820
52721W        W19130  11.470  31.396  13.550
52722W        W19131  29.111  42.537  12.541
52723W        W19132  29.843  43.067  14.486
52724W        W19133  29.304  35.857   3.165
52725W        W19134   4.097  32.519   0.794
52726W        W19135  29.420   9.472   4.394
52727W        W19136  36.496  14.222   3.823
52728W        W19137  24.050  20.060  14.645
52729W        W19138  30.494  29.340  14.898
52730W        W19139  38.837   1.584  14.306
52731W        W19140  36.664  24.636  12.453
52732W        W19141   3.631  34.507   3.238
52733W        W19142  21.415   0.379  11.130
52734W        W19143  35.038  21.644   4.465
52735W        W19144  23.503  18.235  14.060
52736W        W19145  42.335  38.000  10.585
52737W        W19146   8.656  26.170   3.177
52738W        W19147  37.761  42.362  13.524
52739W        W19148  34.082  30.546  13.858
52740W        W19149  34.456  27.979  14.445
52741W        W19150   7.383  33.448  11.037
52742W        W19151  40.714  35.310   0.404
52743W        W19152  14.030  10.218   2.308
52744W        W19153  20.123  19.786   2.219
52745W        W19154   8.257  24.195   3.565
52746W        W19155  37.256  42.321  13.436
52747W        W19156  43.853  24.190   3.468
52748W        W19157  40.316  36.468   1.754
52749W        W19158  43.322  44.116   3.338
52750W        W19159  11.746  16.242  12.581
52751W        W19160  23.133   6.566  10.438
52752W        W19161  39.493  40.892   0.733
52753W        W19162  43.798  39.590   4.200
52754W        W19163  42.427  11.604   0.780
52755W        W19164   1.227   9.311  12.431
52756W        W19165  24.880   2.963  12.006
52757W        W19166  33.380   7.418  11.444
52758W        W19167   9.968  29.451  10.552
52759W        W19168  33.141  13.702   3.736
52760W        W19169  11.124  44.015   1.239
52761W        W19170  31.119  16.208  14.818
52762W        W19171  36.889  21.630  11.062
52763W        W19172  24.217  25.820   4.595
52764W        W19173  32.298   6.576  11.165
52765W        W19174   0.717  31.894   0.264
52766W        W19175  36.579  11.074  12.543
52767W        W19176  26.567  34.652   1.857
52768W        W19177  28.126  19.769   5.103
52769W        W19178  41.787  38.917   4.966
52770W        W19179   1.354   6.411  11.863
52771W        W19180  27.205  44.785  11.608
52772W        W19181  11.731  16.781  13.982
52773W        W19182   1.340  39.203   5.032
52774W        W19183  19.103  25.491   0.843
52775W        W19184  43.532  20.685  13.974
52776W        W19185   7.176  27.151   3.067
52777W        W19186  32.319  12.910   2.704
52778W        W19187   8.624  36.446   4.186
52779W        W19188  41.394  25.603  13.027
52780W        W19189  31.534  32.979   3.439
52781W        W19190  20.725  19.260  11.081
52782W        W19191  29.773  18.543  10.862
52783W        W19192   8.132  43.368   0.319
52784W        W19193   8.509  24.455   0.246
52785W        W19194  19.642  31.967   0.764
52786W        W19195  21.495  39.403  11.947
52787W        W19196  11.431  10.963  10.688
52788W        W19197  25.422  39.501   1.939
52789W        W19198  31.275  20.200   1.388
52790W        W19199  26.640  25.025  13.857
52791W        W19200  41.553  20.954   4.390
52792W        W19201  12.504   8.450  14.439
52793W        W19202  26.284  39.249  14.962
52794W        W19203  13.598   9.127   1.305
52795W        W19204  23.230  39.092  13.083
52796W        W19205   9.205  33.061  12.715
52797W        W19206   3.020  34.847   1.304
52798W        W19207  29.380   7.988   1.353
52799W        W19208  19.029   6.777  14.377
52800W        W19209  27.942  18.215  13.952
52801W        W19210  12.575  18.299  11.408
52802W        W19211  34.458  26.696   1.869
52803W        W19212  34.832  22.187  14.683
52804W        W19213   6.148   7.910  12.343
52805W        W19214  25.665   8.401   0.303
52806W        W19215  27.673   4.241  12.919
52807W        W19216   6.718  43.185  12.473
52808W        W19217  16.076  17.014   2.220
52809W        W19218  16.822  38.637  13.285
52810W        W19219  17.330  27.622  10.977
52811W        W19220   7.797  21.764   0.024
52812W        W19221  11.423   9.101   0.439
52813W        W19222   8.993  16.268   0.502
52814W        W19223  12.080  28.020   1.097
52815W        W19224  17.539   6.230  14.310
52816W        W19225  18.604  18.257  14.790
52817W        W19226  13.788  14.838  11.570
52818W        W19227  38.344  41.251  14.943
52819W        W19228  43.542  28.682  11.709
52820W        W19229   4.813   5.137   2.809
52821W        W19230  19.833   5.598  14.418
52822W        W19231  23.584  13.711  11.586
52823W        W19232  32.592  10.698   0.188
52824W        W19233  11.223  36.101  10.937
52825W        W19234  23.610  44.001  13.327
52826W        W19235  43.837   8.391  14.966
52827W        W19236  35.986  25.324  12.206
52828W        W19237  26.141  11.339  14.450
52829W        W19238  41.986  20.013  14.349
52830W        W19239  22.165   3.436   3.398
52831W        W19240  25.552  33.134  10.784
52832W        W19241  37.437  21.615   3.597
52833W        W19242   4.360  36.624   5.052
52834W        W19243  38.965  32.709   0.306
52835W        W19244  24.665  29.182   0.843
52836W        W19245  19.659  30.699  12.935
52837W        W19246  41.415  10.744   1.604
52838W        W19247  35.043  12.835   3.319
52839W        W19248  30.337   1.838  12.885
52840W        W19249   4.226  14.759   3.078
52841W        W19250  44.561  41.983  14.276
52842W        W19251  13.015  18.737  13.978
52843W        W19252  34.852   5.652  10.229
52844W        W19253   1.583  12.851  10.657
52845W        W19254  11.624  21.597  11.727
52846W        W19255  27.966  17.683  11.643
52847W        W19256  36.695  10.745  13.778
52848W        W19257  23.204   4.680   2.711
52849W        W19258   9.127   1.332  11.686
52850W        W19259  38.160   1.364  10.652
52851W        W19260  31.841  12.695   1.382
52852W        W19261  11.875  39.509   1.145
52853W        W19262   4.379  38.889  12.912
52854W        W19263  35.474  44.967   3.684
52855W        W19264  23.958  36.591  12.335
52856W        W19265  12.641   7.728   2.375
52857W        W19266  41.129  22.342   1.307
52858W        W19267   6.363  14.042   3.249
52859W        W19268  11.860  43.216  10.565
52860W        W19269  35.421  41.857   3.697
52861W        W19270  18.255  29.170  10.904
52862W        W19271  31.069   1.909  12.505
52863W        W19272  39.266  18.819   0.036
52864W        W19273   0.619  12.749  10.339
52865W        W19274  28.083   7.815   1.840
52866W        W19275  13.864  23.554   0.789
52867W        W19276   3.454  34.907   2.250
52868W        W19277  22.973  41.951   3.747
52869W        W19278  30.983  43.163  12.962
52870W        W19279  37.265   6.663  13.451
52871W        W19280  39.852  22.649   4.578
52872W        W19281  38.170   5.985  13.598
52873W        W19282   7.870  36.960  13.755
52874W        W19283   0.905  15.855  13.572
52875W        W19284   9.672   2.129  10.923
52876W        W19285  16.156  11.642   0.758
52877W        W19286  35.086  19.011  14.454
52878W        W19287   0.241  12.636   4.166
52879W        W19288  34.534   1.955  13.930
52880W        W19289  32.711   0.942  13.082
52881W        W19290   8.472  25.528   1.290
52882W        W19291  11.235  26.915   4.111
52883W        W19292  36.086  21.281  13.827
52884W        W19293  25.184  25.709  14.376
52885W        W19294  20.186  11.591   1.787
52886W        W19295  26.692  43.895  12.833
52887W        W19296  21.026  19.244  11.524
52888W        W19297  12.254  44.819   9.799
52889W        W19298   6.697  14.636  12.890
52890W        W19299  21.035   9.221  11.056
52891W        W19300  41.790  27.169  12.934
52892W        W19301   8.835  40.951   1.379
52893W        W19302  37.120  18.489   4.148
52894W        W19303  42.529  18.284   1.651
52895W        W19304   2.352   1.316   1.422
52896W        W19305  25.470   1.392   0.029
52897W        W19306   1.264  36.404   3.823
52898W        W19307  36.549  39.870   2.267
52899W        W19308  17.536   8.661   2.440
52900W        W19309   0.450  12.266   2.118
52901W        W19310  32.941  29.929   3.161
52902W        W19311  16.527  29.955  14.444
52903W        W19312   7.524  38.948   4.201
52904W        W19313  43.187   8.233  10.336
52905W        W19314  19.222  22.721  12.597
52906W        W19315   9.738  42.399   5.009
52907W        W19316  44.778   0.750  11.281
52908W        W19317  14.211   0.018  12.030
52909W        W19318  10.787   1.503  13.464
52910W        W19319  13.827  28.425   0.257
52911W        W19320  27.036  29.054  13.553
52912W        W19321  19.636   7.869   3.869
52913W        W19322  31.887  41.589   4.114
52914W        W19323   1.231  34.474  10.709
52915W        W19324  17.536  35.630   1.315
52916W        W19325  41.720   3.728   2.687
52917W        W19326  18.871  41.155  12.986
52918W        W19327   7.664   2.198   1.440
52919W        W19328  29.439  38.568   3.770
52920W        W19329  14.100  24.592   4.107
52921W        W19330  34.657  34.213   0.864
52922W        W19331  30.962  16.535   4.211
52923W        W19332  21.250  28.542   1.620
52924W        W19333   4.272  35.894  12.092
52925W        W19334  35.555  27.921  14.823
52926W        W19335  39.796  28.427   1.194
52927W        W19336  10.223  31.188  13.909
52928W        W19337  20.625  12.851   1.899
52929W        W19338  43.082   0.830   4.511
52930W        W19339   5.746  29.245  10.641
52931W        W19340  13.703   9.190  12.863
52932W        W19341  32.963  39.146   2.793
52933W        W19342  34.343  15.668  14.933
52934W        W19343  35.064  21.294  11.184
52935W        W19344   3.621   5.591  11.243
52936W        W19345  21.768  28.111   1.207
52937W        W19346  35.423  14.786   3.179
52938W        W19347  42.368  18.635   9.922
52939W        W19348   5.400   4.910   1.740
52940W        W19349   4.208  32.030  14.967
52941W        W19350  42.220  40.240   1.771
52942W        W19351   9.922  13.090   0.413
52943W        W19352  11.470  34.071  11.309
52944W        W19353  15.800  15.741  12.632
52945W        W19354  43.745   0.354  12.388
52946W        W19355   2.893  14.710   1.882
52947W        W19356  43.275  43.551  13.013
52948W        W19357  42.359  39.423  10.707
52949W        W19358  30.079  34.356   3.197
52950W        W19359  42.799  24.853   2.613
52951W        W19360   0.693  40.961  11.563
52952W        W19361   8.162  36.351  11.366
52953W        W19362  25.899   7.723   1.439
52954W        W19363  30.968  25.275  11.036
52955W        W19364  10.717  26.988  12.867
52956W        W19365  29.581  24.622  10.459
52957W        W19366   9.804   5.158   3.676
52958W        W19367  39.578  43.113  13.457
52959W        W19368  30.815  11.214   1.499
52960W        W19369   4.292  27.346  14.316
52961W        W19370   9.709  37.628  13.087
52962W        W19371  41.285  26.652  13.753
52963W        W19372  24.518  29.397  13.718
52964W        W19373   5.486   3.489   4.547
52965W        W19374  39.877  44.284   2.073
52966W        W19375   9.445  27.073  11.146
52967W        W19376  20.162  30.798  11.979
52968W        W19377  44.113   8.222  11.634
52969W        W19378  32.731  21.288  13.911
52970W        W19379  26.048  24.614  14.922
52971W        W19380  25.249  22.321   4.111
52972W        W19381  37.770   7.167  11.188
52973W        W19382   4.458  29.621  13.110
52974W        W19383  31.507  41.998   0.852
52975W        W19384   2.724  10.581  14.589
52976W        W19385   0.466  12.592   3.689
52977W        W19386  42.273   4.947   1.903
52978W        W19387   3.416  11.569   3.753
52979W        W19388   6.095  25.330  13.558
52980W        W19389  13.772   1.097  13.843
52981W        W19390  18.183  34.864  14.264
52982W        W19391  38.438  25.232  10.651
52983W        W19392  22.346  35.565   4.227
52984W        W19393   9.382  36.453   4.682
52985W        W19394   8.968  20.254   0.533
52986W        W19395  40.113  16.312  10.819
52987W        W19396  41.732  26.707   1.351
52988W        W19397  34.966   3.647   3.275
52989W        W19398  36.334  21.472  11.112
52990W        W19399  16.858  13.564   1.177
52991W        W19400   5.793  11.953   2.272
52992W        W19401  41.546  20.661   0.819
52993W        W19402  31.663  20.118   4.236
52994W        W19403  37.500   8.771  11.122
52995W        W19404  16.292  42.121   4.582
52996W        W19405  19.053   3.740   2.403
52997W        W19406  36.582   7.256   0.244
52998W        W19407  11.262   1.478  13.244
52999W        W19408   1.999  10.457   2.755
53000W        W19409   5.498   1.261  13.581
53001W        W19410  43.385  37.688  11.155
53002W        W19411  28.400  19.330   5.124
53003W        W19412  30.095  16.584  12.444
53004W        W19413  34.922  24.160   2.918
53005W        W19414  44.972  22.557  14.829
53006W        W19415  11.801  29.533  10.962
53007W        W19416  20.798   4.248  11.094
53008W        W19417  21.041  17.805   4.096
53009W        W19418  35.977   4.433   1.669
53010W        W19419  34.933  12.387  12.779
53011W        W19420  33.694  23.464  12.337
53012W        W19421  37.060  17.696  12.425
53013W        W19422  26.223  14.739   2.523
53014W        W19423  43.702  30.184  13.418
53015W        W19424   9.649  12.682   0.228
53016W        W19425  16.037  23.732   3.306
53017W        W19426  41.947  26.863   3.787
53018W        W19427   5.801  30.603  12.055
53019W        W19428   6.448  44.766  10.627
53020W        W19429  41.795  27.536  13.890
53021W        W19430  38.724  34.959  13.830
53022W        W19431  26.548   2.096   0.148
53023W        W19432  26.550  22.311  12.025
53024W        W19433  11.170  37.622   0.294
53025W        W19434  18.538  40.073  10.251
53026W        W19435  22.286  43.830   3.186
53027W        W19436  35.093  31.677  13.990
53028W        W19437  24.984   6.839   1.589
53029W        W19438  41.256  18.657  10.688
53030W        W19439   2.390  12.367   0.005
53031W        W19440  30.045  17.257  13.583
53032W        W19441  22.058   7.610   1.703
53033W        W19442   8.671  15.775   3.271
53034W        W19443  20.679  44.036  11.056
53035W        W19444  26.202  23.729  12.860
53036W        W19445  20.426  11.362  13.508
53037W        W19446  20.350  31.037   3.182
53038W        W19447  15.703  32.026  11.930
53039W        W19448   7.440  24.252   1.811
53040W        W19449  26.699  10.582  13.872
53041W        W19450  18.415   3.435  13.923
53042W        W19451  37.843   3.385  10.647
53043W        W19452  22.331   2.288   1.839
53044W        W19453  42.855  38.109  10.516
53045W        W19454  16.651   3.512   4.340
53046W        W19455   7.546   3.648  14.165
53047W        W19456  31.515  41.762   2.401
53048W        W19457  23.033   8.166  13.418
53049W        W19458   9.180  19.715  14.818
53050W        W19459   2.154  43.272  14.328
53051W        W19460  41.614  32.031  12.160
53052W        W19461  20.054  18.284  12.609
53053W        W19462  22.561  18.108   3.396
53054W        W19463  40.401  42.068   3.753
53055W        W19464   6.652  37.918  14.828
53056W        W19465   5.897  40.871  14.428
53057W        W19466  14.768  26.607  13.583
53058W        W19467  35.166   1.415   3.225
53059W        W19468  31.502  40.898  14.785
53060W        W19469  10.456  40.270  12.726
53061W        W19470  14.974  11.878  13.554
53062W        W19471   0.791   3.548  11.459
53063W        W19472  31.019  37.819   0.393
53064W        W19473  29.651  36.771  14.849
53065W        W19474  37.211  37.205   2.195
53066W        W19475  14.896  41.710   4.281
53067W        W19476   6.365  27.879   4.219
53068W        W19477  25.467   1.999   1.755
53069W        W19478  41.091  35.859  13.441
53070W        W19479   8.731   1.936  10.231
53071W        W19480  44.792  20.690   3.144
53072W        W19481   0.482  31.618   3.848
53073W        W19482   2.971  43.885  10.737
53074W        W19483  37.490  39.510   2.152
53075W        W19484  42.425  26.248  13.085
53076W        W19485  26.533  40.407   4.087
53077W        W19486  14.859  35.129  12.544
53078W        W19487  37.103  36.103   0.609
53079W        W19488  20.800  34.475  14.202
53080W        W19489  14.631  10.572   4.762
53081W        W19490   2.190  27.247  12.131
53082W        W19491  16.334  28.968  12.193
53083W        W19492  23.157   0.269   3.446
53084W        W19493  31.978  24.936   2.166
53085W        W19494  10.196  34.312   0.737
53086W        W19495   2.516  44.896  13.669
53087W        W19496  28.671  37.509   4.527
53088W        W19497  13.141  10.323  14.990
53089W        W19498   6.625  38.337   2.381
53090W        W19499  15.915  29.015  11.616
53091W        W19500  20.277  28.989  11.239
53092W        W19501  28.154  32.078  12.592
53093W        W19502  33.804  39.390   2.343
53094W        W19503  43.941   8.323  11.147
53095W        W19504  23.657   5.848  12.922
53096W        W19505   8.341  12.149  13.491
53097W        W19506  16.473  29.075  12.672
53098W        W19507  40.346  39.435  10.516
53099W        W19508  10.626  22.951  10.970
53100W        W19509  11.572  43.488  13.092
53101W        W19510   5.579  26.769   4.643
53102W        W19511   3.783  33.592  10.407
53103W        W19512  26.038   5.412   2.650
53104W        W19513  43.438  31.438  11.131
53105W        W19514  10.724   0.576   0.142
53106W        W19515  23.017  24.775   2.292
53107W        W19516  42.196  22.948  11.488
53108W        W19517  34.709  31.138  11.599
53109W        W19518  22.283   0.727   0.239
53110W        W19519  15.647  39.475   4.606
53111W        W19520   4.003  19.633  14.422
53112W        W19521  44.451   5.385  12.967
53113W        W19522  25.927  23.272  13.002
53114W        W19523  17.417  30.433   0.959
53115W        W19524   0.545   3.039   1.311
53116W        W19525   9.471   9.387   4.096
53117W        W19526  34.771  36.440   1.842
53118W        W19527   4.854  31.437   3.240
53119W        W19528  31.718   9.619  10.855
53120W        W19529  28.785  43.555  14.591
53121W        W19530  38.011   4.852  11.581
53122W        W19531  40.036  16.436   2.232
53123W        W19532   9.178   3.265  14.271
53124W        W19533  37.114  41.260   4.894
53125W        W19534  16.311  19.854  12.901
53126W        W19535   5.213  14.110   4.240
53127W        W19536   1.249  22.691   3.692
53128W        W19537  23.154  32.622  12.861
53129W        W19538   2.079   5.754  10.585
53130W        W19539  19.974   7.265  11.651
53131W        W19540  41.244   7.232   2.288
53132W        W19541  18.263  10.299  10.822
53133W        W19542  39.954  41.952   2.136
53134W        W19543  31.561   6.220  14.046
53135W        W19544   6.504   1.704   2.218
53136W        W19545   9.658   3.349  10.794
53137W        W19546  40.827  30.170   1.420
53138W        W19547  42.419   6.683   2.711
53139W        W19548  18.848   0.861  14.325
53140W        W19549   8.739  32.585   3.318
53141W        W19550  16.352  44.407   3.975
53142W        W19551   6.327  18.196  13.464
53143W        W19552  29.883  25.151   3.372
53144W        W19553  12.925  11.915   0.806
53145W        W19554  13.509  31.760   3.773
53146W        W19555  44.097  32.145  11.316
53147W        W19556   0.565  10.090  10.226
53148W        W19557  43.889   6.019  14.820
53149W        W19558  11.662  20.117   3.295
53150W        W19559  14.775   1.963   9.833
53151W        W19560  42.505  36.145   2.382
53152W        W19561  11.321  18.323  10.414
53153W        W19562  27.883   9.631  12.508
53154W        W19563   2.336  14.361   1.357
53155W        W19564  22.050   3.669  12.589
53156W        W19565  18.731  38.033   4.042
53157W        W19566   5.311   6.172  13.549
53158W        W19567  36.483  33.117  11.203
53159W        W19568   2.544  18.915   0.022
53160W        W19569  15.318  32.480   0.381
53161W        W19570   1.314  33.431  11.028
53162W        W19571   1.712  30.459  12.346
53163W        W19572   9.960  16.572   4.923
53164W        W19573  17.229  24.220   3.136
53165W        W19574  20.881  23.044  11.033
53166W        W19575   1.425  37.512   1.382
53167W        W19576  41.912   6.204  11.249
53168W        W19577  26.127  16.745  14.155
53169W        W19578  43.286  17.209   0.402
53170W        W19579  19.520  27.667   0.499
53171W        W19580  41.117   1.683   3.135
53172W        W19581  32.514  28.472   3.800
53173W        W19582  26.649  20.485   1.480
53174W        W19583   8.839   7.632   1.988
53175W        W19584  40.367   3.262   0.372
53176W        W19585  26.194  27.000  12.084
53177W        W19586  19.526   4.854   3.268
53178W        W19587   5.185  23.054   1.044
53179W        W19588  19.906  37.475  11.610
53180W        W19589  33.270   7.068   1.566
53181W        W19590  43.990   1.702  14.296
53182W        W19591   4.260  35.482  14.961
53183W        W19592  11.242   1.751   0.076
53184W        W19593  18.709  25.758  12.854
53185W        W19594  29.174   3.991   2.298
53186W        W19595  32.396  22.564  13.886
53187W        W19596  16.604  24.110   0.237
53188W        W19597  43.051  11.168  12.205
53189W        W19598  26.572  31.094   2.944
53190W        W19599  37.686  13.300  11.208
53191W        W19600  29.068  15.536   0.767
53192W        W19601   9.643  14.304  11.523
53193W        W19602  10.288  37.780   1.049
53194W        W19603  16.981  12.101  13.382
53195W        W19604  23.383  13.717   3.759
53196W        W19605  13.354   0.702   1.279
53197W        W19606  16.796  11.679   1.370
53198W        W19607  18.657   9.858   1.251
53199W        W19608  23.116  17.094   3.113
53200W        W19609  39.088  10.201   3.460
53201W        W19610  39.508   8.227  12.648
53202W        W19611  21.265  12.235  11.965
53203W        W19612  40.348  25.967  11.562
53204W        W19613  20.922   3.326   4.060
53205W        W19614  26.725  10.791   0.147
53206W        W19615   7.190   6.791  12.127
53207W        W19616  28.538  27.186   1.296
53208W        W19617  17.035  25.918  14.330
53209W        W19618  30.134  21.135  11.716
53210W        W19619  35.800  11.292  14.716
53211W        W19620  31.752   6.792  11.784
53212W        W19621  24.710   9.718   2.679
53213W        W19622  40.699  14.219  12.589
53214W        W19623  31.470  25.572   0.226
53215W        W19624   2.524  22.786  11.861
53216W        W19625  42.471  20.634   3.349
53217W        W19626  35.417  12.310  12.978
53218W        W19627   8.109  28.575   3.593
53219W        W19628  12.566  14.211   1.380
53220W        W19629  21.800   2.037  13.353
53221W        W19630   3.288  34.018   1.752
53222W        W19631  25.485  43.723   0.738
53223W        W19632  21.515  17.038   0.861
53224W        W19633  31.962  37.450  12.381
53225W        W19634   6.116  34.341   3.265
53226W        W19635  20.986  17.288   4.236
53227W        W19636  35.901  19.225  10.230
53228W        W19637  19.957   0.157  14.510
53229W        W19638   3.410   7.734  10.604
53230W        W19639  40.616  18.324   9.935
53231W        W19640  39.042   5.739   1.961
53232W        W19641  37.749  26.719   1.845
53233W        W19642  32.478   6.250  14.972
53234W        W19643  20.260  20.352  14.707
53235W        W19644  21.175  11.504  11.427
53236W        W19645   8.672  37.896  11.066
53237W        W19646  15.851  29.594   0.373
53238W        W19647   4.395   2.409  12.803
53239W        W19648   9.803  13.347  11.430
53240W        W19649  28.511  44.293   0.318
53241W        W19650  29.119   1.098  14.954
53242W        W19651  28.456  42.417   0.305
53243W        W19652  19.690  37.359   0.887
53244W        W19653   1.886   1.005  12.463
53245W        W19654  15.665  25.998   2.949
53246W        W19655  18.594  33.600  13.486
53247W        W19656  24.735   1.513   1.526
53248W        W19657   6.782  41.598  14.368
53249W        W19658   7.944  19.777   4.705
53250W        W19659  29.661  11.387   0.253
53251W        W19660  39.033   3.512   3.768
53252W        W19661   0.764  24.085  11.548
53253W        W19662   8.926   6.893  11.562
53254W        W19663  39.485  32.401   4.553
53255W        W19664  39.366  11.795  11.997
53256W        W19665  22.082  15.903  12.633
53257W        W19666   1.385  19.212   2.629
53258W        W19667  33.958   2.873  11.411
53259W        W19668   9.744  29.828   4.598
53260W        W19669  35.078   7.396  13.782
53261W        W19670   2.810  34.043  14.963
53262W        W19671  22.066  11.818   1.026
53263W        W19672  35.467  22.559   0.927
53264W        W19673   8.858  19.036   3.686
53265W        W19674  33.927  25.652  10.611
53266W        W19675  39.382  15.237  13.867
53267W        W19676  36.398  13.662   0.297
53268W        W19677  19.091   4.149  12.278
53269W        W19678  23.183   3.414  12.008
53270W        W19679   6.271  31.576  12.472
53271W        W19680  41.843  41.357   4.438
53272W        W19681   0.223  12.643  10.684
53273W        W19682   4.395   7.700   2.648
53274W        W19683  17.025  30.511   4.539
53275W        W19684  30.559  28.519   0.297
53276W        W19685  21.573   5.356   3.120
53277W        W19686   3.305  44.020  12.541
53278W        W19687  14.646  18.112  12.944
53279W        W19688  12.137  34.455   3.574
53280W        W19689  25.585  43.835  14.507
53281W        W19690  25.263  41.285   2.793
53282W        W19691  39.898  28.850   3.648
53283W        W19692  29.108  41.369   4.458
53284W        W19693  34.995   9.434  14.125
53285W        W19694  11.663  21.149   4.190
53286W        W19695  24.332  12.316  12.469
53287W        W19696  13.252  31.533   3.294
53288W        W19697  28.839  11.535  10.903
53289W        W19698  37.243  22.667   3.316
53290W        W19699  27.949  26.179   0.390
53291W        W19700  22.350  26.241  13.059
53292W        W19701  31.468  23.172  14.600
53293W        W19702  30.568  32.068  14.367
53294W        W19703  14.441  38.806  10.460
53295W        W19704  19.686  43.864  13.929
53296W        W19705  42.666  35.925  11.241
53297W        W19706  17.578  35.335  11.322
53298W        W19707  24.126  22.566  13.440
53299W        W19708  15.286  20.323  10.264
53300W        W19709  40.516  33.432   2.297
53301W        W19710  18.982   0.013   3.264
53302W        W19711  42.939  23.740  10.633
53303W        W19712  27.655  44.857  12.444
53304W        W19713  40.925  14.327   3.567
53305W        W19714   3.704   4.693   1.176
53306W        W19715   5.661   8.968  11.139
53307W        W19716  17.660  14.119   4.800
53308W        W19717  38.887  10.625  14.711
53309W        W19718  18.370  37.527  10.975
53310W        W19719  42.796  42.576  14.798
53311W        W19720   5.452  39.561  14.712
53312W        W19721  16.411  14.750   1.405
53313W        W19722  32.986  33.572  13.864
53314W        W19723  26.155  22.361   0.273
53315W        W19724  41.318  30.593   4.118
53316W        W19725   1.517  19.320  13.896
53317W        W19726  36.578  31.979  10.734
53318W        W19727  23.220  31.594   0.425
53319W        W19728  34.130  15.748  14.420
53320W        W19729  30.833  26.368   5.061
53321W        W19730  37.571  35.382   4.495
53322W        W19731  22.737  14.215   3.426
53323W        W19732  16.868  20.642   4.679
53324W        W19733  36.438  20.487  14.282
53325W        W19734  34.256  28.006   1.567
53326W        W19735  38.482  20.235  13.481
53327W        W19736  39.628   9.610   4.758
53328W        W19737  11.668  33.795   1.677
53329W        W19738  32.610  18.265   3.755
53330W        W19739  29.529  14.620   4.663
53331W        W19740   7.782  19.623   2.095
53332W        W19741   2.659  41.983   2.335
53333W        W19742  39.291  25.078   4.544
53334W        W19743   8.873  27.204   2.314
53335W        W19744  16.552  13.515   4.293
53336W        W19745  12.457  36.467  14.900
53337W        W19746  31.093  31.836  14.080
53338W        W19747   3.764   4.410  10.479
53339W        W19748  19.931  16.025   3.232
53340W        W19749  37.565  30.501  12.471
53341W        W19750   1.505   9.234  12.862
53342W        W19751  21.726  24.963   4.651
53343W        W19752   2.615  35.485   2.195
53344W        W19753  18.526  32.989   2.569
53345W        W19754  44.937  11.616  12.177
53346W        W19755  41.976  11.629   0.499
53347W        W19756   3.336  25.221   0.344
53348W        W19757  37.007   4.897   0.430
53349W        W19758  31.435   7.898   3.017
53350W        W19759  34.883  31.609   1.331
53351W        W19760  17.266  42.305   1.849
53352W        W19761  42.138  19.803   5.297
53353W        W19762  43.778  40.104   4.946
53354W        W19763   9.075  21.767   3.097
53355W        W19764  14.107   5.385   3.706
53356W        W19765  30.917  13.687   2.139
53357W        W19766  14.622  32.179   3.265
53358W        W19767   9.758  18.095  13.774
53359W        W19768   6.722   7.511   4.248
53360W        W19769  42.471   0.406  10.914
53361W        W19770   6.698   6.448  13.435
53362W        W19771  32.993  37.103  12.438
53363W        W19772  28.080  14.339  13.583
53364W        W19773  32.529   3.581   0.533
53365W        W19774   1.002  13.687  11.886
53366W        W19775   5.789  37.509  11.034
53367W        W19776  27.461  38.040   3.768
53368W        W19777  31.708  13.230   1.172
53369W        W19778  29.208  21.059   0.248
53370W        W19779  27.034  37.905   4.433
53371W        W19780  16.221  18.365  13.963
53372W        W19781  11.628  35.920  11.249
53373W        W19782  30.803  34.289  11.113
53374W        W19783   5.937  20.130   4.147
53375W        W19784   9.214  34.342   3.185
53376W        W19785  11.931  26.449  12.587
53377W        W19786  26.688  36.985  11.168
53378W        W19787  43.454  28.626   2.398
53379W        W19788  24.530  28.929   0.404
53380W        W19789   6.197   6.784  12.764
53381W        W19790  39.027   7.169   0.262
53382W        W19791   7.874   3.701  10.575
53383W        W19792   1.171  29.953   4.307
53384W        W19793   0.240  26.534   2.826
53385W        W19794  13.645  11.350  14.281
53386W        W19795  16.802  14.118   1.954
53387W        W19796  13.128   2.108   3.258
53388W        W19797  41.888  12.690   2.802
53389W        W19798  25.189  30.426  13.409
53390W        W19799  25.648  17.383   1.706
53391W        W19800  12.321  30.619   5.254
53392W        W19801  28.761  23.799  13.006
53393W        W19802  28.147   5.858  12.673
53394W        W19803   9.674   7.847   0.294
53395W        W19804  33.194  20.102   1.245
53396W        W19805  28.191  18.378  13.121
53397W        W19806  17.053  27.638   0.402
53398W        W19807  25.548  24.999  12.871
53399W        W19808  43.468  40.299  12.891
53400W        W19809  18.714  17.273   1.197
53401W        W19810  28.098  18.392   5.102
53402W        W19811  41.823  44.074  11.452
53403W        W19812   6.823  40.759   3.784
53404W        W19813  19.644  27.434  14.491
53405W        W19814  15.594  21.561  10.320
53406W        W19815   1.315  19.922   4.633
53407W        W19816  25.438  41.001  11.513
53408W        W19817  34.668   7.246   2.644
53409W        W19818  26.136  13.817  12.433
53410W        W19819   9.623   1.151  10.976
53411W        W19820  28.397  44.061   4.181
53412W        W19821  37.762  10.152   5.043
53413W        W19822  40.092  43.572   4.333
53414W        W19823  29.111  40.430   2.682
53415W        W19824  16.080  34.015   4.767
53416W        W19825  36.344  43.692  12.901
53417W        W19826  20.775  34.387  11.562
53418W        W19827  37.503   5.881   3.653
53419W        W19828  14.198  18.836  13.305
53420W        W19829   5.500   6.217  14.005
53421W        W19830  12.808  14.720  13.940
53422W        W19831  30.478  21.781   0.827
53423W        W19832  13.450  10.281  10.030
53424W        W19833  26.230  30.025  12.815
53425W        W19834  10.381  16.832   2.288
53426W        W19835   4.735  14.298   1.947
53427W        W19836  29.219  18.092  11.486
53428W        W19837  37.368  26.707  12.103
53429W        W19838   1.838   7.851  11.540
53430W        W19839  37.493   9.362  11.641
53431W        W19840  36.204  43.040   3.729
53432W        W19841  17.833  38.823   4.603
53433W        W19842   3.424   8.827   2.169
53434W        W19843   9.291   4.372  12.522
53435W        W19844   2.645  35.438  11.428
53436W        W19845   1.353  14.130   3.123
53437W        W19846  26.352  37.510   4.560
53438W        W19847  27.417  13.703  12.085
53439W        W19848  32.490   0.880  13.864
53440W        W19849  37.939  20.312  14.791
53441W        W19850   6.769  27.371   1.197
53442W        W19851  37.669  27.989   4.747
53443W        W19852  12.582  19.535   2.753
53444W        W19853  39.571   1.355  13.967
53445W        W19854  28.073   8.908  14.231
53446W        W19855  44.381  20.302  11.034
53447W        W19856   3.215  39.634   2.574
53448W        W19857  38.012  41.018   4.272
53449W        W19858   0.610  42.764   1.898
53450W        W19859  18.254  28.634   1.297
53451W        W19860  15.282  10.785   0.500
53452W        W19861  13.290  31.078   2.207
53453W        W19862  17.313   8.702   3.678
53454W        W19863   3.527  37.081  14.307
53455W        W19864   2.333  38.552   2.769
53456W        W19865  26.012  34.861  10.692
53457W        W19866  43.252  29.941  12.496
53458W        W19867  33.037  19.482  11.192
53459W        W19868  14.740  23.681   4.217
53460W        W19869  35.464  22.815   1.376
53461W        W19870  33.649  24.660  14.500
53462W        W19871  40.356   9.112  11.273
53463W        W19872  44.850  29.122   1.218
53464W        W19873  41.942  35.555  13.303
53465W        W19874  33.905  35.966  13.789
53466W        W19875  43.968  29.362  12.953
53467W        W19876  28.988  42.966  12.103
53468W        W19877   8.838  23.206  10.721
53469W        W19878   7.691  41.372   1.929
53470W        W19879  39.784   9.442   3.065
53471W        W19880  36.878   2.272  13.330
53472W        W19881  35.429  28.868   3.799
53473W        W19882  11.773   4.518  13.535
53474W        W19883  32.508  32.730  11.561
53475W        W19884  36.023  30.015  11.303
53476W        W19885  40.977  29.588   3.442
53477W        W19886   6.694   8.908  11.192
53478W        W19887  44.726   8.677  11.116
53479W        W19888  16.004  30.211   0.765
53480W        W19889  34.498   5.728  12.841
53481W        W19890  14.229  27.478   4.284
53482W        W19891  21.987   4.343  12.887
53483W        W19892  30.612  35.676   1.893
53484W        W19893  15.172  12.673   0.821
53485W        W19894  23.531  28.114   1.407
53486W        W19895   1.885  23.781  11.613
53487W        W19896   2.706  32.162   1.866
53488W        W19897  33.613  11.081   1.498
53489W        W19898  38.352   2.553   2.270
53490W        W19899   8.253  43.445  11.493
53491W        W19900  23.085  11.617   3.070
53492W        W19901  35.582  36.403   5.089
53493W        W19902   6.961   1.990  13.375
53494W        W19903  24.737  22.236   1.623
53495W        W19904  15.257  28.880   3.742
53496W        W19905   5.190  43.981   2.761
53497W        W19906  32.507  33.985   1.316
53498W        W19907   2.635   9.855  14.965
53499W        W19908  33.455   7.884  14.873
53500W        W19909  42.466  27.541   3.489
53501W        W19910  43.803  28.283  11.441
53502W        W19911  15.217  24.569   4.851
53503W        W19912  16.696  14.282   1.475
53504W        W19913  27.418  18.684   3.578
53505W        W19914  25.094  33.500   2.605
53506W        W19915  44.541  22.916  13.537
53507W        W19916   1.663   8.888  13.921
53508W        W19917   8.827  36.343  13.020
53509W        W19918  29.377   4.311   2.834
53510W        W19919  42.525   3.732   4.585
53511W        W19920  22.569  29.666  13.527
53512W        W19921  37.128  23.053   1.819
53513W        W19922  12.973  10.140  13.498
53514W        W19923  37.313   8.474   1.960
53515W        W19924  32.377   1.760   4.994
53516W        W19925  19.088  27.609   0.207
53517W        W19926  30.590  41.063   2.204
53518W        W19927  30.211  26.507   4.630
53519W        W19928  37.002  41.874  14.554
53520W        W19929  17.015   2.925  11.614
53521W        W19930  40.648  44.053   1.297
53522W        W19931   6.814  15.064  14.955
53523W        W19932  40.310  23.959  14.257
53524W        W19933  11.079  17.914  12.649
53525W        W19934  39.413   1.615   0.300
53526W        W19935   2.684  39.630   4.639
53527W        W19936  27.929   7.633  10.591
53528W        W19937  16.844   9.492   1.424
53529W        W19938  41.477  37.281   2.378
53530W        W19939   2.125  19.759  11.589
53531W        W19940  40.344  14.806   3.145
53532W        W19941  29.393   5.941   3.807
53533W        W19942  20.905   9.945  11.546
53534W        W19943  42.515  43.844   4.692
53535W        W19944  27.145  12.563  11.443
53536W        W19945  28.504   3.843  13.597
53537W        W19946   0.726  27.659  14.896
53538W        W19947  15.313   8.881  10.648
53539W        W19948  27.365  15.589  13.975
53540W        W19949  37.625  28.269  12.579
53541W        W19950  15.261  15.070   0.087
53542W        W19951  30.365   4.561   4.596
53543W        W19952  27.739   2.440   0.739
53544W        W19953   9.671  37.447  11.357
53545W        W19954  37.992  24.954  10.787
53546W        W19955  31.238  28.121   3.630
53547W        W19956  39.339  23.264   0.497
53548W        W19957  26.949   1.265  13.967
53549W        W19958  19.412  31.782   3.793
53550W        W19959  33.644   1.931  13.920
53551W        W19960  10.949  26.237  12.670
53552W        W19961  37.567  42.205  10.717
53553W        W19962  10.141  37.879   3.265
53554W        W19963  29.631  44.827   2.235
53555W        W19964   1.923  14.608   4.104
53556W        W19965  37.778  14.405   0.333
53557W        W19966  20.195  41.299   4.944
53558W        W19967  36.578  31.408   1.219
53559W        W19968  18.503  17.942  12.520
53560W        W19969  26.025  15.259  13.298
53561W        W19970  19.029  35.427   4.763
53562W        W19971  44.968  30.565  14.585
53563W        W19972  14.746  29.706  14.489
53564W        W19973  36.895   5.899  11.848
53565W        W19974  44.314  22.690   4.168
53566W        W19975  25.110   9.898   0.845
53567W        W19976  37.996  19.085  13.635
53568W        W19977  28.402  24.084  12.038
53569W        W19978  25.933  20.056   3.738
53570W        W19979   7.685  15.317  11.715
53571W        W19980  31.450  20.512   1.775
53572W        W19981  41.985  40.012  14.955
53573W        W19982  27.878  36.414   3.849
53574W        W19983  36.606  36.860   2.939
53575W        W19984   9.249  38.387  11.825
53576W        W19985   3.670  15.501  10.679
53577W        W19986  26.553  11.856  11.045
53578W        W19987  24.746  25.169  13.335
53579W        W19988  42.300  27.728   4.702
53580W        W19989  35.390   4.972   0.413
53581W        W19990  41.809  33.522  14.780
53582W        W19991  32.536  35.593   0.476
53583W        W19992  17.130  16.955   2.450
53584W        W19993  15.050  21.759   1.796
53585W        W19994  17.334   8.218  14.612
53586W        W19995   1.285  26.142  14.406
53587W        W19996  37.197  43.848   3.735
53588W        W19997  44.271  32.199   2.864
53589W        W19998  20.771   5.231  13.011
53590W        W19999  24.020   8.099  12.483
53591W        W20000  10.321   4.226   2.333
53592W        W20001  25.421   4.233  12.625
53593W        W20002  22.105   8.814  14.897
53594W        W20003  37.206  38.122  11.800
53595W        W20004   8.724  41.473  14.300
53596W        W20005  12.654  29.554  14.135
53597W        W20006  18.522   7.704   4.156
53598W        W20007  11.204  28.719   4.412
53599W        W20008  41.299   4.815   1.312
53600W        W20009  33.388  30.060  10.418
53601W        W20010  10.416  33.357  11.573
53602W        W20011  29.493  39.576  13.646
53603W        W20012  13.756  24.603  13.788
53604W        W20013  39.916  10.187  12.214
53605W        W20014  32.090  42.837  11.251
53606W        W20015   9.637  42.378   0.315
53607W        W20016   2.818  28.988  13.965
53608W        W20017   4.252  37.386  12.394
53609W        W20018  13.916   8.674   1.209
53610W        W20019  13.513  42.075  13.420
53611W        W20020  16.423  13.265   4.736
53612W        W20021  37.040  27.963  11.915
53613W        W20022  39.313  40.217  14.103
53614W        W20023  32.352  13.557  12.804
53615W        W20024  29.700   9.879  11.446
53616W        W20025  41.383  39.096   2.879
53617W        W20026  22.483  35.405  12.478
53618W        W20027  27.043  26.555   3.050
53619W        W20028  32.604   0.828   1.792
53620W        W20029  33.658  25.493  11.456
53621W        W20030   1.432  35.522  12.987
53622W        W20031  12.856   4.247  11.625
53623W        W20032   5.722  10.160   0.212
53624W        W20033  31.787  17.850   4.648
53625W        W20034  15.665  44.367   3.462
53626W        W20035  14.691   0.370   5.513
53627W        W20036   8.762   3.353  13.979
53628W        W20037  42.818  18.838  14.048
53629W        W20038  42.889   7.207   0.086
53630W        W20039  34.640  10.858   4.083
53631W        W20040   9.225  39.788  10.243
53632W        W20041  18.486  20.670  12.823
53633W        W20042  29.290  33.466  11.622
53634W        W20043  33.504   1.493  13.007
53635W        W20044  31.476  22.144  13.896
53636W        W20045  32.270   2.470   0.603
53637W        W20046  23.711  30.646   2.958
53638W        W20047   0.869  11.416  10.463
53639W        W20048  15.249   4.689   0.072
53640W        W20049   2.331   9.531  12.008
53641W        W20050  39.079  24.718  12.079
53642W        W20051  37.614  37.567  14.786
53643W        W20052   3.442  31.098   2.230
53644W        W20053  31.169  26.766  13.400
53645W        W20054  22.035  16.755   1.939
53646W        W20055  28.511  13.150   2.878
53647W        W20056  44.366  38.107  11.598
53648W        W20057  34.974  15.599   1.254
53649W        W20058  26.618  44.068  12.355
53650W        W20059  24.105  11.010   2.382
53651W        W20060  38.891  33.057  14.555
53652W        W20061  30.568  13.663   0.896
53653W        W20062  30.477  26.469  12.390
53654W        W20063  20.117  17.071   1.822
53655W        W20064   1.395  27.524  11.730
53656W        W20065   4.819  43.328   1.886
53657W        W20066  12.722  41.893  13.893
53658W        W20067  18.286  26.625   3.162
53659W        W20068   4.224  26.253   1.795
53660W        W20069   6.342  17.806  11.218
53661W        W20070  18.294  34.506  13.907
53662W        W20071   2.144   1.295   2.874
53663W        W20072  39.534  31.056   0.398
53664W        W20073  32.500   8.215  10.987
53665W        W20074  36.953  24.822   0.382
53666W        W20075  37.517  36.429   0.914
53667W        W20076  10.732  44.953  14.500
53668W        W20077   5.164   5.639   4.077
53669W        W20078  17.703  24.232  10.668
53670W        W20079  25.732  30.101  11.098
53671W        W20080  29.498   0.720   0.005
53672W        W20081  39.908  23.409   1.794
53673W        W20082  34.582   6.908   3.086
53674W        W20083  19.785  11.898  13.459
53675W        W20084  25.095   0.266   1.337
53676W        W20085  13.275  12.308  14.485
53677W        W20086   1.775  32.086   0.938
53678W        W20087  13.285  33.573   1.450
53679W        W20088  31.313   0.213  14.775
53680W        W20089   9.639  17.147  10.708
53681W        W20090  16.157  20.909  12.823
53682W        W20091  20.096  39.763   2.244
53683W        W20092  42.129  11.151  11.989
53684W        W20093  41.038  20.034  12.562
53685W        W20094  35.381  43.569  11.907
53686W        W20095  25.303  11.484  13.546
53687W        W20096  37.534  10.236  11.368
53688W        W20097   0.927   8.325   0.953
53689W        W20098   0.756   1.149  12.882
53690W        W20099   8.280  31.807  12.474
53691W        W20100  24.533  32.384  11.606
53692W        W20101  33.688  41.399  12.952
53693W        W20102   8.227  41.332   3.943
53694W        W20103   7.904  32.048  12.147
53695W        W20104  23.064  25.484  13.310
53696W        W20105  42.413  26.487  14.553
53697W        W20106   5.322   0.804  12.300
53698W        W20107   6.309  20.844   3.683
53699W        W20108  29.540  43.305   0.269
53700W        W20109  34.040  11.884   3.679
53701W        W20110   5.333   2.157   3.426
53702W        W20111  43.316   7.231  14.779
53703W        W20112  10.170  35.617  12.398
53704W        W20113   2.419  29.502  13.000
53705W        W20114  15.490  17.760   0.846
53706W        W20115  30.587   4.310  13.793
53707W        W20116  43.533  30.523  13.059
53708W        W20117  16.661   5.807  12.080
53709W        W20118   7.736  38.482  13.595
53710W        W20119  25.631  42.253  13.492
53711W        W20120  17.532  27.699  13.325
53712W        W20121  11.703  37.763  12.044
53713W        W20122  39.964  34.067  11.622
53714W        W20123  31.426   2.375  12.048
53715W        W20124  20.822   6.969  14.638
53716W        W20125  13.393  20.519  12.461
53717W        W20126  20.970  33.173   3.119
53718W        W20127   7.207  21.581  11.942
53719W        W20128  31.679   9.746   1.871
53720W        W20129  27.964  41.676   3.261
53721W        W20130   9.144  19.591   5.296
53722W        W20131   9.644  15.530   0.960
53723W        W20132  27.481  13.143  13.901
53724W        W20133  40.912  36.383  14.724
53725W        W20134  33.666   6.510   3.947
53726W        W20135  36.400   8.268  13.863
53727W        W20136   3.930   1.821  14.947
53728W        W20137  35.229  30.621   0.708
53729W        W20138   4.488  39.363  13.048
53730W        W20139  20.090  41.019   1.865
53731W        W20140  19.810  24.616  11.119
53732W        W20141   9.634  12.162   1.901
53733W        W20142  18.579  15.541  13.367
53734W        W20143  32.619  14.753   0.419
53735W        W20144  38.321   6.432   3.642
53736W        W20145   2.292  17.508  14.045
53737W        W20146  13.213  41.112   5.032
53738W        W20147  10.097  13.301  10.761
53739W        W20148   7.854   8.659  12.558
53740W        W20149  19.193  32.156  11.642
53741W        W20150   3.473  15.997   1.225
53742W        W20151  29.061  43.272  12.913
53743W        W20152  44.929  34.749  11.600
53744W        W20153  42.380   3.939  13.614
53745W        W20154  30.621  21.762   2.622
53746W        W20155  18.299   8.456   3.323
53747W        W20156  10.801  29.474   4.388
53748W        W20157  15.705  40.039   5.134
53749W        W20158  13.939  14.820  13.439
53750W        W20159   0.391  20.672   1.316
53751W        W20160   3.797  18.290   3.622
53752W        W20161   5.187   0.933  11.520
53753W        W20162  11.754   7.695   0.431
53754W        W20163  17.161   4.286  14.743
53755W        W20164  25.628  43.033   1.319
53756W        W20165   2.431  34.332  12.965
53757W        W20166  10.269  18.263   3.061
53758W        W20167  24.790  29.529   2.498
53759W        W20168  11.212  42.244   3.369
53760W        W20169  39.365  33.010   2.389
53761W        W20170  28.597  34.685  13.999
53762W        W20171  38.525  31.135   2.606
53763W        W20172  21.999  30.056   0.022
53764W        W20173  16.411  20.648   1.236
53765W        W20174  41.136  15.786   2.135
53766W        W20175  32.618  25.958  12.662
53767W        W20176  43.846  28.434  14.875
53768W        W20177  40.306  31.164  14.425
53769W        W20178  44.631  16.774  13.964
53770W        W20179   1.761  32.006  11.937
53771W        W20180  14.247  40.817  11.063
53772W        W20181  11.424  41.921  11.157
53773W        W20182  17.694  35.447   3.682
53774W        W20183  10.325  37.790  11.924
53775W        W20184  44.718  23.661  10.903
53776W        W20185  39.953  38.648  12.027
53777W        W20186   0.002  25.530   4.577
53778W        W20187  15.722   3.770   0.991
53779W        W20188   0.009  14.696  11.556
53780W        W20189  14.346  25.317   3.623
53781W        W20190  28.603  17.857  12.416
53782W        W20191  28.961  28.655  14.455
53783W        W20192  41.254  24.476   0.010
53784W        W20193  28.684  35.177   2.287
53785W        W20194  12.331  36.021  12.111
53786W        W20195  27.951  34.958  12.924
53787W        W20196  17.962  21.222   2.467
53788W        W20197   4.553  11.754  13.633
53789W        W20198  33.736  25.944   3.868
53790W        W20199  34.644  13.658  10.641
53791W        W20200  44.497  26.620  10.612
53792W        W20201  43.745  31.637   4.824
53793W        W20202   6.170  11.851  11.169
53794W        W20203  38.827  21.448  11.635
53795W        W20204  27.202   4.961  13.944
53796W        W20205   6.130  26.061   1.647
53797W        W20206  29.514  37.018  10.969
53798W        W20207  35.083  10.651   4.222
53799W        W20208  26.107   6.909  11.857
53800W        W20209  42.335  42.127  11.058
53801W        W20210  11.734  27.424  12.395
53802W        W20211  17.146  17.833   1.371
53803W        W20212  44.449  22.476  14.847
53804W        W20213  41.399   2.444   2.749
53805W        W20214  22.242   6.251   3.527
53806W        W20215  23.691  30.996   2.127
53807W        W20216  38.475  21.275  14.294
53808W        W20217   5.932   4.883   4.301
53809W        W20218  11.232  36.217  11.444
53810W        W20219  34.380  32.919  10.381
53811W        W20220  28.213  41.548  14.823
53812W        W20221  18.166  44.360   3.169
53813W        W20222  22.621  41.282   3.264
53814W        W20223  12.724  26.276   1.731
53815W        W20224  35.610  39.921   4.647
53816W        W20225  20.850   4.405   2.397
53817W        W20226  28.927  26.963   0.266
53818W        W20227  42.476  40.161   4.214
53819W        W20228   2.418   6.944  11.093
53820W        W20229  24.911  34.599  13.625
53821W        W20230   2.798   7.790  14.870
53822W        W20231  27.007  13.538   4.240
53823W        W20232  18.252   2.389   3.103
53824W        W20233  11.194  16.755   0.761
53825W        W20234   0.717  19.754  11.624
53826W        W20235  10.304  22.392   0.839
53827W        W20236  31.892   9.515  14.249
53828W        W20237  15.894  30.494  12.160
53829W        W20238  27.662   0.414   3.276
53830W        W20239  26.687  42.607  13.933
53831W        W20240  19.744   2.724   0.441
53832W        W20241  23.617  36.410  13.996
53833W        W20242  20.008  16.264   4.151
53834W        W20243   5.356  10.329  11.990
53835W        W20244  21.299  43.907  10.378
53836W        W20245  23.113  16.225  13.599
53837W        W20246   2.539  42.473  12.255
53838W        W20247  24.222  35.144  11.547
53839W        W20248  15.689   0.767  14.177
53840W        W20249  30.016  34.503   0.728
53841W        W20250  27.049  28.827  12.464
53842W        W20251  17.181  34.501  12.625
53843W        W20252  39.419  19.831  12.155
53844W        W20253  36.158  18.573  12.127
53845W        W20254  15.623   3.528   4.454
53846W        W20255  12.530  21.491  11.980
53847W        W20256  19.902  10.735   1.444
53848W        W20257   5.860  24.277   2.617
53849W        W20258  36.800  21.167  12.608
53850W        W20259  20.487  36.797  13.468
53851W        W20260  22.113   5.148  10.848
53852W        W20261  30.064  20.715   1.357
53853W        W20262  13.909  33.340   1.221
53854W        W20263  41.388  44.930   0.803
53855W        W20264  39.855  28.138  14.849
53856W        W20265  20.325  18.661  11.427
53857W        W20266  31.291  39.468  14.040
53858W        W20267   4.068   3.627  11.609
53859W        W20268   4.825  28.458   3.123
53860W        W20269  16.521   5.455   4.223
53861W        W20270  13.531   3.959  10.955
53862W        W20271  30.715   5.317  10.488
53863W        W20272  34.153  28.007  11.902
53864W        W20273  15.067   7.729  11.177
53865W        W20274   7.243  34.909   4.486
53866W        W20275  12.419   4.312  11.949
53867W        W20276  23.330   7.733   2.551
53868W        W20277  12.414  36.407  11.445
53869W        W20278  25.001  18.455  14.757
53870W        W20279  33.379  14.286   0.166
53871W        W20280   0.697  22.168  11.861
53872W        W20281  43.656  43.417   1.325
53873W        W20282  41.801  25.147  11.780
53874W        W20283   0.242  22.739   3.749
53875W        W20284  39.263  10.061  11.518
53876W        W20285  42.488   3.884  11.649
53877W        W20286   6.966  42.477   0.752
53878W        W20287  22.668  32.558   4.372
53879W        W20288  23.710  38.995   0.415
53880W        W20289  42.561  26.672   3.133
53881W        W20290  30.067  30.165  11.082
53882W        W20291  20.596  44.439   0.911
53883W        W20292   9.920  34.121   0.313
53884W        W20293  17.544  16.279   1.925
53885W        W20294  40.947   2.011  11.062
53886W        W20295   8.188  32.189  11.582
53887W        W20296  16.601   2.336  14.854
53888W        W20297  36.224  39.435  12.882
53889W        W20298   5.985  33.549  13.501
53890W        W20299   0.858  23.048   3.637
53891W        W20300  16.634   4.000   4.164
53892W        W20301  31.684  27.207   2.852
53893W        W20302  42.862  36.097   4.053
53894W        W20303  33.925  43.876   2.793
53895W        W20304  33.443  43.955   2.595
53896W        W20305  35.273  13.117   1.740
53897W        W20306  44.022   1.687   1.308
53898W        W20307  29.622  12.237   4.320
53899W        W20308  33.316  25.114   1.991
53900W        W20309   3.465  40.942   4.714
53901W        W20310  16.628  36.823   5.463
53902W        W20311   4.999   6.945  11.065
53903W        W20312  35.362  14.785   4.611
53904W        W20313  12.293  12.761   1.331
53905W        W20314  35.872  35.380   3.835
53906W        W20315  20.739  21.553   4.885
53907W        W20316  27.583   6.206  14.479
53908W        W20317   7.182   2.263  12.998
53909W        W20318  41.503   0.014   2.265
53910W        W20319  19.050  11.780  13.882
53911W        W20320  24.274  16.126   2.799
53912W        W20321  19.573  11.375  13.569
53913W        W20322  13.388  31.539   0.969
53914W        W20323   1.293   6.900  10.799
53915W        W20324   0.197  39.925  12.896
53916W        W20325  37.826  36.597  13.925
53917W        W20326  19.221   5.309   3.383
53918W        W20327  33.002  14.119   1.837
53919W        W20328  42.498  40.770  14.978
53920W        W20329  12.961  17.731  14.874
53921W        W20330  35.621   9.004   2.215
53922W        W20331  25.806  13.272  11.202
53923W        W20332  16.047   9.294   3.760
53924W        W20333  10.871  44.279   3.589
53925W        W20334  23.748  38.493   4.799
53926W        W20335  27.914  15.249   2.365
53927W        W20336   0.798  43.272  14.421
53928W        W20337  19.603   0.288  13.002
53929W        W20338   5.024  24.185   3.564
53930W        W20339  26.534  32.633   1.788
53931W        W20340  20.126  40.016  13.798
53932W        W20341  21.407  26.378   0.565
53933W        W20342  29.078  43.567   2.643
53934W        W20343  34.813  30.246  12.510
53935W        W20344  21.000  37.922  14.944
53936W        W20345  41.331  14.355   2.286
53937W        W20346  24.396  24.584  14.512
53938W        W20347   4.503  39.477  12.064
53939W        W20348  41.906   8.323   2.728
53940W        W20349   1.953  27.119   0.435
53941W        W20350   0.006  26.515   2.325
53942W        W20351  19.214  21.193  10.123
53943W        W20352  32.394   9.357  14.245
53944W        W20353  12.163   3.804   2.196
53945W        W20354  34.433  31.438  10.621
53946W        W20355  26.960  44.943   0.961
53947W        W20356  28.754  30.498  11.702
53948W        W20357  43.050  40.737  14.057
53949W        W20358   9.212  44.876  13.907
53950W        W20359  25.291  33.518  12.381
53951W        W20360  42.438  17.330  10.518
53952W        W20361  42.068   1.440  14.378
53953W        W20362   5.755  29.099   1.792
53954W        W20363  39.024   3.926   2.464
53955W        W20364  26.935  14.785   4.394
53956W        W20365   2.010  25.096  11.958
53957W        W20366  28.771  11.738  10.376
53958W        W20367  16.805  33.391   3.114
53959W        W20368   9.325   4.973  11.680
53960W        W20369  27.836   8.275   3.117
53961W        W20370  28.886   8.392   3.912
53962W        W20371  17.142  44.510   2.794
53963W        W20372  15.780  36.075  13.971
53964W        W20373  12.261  27.131   4.080
53965W        W20374  35.807   6.717   2.749
53966W        W20375  14.880  21.297   2.301
53967W        W20376  10.983  26.267  13.944
53968W        W20377  27.114   3.035  11.639
53969W        W20378  14.882  15.039  10.612
53970W        W20379  11.939  37.937  14.864
53971W        W20380  39.505   0.649   2.712
53972W        W20381  17.703  39.460  13.515
53973W        W20382  24.019   3.980   2.181
53974W        W20383  24.962  30.947   3.540
53975W        W20384  33.474  39.330  13.761
53976W        W20385  23.113  44.053  13.432
53977W        W20386   6.730  32.115  13.953
53978W        W20387  38.439  41.796   2.391
53979W        W20388  25.176   8.674   5.382
53980W        W20389   6.518  11.683  14.743
53981W        W20390  43.871   5.388   1.351
53982W        W20391  31.384   8.430  11.955
53983W        W20392  12.149  21.015   4.311
53984W        W20393  24.663  23.361  13.609
53985W        W20394  33.030  37.272  12.948
53986W        W20395  33.529  37.474   0.902
53987W        W20396   3.784   7.346   2.296
53988W        W20397  36.330  39.727  11.885
53989W        W20398  11.133   8.955   4.724
53990W        W20399  14.194   9.452  12.542
53991W        W20400  18.627  15.267   4.949
53992W        W20401  12.651  42.922   0.471
53993W        W20402   2.261   7.711   4.602
53994W        W20403  36.852  10.386  12.964
53995W        W20404  22.596  43.123  13.412
53996W        W20405   9.642  14.891  13.451
53997W        W20406  43.998  40.292  12.961
53998W        W20407  18.669  32.124   0.861
53999W        W20408  21.649  40.881   2.210
54000W        W20409  18.660  11.430  14.672
54001W        W20410  34.714  10.871  14.190
54002W        W20411   1.512  10.439  11.982
54003W        W20412  33.894  12.919   3.546
54004W        W20413  21.165  24.578   0.330
54005W        W20414  24.432  34.581   4.215
54006W        W20415  14.613  11.675  13.078
54007W        W20416   2.216  39.602   4.366
54008W        W20417  14.762   6.279   4.430
54009W        W20418   4.440  38.166   3.614
54010W        W20419  18.298   1.166   3.601
54011W        W20420  36.046   3.920   4.905
54012W        W20421  20.070  31.166   3.699
54013W        W20422  18.751  33.278   2.190
54014W        W20423  28.708   8.874  14.841
54015W        W20424  39.979  26.078  13.907
54016W        W20425  30.340  17.995  11.073
54017W        W20426  30.535  27.569   1.172
54018W        W20427  40.633   8.645   3.811
54019W        W20428   6.401   4.258   0.180
54020W        W20429  10.408  44.411   4.167
54021W        W20430  15.912  12.306   3.697
54022W        W20431  14.159   3.371  14.965
54023W        W20432  26.198  39.450  14.468
54024W        W20433  31.835  39.380  13.968
54025W        W20434  38.521  43.960  11.049
54026W        W20435  10.737  42.661   1.221
54027W        W20436  16.283  17.865  12.101
54028W        W20437  26.819   2.558  12.492
54029W        W20438   3.963  37.971  14.649
54030W        W20439  32.649  36.322   2.975
54031W        W20440  20.498  21.380  14.474
54032W        W20441  35.459  14.322   2.932
54033W        W20442  32.493  34.192   0.402
54034W        W20443   7.285  36.919  12.460
54035W        W20444  28.934  26.741  14.789
54036W        W20445  39.974  12.319   3.318
54037W        W20446  30.099  14.592   2.265
54038W        W20447   7.642  25.123  11.628
54039W        W20448  35.974   2.393  13.267
54040W        W20449  11.384   4.339  11.676
54041W        W20450  12.102  31.190   2.522
54042W        W20451  10.789  14.584   2.579
54043W        W20452  20.152  33.544   2.621
54044W        W20453  26.210   1.523  11.613
54045W        W20454  25.174   8.676  13.470
54046W        W20455  20.946   2.316   0.728
54047W        W20456  29.025   9.193  12.522
54048W        W20457  29.320  19.460   5.213
54049W        W20458   0.979   3.542  10.471
54050W        W20459  33.015  22.520   2.657
54051W        W20460  33.944  19.667   3.042
54052W        W20461  34.371  44.831  13.253
54053W        W20462  11.945  35.260  12.076
54054W        W20463  18.674  23.258  14.083
54055W        W20464  25.438   2.420  13.925
54056W        W20465   9.621  39.814   4.898
54057W        W20466  14.120  37.840  12.396
54058W        W20467   9.925  28.061  12.253
54059W        W20468  42.931  14.146  10.446
54060W        W20469  40.702  27.029   2.225
54061W        W20470  44.938  12.640  12.927
54062W        W20471  22.883  43.203   1.758
54063W        W20472   9.095  11.919  13.021
54064W        W20473   7.607   6.358  13.111
54065W        W20474   4.760  44.796   1.887
54066W        W20475  38.991  39.969  10.530
54067W        W20476  17.739   2.677   3.818
54068W        W20477  21.178  12.139   1.796
54069W        W20478   1.874  31.086  13.981
54070W        W20479  30.894  31.578  13.637
54071W        W20480  29.621  39.869   0.766
54072W        W20481  32.007  25.256   1.675
54073W        W20482  17.056  38.792   2.232
54074W        W20483  29.707   9.803   1.788
54075W        W20484  33.424  30.117  10.985
54076W        W20485  30.963   4.477  11.901
54077W        W20486   4.918  16.750  14.891
54078W        W20487  38.923  23.002  10.359
54079W        W20488  36.101  43.965  11.990
54080W        W20489  29.875  25.519  11.650
54081W        W20490   1.888  36.105  13.957
54082W        W20491  43.610  27.189  11.121
54083W        W20492   9.609   4.436  13.940
54084W        W20493  24.762  40.073   4.087
54085W        W20494  10.225   1.427   0.486
54086W        W20495  29.686  11.755   2.239
54087W        W20496  11.844  32.312  14.006
54088W        W20497  41.888   8.368  10.685
54089W        W20498   5.445  13.082   3.102
54090W        W20499  16.424  27.521   4.810
54091W        W20500  39.545   3.838  10.649
54092W        W20501  39.517  23.115  11.078
54093W        W20502   0.496  43.996   0.398
54094W        W20503  28.366  27.511   2.860
54095W        W20504  20.765  12.849   3.750
54096W        W20505   5.673   2.725  12.295
54097W        W20506  12.262  13.714  14.728
54098W        W20507  27.678  13.784   0.407
54099W        W20508  28.020  14.338   2.771
54100W        W20509  36.361  29.770   1.275
54101W        W20510  21.194   0.809  11.271
54102W        W20511   3.532  41.453  14.886
54103W        W20512   5.345   8.905  10.497
54104W        W20513  21.050  11.103   0.884
54105W        W20514  35.134   8.654  14.361
54106W        W20515  21.722  17.234  14.442
54107W        W20516   8.710  32.396  14.746
54108W        W20517   6.281  28.639  11.008
54109W        W20518  14.221   3.214  13.461
54110W        W20519  31.224  22.263   1.903
54111W        W20520  19.534   6.721   2.099
54112W        W20521  15.182  33.892   3.117
54113W        W20522  39.264  38.622   2.802
54114W        W20523   5.747  37.933  10.726
54115W        W20524  25.540   5.059  13.361
54116W        W20525  11.715  31.393   2.244
54117W        W20526   0.226  28.558   1.197
54118W        W20527  21.589   1.674  12.929
54119W        W20528  24.736  21.223   0.340
54120W        W20529  33.470  44.789   3.869
54121W        W20530  29.657   9.900   2.911
54122W        W20531  19.739  35.102  10.456
54123W        W20532  39.069  44.950  14.893
54124W        W20533   3.466  25.770  11.939
54125W        W20534  40.945  19.343   0.288
54126W        W20535  12.257  23.749   1.420
54127W        W20536  15.265   2.722  14.883
54128W        W20537   2.894  14.235  13.140
54129W        W20538   2.344  42.853   1.405
54130W        W20539  17.584   1.880  13.499
54131W        W20540  44.256  22.457  13.570
54132W        W20541  21.659  34.231   0.649
54133W        W20542   7.667  31.123  10.879
54134W        W20543  31.299  37.074  11.176
54135W        W20544  15.540   2.137  10.857
54136W        W20545   2.726   6.829   1.750
54137W        W20546   4.768  29.686  11.966
54138W        W20547  41.154   8.261   0.371
54139W        W20548  44.190   0.275   3.392
54140W        W20549  35.411   4.267   4.529
54141W        W20550  21.727  39.255  11.505
54142W        W20551  22.024  22.653  14.999
54143W        W20552  43.050  25.736  10.523
54144W        W20553  25.967   0.777   2.814
54145W        W20554  44.650  36.536  13.867
54146W        W20555  28.518   5.808  14.738
54147W        W20556   6.503  27.368  14.914
54148W        W20557  21.192   6.896   0.447
54149W        W20558  24.662   8.677   0.217
54150W        W20559  19.562  43.345  12.365
54151W        W20560  26.597  37.144  12.040
54152W        W20561  23.248  39.285  11.643
54153W        W20562  27.861  41.472  11.496
54154W        W20563  18.680  15.525  14.247
54155W        W20564  44.743  26.355   2.741
54156W        W20565  32.876  34.597  12.946
54157W        W20566  30.627  28.100  12.806
54158W        W20567  24.615  12.542  11.549
54159W        W20568   5.335  28.632   3.139
54160W        W20569  16.411  32.137   3.654
54161W        W20570   0.264   4.384   1.751
54162W        W20571  26.219   3.826   3.309
54163W        W20572   4.551  14.199   1.431
54164W        W20573  41.781  15.646   4.539
54165W        W20574  15.828   2.111   0.172
54166W        W20575  35.908  12.896   2.356
54167W        W20576  26.871   2.854   4.750
54168W        W20577  13.287   9.159  12.133
54169W        W20578  33.545  35.575   2.932
54170W        W20579  43.742   9.949  10.331
54171W        W20580  14.618  39.283  10.297
54172W        W20581   9.727  34.819  13.992
54173W        W20582   4.643  16.521  10.839
54174W        W20583  33.931  36.388  14.569
54175W        W20584  41.950   3.449   0.012
54176W        W20585   8.482  38.017  13.316
54177W        W20586  15.863  30.105   0.275
54178W        W20587  23.365  11.155   2.190
54179W        W20588  44.327  18.607   1.602
54180W        W20589   2.664  10.379  12.473
54181W        W20590  29.534   2.285   3.761
54182W        W20591  27.688  26.570   1.549
54183W        W20592  32.420  44.498  11.922
54184W        W20593  12.377  27.659   2.216
54185W        W20594  31.184  27.941  11.969
54186W        W20595  12.373  41.971   0.016
54187W        W20596  28.078  36.482   4.883
54188W        W20597  15.422  31.977   0.261
54189W        W20598  33.554  31.463   2.755
54190W        W20599  25.664   3.518  11.999
54191W        W20600  41.897  43.394  14.454
54192W        W20601  34.375  22.037   3.936
54193W        W20602  13.865  39.404   3.288
54194W        W20603  32.964  30.839  12.950
54195W        W20604  21.745   5.803  14.849
54196W        W20605  27.389  28.112  13.894
54197W        W20606  28.546  30.894  11.381
54198W        W20607  34.068  37.408   2.188
54199W        W20608  37.200  34.013   3.173
54200W        W20609   1.037  11.417  14.913
54201W        W20610  21.497  23.634   1.701
54202W        W20611   0.285  10.114  13.892
54203W        W20612  33.534  36.354  13.806
54204W        W20613  20.569  23.928  12.270
54205W        W20614  42.774   6.374  11.181
54206W        W20615  31.451  20.680  13.814
54207W        W20616  37.280  22.128   1.909
54208W        W20617  26.751  27.637  10.812
54209W        W20618  33.984  13.668  14.622
54210W        W20619  23.254  31.220  13.919
54211W        W20620  12.535   3.832  11.628
54212W        W20621  36.997  20.333  14.818
54213W        W20622  10.543  35.126  10.261
54214W        W20623  42.994  39.593   3.754
54215W        W20624  31.527  12.682  12.954
54216W        W20625  24.289  17.796  14.849
54217W        W20626  40.832   4.775   3.066
54218W        W20627   6.111   9.807   2.650
54219W        W20628   4.334   6.462  10.533
54220W        W20629  40.772   3.759   2.553
54221W        W20630  18.264  41.948  13.006
54222W        W20631  17.831  44.369   4.536
54223W        W20632  27.256  29.550   0.346
54224W        W20633   5.142  28.164  12.501
54225W        W20634   6.937   5.162  12.748
54226W        W20635  23.123  26.631   2.830
54227W        W20636  12.104   8.321  11.352
54228W        W20637  23.187   6.241   2.275
54229W        W20638  37.520  17.409   0.128
54230W        W20639  22.231  35.974   3.679
54231W        W20640  14.522  36.229   3.212
54232W        W20641  15.147  33.213  14.046
54233W        W20642  12.706  28.205  13.503
54234W        W20643   4.746  39.489   1.287
54235W        W20644  26.973  17.290  13.499
54236W        W20645  14.918  38.777  13.089
54237W        W20646  11.734  23.719  12.037
54238W        W20647  32.574  10.376   3.778
54239W        W20648  35.074  31.434   1.798
54240W        W20649  10.080  26.274   4.887
54241W        W20650  15.659  29.490  12.674
54242W        W20651   3.439   5.119  14.399
54243W        W20652  14.276  42.135   3.783
54244W        W20653  23.789   4.407   2.386
54245W        W20654  12.686   3.836   1.319
54246W        W20655  24.977  34.000   2.909
54247W        W20656  21.200  32.959  14.960
54248W        W20657   5.754   2.304  11.141
54249W        W20658  26.635   3.649   0.484
54250W        W20659  17.523  39.358   1.836
54251W        W20660  44.443  33.634  10.946
54252W        W20661  32.526  27.512  11.262
54253W        W20662  16.070  30.117  13.491
54254W        W20663  32.123  44.392  14.056
54255W        W20664  41.084  11.475   3.167
54256W        W20665  17.719  31.408  11.649
54257W        W20666  20.931  33.504  13.330
54258W        W20667  26.249  25.300   5.467
54259W        W20668  32.548  43.376   3.059
54260W        W20669  28.450  27.814   2.272
54261W        W20670  36.469   5.301  11.972
54262W        W20671  14.914   8.945  12.462
54263W        W20672  27.024   9.433   0.358
54264W        W20673  22.509  41.061  11.717
54265W        W20674   1.057  12.345  14.806
54266W        W20675   8.619  37.127  14.416
54267W        W20676   3.793   6.677   3.731
54268W        W20677  20.734  21.570  13.848
54269W        W20678  32.473  44.522   2.332
54270W        W20679  13.864  31.091  11.246
54271W        W20680  15.643  28.712   3.430
54272W        W20681  42.882   4.804  13.940
54273W        W20682  36.607  20.055   2.297
54274W        W20683   3.024  25.801  11.690
54275W        W20684   3.216  23.608  14.003
54276W        W20685   9.624  24.594  10.663
54277W        W20686  38.302  36.095  11.608
54278W        W20687  27.509  29.546  10.746
54279W        W20688   8.631  38.247   1.403
54280W        W20689  14.100   7.569   0.403
54281W        W20690  31.583  10.158  14.144
54282W        W20691  15.324  34.259   2.706
54283W        W20692  36.639   8.975  14.272
54284W        W20693  38.420  32.869   3.338
54285W        W20694   1.785  30.242  11.448
54286W        W20695  29.592  42.591  14.508
54287W        W20696  38.616  34.717   4.179
54288W        W20697   6.862  35.385  10.278
54289W        W20698  16.527  31.315  11.995
54290W        W20699  44.637  31.609  12.978
54291W        W20700   3.966  37.410  10.593
54292W        W20701  15.561  11.260  10.805
54293W        W20702  37.872  18.997   1.253
54294W        W20703  24.458  37.538  13.888
54295W        W20704  17.739  29.422   4.219
54296W        W20705  12.013  41.886   2.217
54297W        W20706  18.142  17.741   4.372
54298W        W20707   8.135  23.501  10.768
54299W        W20708  36.655  40.086  12.051
54300W        W20709  27.930  39.570  14.960
54301W        W20710   8.699  38.552   4.104
54302W        W20711  40.546   1.286  12.448
54303W        W20712  37.363   4.245   0.048
54304W        W20713  35.104  16.687  14.428
54305W        W20714  27.531  43.638   3.514
54306W        W20715  29.653  42.113   2.353
54307W        W20716  15.057   2.475   4.294
54308W        W20717  38.243  38.143  14.462
54309W        W20718  25.042  43.266  13.977
54310W        W20719  21.134   3.879   0.337
54311W        W20720  17.245  44.820  11.698
54312W        W20721  14.910  44.162   0.036
54313W        W20722  21.991  35.055   0.931
54314W        W20723  37.397  35.867  13.388
54315W        W20724   5.448   8.174   3.203
54316W        W20725  35.471  27.897   3.618
54317W        W20726  11.954   2.599  10.793
54318W        W20727  26.937  43.571   0.837
54319W        W20728  32.045  13.535   1.876
54320W        W20729  39.008   4.827  10.838
54321W        W20730  10.263  27.020   2.443
54322W        W20731  17.118  28.726  13.281
54323W        W20732  24.734  25.112   4.906
54324W        W20733  13.524   8.787   4.570
54325W        W20734  23.670   3.329   2.578
54326W        W20735  30.635  38.480  10.758
54327W        W20736  39.965  38.132  13.081
54328W        W20737  42.345   0.829  14.509
54329W        W20738  14.308  12.348  12.959
54330W        W20739  41.642   8.854   3.603
54331W        W20740  23.176  28.036   2.640
54332W        W20741  18.110  28.174  10.667
54333W        W20742  21.036   6.149   4.648
54334W        W20743  39.530  35.458  11.459
54335W        W20744  22.194   1.448   4.733
54336W        W20745  15.363  41.864   3.050
54337W        W20746   9.688  35.488   5.080
54338W        W20747  16.654  36.754   2.889
54339W        W20748  31.627   1.231   1.702
54340W        W20749  35.173  20.095   4.701
54341W        W20750  27.194  38.024   1.409
54342W        W20751  43.908  13.385   5.370
54343W        W20752  40.876   0.918  14.400
54344W        W20753  24.726  27.818  11.941
54345W        W20754  42.811   9.636  13.888
54346W        W20755   6.398  19.980  13.863
54347W        W20756  43.732  44.725   2.866
54348W        W20757  35.836  29.647  12.050
54349W        W20758  32.042  14.676   0.228
54350W        W20759   3.406  26.563   5.058
54351W        W20760   5.422  43.953  12.374
54352W        W20761  42.243  33.606   4.534
54353W        W20762   6.866   0.363   1.049
54354W        W20763  15.130  23.350  12.058
54355W        W20764  16.154   6.931  11.311
54356W        W20765  20.220  41.318  10.372
54357W        W20766  24.920  26.869  13.523
54358W        W20767   7.862   4.824  10.805
54359W        W20768   8.766  30.758   1.891
54360W        W20769  13.331  32.210  13.309
54361W        W20770  29.572  42.160  11.905
54362W        W20771   1.481  13.100  13.028
54363W        W20772  27.201  43.913  14.855
54364W        W20773   7.281  10.199   2.811
54365W        W20774  40.513  43.537  13.540
54366W        W20775  31.135   4.738   0.725
54367W        W20776  28.242  17.226   2.853
54368W        W20777  26.540  30.637  13.304
54369W        W20778   3.249  33.713   2.772
54370W        W20779  40.534  18.351  14.323
54371W        W20780  32.630  15.379   1.969
54372W        W20781   9.452  27.485   3.202
54373W        W20782  31.174  30.936  11.563
54374W        W20783  25.741  23.096  12.157
54375W        W20784   2.968  40.076   4.651
54376W        W20785  24.198  24.697  13.834
54377W        W20786  15.235  31.472  14.401
54378W        W20787  11.105   6.299   1.722
54379W        W20788   4.310   5.191   2.021
54380W        W20789  23.297  18.765   2.686
54381W        W20790  21.717  36.835   1.361
54382W        W20791  13.353   8.228  12.125
54383W        W20792  34.963   5.633  12.613
54384W        W20793  29.533  18.143   4.709
54385W        W20794  39.339  19.086  13.316
54386W        W20795  39.231   6.098   5.133
54387W        W20796  42.626  40.060  11.169
54388W        W20797  26.549   3.886   1.950
54389W        W20798  12.032  29.761  14.783
54390W        W20799  28.207  19.950   3.879
54391W        W20800  15.627  10.807  12.495
54392W        W20801  30.857  30.309   3.685
54393W        W20802  24.193   0.268   1.387
54394W        W20803  17.814  17.485   0.338
54395W        W20804  12.795  12.754  13.786
54396W        W20805  37.299   2.173   3.624
54397W        W20806  44.292  20.853   3.284
54398W        W20807  11.843   3.907  14.378
54399W        W20808   0.268   5.153   1.391
54400W        W20809  44.234   5.835   1.238
54401W        W20810   8.995   4.955  14.335
54402W        W20811  34.857  33.859  11.151
54403W        W20812  27.691  21.616   9.647
54404W        W20813   3.398   7.212  11.510
54405W        W20814  28.476   3.792  13.068
54406W        W20815  34.998  35.257   3.935
54407W        W20816  12.566  16.909  11.171
54408W        W20817   4.286  25.419   0.839
54409W        W20818  13.345  21.543   0.522
54410W        W20819   6.805  31.729  10.249
54411W        W20820   9.056  33.377   1.692
54412W        W20821  14.667   5.269  12.062
54413W        W20822  15.612  34.493  14.463
54414W        W20823  23.964  30.143  14.196
54415W        W20824  22.551  22.537   0.217
54416W        W20825  22.414   5.866   2.724
54417W        W20826   6.192  13.607  14.783
54418W        W20827  21.172  23.088  12.459
54419W        W20828   4.815  38.928   3.297
54420W        W20829  22.080  27.193  14.998
54421W        W20830  21.270  22.821   0.732
54422W        W20831  24.578  36.059  14.201
54423W        W20832  26.829  16.330  13.897
54424W        W20833  17.067  20.592   1.844
54425W        W20834  22.748  28.526   2.322
54426W        W20835  15.484   6.367   3.211
54427W        W20836  18.383  34.602   4.266
54428W        W20837  27.969  24.108  14.313
54429W        W20838  10.891  36.777   0.588
54430W        W20839  41.304  13.538   3.796
54431W        W20840  31.592  23.127  10.678
54432W        W20841   9.800   4.772  11.554
54433W        W20842  27.212   0.242   1.284
54434W        W20843  36.035  10.544   4.573
54435W        W20844   9.300   7.480   4.856
54436W        W20845  29.192  16.233  11.516
54437W        W20846  33.416   3.936   3.197
54438W        W20847  34.042  22.459   4.626
54439W        W20848  20.091  39.353   4.879
54440W        W20849   4.524  21.471  12.543
54441W        W20850   8.717  33.986   2.444
54442W        W20851  10.128  35.783   4.219
54443W        W20852   8.860   1.058  14.255
54444W        W20853  20.170   5.589  11.145
54445W        W20854   4.649  20.732   1.012
54446W        W20855  33.678   5.009   1.808
54447W        W20856  23.060  42.712  13.207
54448W        W20857   0.944  30.519  10.737
54449W        W20858  28.759  33.024   3.690
54450W        W20859  17.100  43.956  11.007
54451W        W20860  29.269  15.759  14.417
54452W        W20861  37.103   2.754  10.684
54453W        W20862  28.008  39.777  14.504
54454W        W20863  12.100   5.864   4.405
54455W        W20864  41.404  18.753   2.379
54456W        W20865  20.943   7.321  13.786
54457W        W20866  30.231  30.138  14.557
54458W        W20867  40.841  33.605  10.436
54459W        W20868  40.472  29.030  12.576
54460W        W20869  12.792   9.824  12.072
54461W        W20870  18.675  32.028   4.309
54462W        W20871  32.560   2.264   2.396
54463W        W20872  34.070  32.196   4.574
54464W        W20873  27.574  12.844  11.633
54465W        W20874   9.584  27.654  11.552
54466W        W20875  12.835  31.868   3.169
54467W        W20876  13.252  37.058   0.344
54468W        W20877  22.516  27.079   4.331
54469W        W20878   5.881   9.765   3.124
54470W        W20879   1.562  15.102  11.136
54471W        W20880  26.221   0.776   1.188
54472W        W20881   8.116  24.673  13.826
54473W        W20882  17.137   8.807  12.931
54474W        W20883  34.791  11.521  14.979
54475W        W20884   0.015  43.438   0.338
54476W        W20885   7.557   5.501  11.530
54477W        W20886  26.490  17.803  11.903
54478W        W20887  16.259  39.994  14.762
54479W        W20888  25.541   2.529   4.586
54480W        W20889  44.316  34.078  10.732
54481W        W20890   0.867  16.183   2.250
54482W        W20891  31.438  38.929  12.159
54483W        W20892  15.561   7.524   2.286
54484W        W20893  25.705  13.600  10.817
54485W        W20894  28.783  44.435  10.280
54486W        W20895  10.068  28.963  10.388
54487W        W20896  31.978  44.025   1.768
54488W        W20897  24.296  28.088  12.084
54489W        W20898  21.129  20.760  12.295
54490W        W20899  14.155  40.016   1.683
54491W        W20900   5.901  21.645   3.341
54492W        W20901  16.626  44.196  13.063
54493W        W20902  42.189  15.623  11.119
54494W        W20903   7.909  18.028  11.960
54495W        W20904   4.320   5.715   2.145
54496W        W20905  12.165  42.782   3.382
54497W        W20906  12.881  41.128   0.380
54498W        W20907   5.920  19.720  11.785
54499W        W20908   8.177  37.249  12.116
54500W        W20909  12.232  43.240   3.120
54501W        W20910  18.098   6.746  12.913
54502W        W20911  35.282   3.343   4.053
54503W        W20912  31.865  26.024  13.408
54504W        W20913  33.082  27.046  11.897
54505W        W20914  27.660  14.186  13.862
54506W        W20915   4.705  26.357  13.045
54507W        W20916  18.209  37.521  14.760
54508W        W20917   8.708  23.945  12.004
54509W        W20918  19.837  36.098   4.288
54510W        W20919  29.853  16.807  12.053
54511W        W20920  33.118   9.753   4.310
54512W        W20921   7.596  30.160   1.436
54513W        W20922   6.648  17.170   2.404
54514W        W20923  25.918  21.148   2.400
54515W        W20924   9.429  25.353   5.006
54516W        W20925  33.193   5.258   2.188
54517W        W20926   3.360  43.845  14.378
54518W        W20927  14.218   3.460  13.015
54519W        W20928  30.484  17.577   1.548
54520W        W20929   7.677  15.738   3.146
54521W        W20930  16.705  12.187   0.349
54522W        W20931  16.648   7.203  14.334
54523W        W20932  11.439   1.256  12.807
54524W        W20933   0.296  27.151   2.355
54525W        W20934   8.769  12.896  12.182
54526W        W20935  37.578  36.944  10.414
54527W        W20936   0.924  17.840   1.206
54528W        W20937  19.020  22.090  10.540
54529W        W20938   7.397  15.290  10.774
54530W        W20939   7.773   6.144   0.860
54531W        W20940  36.422   6.278   1.402
54532W        W20941   2.229  18.214  14.472
54533W        W20942  10.136   7.355   5.078
54534W        W20943  17.572   4.989   0.368
54535W        W20944  21.137  11.324  12.163
54536W        W20945  42.250  19.243   4.629
54537W        W20946  13.646  35.049   3.055
54538W        W20947  37.007  19.363  11.600
54539W        W20948   6.420   9.992   3.643
54540W        W20949   9.676  28.821  14.337
54541W        W20950   4.336  14.689   0.683
54542W        W20951   3.461  33.494  14.729
54543W        W20952  27.738  27.043  12.889
54544W        W20953   3.344  43.739  11.062
54545W        W20954   2.010  43.808   4.859
54546W        W20955  38.350  27.147  10.681
54547W        W20956   9.413  10.454  12.809
54548W        W20957  23.075  34.556   4.640
54549W        W20958   3.950  16.275   1.285
54550W        W20959  43.465  17.140   2.808
54551W        W20960  29.877  11.476  12.377
54552W        W20961  35.045   7.358   0.294
54553W        W20962  10.663  14.848  14.923
54554W        W20963  42.525  30.066   4.089
54555W        W20964  13.913  27.238  12.356
54556W        W20965  11.345   2.210   2.906
54557W        W20966   1.624  31.467   1.213
54558W        W20967   4.349  20.964   2.787
54559W        W20968  26.162  37.039   4.546
54560W        W20969  26.689  38.416   3.596
54561W        W20970   8.729  44.903   4.624
54562W        W20971  44.918  44.345   2.499
54563W        W20972  19.402  32.581   4.318
54564W        W20973   6.188  28.185   1.636
54565W        W20974  23.387  44.292  11.043
54566W        W20975  21.751  35.910  10.766
54567W        W20976  22.509  36.300  12.071
54568W        W20977  22.417  11.340   3.116
54569W        W20978  21.236  23.893   0.916
54570W        W20979   7.838   3.041   5.051
54571W        W20980  15.332  14.426  13.946
54572W        W20981  32.913  34.573  14.365
54573W        W20982  25.193  29.462   4.633
54574W        W20983  21.543  16.665   3.792
54575W        W20984  37.614   0.330   4.332
54576W        W20985  27.062  34.936   1.491
54577W        W20986   6.479  21.269  10.647
54578W        W20987  37.911   1.015   1.534
54579W        W20988   4.172  30.420  11.094
54580W        W20989   1.728   5.810   4.909
54581W        W20990  28.384   7.675  10.320
54582W        W20991  42.555  16.614   0.479
54583W        W20992  14.856  17.170   4.711
54584W        W20993  12.587   9.135   2.438
54585W        W20994  42.937  14.673  10.647
54586W        W20995  25.068  23.912   3.172
54587W        W20996  25.549  20.638  12.964
54588W        W20997  42.577  39.588   0.433
54589W        W20998  20.707  41.322  11.043
54590W        W20999  44.006  30.272   1.308
54591W        W21000   8.870   7.195  13.911
54592W        W21001  29.177  11.701   3.277
54593W        W21002  31.948  31.985  12.536
54594W        W21003  36.885  23.582  13.520
54595W        W21004  25.166  43.858  12.416
54596W        W21005  39.365  39.524   1.567
54597W        W21006   7.416  42.742  13.987
54598W        W21007   8.786  21.704   1.134
54599W        W21008  12.837  38.203   1.042
54600W        W21009  42.303   5.219  10.441
54601W        W21010  40.338  32.462  13.820
54602W        W21011   8.170  18.231  12.555
54603W        W21012   8.321  24.056   0.502
54604W        W21013  40.578   9.963   1.338
54605W        W21014   6.698  30.488  14.317
54606W        W21015  31.084  18.776  10.966
54607W        W21016  43.862  43.932   1.885
54608W        W21017  41.498  11.886  12.853
54609W        W21018   9.433  39.368  10.456
54610W        W21019  30.182   8.366   1.209
54611W        W21020  28.544  37.358  12.168
54612W        W21021  38.846  12.788  12.904
54613W        W21022  37.589  24.065   1.910
54614W        W21023  30.475  26.643  14.213
54615W        W21024  44.545   3.314   1.418
54616W        W21025  42.264  16.096   1.486
54617W        W21026  34.396  35.942  11.956
54618W        W21027  31.279   4.227  10.590
54619W        W21028  42.694  40.858   2.307
54620W        W21029   2.889   0.653   0.272
54621W        W21030  17.087  27.718  13.939
54622W        W21031  19.700  33.404  12.678
54623W        W21032   2.861  44.820  14.815
54624W        W21033  34.024   2.331  10.337
54625W        W21034   9.943  11.797   3.632
54626W        W21035  31.966  13.294   4.143
54627W        W21036   4.230  41.491   0.724
54628W        W21037  15.027  33.386   2.875
54629W        W21038   5.198  10.306   4.613
54630W        W21039   8.609  25.424  13.445
54631W        W21040  30.165  37.009  12.472
54632W        W21041  17.266  29.135  12.062
54633W        W21042  37.179  33.012  11.642
54634W        W21043  26.175  44.177   0.370
54635W        W21044   9.074  12.586   1.556
54636W        W21045   6.908  14.748  11.915
54637W        W21046  36.820  13.953   5.051
54638W        W21047  13.262   4.970  11.120
54639W        W21048  10.061  39.102  11.555
54640W        W21049  13.920  10.085   9.866
54641W        W21050  20.877   1.896   2.384
54642W        W21051  22.178  23.751   0.487
54643W        W21052  20.031   2.962   2.738
54644W        W21053   9.656  22.720  14.786
54645W        W21054  24.119  42.377   0.759
54646W        W21055  35.028   1.267   3.729
54647W        W21056   9.330  16.142   2.414
54648W        W21057  11.622  41.908   1.387
54649W        W21058  13.568   4.463  14.491
54650W        W21059  40.851  12.472   3.235
54651W        W21060  44.533  33.357  13.111
54652W        W21061   3.150  16.255   2.762
54653W        W21062  11.944  20.846  10.283
54654W        W21063   2.003  36.196   1.220
54655W        W21064  40.635  21.158  14.673
54656W        W21065   3.411   6.218   0.842
54657W        W21066   5.800  31.567   2.138
54658W        W21067  22.233  34.453   1.448
54659W        W21068  39.742  43.861  14.272
54660W        W21069  43.755  36.792   2.366
54661W        W21070  32.157  26.677   1.889
54662W        W21071  16.708  36.002  14.988
54663W        W21072  26.010  31.609  12.098
54664W        W21073  23.248  28.456   2.306
54665W        W21074   6.851  37.351   4.741
54666W        W21075  26.685  26.705   2.314
54667W        W21076  30.879  21.327   3.595
54668W        W21077  40.043  36.263  11.959
54669W        W21078  26.224  10.180  12.067
54670W        W21079  32.191  19.255  11.185
54671W        W21080  35.500  44.549  10.549
54672W        W21081   6.249   0.982   2.039
54673W        W21082  43.307  36.058   1.020
54674W        W21083  15.305  40.945   4.789
54675W        W21084   1.027  43.398  13.965
54676W        W21085  35.664  37.978  10.740
54677W        W21086  17.691  41.701   4.718
54678W        W21087   3.986  10.136   0.020
54679W        W21088  26.053  27.509  14.929
54680W        W21089  36.669  22.409   0.415
54681W        W21090  11.697  29.416   0.460
54682W        W21091  36.684  18.753   4.128
54683W        W21092  36.897  32.444   2.084
54684W        W21093  24.296  14.758   2.370
54685W        W21094  30.341  23.467   2.363
54686W        W21095  40.203  30.879   2.250
54687W        W21096  44.748  29.983   3.742
54688W        W21097  42.337  42.823  11.681
54689W        W21098  35.092  42.785  10.368
54690W        W21099   3.736  41.598  11.131
54691W        W21100  44.380  42.587  13.413
54692W        W21101  31.208  13.170   1.345
54693W        W21102   2.031   1.025   2.377
54694W        W21103   8.778  44.941  12.129
54695W        W21104  39.822  28.453  13.417
54696W        W21105  38.367   1.822   4.703
54697W        W21106   1.829  25.427   3.132
54698W        W21107  12.425  39.314   2.983
54699W        W21108  40.670   6.061   2.988
54700W        W21109  29.139  36.052  13.358
54701W        W21110  44.764   2.763  11.170
54702W        W21111   5.906   9.639  13.908
54703W        W21112  10.720   6.906  11.778
54704W        W21113   1.941  29.936   4.660
54705W        W21114   7.917  11.751  10.748
54706W        W21115  31.595  42.352  14.477
54707W        W21116  20.761   4.848   0.290
54708W        W21117  31.337  26.907   4.301
54709W        W21118   4.986  16.287   4.226
54710W        W21119  34.165  19.142  11.587
54711W        W21120  37.340  10.357   2.881
54712W        W21121  18.332  19.121   3.961
54713W        W21122  19.634   5.226   4.108
54714W        W21123  20.568  22.474   1.419
54715W        W21124  16.123   3.716   1.347
54716W        W21125  14.720  31.085   3.841
54717W        W21126  12.687  29.502   1.967
54718W        W21127  16.306   0.498  12.145
54719W        W21128  19.097  31.501   3.094
54720W        W21129   3.927  33.709  14.666
54721W        W21130  21.544  17.178  13.901
54722W        W21131  10.148   6.449   0.863
54723W        W21132  16.061  30.020   4.134
54724W        W21133  24.747   5.320   0.993
54725W        W21134   9.336  40.741  13.635
54726W        W21135   2.723  23.652  12.284
54727W        W21136  38.365  36.871  12.867
54728W        W21137  17.980  31.125  12.403
54729W        W21138  44.418  32.697  14.079
54730W        W21139  25.547  41.509   5.055
54731W        W21140   4.324   5.732   3.661
54732W        W21141   5.183   3.976  11.094
54733W        W21142  39.265   6.847  12.421
54734W        W21143  10.364  34.270   3.620
54735W        W21144  38.067  30.150  11.569
54736W        W21145  39.512  12.761  11.270
54737W        W21146  25.587   7.717   5.572
54738W        W21147  40.021  21.313   2.805
54739W        W21148  31.037  20.609   2.268
54740W        W21149  29.978  18.001   2.488
54741W        W21150  17.708  17.216  11.577
54742W        W21151  29.222   4.525   4.112
54743W        W21152  40.892   6.606  14.798
54744W        W21153   0.791   8.284   3.893
54745W        W21154  35.505   3.152   1.088
54746W        W21155  37.607  43.686  13.001
54747W        W21156  22.898  10.210   4.267
54748W        W21157   3.858  40.064  11.128
54749W        W21158  15.407  28.681  12.040
54750W        W21159  33.810  32.032   4.149
54751W        W21160  29.554  40.340  11.990
54752W        W21161  28.724  25.950  14.045
54753W        W21162  19.611  18.815  13.967
54754W        W21163  36.506  36.776  12.509
54755W        W21164  24.468  29.848   1.569
54756W        W21165   9.631  38.300  14.841
54757W        W21166  19.713  32.929   0.900
54758W        W21167   9.676   3.033   2.703
54759W        W21168   9.586  15.663  11.534
54760W        W21169  36.469  21.213   0.826
54761W        W21170  22.924  21.516   2.406
54762W        W21171  35.245  26.478   2.938
54763W        W21172  16.498  31.456   0.760
54764W        W21173  18.704  32.766   4.826
54765W        W21174   5.847  27.155  12.188
54766W        W21175  33.376  12.825   1.067
54767W        W21176   9.398  41.082   0.409
54768W        W21177   2.452  31.476  11.969
54769W        W21178  35.555  22.362  11.256
54770W        W21179  31.355  42.275  11.162
54771W        W21180  39.016   8.281  10.838
54772W        W21181   6.860  16.409  11.221
54773W        W21182  23.436  43.454  12.656
54774W        W21183  28.760  16.254  13.297
54775W        W21184  12.225  36.656   4.912
54776W        W21185  15.137  19.273  11.614
54777W        W21186  19.192  15.692   4.810
54778W        W21187  39.120  33.156   0.547
54779W        W21188  18.998  37.642   5.019
54780W        W21189   9.627  40.560  11.020
54781W        W21190   6.945  29.104   4.918
54782W        W21191  31.156   5.297   3.891
54783W        W21192  39.935  39.026   2.997
54784W        W21193  32.935   1.947   1.214
54785W        W21194  38.010  20.032  13.416
54786W        W21195  44.759  29.680   4.178
54787W        W21196   9.567  35.032   0.448
54788W        W21197  26.600   9.267   0.150
54789W        W21198  30.332   0.505  14.963
54790W        W21199   7.748  26.173  14.368
54791W        W21200  19.061   0.121  13.309
54792W        W21201  39.317  32.419   0.075
54793W        W21202  31.056  37.080  11.606
54794W        W21203  35.876  12.451   1.622
54795W        W21204  39.601  25.955  11.200
54796W        W21205  11.166  35.986  10.409
54797W        W21206  21.655  23.882   9.925
54798W        W21207  41.273  24.757   1.361
54799W        W21208  37.266  43.885  13.941
54800W        W21209  20.694  33.110  11.984
54801W        W21210  25.704   2.910   3.322
54802W        W21211   0.675  34.016  11.155
54803W        W21212  19.970  38.743   0.453
54804W        W21213  20.709  17.437   1.733
54805W        W21214   5.905  41.517   4.912
54806W        W21215  27.349  29.608   4.117
54807W        W21216   5.849  14.780   3.218
54808W        W21217  28.692  13.751   0.412
54809W        W21218  26.409  20.375   2.289
54810W        W21219  44.639  43.101   3.224
54811W        W21220  22.727  39.606  12.895
54812W        W21221   4.506   9.702   4.423
54813W        W21222   0.011  41.571  12.985
54814W        W21223   2.807   1.904   1.437
54815W        W21224  14.081  41.607  14.768
54816W        W21225  20.728  25.264   4.608
54817W        W21226  15.337   0.278   1.411
54818W        W21227  43.309  29.420   3.266
54819W        W21228  18.764  12.223  11.187
54820W        W21229  30.259   5.638   1.369
54821W        W21230   3.269   0.867  13.970
54822W        W21231  21.951  11.334   1.259
54823W        W21232  41.393   8.640  13.942
54824W        W21233  30.200  15.537  13.071
54825W        W21234  28.527  23.022   3.697
54826W        W21235   1.496  26.616  14.264
54827W        W21236  31.903  11.738   2.798
54828W        W21237  14.474  41.764   2.828
54829W        W21238  24.098  20.057   1.265
54830W        W21239  39.566   1.122   0.465
54831W        W21240  11.826  26.471   1.869
54832W        W21241   8.667  43.828   2.289
54833W        W21242   9.225  35.083  13.876
54834W        W21243  11.187   5.226  13.020
54835W        W21244  23.220  20.700   3.724
54836W        W21245  20.176  17.227   2.705
54837W        W21246   8.592  43.566   4.541
54838W        W21247  24.512  11.840  13.470
54839W        W21248  13.294  34.546  12.895
54840W        W21249  37.530  31.323   3.604
54841W        W21250  22.566  18.104   2.870
54842W        W21251  11.719  24.637   4.392
54843W        W21252  34.417  13.041   4.127
54844W        W21253  44.387  18.658  10.687
54845W        W21254  40.738  20.122   0.760
54846W        W21255  36.109  43.986  13.356
54847W        W21256   1.470  14.021   0.473
54848W        W21257  37.814  17.131  14.802
54849W        W21258  44.997  44.737  13.765
54850W        W21259  17.807  33.990   2.261
54851W        W21260  29.446  27.441  14.521
54852W        W21261   2.161   5.252  14.710
54853W        W21262  38.548  39.172   1.303
54854W        W21263  29.844  18.738   3.660
54855W        W21264   6.147  17.167  12.911
54856W        W21265  27.192  24.408   1.227
54857W        W21266  22.717  26.391   1.711
54858W        W21267   9.292  40.044  11.177
54859W        W21268  23.993  29.153  11.527
54860W        W21269  31.391  42.279   1.297
54861W        W21270  34.844  40.689  14.904
54862W        W21271   3.881  19.892   5.047
54863W        W21272  33.640   4.358   4.478
54864W        W21273  27.478  19.327  14.532
54865W        W21274   3.234  13.218   1.881
54866W        W21275  31.378  23.218  13.443
54867W        W21276   6.831   0.292  11.410
54868W        W21277  42.752  18.618  13.030
54869W        W21278  18.514  24.859   0.821
54870W        W21279  43.087   0.832  12.526
54871W        W21280  31.109  37.570  11.098
54872W        W21281  28.277  44.217  13.753
54873W        W21282   5.817  11.298  12.351
54874W        W21283  33.078  35.055   3.950
54875W        W21284  41.786   7.528  12.947
54876W        W21285  21.169  10.070   5.122
54877W        W21286  27.443  30.174  14.472
54878W        W21287  17.040  26.762  14.896
54879W        W21288   8.731  37.139  11.563
54880W        W21289  12.371  36.016  14.043
54881W        W21290  26.438   0.962  11.860
54882W        W21291  24.989  35.279  14.203
54883W        W21292   3.489  21.967  10.454
54884W        W21293  18.446  14.538  14.246
54885W        W21294  14.305   3.743  12.605
54886W        W21295   5.192  28.988   9.955
54887W        W21296   8.562  33.835  12.894
54888W        W21297  27.258   1.711  13.358
54889W        W21298  41.744  19.219  12.413
54890W        W21299  17.604  43.991  11.099
54891W        W21300  26.558  17.536  14.756
54892W        W21301  37.004  38.871   2.464
54893W        W21302   5.193   8.398  12.145
54894W        W21303  34.521   2.209  10.240
54895W        W21304  43.297  15.185  10.610
54896W        W21305   0.832  34.900   1.374
54897W        W21306  23.542   8.208   1.525
54898W        W21307   8.695  27.745  13.568
54899W        W21308  17.592   0.724   2.679
54900W        W21309  25.958  28.258  12.868
54901W        W21310  34.461  33.176   0.932
54902W        W21311  38.992  19.450   1.302
54903W        W21312  35.591  28.469  14.838
54904W        W21313  14.755  39.741   2.975
54905W        W21314  30.379  24.211   1.082
54906W        W21315  44.463   5.018  11.030
54907W        W21316  27.971  29.689   1.914
54908W        W21317  16.907  32.575   4.497
54909W        W21318  29.957  23.015   2.721
54910W        W21319  41.935  34.434  13.704
54911W        W21320  16.279  27.496   3.940
54912W        W21321  37.045  20.527  11.969
54913W        W21322  21.271  38.610  10.536
54914W        W21323   0.064  27.958   0.300
54915W        W21324  34.611   3.517  13.965
54916W        W21325  24.769  42.408   1.984
54917W        W21326  32.606  10.444   2.844
54918W        W21327  12.125   9.671   3.741
54919W        W21328  39.515   1.298  10.575
54920W        W21329  42.808  10.255   2.449
54921W        W21330  43.497  39.937   3.133
54922W        W21331  12.750  10.588  11.566
54923W        W21332  44.329   2.505   0.213
54924W        W21333  24.455   9.931   4.014
54925W        W21334  28.462  34.957   3.221
54926W        W21335   5.764  41.042   2.082
54927W        W21336  23.370  28.198  12.469
54928W        W21337   7.825  26.863  12.551
54929W        W21338  21.714  24.722  13.883
54930W        W21339  31.815   1.409   9.851
54931W        W21340  34.091   4.478  10.839
54932W        W21341  41.571  11.849  13.367
54933W        W21342  13.454  17.064  12.007
54934W        W21343  20.463   7.883   3.048
54935W        W21344  15.211   8.789   9.863
54936W        W21345  22.041  39.117   3.675
54937W        W21346   8.010   6.640  13.250
54938W        W21347  40.559   4.889  10.843
54939W        W21348  13.475  22.137   4.951
54940W        W21349  29.719  27.514   1.869
54941W        W21350   3.383  36.490   1.271
54942W        W21351  22.082  44.687   4.068
54943W        W21352  28.736  28.800   2.208
54944W        W21353  14.293  44.494  12.074
54945W        W21354  20.591  33.856  12.402
54946W        W21355  28.613  28.122  13.229
54947W        W21356  24.175   0.573   4.495
54948W        W21357  35.640  38.535   2.735
54949W        W21358  24.281  12.856  12.463
54950W        W21359  35.414   9.093  14.325
54951W        W21360  30.079  27.250   2.341
54952W        W21361  15.927  36.587  12.888
54953W        W21362   9.854  30.653   3.345
54954W        W21363   1.529   7.948   5.022
54955W        W21364  19.235  43.569   2.423
54956W        W21365  19.811  32.154   3.692
54957W        W21366  24.372  11.512   3.068
54958W        W21367  12.207  42.508  10.757
54959W        W21368  33.849  20.330  11.209
54960W        W21369  44.737  32.956   2.957
54961W        W21370  19.387  37.914   3.185
54962W        W21371  21.009  36.189  12.419
54963W        W21372  39.150  17.049   4.662
54964W        W21373  40.519  21.131   2.779
54965W        W21374  13.338  21.411   3.214
54966W        W21375  44.700  20.174   1.806
54967W        W21376  27.990  44.158   2.201
54968W        W21377  23.472   6.380   0.225
54969W        W21378   2.971   2.195  13.920
54970W        W21379  16.129   9.093  12.625
54971W        W21380  12.734   2.136   1.982
54972W        W21381  14.936  38.757   4.744
54973W        W21382  29.707  20.441   2.230
54974W        W21383   7.940  24.219  14.577
54975W        W21384  19.611   9.543   4.174
54976W        W21385  23.995  33.052   1.247
54977W        W21386  29.584  44.450   4.268
54978W        W21387  23.179  30.557   3.049
54979W        W21388   0.244  31.636  11.144
54980W        W21389  22.708   2.477  10.678
54981W        W21390  14.632  19.326   4.456
54982W        W21391  34.558  40.437  13.440
54983W        W21392  20.305  25.082  13.438
54984W        W21393  11.602  31.455  14.830
54985W        W21394  28.888  36.953  14.252
54986W        W21395   9.820  37.213   1.675
54987W        W21396  21.759  44.765  14.384
54988W        W21397  22.052   4.733  10.503
54989W        W21398  42.406  40.566   1.369
54990W        W21399  11.806  10.562  14.917
54991W        W21400  23.582   5.830   4.644
54992W        W21401  31.994  26.104  14.921
54993W        W21402  36.739  23.245   2.711
54994W        W21403   5.162  16.581  10.846
54995W        W21404   7.256  19.179  13.881
54996W        W21405  20.216  31.685   4.636
54997W        W21406  14.476  20.768   2.875
54998W        W21407  30.447   6.153   3.172
54999W        W21408  20.261  39.826  13.317
55000W        W21409   7.756  20.310  10.681
55001W        W21410  26.987  30.997   2.443
55002W        W21411   9.603  32.333  14.882
55003W        W21412  21.526  25.740   0.933
55004W        W21413  30.325  30.899   3.164
55005W        W21414  32.093  14.564   2.217
55006W        W21415  14.061  36.152  14.685
55007W        W21416  21.087  35.471   0.696
55008W        W21417  38.925   4.432  13.097
55009W        W21418  31.675   8.463   3.833
55010W        W21419  33.408  33.687  13.525
55011W        W21420  26.481  42.438   4.184
55012W        W21421  37.348   9.362   2.983
55013W        W21422  22.240  20.169   1.566
55014W        W21423  22.435  13.236   9.968
55015W        W21424  35.430  37.428   2.427
55016W        W21425  15.258   0.753  10.000
55017W        W21426  26.667  38.970  11.982
55018W        W21427  43.787  11.179  12.915
55019W        W21428  18.786  37.120   0.417
55020W        W21429  41.006  42.771   2.386
55021W        W21430  37.639  25.694   0.408
55022W        W21431  31.606  18.161  10.604
55023W        W21432  27.699  40.865  14.258
55024W        W21433  34.077   3.530   3.228
55025W        W21434  19.947  21.036   1.378
55026W        W21435  13.269  43.513   1.874
55027W        W21436  17.928  37.052   0.292
55028W        W21437  15.120  28.535  11.603
55029W        W21438  14.285  24.233  11.216
55030W        W21439  22.876  18.380  12.599
55031W        W21440  38.097  44.892  11.980
55032W        W21441  32.348  39.014   4.453
55033W        W21442  24.343  34.366  12.100
55034W        W21443   8.820   6.142   3.253
55035W        W21444  44.352  23.181  13.953
55036W        W21445  21.761  14.754  10.867
55037W        W21446  31.542  28.064  11.587
55038W        W21447  17.619  25.536   4.294
55039W        W21448   9.163  20.929   1.999
55040W        W21449  15.272  32.944   1.078
55041W        W21450  11.624  16.209   3.285
55042W        W21451  17.781  25.344  11.131
55043W        W21452  23.025   8.363   4.075
55044W        W21453  22.061  25.288   3.190
55045W        W21454  19.022  38.650  13.134
55046W        W21455  37.814  37.412   3.748
55047W        W21456  28.450  39.998  10.733
55048W        W21457  38.220   5.385  11.984
55049W        W21458  23.529  33.738   4.118
55050W        W21459  30.668  24.602   3.650
55051W        W21460  41.335  11.443   1.634
55052W        W21461  36.869  21.769  11.557
55053W        W21462  13.193  22.981   0.612
55054W        W21463  23.775  24.888  12.041
55055W        W21464  15.337  43.636  11.547
55056W        W21465   9.927   4.966  12.860
55057W        W21466  41.009  43.412  13.757
55058W        W21467  35.958  26.234  13.380
55059W        W21468  35.898  20.605  13.590
55060W        W21469   6.285  14.836  10.700
55061W        W21470  21.063  30.547  12.812
55062W        W21471  25.570  12.404   4.053
55063W        W21472  22.508  18.239  14.955
55064W        W21473  28.634   7.429  11.140
55065W        W21474   2.363  10.823  14.881
55066W        W21475   0.275   0.404  13.807
55067W        W21476  34.736  40.742   3.279
55068W        W21477  10.622  30.543   0.886
55069W        W21478  25.767  23.982   3.418
55070W        W21479  27.284   3.676  13.517
55071W        W21480  29.899   5.956   3.721
55072W        W21481  13.020  12.457   3.676
55073W        W21482  13.691  26.956   2.111
55074W        W21483  44.418  37.903  14.308
55075W        W21484  27.396  21.634   0.289
55076W        W21485  30.980  26.005   2.313
55077W        W21486  35.457   7.979  14.812
55078W        W21487   9.680  33.595  13.511
55079W        W21488   4.781  26.870  13.011
55080W        W21489  40.627  26.460  12.929
55081W        W21490   1.393  19.209   3.191
55082W        W21491  36.034  21.043  11.071
55083W        W21492  21.574  34.879  12.440
55084W        W21493   5.720  34.511  11.065
55085W        W21494   0.871  16.265  10.996
55086W        W21495  16.101  20.853   0.668
55087W        W21496  19.580  28.765  11.692
55088W        W21497  26.073  39.811  12.871
55089W        W21498  25.801  43.521  10.575
55090W        W21499  32.629  38.383  12.581
55091W        W21500   0.737  39.258  13.437
55092W        W21501   9.894  14.845  14.333
55093W        W21502  36.401  17.735   9.857
55094W        W21503  28.941   6.773   4.056
55095W        W21504   9.259  32.439   2.859
55096W        W21505  43.136   8.637   3.752
55097W        W21506  13.813  21.425  13.915
55098W        W21507  40.394  25.171   1.953
55099W        W21508  27.460  32.634   3.723
55100W        W21509  31.475  40.120   0.313
55101W        W21510   1.924  42.378  11.088
55102W        W21511  17.500  36.318  11.230
55103W        W21512   1.940  44.266   2.914
55104W        W21513   8.406  20.941   4.082
55105W        W21514  13.165  13.320  13.027
55106W        W21515  29.643  27.564  12.067
55107W        W21516  37.617   7.854  11.210
55108W        W21517  14.761  39.908   2.482
55109W        W21518  16.807   7.853  14.937
55110W        W21519  36.294  26.071  12.039
55111W        W21520  36.562  34.098   4.448
55112W        W21521  20.136  33.983   1.772
55113W        W21522  13.338  30.404   5.258
55114W        W21523  24.953  22.754   1.865
55115W        W21524  34.014  14.171  12.584
55116W        W21525  35.677   5.686  14.873
55117W        W21526  15.743   1.283   0.433
55118W        W21527  43.297  23.456  12.229
55119W        W21528  15.206  39.103  13.498
55120W        W21529  23.660  21.663   1.305
55121W        W21530  40.571  20.777  11.149
55122W        W21531  21.570  23.701  11.994
55123W        W21532   9.196  13.991  12.854
55124W        W21533   6.735  42.281  12.643
55125W        W21534  15.799  22.857   5.059
55126W        W21535  12.612   9.363   4.047
55127W        W21536  32.339  30.024   0.854
55128W        W21537  39.000   4.791   3.896
55129W        W21538   4.212  36.117   3.711
55130W        W21539   6.221   0.887  12.369
55131W        W21540  42.717   1.787  14.346
55132W        W21541  36.835   8.396   0.772
55133W        W21542   8.907  14.581   0.941
55134W        W21543  25.695   4.009   1.684
55135W        W21544   6.668  31.429   2.855
55136W        W21545  24.037  39.892   1.829
55137W        W21546  33.452  11.853  13.459
55138W        W21547  28.216  39.855  12.422
55139W        W21548  14.585   7.306  14.021
55140W        W21549  21.704  43.298   2.773
55141W        W21550  14.725  42.057  13.829
55142W        W21551  22.233  30.170  10.776
55143W        W21552  15.479  12.623  12.141
55144W        W21553   2.550   1.585  10.517
55145W        W21554  21.014   5.841   1.187
55146W        W21555  36.880  37.207  12.099
55147W        W21556  23.959  34.994   1.195
55148W        W21557  20.338  25.993   3.303
55149W        W21558  23.254  29.015  12.105
55150W        W21559   5.345  11.098  12.472
55151W        W21560  44.848  42.408  11.971
55152W        W21561  35.791  26.715   4.075
55153W        W21562   8.140   3.378   4.138
55154W        W21563  28.021  16.299  14.717
55155W        W21564   0.191  19.523  10.675
55156W        W21565   5.566  18.770   4.601
55157W        W21566  30.213  28.933  11.570
55158W        W21567   2.354  32.443   2.130
55159W        W21568  29.766  43.252   3.591
55160W        W21569  26.488  28.941   1.722
55161W        W21570  42.724   3.847  12.134
55162W        W21571  27.711  30.013  12.101
55163W        W21572  23.239  32.190  13.835
55164W        W21573   4.748  23.509  10.682
55165W        W21574   2.212  34.448  10.767
55166W        W21575  15.634  41.104   4.418
55167W        W21576  30.352  36.120   1.702
55168W        W21577  21.208  16.324   0.336
55169W        W21578  44.904  27.235   1.198
55170W        W21579  31.998   0.752  13.923
55171W        W21580   2.253  20.075   3.404
55172W        W21581  12.394  13.616   3.117
55173W        W21582   2.165  44.332  12.981
55174W        W21583  37.125   9.409   1.381
55175W        W21584   4.531  32.148   2.821
55176W        W21585  42.914  29.134  11.196
55177W        W21586  10.436   1.534  14.775
55178W        W21587  17.157   9.447  13.731
55179W        W21588  38.366  21.222   5.139
55180W        W21589  31.544  12.355  12.090
55181W        W21590  33.820  41.218   4.208
55182W        W21591  12.728  19.072   4.720
55183W        W21592  20.984  37.910   4.260
55184W        W21593  42.263   6.227  10.456
55185W        W21594   9.657  18.713   0.488
55186W        W21595  36.934   3.654   0.908
55187W        W21596  19.588  14.227   0.751
55188W        W21597  42.688   8.998  11.521
55189W        W21598   4.008  25.243  14.785
55190W        W21599  42.274  39.481  11.596
55191W        W21600  29.513  31.888  10.812
55192W        W21601  18.025  34.477   2.394
55193W        W21602   9.321  16.151   4.881
55194W        W21603  30.276  17.165   4.122
55195W        W21604  28.530  25.588  11.676
55196W        W21605   4.761  44.357  14.060
55197W        W21606  42.933  13.188   2.699
55198W        W21607  23.109   0.452  11.300
55199W        W21608   2.714  37.991   4.428
55200W        W21609  11.753  40.899   1.260
55201W        W21610  12.242  30.187  14.976
55202W        W21611  25.005   3.805   2.678
55203W        W21612   4.360   0.477  14.309
55204W        W21613  33.048   9.885  11.128
55205W        W21614  11.318   8.141  14.020
55206W        W21615   2.337  39.982   2.109
55207W        W21616   2.927  20.089  10.487
55208W        W21617  40.017   0.355  14.702
55209W        W21618   0.406  39.559  13.167
55210W        W21619  20.011   4.874   4.084
55211W        W21620   4.190  29.041   1.925
55212W        W21621  24.290  19.808   3.521
55213W        W21622  43.915  28.565   1.740
55214W        W21623  30.083  15.653   0.030
55215W        W21624  21.480  25.548   0.456
55216W        W21625  22.806   3.845   2.889
55217W        W21626  22.271  13.879  14.974
55218W        W21627   0.202  19.133  12.168
55219W        W21628  29.135  22.415   0.464
55220W        W21629   1.283  13.057   0.465
55221W        W21630   1.225  25.808  12.931
55222W        W21631  25.865  23.900   3.951
55223W        W21632   1.254  36.855  12.958
55224W        W21633   9.225  25.665  14.269
55225W        W21634  14.650  16.083   4.956
55226W        W21635   5.368  44.831   2.448
55227W        W21636  11.307  24.132   1.667
55228W        W21637   1.388  20.486   1.901
55229W        W21638   2.862  32.200  10.722
55230W        W21639  26.951  33.002  10.504
55231W        W21640  29.602  42.300   2.821
55232W        W21641  11.756  29.419  11.743
55233W        W21642  20.916   7.762   1.768
55234W        W21643   6.649  44.994  11.038
55235W        W21644  26.938  14.284   2.379
55236W        W21645  42.010  33.088   4.489
55237W        W21646  32.113  39.966   2.381
55238W        W21647  33.662  29.700   0.176
55239W        W21648  17.741  22.804  12.995
55240W        W21649  27.492  18.678  12.900
55241W        W21650   0.142   5.589  11.588
55242W        W21651  40.852   3.763  14.989
55243W        W21652  31.979  23.562   3.635
55244W        W21653  20.054  31.428   1.187
55245W        W21654   4.443   5.199  14.580
55246W        W21655  42.289  30.670  13.386
55247W        W21656  33.179  35.913  12.765
55248W        W21657  44.487  30.361  11.305
55249W        W21658  42.864  16.742   3.168
55250W        W21659  23.615  23.281  10.923
55251W        W21660  24.349  24.693   0.312
55252W        W21661  32.127  16.540  14.789
55253W        W21662  40.486  13.479   3.694
55254W        W21663  31.223  11.440  14.890
55255W        W21664   6.494  23.631   3.669
55256W        W21665  14.887  20.215  11.407
55257W        W21666   7.908  41.818   3.630
55258W        W21667  28.651   7.154  12.021
55259W        W21668  10.122  40.275   4.581
55260W        W21669  42.548  32.169  14.928
55261W        W21670  27.215   7.491   2.738
55262W        W21671   6.665  30.048   3.408
55263W        W21672  13.167  38.294   0.183
55264W        W21673  13.787  13.053  12.984
55265W        W21674  23.347  44.832  11.773
55266W        W21675  32.495   5.687   2.411
55267W        W21676   4.757  20.154  11.870
55268W        W21677  12.304  17.812   2.073
55269W        W21678  39.893   2.899  12.856
55270W        W21679  15.760  21.092   2.369
55271W        W21680  37.465  19.088  14.270
55272W        W21681   5.351   0.962  10.620
55273W        W21682   8.003  39.777  11.654
55274W        W21683  36.489  14.530   2.491
55275W        W21684   1.803  28.416   2.740
55276W        W21685  23.178  13.829  14.998
55277W        W21686  30.409  19.061   1.339
55278W        W21687  37.309  11.779  12.514
55279W        W21688  29.765  11.443   2.662
55280W        W21689   3.188  37.039  10.926
55281W        W21690  16.697  26.187  12.036
55282W        W21691  33.211  16.224  13.738
55283W        W21692  32.352  28.459  13.963
55284W        W21693  26.930  22.575  12.510
55285W        W21694  22.202  12.569   3.320
55286W        W21695  14.276  31.107   1.377
55287W        W21696  18.295  38.585   4.619
55288W        W21697  14.832  37.266   1.915
55289W        W21698  10.416  26.515  14.516
55290W        W21699  19.849   1.726  11.225
55291W        W21700  28.535  30.598   1.837
55292W        W21701  36.721  10.375   0.424
55293W        W21702  17.178  37.940  11.725
55294W        W21703  31.068   8.889  14.372
55295W        W21704  15.746   0.379  12.822
55296W        W21705  14.096   6.430   1.678
55297W        W21706  41.305  44.435   0.794
55298W        W21707  14.814  32.670   0.381
55299W        W21708  22.343  32.382  14.553
55300W        W21709  31.827  23.568  10.502
55301W        W21710  21.696  41.690  10.745
55302W        W21711  34.928  21.255   5.246
55303W        W21712  36.125  33.083   3.234
55304W        W21713  12.851  21.731  14.772
55305W        W21714  11.771  35.718   2.106
55306W        W21715  29.928  18.299  14.560
55307W        W21716  41.499  43.682  14.287
55308W        W21717  44.667  36.406   1.390
55309W        W21718  20.262   8.672  10.670
55310W        W21719  37.046  14.318   4.751
55311W        W21720  27.037  34.923  10.944
55312W        W21721  24.495  33.211   1.900
55313W        W21722  33.112  33.303   1.649
55314W        W21723  17.016  42.268  14.396
55315W        W21724  22.850  44.346   1.495
55316W        W21725  27.758  30.555  13.335
55317W        W21726   2.035  19.518  13.971
55318W        W21727  23.282  37.800  12.421
55319W        W21728  14.755  25.707   4.763
55320W        W21729  44.159   6.727  13.632
55321W        W21730   0.726  11.396   3.210
55322W        W21731   5.163  33.496   0.368
55323W        W21732  10.324  15.255  11.216
55324W        W21733   7.358  37.601   3.885
55325W        W21734   3.168   4.508   3.350
55326W        W21735  13.368  44.810   1.404
55327W        W21736  42.307   4.761  12.098
55328W        W21737  38.440  17.331   4.183
55329W        W21738   1.860  36.612  14.082
55330W        W21739  16.995  44.064   9.910
55331W        W21740  24.236   7.433   0.373
55332W        W21741  42.312  10.327  14.304
55333W        W21742  24.761  19.128   2.734
55334W        W21743  27.186  40.961  10.383
55335W        W21744  37.739   7.844   1.531
55336W        W21745  23.070  43.452  14.903
55337W        W21746  17.550  32.259  11.937
55338W        W21747  31.584   1.675   1.459
55339W        W21748  21.805  14.110  14.380
55340W        W21749   3.022   1.750  13.087
55341W        W21750  33.924  17.342  11.127
55342W        W21751  10.558  15.195   4.264
55343W        W21752  40.042  12.633   0.902
55344W        W21753  14.250   8.696   1.610
55345W        W21754  29.606  17.596   0.923
55346W        W21755  12.220   9.426  13.525
55347W        W21756   8.074   8.607  13.144
55348W        W21757   9.799   8.297  14.977
55349W        W21758   3.170  39.908   4.190
55350W        W21759  44.590  29.072   0.773
55351W        W21760  31.816  36.624   2.800
55352W        W21761  12.361  41.872   3.904
55353W        W21762  13.865  33.905   3.299
55354W        W21763  30.169   3.459  10.695
55355W        W21764   9.826  11.673  10.769
55356W        W21765  17.829   7.393   1.370
55357W        W21766  21.555   6.966   2.696
55358W        W21767  41.988  22.606  12.980
55359W        W21768  12.899   0.764   1.550
55360W        W21769  29.171  36.130   0.893
55361W        W21770  41.393  18.529   1.356
55362W        W21771   5.230  44.791  11.081
55363W        W21772  21.167   1.394  12.971
55364W        W21773  21.793  28.714   3.168
55365W        W21774  15.461  19.009  10.521
55366W        W21775   8.149   8.987   1.513
55367W        W21776   2.024  32.902  13.395
55368W        W21777  26.186  20.054   1.854
55369W        W21778  34.602  27.915  10.678
55370W        W21779  43.892  40.078   4.445
55371W        W21780   8.376  36.597  12.934
55372W        W21781   7.163  11.785   1.302
55373W        W21782  32.576  23.630  12.011
55374W        W21783  20.114   8.831  12.554
55375W        W21784  19.766  37.293   2.454
55376W        W21785  16.137  16.252  14.229
55377W        W21786  20.202  15.462  12.880
55378W        W21787  15.560  44.890  10.065
55379W        W21788  20.127  18.184  12.092
55380W        W21789  42.499  16.675   4.032
55381W        W21790  10.347  40.541   2.816
55382W        W21791   3.250   6.852   1.828
55383W        W21792   7.205  38.560   2.381
55384W        W21793  42.593  35.050  11.106
55385W        W21794  28.484  23.948   1.395
55386W        W21795   6.390  34.990   1.013
55387W        W21796   9.903   3.501   3.797
55388W        W21797   2.793  15.103  11.645
55389W        W21798  28.028  25.596  14.259
55390W        W21799   4.330  40.746  12.666
55391W        W21800  41.652   2.532   4.824
55392W        W21801  14.717   0.396   2.650
55393W        W21802  16.654   2.430   2.897
55394W        W21803  22.303  12.072   4.593
55395W        W21804  17.396  31.869   2.797
55396W        W21805  14.116  42.364  12.676
55397W        W21806   4.849  41.843  14.743
55398W        W21807  16.624  33.244   2.214
55399W        W21808  38.152  37.237  13.180
55400W        W21809  13.207  36.718  11.702
55401W        W21810  14.105  17.033  11.040
55402W        W21811  36.986  43.170   2.411
55403W        W21812  22.756  36.972  10.497
55404W        W21813  32.348  24.422  13.128
55405W        W21814  38.878  15.724  10.668
55406W        W21815  13.650   0.237   3.320
55407W        W21816   5.605  44.972   3.629
55408W        W21817  19.039  39.399  10.732
55409W        W21818   0.457   9.701   0.830
55410W        W21819  12.696  29.742   4.180
55411W        W21820   4.046   3.266   0.075
55412W        W21821  34.571  15.403  14.485
55413W        W21822  41.029  17.544  13.908
55414W        W21823  11.953   0.759  11.846
55415W        W21824  26.669  41.880  13.570
55416W        W21825  18.612  20.350   4.674
55417W        W21826  44.733   4.830  14.009
55418W        W21827  10.799  26.270   0.339
55419W        W21828   2.088  29.987   1.977
55420W        W21829  26.537  22.936   2.180
55421W        W21830  36.051   9.415  14.973
55422W        W21831  19.191  39.757  11.981
55423W        W21832   8.893  14.285   4.209
55424W        W21833   3.338  15.531  12.384
55425W        W21834  44.281   8.818   2.918
55426W        W21835  21.818  24.229   2.807
55427W        W21836  29.114   9.865   1.273
55428W        W21837  24.403  42.941   2.598
55429W        W21838   0.302  38.911   1.748
55430W        W21839  17.075   6.041   0.861
55431W        W21840   1.334  13.773   4.887
55432W        W21841  36.746  28.666  11.106
55433W        W21842  44.489  32.722   3.699
55434W        W21843  32.543  20.803  12.402
55435W        W21844  39.919  43.227   3.253
55436W        W21845  33.464  16.099   1.806
55437W        W21846  44.313  37.050   0.364
55438W        W21847  19.540  25.589   3.220
55439W        W21848  41.303  44.014  14.944
55440W        W21849  22.971  30.038   0.063
55441W        W21850  35.164  12.252   2.285
55442W        W21851  26.249   7.311  12.185
55443W        W21852  39.284  15.316  10.580
55444W        W21853  20.781  26.172   4.309
55445W        W21854   1.986  14.481  11.543
55446W        W21855  34.849   4.842  12.727
55447W        W21856  36.346  28.007  14.960
55448W        W21857  41.498   5.886   2.097
55449W        W21858   4.742  34.232   2.690
55450W        W21859  35.636  36.233  14.298
55451W        W21860  18.223  17.592   3.325
55452W        W21861  30.030  17.680   1.240
55453W        W21862   0.353  34.190   2.163
55454W        W21863  11.181  10.929   1.819
55455W        W21864  43.542  32.628   0.982
55456W        W21865  21.583  32.070   3.213
55457W        W21866   2.487  35.229  10.997
55458W        W21867  42.216   3.758   2.111
55459W        W21868   7.896  44.800   1.393
55460W        W21869   1.416  35.626   0.262
55461W        W21870   2.922  22.164  14.857
55462W        W21871   5.765  20.984   2.512
55463W        W21872  27.489  11.412  13.050
55464W        W21873   3.791  31.212   0.897
55465W        W21874  29.743  15.320  11.990
55466W        W21875  20.095  35.565  10.357
55467W        W21876  40.918   2.526   1.871
55468W        W21877  32.699  39.854  12.917
55469W        W21878  31.913  42.821   0.415
55470W        W21879  20.496  44.234  10.198
55471W        W21880  25.032  31.628  12.485
55472W        W21881  42.455  37.935  12.425
55473W        W21882  12.526  16.381  11.238
55474W        W21883  10.111   6.150  14.845
55475W        W21884  11.377  26.279  11.540
55476W        W21885  14.379  14.300  13.804
55477W        W21886   0.239  11.369   0.230
55478W        W21887  11.669  43.751   4.886
55479W        W21888  28.187  35.602  10.263
55480W        W21889  22.283   9.068   3.318
55481W        W21890  42.496  13.625  11.200
55482W        W21891  35.684  13.150   3.834
55483W        W21892   7.944  16.167   2.195
55484W        W21893   0.898  28.192   4.141
55485W        W21894  44.966   1.264   1.948
55486W        W21895  24.107  39.812  13.820
55487W        W21896  10.156  20.078   3.237
55488W        W21897  42.573  27.869  13.759
55489W        W21898   2.253  17.481   3.190
55490W        W21899   4.346   3.376  12.831
55491W        W21900  20.170  37.423   0.729
55492W        W21901   9.347  28.625   1.296
55493W        W21902  29.760   6.500  12.545
55494W        W21903   6.400   6.357   3.506
55495W        W21904  35.570  22.399  13.427
55496W        W21905  33.529   9.130  11.149
55497W        W21906   2.334   3.345   5.173
55498W        W21907  30.585   9.828  11.139
55499W        W21908  44.535  26.690   3.262
55500W        W21909  24.134  41.060   0.860
55501W        W21910  18.728  11.807   4.916
55502W        W21911  36.803  21.724  14.780
55503W        W21912  31.000  41.225   0.741
55504W        W21913  20.595  20.962   2.389
55505W        W21914  24.442   6.436   0.329
55506W        W21915  21.245  17.574  13.733
55507W        W21916   7.901  32.849  13.201
55508W        W21917  18.750   3.027  13.989
55509W        W21918  40.151  40.068   4.474
55510W        W21919   3.294   7.356  12.508
55511W        W21920  42.809  36.354  13.576
55512W        W21921  22.785  33.062   4.398
55513W        W21922  15.296   9.392  11.713
55514W        W21923  34.847   6.185  10.214
55515W        W21924  44.278  20.662  11.385
55516W        W21925  16.129  10.967  12.450
55517W        W21926  32.047  24.962  10.865
55518W        W21927  33.036   8.737   1.294
55519W        W21928   9.875  30.898  14.409
55520W        W21929  32.104  37.564   1.271
55521W        W21930  31.534  13.982  12.859
55522W        W21931   3.802  19.345   1.604
55523W        W21932  16.343   2.486   0.790
55524W        W21933  30.086  30.098  12.638
55525W        W21934  41.888   8.211  12.059
55526W        W21935  18.710  27.172  13.757
55527W        W21936  25.640  41.768   3.647
55528W        W21937   8.265  28.430   2.204
55529W        W21938  23.659   7.749   1.730
55530W        W21939  19.702   4.275   3.324
55531W        W21940  11.307  18.549   0.657
55532W        W21941  39.137  25.953   4.747
55533W        W21942   0.822  26.660  12.830
55534W        W21943   4.419  25.454  14.485
55535W        W21944   2.347  26.689   4.180
55536W        W21945  23.979  32.168  14.859
55537W        W21946  22.612  10.326   3.846
55538W        W21947  26.897  36.357  11.155
55539W        W21948  18.030  33.509  10.661
55540W        W21949  14.210  40.337   3.402
55541W        W21950  32.648   1.860   0.169
55542W        W21951   2.548  44.502   1.257
55543W        W21952  20.784  38.651  13.357
55544W        W21953  13.959  26.008   2.373
55545W        W21954  27.822  10.397   4.971
55546W        W21955  41.494  42.344   0.221
55547W        W21956  13.646  15.638   1.398
55548W        W21957   0.722  19.245   0.756
55549W        W21958  28.446  12.869  11.209
55550W        W21959  38.510  41.460  14.477
55551W        W21960  19.074  22.771   3.232
55552W        W21961   6.451   9.220   0.035
55553W        W21962  10.377  20.781   2.402
55554W        W21963  20.781  19.139   3.747
55555W        W21964  30.648  38.151   1.735
55556W        W21965   4.061  10.403  12.879
55557W        W21966  26.820   3.998   4.043
55558W        W21967  10.450  36.524   3.772
55559W        W21968  42.892  33.046   2.601
55560W        W21969  21.881  19.309  11.895
55561W        W21970  42.626  18.103  13.386
55562W        W21971  36.237  13.154   4.535
55563W        W21972  16.395  41.061   2.894
55564W        W21973  19.488  16.643  11.542
55565W        W21974   0.183   9.977  13.393
55566W        W21975  41.991  39.439   4.728
55567W        W21976  10.807   2.791  14.958
55568W        W21977   0.605  26.407  12.420
55569W        W21978  32.926  18.105  10.527
55570W        W21979  18.816   7.867   2.880
55571W        W21980  20.785  33.865  10.791
55572W        W21981  34.767  31.782  13.002
55573W        W21982  11.403  11.844  12.014
55574W        W21983  31.939  18.754   0.989
55575W        W21984  42.262   6.895   1.212
55576W        W21985  26.666  11.149  11.553
55577W        W21986  15.516   9.460   1.488
55578W        W21987  40.920  44.267   2.285
55579W        W21988  28.664  10.712  14.022
55580W        W21989  29.356  27.049  11.233
55581W        W21990  22.247  27.043   3.570
55582W        W21991   0.600  17.237  10.026
55583W        W21992  21.761  12.732  11.822
55584W        W21993  10.660   2.869  14.073
55585W        W21994  13.405  29.477  12.246
55586W        W21995   2.896  34.442  12.689
55587W        W21996  27.554  36.933   4.245
55588W        W21997  39.513  31.149  14.887
55589W        W21998  28.650  22.825   3.204
55590W        W21999  14.385  27.918   1.738
55591W        W22000  40.029  25.674  13.164
55592W        W22001  15.005  10.064  13.264
55593W        W22002  42.907  32.085  13.590
55594W        W22003  43.765   4.218   0.482
55595W        W22004  12.848  20.652   4.863
55596W        W22005   7.835   0.176  10.137
55597W        W22006  39.529  42.588  13.393
55598W        W22007  42.832  37.070  14.949
55599W        W22008  40.943  26.075  12.355
55600W        W22009  37.093  44.694  14.084
55601W        W22010   4.240  40.564   4.613
55602W        W22011   1.954  41.085   1.825
55603W        W22012  27.783  38.484  13.440
55604W        W22013  44.320   7.158  13.859
55605W        W22014  30.214  29.982  12.156
55606W        W22015  20.746  34.577   0.746
55607W        W22016  35.660   6.096  10.903
55608W        W22017  14.183  37.040   1.952
55609W        W22018  25.999  15.810   3.380
55610W        W22019   1.816  38.536  10.791
55611W        W22020  24.081  11.745  11.625
55612W        W22021  44.740  11.853   0.825
55613W        W22022   8.819  20.478  12.422
55614W        W22023  38.554   3.042   2.265
55615W        W22024  25.130   7.956   2.809
55616W        W22025  12.105   7.692   2.460
55617W        W22026  16.081   0.404   4.162
55618W        W22027  23.763  44.087   0.617
55619W        W22028  28.287  38.452   1.891
55620W        W22029  34.327  11.186  12.493
55621W        W22030   1.369  40.451   2.340
55622W        W22031  24.224  21.175   3.175
55623W        W22032  23.680  34.055  13.825
55624W        W22033  40.580  40.383   2.817
55625W        W22034  34.640   1.425   2.443
55626W        W22035  38.229  21.059   1.915
55627W        W22036  31.978  44.712  12.082
55628W        W22037   9.906  41.268   0.225
55629W        W22038  39.500  42.655  10.800
55630W        W22039  16.849  28.852  11.973
55631W        W22040  33.163  23.211  13.172
55632W        W22041  15.688  16.538  14.199
55633W        W22042  39.663  17.263  11.916
55634W        W22043  21.288  44.095   4.098
55635W        W22044  12.319   8.847  11.122
55636W        W22045  42.976  13.058  12.171
55637W        W22046  28.908  11.698   4.135
55638W        W22047  31.082  37.334  14.677
55639W        W22048  41.931   6.737  14.303
55640W        W22049  12.400  14.952  10.660
55641W        W22050  31.600  28.424   4.706
55642W        W22051  41.907   1.756  13.796
55643W        W22052  40.318   0.823  11.313
55644W        W22053  37.860  40.726  10.597
55645W        W22054  39.548  17.517   0.468
55646W        W22055   5.779   5.516  13.068
55647W        W22056  44.513   2.769   2.611
55648W        W22057  25.595   2.487  13.446
55649W        W22058  17.279  40.296   3.086
55650W        W22059  37.109   1.593   1.969
55651W        W22060  24.150  25.313   4.580
55652W        W22061  42.642  18.129   2.138
55653W        W22062  20.064   6.755   4.610
55654W        W22063  26.678   0.798  13.997
55655W        W22064  10.760  40.252   4.025
55656W        W22065   9.846   1.238  12.378
55657W        W22066   7.846  21.506  11.842
55658W        W22067  38.396  38.819   1.807
55659W        W22068  44.958  17.801   0.303
55660W        W22069  34.529   0.018   1.462
55661W        W22070  17.219  14.542  10.629
55662W        W22071  35.885  31.391   2.239
55663W        W22072  30.971  17.611   2.940
55664W        W22073  20.378   5.867  10.760
55665W        W22074   5.869  26.528   1.716
55666W        W22075  28.049  20.665  12.368
55667W        W22076  16.593  30.592  14.802
55668W        W22077  44.789  13.723  11.578
55669W        W22078  17.017  17.432  12.438
55670W        W22079  36.980  42.297  11.760
55671W        W22080  32.339  15.278  10.365
55672W        W22081   0.405  30.250  14.019
55673W        W22082  27.274   0.180  10.605
55674W        W22083  32.656  12.058   4.203
55675W        W22084  23.722   7.853   0.745
55676W        W22085  33.486  43.329   3.362
55677W        W22086  37.435  11.244   0.798
55678W        W22087  28.899  34.271   4.309
55679W        W22088   9.558   3.327   0.937
55680W        W22089   2.699   9.022  12.413
55681W        W22090  32.963  16.177  10.667
55682W        W22091  13.319  31.910   4.562
55683W        W22092   1.626  24.972  12.880
55684W        W22093   2.877  38.047  12.057
55685W        W22094  11.224  25.511   0.391
55686W        W22095  17.740  16.065   0.449
55687W        W22096  37.771  43.165  12.966
55688W        W22097   6.268  28.935  11.547
55689W        W22098  34.911  17.058  12.887
55690W        W22099   5.781   7.791  14.190
55691W        W22100  31.536  25.147   2.371
55692W        W22101   6.892   0.896   1.227
55693W        W22102  17.603  34.102   1.368
55694W        W22103  14.687   3.168  11.084
55695W        W22104  43.862  38.263  13.800
55696W        W22105  19.776  34.467  12.583
55697W        W22106  34.070   2.943   1.348
55698W        W22107  34.910  22.534   4.495
55699W        W22108  10.921  44.775   3.416
55700W        W22109  32.070  38.743  13.504
55701W        W22110  11.452   7.183   3.599
55702W        W22111  38.316   1.710   0.295
55703W        W22112  21.738   8.144   4.643
55704W        W22113  20.123  19.364   3.251
55705W        W22114  26.741  15.670   2.642
55706W        W22115  40.055  33.384   0.643
55707W        W22116   0.702  36.941  11.444
55708W        W22117  18.864   6.133   3.424
55709W        W22118  12.384  39.030   0.602
55710W        W22119  34.988  10.728   0.897
55711W        W22120  39.323   0.370   3.489
55712W        W22121  19.373  30.891  12.527
55713W        W22122  40.245  32.120  11.093
55714W        W22123   5.842  31.476  11.518
55715W        W22124  13.603  39.341   4.650
55716W        W22125  21.641   9.728  14.456
55717W        W22126   5.505   0.330   3.211
55718W        W22127   5.668  43.901   4.472
55719W        W22128  23.064   7.157  13.399
55720W        W22129  20.888  30.170   3.253
55721W        W22130   2.906   1.901  10.866
55722W        W22131   7.369  14.824   3.727
55723W        W22132   5.759   4.538  10.728
55724W        W22133  42.836  23.771   4.236
55725W        W22134  22.799   4.569   2.357
55726W        W22135  14.337  25.722   2.621
55727W        W22136  30.649   9.331  11.198
55728W        W22137  43.420  29.651  14.700
55729W        W22138  28.729  23.127   4.204
55730W        W22139  37.598  28.373   0.880
55731W        W22140   8.103  40.201   0.321
55732W        W22141  27.424  26.059  14.417
55733W        W22142  20.504  28.405  10.732
55734W        W22143  33.109   3.767   1.851
55735W        W22144  23.169  30.941   0.272
55736W        W22145  26.235  16.091  14.826
55737W        W22146  13.208  18.395  14.297
55738W        W22147  35.544  27.712   4.099
55739W        W22148  21.021   5.712   2.173
55740W        W22149   5.433  42.749   2.426
55741W        W22150  34.056  31.665   4.427
55742W        W22151  19.158  25.413   2.269
55743W        W22152  43.184  33.301   3.806
55744W        W22153   0.826  41.798   0.537
55745W        W22154   5.360  16.902  12.580
55746W        W22155  19.342  30.506  10.782
55747W        W22156  10.508   2.361   0.008
55748W        W22157   3.472  19.695  11.666
55749W        W22158  38.208  40.369  12.059
55750W        W22159  24.213  26.087  13.363
55751W        W22160  12.878  39.445  14.086
55752W        W22161  22.093  18.296   2.858
55753W        W22162  33.442   1.992  10.653
55754W        W22163  43.169   5.553   4.952
55755W        W22164  14.357   5.164   0.319
55756W        W22165  14.744  37.799  11.581
55757W        W22166  39.543   0.828   3.664
55758W        W22167  35.847  36.547  12.970
55759W        W22168  29.851   1.324   2.697
55760W        W22169  25.984  39.727  14.059
55761W        W22170  13.283  34.424   0.855
55762W        W22171   7.490  23.927  14.369
55763W        W22172   0.406  25.735   0.240
55764W        W22173  29.239  37.295   3.265
55765W        W22174  30.191  21.302   4.068
55766W        W22175   8.193   0.182   4.267
55767W        W22176  31.137  37.432   1.134
55768W        W22177   8.315  44.814  13.600
55769W        W22178  25.426   5.323  11.889
55770W        W22179  35.220  26.587   0.455
55771W        W22180  44.842  32.957  13.915
55772W        W22181  25.639   0.869   3.730
55773W        W22182  42.512  23.181  12.367
55774W        W22183  44.859   7.852   4.536
55775W        W22184  17.352  31.321  11.116
55776W        W22185  12.163  19.545  11.028
55777W        W22186  26.333  33.932  10.459
55778W        W22187  35.124  24.238  11.548
55779W        W22188   9.966  26.011  13.993
55780W        W22189   6.264  13.816  14.306
55781W        W22190  32.809   6.899   3.185
55782W        W22191  21.093  40.069   3.727
55783W        W22192  31.793   4.733   1.337
55784W        W22193   6.119  40.122  12.389
55785W        W22194   9.196   1.407  11.188
55786W        W22195  37.797  43.894   1.746
55787W        W22196  44.770  18.114   3.679
55788W        W22197  11.946  28.565   0.753
55789W        W22198   3.034  41.320   1.713
55790W        W22199  31.188  10.260  12.495
55791W        W22200  38.962   5.788   3.446
55792W        W22201  41.896  18.474   1.143
55793W        W22202   4.343  17.763   4.770
55794W        W22203  37.466  42.806   2.876
55795W        W22204  44.549   0.564  10.776
55796W        W22205  18.077   5.407  10.589
55797W        W22206   5.617  28.592  10.173
55798W        W22207  35.314  27.111   1.472
55799W        W22208   3.605   2.974  14.067
55800W        W22209  43.220  18.002  14.804
55801W        W22210   9.361   4.688   3.206
55802W        W22211  34.836  13.754   3.233
55803W        W22212  27.630  10.926  12.897
55804W        W22213  25.500  19.504   0.743
55805W        W22214   6.884  16.876  11.021
55806W        W22215  16.717   9.656   0.324
55807W        W22216  18.823  41.055   3.179
55808W        W22217  33.947   7.264   2.901
55809W        W22218  44.819   2.304   1.905
55810W        W22219   5.497   3.987   2.857
55811W        W22220  24.972  12.639  10.643
55812W        W22221  25.161  26.179   3.595
55813W        W22222  40.937  43.686   4.906
55814W        W22223  34.937  17.133   0.315
55815W        W22224  28.685  12.141  12.905
55816W        W22225   8.303  16.746   0.786
55817W        W22226  17.859  25.985   2.114
55818W        W22227  41.038  20.655  14.945
55819W        W22228   4.735  40.809   0.839
55820W        W22229  43.833  18.632  10.705
55821W        W22230   1.821   4.189  12.961
55822W        W22231  24.897  11.179  13.469
55823W        W22232  18.234  18.015   0.704
55824W        W22233  37.336  38.816   0.821
55825W        W22234  10.734  30.779  10.248
55826W        W22235  42.410  41.649  10.952
55827W        W22236  20.828  32.483   4.843
55828W        W22237   2.520  15.871  13.362
55829W        W22238  10.504  31.902   5.186
55830W        W22239  39.093  28.945  10.662
55831W        W22240  22.920  41.026  13.767
55832W        W22241  11.997  19.152  13.524
55833W        W22242  28.954  18.532  11.567
55834W        W22243  42.792  22.515  14.310
55835W        W22244  23.398  37.459   1.206
55836W        W22245  13.129  18.093  11.354
55837W        W22246  37.404  42.637   2.376
55838W        W22247  26.024  32.788  12.498
55839W        W22248  34.249  38.749  10.065
55840W        W22249  10.100   3.552   4.435
55841W        W22250   8.331   7.238  11.935
55842W        W22251  36.974   9.408  14.989
55843W        W22252  34.190  18.650  12.101
55844W        W22253  21.368  22.625   4.432
55845W        W22254  15.634  17.756   2.351
55846W        W22255  41.348  22.698  11.493
55847W        W22256  36.031  10.825  11.570
55848W        W22257  17.813  11.069  11.198
55849W        W22258  26.883  24.422  13.353
55850W        W22259  20.720   4.723  12.932
55851W        W22260   9.360  30.526   4.479
55852W        W22261  43.453  44.892  10.647
55853W        W22262  26.776   5.833   0.466
55854W        W22263   4.958   8.584   0.392
55855W        W22264  24.422   3.302  11.145
55856W        W22265  29.174  19.119   2.375
55857W        W22266   3.891  26.596   2.775
55858W        W22267  35.085   6.153  12.836
55859W        W22268  16.171  14.526  12.732
55860W        W22269  39.392   5.503  10.701
55861W        W22270  32.519   7.381  13.454
55862W        W22271  22.095  24.644   4.900
55863W        W22272  35.829  11.321   5.036
55864W        W22273  12.903  31.088   4.480
55865W        W22274   5.009   3.814   2.775
55866W        W22275  43.223   4.785   1.200
55867W        W22276  34.609  43.599   4.783
55868W        W22277   4.578  41.667   3.587
55869W        W22278   3.822  39.298  14.078
55870W        W22279  28.689  44.397  10.783
55871W        W22280   7.637  17.753  12.334
55872W        W22281  33.931  16.025  14.814
55873W        W22282  14.501   9.985   9.982
55874W        W22283  38.381  31.788  10.868
55875W        W22284  13.697  42.581  12.522
55876W        W22285  43.540  33.580   2.927
55877W        W22286   3.371   5.360   1.875
55878W        W22287  19.693  22.634  10.676
55879W        W22288  12.793  41.002   2.703
55880W        W22289   2.291  20.191   0.275
55881W        W22290   2.748  38.661  11.566
55882W        W22291  18.252  32.987   1.319
55883W        W22292  21.227  37.814  12.057
55884W        W22293  13.364  16.442   3.891
55885W        W22294   9.645  44.381   3.748
55886W        W22295  41.733  36.128   3.409
55887W        W22296  25.774  10.821   1.744
55888W        W22297  23.861  21.609   2.888
55889W        W22298  12.359  29.328  12.920
55890W        W22299  38.773   3.927  12.017
55891W        W22300  27.396  30.482   1.660
55892W        W22301  29.930  25.459   1.295
55893W        W22302  10.820  44.074  14.053
55894W        W22303  12.269  26.085   4.436
55895W        W22304  36.402  27.877   3.772
55896W        W22305  12.838  35.557  11.849
55897W        W22306  31.386  16.728  10.785
55898W        W22307  36.560  42.726  13.660
55899W        W22308  19.153   2.494   4.583
55900W        W22309  26.452   4.771  13.580
55901W        W22310  38.210  43.453  10.467
55902W        W22311   7.463   2.770  11.632
55903W        W22312  31.596  37.580   3.814
55904W        W22313  35.859  26.179   0.044
55905W        W22314   6.743   7.749   0.922
55906W        W22315  36.802   7.888  11.557
55907W        W22316  31.614  28.293  14.824
55908W        W22317  18.691   8.083  11.487
55909W        W22318  40.904  20.579  10.464
55910W        W22319  25.175  22.968  14.926
55911W        W22320  23.725   7.136  14.444
55912W        W22321   2.412   2.635  13.420
55913W        W22322  21.333  24.008   2.816
55914W        W22323  16.587   2.715  13.798
55915W        W22324   2.942  21.022  10.682
55916W        W22325  15.565  22.858  10.250
55917W        W22326  33.120  28.647  11.365
55918W        W22327  42.553  29.724   2.874
55919W        W22328  12.572   4.839   1.362
55920W        W22329   5.284   5.709   2.334
55921W        W22330  33.079  39.553   0.261
55922W        W22331   6.345  32.635  14.417
55923W        W22332   1.305  11.146   3.205
55924W        W22333   9.266   9.337  14.219
55925W        W22334  12.543   5.208  13.938
55926W        W22335  38.362   9.741  14.811
55927W        W22336  21.715  32.959   0.709
55928W        W22337   0.847  40.318   3.218
55929W        W22338  18.052  22.699   1.170
55930W        W22339  27.635  37.368   3.626
55931W        W22340  17.286  31.962  11.620
55932W        W22341   8.286   5.873   2.861
55933W        W22342   6.316  35.090  12.232
55934W        W22343   2.888  25.415  14.163
55935W        W22344  41.118  11.915   4.514
55936W        W22345   1.404  12.153  12.343
55937W        W22346   9.171  40.883   4.062
55938W        W22347   5.912  29.973   0.251
55939W        W22348   8.421   5.463  11.597
55940W        W22349  38.979  40.406  11.030
55941W        W22350   7.132  30.492  12.514
55942W        W22351  36.164   4.803   4.610
55943W        W22352  18.549  22.470  11.345
55944W        W22353  29.403   4.245  11.788
55945W        W22354  41.053  39.105   2.157
55946W        W22355  31.821   8.528  11.685
55947W        W22356  10.402  20.411  11.534
55948W        W22357   1.377  15.674   4.832
55949W        W22358  37.077  30.942  13.041
55950W        W22359  42.192  42.180   3.316
55951W        W22360  22.677  37.681  14.425
55952W        W22361  40.838   1.724  10.637
55953W        W22362  36.634  30.802  13.306
55954W        W22363   7.864  27.654  11.275
55955W        W22364  16.061  30.599  14.835
55956W        W22365  28.052  14.276  12.134
55957W        W22366   7.302   8.657  12.172
55958W        W22367  10.695  31.101   2.740
55959W        W22368   1.218   2.437  13.738
55960W        W22369   8.186  31.440   4.525
55961W        W22370  26.676  27.063  13.006
55962W        W22371  31.902  33.078  14.258
55963W        W22372  13.657  36.691   3.740
55964W        W22373  33.469  24.272  14.183
55965W        W22374  23.165  15.104   2.791
55966W        W22375  30.004  29.565   3.203
55967W        W22376   7.997  29.651   2.614
55968W        W22377  42.566  39.238   1.745
55969W        W22378  39.213  28.020  12.118
55970W        W22379  38.557  15.612  11.990
55971W        W22380  42.258  36.114   0.992
55972W        W22381  34.418  39.147  13.009
55973W        W22382  29.941  23.335  12.821
55974W        W22383  30.673  14.086   1.805
55975W        W22384   1.670   8.517  14.377
55976W        W22385   3.803  41.263  11.503
55977W        W22386  22.683  15.520   1.317
55978W        W22387  26.296  29.825   5.056
55979W        W22388  19.259  25.115  11.518
55980W        W22389  44.968  40.211  13.278
55981W        W22390  33.460  30.902  13.084
55982W        W22391   7.438  28.226   2.745
55983W        W22392  11.109  41.966   4.138
55984W        W22393  11.266  14.780  12.112
55985W        W22394   0.218  17.804   4.597
55986W        W22395  19.487   7.744   0.748
55987W        W22396   2.105  30.076  14.760
55988W        W22397  18.081   8.256  13.877
55989W        W22398  29.961  25.266   2.259
55990W        W22399  26.985  19.549  13.803
55991W        W22400  33.565  44.846   1.719
55992W        W22401  38.050  23.991  12.500
55993W        W22402  37.749  10.517   0.191
55994W        W22403  29.744  30.090  14.422
55995W        W22404   6.744  44.949  13.459
55996W        W22405  16.725  25.959  11.567
55997W        W22406  28.183   8.644  12.867
55998W        W22407  15.777  19.978  14.736
55999W        W22408   3.814  15.620  14.028
56000W        W22409  35.517  31.520  14.743
56001W        W22410   3.519   4.206  14.952
56002W        W22411  20.126  38.236  11.863
56003W        W22412  22.423  16.773  13.926
56004W        W22413  19.574  31.930   0.230
56005W        W22414  37.022  36.079  11.233
56006W        W22415  42.411   4.034   0.355
56007W        W22416  24.092   3.220   2.895
56008W        W22417  36.861   0.210  11.575
56009W        W22418  31.502  13.241   4.933
56010W        W22419  18.786  13.319  13.019
56011W        W22420  19.106  40.263   2.185
56012W        W22421  22.055  28.073  13.858
56013W        W22422   4.912   9.868   4.676
56014W        W22423  42.293  40.065  14.246
56015W        W22424  27.894  32.767   2.008
56016W        W22425  24.591  42.648  14.366
56017W        W22426  34.020  38.448  14.405
56018W        W22427  40.089  38.081  10.833
56019W        W22428  42.061  20.887  14.242
56020W        W22429  11.724  36.733  11.813
56021W        W22430  27.968  28.038  10.659
56022W        W22431   0.769   9.189   0.705
56023W        W22432  44.475   4.170   2.366
56024W        W22433  32.700   7.834   1.459
56025W        W22434  36.408  25.444   2.232
56026W        W22435  34.616  33.216  14.957
56027W        W22436  27.675  34.030   2.451
56028W        W22437   3.818  10.171   4.534
56029W        W22438  36.655  29.701   2.434
56030W        W22439   3.864  27.071  13.565
56031W        W22440   5.892  12.078   0.197
56032W        W22441  34.103   9.851  13.203
56033W        W22442  22.675  39.937   3.353
56034W        W22443   9.117  24.483  13.924
56035W        W22444  19.041  23.879  10.398
56036W        W22445  15.152  16.836   3.340
56037W        W22446  25.015  27.930   4.213
56038W        W22447  30.919  11.118  13.964
56039W        W22448  13.867  41.241  12.074
56040W        W22449  38.069   9.767  12.894
56041W        W22450  36.391   3.830  11.575
56042W        W22451  44.876  16.736   3.722
56043W        W22452   0.144   6.176   9.828
56044W        W22453  44.601  10.553  12.463
56045W        W22454  37.422  26.115   0.205
56046W        W22455  26.757  16.760   3.586
56047W        W22456  31.155   1.278  10.651
56048W        W22457  30.911  24.483   3.122
56049W        W22458  23.499  36.681  13.575
56050W        W22459   4.482   4.326   3.644
56051W        W22460  43.186   5.754   3.077
56052W        W22461   2.687  33.824   4.339
56053W        W22462   1.562  40.814   1.641
56054W        W22463  32.576  39.567   1.430
56055W        W22464  11.419  43.166   9.675
56056W        W22465  34.160   6.182  11.447
56057W        W22466  23.567   5.318   4.564
56058W        W22467  27.183  21.051   1.835
56059W        W22468  26.989  15.158  14.174
56060W        W22469   1.586  16.043   0.675
56061W        W22470  36.033   2.787   0.485
56062W        W22471   3.236  21.593  11.432
56063W        W22472   7.265   6.843  14.549
56064W        W22473  26.681  18.008  14.452
56065W        W22474  10.008  43.217   1.773
56066W        W22475   7.911   3.511   1.996
56067W        W22476   4.460  42.867  14.446
56068W        W22477  25.726  18.633   0.280
56069W        W22478  20.669  39.167  13.279
56070W        W22479  25.611  16.600   0.468
56071W        W22480  12.365  24.709   2.329
56072W        W22481   7.632   3.256  10.629
56073W        W22482  12.545  34.010   1.787
56074W        W22483  15.250  23.791   2.197
56075W        W22484  43.308  18.719   1.793
56076W        W22485  35.579  39.187  13.488
56077W        W22486  29.120  26.341  10.784
56078W        W22487  28.638   2.441   1.429
56079W        W22488   3.617  41.518  14.374
56080W        W22489  18.518  36.700   1.359
56081W        W22490  30.484  26.758   5.046
56082W        W22491  44.541  40.267   3.711
56083W        W22492  34.355  27.461  13.761
56084W        W22493  34.770  42.581   2.702
56085W        W22494  37.917  22.528   2.621
56086W        W22495  29.245  35.308   3.213
56087W        W22496  36.659  17.191   0.408
56088W        W22497  18.305  26.980   4.842
56089W        W22498   5.339  24.692  11.883
56090W        W22499  40.551  41.975  12.931
56091W        W22500  16.654  25.452   3.679
56092W        W22501  16.732  41.838  11.199
56093W        W22502  37.765  42.070   3.263
56094W        W22503  41.520   3.535   4.226
56095W        W22504  10.364  10.180   1.260
56096W        W22505   2.489   8.223   4.186
56097W        W22506  11.596   1.164   4.390
56098W        W22507   1.388  38.607   2.876
56099W        W22508  13.274   1.764   3.652
56100W        W22509  14.277  20.713   0.776
56101W        W22510  10.691  37.350  11.127
56102W        W22511  43.835   5.313  13.571
56103W        W22512  18.953  19.199  14.265
56104W        W22513   6.898  14.296   1.276
56105W        W22514  31.162  11.948   1.695
56106W        W22515  25.621   9.413  14.285
56107W        W22516   6.871  17.639  13.994
56108W        W22517  12.122  17.155  11.452
56109W        W22518   6.471  20.722   0.488
56110W        W22519  19.986   8.304  11.054
56111W        W22520  28.246  12.799  13.930
56112W        W22521  23.973  27.518  14.555
56113W        W22522  21.044  29.084   1.436
56114W        W22523  37.914  36.303  10.430
56115W        W22524   7.397  27.167  10.127
56116W        W22525  39.108  30.022   4.278
56117W        W22526   1.449  34.016  10.811
56118W        W22527  43.909  10.937   5.285
56119W        W22528   0.449  35.770  12.943
56120W        W22529   2.416  26.682  14.346
56121W        W22530  42.932  21.134   1.867
56122W        W22531   7.436  39.023   3.324
56123W        W22532   7.911   2.020   0.992
56124W        W22533  40.034   0.141   3.095
56125W        W22534  44.053  31.312   4.494
56126W        W22535  35.549  34.126  10.515
56127W        W22536  38.421   5.937  11.120
56128W        W22537   1.525  39.897  14.847
56129W        W22538   8.954  28.192  13.462
56130W        W22539  14.690  26.409   2.581
56131W        W22540  36.927  18.578   1.346
56132W        W22541  43.943   4.414   0.978
56133W        W22542  18.492  31.520   3.778
56134W        W22543  40.110  44.395   9.960
56135W        W22544  30.381  36.157  14.525
56136W        W22545   0.892  14.378  13.387
56137W        W22546  34.130  32.812  11.726
56138W        W22547  28.413  14.363   2.379
56139W        W22548  41.855   5.345  14.730
56140W        W22549  44.115  42.533  12.487
56141W        W22550   3.135  17.567   3.628
56142W        W22551   9.232   6.863   1.705
56143W        W22552   6.704  31.844  13.501
56144W        W22553  37.527  10.712   3.236
56145W        W22554  33.121  28.021   3.519
56146W        W22555  21.850  30.072  12.539
56147W        W22556  12.076  44.019   0.924
56148W        W22557  36.557  23.790  13.943
56149W        W22558  10.872  42.922   3.816
56150W        W22559  19.675  18.904   1.771
56151W        W22560  25.216   0.774   1.374
56152W        W22561  43.014  43.050   0.544
56153W        W22562  16.142  41.447   9.684
56154W        W22563  33.705   8.408   1.793
56155W        W22564   2.414  43.557   4.593
56156W        W22565  30.231  15.813  10.656
56157W        W22566  33.605  11.219   3.223
56158W        W22567  18.262   6.893  13.891
56159W        W22568   5.792  29.575  11.056
56160W        W22569  22.663  35.154   4.142
56161W        W22570  32.469  16.146  10.451
56162W        W22571   2.722  22.054  12.514
56163W        W22572   5.005  26.122   0.822
56164W        W22573   4.221  16.049  12.357
56165W        W22574   7.135  25.655   4.521
56166W        W22575  31.859  20.348   3.805
56167W        W22576   7.662  26.917   3.162
56168W        W22577  26.046  18.018   2.147
56169W        W22578   7.675  24.556  12.858
56170W        W22579  39.263  43.075   3.626
56171W        W22580  10.697  28.600   3.822
56172W        W22581  27.379   5.683   2.740
56173W        W22582  15.542  35.933  14.872
56174W        W22583  27.074   9.715  12.941
56175W        W22584  34.459  40.107   1.024
56176W        W22585   9.633   3.890  10.741
56177W        W22586  30.173  41.817  14.745
56178W        W22587  17.167  42.789   1.698
56179W        W22588   5.539  38.260   4.110
56180W        W22589  40.288  22.575  11.468
56181W        W22590  32.924   4.463   1.751
56182W        W22591  38.555   1.235   0.402
56183W        W22592  18.799   1.921   1.334
56184W        W22593  35.090   7.272  12.867
56185W        W22594  39.655   1.286  12.990
56186W        W22595   1.061  27.261  14.870
56187W        W22596  43.027  41.847  12.156
56188W        W22597  30.844  16.686   4.689
56189W        W22598   8.120  20.313   3.386
56190W        W22599   0.833  23.094  13.019
56191W        W22600  11.885  41.361  10.409
56192W        W22601   6.316  21.224   2.746
56193W        W22602   1.430   4.804   4.766
56194W        W22603  42.087  30.455   3.326
56195W        W22604  27.535  43.607  12.441
56196W        W22605  41.548  16.164   4.608
56197W        W22606   1.390   5.239   2.782
56198W        W22607  36.830  41.249   2.208
56199W        W22608  19.097  13.711  13.284
56200W        W22609  38.372  10.534  11.910
56201W        W22610  30.030  23.110  13.261
56202W        W22611   6.663   4.242   2.226
56203W        W22612  34.805  24.715  10.665
56204W        W22613  15.573   2.464   5.043
56205W        W22614  44.237   5.996  11.104
56206W        W22615   0.852  42.983   1.484
56207W        W22616   0.912  13.215  11.613
56208W        W22617   1.540  32.090  10.740
56209W        W22618  22.592   8.615  14.348
56210W        W22619  27.248  34.583   3.688
56211W        W22620  31.823  19.518  14.757
56212W        W22621  31.043  24.290  12.059
56213W        W22622   1.695  17.780  12.116
56214W        W22623  33.562  19.938   4.155
56215W        W22624  21.370  41.428   4.190
56216W        W22625  21.871  16.194  13.044
56217W        W22626  26.544   2.614   0.302
56218W        W22627  43.879  39.325  11.555
56219W        W22628  10.662  42.973   4.835
56220W        W22629  15.093   9.586   1.209
56221W        W22630  35.122   5.182  12.412
56222W        W22631  25.577  32.882   4.970
56223W        W22632  43.377  12.219   9.947
56224W        W22633  30.388  18.685   2.829
56225W        W22634   3.865  22.214   3.841
56226W        W22635  39.047  29.771   3.465
56227W        W22636  12.840   6.835   3.656
56228W        W22637  33.410   9.873  13.923
56229W        W22638  21.584  38.190  14.356
56230W        W22639  42.520  19.151   0.040
56231W        W22640   7.819  34.566  11.156
56232W        W22641  42.297   7.353   3.297
56233W        W22642  44.242   2.762   2.189
56234W        W22643  39.544  17.992  12.426
56235W        W22644  41.836  27.560   4.518
56236W        W22645  35.411  23.068  11.170
56237W        W22646  32.922   4.580   4.250
56238W        W22647   4.885   4.303   1.875
56239W        W22648   0.554   8.723   0.970
56240W        W22649  42.677  16.582  12.551
56241W        W22650  32.952   4.749   2.301
56242W        W22651  37.530  16.633   0.380
56243W        W22652  21.755   3.727  12.180
56244W        W22653   7.299  16.548   3.189
56245W        W22654  14.988   2.993   1.265
56246W        W22655  27.725  17.315   2.818
56247W        W22656  22.089  23.928  10.243
56248W        W22657  24.585  10.082  12.524
56249W        W22658   1.731   8.448   3.834
56250W        W22659  28.388  35.272  12.906
56251W        W22660   7.603  34.867  13.859
56252W        W22661  44.534  17.585   0.466
56253W        W22662  20.045  18.452  13.093
56254W        W22663  19.560  11.329  14.979
56255W        W22664  24.105  13.375  10.790
56256W        W22665  26.805  24.768   2.823
56257W        W22666  23.204  35.045  13.003
56258W        W22667  13.603  35.950  14.565
56259W        W22668   6.841   8.146   1.835
56260W        W22669  44.285  38.561   3.252
56261W        W22670  42.218   3.647   1.254
56262W        W22671  23.205  22.587  14.384
56263W        W22672   9.751  12.353   2.588
56264W        W22673  37.409  11.900   2.782
56265W        W22674  26.381  36.428  11.131
56266W        W22675   4.382   8.799   3.184
56267W        W22676   8.233  37.134  14.076
56268W        W22677  15.193  16.267  12.851
56269W        W22678  28.972  44.396  14.555
56270W        W22679   5.916  41.779  11.059
56271W        W22680  35.339  19.188   3.963
56272W        W22681  10.012  39.469   0.205
56273W        W22682  38.426   0.160   3.687
56274W        W22683   7.691  13.217  11.444
56275W        W22684  44.558   1.953  10.803
56276W        W22685  23.857  35.000   1.981
56277W        W22686  12.778   3.370   2.809
56278W        W22687   1.776   6.656   2.867
56279W        W22688  12.694  20.163   4.509
56280W        W22689  26.388  34.347  10.864
56281W        W22690  29.798  41.391  10.325
56282W        W22691  26.660  36.855   3.803
56283W        W22692   6.684  16.922  13.013
56284W        W22693  33.856  12.811  14.425
56285W        W22694  30.565   9.080  13.385
56286W        W22695  24.375  28.919  13.581
56287W        W22696   4.275  22.782  14.159
56288W        W22697  37.433  19.897   0.528
56289W        W22698   3.556  38.582  11.946
56290W        W22699  11.679  14.091   0.422
56291W        W22700  28.981   4.325   0.283
56292W        W22701   4.404  30.852  11.253
56293W        W22702  12.334  38.985   0.081
56294W        W22703  24.043  19.166  13.531
56295W        W22704  11.358  23.026   2.844
56296W        W22705  36.061  32.614  11.110
56297W        W22706  14.563  22.687  13.772
56298W        W22707  20.481  17.019   4.200
56299W        W22708  37.056   1.400   1.371
56300W        W22709  37.836  24.023   9.776
56301W        W22710  16.270  15.042  10.640
56302W        W22711  16.143  19.259  14.539
56303W        W22712  34.383  25.982   3.116
56304W        W22713  17.180  30.746   1.277
56305W        W22714  16.848  15.857  14.895
56306W        W22715  28.383  38.445   2.819
56307W        W22716  30.518  35.470   1.308
56308W        W22717  19.792  30.729  10.762
56309W        W22718   4.323  10.317  11.943
56310W        W22719  12.785  25.392  14.045
56311W        W22720  42.438  35.876   2.832
56312W        W22721  21.317  31.530  14.755
56313W        W22722   9.903  35.983   0.823
56314W        W22723   5.808   6.382  13.572
56315W        W22724  21.610  40.065   0.010
56316W        W22725  40.376  33.531   4.337
56317W        W22726  36.358   0.052   2.734
56318W        W22727  19.771  35.554   4.298
56319W        W22728   7.249  18.803   2.696
56320W        W22729  18.341  13.144  14.006
56321W        W22730   5.816   9.218   3.315
56322W        W22731  28.955  41.296  14.498
56323W        W22732   8.994  26.556   0.250
56324W        W22733   9.744  13.605  10.997
56325W        W22734  38.887  13.045  11.597
56326W        W22735  29.668   2.069   3.282
56327W        W22736   7.770   1.418  11.505
56328W        W22737  34.654  20.091   2.247
56329W        W22738  39.806  21.981   0.760
56330W        W22739  10.383  25.705  14.949
56331W        W22740  21.025  30.692   0.361
56332W        W22741  26.426  38.869   3.585
56333W        W22742  35.121  31.419  13.100
56334W        W22743  15.291  42.071   0.141
56335W        W22744  24.569  37.044  10.966
56336W        W22745   5.912  22.111   4.194
56337W        W22746   7.582  38.273  11.762
56338W        W22747  20.653  10.604  14.995
56339W        W22748   2.656  40.210  12.983
56340W        W22749  27.051  36.575  14.532
56341W        W22750  33.962   6.452  14.326
56342W        W22751  34.878  26.950   4.139
56343W        W22752   8.151  27.164   3.854
56344W        W22753   2.681  38.545  14.305
56345W        W22754  24.796   3.789   0.257
56346W        W22755   5.344   2.719   3.309
56347W        W22756  37.732  17.773  13.522
56348W        W22757  15.559  36.521   4.527
56349W        W22758   1.760  12.155  11.821
56350W        W22759  16.340   8.446   2.787
56351W        W22760  16.649   9.378  13.809
56352W        W22761   4.252  17.561   2.776
56353W        W22762  24.040  27.970  13.155
56354W        W22763  23.664  19.779   1.287
56355W        W22764  43.502   6.670  11.125
56356W        W22765  33.537  43.937   3.151
56357W        W22766  35.557   0.396  11.542
56358W        W22767  22.710  11.357   1.856
56359W        W22768  40.299   4.602  12.976
56360W        W22769   0.357   2.822  12.328
56361W        W22770  15.683  13.521  14.361
56362W        W22771   9.605  19.121  10.758
56363W        W22772  24.805   7.679  12.448
56364W        W22773  32.965   0.689   5.305
56365W        W22774  29.387  29.547  13.628
56366W        W22775  20.237   8.306  14.845
56367W        W22776  13.186  38.492   4.400
56368W        W22777  15.923  41.328  14.312
56369W        W22778  12.020  12.454  12.362
56370W        W22779  33.386  42.741  13.859
56371W        W22780   1.413  44.704   4.992
56372W        W22781  27.571  36.769  10.692
56373W        W22782   2.750  38.146  11.562
56374W        W22783  29.647  23.786   1.839
56375W        W22784  22.616  13.278  12.105
56376W        W22785  26.159  10.516  10.710
56377W        W22786  38.267  29.862   2.859
56378W        W22787  36.948   4.346   4.718
56379W        W22788   1.851  40.518   3.281
56380W        W22789  14.082  14.272  10.994
56381W        W22790   9.256  18.780   0.851
56382W        W22791  21.525  37.155  14.341
56383W        W22792  42.732   2.238   1.898
56384W        W22793  13.979   6.163   5.028
56385W        W22794  38.159  30.200   3.226
56386W        W22795  13.756  36.437  12.383
56387W        W22796  27.390   5.766  14.142
56388W        W22797  30.770  38.092  14.956
56389W        W22798  20.626  38.127  14.366
56390W        W22799  14.685  25.001  14.850
56391W        W22800  13.725  28.936   4.584
56392W        W22801  13.758  12.835   2.218
56393W        W22802  38.311  30.114  10.117
56394W        W22803  22.699  42.180  14.906
56395W        W22804   8.639  39.431   1.046
56396W        W22805  14.865  21.135  11.640
56397W        W22806   2.637  30.539  12.588
56398W        W22807   3.683  44.344   3.863
56399W        W22808  39.323  37.048   0.404
56400W        W22809  27.605   9.342   9.728
56401W        W22810  19.609   5.404   1.795
56402W        W22811  32.917  18.291   4.419
56403W        W22812  30.090  10.277   3.852
56404W        W22813  16.361   2.197   1.217
56405W        W22814  14.671  44.379   3.202
56406W        W22815  28.581   8.914  11.634
56407W        W22816  25.416  18.740  12.771
56408W        W22817  43.746  24.639   2.112
56409W        W22818  15.780  10.902   3.273
56410W        W22819  12.579  28.003   1.230
56411W        W22820  29.937  30.051   1.462
56412W        W22821  23.058  26.660   4.708
56413W        W22822   3.505  14.840  14.153
56414W        W22823  11.358  32.418  14.776
56415W        W22824  13.940  15.586   5.031
56416W        W22825   1.812  16.202  10.808
56417W        W22826  21.910  20.071  14.465
56418W        W22827  40.809  26.214   4.092
56419W        W22828  31.545   2.774   0.235
56420W        W22829  41.756  37.447  14.356
56421W        W22830  23.632  42.438  14.913
56422W        W22831  25.200  11.357  13.036
56423W        W22832  41.044  35.592   3.197
56424W        W22833  18.646  19.220  11.169
56425W        W22834  27.252  36.007  14.374
56426W        W22835  13.345  19.680   1.325
56427W        W22836   0.134  43.939   4.654
56428W        W22837   8.964  17.368  14.485
56429W        W22838   4.833   2.543  14.135
56430W        W22839  26.002  36.484   0.440
56431W        W22840  29.934   7.970   4.161
56432W        W22841  33.614  37.322   4.600
56433W        W22842  34.197  26.694   0.309
56434W        W22843   9.842  21.519   3.060
56435W        W22844  12.305  14.272   2.699
56436W        W22845  22.272  40.502  14.446
56437W        W22846  19.518  19.225  12.411
56438W        W22847  20.609  18.048  11.946
56439W        W22848  23.274  20.948  13.296
56440W        W22849  25.278  29.665   0.365
56441W        W22850  25.550   7.642   2.757
56442W        W22851  25.477  27.999  12.856
56443W        W22852   3.579   8.392  10.976
56444W        W22853  23.503  19.251  10.657
56445W        W22854   9.909  11.344  11.167
56446W        W22855   9.654   5.464  12.920
56447W        W22856   5.915  17.148  14.272
56448W        W22857  24.698  29.506  14.200
56449W        W22858  37.401  23.054  12.024
56450W        W22859  40.363  32.873   1.453
56451W        W22860  29.432   8.158   4.159
56452W        W22861  22.236  39.300  11.555
56453W        W22862  28.123   9.929   4.958
56454W        W22863  40.535  18.629  12.512
56455W        W22864  25.214  25.491  12.044
56456W        W22865  41.961   9.641   0.077
56457W        W22866  20.641  13.590   4.009
56458W        W22867  31.688  20.530  12.147
56459W        W22868  22.915  21.589  14.259
56460W        W22869  43.028  17.739   1.252
56461W        W22870   3.681   4.743  13.037
56462W        W22871  20.212  12.176  10.275
56463W        W22872  22.274   9.256  13.978
56464W        W22873   7.514  28.608  14.923
56465W        W22874  17.162  26.936  14.405
56466W        W22875  16.769   2.345   4.473
56467W        W22876  41.653  15.238  14.987
56468W        W22877  29.329  37.749  14.813
56469W        W22878  14.854  29.860  12.879
56470W        W22879  17.776  16.878   2.243
56471W        W22880  34.706   0.417  12.818
56472W        W22881  35.114  13.328  12.269
56473W        W22882  37.763   8.717   3.498
56474W        W22883  25.731   0.908   4.662
56475W        W22884  34.184  20.074  13.522
56476W        W22885  12.176  40.062   0.821
56477W        W22886  34.326  15.464  11.580
56478W        W22887  34.895  18.914  12.515
56479W        W22888   6.173  17.669  12.206
56480W        W22889  19.885   6.292  12.150
56481W        W22890  18.331  36.188   2.250
56482W        W22891   9.782  29.047  13.346
56483W        W22892   7.259   9.416   0.308
56484W        W22893  26.009  35.627   1.190
56485W        W22894  44.746  36.031   1.759
56486W        W22895  44.457  12.356  10.233
56487W        W22896  43.859  35.797   2.229
56488W        W22897  32.881  11.353   3.689
56489W        W22898  34.349  32.822  14.352
56490W        W22899  36.297  26.541   3.351
56491W        W22900  19.184  39.593   4.698
56492W        W22901  28.254  24.098  13.375
56493W        W22902  38.317  41.369   3.865
56494W        W22903  14.433  31.296  12.515
56495W        W22904  18.962  37.841   2.220
56496W        W22905  25.672  30.928  12.823
56497W        W22906  23.782  23.438  13.244
56498W        W22907   2.148  25.467   0.051
56499W        W22908  29.617  15.733   4.635
56500W        W22909  34.008  30.605   5.092
56501W        W22910   6.205   3.178   1.321
56502W        W22911   7.183   0.430   1.959
56503W        W22912   4.975  31.106   2.323
56504W        W22913  32.591  39.801  11.085
56505W        W22914   6.777  15.608  11.499
56506W        W22915  30.052  31.883   2.303
56507W        W22916  20.655   2.490   4.538
56508W        W22917  38.005  38.056   0.669
56509W        W22918   3.397   9.179  14.022
56510W        W22919   2.698  40.845  12.153
56511W        W22920  25.141  22.899  13.046
56512W        W22921  24.155  43.840  13.934
56513W        W22922  28.336  28.657   3.485
56514W        W22923  31.337   8.400   0.146
56515W        W22924   3.671  21.171   0.613
56516W        W22925   2.124  20.054   1.255
56517W        W22926   4.709  43.819   2.808
56518W        W22927  25.096  40.168   0.770
56519W        W22928  25.721  11.256  13.084
56520W        W22929   2.957   4.619   2.864
56521W        W22930  39.437  16.281   1.494
56522W        W22931  28.548  23.385   9.652
56523W        W22932  11.945   0.005   3.396
56524W        W22933   5.216  37.396   4.036
56525W        W22934  13.152   3.197  13.775
56526W        W22935  36.376   8.231   0.286
56527W        W22936  30.501  24.406   0.051
56528W        W22937  44.408  35.317  11.305
56529W        W22938   1.380  26.674  11.473
56530W        W22939  29.200   5.669  13.591
56531W        W22940  22.122  34.172   1.868
56532W        W22941   8.775   1.886   4.092
56533W        W22942   4.712  37.975  10.630
56534W        W22943  39.059   7.826   3.726
56535W        W22944  34.162  13.717   3.731
56536W        W22945  44.728  43.214   0.795
56537W        W22946   8.523  14.106   4.538
56538W        W22947   3.090   0.385   3.197
56539W        W22948  20.073  24.473  13.469
56540W        W22949  37.376  33.084  12.544
56541W        W22950  15.668  44.480  13.445
56542W        W22951  28.070  30.118   3.366
56543W        W22952  11.534   5.446   3.304
56544W        W22953   9.718  17.300   3.758
56545W        W22954  39.536  30.531   1.636
56546W        W22955  14.295  35.765   3.279
56547W        W22956  12.706   7.074  12.417
56548W        W22957   8.947  14.082  13.941
56549W        W22958   0.265   0.923   3.962
56550W        W22959  40.569  34.965  13.263
56551W        W22960  11.561   5.641  12.789
56552W        W22961  34.897  33.954   3.747
56553W        W22962  26.279  36.360  11.988
56554W        W22963  27.687  19.990   3.839
56555W        W22964  40.061  24.326   5.178
56556W        W22965   7.734  29.691   4.687
56557W        W22966  24.716  24.731  14.949
56558W        W22967  19.932  40.022   1.824
56559W        W22968   2.755  41.734   1.616
56560W        W22969  19.324  29.133   3.678
56561W        W22970  28.697  20.951   0.016
56562W        W22971   4.960  30.498  11.544
56563W        W22972  37.523  11.285   1.343
56564W        W22973  38.616  44.473  12.601
56565W        W22974  24.710  22.288  14.346
56566W        W22975  32.504  21.453  13.377
56567W        W22976  20.550   4.810   2.284
56568W        W22977  18.825  10.858   2.384
56569W        W22978  26.781  41.572   0.801
56570W        W22979  35.929  33.146  12.051
56571W        W22980  14.869  40.046   0.369
56572W        W22981  27.540  18.801   1.365
56573W        W22982  12.301   3.344  11.947
56574W        W22983   9.901  24.752  13.588
56575W        W22984  31.557   7.012   0.388
56576W        W22985  38.613  37.070   3.819
56577W        W22986  36.402   9.181   0.717
56578W        W22987  15.509  18.128  12.128
56579W        W22988  30.225  18.455   4.102
56580W        W22989   4.925  43.446   0.845
56581W        W22990  17.578   3.962   3.322
56582W        W22991  37.071  30.255  14.558
56583W        W22992  29.065   7.150   2.552
56584W        W22993   8.228  40.294   1.201
56585W        W22994  12.874  40.259  14.933
56586W        W22995  19.696  28.484   2.909
56587W        W22996  18.191  37.107   1.253
56588W        W22997  39.854  44.028  12.561
56589W        W22998  29.507  14.728  10.610
56590W        W22999  34.816   4.735   4.055
56591W        W23000   5.537   7.419   1.864
56592W        W23001  11.910  11.376  13.532
56593W        W23002   8.731  13.604  13.931
56594W        W23003  42.361   9.879   1.427
56595W        W23004  23.408  35.578  13.629
56596W        W23005  15.072  23.184  14.509
56597W        W23006  12.431  31.529   0.807
56598W        W23007  30.737  17.840  14.524
56599W        W23008   9.241  44.271   4.744
56600W        W23009  16.508  44.458   0.562
56601W        W23010  12.052  34.056   4.515
56602W        W23011  38.864  39.219  11.618
56603W        W23012  22.994  44.216   4.155
56604W        W23013  21.018  37.011  14.354
56605W        W23014   9.831  17.051  11.862
56606W        W23015  35.396  23.501  12.474
56607W        W23016  17.063   8.677  14.543
56608W        W23017  44.369   4.261  14.872
56609W        W23018  10.695  34.144  11.993
56610W        W23019  14.163   5.409   0.782
56611W        W23020  17.117  31.923  13.105
56612W        W23021  34.386  39.319  11.532
56613W        W23022  24.710  34.110   0.495
56614W        W23023  30.483  15.781   3.806
56615W        W23024  23.868  25.560  11.043
56616W        W23025  44.952  29.513   4.637
56617W        W23026  28.119  18.988   0.647
56618W        W23027  35.000  20.117  12.615
56619W        W23028  42.958   2.977   0.641
56620W        W23029  33.056  11.329   2.342
56621W        W23030   1.992  13.596   1.687
56622W        W23031  44.944  12.738   3.776
56623W        W23032  12.799  20.118  11.935
56624W        W23033   8.285   2.174  13.567
56625W        W23034  33.412  23.857   1.807
56626W        W23035  31.097  33.322  12.156
56627W        W23036   1.930   1.526  12.592
56628W        W23037  24.448  26.658   4.471
56629W        W23038  15.208  44.359   1.272
56630W        W23039   2.865  35.072  12.034
56631W        W23040  30.597   1.776   2.178
56632W        W23041  40.307   4.981   4.941
56633W        W23042  17.138  11.126   4.605
56634W        W23043  24.196   6.890  12.318
56635W        W23044  26.935  11.197   3.149
56636W        W23045   2.266  37.955   4.070
56637W        W23046  38.566   0.283   4.236
56638W        W23047   3.721  11.938   3.550
56639W        W23048  44.992   2.531  11.583
56640W        W23049  11.285   4.443   4.713
56641W        W23050  40.498  19.820  14.567
56642W        W23051  31.897  35.325   1.013
56643W        W23052   3.785  12.901  14.042
56644W        W23053  17.759  27.114  13.442
56645W        W23054  35.243  20.582  13.442
56646W        W23055  38.083  34.607  12.743
56647W        W23056  39.436  27.186   0.724
56648W        W23057  21.435   1.893   3.142
56649W        W23058  13.354  18.019   2.188
56650W        W23059  27.011   5.861  10.381
56651W        W23060  11.879  16.228   4.670
56652W        W23061  13.973  44.583  12.473
56653W        W23062  12.720  17.265  14.824
56654W        W23063  44.446  40.787   1.261
56655W        W23064   8.432  40.056  11.519
56656W        W23065  37.929  23.959   3.084
56657W        W23066  38.591   4.883  14.717
56658W        W23067  28.891  37.309   4.089
56659W        W23068  21.976   6.598  14.504
56660W        W23069  31.181  35.004   1.327
56661W        W23070  10.100  37.936  10.778
56662W        W23071  37.751  18.620  13.797
56663W        W23072   0.867  13.498  10.128
56664W        W23073  36.413  29.573   4.302
56665W        W23074   9.928   6.909  13.249
56666W        W23075  15.657  40.258   0.868
56667W        W23076  16.147   3.412   1.778
56668W        W23077   9.824  43.384  10.619
56669W        W23078  28.168  14.135   4.652
56670W        W23079  33.624  22.735  14.333
56671W        W23080   0.872  11.845  13.373
56672W        W23081  32.181   3.968   1.796
56673W        W23082   4.666  28.990  11.474
56674W        W23083  20.077  39.864   3.531
56675W        W23084   0.895  28.406  11.490
56676W        W23085  21.299  31.008   1.402
56677W        W23086  12.121  30.863   2.921
56678W        W23087   6.157  14.237   0.480
56679W        W23088  36.622  44.841  12.024
56680W        W23089   0.138  19.612   2.912
56681W        W23090  37.156  34.176  13.931
56682W        W23091  19.483  44.959  14.321
56683W        W23092   1.133  44.462  13.470
56684W        W23093   6.175   7.778   1.812
56685W        W23094   7.191  33.486  12.183
56686W        W23095   1.294  42.520   0.735
56687W        W23096   3.848  14.749   0.450
56688W        W23097  32.952  41.921  10.643
56689W        W23098  37.418   3.243   4.537
56690W        W23099  18.413  38.483  14.032
56691W        W23100  42.421  40.416  14.594
56692W        W23101   1.070   6.178   0.874
56693W        W23102  15.864   4.369  11.175
56694W        W23103  38.033  29.703   2.430
56695W        W23104  10.686   1.522  12.509
56696W        W23105  22.693   2.218  12.939
56697W        W23106  38.909  30.577   4.194
56698W        W23107  29.391  20.005  10.684
56699W        W23108  19.248  27.415   3.120
56700W        W23109  27.032  21.409  14.325
56701W        W23110   2.274  18.318  12.508
56702W        W23111  34.480   3.260  13.515
56703W        W23112  21.312  18.098   4.534
56704W        W23113   1.046   8.843   1.064
56705W        W23114  24.481  24.446   1.821
56706W        W23115  37.917  42.101   1.613
56707W        W23116  29.641   5.221   1.793
56708W        W23117   9.383  22.766   2.804
56709W        W23118  12.525  32.810  14.392
56710W        W23119  28.112  10.146   2.211
56711W        W23120  17.296  18.825   0.236
56712W        W23121  35.518  14.342   3.443
56713W        W23122  44.305  37.463  13.583
56714W        W23123  34.572  14.303  11.046
56715W        W23124  35.943  10.583  11.102
56716W        W23125   9.629  11.812   0.565
56717W        W23126   5.751   5.647   0.154
56718W        W23127   2.024   8.441   5.044
56719W        W23128   6.729   5.238   0.250
56720W        W23129  40.383   3.304   4.673
56721W        W23130   9.768  36.009   4.999
56722W        W23131   1.503  37.841  11.439
56723W        W23132   4.829  20.702   3.362
56724W        W23133  40.418  26.947  11.558
56725W        W23134   0.152   9.085   1.837
56726W        W23135  29.951  17.587   4.278
56727W        W23136   3.516  20.228   2.050
56728W        W23137   3.103  21.390  14.936
56729W        W23138  32.653  22.819   1.276
56730W        W23139   2.217   7.293   0.415
56731W        W23140  42.059  31.702  10.646
56732W        W23141  24.941  26.328  14.361
56733W        W23142  17.510  22.276  14.852
56734W        W23143  40.296   9.229  14.465
56735W        W23144  40.624  32.419  14.237
56736W        W23145  24.398  16.176  11.989
56737W        W23146  36.026  10.835  14.559
56738W        W23147  36.352  33.096  13.452
56739W        W23148  29.933  38.702  14.775
56740W        W23149   1.374   3.501   4.994
56741W        W23150  43.375  28.168   0.996
56742W        W23151   9.381   1.923  13.404
56743W        W23152  32.142  11.601   0.210
56744W        W23153  44.283   2.229  14.758
56745W        W23154  35.999  39.870   1.368
56746W        W23155   0.174  15.866   9.973
56747W        W23156  42.876  11.243  12.674
56748W        W23157   9.620  13.997   0.425
56749W        W23158  29.778  33.545  14.940
56750W        W23159   6.778  38.356  11.280
56751W        W23160   5.713  29.795  11.542
56752W        W23161   6.705  12.655   0.363
56753W        W23162  42.247  37.870   2.943
56754W        W23163   9.934  28.128  10.937
56755W        W23164  38.913  31.564   4.525
56756W        W23165   2.175  16.800  13.463
56757W        W23166  27.011  16.489   2.766
56758W        W23167  16.482  18.699  10.748
56759W        W23168   4.353  41.611  14.872
56760W        W23169  30.163  29.156  12.258
56761W        W23170  44.821   6.099   4.677
56762W        W23171  42.003  18.660  14.620
56763W        W23172  15.647   3.589   1.870
56764W        W23173  40.228  11.783   4.125
56765W        W23174  35.186  31.040  13.453
56766W        W23175  21.971  14.748   2.281
56767W        W23176  19.859   2.916  13.051
56768W        W23177  40.994  20.138  14.925
56769W        W23178   7.230  35.857  12.461
56770W        W23179  12.371  37.053   1.672
56771W        W23180  25.509  13.533   0.352
56772W        W23181  22.455  17.503  11.698
56773W        W23182  25.170  21.630   2.136
56774W        W23183  36.942  43.048   1.598
56775W        W23184  28.497  28.582   4.473
56776W        W23185  22.734  18.008  14.413
56777W        W23186  43.041  26.382  12.402
56778W        W23187   7.404  11.638   0.856
56779W        W23188   8.699  40.604  11.930
56780W        W23189  18.242  25.033   1.801
56781W        W23190  20.798  15.165  14.524
56782W        W23191  44.864   5.897  12.380
56783W        W23192  34.851  38.083  11.935
56784W        W23193  35.289  18.706  13.948
56785W        W23194  14.363   4.199  14.281
56786W        W23195  21.728   6.444  12.509
56787W        W23196  13.316  24.448   2.361
56788W        W23197  39.867  42.008  11.725
56789W        W23198  37.111  34.550  14.323
56790W        W23199  44.242  18.002   3.758
56791W        W23200  35.113  17.077  10.800
56792W        W23201  11.392   7.890  13.510
56793W        W23202  13.455   8.766  13.071
56794W        W23203   6.839  34.297   2.256
56795W        W23204   0.793  23.075  13.908
56796W        W23205  26.098  30.076   2.100
56797W        W23206   8.252  41.641  14.447
56798W        W23207  12.281  11.120   3.678
56799W        W23208   0.522  35.324   2.961
56800W        W23209  12.593   4.822   3.155
56801W        W23210  27.485   1.921   4.583
56802W        W23211   5.541  18.609   1.341
56803W        W23212  12.883   1.647   1.845
56804W        W23213  20.501   9.592  11.586
56805W        W23214  30.444  22.016   4.143
56806W        W23215   8.199  14.230  14.406
56807W        W23216  36.568  23.236   4.539
56808W        W23217  23.836  42.519  11.505
56809W        W23218  40.523  41.602  11.208
56810W        W23219  31.379   8.691  13.978
56811W        W23220  42.492  43.475  12.430
56812W        W23221   2.740  20.811  11.217
56813W        W23222   8.380   2.457  14.031
56814W        W23223  37.762   2.849   4.115
56815W        W23224   8.215  19.559  10.663
56816W        W23225  23.723   7.391   0.353
56817W        W23226  19.635  16.014   2.730
56818W        W23227  24.965   9.775   1.348
56819W        W23228  31.635   4.731   0.818
56820W        W23229  41.124  44.965   4.176
56821W        W23230   9.241  34.867   3.109
56822W        W23231  24.298  31.701  12.967
56823W        W23232  34.695  26.844  11.614
56824W        W23233   6.325  13.012   5.070
56825W        W23234  40.934   8.991  11.865
56826W        W23235  14.726  31.364  10.762
56827W        W23236  34.840  29.491  11.999
56828W        W23237  40.907  36.085  10.755
56829W        W23238  43.529  40.863  14.917
56830W        W23239  32.500  18.360   0.488
56831W        W23240   4.727  41.419   4.044
56832W        W23241  10.647   7.169   4.465
56833W        W23242  37.612  11.304   0.261
56834W        W23243  19.223  36.184  11.095
56835W        W23244  10.080   7.561   2.247
56836W        W23245  30.345  35.563   2.768
56837W        W23246  43.051  43.243   2.992
56838W        W23247  19.165  28.343   0.703
56839W        W23248   6.329  36.661  14.251
56840W        W23249   5.686  19.253   4.057
56841W        W23250   7.834  41.323  13.864
56842W        W23251  26.092  31.489  10.775
56843W        W23252  32.728   6.206  12.557
56844W        W23253  30.631  18.110  10.643
56845W        W23254  39.243  16.065   2.764
56846W        W23255  39.073  44.249   2.877
56847W        W23256  43.197  27.350  12.460
56848W        W23257  28.419  34.105   4.147
56849W        W23258  39.337  12.087   3.853
56850W        W23259   2.819   3.678  12.056
56851W        W23260   9.861  16.404  12.459
56852W        W23261   6.880   1.491  13.331
56853W        W23262   5.830  24.632   2.246
56854W        W23263   8.163   0.763  14.001
56855W        W23264  43.534   6.378   1.303
56856W        W23265  37.127  28.446  13.400
56857W        W23266  29.723  19.648   3.951
56858W        W23267  38.068  15.057  11.180
56859W        W23268  42.502   6.187  13.644
56860W        W23269   3.416  33.532  12.573
56861W        W23270  16.339  28.898  11.234
56862W        W23271  23.014  35.042   1.247
56863W        W23272  17.044   9.142   3.531
56864W        W23273  18.252  40.563   4.098
56865W        W23274  32.102  30.694  13.914
56866W        W23275  31.053  33.577  11.275
56867W        W23276   6.723  22.826  14.384
56868W        W23277  18.173   4.079  12.001
56869W        W23278   1.299  27.906  12.081
56870W        W23279  27.534  23.168  11.564
56871W        W23280   3.675  37.293  13.070
56872W        W23281   2.753  44.400   4.403
56873W        W23282  16.570  12.820   4.141
56874W        W23283  11.595  26.568   0.285
56875W        W23284  22.268  30.682  11.551
56876W        W23285  36.534  30.978   3.700
56877W        W23286  38.270   2.386  14.295
56878W        W23287   4.625  23.571  13.522
56879W        W23288  10.759  43.943  13.108
56880W        W23289   4.550   1.493   2.243
56881W        W23290  18.801  35.949  10.902
56882W        W23291  24.519  28.491  11.214
56883W        W23292   1.073  36.369  13.045
56884W        W23293  11.212  28.143  12.449
56885W        W23294   1.789  11.166   3.350
56886W        W23295  22.797  25.056  12.849
56887W        W23296   6.747  22.817  13.578
56888W        W23297  36.840  11.699   4.744
56889W        W23298  11.536   2.962  11.470
56890W        W23299  14.066  14.357  14.231
56891W        W23300  30.209  12.073   4.139
56892W        W23301  43.663  44.317   0.869
56893W        W23302  10.731   0.156   3.810
56894W        W23303  28.391  16.674  10.727
56895W        W23304  17.753   0.205  14.034
56896W        W23305  41.828  24.687   3.233
56897W        W23306   1.329  16.356  12.482
56898W        W23307  44.145   7.051   9.807
56899W        W23308  23.172  27.228  11.690
56900W        W23309  29.923   9.555   4.302
56901W        W23310   3.220  20.644   2.248
56902W        W23311  23.429   5.298   3.311
56903W        W23312  10.836   6.830  10.739
56904W        W23313  16.550  19.536   0.535
56905W        W23314   6.004  13.109  13.324
56906W        W23315  36.971   6.191   0.747
56907W        W23316  38.570  24.585   4.748
56908W        W23317  11.852   2.683   0.793
56909W        W23318  25.907   7.118  12.518
56910W        W23319   3.873   5.364   1.761
56911W        W23320   1.323  28.722  10.753
56912W        W23321  35.273  38.813   0.018
56913W        W23322  29.165   2.000   4.052
56914W        W23323  42.101  25.556  10.598
56915W        W23324   5.796  22.844  14.754
56916W        W23325  26.015  10.064   0.109
56917W        W23326  21.758  33.812  10.500
56918W        W23327  25.724  20.679  12.034
56919W        W23328  18.517  23.563   0.786
56920W        W23329   5.815  27.714   3.040
56921W        W23330  33.443  31.289   0.935
56922W        W23331  33.567   4.016   1.662
56923W        W23332  27.264  28.423  14.325
56924W        W23333   9.572   7.294  12.910
56925W        W23334  10.123  33.384   2.352
56926W        W23335  18.194  17.172  13.054
56927W        W23336  31.211  33.426   1.662
56928W        W23337   9.735  39.042   2.931
56929W        W23338   1.423  20.773   2.355
56930W        W23339  27.591   5.308  13.782
56931W        W23340  25.833   4.225   2.452
56932W        W23341   3.454  10.529   5.106
56933W        W23342  29.973  27.063   1.845
56934W        W23343  35.501   2.054  10.082
56935W        W23344   8.353  40.322  13.659
56936W        W23345  24.706  33.587  14.923
56937W        W23346  11.296   1.702   1.887
56938W        W23347  32.774  17.673   1.057
56939W        W23348  20.178  23.773   4.686
56940W        W23349   9.277  34.154  12.458
56941W        W23350  12.039   3.763  11.747
56942W        W23351  35.480  18.674   2.445
56943W        W23352  35.909   5.905  13.825
56944W        W23353  39.024  44.741  13.844
56945W        W23354  14.118   4.349  12.782
56946W        W23355  17.048  41.948  13.314
56947W        W23356   0.009  20.670  13.607
56948W        W23357  13.725  38.329   2.670
56949W        W23358   4.238  31.007  10.764
56950W        W23359  34.439   0.993  11.584
56951W        W23360  22.835  18.805  14.924
56952W        W23361  10.653  28.384   2.366
56953W        W23362  35.362   6.941  14.942
56954W        W23363  43.796  26.998  10.372
56955W        W23364  32.492  10.409  10.193
56956W        W23365  28.634  25.145   4.577
56957W        W23366  15.615  18.865   1.434
56958W        W23367   7.903   4.328   2.746
56959W        W23368  38.544  35.763   4.124
56960W        W23369  43.980  19.138   3.234
56961W        W23370  11.617  16.638   3.595
56962W        W23371  21.670  41.464   0.267
56963W        W23372   7.643  25.672   4.547
56964W        W23373  21.550  40.892   2.754
56965W        W23374  37.746  24.042  12.022
56966W        W23375  14.203   3.526   1.417
56967W        W23376  24.140  40.838   2.279
56968W        W23377  33.337  28.003   4.264
56969W        W23378   1.922  31.864  10.986
56970W        W23379  15.626   6.880   0.033
56971W        W23380  18.281   8.184   1.408
56972W        W23381  11.677  22.159   3.100
56973W        W23382  28.392  30.758   4.182
56974W        W23383  10.127  15.315  14.404
56975W        W23384   8.985  37.356   1.457
56976W        W23385  39.639  31.303   4.147
56977W        W23386  13.302  30.983  10.504
56978W        W23387  42.426  37.914   0.309
56979W        W23388  30.254  22.029   3.641
56980W        W23389  44.934  16.638   2.462
56981W        W23390   7.187  35.464   1.035
56982W        W23391  13.129  14.078  14.412
56983W        W23392  23.054   2.307  12.549
56984W        W23393  39.023   7.238   2.294
56985W        W23394  39.027  31.084  10.657
56986W        W23395  42.248  21.777   1.872
56987W        W23396  13.761  15.611   2.340
56988W        W23397  34.096  39.396   4.086
56989W        W23398   2.844  19.602  13.663
56990W        W23399   6.406  33.353   1.474
56991W        W23400  41.913   8.098   3.856
56992W        W23401  12.936  16.592   0.379
56993W        W23402  19.759  19.165  11.944
56994W        W23403  27.739   1.712  10.778
56995W        W23404  33.914  35.874  10.761
56996W        W23405  30.464   9.582  11.610
56997W        W23406  25.667  39.878   0.796
56998W        W23407  36.352  14.251  11.692
56999W        W23408  37.664  37.100  13.066
57000W        W23409  38.923   9.269  14.231
57001W        W23410  40.886  11.703  11.099
57002W        W23411  30.076  27.992  12.722
57003W        W23412  37.231  28.493  11.097
57004W        W23413  17.474  28.940   3.203
57005W        W23414   9.218  11.553   3.421
57006W        W23415  12.049  36.789  14.934
57007W        W23416  23.728   8.207  12.899
57008W        W23417  12.669  19.468   3.266
57009W        W23418  31.947  21.915   2.283
57010W        W23419   1.465  18.971  13.450
57011W        W23420  42.389  14.711  12.033
57012W        W23421   1.870  12.180   3.085
57013W        W23422  38.079  22.016  10.566
57014W        W23423   2.553  16.591  13.075
57015W        W23424  37.411   9.237  14.757
57016W        W23425  18.133   8.755   1.070
57017W        W23426  30.196   6.880   2.153
57018W        W23427   0.891  33.543   4.654
57019W        W23428  32.356  13.370  14.009
57020W        W23429  44.415  25.123  11.000
57021W        W23430  27.640   9.392   2.411
57022W        W23431  33.276   6.752  10.984
57023W        W23432  35.414  22.457   1.871
57024W        W23433   0.211  18.364   1.060
57025W        W23434  38.171   1.193  11.130
57026W        W23435  32.965  12.801  12.902
57027W        W23436  21.639  11.200   3.559
57028W        W23437  42.390  25.625  12.182
57029W        W23438  32.983  20.800  12.670
57030W        W23439  37.679  11.653  14.360
57031W        W23440  17.823  13.997  11.257
57032W        W23441  11.916  17.741   2.978
57033W        W23442   7.696  33.744  12.961
57034W        W23443   9.878  38.996  14.971
57035W        W23444  40.714  44.369  13.553
57036W        W23445  20.167  31.149   4.557
57037W        W23446  22.117  21.451  10.740
57038W        W23447  14.880  28.498   0.116
57039W        W23448  38.337   7.309   0.546
57040W        W23449  12.698  11.168  12.455
57041W        W23450  34.886  11.459  11.063
57042W        W23451  14.780  36.788  10.602
57043W        W23452  39.419  37.487   3.597
57044W        W23453  42.816   0.831   4.068
57045W        W23454  22.601  38.032   3.040
57046W        W23455  17.250  43.998   2.792
57047W        W23456  17.149   6.255   1.461
57048W        W23457  30.852  18.865   3.655
57049W        W23458  38.092  43.911   2.736
57050W        W23459   8.032  42.393   3.680
57051W        W23460   4.277   9.619   3.630
57052W        W23461  32.611  35.437   3.354
57053W        W23462  18.848   9.035   0.819
57054W        W23463  30.091   5.777  10.710
57055W        W23464  26.384   6.318   3.291
57056W        W23465   4.667  11.854   0.393
57057W        W23466   7.171   5.213  13.680
57058W        W23467  22.105  11.800   4.160
57059W        W23468  18.665   2.317   1.011
57060W        W23469   6.774  37.683  13.394
57061W        W23470  10.034   1.824   3.248
57062W        W23471  17.103  13.736   3.882
57063W        W23472  19.672   7.463   3.547
57064W        W23473   1.390  26.688  13.351
57065W        W23474  42.878  31.881  13.126
57066W        W23475  41.664   8.198  13.725
57067W        W23476  23.676   4.917   0.425
57068W        W23477   1.775   3.185   0.843
57069W        W23478  38.863  43.978  12.486
57070W        W23479  19.933  33.013  14.016
57071W        W23480  42.708   6.852  14.715
57072W        W23481  10.710  38.294  13.147
57073W        W23482   5.338  10.612   2.388
57074W        W23483  35.468   0.917   2.442
57075W        W23484   6.437  43.941  13.439
57076W        W23485   8.176  20.228   4.852
57077W        W23486  30.780  39.561  14.232
57078W        W23487  18.589  11.204  10.662
57079W        W23488  29.111  41.243  13.169
57080W        W23489  18.140  18.651   4.340
57081W        W23490   0.896  35.053  13.823
57082W        W23491  12.752  33.143  11.089
57083W        W23492   9.928   4.195   0.964
57084W        W23493  25.220  13.988   2.199
57085W        W23494  34.786   2.217   5.462
57086W        W23495   7.662  35.634   1.188
57087W        W23496   8.413  28.950  11.450
57088W        W23497  29.388  39.902  12.854
57089W        W23498  12.278  12.295  13.164
57090W        W23499  17.943  37.919   2.163
57091W        W23500  41.786  36.624   1.671
57092W        W23501  24.280  39.825  12.065
57093W        W23502  21.044  39.174  11.939
57094W        W23503  24.328  25.705  14.017
57095W        W23504  38.485  29.068  12.331
57096W        W23505   0.818  25.165   4.147
57097W        W23506   9.943  25.197   2.589
57098W        W23507  22.702  15.073   4.429
57099W        W23508   9.190  26.771   4.083
57100W        W23509   3.023   9.841   1.310
57101W        W23510  22.580  31.272  14.602
57102W        W23511  16.269  34.498  12.636
57103W        W23512  33.159  25.542  13.479
57104W        W23513  20.575  12.090   4.705
57105W        W23514   4.971  22.526   1.383
57106W        W23515   4.987  12.854  11.232
57107W        W23516  40.192  23.647   2.169
57108W        W23517  23.033  22.517   2.283
57109W        W23518  22.290  31.225  11.583
57110W        W23519  38.815  24.964  10.881
57111W        W23520   4.996  26.030   4.043
57112W        W23521  40.512   5.204  14.507
57113W        W23522   5.480   7.260   3.243
57114W        W23523   6.255   0.470   1.723
57115W        W23524  39.216  37.832   4.847
57116W        W23525   4.647   6.370  12.344
57117W        W23526  43.465  44.955  13.078
57118W        W23527  37.002  25.157  14.507
57119W        W23528  19.506   4.131   3.810
57120W        W23529  28.599   0.119   4.932
57121W        W23530  14.823  30.046  10.722
57122W        W23531  39.870   6.436  12.185
57123W        W23532  18.133  28.948  13.348
57124W        W23533  39.444  40.942  13.339
57125W        W23534  26.193  24.170  14.034
57126W        W23535  14.294   1.392   4.874
57127W        W23536   6.833  36.342   3.229
57128W        W23537  27.651  21.568   5.081
57129W        W23538  30.061  25.657   4.118
57130W        W23539  15.730   1.356   2.317
57131W        W23540  33.614  24.121   0.170
57132W        W23541   4.232  30.404  14.832
57133W        W23542  23.665  11.851  14.489
57134W        W23543   6.930  11.135  13.273
57135W        W23544  41.831   5.799   4.272
57136W        W23545   1.838  26.988  14.327
57137W        W23546  32.349  41.930  13.527
57138W        W23547  14.173   5.277  11.259
57139W        W23548  21.727  44.722   1.897
57140W        W23549   3.877  36.195  12.165
57141W        W23550  28.560   7.832  13.119
57142W        W23551   3.764  38.856  14.872
57143W        W23552  17.887   7.562   3.387
57144W        W23553  16.279   1.607  12.902
57145W        W23554  41.465  42.549  14.716
57146W        W23555  12.828  33.893  11.454
57147W        W23556  36.300  13.216  12.463
57148W        W23557  35.069  35.767   3.805
57149W        W23558  38.994  29.648   3.953
57150W        W23559  14.127  28.777   1.922
57151W        W23560  11.232  33.656   1.428
57152W        W23561   0.187   1.467   4.877
57153W        W23562   4.778  41.039  12.651
57154W        W23563  44.821  26.893   1.593
57155W        W23564  19.034  42.544   0.834
57156W        W23565  26.079  13.626  14.064
57157W        W23566  13.113  12.805  11.446
57158W        W23567  19.441  44.892  11.057
57159W        W23568  42.436  14.828   4.413
57160W        W23569  36.097  38.816   3.468
57161W        W23570  19.698  41.983   3.606
57162W        W23571  27.397  19.325   0.488
57163W        W23572  37.027  29.718   4.658
57164W        W23573  22.011  39.160   4.615
57165W        W23574  43.087  28.142  11.007
57166W        W23575  15.155  19.057  12.999
57167W        W23576  20.723  12.789   4.587
57168W        W23577  23.995  14.349   0.067
57169W        W23578  21.746   1.889   0.759
57170W        W23579   0.225   2.608   1.274
57171W        W23580  12.879  13.066  14.416
57172W        W23581  25.397  32.923   0.008
57173W        W23582  16.670  38.164  13.442
57174W        W23583  40.047  13.872  10.710
57175W        W23584  17.193  29.031  10.095
57176W        W23585  44.036  43.985   3.738
57177W        W23586  33.027  37.578   0.787
57178W        W23587  24.525  37.532   4.072
57179W        W23588  21.984  42.036   2.369
57180W        W23589  28.287  36.462  12.298
57181W        W23590  40.728  18.195  10.957
57182W        W23591  25.115  39.290  11.158
57183W        W23592   1.777  25.677   2.671
57184W        W23593   0.986  37.312  14.984
57185W        W23594   6.827  16.336   3.216
57186W        W23595  27.357  43.911  11.199
57187W        W23596  19.247  44.045  10.729
57188W        W23597  41.863  38.560  12.057
57189W        W23598   2.945  40.294  10.687
57190W        W23599   3.183  10.240   4.040
57191W        W23600  27.918  28.741   3.798
57192W        W23601  34.991   4.789  13.210
57193W        W23602  31.691  21.224  13.962
57194W        W23603  38.226   6.807  13.558
57195W        W23604  33.609  10.210   3.796
57196W        W23605  11.294  42.850   4.114
57197W        W23606  16.911  26.637   0.401
57198W        W23607  43.000   2.769  11.642
57199W        W23608  30.498   2.220  14.358
57200W        W23609  26.884  28.706   0.652
57201W        W23610   4.391  27.630  11.515
57202W        W23611  28.419  21.439   4.605
57203W        W23612   9.338  23.345   4.207
57204W        W23613  29.813  14.178   2.456
57205W        W23614  20.155  40.848  13.452
57206W        W23615  34.025   7.508   4.255
57207W        W23616  12.315   0.770  14.809
57208W        W23617  37.394  11.305   4.599
57209W        W23618  12.647  30.645   4.396
57210W        W23619   3.971  23.467   1.327
57211W        W23620   6.376  44.597   3.287
57212W        W23621  15.058  23.040  12.578
57213W        W23622  42.417  17.479  12.423
57214W        W23623   6.201   4.901  14.450
57215W        W23624  44.465  21.944  14.810
57216W        W23625   0.168  34.789  12.785
57217W        W23626   4.252  34.926  15.000
57218W        W23627   7.390  35.506  10.406
57219W        W23628  20.555  30.014  13.078
57220W        W23629  17.569   0.775  10.937
57221W        W23630  25.950  36.864   4.082
57222W        W23631  44.503  42.361   4.780
57223W        W23632  18.122  33.414   3.671
57224W        W23633  37.043  12.813   4.779
57225W        W23634  23.203   1.444   3.072
57226W        W23635  32.147  36.214   2.845
57227W        W23636   0.957   1.962   4.454
57228W        W23637  40.417   6.415  14.896
57229W        W23638   8.352  33.407  14.624
57230W        W23639   8.124  17.002  10.572
57231W        W23640  42.499   2.579  12.579
57232W        W23641  32.102  12.640   0.396
57233W        W23642   9.814  25.614  12.238
57234W        W23643  31.462  26.039   1.528
57235W        W23644  27.232  34.484  12.068
57236W        W23645  18.107   0.240  14.437
57237W        W23646  37.014  15.337  13.498
57238W        W23647  32.650  13.662  11.931
57239W        W23648  12.180  26.147  13.037
57240W        W23649   3.990   1.511  13.993
57241W        W23650  31.035  40.025   2.827
57242W        W23651  31.031   9.244   3.765
57243W        W23652  36.546  11.186  11.663
57244W        W23653  10.627  35.288   4.130
57245W        W23654  28.417   5.239  13.446
57246W        W23655  33.615   8.197  13.493
57247W        W23656  18.590  44.558   1.824
57248W        W23657  12.567  18.115  13.704
57249W        W23658   8.994  22.563  11.919
57250W        W23659  12.717   5.336   1.225
57251W        W23660  28.377  14.121   3.683
57252W        W23661  12.339  34.037  11.526
57253W        W23662  14.324   5.081   4.144
57254W        W23663  28.045   5.147  10.796
57255W        W23664  39.139  25.679  13.861
57256W        W23665  43.430  11.965   2.505
57257W        W23666  31.485  42.562  10.754
57258W        W23667  28.097  21.551   2.853
57259W        W23668  25.726  17.758  12.287
57260W        W23669  11.176   0.007   0.833
57261W        W23670   9.311  12.253  12.472
57262W        W23671   6.885  36.438   3.715
57263W        W23672   2.113  28.537  11.373
57264W        W23673  10.151   4.415  14.676
57265W        W23674   0.448  16.493   0.508
57266W        W23675  13.243  17.245  11.583
57267W        W23676  29.030  25.907   1.079
57268W        W23677  30.987  43.390   4.441
57269W        W23678  31.597  25.614  12.492
57270W        W23679  43.915  30.598  12.550
57271W        W23680   0.950   2.028  10.761
57272W        W23681   4.990  26.227   2.754
57273W        W23682  14.754  39.358   0.705
57274W        W23683  18.331  30.511  10.751
57275W        W23684  33.370  27.172  10.683
57276W        W23685  42.487  41.323   0.899
57277W        W23686  17.682   8.836   0.822
57278W        W23687   7.268  36.623   3.300
57279W        W23688  24.976  23.764  14.243
57280W        W23689  35.378   7.355  13.333
57281W        W23690  26.140   7.254   3.619
57282W        W23691   8.286  36.420   1.414
57283W        W23692  14.413  22.042   3.079
57284W        W23693  25.538   7.154   2.840
57285W        W23694   8.513   2.833  14.851
57286W        W23695   5.910  30.684   2.688
57287W        W23696  29.093  13.363  14.118
57288W        W23697   5.783  38.867   4.534
57289W        W23698  10.706   5.221  13.620
57290W        W23699  29.671  24.226  12.735
57291W        W23700  18.091  32.401  12.593
57292W        W23701  10.718  21.775   2.691
57293W        W23702  10.475  23.508   2.408
57294W        W23703   5.865   7.934   4.014
57295W        W23704  27.708   2.271   4.167
57296W        W23705  32.824  41.513  14.295
57297W        W23706  23.067   8.307  11.662
57298W        W23707  13.882  25.946  14.051
57299W        W23708  35.293  23.319   1.365
57300W        W23709  11.932  42.739   1.973
57301W        W23710  26.751  30.673  12.382
57302W        W23711   6.595   9.646   0.299
57303W        W23712  25.143  28.780   2.215
57304W        W23713  12.366  18.151  12.830
57305W        W23714  24.438  21.117   5.397
57306W        W23715  31.830  30.622   2.712
57307W        W23716  38.799  25.404  14.809
57308W        W23717   9.628  31.034   2.643
57309W        W23718  21.113  26.654  11.137
57310W        W23719  22.070  37.945   0.293
57311W        W23720   3.640  19.202  13.018
57312W        W23721  37.624  30.292   1.683
57313W        W23722  32.389  12.094   2.475
57314W        W23723  27.407  19.576  13.042
57315W        W23724   3.774  28.964  13.971
57316W        W23725  14.379  18.210   1.161
57317W        W23726  13.457   5.314   2.389
57318W        W23727  11.757  12.725   0.722
57319W        W23728  21.674  41.552   3.742
57320W        W23729  18.547  43.481  11.458
57321W        W23730   5.863  12.463   2.175
57322W        W23731   2.330  31.120   2.901
57323W        W23732   5.813   4.960   2.306
57324W        W23733  21.857  41.913  14.821
57325W        W23734  35.617  29.410  12.549
57326W        W23735  10.890   7.523  14.975
57327W        W23736  42.505  22.771  12.779
57328W        W23737  30.589  37.211   3.044
57329W        W23738  41.539  12.259   0.932
57330W        W23739  17.214  25.606  12.963
57331W        W23740  23.752  31.656  10.865
57332W        W23741  18.933  25.884   4.296
57333W        W23742  13.782   6.888  13.621
57334W        W23743  32.422   9.838  13.559
57335W        W23744  29.977  27.154  11.987
57336W        W23745  42.277  26.899   0.936
57337W        W23746  27.564  27.329  11.191
57338W        W23747  11.387  17.699  13.086
57339W        W23748   1.502  37.419   4.995
57340W        W23749  29.287  21.068   5.345
57341W        W23750  16.180   5.984  11.217
57342W        W23751  32.040  29.116  12.156
57343W        W23752  41.337  40.981   0.518
57344W        W23753   8.662  30.830   0.895
57345W        W23754  27.123  35.435   2.712
57346W        W23755  28.228  13.578   2.829
57347W        W23756  40.157  25.638   0.320
57348W        W23757  36.800  35.564  12.643
57349W        W23758  18.072  39.937   3.170
57350W        W23759  24.221  11.611   0.416
57351W        W23760  17.205  12.925  12.537
57352W        W23761  21.030  21.115   2.644
57353W        W23762  40.562  14.633  10.463
57354W        W23763   5.795  34.085   4.518
57355W        W23764  17.877  24.929   4.027
57356W        W23765   5.096  16.600  14.438
57357W        W23766  37.376   2.562  11.094
57358W        W23767   1.458   7.376  10.924
57359W        W23768  31.945  40.317   0.937
57360W        W23769  12.082  28.103   2.205
57361W        W23770  22.565  32.551  12.474
57362W        W23771  41.676  23.809   4.770
57363W        W23772  24.523  13.113  14.339
57364W        W23773  27.989  18.529  11.165
57365W        W23774  31.701  20.238  11.579
57366W        W23775  41.184   9.728  11.786
57367W        W23776  26.235  37.119  14.741
57368W        W23777  42.331   5.884   4.319
57369W        W23778  35.858  13.742   1.147
57370W        W23779   6.246  19.691   3.223
57371W        W23780  27.422  14.703   1.802
57372W        W23781  32.515   7.052  12.436
57373W        W23782  44.385  13.401   4.145
57374W        W23783  11.462  15.699   3.191
57375W        W23784  27.202   9.778  14.305
57376W        W23785  16.899  30.933  13.957
57377W        W23786  12.712   6.655  11.199
57378W        W23787   1.927  13.143   1.955
57379W        W23788  43.999   2.324   3.865
57380W        W23789   9.128  21.018   2.595
57381W        W23790   0.337  12.679  11.187
57382W        W23791  43.507  16.772   3.729
57383W        W23792  37.675  10.014   0.375
57384W        W23793  29.491  24.140   0.363
57385W        W23794  19.614  21.119  10.657
57386W        W23795  15.139   2.289   9.674
57387W        W23796  26.224   5.135  13.107
57388W        W23797   3.310  36.965  12.297
57389W        W23798  14.773  22.252  12.020
57390W        W23799  16.409  13.394   2.546
57391W        W23800  40.451  27.242   1.324
57392W        W23801  41.999  35.820   4.536
57393W        W23802  12.133  31.126   1.021
57394W        W23803  20.761  25.795   4.670
57395W        W23804  14.093  24.426  11.664
57396W        W23805  16.792  15.843   2.575
57397W        W23806  32.638  37.881   3.644
57398W        W23807  16.639  17.495  12.040
57399W        W23808  13.812  14.070  14.675
57400W        W23809  31.465  29.657  12.546
57401W        W23810   2.962  43.860  13.348
57402W        W23811  40.459  16.587  14.538
57403W        W23812  41.159   4.606  14.689
57404W        W23813  15.892  20.655  12.446
57405W        W23814  42.320   0.870   1.343
57406W        W23815   0.598  35.614   4.475
57407W        W23816  17.807  39.342   1.383
57408W        W23817  38.935  11.655   1.706
57409W        W23818  44.519  16.868  10.172
57410W        W23819  31.808  26.444   5.014
57411W        W23820  17.563  32.967   2.296
57412W        W23821  26.668  27.162  13.513
57413W        W23822   1.250   8.217  14.451
57414W        W23823  27.211   4.804   4.750
57415W        W23824  24.721  42.455   0.232
57416W        W23825  34.908  18.542   1.913
57417W        W23826  10.875  12.783   1.293
57418W        W23827  37.944  20.759   4.059
57419W        W23828  18.704  39.507  12.367
57420W        W23829   1.333  16.397   2.835
57421W        W23830  32.308  35.047   2.758
57422W        W23831   5.276  37.861  12.286
57423W        W23832  20.634  40.721   2.831
57424W        W23833  23.589  32.871   1.525
57425W        W23834  34.081  20.631   3.454
57426W        W23835   4.846   3.957  10.680
57427W        W23836  39.225   0.442  13.422
57428W        W23837  40.634   5.223   4.412
57429W        W23838  16.616   4.958   4.248
57430W        W23839  31.878  18.493  11.389
57431W        W23840  10.849  37.897  14.968
57432W        W23841  39.383   4.460  10.656
57433W        W23842  12.243  34.594   2.730
57434W        W23843  21.309  33.627  14.266
57435W        W23844   7.195  42.191  11.533
57436W        W23845  39.030  28.457  11.934
57437W        W23846  39.758   3.607  13.730
57438W        W23847  19.024  42.582   2.313
57439W        W23848   8.620  26.988   3.217
57440W        W23849  34.113   9.342   1.647
57441W        W23850  21.680  24.356   5.045
57442W        W23851  20.745  23.192  10.539
57443W        W23852  10.259  32.355   3.243
57444W        W23853   8.425  29.472   3.118
57445W        W23854  15.711   5.528   0.398
57446W        W23855  25.573  41.506   3.181
57447W        W23856  26.603  29.120  11.950
57448W        W23857  14.724  24.469  14.816
57449W        W23858  12.791  13.802   4.373
57450W        W23859  14.757   5.944  10.707
57451W        W23860   1.196  44.002   1.948
57452W        W23861  28.082  31.462  13.452
57453W        W23862  37.961  39.367  10.671
57454W        W23863  24.477  41.517   2.335
57455W        W23864   5.466  23.616  12.007
57456W        W23865  42.485   2.868   0.863
57457W        W23866   1.517  27.553   3.860
57458W        W23867  26.941   1.263  14.904
57459W        W23868  44.704  34.847   3.912
57460W        W23869  20.660   7.522  13.388
57461W        W23870  21.854   1.666   2.160
57462W        W23871  13.732  38.972   0.192
57463W        W23872  34.141  41.001   1.927
57464W        W23873   8.048  31.550  12.037
57465W        W23874  35.010  17.546  13.959
57466W        W23875  32.094  41.578  12.049
57467W        W23876  37.401  41.068   2.236
57468W        W23877   5.947   0.334  11.906
57469W        W23878  10.614   3.891  12.540
57470W        W23879  13.241   7.428   4.556
57471W        W23880  14.267   3.031  12.091
57472W        W23881  12.179   4.986   3.994
57473W        W23882  25.986  15.847  11.583
57474W        W23883   5.609  16.830   4.478
57475W        W23884  19.100  18.582   1.185
57476W        W23885   1.188  37.085  11.434
57477W        W23886  13.031   9.732  13.836
57478W        W23887   9.922   7.035  10.156
57479W        W23888  28.976   5.951  12.163
57480W        W23889   2.382   0.832   2.727
57481W        W23890  22.926  44.744  12.082
57482W        W23891  27.170   7.266  11.116
57483W        W23892  30.603   0.817  11.166
57484W        W23893   3.435  11.165   4.377
57485W        W23894   3.339   0.423   0.875
57486W        W23895  32.468  40.808  12.962
57487W        W23896  25.829  30.754   0.838
57488W        W23897  42.073  37.730   3.484
57489W        W23898  29.872  26.906  10.674
57490W        W23899  31.433  37.665   4.287
57491W        W23900   5.159  34.162  13.402
57492W        W23901  13.560  29.958  14.335
57493W        W23902  42.017   8.216   0.079
57494W        W23903  33.491  21.235  14.194
57495W        W23904  24.409   9.284   1.804
57496W        W23905  39.264  31.587  14.725
57497W        W23906  21.910  19.902  13.038
57498W        W23907  34.973  32.238   0.791
57499W        W23908  23.752  15.315  12.369
57500W        W23909  11.051  32.735  12.484
57501W        W23910  38.308  12.362   4.812
57502W        W23911  19.674  25.673  13.812
57503W        W23912  16.468  41.721   9.387
57504W        W23913  34.798  38.516   3.713
57505W        W23914  16.063  29.114   1.859
57506W        W23915   6.418   8.655   2.404
57507W        W23916  13.916  10.246   3.742
57508W        W23917  17.488   0.710   1.299
57509W        W23918  23.228  33.833  11.122
57510W        W23919  21.640  30.979  12.601
57511W        W23920  31.132  41.796  11.130
57512W        W23921  43.645  35.069  14.599
57513W        W23922  35.113   0.002   0.408
57514W        W23923  15.640  44.204  10.734
57515W        W23924  38.890  36.230  10.523
57516W        W23925  39.789  32.451   0.307
57517W        W23926  31.384   5.743  12.340
57518W        W23927  30.248  28.277   3.695
57519W        W23928  11.722   8.162   1.408
57520W        W23929  23.443   8.863  12.815
57521W        W23930  36.924  32.827  12.623
57522W        W23931  35.052  15.777  13.493
57523W        W23932  38.459  23.771   4.247
57524W        W23933   0.618  19.714   2.781
57525W        W23934   9.800   7.424  14.001
57526W        W23935  26.620  40.289  12.211
57527W        W23936  16.002  25.441   1.287
57528W        W23937  40.051  14.743  14.369
57529W        W23938  25.459  38.526  13.734
57530W        W23939  18.615  21.537  11.727
57531W        W23940  25.454  20.242  11.167
57532W        W23941  32.128   2.799   3.318
57533W        W23942  30.301  20.002  13.703
57534W        W23943  17.244   4.868   3.650
57535W        W23944  10.567  34.570  14.826
57536W        W23945  21.280  22.105   4.287
57537W        W23946   6.500  44.704   4.944
57538W        W23947  41.382  24.488  12.621
57539W        W23948   3.228  29.796  14.045
57540W        W23949  39.846  25.514   1.314
57541W        W23950   1.730  19.637   5.125
57542W        W23951  23.102  28.544   2.795
57543W        W23952   4.822  11.283  14.987
57544W        W23953   4.958  41.764  13.701
57545W        W23954  19.672  43.496   2.723
57546W        W23955  31.653  41.790  13.841
57547W        W23956  30.178  36.349  10.511
57548W        W23957   2.401  22.751   2.754
57549W        W23958  26.914  11.759   2.114
57550W        W23959  36.906  29.431  14.927
57551W        W23960  26.091  14.145   0.726
57552W        W23961  26.611  40.292   1.431
57553W        W23962  21.036   9.200   2.843
57554W        W23963  27.464   7.591   1.836
57555W        W23964  10.677  27.053   2.130
57556W        W23965   6.502  20.134   3.369
57557W        W23966  23.440   8.446  12.006
57558W        W23967   4.828  21.122   4.276
57559W        W23968  20.720  32.401   3.372
57560W        W23969  35.391  41.972   3.186
57561W        W23970  38.489  26.570   1.394
57562W        W23971  15.683  32.101  12.437
57563W        W23972  10.768  12.596  12.185
57564W        W23973  23.348  44.021  10.608
57565W        W23974  35.942  16.040  13.955
57566W        W23975  10.259  26.226   0.862
57567W        W23976  13.879   1.888   2.849
57568W        W23977   8.312   9.355  11.944
57569W        W23978  44.859  36.293  12.494
57570W        W23979  35.007  22.729  12.436
57571W        W23980   8.434  16.028  12.620
57572W        W23981  25.867  19.173   1.712
57573W        W23982   4.305  27.482   0.306
57574W        W23983   8.737  19.210  10.738
57575W        W23984   4.855  14.901   2.855
57576W        W23985  41.676   5.687  12.953
57577W        W23986  23.016  30.497  14.432
57578W        W23987  10.603  36.474   2.096
57579W        W23988  27.968  30.038   2.287
57580W        W23989  13.644   4.345   3.070
57581W        W23990   0.552   5.903   2.713
57582W        W23991  28.219   6.727  11.605
57583W        W23992  27.955  33.612   2.374
57584W        W23993  17.099   6.369  11.496
57585W        W23994  13.908   9.307   3.845
57586W        W23995  30.544  16.179  13.527
57587W        W23996  35.966  36.779   3.910
57588W        W23997  29.648   4.684   9.975
57589W        W23998  21.617   2.209  11.257
57590W        W23999  33.585  23.784  11.963
57591W        W24000  35.451  40.813   4.315
57592W        W24001  41.825   7.295  13.884
57593W        W24002  42.510  30.178   2.646
57594W        W24003   1.875  36.371  13.511
57595W        W24004  24.554  39.107   1.654
57596W        W24005  27.429  38.985  11.482
57597W        W24006  11.104  21.582  11.794
57598W        W24007  33.372  38.599   3.723
57599W        W24008  12.323  29.721   4.681
57600W        W24009  18.746  19.175   4.822
57601W        W24010  22.315  27.014  11.639
57602W        W24011  43.330   2.687   0.863
57603W        W24012   3.310   2.675  11.041
57604W        W24013  43.307  35.859  10.737
57605W        W24014  19.733  24.454   2.808
57606W        W24015  13.532   6.351  11.462
57607W        W24016  15.947  34.092  14.409
57608W        W24017  34.235  18.193  13.020
57609W        W24018   9.890  32.105  13.036
57610W        W24019   9.769   5.724  14.866
57611W        W24020  21.688  10.806   4.380
57612W        W24021   3.953  13.870  13.787
57613W        W24022  37.488   6.182  13.436
57614W        W24023  32.693  28.132   0.816
57615W        W24024  40.296   6.834  11.008
57616W        W24025  22.975  19.581  13.930
57617W        W24026  17.356  15.340   3.828
57618W        W24027   0.436  23.003   2.176
57619W        W24028  30.077  38.009   0.558
57620W        W24029  30.383  37.115  14.414
57621W        W24030   5.621  32.606  11.200
57622W        W24031  10.593   2.293   1.388
57623W        W24032  29.147  14.239   1.240
57624W        W24033  14.415  19.663  12.537
57625W        W24034  38.936  40.763   3.297
57626W        W24035  24.596  34.057  12.406
57627W        W24036  41.542  35.415   2.266
57628W        W24037  43.135  18.223  13.514
57629W        W24038  23.145   7.198  12.336
57630W        W24039  42.870  22.412   4.571
57631W        W24040   1.410  18.811  13.948
57632W        W24041  37.221  28.123   3.477
57633W        W24042   1.412   5.006  13.010
57634W        W24043  16.282  38.766  12.032
57635W        W24044  12.267  11.194  13.893
57636W        W24045   7.258   9.635   3.941
57637W        W24046   4.242   5.674  14.677
57638W        W24047   2.464  18.813   0.794
57639W        W24048  27.409  17.440   1.929
57640W        W24049   4.691  33.366  12.194
57641W        W24050  23.945   0.968   2.743
57642W        W24051  25.157  31.974  10.246
57643W        W24052  11.786  36.882   1.400
57644W        W24053  43.719  18.686  14.396
57645W        W24054  38.208  18.629  13.543
57646W        W24055  13.236  44.552  13.386
57647W        W24056   4.429   0.917  13.436
57648W        W24057   5.346  29.917  12.574
57649W        W24058  22.044  24.786  11.117
57650W        W24059   6.428  13.290  14.440
57651W        W24060   3.945  33.748   3.645
57652W        W24061   9.722   1.555   2.745
57653W        W24062  11.796   8.582   2.620
57654W        W24063  27.582  30.813   3.766
57655W        W24064  32.895  43.061   3.289
57656W        W24065  34.178  38.605  11.581
57657W        W24066  18.223  27.258   1.407
57658W        W24067   8.830  37.669  14.875
57659W        W24068   5.685  36.058   1.978
57660W        W24069  16.707  37.463   3.496
57661W        W24070  14.613  38.702  13.511
57662W        W24071  44.535   2.789  13.554
57663W        W24072  38.066  31.336   2.777
57664W        W24073  22.885  29.534   4.062
57665W        W24074  30.864  15.462   4.519
57666W        W24075  10.733  40.553   2.194
57667W        W24076  37.252  27.129   2.157
57668W        W24077   1.911  26.695  12.111
57669W        W24078  32.070  21.857  13.450
57670W        W24079  23.492  34.116  14.902
57671W        W24080  12.255  22.560  12.600
57672W        W24081  22.183  11.384  13.908
57673W        W24082  33.429  24.482   3.278
57674W        W24083  28.691  26.685   1.380
57675W        W24084  11.666   6.834  12.415
57676W        W24085  43.272  42.407  14.897
57677W        W24086  28.564  24.063   0.574
57678W        W24087  39.322  32.033  10.722
57679W        W24088  31.324   9.743   0.904
57680W        W24089  13.580  29.240   4.152
57681W        W24090  33.982  28.503  12.165
57682W        W24091  17.080  13.558   4.375
57683W        W24092  25.943   2.313  12.517
57684W        W24093  24.020   8.153  14.308
57685W        W24094  43.434   1.717   0.893
57686W        W24095  35.743  38.474   3.595
57687W        W24096   7.491  35.746  11.644
57688W        W24097  36.080   4.285  12.595
57689W        W24098  41.938  44.784  11.146
57690W        W24099  33.347  20.468   2.570
57691W        W24100  12.745  36.104  14.568
57692W        W24101  21.806   4.250  11.191
57693W        W24102  25.179  42.058   3.754
57694W        W24103  25.585  38.507   3.404
57695W        W24104   4.744  36.047  10.237
57696W        W24105  15.326  34.141  11.161
57697W        W24106  29.580  20.375  11.938
57698W        W24107  18.975  42.110  12.173
57699W        W24108  18.566  43.924   2.654
57700W        W24109   9.293  29.992   1.775
57701W        W24110   2.539   4.204  11.215
57702W        W24111  38.313  22.652   0.092
57703W        W24112  11.147  41.019   1.540
57704W        W24113  36.494  28.188   5.343
57705W        W24114   2.872  28.814  13.437
57706W        W24115  35.380  30.988   4.116
57707W        W24116  32.910   4.068  13.521
57708W        W24117  37.823  39.044  11.019
57709W        W24118   7.630  24.829  13.956
57710W        W24119  10.518  42.563   3.228
57711W        W24120  16.368  42.881  14.391
57712W        W24121   0.706  25.534   3.823
57713W        W24122  25.556   3.579   4.978
57714W        W24123  37.728  11.213  10.394
57715W        W24124  32.480  28.646   3.314
57716W        W24125  30.771   9.168   4.589
57717W        W24126  20.702  44.271   2.810
57718W        W24127  23.744   0.949  12.482
57719W        W24128  21.318  19.019  12.963
57720W        W24129  24.388  33.013  14.928
57721W        W24130  22.054  28.780  12.519
57722W        W24131  13.036  34.790  12.507
57723W        W24132  22.170  35.932   1.260
57724W        W24133  33.189  40.775  12.129
57725W        W24134   0.906  24.614  12.658
57726W        W24135  20.504   8.265  13.704
57727W        W24136  20.822  22.245  11.081
57728W        W24137  30.092  34.748  11.603
57729W        W24138   8.696  14.322  14.316
57730W        W24139  39.019  10.709  11.705
57731W        W24140  21.541  15.285  11.556
57732W        W24141  18.729  18.390  12.391
57733W        W24142  32.922  24.343   3.976
57734W        W24143   3.694  19.672   2.329
57735W        W24144   0.013  19.044   4.140
57736W        W24145   4.936  27.216  12.107
57737W        W24146  32.011  16.105   1.298
57738W        W24147   1.057   8.245   4.325
57739W        W24148  31.388  27.150   1.769
57740W        W24149   1.452  34.501   4.208
57741W        W24150  34.636   2.821   3.033
57742W        W24151   3.202  27.086   3.706
57743W        W24152   1.465  16.626  14.906
57744W        W24153  11.718  18.378  14.317
57745W        W24154  20.851  12.445  12.775
57746W        W24155  17.710  30.189   3.797
57747W        W24156  35.375  18.824  11.114
57748W        W24157  10.046   4.145  13.841
57749W        W24158   5.217  27.241  13.308
57750W        W24159  31.099  13.715  14.027
57751W        W24160   8.377  40.705   1.968
57752W        W24161  16.302  15.532  10.443
57753W        W24162  12.695  19.457  10.335
57754W        W24163  13.830  17.793   1.432
57755W        W24164  22.588  30.255   3.665
57756W        W24165  43.896   5.420  12.224
57757W        W24166  34.953  27.420  12.937
57758W        W24167  42.343  12.256   1.724
57759W        W24168  39.971  30.870  10.395
57760W        W24169  39.144  18.329   0.858
57761W        W24170  41.018  34.121   2.763
57762W        W24171  35.456  22.449   3.812
57763W        W24172  19.627  41.323   0.254
57764W        W24173  30.918  25.133  14.293
57765W        W24174  40.574  21.293  11.071
57766W        W24175  35.017  38.303   1.934
57767W        W24176  43.519  30.418   4.339
57768W        W24177   3.384  20.200  10.776
57769W        W24178  30.651  26.889  13.322
57770W        W24179  31.395  13.214  14.798
57771W        W24180  35.423  38.076   3.671
57772W        W24181  21.067  43.330  13.423
57773W        W24182  13.864  27.480   1.279
57774W        W24183   2.754  19.563   2.261
57775W        W24184  21.177   3.891   4.611
57776W        W24185  39.027  43.230  12.863
57777W        W24186  37.374  32.581  12.675
57778W        W24187  12.936  16.576   4.168
57779W        W24188  17.193  42.880  12.832
57780W        W24189   5.491  41.829   4.155
57781W        W24190  34.859  24.144  13.889
57782W        W24191  40.900  28.958  11.142
57783W        W24192  19.116  16.193  14.766
57784W        W24193  11.326  20.646   2.585
57785W        W24194  32.456  22.028   3.318
57786W        W24195  31.391  34.953  11.183
57787W        W24196  35.103  44.157   0.277
57788W        W24197  30.727   6.320  12.405
57789W        W24198  32.076  15.483  11.652
57790W        W24199   4.307   6.011  12.144
57791W        W24200  12.536  42.293  11.953
57792W        W24201  16.767  38.549  11.318
57793W        W24202  24.607  33.535   0.850
57794W        W24203  14.106   1.494  14.041
57795W        W24204  40.606  42.947  14.380
57796W        W24205  44.304  32.175   0.402
57797W        W24206  11.653   8.902   2.246
57798W        W24207  42.761  22.282  12.488
57799W        W24208  21.664  26.764  11.947
57800W        W24209  13.758  19.782   0.404
57801W        W24210  30.600  43.354  14.615
57802W        W24211  14.567   2.967   0.014
57803W        W24212  24.063  37.345   1.819
57804W        W24213  17.740  37.326   1.369
57805W        W24214  20.147  29.194   2.704
57806W        W24215  25.942  36.340   2.178
57807W        W24216   3.171  35.397  12.846
57808W        W24217   7.501  36.448   1.905
57809W        W24218  17.493  25.170  12.973
57810W        W24219  36.531  34.554   1.777
57811W        W24220  23.751  25.565  14.972
57812W        W24221  17.363  13.677   2.776
57813W        W24222   0.462   3.852   3.972
57814W        W24223   6.928  44.619  13.866
57815W        W24224  37.521  33.529   3.332
57816W        W24225  41.984   2.256   2.566
57817W        W24226   3.821  11.047  14.880
57818W        W24227   0.850  15.383   4.958
57819W        W24228  12.446   9.406   2.018
57820W        W24229  39.447   8.255  12.012
57821W        W24230  24.246  31.952  14.247
57822W        W24231  30.973  33.458  13.192
57823W        W24232  38.559  30.161  14.329
57824W        W24233   3.866  24.566  13.027
57825W        W24234  39.740  38.289   0.820
57826W        W24235  25.805  36.612   0.900
57827W        W24236  32.468  23.511   1.775
57828W        W24237   4.205  19.191   2.656
57829W        W24238  30.567   1.717  11.105
57830W        W24239  38.011   5.863   3.325
57831W        W24240  35.117  25.459   1.921
57832W        W24241  17.074   0.201   1.992
57833W        W24242   9.638  44.906  11.663
57834W        W24243  43.062  15.683  13.296
57835W        W24244  16.156  34.795   2.233
57836W        W24245  16.446  13.773   0.775
57837W        W24246  42.707  19.780  11.244
57838W        W24247  11.924  16.362   2.730
57839W        W24248  29.080  34.446  10.599
57840W        W24249  41.306  29.987   0.289
57841W        W24250  31.889  37.245  10.673
57842W        W24251   0.379  30.043  11.060
57843W        W24252  29.990  44.707   4.435
57844W        W24253   4.191  31.951   4.100
57845W        W24254   4.294  44.031  10.694
57846W        W24255  13.784  17.127   4.787
57847W        W24256  27.245  16.314   4.585
57848W        W24257  30.081  18.760  13.440
57849W        W24258  11.719  28.843   4.490
57850W        W24259  34.296  17.506   3.433
57851W        W24260  37.412  18.347  12.577
57852W        W24261   8.134  18.563  11.190
57853W        W24262  19.661  11.903   3.700
57854W        W24263  22.427   8.061   2.821
57855W        W24264  34.819  41.747  12.556
57856W        W24265  13.170   4.225   3.214
57857W        W24266  41.996  44.008   4.728
57858W        W24267  35.650  34.122   0.850
57859W        W24268   2.870  14.690  13.534
57860W        W24269   5.935  33.026   4.674
57861W        W24270  33.648  16.662   4.159
57862W        W24271  24.268  34.539   2.643
57863W        W24272  25.098  33.405  14.076
57864W        W24273  14.053  24.131   0.290
57865W        W24274   1.436  24.219   1.605
57866W        W24275  42.961  14.860  14.749
57867W        W24276  30.124  40.796  14.992
57868W        W24277  34.985  15.185  11.017
57869W        W24278   0.437  11.933  11.592
57870W        W24279  19.509  11.440   2.880
57871W        W24280  25.535  33.617   2.198
57872W        W24281  39.602  41.118  12.546
57873W        W24282  19.186  18.367  12.035
57874W        W24283  25.742  28.991   3.030
57875W        W24284  44.211  21.178   0.195
57876W        W24285  17.284  10.980   0.043
57877W        W24286  24.947   2.228  14.410
57878W        W24287   3.794  27.346  13.102
57879W        W24288  21.368  38.004  11.572
57880W        W24289   5.591  10.630   4.100
57881W        W24290  42.114  17.644  14.093
57882W        W24291  29.685   5.341  14.258
57883W        W24292   5.944  36.862  12.975
57884W        W24293  39.898   9.531   4.297
57885W        W24294  30.835  25.941  11.141
57886W        W24295   4.730  34.837  12.541
57887W        W24296  36.252  26.208  14.696
57888W        W24297  34.120  21.686  10.723
57889W        W24298  30.789  32.376  11.748
57890W        W24299  10.919  30.082  14.551
57891W        W24300  28.843  12.649  10.907
57892W        W24301   9.059   3.967  10.747
57893W        W24302  20.139  28.561   4.748
57894W        W24303  40.827  33.844   1.247
57895W        W24304  39.518  39.035   0.175
57896W        W24305   2.207  15.092  12.637
57897W        W24306  30.630   5.397   3.755
57898W        W24307  20.654  25.516  14.918
57899W        W24308  28.714  31.181  14.881
57900W        W24309   5.236   4.943   0.302
57901W        W24310   0.519  39.634  11.501
57902W        W24311  30.065   3.643  12.419
57903W        W24312  12.439  14.569  13.591
57904W        W24313   1.811  39.455   4.662
57905W        W24314  20.395  20.559  10.688
57906W        W24315  37.743  37.036  12.220
57907W        W24316  20.068  22.254  12.965
57908W        W24317  24.482  32.630   3.522
57909W        W24318  28.889  19.304   0.091
57910W        W24319  33.283  20.542  10.705
57911W        W24320   7.177  10.627  12.099
57912W        W24321  42.777  11.764  11.522
57913W        W24322  10.325  14.675   2.847
57914W        W24323  18.000  40.098  13.934
57915W        W24324   2.292   9.131   2.652
57916W        W24325   2.994  25.014  13.838
57917W        W24326   0.182  32.078  14.421
57918W        W24327  32.686  36.060   0.321
57919W        W24328   9.320  43.656   3.142
57920W        W24329  12.714  18.101   0.899
57921W        W24330  30.015  37.152   0.660
57922W        W24331  25.688  28.672  13.420
57923W        W24332  16.359  30.147  12.996
57924W        W24333  23.999   8.983   0.943
57925W        W24334  31.418   9.231   1.693
57926W        W24335  17.322   2.118  10.333
57927W        W24336  10.344   9.639  13.823
57928W        W24337  41.938   0.180   0.938
57929W        W24338   7.677  33.933  10.610
57930W        W24339   9.230  36.998   2.630
57931W        W24340  29.877  17.027   0.470
57932W        W24341   9.375   1.470  12.476
57933W        W24342  21.547  33.383  10.726
57934W        W24343  37.273  43.368  10.813
57935W        W24344  34.455   0.532   1.274
57936W        W24345  24.272  20.041  13.312
57937W        W24346  33.683  38.383  14.005
57938W        W24347  43.311  30.641  14.846
57939W        W24348   4.990  20.478  11.176
57940W        W24349  28.699  15.346  11.174
57941W        W24350  40.332  40.456  13.345
57942W        W24351  27.954   8.398   0.062
57943W        W24352   2.131  23.579   1.885
57944W        W24353   7.260  36.388  12.460
57945W        W24354  26.019  37.417   4.152
57946W        W24355  31.047   0.821  10.914
57947W        W24356   4.902  41.695  12.015
57948W        W24357  25.110  16.010   3.962
57949W        W24358  15.121   8.575   1.254
57950W        W24359  38.114  15.159   3.531
57951W        W24360  17.617  39.408   0.197
57952W        W24361  38.847  43.836  11.452
57953W        W24362  44.464  35.493  13.904
57954W        W24363   4.442   9.363  13.910
57955W        W24364   6.157  18.343   4.932
57956W        W24365   3.907   2.329  12.551
57957W        W24366  22.564   0.811  13.080
57958W        W24367  19.584  38.011  12.085
57959W        W24368  29.957   0.742   1.783
57960W        W24369   1.223   1.977   0.042
57961W        W24370  37.580  12.541   0.326
57962W        W24371   2.980  38.498  11.129
57963W        W24372  42.630  12.689  11.948
57964W        W24373  17.676  34.804   0.075
57965W        W24374  30.080  19.740  14.998
57966W        W24375  10.288  40.033   2.806
57967W        W24376  37.858   9.707   3.307
57968W        W24377  33.402  22.006   2.418
57969W        W24378  21.581  38.627  14.043
57970W        W24379  35.068  27.669  10.777
57971W        W24380  41.392  11.802  11.123
57972W        W24381   3.717  38.292  12.350
57973W        W24382  23.906  18.353  11.141
57974W        W24383  29.649   2.764   1.849
57975W        W24384  28.158   3.766   2.359
57976W        W24385  24.969  12.691   3.273
57977W        W24386  23.184  33.216   4.674
57978W        W24387  25.212  10.212  11.181
57979W        W24388   3.767  40.024   3.238
57980W        W24389  43.982  22.090  11.977
57981W        W24390  37.077  22.652   1.467
57982W        W24391   3.494  11.837  10.363
57983W        W24392  17.950  35.883   1.158
57984W        W24393  10.790  29.386   0.282
57985W        W24394   6.230  31.218   1.913
57986W        W24395  19.116  29.442  11.538
57987W        W24396  42.708  33.049   3.096
57988W        W24397  31.971  39.125  12.479
57989W        W24398  22.284  25.540  14.879
57990W        W24399  30.053  12.566  13.014
57991W        W24400  22.104   9.446  14.447
57992W        W24401  15.685  33.889  11.509
57993W        W24402  37.586  39.843  12.910
57994W        W24403  16.227  19.176  10.730
57995W        W24404  20.414  42.014   1.851
57996W        W24405  28.126  43.760   4.503
57997W        W24406  37.374  15.152  10.236
57998W        W24407  31.704  40.977  14.306
57999W        W24408  28.523  40.505  13.397
58000W        W24409  20.110  39.304  10.959
58001W        W24410  14.275  14.739  12.986
58002W        W24411  34.654   2.322   3.189
58003W        W24412  37.948  31.924   1.313
58004W        W24413  44.636  28.392   4.122
58005W        W24414   7.099  36.544   4.155
58006W        W24415  35.631   4.779   4.577
58007W        W24416  37.534  33.705  12.991
58008W        W24417  16.739  10.790   4.615
58009W        W24418  24.151  24.749  12.898
58010W        W24419  42.334  19.802  11.981
58011W        W24420   3.824   1.450   0.692
58012W        W24421  16.590  11.694  12.973
58013W        W24422  34.826   1.674   2.883
58014W        W24423  30.656  21.567   4.029
58015W        W24424  20.672   5.284   0.557
58016W        W24425  43.191  40.847  11.972
58017W        W24426  13.095  41.352   1.844
58018W        W24427  15.786  13.415  11.671
58019W        W24428   6.669  18.710   1.599
58020W        W24429  42.893   3.882  13.499
58021W        W24430  16.214   5.751  10.762
58022W        W24431  40.338   3.388  11.666
58023W        W24432   1.929   9.203  13.481
58024W        W24433   1.226  32.192  14.378
58025W        W24434  20.297  43.569  11.506
58026W        W24435  34.463  25.276  12.857
58027W        W24436  18.629  22.416   1.270
58028W        W24437  42.772   0.425   3.382
58029W        W24438  13.202  38.146   1.480
58030W        W24439  19.067  44.859   4.095
58031W        W24440   4.987  35.234   2.804
58032W        W24441  28.646  19.491  14.664
58033W        W24442  29.739   1.484  10.663
58034W        W24443   7.163  40.013   2.816
58035W        W24444  11.802   5.321  10.884
58036W        W24445  12.694  25.679   3.691
58037W        W24446   4.679  10.054  12.211
58038W        W24447  29.146   2.781  10.291
58039W        W24448  26.333  19.871   2.317
58040W        W24449  36.871  35.352   1.435
58041W        W24450  38.493  19.104  11.128
58042W        W24451  36.012  39.316  11.192
58043W        W24452  12.228  38.287   2.178
58044W        W24453  25.784  37.124   0.716
58045W        W24454   3.475  38.272   1.243
58046W        W24455  37.324  33.225   4.082
58047W        W24456  40.909  19.054  12.945
58048W        W24457  10.119  13.417  12.677
58049W        W24458  11.733  42.728  10.705
58050W        W24459  37.111  20.991  12.978
58051W        W24460   5.449  41.829  13.441
58052W        W24461   7.896  32.155  14.919
58053W        W24462  23.205  16.824   2.644
58054W        W24463  15.788  15.768   3.734
58055W        W24464  38.362  44.039  11.532
58056W        W24465  33.041  43.393  10.569
58057W        W24466  30.966  44.764   2.729
58058W        W24467  15.083  29.074  12.044
58059W        W24468  36.519  39.617   0.868
58060W        W24469  27.603   6.010  14.998
58061W        W24470  10.143  11.842  14.073
58062W        W24471  44.972  27.697  12.187
58063W        W24472  40.391  41.672  10.332
58064W        W24473   7.746  40.756  12.457
58065W        W24474   5.930  29.081  11.930
58066W        W24475  11.320  32.394  12.771
58067W        W24476  33.384  31.790   0.781
58068W        W24477  38.343   5.410   2.382
58069W        W24478  24.599   4.402   4.667
58070W        W24479  31.142  31.282  14.038
58071W        W24480  36.284  21.686   0.916
58072W        W24481   7.180  33.840   3.737
58073W        W24482  31.985  13.289   2.608
58074W        W24483  26.102  24.699   3.510
58075W        W24484   5.743  39.401   1.107
58076W        W24485  26.717  25.285   2.756
58077W        W24486  11.592   8.591  10.643
58078W        W24487  35.670  44.322   2.791
58079W        W24488  13.011  21.894   5.301
58080W        W24489  30.590  19.605  14.017
58081W        W24490   4.146  11.883   0.348
58082W        W24491  14.049  23.922  11.543
58083W        W24492  34.402  43.805   1.669
58084W        W24493  21.729  37.998   2.228
58085W        W24494  22.723  14.048  14.815
58086W        W24495   7.368   8.203  11.950
58087W        W24496  25.127  36.993  12.269
58088W        W24497  32.873  28.130   3.978
58089W        W24498  17.537  11.727  10.657
58090W        W24499  44.320  29.170  11.487
58091W        W24500  39.846  34.949   2.178
58092W        W24501  17.656  35.447  10.828
58093W        W24502  27.187  32.931   4.123
58094W        W24503  27.671  38.589  13.956
58095W        W24504  34.634  42.469  11.953
58096W        W24505  14.475  31.322   0.073
58097W        W24506  20.463   0.016   4.541
58098W        W24507   1.673  16.169  12.830
58099W        W24508  41.590  43.752   0.701
58100W        W24509   9.473  25.810   3.344
58101W        W24510  25.280  27.074  14.791
58102W        W24511  42.668   6.899  12.107
58103W        W24512  40.095  44.105   2.915
58104W        W24513  29.621   6.408   2.763
58105W        W24514  37.052   2.698  14.881
58106W        W24515  39.606  27.140   1.528
58107W        W24516  11.127   2.712  14.458
58108W        W24517  26.099  31.186  14.865
58109W        W24518  36.768   1.213   0.888
58110W        W24519  20.154  12.895  13.512
58111W        W24520  12.147  27.737   0.127
58112W        W24521  28.495   4.247  11.628
58113W        W24522  43.804  14.150   0.331
58114W        W24523  41.967  34.522   4.597
58115W        W24524   4.772  33.943   3.132
58116W        W24525   5.425  23.915   3.793
58117W        W24526   7.905  35.328  13.001
58118W        W24527   3.766  43.490  12.174
58119W        W24528  16.189  41.617   4.621
58120W        W24529  38.215  33.596   1.644
58121W        W24530  22.502  12.892   2.283
58122W        W24531  18.563  35.146   1.157
58123W        W24532  41.346   8.665   3.206
58124W        W24533   3.348  13.290  12.379
58125W        W24534  19.085  41.482  14.942
58126W        W24535  37.439  17.173   2.350
58127W        W24536  23.501  37.515   0.712
58128W        W24537   2.669  36.589   4.071
58129W        W24538  28.110   5.162  13.859
58130W        W24539   0.346  24.267  13.294
58131W        W24540  14.828  20.078  10.215
58132W        W24541   9.433   5.720  12.498
58133W        W24542  41.379  31.984  10.279
58134W        W24543   0.905  36.436  14.444
58135W        W24544  16.986   0.533   4.256
58136W        W24545   4.023  34.829   1.369
58137W        W24546  16.268   9.161  12.118
58138W        W24547  38.891  10.571  14.209
58139W        W24548  43.520  41.385  14.301
58140W        W24549  20.655   5.667   3.198
58141W        W24550   3.037  43.719  12.874
58142W        W24551  14.160   0.542   5.132
58143W        W24552  19.238   5.827   3.654
58144W        W24553  10.157  12.921   4.583
58145W        W24554  23.482   3.709   2.000
58146W        W24555  24.060  13.117  14.060
58147W        W24556  32.526   0.907  10.780
58148W        W24557  12.129  34.435  14.970
58149W        W24558  21.643  28.765  14.314
58150W        W24559  24.472   1.508  11.065
58151W        W24560  18.655  44.908  13.575
58152W        W24561  29.106  42.845   1.888
58153W        W24562  14.906  35.562  13.469
58154W        W24563  15.115  29.432  11.566
58155W        W24564   8.663  10.290  11.236
58156W        W24565  44.599  18.432  14.014
58157W        W24566  16.015  37.072   1.329
58158W        W24567  17.746   9.508  12.649
58159W        W24568   0.512  39.001   2.780
58160W        W24569   8.240  32.080   1.876
58161W        W24570   0.810  44.604   3.968
58162W        W24571  14.114  16.241   3.879
58163W        W24572  14.713   1.771  10.733
58164W        W24573   1.175  42.198  14.845
58165W        W24574  38.374   5.083  13.299
58166W        W24575  24.101  30.203  10.791
58167W        W24576  37.833  22.090   3.843
58168W        W24577   9.749  23.230  13.952
58169W        W24578  19.370  24.656   0.930
58170W        W24579   7.598  42.379   2.765
58171W        W24580  33.752  11.801  11.511
58172W        W24581  18.507  12.796  10.376
58173W        W24582  24.935  14.642   3.755
58174W        W24583  43.909  25.659  10.649
58175W        W24584   1.859  18.086   0.825
58176W        W24585   4.294  32.520   4.074
58177W        W24586  41.666  17.691   0.719
58178W        W24587  25.403   1.332  13.861
58179W        W24588  35.166   5.722  10.727
58180W        W24589  11.503  34.854  13.269
58181W        W24590  32.037   1.261  13.885
58182W        W24591  32.983   0.524  11.563
58183W        W24592   5.535  34.996  13.724
58184W        W24593   3.828  34.582   0.118
58185W        W24594  38.428  30.234   1.324
58186W        W24595  12.603  21.348  10.236
58187W        W24596   6.263   0.358  14.898
58188W        W24597  14.203  20.553   3.857
58189W        W24598   4.745  12.182   2.902
58190W        W24599  37.565  13.616   0.480
58191W        W24600  44.592  21.509  13.934
58192W        W24601  26.343   2.586  12.899
58193W        W24602  16.091  31.697   3.473
58194W        W24603  38.246  35.247  12.054
58195W        W24604  27.871  33.935   3.695
58196W        W24605  37.768  36.110   3.772
58197W        W24606  41.955  12.590  10.373
58198W        W24607  18.796  13.069  11.612
58199W        W24608   2.179  36.904  12.932
58200W        W24609  19.410  36.101  13.837
58201W        W24610  11.908  19.018   0.504
58202W        W24611  24.153  38.673  14.908
58203W        W24612   8.459   1.540   2.379
58204W        W24613  12.294  32.532  12.326
58205W        W24614  11.721  25.718  11.772
58206W        W24615  41.217   3.518   0.274
58207W        W24616   4.900  20.240  10.384
58208W        W24617   2.971  24.015  13.523
58209W        W24618  33.165  38.633   0.509
58210W        W24619  13.306  24.500   4.585
58211W        W24620  11.231  39.115   0.328
58212W        W24621  44.086   1.865  13.436
58213W        W24622  39.146  12.074   1.952
58214W        W24623  34.171  16.252  13.447
58215W        W24624  20.048  34.418  13.017
58216W        W24625  21.758  17.660  13.786
58217W        W24626  22.128  20.534   3.723
58218W        W24627  43.249  23.663  13.925
58219W        W24628  30.706  23.688  11.657
58220W        W24629  41.611  40.902   3.246
58221W        W24630   0.678  40.249   0.941
58222W        W24631  43.099  27.206   1.390
58223W        W24632   5.218  16.719   0.315
58224W        W24633  24.020   3.466   4.359
58225W        W24634   6.620  23.713   0.430
58226W        W24635  44.355  39.530   2.733
58227W        W24636  21.737  21.866   0.087
58228W        W24637   7.441  11.235  14.441
58229W        W24638  44.825   8.804  13.628
58230W        W24639  20.880  20.689   3.301
58231W        W24640   4.891  27.800   5.043
58232W        W24641  37.836  28.306   3.267
58233W        W24642  27.084  27.065   1.367
58234W        W24643  10.756   2.908  12.129
58235W        W24644  34.650  39.311  11.982
58236W        W24645  30.955  23.963   1.823
58237W        W24646  27.886  11.859  14.434
58238W        W24647  42.145  12.738  12.627
58239W        W24648   0.225   4.711   2.208
58240W        W24649  24.648  36.168  10.778
58241W        W24650  43.558  35.200  13.011
58242W        W24651  41.013   1.410  14.548
58243W        W24652  42.058   9.187   3.590
58244W        W24653  37.280  40.429   2.310
58245W        W24654   6.177  19.834   4.508
58246W        W24655   0.411  31.803   0.707
58247W        W24656   4.013  11.150   1.264
58248W        W24657  24.495   5.600  14.873
58249W        W24658  21.494  23.067   2.849
58250W        W24659   3.317  11.608   0.402
58251W        W24660  16.383  13.507   3.033
58252W        W24661  26.647   3.539  10.770
58253W        W24662  41.830  36.963   3.292
58254W        W24663  17.891   0.558   4.059
58255W        W24664  16.292  10.833  11.102
58256W        W24665  44.853  29.190  11.993
58257W        W24666  23.573  23.337   4.516
58258W        W24667   5.928  29.407   4.751
58259W        W24668  15.349  36.346  12.217
58260W        W24669  14.674   2.393   0.105
58261W        W24670  25.190  38.229   2.591
58262W        W24671  19.761   5.001   4.546
58263W        W24672   2.350  12.833  12.134
58264W        W24673  28.451  26.206   3.274
58265W        W24674  31.230  20.810   0.708
58266W        W24675  12.858   8.773   3.776
58267W        W24676  14.563  33.868  12.172
58268W        W24677   3.495  25.121  14.841
58269W        W24678  41.947   5.694  12.503
58270W        W24679  26.686  18.901  10.895
58271W        W24680  21.005  32.023   0.269
58272W        W24681  21.196  14.860  11.544
58273W        W24682  21.229  30.109   0.898
58274W        W24683  34.101  18.345  11.255
58275W        W24684  37.993  41.150  14.452
58276W        W24685  12.271  30.108   1.486
58277W        W24686  37.999   1.021   2.899
58278W        W24687  41.316  43.292   0.305
58279W        W24688  16.745  18.341   2.737
58280W        W24689  28.668   2.193  10.598
58281W        W24690  21.097  25.709  12.067
58282W        W24691   3.149  33.340  12.154
58283W        W24692  39.914  14.094  12.996
58284W        W24693  15.024   5.305   1.393
58285W        W24694  19.518  15.726  11.683
58286W        W24695  34.647  34.199  14.110
58287W        W24696   8.139  30.974   3.566
58288W        W24697  17.921  28.051  13.325
58289W        W24698  32.096  34.435  10.366
58290W        W24699  31.986   2.888  11.381
58291W        W24700  44.339  14.804   0.825
58292W        W24701  24.497  13.892  13.106
58293W        W24702   7.442  40.916   1.876
58294W        W24703  17.557  37.483   0.897
58295W        W24704  25.782  19.255   4.673
58296W        W24705  22.181  38.460  12.444
58297W        W24706  35.062  17.568  12.883
58298W        W24707  32.613  32.829   4.523
58299W        W24708  41.621   3.504  13.333
58300W        W24709  44.284  33.800   1.532
58301W        W24710  26.052  29.479  10.624
58302W        W24711  28.774  31.862  11.186
58303W        W24712  44.920  44.021   1.245
58304W        W24713  10.564  39.268  11.173
58305W        W24714  30.538   6.194  11.954
58306W        W24715  24.890   9.268  10.303
58307W        W24716  39.400  16.352  12.085
58308W        W24717   7.294  13.327   4.295
58309W        W24718  26.415  16.644  11.468
58310W        W24719  30.005  14.651   3.594
58311W        W24720  32.327   7.695  13.796
58312W        W24721  42.585  31.435  11.530
58313W        W24722  19.645   3.594  14.490
58314W        W24723   1.537  40.099   3.257
58315W        W24724  44.795  19.300   2.642
58316W        W24725   7.582  29.033  10.196
58317W        W24726  22.035  27.423  10.517
58318W        W24727  34.981  10.791  11.952
58319W        W24728  23.630  11.627   4.253
58320W        W24729  22.677  21.356  10.101
58321W        W24730  43.003  32.837  11.919
58322W        W24731  41.958  30.484  14.250
58323W        W24732  18.607   3.174   5.036
58324W        W24733  15.131  35.116  12.031
58325W        W24734   4.933   3.196   0.578
58326W        W24735  44.959  14.093   1.983
58327W        W24736  15.994  31.729  12.219
58328W        W24737  28.678  43.891  11.496
58329W        W24738   7.191  15.500  13.775
58330W        W24739   7.665  20.249  12.677
58331W        W24740   4.219  25.246  13.610
58332W        W24741  42.909  42.290  11.896
58333W        W24742  18.822   2.051   4.966
58334W        W24743   8.145  17.548   0.268
58335W        W24744   9.809  43.560  13.862
58336W        W24745  37.320   9.986   4.219
58337W        W24746  41.952  23.316   2.395
58338W        W24747  37.239   9.715   0.399
58339W        W24748  22.548   6.639   2.846
58340W        W24749   6.534   3.068  13.166
58341W        W24750  39.163  32.506  12.867
58342W        W24751  40.471   0.601  14.569
58343W        W24752  22.069  35.399   4.686
58344W        W24753  11.156  44.885  10.588
58345W        W24754  17.758   3.194   3.783
58346W        W24755   6.054   7.788   3.542
58347W        W24756   3.916  21.603   0.876
58348W        W24757  24.796  27.954   0.636
58349W        W24758  44.384  21.105   4.273
58350W        W24759  26.684  25.227  14.376
58351W        W24760   9.112  44.251   0.191
58352W        W24761  31.957  11.447  12.941
58353W        W24762   2.495  28.848  14.923
58354W        W24763   7.087   6.703   4.493
58355W        W24764  15.240  18.252   1.743
58356W        W24765  32.609  34.877   3.748
58357W        W24766  38.639  44.246   3.737
58358W        W24767   4.030   3.870  14.411
58359W        W24768   8.455  24.993   2.821
58360W        W24769  35.322   5.933   1.948
58361W        W24770   4.660  43.465  13.875
58362W        W24771   2.828  21.938  13.365
58363W        W24772  13.751  22.224  11.318
58364W        W24773   7.348  26.559  10.668
58365W        W24774  42.473   7.925   4.085
58366W        W24775  19.942  23.256  13.054
58367W        W24776  10.107  38.627   1.325
58368W        W24777  37.168   8.278  10.702
58369W        W24778  26.018  39.056  10.750
58370W        W24779  44.870  19.955   1.206
58371W        W24780  32.561  23.242   4.129
58372W        W24781  11.815  29.048   1.956
58373W        W24782  13.378   3.227   1.429
58374W        W24783  33.938  18.567   4.603
58375W        W24784  18.012   4.875  11.704
58376W        W24785  34.606  37.973  13.533
58377W        W24786  18.065  40.251   0.415
58378W        W24787  36.415  23.910  11.054
58379W        W24788  17.701  30.943  14.419
58380W        W24789  17.626  31.112   0.519
58381W        W24790   0.625  31.358   3.133
58382W        W24791   2.224  15.726   4.028
58383W        W24792  29.756  42.318   0.687
58384W        W24793  16.162  18.117  11.315
58385W        W24794   6.886  21.374  14.612
58386W        W24795   2.266  41.745   3.351
58387W        W24796   4.733  34.557  13.275
58388W        W24797  14.151   9.809  12.938
58389W        W24798  17.826  43.987   3.316
58390W        W24799   3.474   3.247  12.815
58391W        W24800   6.979  32.748  14.820
58392W        W24801   8.824   9.680  12.431
58393W        W24802  29.899  39.318  12.431
58394W        W24803  32.815   8.547   0.791
58395W        W24804  32.512  10.682  11.959
58396W        W24805  20.170   2.358  13.827
58397W        W24806  30.601  31.373   0.828
58398W        W24807  33.522  33.391  12.099
58399W        W24808  12.820  40.672  13.594
58400W        W24809  38.416  23.158  11.200
58401W        W24810  24.111  32.448   2.273
58402W        W24811  13.683  36.969  14.295
58403W        W24812  24.916  37.326   0.319
58404W        W24813  44.959  30.356  12.506
58405W        W24814  16.093  44.850  10.559
58406W        W24815   6.769  16.644   2.751
58407W        W24816  33.638  11.820   5.035
58408W        W24817   8.890  29.136   1.803
58409W        W24818  10.820  19.388   0.897
58410W        W24819  10.540  41.580   3.709
58411W        W24820  23.179  22.697   5.308
58412W        W24821   7.554  18.183  13.100
58413W        W24822   4.209  22.940  11.094
58414W        W24823  42.863  18.965  11.787
58415W        W24824  12.881  34.916  10.656
58416W        W24825  24.963   9.702  12.507
58417W        W24826  23.268  34.526   2.571
58418W        W24827  34.347  44.823  11.460
58419W        W24828  30.684  44.424   1.934
58420W        W24829  24.427  36.290   3.443
58421W        W24830  16.690  13.395   3.433
58422W        W24831  43.289   5.366  13.512
58423W        W24832  21.713  26.882  13.490
58424W        W24833  13.046  18.291   1.863
58425W        W24834  25.656  20.662   4.325
58426W        W24835  28.145  38.758  11.629
58427W        W24836  14.388   7.280   1.893
58428W        W24837  35.016   0.273   3.548
58429W        W24838  14.802  23.892  13.837
58430W        W24839   9.408  43.914   3.944
58431W        W24840  31.063  24.979  10.615
58432W        W24841  35.021   3.475  10.878
58433W        W24842  28.152  29.375  14.398
58434W        W24843  14.363  30.671  13.004
58435W        W24844  31.054   2.838  12.924
58436W        W24845   3.476  40.911  12.646
58437W        W24846  38.012  30.450  11.117
58438W        W24847  12.384  10.311   0.257
58439W        W24848   0.443   9.599  14.810
58440W        W24849  17.765  29.448  10.451
58441W        W24850  27.389   6.113   4.187
58442W        W24851  17.183  31.445  11.584
58443W        W24852   2.481  15.819   1.844
58444W        W24853   7.098   7.673  14.945
58445W        W24854   0.546  12.781  14.492
58446W        W24855  31.015  25.002  12.870
58447W        W24856  23.535   8.749   0.845
58448W        W24857  22.661  28.707   1.336
58449W        W24858  44.804  11.412   4.051
58450W        W24859  23.208  42.666  11.096
58451W        W24860  25.829   9.877  11.570
58452W        W24861  14.748   3.238  13.474
58453W        W24862  42.241  44.451  13.412
58454W        W24863  23.249  38.478  14.266
58455W        W24864  19.537   6.933  10.916
58456W        W24865   5.869  26.958   3.393
58457W        W24866  27.911  23.234   1.524
58458W        W24867  28.264  35.293  11.654
58459W        W24868  17.251  10.935  12.431
58460W        W24869  43.641  13.080  12.040
58461W        W24870   9.189  44.153  11.366
58462W        W24871   3.027  29.375   2.836
58463W        W24872  37.634  28.204  13.884
58464W        W24873  38.862  29.508   4.426
58465W        W24874  27.585  30.670  14.362
58466W        W24875   6.220  32.870   2.142
58467W        W24876  29.157  39.006   2.654
58468W        W24877  20.193   3.284   0.899
58469W        W24878  29.440  17.529  13.125
58470W        W24879  19.907   9.394  13.460
58471W        W24880  35.663   3.476   4.983
58472W        W24881  21.527   9.951  13.095
58473W        W24882  39.959  26.982   0.537
58474W        W24883   9.302  33.054  11.726
58475W        W24884   1.289  35.546  12.449
58476W        W24885   4.633  36.501   3.722
58477W        W24886  39.947  29.914   0.307
58478W        W24887  26.029  19.619   3.436
58479W        W24888  35.414  24.634  11.794
58480W        W24889   2.494  16.490  13.920
58481W        W24890  34.698  17.866   4.301
58482W        W24891   0.030  23.241   1.955
58483W        W24892   6.306   1.817  12.502
58484W        W24893  44.797   8.014   0.353
58485W        W24894  36.397  43.857  10.786
58486W        W24895   0.320  28.950  11.761
58487W        W24896  12.345   6.090  12.419
58488W        W24897  29.103  16.635  11.208
58489W        W24898  22.213  29.177   4.143
58490W        W24899  20.964   7.831   3.214
58491W        W24900  38.464  38.656   1.235
58492W        W24901  18.763   1.000  10.827
58493W        W24902  42.087  23.630   1.788
58494W        W24903  19.393  36.108  12.992
58495W        W24904  43.882  39.074  13.257
58496W        W24905  39.496  36.537  11.564
58497W        W24906  37.799  34.973  13.343
58498W        W24907  21.185  41.956   0.766
58499W        W24908   3.406   9.710  13.148
58500W        W24909  38.817  17.737   3.071
58501W        W24910  14.790  32.037   1.694
58502W        W24911  28.611  44.901  14.620
58503W        W24912  16.261   3.650   2.236
58504W        W24913  34.526  26.914  14.949
58505W        W24914  28.725  33.786   4.436
58506W        W24915   7.066  14.355   0.789
58507W        W24916   4.720   0.007   3.236
58508W        W24917  26.357  18.407  10.171
58509W        W24918  33.366  12.568  14.299
58510W        W24919   3.636  36.105  12.625
58511W        W24920  27.246   5.247   0.815
58512W        W24921  27.167  41.005   3.203
58513W        W24922  31.715  13.180  10.656
58514W        W24923   3.927  35.391   0.743
58515W        W24924  33.326  28.485  14.081
58516W        W24925  23.743  14.333   3.146
58517W        W24926  36.541  17.803  10.649
58518W        W24927  44.292  12.169  14.005
58519W        W24928  30.379  10.257  12.074
58520W        W24929  19.758  12.696   0.261
58521W        W24930  16.037   2.730   4.118
58522W        W24931   2.394   9.151   0.759
58523W        W24932  31.527  26.187  10.459
58524W        W24933  39.366  24.464  12.830
58525W        W24934  12.651   5.190   3.891
58526W        W24935  14.780   8.323   4.553
58527W        W24936   3.232   1.774   1.759
58528W        W24937  14.063  33.809   4.114
58529W        W24938  12.792  14.633   4.722
58530W        W24939  30.672  35.460   3.352
58531W        W24940  16.977  29.174  14.804
58532W        W24941   1.850   6.943   2.378
58533W        W24942  32.760   0.453   1.398
58534W        W24943  23.098  32.697   1.475
58535W        W24944  18.175  11.196  13.061
58536W        W24945  22.180  41.312  13.052
58537W        W24946  24.931   5.779   0.850
58538W        W24947  43.018  33.006   4.481
58539W        W24948  28.403  12.161   0.010
58540W        W24949  21.565   4.163  13.104
58541W        W24950  32.546   9.114  10.963
58542W        W24951  25.954  22.200  13.996
58543W        W24952   7.620  31.165  10.369
58544W        W24953  21.586  14.360  12.147
58545W        W24954  23.245  28.388   0.269
58546W        W24955  21.260  42.000  11.584
58547W        W24956  33.078  35.773   2.272
58548W        W24957  11.806   1.889  12.061
58549W        W24958   7.660  34.283  13.048
58550W        W24959  43.340  41.200   5.126
58551W        W24960  35.619   9.841  10.736
58552W        W24961   3.291   6.368   0.368
58553W        W24962  40.961  35.585  12.547
58554W        W24963  13.272  17.270  14.833
58555W        W24964  12.918   6.309   0.752
58556W        W24965  14.435  30.415  10.800
58557W        W24966   1.817  26.046   0.912
58558W        W24967   3.263   6.866  13.407
58559W        W24968  32.601  15.047  14.433
58560W        W24969  31.077   9.727  14.672
58561W        W24970  39.068  26.705   2.235
58562W        W24971  17.245   6.800   4.632
58563W        W24972  27.369   5.279  11.904
58564W        W24973  13.708   0.258   5.302
58565W        W24974   4.319   3.192   0.999
58566W        W24975  20.271  39.354  14.740
58567W        W24976  12.290  11.160  11.250
58568W        W24977  12.724   8.724   3.276
58569W        W24978  22.797   9.869   0.483
58570W        W24979  16.880  43.948   3.195
58571W        W24980  16.502  18.706  12.500
58572W        W24981  30.373  38.787   0.803
58573W        W24982  26.039  10.258   0.621
58574W        W24983   9.276   9.609  14.839
58575W        W24984  31.982  31.706   4.099
58576W        W24985  24.774  32.194  11.204
58577W        W24986  43.365  32.018   2.628
58578W        W24987   7.380   3.853   4.119
58579W        W24988  38.458  36.864  12.360
58580W        W24989  29.046   6.254   1.432
58581W        W24990  32.237  32.868  11.985
58582W        W24991  21.094  21.226   3.629
58583W        W24992  31.094  28.999   2.386
58584W        W24993   3.695  44.805   0.469
58585W        W24994  22.351  44.425   1.431
58586W        W24995  36.220   8.114  11.066
58587W        W24996  35.370  14.546  14.723
58588W        W24997  28.153  22.659   3.305
58589W        W24998  28.919  22.164  14.468
58590W        W24999  42.169  31.110   1.373
58591W        W25000  37.913  12.052  10.649
58592W        W25001   2.926  37.897   2.456
58593W        W25002  23.098  36.267   2.858
58594W        W25003  43.246  42.480  14.010
58595W        W25004  18.961  28.546  13.586
58596W        W25005  31.107  14.937   3.917
58597W        W25006  37.650   1.185   4.552
58598W        W25007  12.810   8.690  11.027
58599W        W25008  28.879  34.370   0.390
58600W        W25009  11.163  39.445  13.298
58601W        W25010  15.791  34.501   4.514
58602W        W25011  20.797  32.943   1.860
58603W        W25012  22.711   1.948  10.636
58604W        W25013  40.427   9.656  11.266
58605W        W25014  33.226  14.634   2.854
58606W        W25015  42.834  23.755  12.987
58607W        W25016   9.753  29.433  11.913
58608W        W25017  10.223  40.021  14.466
58609W        W25018  10.807   4.036   0.586
58610W        W25019   0.323  33.888   0.787
58611W        W25020  35.566  12.113   1.364
58612W        W25021  20.743  20.545  14.818
58613W        W25022  25.598  23.454  11.451
58614W        W25023   8.249  14.947  13.807
58615W        W25024  12.147   7.906  11.071
58616W        W25025  21.776  30.510  12.849
58617W        W25026  38.835  24.491  14.913
58618W        W25027  14.672  35.914   2.822
58619W        W25028   4.206  43.580   2.756
58620W        W25029  31.888   6.290  11.636
58621W        W25030   2.309  33.850  12.988
58622W        W25031  43.857  13.810   1.801
58623W        W25032   9.794  41.950   0.849
58624W        W25033  14.646  13.249  10.690
58625W        W25034   9.394   9.367  11.064
58626W        W25035   1.096  15.718   5.263
58627W        W25036  34.805   1.766   1.192
58628W        W25037  30.187  11.956   2.268
58629W        W25038  13.221  15.856   1.175
58630W        W25039  34.044  17.697   4.464
58631W        W25040  44.382  18.269   1.200
58632W        W25041  26.487  38.562  13.021
58633W        W25042  25.949  37.801   2.303
58634W        W25043  33.286  14.340  13.639
58635W        W25044   3.671  37.846   4.555
58636W        W25045  20.902   6.318  14.952
58637W        W25046  31.333  43.510  11.142
58638W        W25047  19.650  37.341  10.996
58639W        W25048   5.191   6.879   3.772
58640W        W25049   3.713  38.629   3.290
58641W        W25050  22.449   5.646   3.195
58642W        W25051  23.610  13.137   2.740
58643W        W25052  38.337  39.080  10.967
58644W        W25053   7.736  22.050   0.455
58645W        W25054  23.163   3.840  10.702
58646W        W25055  32.480   0.390  10.698
58647W        W25056  20.548  41.445   0.355
58648W        W25057  43.788   3.832  12.207
58649W        W25058  39.995   1.714  11.189
58650W        W25059  33.093  29.773  13.060
58651W        W25060  38.284   9.781   2.754
58652W        W25061  34.073  21.054  14.918
58653W        W25062  44.824  30.664   3.333
58654W        W25063  14.260  41.951  12.923
58655W        W25064  21.319  20.346  13.910
58656W        W25065  12.381  13.192   0.548
58657W        W25066  18.894   7.005  11.484
58658W        W25067  10.053  26.557   1.286
58659W        W25068  22.922   5.829   2.930
58660W        W25069  15.841  23.613   1.327
58661W        W25070  28.457  44.454  14.829
58662W        W25071  32.794  42.507   1.527
58663W        W25072  28.566  35.123   1.304
58664W        W25073   8.198  41.443  14.905
58665W        W25074  14.314  13.954   3.437
58666W        W25075  40.788   6.699  11.132
58667W        W25076  13.075  29.163  11.032
58668W        W25077  22.170  38.416  11.511
58669W        W25078  23.710  36.778   2.318
58670W        W25079  11.004  10.259   3.032
58671W        W25080  10.760   4.856  11.426
58672W        W25081   2.282  17.498   4.192
58673W        W25082   9.529  11.489  10.360
58674W        W25083  13.677  39.069   1.333
58675W        W25084  26.017  16.585   1.680
58676W        W25085   4.291  37.876   1.559
58677W        W25086  36.452  27.992   9.809
58678W        W25087  24.618   4.369   1.931
58679W        W25088  26.231  38.486  13.993
58680W        W25089  36.133  24.137  14.373
58681W        W25090  39.921  43.089   4.362
58682W        W25091   1.754  13.301   4.453
58683W        W25092  32.840  43.003   1.811
58684W        W25093  30.810  32.083   1.237
58685W        W25094  33.353  36.993  12.097
58686W        W25095   3.863  34.956   4.128
58687W        W25096  32.166  27.523   1.963
58688W        W25097  18.949  35.649  14.312
58689W        W25098  26.947  42.070   2.334
58690W        W25099  40.317   5.626   4.192
58691W        W25100  31.655  16.711  11.210
58692W        W25101  11.062  12.235   4.059
58693W        W25102   8.649  40.213   5.102
58694W        W25103  26.691  43.036  13.028
58695W        W25104   2.326  25.072   2.277
58696W        W25105  10.364  38.377   4.896
58697W        W25106  16.621   8.315   1.770
58698W        W25107   5.960  21.476   4.134
58699W        W25108  12.563  12.692   3.600
58700W        W25109   2.747   1.531   2.241
58701W        W25110  18.086  27.928   3.125
58702W        W25111   6.274   2.890  12.743
58703W        W25112  14.326  42.453   1.612
58704W        W25113  10.791  34.357   0.261
58705W        W25114  18.777  18.737  14.428
58706W        W25115  28.104  17.717   2.726
58707W        W25116  37.893  35.003   3.714
58708W        W25117  10.043  44.304  11.134
58709W        W25118  39.934  33.679  13.784
58710W        W25119  35.663  37.804  11.935
58711W        W25120  30.251  22.687   2.430
58712W        W25121  36.471  28.009   4.876
58713W        W25122   1.984  22.070  13.378
58714W        W25123  15.812  18.545   4.738
58715W        W25124  22.640   7.868  14.880
58716W        W25125  13.798  13.590  14.875
58717W        W25126   2.395  28.663   1.919
58718W        W25127  18.282   2.963   2.271
58719W        W25128  30.896  16.607  10.740
58720W        W25129  10.266   4.510   4.741
58721W        W25130  12.474  28.209   4.103
58722W        W25131   9.359  26.711  13.404
58723W        W25132  31.959  38.894  13.008
58724W        W25133  34.460  17.896   0.266
58725W        W25134   2.931  41.259  13.028
58726W        W25135  41.837   5.857   2.548
58727W        W25136  35.004  22.077   4.758
58728W        W25137  39.536  29.062  10.402
58729W        W25138  26.080  30.436   3.302
58730W        W25139   3.514   9.824   2.209
58731W        W25140   7.652  26.118   0.426
58732W        W25141  33.914  32.961  11.229
58733W        W25142  34.101   2.824   0.283
58734W        W25143   3.417  40.874  11.429
58735W        W25144   7.650   7.388   1.324
58736W        W25145   3.183  29.180  10.992
58737W        W25146  41.312  27.461  14.069
58738W        W25147  34.042  35.350   3.728
58739W        W25148  21.117   7.792   2.719
58740W        W25149  20.632  20.080   4.412
58741W        W25150  26.573  30.586  14.291
58742W        W25151  28.111  29.194   3.672
58743W        W25152  26.416  27.280  10.672
58744W        W25153  10.801  13.371  11.089
58745W        W25154  35.847  14.328   4.137
58746W        W25155  34.137  29.180  10.601
58747W        W25156  35.655   0.200  14.311
58748W        W25157  17.854  41.886   4.279
58749W        W25158   9.255   6.491   1.297
58750W        W25159   6.684  29.728  10.709
58751W        W25160  13.156  10.585   3.735
58752W        W25161  28.424  19.606   0.202
58753W        W25162  15.564  20.558  12.052
58754W        W25163   1.513   5.785   4.405
58755W        W25164   6.142  39.436   1.493
58756W        W25165  28.976  27.536   1.241
58757W        W25166  36.566  17.248   2.441
58758W        W25167  16.839  34.115  11.176
58759W        W25168   6.018  22.782   2.769
58760W        W25169  13.646  33.275   0.748
58761W        W25170  36.534  33.570  13.396
58762W        W25171  37.895  17.985   3.191
58763W        W25172  13.670  38.792  14.722
58764W        W25173   6.721  39.724  13.814
58765W        W25174  32.014  30.185  13.838
58766W        W25175   1.437  36.408  11.186
58767W        W25176  35.706   5.421   0.400
58768W        W25177  40.016  15.121   1.956
58769W        W25178   0.227  39.427   1.010
58770W        W25179  40.390  42.554   4.800
58771W        W25180  42.225  13.164   1.346
58772W        W25181  41.385  25.047   0.938
58773W        W25182  16.963  43.477   0.827
58774W        W25183   4.226  21.090  11.141
58775W        W25184  42.674   5.329  10.801
58776W        W25185  13.093  15.580  14.460
58777W        W25186  29.163   5.695   3.424
58778W        W25187  39.679  35.106   3.410
58779W        W25188  33.594  14.121  10.489
58780W        W25189  17.638  26.106  10.579
58781W        W25190  18.000  31.856   0.271
58782W        W25191  36.149   3.662   2.018
58783W        W25192  30.251  27.083   3.246
58784W        W25193  39.543   1.939   0.704
58785W        W25194  19.532   3.961  11.506
58786W        W25195  29.522  27.551  11.108
58787W        W25196  22.266  26.010   2.749
58788W        W25197  27.094  10.823   9.905
58789W        W25198   4.000  25.016   1.564
58790W        W25199  41.410  12.317  11.160
58791W        W25200  21.620  38.515   2.288
58792W        W25201  42.423   2.721   4.664
58793W        W25202  12.751  44.438   4.038
58794W        W25203  25.960  25.866  13.330
58795W        W25204  10.101  13.743   0.897
58796W        W25205   7.909  44.754   4.285
58797W        W25206  30.419  35.090  13.870
58798W        W25207  26.635  18.479  14.691
58799W        W25208  40.523  31.609  14.516
58800W        W25209  15.657  43.262   0.889
58801W        W25210  21.054  13.133  14.210
58802W        W25211  12.421  35.335  14.923
58803W        W25212  41.044  31.499   4.085
58804W        W25213  33.116   6.935   1.102
58805W        W25214   2.845  16.153  12.960
58806W        W25215  25.461   6.617  11.542
58807W        W25216   4.280  13.348   1.254
58808W        W25217  29.104  12.736   1.748
58809W        W25218  10.300  37.538   3.679
58810W        W25219  31.948  30.087   1.759
58811W        W25220  33.986   3.341   0.946
58812W        W25221  23.869  18.591  14.678
58813W        W25222  10.793   9.165  12.093
58814W        W25223  34.469  13.258  11.912
58815W        W25224  15.800  27.086  12.063
58816W        W25225  21.658  23.257  12.436
58817W        W25226  32.942  26.158   0.953
58818W        W25227  32.527  18.328   1.941
58819W        W25228  11.808  39.712   1.908
58820W        W25229  35.003  18.851   4.652
58821W        W25230  36.907  25.065   2.961
58822W        W25231  21.508   1.240  14.962
58823W        W25232  16.191  34.821  10.729
58824W        W25233   2.930  19.652  14.175
58825W        W25234  12.075  36.719  10.916
58826W        W25235   1.533   7.259   9.915
58827W        W25236   6.644  39.433   4.320
58828W        W25237  21.460  41.591  11.198
58829W        W25238  23.419   6.896   1.468
58830W        W25239  14.856  20.815   2.100
58831W        W25240  36.809  10.898   0.398
58832W        W25241  12.753  11.343  11.104
58833W        W25242   8.276   1.335  11.182
58834W        W25243   5.284  33.449   3.613
58835W        W25244   4.322  31.620  11.541
58836W        W25245  23.628   4.351  13.083
58837W        W25246  10.722  33.609  10.726
58838W        W25247  35.472  23.948  10.635
58839W        W25248  18.842  35.896   1.677
58840W        W25249  16.115  23.398  13.827
58841W        W25250  29.088  38.864   4.703
58842W        W25251  21.006  11.266  14.475
58843W        W25252  37.587  30.338   0.315
58844W        W25253  41.173  33.467   1.393
58845W        W25254  39.653   5.333   2.706
58846W        W25255  13.609  18.448   4.020
58847W        W25256  18.038   5.334  11.277
58848W        W25257   0.634  16.678  11.160
58849W        W25258  39.380  25.632  12.442
58850W        W25259   3.547   6.993   2.685
58851W        W25260   5.478  26.112   2.613
58852W        W25261  17.004  16.674  13.092
58853W        W25262  14.695  29.706  11.507
58854W        W25263  23.544   7.380  13.248
58855W        W25264   3.391  30.115   0.453
58856W        W25265  37.819   1.418  13.501
58857W        W25266  40.330  29.229  12.122
58858W        W25267  40.744  11.720  12.418
58859W        W25268   3.870  17.545   0.002
58860W        W25269   1.337  21.461  11.836
58861W        W25270  11.701  37.066   5.070
58862W        W25271   9.345  41.026  12.632
58863W        W25272  44.271  11.164  13.666
58864W        W25273  41.906  31.184   0.397
58865W        W25274   4.235  24.021  10.282
58866W        W25275  40.235  38.507   0.855
58867W        W25276  28.007  40.767  12.625
58868W        W25277  40.287  28.228  13.515
58869W        W25278  18.181   2.228   0.841
58870W        W25279   2.200  36.876   4.611
58871W        W25280  36.647  26.868  12.981
58872W        W25281  33.445  31.154   1.888
58873W        W25282   5.082  10.537   4.180
58874W        W25283  35.109  15.656  10.118
58875W        W25284   6.992  16.261  10.743
58876W        W25285  39.725  36.859   0.045
58877W        W25286  32.934   7.293  14.775
58878W        W25287  21.897  30.571   4.286
58879W        W25288  28.079  36.000   0.979
58880W        W25289   1.316  13.273   3.708
58881W        W25290  24.828  18.265  12.355
58882W        W25291  28.473  11.690   0.622
58883W        W25292  15.739  27.005   1.662
58884W        W25293   0.237  24.229  12.775
58885W        W25294  30.077  36.050   0.815
58886W        W25295  30.392  42.909   0.419
58887W        W25296  27.897  15.504  14.619
58888W        W25297  23.574  32.082   1.877
58889W        W25298  29.954  39.452  11.571
58890W        W25299  30.581  37.483   3.980
58891W        W25300  36.610   0.538   4.129
58892W        W25301  36.133  28.859   1.717
58893W        W25302  40.931  41.238  11.146
58894W        W25303   5.130  26.232  11.209
58895W        W25304  25.010  14.126   2.653
58896W        W25305  11.519  30.357  11.918
58897W        W25306  25.496  12.640  11.930
58898W        W25307  22.055   6.227  13.583
58899W        W25308  22.005  24.330   9.912
58900W        W25309  33.356   3.981   0.390
58901W        W25310  40.443  24.163   0.235
58902W        W25311  16.639  44.303  11.658
58903W        W25312  22.761   0.891  14.385
58904W        W25313  38.828  16.547   4.226
58905W        W25314  40.945   6.260  10.896
58906W        W25315   6.593  42.780   3.347
58907W        W25316  16.804  23.231  10.628
58908W        W25317  43.571   2.591  13.342
58909W        W25318  32.489   4.950   0.140
58910W        W25319  34.608  24.625   0.429
58911W        W25320  34.959  22.426   4.002
58912W        W25321  43.472   4.753   3.771
58913W        W25322  37.100  23.265   4.569
58914W        W25323  44.300  17.717  12.980
58915W        W25324  25.611  30.706   5.182
58916W        W25325  34.306  40.906  13.487
58917W        W25326  31.022  40.489   4.292
58918W        W25327  18.848  24.456   0.829
58919W        W25328  25.253  36.587   3.738
58920W        W25329   6.132   1.000   3.324
58921W        W25330  24.139  43.758   2.423
58922W        W25331  16.838   7.892  12.046
58923W        W25332  31.402  32.190   1.901
58924W        W25333  17.615  37.187   5.548
58925W        W25334  42.385  12.110  14.842
58926W        W25335   6.392  41.916  12.430
58927W        W25336  36.402  18.675   3.707
58928W        W25337  18.620  21.309  10.429
58929W        W25338  31.004  36.425   1.075
58930W        W25339  39.924  33.966   3.208
58931W        W25340  40.241  20.240   0.862
58932W        W25341  22.709  16.282   4.242
58933W        W25342  38.122  22.180  14.508
58934W        W25343  38.930  18.106  11.148
58935W        W25344  31.102  10.665  12.174
58936W        W25345  24.730  31.903  14.404
58937W        W25346  38.256   8.770   1.278
58938W        W25347  42.164  40.934  12.957
58939W        W25348  33.011   0.503  12.466
58940W        W25349  36.702  43.135  13.388
58941W        W25350  20.031   7.185   1.818
58942W        W25351   2.780  37.834  13.912
58943W        W25352  16.502  40.531   2.805
58944W        W25353   7.250  36.615   2.337
58945W        W25354  39.091  41.973  10.993
58946W        W25355  43.823  42.781   4.321
58947W        W25356  17.418  12.765  11.991
58948W        W25357  31.927  41.307  12.485
58949W        W25358   6.731   6.617  11.382
58950W        W25359  36.857  42.511   1.640
58951W        W25360   8.204   9.322   4.810
58952W        W25361  33.251  26.077   2.741
58953W        W25362  26.537  19.674   1.827
58954W        W25363  36.083  12.432  13.516
58955W        W25364  17.756  38.811  11.080
58956W        W25365  21.252  21.472  13.925
58957W        W25366   3.918  11.961   2.577
58958W        W25367  35.329  21.100   3.923
58959W        W25368  43.939  30.905   2.712
58960W        W25369  19.736  14.565  12.540
58961W        W25370  17.249   2.221   1.175
58962W        W25371  34.509   3.340   0.752
58963W        W25372  24.710  42.037   3.090
58964W        W25373  19.472  21.570  11.703
58965W        W25374  11.402   3.411   2.681
58966W        W25375  18.697  39.935  11.949
58967W        W25376  19.705   0.698   4.901
58968W        W25377  29.720  15.579   3.217
58969W        W25378  44.393  38.858   1.637
58970W        W25379  11.594  28.872   3.270
58971W        W25380   1.652   5.649   1.378
58972W        W25381  36.595  17.753   4.568
58973W        W25382  24.506  32.813   2.260
58974W        W25383  18.821   3.693   4.094
58975W        W25384  38.595  14.181  14.744
58976W        W25385   0.874  12.366  13.354
58977W        W25386  19.526  24.521  13.497
58978W        W25387  16.893   2.269  11.127
58979W        W25388  22.511  12.381  12.584
58980W        W25389  29.401  10.133  13.412
58981W        W25390   8.515  19.250  11.420
58982W        W25391   0.715  26.475   5.038
58983W        W25392  36.672  26.483   0.933
58984W        W25393  12.395  40.582   4.782
58985W        W25394  22.674  15.000  10.887
58986W        W25395  35.461   8.689  13.060
58987W        W25396   7.136  18.104  14.022
58988W        W25397   0.766  22.688  14.337
58989W        W25398  14.334   8.293   1.954
58990W        W25399   7.367  10.080   1.862
58991W        W25400  32.634  42.036  12.626
58992W        W25401  42.315  11.930  11.718
58993W        W25402   8.276  11.201   1.206
58994W        W25403  35.863  31.893  11.479
58995W        W25404   5.738  28.531   4.182
58996W        W25405  24.440  43.999   1.379
58997W        W25406   2.249   7.696   0.802
58998W        W25407   6.242  15.218   0.317
58999W        W25408  35.438  21.927   1.790
59000W        W25409  34.059  11.376  13.054
59001W        W25410   5.177  40.417   2.550
59002W        W25411  10.566  40.853  14.051
59003W        W25412  16.484   9.665  10.422
59004W        W25413  13.092  29.048   4.173
59005W        W25414  24.169  36.613  11.529
59006W        W25415   9.678   4.919  11.076
59007W        W25416  34.855  43.909   2.592
59008W        W25417  27.011  32.961  12.342
59009W        W25418  39.123  27.395   0.370
59010W        W25419  30.103   8.530   4.920
59011W        W25420   1.032  28.644  14.946
59012W        W25421   0.990  28.419  14.297
59013W        W25422  42.593  10.115  13.926
59014W        W25423  15.480  34.119  12.018
59015W        W25424  27.550   3.253   2.179
59016W        W25425  24.057  28.728   4.109
59017W        W25426   7.665   0.511  13.471
59018W        W25427  33.911  36.156   5.085
59019W        W25428  12.422  16.417   0.420
59020W        W25429  43.916  18.912  11.123
59021W        W25430  31.053  16.657  14.042
59022W        W25431   8.936  20.684   5.043
59023W        W25432  38.993   8.927  12.919
59024W        W25433  31.939  42.968   3.742
59025W        W25434  44.838  23.084  12.142
59026W        W25435   1.499  11.828  12.864
59027W        W25436  12.754  44.829   2.814
59028W        W25437  44.731  41.238  12.663
59029W        W25438   4.334  11.165  14.854
59030W        W25439   7.625  15.742  13.640
59031W        W25440  27.073  31.424  10.997
59032W        W25441  29.625  35.869  13.881
59033W        W25442  15.418  41.392  10.378
59034W        W25443   6.676   1.377   1.359
59035W        W25444  12.680  25.230  13.555
59036W        W25445  10.099  36.034  12.135
59037W        W25446  32.373  37.492  10.681
59038W        W25447   5.023  18.194   0.093
59039W        W25448  26.695   4.377  14.453
59040W        W25449   1.168   7.202   2.743
59041W        W25450  16.241  27.573   2.926
59042W        W25451  28.490  20.699   4.047
59043W        W25452   9.515  13.615  12.659
59044W        W25453  15.265   5.106  12.152
59045W        W25454  29.020   6.364  13.403
59046W        W25455  36.860   4.271   3.754
59047W        W25456  39.451  30.708   3.582
59048W        W25457   4.712  35.974   3.710
59049W        W25458  43.964  10.880   4.772
59050W        W25459  15.940  20.751   1.386
59051W        W25460  15.190  33.979   4.736
59052W        W25461   1.225  39.480  14.918
59053W        W25462  34.811  12.730   1.519
59054W        W25463  37.877  27.489   2.654
59055W        W25464  32.565  26.593   1.029
59056W        W25465  11.985  28.095   4.157
59057W        W25466  19.239  10.639   1.108
59058W        W25467  25.495  13.076  14.413
59059W        W25468  20.029  43.315  14.348
59060W        W25469  38.287  23.617  14.772
59061W        W25470  16.605  22.656  14.252
59062W        W25471   3.958  29.192  11.523
59063W        W25472  25.146  36.699  13.983
59064W        W25473  29.306   2.744  13.436
59065W        W25474  35.355  18.668   3.833
59066W        W25475  14.066  37.040  13.024
59067W        W25476  32.046  26.029   4.273
59068W        W25477  27.482  12.909  13.440
59069W        W25478   4.367  33.930   4.288
59070W        W25479  31.054  12.632   4.125
59071W        W25480  36.196  27.566  13.361
59072W        W25481  41.460  20.724  11.529
59073W        W25482  21.898  23.170  11.141
59074W        W25483   7.221  17.681  13.077
59075W        W25484  32.030  30.498   0.813
59076W        W25485  37.861  31.187  14.840
59077W        W25486   3.768  44.914  11.630
59078W        W25487  23.245  40.395   0.719
59079W        W25488   7.767  43.021  14.255
59080W        W25489   7.341  19.760  11.576
59081W        W25490  11.914   0.832   1.822
59082W        W25491  25.736  33.610   0.207
59083W        W25492  23.712  37.014  12.108
59084W        W25493  23.432  29.076  13.340
59085W        W25494   5.954  23.116  12.550
59086W        W25495   9.667  17.162  13.950
59087W        W25496   3.496   1.681   3.844
59088W        W25497   8.243  41.683  13.081
59089W        W25498  34.124  16.679   1.479
59090W        W25499  24.425  10.324   1.955
59091W        W25500  35.223  29.209   4.585
59092W        W25501  41.460  34.626   0.066
59093W        W25502  36.519  32.611  13.437
59094W        W25503  11.603  12.706  11.463
59095W        W25504  11.714   4.171   3.823
59096W        W25505  21.971  17.667  11.553
59097W        W25506  17.432  22.193   4.562
59098W        W25507  19.256  31.581  11.077
59099W        W25508  30.973  22.006   4.200
59100W        W25509  31.949  20.291  11.115
59101W        W25510   1.417  15.558   0.750
59102W        W25511  40.915  21.620  12.630
59103W        W25512   9.830  40.834  12.559
59104W        W25513   2.581   3.520  12.505
59105W        W25514  41.467  20.354  11.146
59106W        W25515   4.430   0.927  12.068
59107W        W25516  34.955  27.996  12.079
59108W        W25517  10.346   4.185  14.260
59109W        W25518   0.434  37.177  12.527
59110W        W25519  26.774  39.089   0.041
59111W        W25520   0.803  33.896   2.733
59112W        W25521  17.640   3.798  11.147
59113W        W25522   9.960  23.736   5.208
59114W        W25523  43.967   3.245  11.984
59115W        W25524  25.276  27.844   4.667
59116W        W25525  22.218  29.418   3.703
59117W        W25526  30.552   0.624  12.504
59118W        W25527  20.626   2.779   2.789
59119W        W25528  29.591  10.857   3.277
59120W        W25529   2.576  30.697   0.406
59121W        W25530  20.253  23.998   2.414
59122W        W25531  12.577   2.988  10.598
59123W        W25532  11.704   8.377   4.599
59124W        W25533  12.381  38.450  10.208
59125W        W25534  43.423  15.026   1.560
59126W        W25535  26.497  30.416   2.131
59127W        W25536   0.202  18.390   3.727
59128W        W25537  30.533  41.375   4.136
59129W        W25538  10.310  31.220  12.972
59130W        W25539   5.419  43.177  12.086
59131W        W25540  19.768  36.117   1.421
59132W        W25541  27.995   1.197   1.312
59133W        W25542  43.797   4.465  14.050
59134W        W25543  22.273  31.427   0.009
59135W        W25544  21.706  27.737   4.036
59136W        W25545   1.838  11.402   2.324
59137W        W25546  11.239   5.078   2.125
59138W        W25547  25.016  22.796  13.992
59139W        W25548   3.307  26.685  13.876
59140W        W25549   6.185  21.921   0.689
59141W        W25550  34.162  37.360  11.211
59142W        W25551  42.784  18.666   2.135
59143W        W25552  24.159  19.703  13.704
59144W        W25553  25.114  24.239  10.295
59145W        W25554   3.542  26.958  12.713
59146W        W25555  18.082   1.718   0.774
59147W        W25556  19.918  18.617  11.880
59148W        W25557  22.519  13.703   4.084
59149W        W25558   4.955  42.780  14.652
59150W        W25559  31.020  17.457  11.101
59151W        W25560   2.921   5.351  10.681
59152W        W25561  20.265  44.962   0.835
59153W        W25562  41.853  12.088   2.225
59154W        W25563   3.544  34.875   4.547
59155W        W25564   9.074  12.662   4.188
59156W        W25565  22.464  34.372   4.713
59157W        W25566  37.168  10.781   0.747
59158W        W25567  23.201  18.316  13.485
59159W        W25568   7.701  29.340  10.657
59160W        W25569  24.607  33.441   3.764
59161W        W25570  19.264  23.497  13.517
59162W        W25571  21.085   2.220  11.327
59163W        W25572  35.683  18.134   0.786
59164W        W25573  28.923  20.605  12.890
59165W        W25574  40.881   9.279   2.081
59166W        W25575  38.001  32.998   2.824
59167W        W25576  35.596  38.950   3.400
59168W        W25577  33.542  25.200  12.997
59169W        W25578   9.179  32.518   1.011
59170W        W25579  38.575  13.279   1.597
59171W        W25580  32.517  40.193   2.090
59172W        W25581  44.031   5.266   3.152
59173W        W25582  26.332  43.841   4.110
59174W        W25583  28.959   4.862   3.352
59175W        W25584   6.836  42.509   4.300
59176W        W25585  35.258  12.791  13.054
59177W        W25586  23.213  41.459  13.840
59178W        W25587  18.036  34.558  12.967
59179W        W25588   7.572  38.519   3.845
59180W        W25589  19.700  43.309  13.395
59181W        W25590  17.243   1.639  12.031
59182W        W25591   1.737  17.632  10.715
59183W        W25592  30.943   3.832  13.149
59184W        W25593   6.791   6.192  12.978
59185W        W25594  12.757  22.677  11.939
59186W        W25595   6.916  28.046  14.598
59187W        W25596  40.756   4.134   1.286
59188W        W25597   2.864   9.453  12.660
59189W        W25598  12.649  26.415  14.105
59190W        W25599   9.168   8.501   0.975
59191W        W25600   5.613  25.900   4.832
59192W        W25601  36.515  27.126   0.378
59193W        W25602  11.195  21.297   0.720
59194W        W25603  20.847  36.323   3.587
59195W        W25604   8.864  10.473   0.534
59196W        W25605   9.277  14.818  10.730
59197W        W25606   5.179   3.201  13.279
59198W        W25607   8.370   8.865  11.785
59199W        W25608  42.801  10.228  13.145
59200W        W25609  12.162  26.829  10.728
59201W        W25610  33.936  14.264   0.885
59202W        W25611  11.340  40.592   1.764
59203W        W25612  34.894  23.578  14.705
59204W        W25613  10.251   2.438   1.032
59205W        W25614  15.433  17.676   4.915
59206W        W25615  13.914  43.949  14.931
59207W        W25616  24.553  26.822   2.966
59208W        W25617  14.734  23.346   4.649
59209W        W25618  24.854  13.922  13.553
59210W        W25619  24.478   0.929   0.870
59211W        W25620  34.591   0.183   5.279
59212W        W25621  22.366  34.088   3.621
59213W        W25622  41.414  29.967  13.915
59214W        W25623  10.863  15.835  13.175
59215W        W25624  35.833  21.939   2.724
59216W        W25625  10.179  32.988  12.310
59217W        W25626  25.497  40.378   3.917
59218W        W25627  39.402  29.905  14.420
59219W        W25628  12.581  44.773  10.203
59220W        W25629  20.728  24.772  13.383
59221W        W25630  27.086  32.434   4.064
59222W        W25631  22.207   8.199   0.809
59223W        W25632  28.294  25.760   4.162
59224W        W25633  41.247   2.024   2.338
59225W        W25634  17.999  44.369   2.254
59226W        W25635  22.075  33.702   3.475
59227W        W25636   6.354  23.541  14.897
59228W        W25637   2.021  40.177   2.901
59229W        W25638  18.428  28.653   0.068
59230W        W25639  17.255  12.266  14.821
59231W        W25640  20.536  22.675  11.055
59232W        W25641  29.480  11.248  11.583
59233W        W25642  34.196   5.785   2.477
59234W        W25643  38.886  33.943  14.353
59235W        W25644  38.931  39.367   4.513
59236W        W25645  23.648  19.016  13.817
59237W        W25646   2.988  26.470  14.901
59238W        W25647  44.718  27.131  11.411
59239W        W25648  35.286  28.472  12.482
59240W        W25649  12.191  22.676  14.108
59241W        W25650  16.379   4.494  12.007
59242W        W25651  34.351   7.266   0.922
59243W        W25652  29.565   8.028  12.966
59244W        W25653  13.069   7.181  10.688
59245W        W25654  17.725  36.120  11.652
59246W        W25655  13.279  29.427   0.906
59247W        W25656  34.358  23.494   0.416
59248W        W25657   4.010  40.247  13.961
59249W        W25658  22.457  32.272   5.034
59250W        W25659   2.336  13.859   4.612
59251W        W25660  24.253  16.789   1.578
59252W        W25661   6.370   5.595  13.486
59253W        W25662  25.971   5.851  11.965
59254W        W25663  36.794  16.651   4.690
59255W        W25664  15.514   0.812   0.029
59256W        W25665  36.633  19.348  10.686
59257W        W25666   9.677  14.380   4.920
59258W        W25667   1.564  31.333   2.210
59259W        W25668   4.769  42.000   2.279
59260W        W25669  20.044  17.143  12.117
59261W        W25670  34.716  14.781   0.631
59262W        W25671   4.623  15.632  14.479
59263W        W25672  22.765  28.986  10.934
59264W        W25673  12.109   6.126  11.471
59265W        W25674  35.576  23.072  14.039
59266W        W25675  40.966  28.977  13.568
59267W        W25676   6.294  39.459   4.807
59268W        W25677  11.484  15.780   4.029
59269W        W25678  39.366  27.897  10.435
59270W        W25679  18.111   9.982   2.717
59271W        W25680  37.372  10.854   1.604
59272W        W25681  30.092  23.296   3.274
59273W        W25682  33.580  18.047   0.972
59274W        W25683   2.968  33.548  14.937
59275W        W25684  43.957  38.727  13.997
59276W        W25685  35.252  42.740   0.353
59277W        W25686  16.386  34.525  14.001
59278W        W25687  34.545   1.444  13.904
59279W        W25688  26.274  24.011   3.639
59280W        W25689  18.965  11.561  10.680
59281W        W25690  43.782  17.564   0.902
59282W        W25691   1.693   1.334   3.832
59283W        W25692  37.509  11.725   0.553
59284W        W25693  32.451   1.810  11.397
59285W        W25694  39.394  12.049  14.364
59286W        W25695  13.876   0.540   9.945
59287W        W25696   0.792   3.465  12.411
59288W        W25697  12.937  18.694  13.082
59289W        W25698  40.365  33.622   4.855
59290W        W25699   1.915  28.902   4.594
59291W        W25700   6.909  28.879  10.996
59292W        W25701  28.865   5.837   3.869
59293W        W25702  22.152  37.523  14.553
59294W        W25703  31.932  29.380  12.607
59295W        W25704   2.795  19.266   1.497
59296W        W25705  38.458   2.469   0.795
59297W        W25706  12.270   7.425  11.072
59298W        W25707  35.904  21.119  13.370
59299W        W25708  12.629  33.713   3.574
59300W        W25709  26.681  42.921   4.121
59301W        W25710  37.855  14.917   0.339
59302W        W25711  43.335   9.356   1.692
59303W        W25712   3.094  40.616   3.328
59304W        W25713  24.680  38.313  12.597
59305W        W25714   4.285   1.003  14.358
59306W        W25715  24.618  39.422  12.019
59307W        W25716  36.637  23.542  11.960
59308W        W25717  34.573  28.944   3.567
59309W        W25718  36.849  44.860   2.406
59310W        W25719  11.179   1.271   0.247
59311W        W25720   1.014  16.448   3.236
59312W        W25721  23.991  28.200  11.631
59313W        W25722  15.496   9.171   1.921
59314W        W25723  19.646  14.451  10.495
59315W        W25724  31.978  12.010   3.237
59316W        W25725  23.525  31.491   2.234
59317W        W25726   1.292  29.695   1.839
59318W        W25727  24.222   0.268  14.809
59319W        W25728  20.266  15.529  10.745
59320W        W25729  23.740  31.523   0.396
59321W        W25730  13.292   5.201   3.294
59322W        W25731  27.203  40.283  14.279
59323W        W25732  18.589  38.918  14.358
59324W        W25733   2.911  24.145   2.019
59325W        W25734  36.375  23.594   4.129
59326W        W25735  13.415   0.116  14.329
59327W        W25736  33.352   9.815   3.618
59328W        W25737  38.968  41.928   2.423
59329W        W25738  29.673   6.905   3.709
59330W        W25739  17.840   4.898   0.828
59331W        W25740  38.634  34.419   0.013
59332W        W25741   4.292  25.607   3.671
59333W        W25742  38.908  21.870  14.130
59334W        W25743  15.828  37.454  12.186
59335W        W25744   8.798  29.208   3.362
59336W        W25745  31.636   6.057   2.784
59337W        W25746   0.142  36.660  13.784
59338W        W25747  37.052  27.039  13.852
59339W        W25748  17.283  21.829  12.635
59340W        W25749  43.294  11.408   0.305
59341W        W25750  42.997  32.398  14.875
59342W        W25751   1.858  41.854  11.183
59343W        W25752  44.351   7.308  10.911
59344W        W25753  24.993   6.928   3.654
59345W        W25754  26.773   9.778  13.910
59346W        W25755   1.031  16.647   1.334
59347W        W25756  27.744   7.836  11.547
59348W        W25757   5.207  28.252   3.491
59349W        W25758   5.382  32.387  11.911
59350W        W25759   8.023  11.618   4.979
59351W        W25760  34.367   7.091  12.324
59352W        W25761   0.543   1.794  11.497
59353W        W25762   6.263   3.345  14.692
59354W        W25763  22.153  41.009   2.228
59355W        W25764  25.779  13.029  12.143
59356W        W25765  17.753   8.970  14.304
59357W        W25766   5.095  39.622  13.765
59358W        W25767  27.210   4.427  14.365
59359W        W25768  16.495  19.903   4.941
59360W        W25769   1.291  16.199  13.488
59361W        W25770   2.840  35.871  14.108
59362W        W25771  15.112  20.937   4.401
59363W        W25772  30.025  14.843   0.168
59364W        W25773  11.445  39.472   0.831
59365W        W25774  14.761  13.615  13.787
59366W        W25775  36.625  43.280  11.622
59367W        W25776  36.752  22.575   3.488
59368W        W25777   3.857  28.128   1.730
59369W        W25778   0.375   4.439   0.911
59370W        W25779  24.034   1.812   3.073
59371W        W25780  24.021   0.244  10.726
59372W        W25781  15.238  36.564  10.770
59373W        W25782  38.200  16.450   2.877
59374W        W25783  25.283  42.271  11.171
59375W        W25784  31.958  24.679   3.116
59376W        W25785  28.604  35.929  13.359
59377W        W25786  44.596  23.437  13.563
59378W        W25787  39.810  42.330  14.502
59379W        W25788   6.385  25.773  10.940
59380W        W25789  36.630  17.592   0.777
59381W        W25790  17.114   8.297  14.159
59382W        W25791  42.539  35.624   2.367
59383W        W25792   2.292  19.882  14.842
59384W        W25793  26.531  32.672  13.968
59385W        W25794   9.722  15.666  12.765
59386W        W25795   5.735  23.001   1.454
59387W        W25796   4.404  38.359   0.782
59388W        W25797  44.996   1.260   3.291
59389W        W25798  27.215   5.881   1.377
59390W        W25799  37.887  23.793   4.051
59391W        W25800  30.656  35.109   4.226
59392W        W25801  22.018   7.476   0.432
59393W        W25802  32.465  34.856  13.116
59394W        W25803  29.815   1.257   4.107
59395W        W25804  30.987  33.124   2.250
59396W        W25805  37.295  29.904  13.072
59397W        W25806  37.920  21.750  14.795
59398W        W25807  22.767   6.369   1.999
59399W        W25808   1.854  20.494   1.183
59400W        W25809  26.060   2.732  10.568
59401W        W25810   1.905  23.750   2.313
59402W        W25811  37.560  13.409   1.752
59403W        W25812  31.657  22.226   4.681
59404W        W25813  17.776  33.428  12.534
59405W        W25814  10.345  33.924  13.425
59406W        W25815   6.396   3.028   1.793
59407W        W25816   1.379  41.327   4.310
59408W        W25817  21.250   5.625   3.837
59409W        W25818  34.666  24.177  11.287
59410W        W25819  35.460   6.796   3.118
59411W        W25820  26.146  38.956  12.009
59412W        W25821  24.453   7.612  14.408
59413W        W25822  38.551  19.213   1.470
59414W        W25823  39.578   1.755  12.211
59415W        W25824  23.135  14.766   1.465
59416W        W25825  35.575   4.114   0.860
59417W        W25826  34.682  34.669  12.010
59418W        W25827   9.287  38.898  11.138
59419W        W25828  28.815  23.452   2.414
59420W        W25829  16.161   6.235  12.542
59421W        W25830  42.373  31.885   0.378
59422W        W25831  40.493  42.405   2.327
59423W        W25832  29.164  36.615   3.645
59424W        W25833   3.643  28.411  13.880
59425W        W25834  14.386  35.483   2.820
59426W        W25835  39.967  40.740  12.425
59427W        W25836  37.269   8.508  12.854
59428W        W25837  36.875  21.356  13.558
59429W        W25838  37.288  16.941   3.676
59430W        W25839  30.283   2.849  11.181
59431W        W25840  34.134  18.284   0.378
59432W        W25841  40.304  30.469   4.011
59433W        W25842  13.283  30.550   4.284
59434W        W25843   1.826  26.928  13.387
59435W        W25844  33.079  35.536   4.731
59436W        W25845   7.611  27.973   3.165
59437W        W25846  43.761  20.715   2.677
59438W        W25847  19.242  34.300  12.541
59439W        W25848  40.914   9.530  12.191
59440W        W25849  30.125   4.176  11.022
59441W        W25850  18.081  34.060   0.567
59442W        W25851  25.556  35.620  12.154
59443W        W25852  14.613  38.011  14.048
59444W        W25853   5.929  13.032   3.910
59445W        W25854  27.443  35.950   2.166
59446W        W25855   2.789  31.169  14.992
59447W        W25856  15.790  14.185  13.826
59448W        W25857   1.619   7.104   4.218
59449W        W25858  34.378  24.785  13.954
59450W        W25859  25.183  44.712   2.246
59451W        W25860  10.830  12.290  11.024
59452W        W25861  44.839  15.174  10.697
59453W        W25862  13.303  25.608  11.171
59454W        W25863  24.560  44.720   1.864
59455W        W25864  10.894   9.677   4.167
59456W        W25865  19.583  17.863  12.535
59457W        W25866  27.897   5.450   1.374
59458W        W25867  38.527  10.057  14.364
59459W        W25868  23.898  15.765  13.016
59460W        W25869  43.471  39.036  12.918
59461W        W25870   2.946  42.919   4.847
59462W        W25871  26.493  25.288   1.402
59463W        W25872  33.328  33.655   3.178
59464W        W25873  17.599  25.149  10.690
59465W        W25874  33.673  18.810  14.941
59466W        W25875  19.281  26.964   2.246
59467W        W25876  26.650  13.373  11.255
59468W        W25877  30.109  32.801   1.434
59469W        W25878  24.955  21.029  11.755
59470W        W25879   4.258   8.601  14.545
59471W        W25880  22.532  43.337  11.260
59472W        W25881  37.979  15.701  14.238
59473W        W25882  31.342  30.091   3.787
59474W        W25883   8.299  13.236  14.327
59475W        W25884   7.282   4.465   4.927
59476W        W25885   2.722  28.510   2.785
59477W        W25886  30.660  43.369  12.589
59478W        W25887  22.086  21.402   4.769
59479W        W25888  32.074  40.197  14.855
59480W        W25889  32.998  30.208   4.061
59481W        W25890  22.982  18.281  12.106
59482W        W25891  34.386  44.501   0.510
59483W        W25892  18.351  32.848   3.746
59484W        W25893  21.862  29.189   0.992
59485W        W25894  26.520  29.783  13.554
59486W        W25895  14.045  21.190   0.854
59487W        W25896  40.558  26.993   3.774
59488W        W25897   0.844   9.291   4.013
59489W        W25898  43.534  35.839  13.968
59490W        W25899  22.441   4.482   0.389
59491W        W25900  18.728  25.106   2.012
59492W        W25901  39.337  32.883   4.404
59493W        W25902   9.299  10.390  13.752
59494W        W25903  20.023  35.614   4.891
59495W        W25904   8.263  44.056   1.409
59496W        W25905   6.996  36.891  12.999
59497W        W25906  16.497   7.438   0.703
59498W        W25907  22.105  18.532  11.778
59499W        W25908  29.787  14.661  11.074
59500W        W25909   6.038   3.522   4.428
59501W        W25910  12.804  30.815   0.311
59502W        W25911  35.561   9.620   0.695
59503W        W25912   7.679  27.654   4.885
59504W        W25913  16.094   0.513  13.874
59505W        W25914   6.399  12.613  12.447
59506W        W25915  36.801  16.693  11.998
59507W        W25916   9.891  44.966  14.582
59508W        W25917  40.333  35.835  11.959
59509W        W25918   0.718   0.715  13.815
59510W        W25919   4.490  34.446   4.551
59511W        W25920  10.726  22.308  12.100
59512W        W25921  32.582  43.417  13.828
59513W        W25922  17.585  15.207   4.308
59514W        W25923  41.805  10.565  13.719
59515W        W25924  20.597   4.909  13.400
59516W        W25925  43.866  31.703  13.483
59517W        W25926  10.891  27.187   0.286
59518W        W25927   8.754  23.186  12.499
59519W        W25928  38.520  21.419   4.066
59520W        W25929  35.452  41.747  12.981
59521W        W25930  19.087  10.274   4.231
59522W        W25931  38.393  18.818  11.560
59523W        W25932   9.454   5.953  12.994
59524W        W25933  18.595  24.421   3.355
59525W        W25934   9.558  40.819  12.093
59526W        W25935  27.314  26.579   1.190
59527W        W25936   6.049  44.778   1.174
59528W        W25937  20.029  10.284   4.007
59529W        W25938  17.325  29.165  10.589
59530W        W25939  30.697  35.397  13.369
59531W        W25940  23.275  16.086   2.571
59532W        W25941  18.350  21.986  11.064
59533W        W25942  32.211  32.297  13.975
59534W        W25943   0.005   8.842   0.154
59535W        W25944  18.155  16.072  13.816
59536W        W25945   0.253  32.908   2.200
59537W        W25946  17.323  39.104  13.485
59538W        W25947  22.733  38.977   1.414
59539W        W25948  41.837  39.578  10.812
59540W        W25949  40.836  11.882   2.295
59541W        W25950  14.266  18.083   2.215
59542W        W25951  10.908   5.915   3.623
59543W        W25952  33.025   7.869   4.894
59544W        W25953   6.982  27.166  14.698
59545W        W25954  31.436   4.476  13.816
59546W        W25955  41.674  37.075   2.810
59547W        W25956   6.649  20.048   2.489
59548W        W25957   9.984  19.676   9.865
59549W        W25958   1.666  42.524   4.241
59550W        W25959  17.689  38.424   0.645
59551W        W25960  42.489  40.342   2.225
59552W        W25961  37.678   5.442   4.485
59553W        W25962  15.314   8.132   3.585
59554W        W25963  13.190  27.326   0.830
59555W        W25964  35.463  27.566   1.694
59556W        W25965  20.796   2.261  14.390
59557W        W25966  10.666  10.121   4.475
59558W        W25967  34.865  11.389  13.293
59559W        W25968  27.239  35.629  12.623
59560W        W25969  37.893  18.898  10.327
59561W        W25970  29.456  39.382  12.657
59562W        W25971  19.327  37.057  12.858
59563W        W25972  40.431  23.966  13.418
59564W        W25973  38.429  16.592   1.968
59565W        W25974   5.461  35.124  11.255
59566W        W25975  40.273  44.286   3.353
59567W        W25976   1.435  40.324   1.817
59568W        W25977  17.013  12.661   0.387
59569W        W25978  36.648  44.657  12.987
59570W        W25979  15.225   7.982  11.595
59571W        W25980  15.656  41.272   1.688
59572W        W25981  31.394   4.153  12.022
59573W        W25982  39.107  19.580   3.110
59574W        W25983  23.945  30.201   2.825
59575W        W25984  37.929  39.386   3.659
59576W        W25985   8.107   6.413   2.821
59577W        W25986   0.849  18.385   4.674
59578W        W25987   8.186  23.009   3.627
59579W        W25988  30.591   1.188  11.550
59580W        W25989  21.617  35.859   1.608
59581W        W25990  12.351  19.010   4.384
59582W        W25991  29.484   0.386  12.491
59583W        W25992  18.988  20.124  10.723
59584W        W25993  31.300  43.978  10.592
59585W        W25994   1.427  44.030   2.798
59586W        W25995  34.958  37.419   4.602
59587W        W25996  24.506  33.400  11.490
59588W        W25997  32.335  18.561  12.924
59589W        W25998  36.185  13.563  13.062
59590W        W25999  18.320  10.637   4.404
59591W        W26000   9.249  42.818  10.810
59592W        W26001  25.388  37.013   4.075
59593W        W26002  38.747  26.025  14.406
59594W        W26003   1.821  24.165   1.243
59595W        W26004  27.058  28.105  11.610
59596W        W26005  12.202  28.128  10.810
59597W        W26006  14.321  17.115   4.677
59598W        W26007   0.251  41.155   0.058
59599W        W26008  44.402  40.527  14.962
59600W        W26009   7.640  18.232   0.893
59601W        W26010  39.993   0.425   2.628
59602W        W26011  25.268  19.885   3.728
59603W        W26012  23.466  26.228   4.130
59604W        W26013   1.864  34.419   4.524
59605W        W26014  31.565  41.758   4.728
59606W        W26015  13.577  28.202   3.324
59607W        W26016  29.579  31.823  11.710
59608W        W26017  13.374  39.806  12.393
59609W        W26018  20.790  15.649   1.198
59610W        W26019  15.768  40.560  10.119
59611W        W26020  39.068  39.934   1.424
59612W        W26021  14.680  24.212   3.205
59613W        W26022  16.713  30.186   1.929
59614W        W26023   8.328  14.053   0.412
59615W        W26024  26.170  44.414  10.498
59616W        W26025  32.494  29.541   0.633
59617W        W26026   7.718   6.965   0.484
59618W        W26027  19.657  32.204  12.909
59619W        W26028  21.030  39.686  11.934
59620W        W26029  29.014  28.123  14.103
59621W        W26030  28.770  24.981   0.544
59622W        W26031   2.364  23.687  11.125
59623W        W26032   9.198   6.149  11.136
59624W        W26033  35.279  14.230   5.194
59625W        W26034   7.105  14.694  13.988
59626W        W26035   7.393   8.378  10.376
59627W        W26036  33.025  23.064  11.688
59628W        W26037  27.310   3.881   3.736
59629W        W26038   6.760  13.571  11.668
59630W        W26039  13.313  21.582  13.069
59631W        W26040  28.339   6.597   2.030
59632W        W26041  33.947  39.087   1.484
59633W        W26042  31.236  39.268   1.104
59634W        W26043  15.261  23.318   4.491
59635W        W26044   1.297  25.333  11.152
59636W        W26045   4.329  14.775  10.514
59637W        W26046  44.002  28.603  14.237
59638W        W26047   7.167  34.095  14.932
59639W        W26048  38.352  15.934  13.263
59640W        W26049   7.235  39.089   2.397
59641W        W26050  12.338   7.234  14.044
59642W        W26051  28.477  22.011   3.528
59643W        W26052  31.980   6.780  12.878
59644W        W26053  42.762  18.209   4.652
59645W        W26054   4.197  34.067   0.918
59646W        W26055   2.781  24.040  12.998
59647W        W26056  42.482  42.796  13.937
59648W        W26057  43.037   6.424   4.180
59649W        W26058  28.022   4.310   3.686
59650W        W26059   8.260  31.435   2.177
59651W        W26060   6.496  29.498   0.811
59652W        W26061  39.036  36.378   3.074
59653W        W26062  25.156  12.247  13.001
59654W        W26063  39.601   5.587  12.072
59655W        W26064  33.711   8.560  13.118
59656W        W26065  18.174  28.134   3.797
59657W        W26066  27.455  13.270  13.048
59658W        W26067  20.403  29.602  14.834
59659W        W26068  25.598   5.641   3.549
59660W        W26069  18.574  44.663   3.196
59661W        W26070  17.673   9.409   4.290
59662W        W26071  27.412  35.771  13.900
59663W        W26072  35.503   3.747   3.247
59664W        W26073  44.374  27.941   4.133
59665W        W26074  26.804  23.733   2.724
59666W        W26075  37.877  21.056  13.518
59667W        W26076  19.360  43.637  13.605
59668W        W26077  33.292  39.435  14.800
59669W        W26078  14.084  16.699   3.141
59670W        W26079  33.742  41.104  11.058
59671W        W26080  39.610  35.897  14.036
59672W        W26081  20.179  17.288   4.549
59673W        W26082  33.935  35.877   2.728
59674W        W26083  28.622  27.054  12.919
59675W        W26084   5.949  29.024  11.058
59676W        W26085  43.455  42.992  12.680
59677W        W26086  29.614  35.324  11.300
59678W        W26087  20.735  35.842   1.229
59679W        W26088  14.402  12.625   4.041
59680W        W26089   9.252  33.985  11.951
59681W        W26090  41.917  19.931  10.317
59682W        W26091  13.670  27.603  11.570
59683W        W26092   7.401  23.013  14.794
59684W        W26093  16.244  21.211   2.078
59685W        W26094  11.728  23.657   4.753
59686W        W26095   0.025  43.127   3.568
59687W        W26096   4.002  11.475   3.655
59688W        W26097   7.791  27.191   4.655
59689W        W26098  37.319  15.150  14.737
59690W        W26099  26.742  33.966   0.326
59691W        W26100   5.431  44.958  14.934
59692W        W26101  34.786  21.458  14.007
59693W        W26102  36.991   4.685   0.951
59694W        W26103  38.435   7.490   3.758
59695W        W26104  15.385  22.170   3.533
59696W        W26105   3.859  29.072   4.832
59697W        W26106  40.294  13.858  14.844
59698W        W26107  24.256   5.765   1.335
59699W        W26108  21.197  18.143  14.396
59700W        W26109  34.506  16.856   0.244
59701W        W26110  37.754  27.758  14.354
59702W        W26111  37.824  44.533   3.458
59703W        W26112  17.787  10.354  14.792
59704W        W26113  20.003  23.756   0.752
59705W        W26114  33.882  14.734   3.696
59706W        W26115  12.959  44.964  14.164
59707W        W26116   4.791  13.607   4.560
59708W        W26117  12.232  30.058  12.417
59709W        W26118   1.571  40.885   2.154
59710W        W26119   3.617   1.722   5.262
59711W        W26120  15.635  12.335  13.529
59712W        W26121  11.287   5.138  11.476
59713W        W26122  11.050  41.478   3.922
59714W        W26123  40.367   9.967  10.755
59715W        W26124  33.627   4.981  12.058
59716W        W26125  28.131  23.808  11.128
59717W        W26126   3.864  41.938   2.821
59718W        W26127  23.560  18.713   4.173
59719W        W26128  37.954  16.242  13.383
59720W        W26129   8.680  38.625   2.253
59721W        W26130   2.095  28.511  14.988
59722W        W26131  41.328  23.593   4.085
59723W        W26132  10.390  17.752   2.748
59724W        W26133  29.360  18.295   0.232
59725W        W26134   2.323  12.281   2.766
59726W        W26135  43.191  12.850  12.602
59727W        W26136   5.913  39.245  12.992
59728W        W26137   2.037  18.455  14.898
59729W        W26138  16.529   4.788  10.733
59730W        W26139  20.521  24.093   0.486
59731W        W26140  29.724   4.351  10.783
59732W        W26141  40.002  10.354  10.808
59733W        W26142  22.898   7.781  14.429
59734W        W26143  25.146  25.921  13.018
59735W        W26144  40.302   8.861  12.963
59736W        W26145  34.913  28.641   1.179
59737W        W26146   1.769   4.347   4.607
59738W        W26147  39.200  26.784  11.123
59739W        W26148  16.513  29.415   1.940
59740W        W26149  36.937   9.959   0.061
59741W        W26150  38.312   6.825   2.323
59742W        W26151  33.041  18.563  13.501
59743W        W26152  22.380   6.763   2.340
59744W        W26153  35.487  14.256  10.675
59745W        W26154  33.636  26.240  13.848
59746W        W26155  23.274   8.691   0.358
59747W        W26156  29.661  16.291   3.812
59748W        W26157   9.479  20.126   0.538
59749W        W26158  15.862   3.331   2.274
59750W        W26159  44.279   4.395  14.398
59751W        W26160  40.644  22.607   1.977
59752W        W26161  15.348  27.381  11.126
59753W        W26162  31.523  12.893  12.072
59754W        W26163  35.638   6.340  11.602
59755W        W26164  19.449  12.649   1.026
59756W        W26165  25.860   9.764   0.587
59757W        W26166  20.226  12.060   1.973
59758W        W26167   6.392  31.103   3.284
59759W        W26168  10.270   2.778  10.868
59760W        W26169  40.787  39.813   0.528
59761W        W26170  21.856  40.654  11.077
59762W        W26171  44.404  17.931  11.727
59763W        W26172  10.429  29.086  14.455
59764W        W26173  14.611   7.278   0.968
59765W        W26174  21.123  20.706   4.416
59766W        W26175   5.488   3.436   3.639
59767W        W26176  23.140  33.925  14.523
59768W        W26177   1.798  28.675  12.901
59769W        W26178  42.784  35.497   2.889
59770W        W26179  21.458   2.675  14.001
59771W        W26180   8.866  37.521  10.757
59772W        W26181  30.798  41.258  10.400
59773W        W26182  32.344  18.540  11.789
59774W        W26183  26.607   2.582   1.204
59775W        W26184   3.858   7.579  10.808
59776W        W26185   8.778  13.576   0.651
59777W        W26186   4.238  16.742   2.391
59778W        W26187  10.927  43.566   2.327
59779W        W26188  38.116  21.811   0.842
59780W        W26189  20.982   5.440  10.741
59781W        W26190   5.330  29.566  10.756
59782W        W26191  32.202  33.474   2.115
59783W        W26192  39.752  15.220   2.405
59784W        W26193  33.013   3.951   1.351
59785W        W26194  32.865  25.101   2.260
59786W        W26195  30.944   1.834  10.181
59787W        W26196  42.504   0.341  12.927
59788W        W26197   6.169  26.651  11.964
59789W        W26198  28.503  11.815   1.150
59790W        W26199  13.957   5.340  10.780
59791W        W26200  15.642  19.578   3.479
59792W        W26201  25.609  30.692   0.371
59793W        W26202  13.602  43.224  12.128
59794W        W26203  21.957  36.638  11.593
59795W        W26204  38.979  14.328  12.038
59796W        W26205   4.262  35.056   2.686
59797W        W26206  13.644  19.975  10.641
59798W        W26207  26.229  41.068   1.850
59799W        W26208  20.861  37.983   2.524
59800W        W26209  31.073  16.767   3.215
59801W        W26210   7.882  24.635  11.589
59802W        W26211  36.755  15.609  14.928
59803W        W26212  30.937   8.010   1.393
59804W        W26213  26.767  37.332   3.615
59805W        W26214   9.198  19.330   4.833
59806W        W26215  40.849  29.650   2.377
59807W        W26216  14.696   7.189  12.394
59808W        W26217  40.126  14.132  11.167
59809W        W26218   1.826  34.377  14.508
59810W        W26219  15.456  39.098  10.572
59811W        W26220  34.172   2.449  14.798
59812W        W26221  31.634  15.476  11.353
59813W        W26222  36.045   9.067   3.597
59814W        W26223  23.971  15.339   1.177
59815W        W26224  35.582  13.626  10.703
59816W        W26225  35.300  44.958  11.582
59817W        W26226   0.249   1.319   4.348
59818W        W26227  26.072  11.897  11.180
59819W        W26228  15.836  34.151  11.090
59820W        W26229  15.304  24.209   1.871
59821W        W26230  44.983   7.883  13.942
59822W        W26231  38.465   1.414  11.454
59823W        W26232  18.274  42.452  14.685
59824W        W26233   2.751   2.398   2.660
59825W        W26234   7.359  36.956   1.962
59826W        W26235  33.975  37.369   3.726
59827W        W26236  43.055  15.770  12.087
59828W        W26237  40.853  31.566   1.465
59829W        W26238  43.254  21.562   4.075
59830W        W26239  34.063  36.602   1.049
59831W        W26240  22.013  20.490   4.325
59832W        W26241  42.151   5.501   4.587
59833W        W26242   6.075  31.667   1.698
59834W        W26243  43.008   6.460  14.513
59835W        W26244  12.800  13.671   1.977
59836W        W26245  12.154  20.642  14.968
59837W        W26246  23.674  37.416  10.695
59838W        W26247  35.978   9.400   0.914
59839W        W26248  15.829  30.203   3.690
59840W        W26249  13.934  29.663   1.482
59841W        W26250  32.159   7.847   4.581
59842W        W26251  18.477  38.460  12.026
59843W        W26252  22.489  35.874   1.666
59844W        W26253  28.703  38.517  13.429
59845W        W26254  26.470   8.017   1.216
59846W        W26255  33.023  30.422  14.835
59847W        W26256  36.970  27.144  10.748
59848W        W26257  35.902  39.567  13.266
59849W        W26258   6.938  32.551  10.803
59850W        W26259  14.960  18.729  11.675
59851W        W26260  16.143  16.033   4.977
59852W        W26261  31.500  28.626  14.393
59853W        W26262   5.405   7.224  11.591
59854W        W26263  13.377  24.074  10.697
59855W        W26264  42.993  31.841  14.026
59856W        W26265  12.198  24.648   4.623
59857W        W26266  24.513   3.653   3.625
59858W        W26267  34.015  15.200  11.927
59859W        W26268  23.107  18.557  11.681
59860W        W26269  11.670  26.952  10.972
59861W        W26270  29.968  28.670   2.420
59862W        W26271   2.512   1.434  13.797
59863W        W26272  36.513  19.742   4.892
59864W        W26273  28.860   3.390  11.087
59865W        W26274   2.016   6.690   0.797
59866W        W26275  28.514  16.629  13.559
59867W        W26276   3.261  39.971  11.012
59868W        W26277  25.938   8.935  13.097
59869W        W26278   8.788   3.978   0.927
59870W        W26279  42.610  43.409   2.796
59871W        W26280  27.436  44.905   0.209
59872W        W26281  20.087  21.837   1.589
59873W        W26282  13.846  34.006   2.292
59874W        W26283  10.156  26.176   1.628
59875W        W26284   5.656  21.162   3.317
59876W        W26285  26.584  13.421   0.885
59877W        W26286  31.506  31.546   2.866
59878W        W26287  27.354  39.714  12.233
59879W        W26288  35.612  23.103   0.338
59880W        W26289   4.970   5.393   3.248
59881W        W26290  30.072  42.215   3.985
59882W        W26291  19.449  35.515  14.310
59883W        W26292  31.880  43.487   3.823
59884W        W26293  25.590  17.141  13.824
59885W        W26294   9.644  24.327  11.120
59886W        W26295   1.666  25.650   0.002
59887W        W26296  34.402  11.231  13.478
59888W        W26297  21.778   0.474   0.001
59889W        W26298  12.748  42.040   3.569
59890W        W26299  15.060  35.092   2.583
59891W        W26300  33.809  17.271  11.974
59892W        W26301  37.078  35.948  12.403
59893W        W26302  23.661  18.200   1.396
59894W        W26303  22.718  25.949  13.294
59895W        W26304  38.542   5.678   1.938
59896W        W26305  27.714   4.288  10.394
59897W        W26306  41.095  17.504  10.577
59898W        W26307  27.181  22.833  10.377
59899W        W26308  42.213  29.388  12.091
59900W        W26309   4.146  28.815  12.790
59901W        W26310   5.406  40.259   3.704
59902W        W26311  38.638  43.715  10.582
59903W        W26312  15.851  32.694  10.991
59904W        W26313  27.594  16.654   1.425
59905W        W26314  16.628  43.112   4.480
59906W        W26315  34.915   6.259   1.848
59907W        W26316   2.019  38.163  13.481
59908W        W26317  30.963  27.881   4.072
59909W        W26318  13.645  19.999   4.734
59910W        W26319   1.706  10.639   3.377
59911W        W26320   7.992  15.838  13.978
59912W        W26321  33.741   7.125   3.360
59913W        W26322   0.913  42.110  13.063
59914W        W26323  38.592  21.768  13.489
59915W        W26324  10.389  12.167   0.283
59916W        W26325  38.908   8.204  11.339
59917W        W26326   3.687  28.735  12.606
59918W        W26327   5.292  29.149   3.124
59919W        W26328  25.881  15.224   2.190
59920W        W26329  11.253   5.024  13.532
59921W        W26330   7.438  40.011   3.244
59922W        W26331  17.015  25.970  12.659
59923W        W26332  28.381   9.318   1.417
59924W        W26333  35.154  19.843  12.213
59925W        W26334  31.764  28.005   3.677
59926W        W26335  44.892  26.427   1.405
59927W        W26336   4.747  11.767   3.215
59928W        W26337  37.045  36.202   4.298
59929W        W26338  41.404   1.831  12.120
59930W        W26339  33.870   9.282   1.191
59931W        W26340  30.194  30.893  10.705
59932W        W26341  11.650  30.678   4.121
59933W        W26342  20.674   3.763   2.838
59934W        W26343   0.835  43.404   2.288
59935W        W26344  43.435  43.861   1.500
59936W        W26345   2.853  27.420  10.732
59937W        W26346  21.648   0.934   4.031
59938W        W26347  29.719  35.058  13.435
59939W        W26348  40.149  42.338  13.034
59940W        W26349  37.581  39.392   2.669
59941W        W26350  37.402  25.309   4.826
59942W        W26351  33.918  18.828  11.167
59943W        W26352  31.410  27.673   3.851
59944W        W26353  42.347  32.400   0.357
59945W        W26354  14.569  21.639   1.856
59946W        W26355   4.582  27.654   4.097
59947W        W26356  13.026  21.280   0.824
59948W        W26357   4.843   4.006   2.312
59949W        W26358  20.929  35.494  10.821
59950W        W26359  15.852  25.557  12.953
59951W        W26360  22.271  35.628   0.313
59952W        W26361  35.563  23.775   2.271
59953W        W26362  17.861  31.305  11.184
59954W        W26363  20.999  16.744   2.866
59955W        W26364  39.773   8.283  14.246
59956W        W26365  28.036  18.169   1.763
59957W        W26366   2.988   8.141   4.095
59958W        W26367  25.041  26.735   1.844
59959W        W26368  13.046  24.338   5.025
59960W        W26369  40.912  32.004   1.743
59961W        W26370  12.148  22.702  10.769
59962W        W26371  17.222  12.190  13.847
59963W        W26372  30.161  10.104  11.028
59964W        W26373  29.869  25.731  14.407
59965W        W26374  24.017  37.109   4.926
59966W        W26375  37.551   1.912   2.032
59967W        W26376   0.006  13.661   3.364
59968W        W26377  14.172   6.695  11.096
59969W        W26378  27.997  11.624  11.051
59970W        W26379  26.966  27.212  13.933
59971W        W26380  14.817   5.000  13.325
59972W        W26381  39.259  44.035  14.285
59973W        W26382  37.385   5.315  13.388
59974W        W26383  37.292  23.482  11.215
59975W        W26384  35.588  38.352  12.972
59976W        W26385   3.610  39.612  11.161
59977W        W26386  11.239  33.440  14.499
59978W        W26387  19.694  31.874   2.598
59979W        W26388  14.104  37.542   0.844
59980W        W26389  40.801   2.863   0.794
59981W        W26390  10.383  25.400   3.459
59982W        W26391   3.933   3.553  14.027
59983W        W26392   8.844  23.025   0.361
59984W        W26393   7.283  15.538   4.763
59985W        W26394   9.441  29.108  11.638
59986W        W26395  34.483  12.137   4.440
59987W        W26396  39.487  12.946   1.684
59988W        W26397   3.222   7.661   2.046
59989W        W26398  33.277  10.702  12.513
59990W        W26399  13.025  10.511  11.133
59991W        W26400  10.689   2.533   0.447
59992W        W26401   1.500  19.194  14.902
59993W        W26402  22.144  22.178   0.167
59994W        W26403  23.751  36.942  14.945
59995W        W26404  36.977  11.902  12.909
59996W        W26405   6.799  22.595   3.313
59997W        W26406  34.126  14.668  14.944
59998W        W26407  32.605  14.248   4.686
59999W        W26408  19.177  25.932   2.366
60000W        W26409  13.318  43.460   3.941
60001W        W26410  12.863   4.825   5.100
60002W        W26411  13.807  18.130   1.864
60003W        W26412  39.937  16.874   3.594
60004W        W26413  19.322   3.415  10.064
60005W        W26414  36.164  15.226   2.200
60006W        W26415  28.717  17.622   1.446
60007W        W26416  11.375  41.833   3.674
60008W        W26417  39.605  15.264   0.945
60009W        W26418  19.669  39.241  11.215
60010W        W26419  14.325  19.504  11.159
60011W        W26420  28.816  42.080  12.076
60012W        W26421  36.478  15.646  10.732
60013W        W26422  18.654  15.112   1.360
60014W        W26423  25.092  24.160   5.481
60015W        W26424  36.534  29.849   2.936
60016W        W26425   5.656  42.403   2.831
60017W        W26426  33.419  21.765   3.756
60018W        W26427  34.540  13.133  10.628
60019W        W26428  24.429   6.865  11.528
60020W        W26429  23.575  43.028   9.841
60021W        W26430  14.788  38.829   0.780
60022W        W26431   9.040   9.239  12.533
60023W        W26432  40.476  13.728  10.992
60024W        W26433  27.736  39.900  13.605
60025W        W26434   4.846  11.621  11.419
60026W        W26435   0.376  22.228  13.913
60027W        W26436   7.598   7.387  12.921
60028W        W26437  33.049  40.646  14.395
60029W        W26438  13.008   4.713  11.473
60030W        W26439  42.121  41.222  10.260
60031W        W26440  26.438  44.366  12.802
60032W        W26441   5.907  38.453  11.972
60033W        W26442  23.746  17.200  11.765
60034W        W26443  44.913  24.549  12.510
60035W        W26444   5.138  35.742   1.387
60036W        W26445  10.291  21.582   2.848
60037W        W26446   3.794   4.629   0.100
60038W        W26447  38.087   1.376   1.228
60039W        W26448  26.030  15.210  13.824
60040W        W26449  22.323  12.075  11.267
60041W        W26450  26.573  20.531   2.776
60042W        W26451   3.328   8.882  14.466
60043W        W26452  18.859   0.390   1.923
60044W        W26453  36.512  38.093   1.944
60045W        W26454  24.545  18.483  13.949
60046W        W26455   1.369  13.262  11.798
60047W        W26456   9.634  20.134   2.387
60048W        W26457  12.802  14.175  13.969
60049W        W26458   8.896  12.879  11.687
60050W        W26459  41.753  27.178  12.045
60051W        W26460  39.069  10.224  12.463
60052W        W26461  40.362  29.198  13.439
60053W        W26462  31.184  22.203  14.333
60054W        W26463  30.135  13.269   0.960
60055W        W26464   2.737  38.881   2.765
60056W        W26465  10.113   7.026   2.222
60057W        W26466   3.698  10.522  14.783
60058W        W26467   2.363   0.670   4.964
60059W        W26468  38.538  16.658   3.742
60060W        W26469  25.256  21.313  12.968
60061W        W26470  10.282  30.482  11.410
60062W        W26471  24.706  30.543   0.797
60063W        W26472  34.460  21.217  14.326
60064W        W26473   2.653  44.531  12.984
60065W        W26474   8.376   6.275  14.013
60066W        W26475  39.465   5.444   0.932
60067W        W26476  35.387  32.003  11.207
60068W        W26477  42.999   7.909  12.934
60069W        W26478  21.396  42.737   3.693
60070W        W26479  15.913   8.930  14.418
60071W        W26480  27.698  29.087   3.061
60072W        W26481  34.339  44.808  13.995
60073W        W26482   5.089   9.956  10.297
60074W        W26483  13.667  35.293   3.559
60075W        W26484  43.485  10.475   4.476
60076W        W26485  18.340  26.942   0.022
60077W        W26486  34.783  19.181   2.742
60078W        W26487  23.815  25.269   0.773
60079W        W26488  13.334  34.564  10.252
60080W        W26489  19.138  44.318   2.795
60081W        W26490   1.888  37.265  11.139
60082W        W26491   0.765  42.777  12.041
60083W        W26492  11.590  35.976   1.676
60084W        W26493   5.171  23.517   4.687
60085W        W26494  14.328  33.350  14.076
60086W        W26495  13.019  20.533   4.378
60087W        W26496  20.215  20.291   4.654
60088W        W26497  12.325  30.158   4.395
60089W        W26498  15.376  34.505  10.607
60090W        W26499  20.082   1.881   4.183
60091W        W26500  13.344   7.922  13.882
60092W        W26501  12.874  18.309  12.749
60093W        W26502  27.612  30.987  11.563
60094W        W26503  35.471  31.066   1.796
60095W        W26504  34.447  30.934  10.660
60096W        W26505  11.274  11.416   4.636
60097W        W26506  40.418  10.806  11.800
60098W        W26507   6.408  19.366   4.568
60099W        W26508  41.420   0.517   2.204
60100W        W26509  31.053  44.882  11.146
60101W        W26510  23.203  38.937  14.493
60102W        W26511   1.733  11.785  13.380
60103W        W26512  27.059  11.556  14.746
60104W        W26513  12.800  42.556   3.636
60105W        W26514  21.253  22.353   1.980
60106W        W26515  38.398  21.024   3.304
60107W        W26516  14.883  19.541  10.269
60108W        W26517  11.740  21.620   1.893
60109W        W26518  25.933  44.088  13.576
60110W        W26519   5.262  30.676   3.123
60111W        W26520   4.965  37.544  10.611
60112W        W26521  42.332   5.862   2.367
60113W        W26522   3.342   7.744   1.497
60114W        W26523  27.428  34.518   2.539
60115W        W26524   3.873  40.331  10.417
60116W        W26525  22.327  15.461   4.443
60117W        W26526   6.759  31.244  10.429
60118W        W26527  40.305  31.671   0.014
60119W        W26528   5.885  38.706  13.077
60120W        W26529  30.591  44.846  10.876
60121W        W26530   9.460  29.892  12.160
60122W        W26531  35.765  23.589   0.513
60123W        W26532  43.773   5.806  11.873
60124W        W26533  41.917  23.019   3.792
60125W        W26534  15.798  11.749   0.376
60126W        W26535  26.597  30.430  10.750
60127W        W26536  33.507   6.907  10.546
60128W        W26537   5.005  25.943  12.893
60129W        W26538  42.274  22.633  11.859
60130W        W26539  18.657  18.748  10.655
60131W        W26540  11.280  22.561   0.590
60132W        W26541  35.602   4.690   1.384
60133W        W26542  33.883  10.166  14.084
60134W        W26543  25.277  27.264   0.459
60135W        W26544  32.126  13.739   3.873
60136W        W26545  30.467  13.851   4.437
60137W        W26546  35.970  37.154   3.542
60138W        W26547   1.323  11.624  10.616
60139W        W26548  14.046  35.634   0.977
60140W        W26549  22.319  20.508  12.568
60141W        W26550   6.847  36.157   1.347
60142W        W26551  10.228   4.918   3.170
60143W        W26552  35.963  13.184   3.393
60144W        W26553  21.085  30.082  13.043
60145W        W26554   1.418  21.559   1.899
60146W        W26555  20.558  13.298   1.307
60147W        W26556  40.300   5.827  12.573
60148W        W26557  30.079  25.467  12.665
60149W        W26558  13.653  32.469  13.606
60150W        W26559  40.518  19.697  13.211
60151W        W26560  19.178  39.358   0.560
60152W        W26561  44.485  14.210  14.485
60153W        W26562  33.962  22.256  12.351
60154W        W26563   2.201  26.181  12.950
60155W        W26564  13.539  19.817   0.872
60156W        W26565  10.250  22.116   3.615
60157W        W26566  34.941  12.854  13.496
60158W        W26567  25.096  27.626  13.718
60159W        W26568  32.959  30.633   4.393
60160W        W26569  38.460  43.416   2.158
60161W        W26570  35.892  39.503   4.665
60162W        W26571  30.884  41.968   0.200
60163W        W26572  16.012  43.546   1.166
60164W        W26573  16.284  30.680  12.482
60165W        W26574  21.974  44.077  13.904
60166W        W26575  42.320  27.484  12.099
60167W        W26576  28.465  20.229  10.414
60168W        W26577   2.821   3.714   0.280
60169W        W26578  42.941  27.853  12.869
60170W        W26579   6.789  13.460   0.667
60171W        W26580  36.842  32.166   0.287
60172W        W26581  24.990   6.869  14.329
60173W        W26582  32.787  21.589  12.867
60174W        W26583  27.066  25.721  11.262
60175W        W26584  26.639   2.835  11.573
60176W        W26585  19.619   3.165   5.041
60177W        W26586  18.472  41.697  10.385
60178W        W26587  34.691   9.879   2.410
60179W        W26588   3.583   1.913  11.788
60180W        W26589   6.370  20.715  12.436
60181W        W26590   6.842  36.282   2.233
60182W        W26591  32.318  24.147  13.602
60183W        W26592  41.347  28.731   0.676
60184W        W26593  21.555  25.497   4.615
60185W        W26594   5.899  13.106  12.021
60186W        W26595  11.103   0.439  11.824
60187W        W26596  19.111   4.463  10.660
60188W        W26597  43.779  31.845   3.641
60189W        W26598  38.034  25.691   0.766
60190W        W26599   4.797  40.097  12.482
60191W        W26600  24.492   3.417  14.639
60192W        W26601  28.694  22.603   1.336
60193W        W26602  16.487  10.367  11.149
60194W        W26603   6.835  19.091   2.575
60195W        W26604   3.965  19.515  11.656
60196W        W26605   5.688  21.033   0.018
60197W        W26606   4.257  40.006  14.869
60198W        W26607   1.977  12.487  14.648
60199W        W26608   1.700  26.914  10.557
60200W        W26609  38.256  14.835   2.803
60201W        W26610  37.082   0.005  11.112
60202W        W26611   9.323  14.012   4.155
60203W        W26612  12.823  39.896  13.446
60204W        W26613  38.350   8.341   0.972
60205W        W26614   5.657  27.665  12.143
60206W        W26615  38.816   2.298   2.364
60207W        W26616  20.102  34.636   2.300
60208W        W26617  30.532  38.794  13.967
60209W        W26618   9.288  34.534  11.131
60210W        W26619   2.338  20.271   0.844
60211W        W26620  23.707  41.443  11.727
60212W        W26621  43.533   9.486  10.494
60213W        W26622   9.725  18.165   4.341
60214W        W26623  44.018  44.504   3.927
60215W        W26624   9.347  17.291   1.041
60216W        W26625  11.094  23.589  11.971
60217W        W26626  36.207  11.410  12.540
60218W        W26627  35.011  17.055  13.820
60219W        W26628  10.641  39.350  13.316
60220W        W26629  30.686  22.791   3.773
60221W        W26630  43.388   8.733  14.148
60222W        W26631  21.615  42.857  12.629
60223W        W26632  18.779  27.710  14.451
60224W        W26633  17.521  28.128  10.549
60225W        W26634   1.446  12.273   0.789
60226W        W26635  25.960  20.630  12.626
60227W        W26636  31.491  35.415   4.479
60228W        W26637  18.412  44.975   2.777
60229W        W26638  10.103   5.447   4.677
60230W        W26639  33.058  15.714  14.494
60231W        W26640  16.787   4.111  12.701
60232W        W26641  10.274  22.590  12.061
60233W        W26642  25.954  16.711  11.145
60234W        W26643  21.508  27.448  12.646
60235W        W26644  34.608   0.856   0.175
60236W        W26645  14.777  40.999   2.319
60237W        W26646  34.979  13.803  12.494
60238W        W26647  12.936  21.847   1.389
60239W        W26648  39.540  33.192  14.812
60240W        W26649  19.485   7.380   4.557
60241W        W26650  13.365   0.371   3.766
60242W        W26651  17.848  22.048   0.677
60243W        W26652  11.372  44.466   3.178
60244W        W26653  10.200  13.128  14.663
60245W        W26654  19.478  27.227   1.826
60246W        W26655  44.952  36.708   4.078
60247W        W26656  30.933  16.113   1.330
60248W        W26657  11.245  23.484   3.058
60249W        W26658   0.307   6.427   4.051
60250W        W26659  15.681  18.550   3.616
60251W        W26660  14.738   1.458  12.778
60252W        W26661  19.253  19.384   1.903
60253W        W26662   0.192  26.640  12.628
60254W        W26663  42.646  26.646  12.142
60255W        W26664   5.873   7.822   0.922
60256W        W26665  33.169  26.462   1.782
60257W        W26666  22.174  40.295  13.955
60258W        W26667  24.977  16.319   1.981
60259W        W26668  37.043  30.632   4.308
60260W        W26669  33.473  43.247  13.902
60261W        W26670  29.957  13.364   3.683
60262W        W26671   2.492  24.418   3.085
60263W        W26672  25.331  40.591   0.979
60264W        W26673  34.487  10.880  12.097
60265W        W26674  25.646  18.340   4.704
60266W        W26675  27.414   8.925   2.350
60267W        W26676  43.390  31.893  12.417
60268W        W26677  22.431  41.307  11.256
60269W        W26678  12.726   9.166   0.333
60270W        W26679  18.693  31.633  14.909
60271W        W26680   0.799  28.618  13.846
60272W        W26681  42.079  33.440   4.073
60273W        W26682  39.795  27.576   2.402
60274W        W26683  39.348  13.582   0.370
60275W        W26684  32.035   7.826  12.378
60276W        W26685  10.673  15.097   4.840
60277W        W26686   3.453   6.501   4.096
60278W        W26687  17.109  16.529  10.763
60279W        W26688  19.168  32.308  12.152
60280W        W26689  44.993  36.020  12.052
60281W        W26690  22.304  28.583   3.178
60282W        W26691   4.660  17.901   2.211
60283W        W26692  11.834  23.485   0.348
60284W        W26693  33.939  15.256   3.667
60285W        W26694   3.051  41.984   4.554
60286W        W26695  22.728   7.211   4.081
60287W        W26696   0.977  33.081   3.688
60288W        W26697   3.979   1.793   3.673
60289W        W26698  21.071   4.304   3.753
60290W        W26699   6.673  21.200  11.128
60291W        W26700  26.980  32.834   3.631
60292W        W26701  40.490  24.947  13.719
60293W        W26702  32.596  19.216  10.825
60294W        W26703  34.240  34.171   4.194
60295W        W26704  19.925  42.046  12.033
60296W        W26705  10.986   5.140  12.159
60297W        W26706  19.687  23.028  13.452
60298W        W26707  20.688   6.071   1.944
60299W        W26708  36.953  41.029  10.801
60300W        W26709  20.998   5.225   1.920
60301W        W26710   4.637  36.638  13.489
60302W        W26711  44.014  19.965   2.310
60303W        W26712  15.588  14.788   4.050
60304W        W26713  38.871  14.404  11.522
60305W        W26714  10.904  24.733   4.947
60306W        W26715   3.811  10.658   1.347
60307W        W26716   0.633  24.119  13.903
60308W        W26717  14.784  11.778  12.467
60309W        W26718  35.364  27.676  12.053
60310W        W26719  15.132  31.067  11.985
60311W        W26720   9.381  40.346   3.190
60312W        W26721  33.110   0.810   1.527
60313W        W26722  16.119  26.519  10.927
60314W        W26723   7.009  24.140  14.422
60315W        W26724  42.541  42.956  12.980
60316W        W26725  42.344   8.991   1.397
60317W        W26726  19.638  28.211  12.655
60318W        W26727   0.361   7.329   2.439
60319W        W26728  18.213  10.674  12.033
60320W        W26729  42.839  27.950  14.861
60321W        W26730  21.308  34.151   2.394
60322W        W26731   3.234  32.529  10.828
60323W        W26732   0.339  31.468   4.848
60324W        W26733  31.484  44.417   2.171
60325W        W26734   3.823  40.306   2.779
60326W        W26735  34.043  30.888   2.220
60327W        W26736   8.865   5.854   2.799
60328W        W26737  17.587  38.369   3.287
60329W        W26738  22.553  27.180  13.164
60330W        W26739  30.599  15.906  13.098
60331W        W26740  42.005  28.390   2.649
60332W        W26741  24.454  23.576   1.080
60333W        W26742  18.666  35.144  11.609
60334W        W26743  44.992  21.651   2.776
60335W        W26744  43.632  30.362   0.937
60336W        W26745  31.610  27.257   3.395
60337W        W26746  33.610  26.520  14.497
60338W        W26747  27.243  26.288  13.988
60339W        W26748  13.788  16.683  14.050
60340W        W26749  39.289  39.611   4.821
60341W        W26750  36.907  39.039  12.145
60342W        W26751  42.893  36.424   2.659
60343W        W26752  27.615  20.400   3.540
60344W        W26753  27.712  22.494  11.004
60345W        W26754   0.813  35.858  11.558
60346W        W26755  25.639  12.885  13.951
60347W        W26756  27.488   3.268   2.715
60348W        W26757   1.072   8.888   3.136
60349W        W26758  40.705  32.522   1.231
60350W        W26759  29.448   7.389   0.779
60351W        W26760  34.343  30.972   4.724
60352W        W26761  22.684   1.381  11.423
60353W        W26762  28.101  26.194  11.948
60354W        W26763   6.500  38.784  11.213
60355W        W26764  29.185  40.141  12.415
60356W        W26765  26.529  25.296  12.323
60357W        W26766  34.926   4.320   4.362
60358W        W26767   8.425   3.136   3.719
60359W        W26768   1.133   2.645   3.388
60360W        W26769  39.045   7.315   4.619
60361W        W26770  42.439  16.532   3.541
60362W        W26771  34.995  16.739   0.962
60363W        W26772  33.926  40.411   4.843
60364W        W26773  44.398  26.985   1.882
60365W        W26774  28.330  24.692   3.967
60366W        W26775  32.629  43.904  13.704
60367W        W26776  43.824  34.107  11.934
60368W        W26777  32.919   5.666   3.732
60369W        W26778  27.993  31.408   2.689
60370W        W26779  10.827  36.139  14.481
60371W        W26780  17.023  29.689   4.646
60372W        W26781   6.695  43.481   2.770
60373W        W26782  35.533   5.565   2.350
60374W        W26783  26.739  41.894   0.389
60375W        W26784  16.641  38.342  12.917
60376W        W26785  13.081  17.123   3.235
60377W        W26786  39.800  42.764  12.958
60378W        W26787  31.377   5.257  12.094
60379W        W26788  23.021  24.632  13.758
60380W        W26789  29.946  17.181  11.664
60381W        W26790  21.013  28.655   1.150
60382W        W26791   6.639  41.453  12.516
60383W        W26792   4.791  36.406  13.916
60384W        W26793  18.062   4.820   4.013
60385W        W26794  27.400  33.652   3.800
60386W        W26795   7.418   3.202  12.742
60387W        W26796  27.083  35.965   0.807
60388W        W26797  21.515   7.277  13.528
60389W        W26798  11.626  35.319   0.439
60390W        W26799  34.193  32.408   1.668
60391W        W26800  35.845   3.350   3.889
60392W        W26801  43.448  22.225   4.542
60393W        W26802   0.441  27.533   0.894
60394W        W26803  20.677  32.564  12.862
60395W        W26804  37.605   6.200  14.351
60396W        W26805  40.765  14.337  14.385
60397W        W26806   1.612  44.621  11.219
60398W        W26807   2.992   3.335   2.598
60399W        W26808  28.537  37.065   3.325
60400W        W26809  11.672   5.377  14.280
60401W        W26810  20.361  23.582  12.584
60402W        W26811  19.465  26.448  14.824
60403W        W26812   6.888   3.261   1.841
60404W        W26813  37.944  42.951   2.713
60405W        W26814   2.372  40.924  12.550
60406W        W26815   8.358  24.040  11.626
60407W        W26816  22.025  18.570  12.842
60408W        W26817   0.345  21.228   3.702
60409W        W26818  43.730  17.085   1.182
60410W        W26819  19.220   0.827   2.659
60411W        W26820  22.756  32.703   4.872
60412W        W26821  24.039  35.274  14.316
60413W        W26822  27.068   6.112  13.302
60414W        W26823  13.697  28.890   1.219
60415W        W26824  36.430   5.330  13.440
60416W        W26825  44.489  20.588  13.788
60417W        W26826  19.963  38.444  10.875
60418W        W26827  13.871  37.564   1.594
60419W        W26828  41.195  34.914  14.298
60420W        W26829  26.334  20.183  14.343
60421W        W26830   9.574  36.833   3.565
60422W        W26831   9.256  40.605   1.707
60423W        W26832   5.689  38.862  11.715
60424W        W26833   7.375  19.117   0.454
60425W        W26834  15.392  18.821   0.422
60426W        W26835  38.153  16.013  10.205
60427W        W26836  30.176  43.050   2.214
60428W        W26837  25.240  18.133  11.503
60429W        W26838  15.412  16.057   4.415
60430W        W26839  30.617  40.777  13.025
60431W        W26840  31.692  33.868  14.933
60432W        W26841  13.146  22.490  12.546
60433W        W26842  27.067   5.186  10.470
60434W        W26843  36.817  29.711  13.101
60435W        W26844  30.899  35.144   3.746
60436W        W26845  39.323  22.673   2.514
60437W        W26846  30.046   8.384  13.292
60438W        W26847  30.704  18.618   1.386
60439W        W26848   3.710  19.744  14.901
60440W        W26849   4.348  38.836   2.480
60441W        W26850  29.355  42.406  13.763
60442W        W26851  31.897  32.477   5.083
60443W        W26852  34.538  27.700   1.952
60444W        W26853  35.049  30.989  11.210
60445W        W26854   2.709   9.694  13.485
60446W        W26855  21.751  33.885   1.005
60447W        W26856   3.502  26.628  10.206
60448W        W26857  40.399  30.991  10.668
60449W        W26858  29.960   5.669   0.900
60450W        W26859  39.722  36.075  11.565
60451W        W26860   0.997  26.660   0.676
60452W        W26861   0.414  23.539  12.653
60453W        W26862  22.181   0.284   0.923
60454W        W26863  25.562  25.241  11.024
60455W        W26864   5.902   1.226   2.880
60456W        W26865  22.098  19.431  13.039
60457W        W26866  14.151   1.695  11.426
60458W        W26867   7.265  25.120  12.006
60459W        W26868   3.238   5.010   3.387
60460W        W26869  27.241   3.186   3.791
60461W        W26870  31.686   3.374  13.412
60462W        W26871  40.003  21.515  12.361
60463W        W26872  35.475  11.370  11.449
60464W        W26873  17.718  35.017   4.630
60465W        W26874  36.099  32.608   3.851
60466W        W26875  34.856   1.334   0.927
60467W        W26876   1.211  16.927   0.925
60468W        W26877  16.615  35.740   2.691
60469W        W26878  32.147  36.605   1.652
60470W        W26879   9.372  43.819   0.292
60471W        W26880  35.796  41.650   3.261
60472W        W26881   2.996   0.119   0.244
60473W        W26882  37.495   6.781  12.576
60474W        W26883  13.005  19.891   0.827
60475W        W26884  25.466  30.066  11.537
60476W        W26885  21.191  10.895  13.481
60477W        W26886  19.775  24.483   3.347
60478W        W26887  40.518  32.129   4.990
60479W        W26888  34.492   1.414  10.300
60480W        W26889   8.517  28.687   3.893
60481W        W26890  31.438  43.788   3.786
60482W        W26891  32.113  41.354   3.232
60483W        W26892  37.636  33.752   2.364
60484W        W26893  20.758  40.866   2.014
60485W        W26894  37.313  14.324   4.279
60486W        W26895  32.339  33.883  14.099
60487W        W26896  33.014   6.430  13.862
60488W        W26897   7.240  40.592  11.121
60489W        W26898  27.464   5.246   4.618
60490W        W26899  12.412  26.733  13.781
60491W        W26900   1.025  21.555   1.276
60492W        W26901  24.844  43.391   3.696
60493W        W26902   8.712  25.947   1.459
60494W        W26903  37.598  44.579  14.003
60495W        W26904  44.868  18.658  11.952
60496W        W26905  36.599   8.314  11.374
60497W        W26906  32.098  27.046   3.233
60498W        W26907   6.146  21.861   3.830
60499W        W26908  21.046  25.687  11.154
60500W        W26909  22.138  16.508   3.780
60501W        W26910  12.097  22.182   3.442
60502W        W26911   8.651  28.924  11.975
60503W        W26912  22.794   0.215   1.762
60504W        W26913  33.340   1.789  11.733
60505W        W26914   2.278  41.843   0.387
60506W        W26915  26.318   4.036   4.187
60507W        W26916  33.851  20.502  13.096
60508W        W26917   7.844  18.202  11.466
60509W        W26918   4.555  26.692   1.228
60510W        W26919  35.942  27.606   3.701
60511W        W26920   2.198  24.260   2.677
60512W        W26921  28.551  40.471   2.844
60513W        W26922   0.618  31.142  14.473
60514W        W26923  38.875  31.547   1.483
60515W        W26924  28.916  27.006  11.480
60516W        W26925  26.101  35.331   4.633
60517W        W26926  41.347  25.713   3.673
60518W        W26927  30.176   2.529   2.702
60519W        W26928  42.916  22.501   0.723
60520W        W26929  12.555  42.870  14.952
60521W        W26930   5.820  10.774  12.564
60522W        W26931  40.912  37.522   1.332
60523W        W26932  24.674  36.536   4.579
60524W        W26933   6.449  24.221  14.416
60525W        W26934  11.945   0.385  12.923
60526W        W26935  41.069  39.119  14.416
60527W        W26936  38.340  15.326  11.506
60528W        W26937  22.982  22.835  12.497
60529W        W26938  33.309  38.309   1.359
60530W        W26939  42.564  41.920  11.911
60531W        W26940  40.348  21.753   4.423
60532W        W26941   6.222   3.282   3.165
60533W        W26942  18.344  37.370   0.269
60534W        W26943  22.456  35.001   1.613
60535W        W26944  24.977   8.224  11.037
60536W        W26945  17.058  37.842   1.741
60537W        W26946  22.221  37.018  13.713
60538W        W26947  28.127   8.924  11.931
60539W        W26948  19.836  10.860   2.298
60540W        W26949  22.457  31.779   2.755
60541W        W26950  25.608  31.671  10.910
60542W        W26951   6.687  40.922  12.511
60543W        W26952  37.051  18.842  11.490
60544W        W26953   1.199   8.473   2.260
60545W        W26954  11.315  42.933   2.615
60546W        W26955  10.725   6.822  14.647
60547W        W26956  12.712  25.111   2.670
60548W        W26957  17.019  34.622  12.145
60549W        W26958  10.791  10.610  14.719
60550W        W26959  38.450  42.968  11.199
60551W        W26960  28.580  34.936  10.727
60552W        W26961   7.716  44.923   2.279
60553W        W26962   6.680  37.102   1.863
60554W        W26963  30.210  35.739   3.246
60555W        W26964  14.689  33.043  11.406
60556W        W26965  32.319  23.052   2.869
60557W        W26966   3.260  29.333   4.186
60558W        W26967  24.077   4.821  13.427
60559W        W26968  15.229  38.357   1.703
60560W        W26969  25.882  29.392   1.405
60561W        W26970   3.605   3.595  12.461
60562W        W26971   6.224  24.056   1.379
60563W        W26972  36.749  20.581  11.175
60564W        W26973  40.168  21.299   3.659
60565W        W26974  20.059   8.382  13.430
60566W        W26975  36.875  32.120  14.374
60567W        W26976  34.960  16.318  12.515
60568W        W26977  32.851  22.031  10.707
60569W        W26978  20.932   4.387   1.109
60570W        W26979  12.334  17.209  13.386
60571W        W26980  34.009  26.638   1.637
60572W        W26981  19.242   2.660  12.269
60573W        W26982  33.244  21.335  13.766
60574W        W26983  17.600  22.101   4.091
60575W        W26984  19.984   8.781  14.971
60576W        W26985  36.028  31.491  14.383
60577W        W26986   4.862  22.411  11.477
60578W        W26987   5.208   5.612  14.775
60579W        W26988  41.023  37.980   0.841
60580W        W26989  44.726  20.494  12.078
60581W        W26990  12.639   9.479  10.493
60582W        W26991  35.601   2.454  13.898
60583W        W26992  37.323   8.356   0.977
60584W        W26993  13.202  41.325   4.060
60585W        W26994  15.260  38.063   3.287
60586W        W26995   2.725   0.503  11.949
60587W        W26996  21.400   3.438   0.313
60588W        W26997  21.118  41.878   2.516
60589W        W26998  10.900  38.354   2.031
60590W        W26999   0.455  17.686   0.321
60591W        W27000   3.447  11.300  12.181
60592W        W27001  26.612   7.216   0.915
60593W        W27002   1.444   7.691  11.844
60594W        W27003  24.434  20.471   3.316
60595W        W27004   2.805   3.957  14.835
60596W        W27005  26.607  15.635   1.136
60597W        W27006  11.096  42.463   0.385
60598W        W27007  16.036  34.107   3.240
60599W        W27008  32.362  23.953  14.091
60600W        W27009  14.265  31.576  10.678
60601W        W27010  44.693  16.705   5.031
60602W        W27011  12.629   2.942   2.571
60603W        W27012  14.206  29.526   3.968
60604W        W27013  22.755  22.067   3.925
60605W        W27014   6.266   4.726   1.028
60606W        W27015  27.937  33.250   0.965
60607W        W27016   4.166   7.815   3.209
60608W        W27017   3.749  38.403  11.497
60609W        W27018  19.674  21.713   1.875
60610W        W27019  30.364  42.570   3.304
60611W        W27020   4.126   3.676  12.484
60612W        W27021   4.430  36.014  12.921
60613W        W27022  42.846   6.175   0.538
60614W        W27023   6.676  21.054   2.389
60615W        W27024   0.907  17.399   0.359
60616W        W27025  39.311  37.631   2.710
60617W        W27026  35.419   6.375   1.178
60618W        W27027  12.154  26.679   2.305
60619W        W27028   5.768  16.379   1.767
60620W        W27029  30.882  42.552  14.862
60621W        W27030   3.877  37.483  14.809
60622W        W27031   1.884  37.793  11.868
60623W        W27032  14.151  24.290   3.691
60624W        W27033  21.251  28.687   3.219
60625W        W27034   6.279  20.154  14.335
60626W        W27035   7.691  27.209   3.612
60627W        W27036  36.971   9.764  14.588
60628W        W27037  44.900  43.038  12.602
60629W        W27038  29.966  20.123  11.668
60630W        W27039  10.275   1.000  12.177
60631W        W27040  33.652  42.598  14.300
60632W        W27041   7.679  33.361   3.646
60633W        W27042  34.170  37.039   3.367
60634W        W27043  29.800  23.325  10.670
60635W        W27044  31.031  43.593   1.752
60636W        W27045  24.220  12.701  13.764
60637W        W27046  12.187  40.100  14.194
60638W        W27047   0.803  25.052  12.941
60639W        W27048  19.942  36.315  13.827
60640W        W27049  19.080   2.787  12.742
60641W        W27050  27.269  21.087   2.764
60642W        W27051   9.894  35.628   3.781
60643W        W27052  36.505  34.696  11.536
60644W        W27053   0.625  40.959   3.904
60645W        W27054  10.287  20.862  10.556
60646W        W27055  15.263  25.688  10.734
60647W        W27056  44.756   8.774   4.561
60648W        W27057  18.224  28.507   4.184
60649W        W27058  26.621  22.664   3.847
60650W        W27059  35.560  16.294  10.349
60651W        W27060  43.450  20.638  12.794
60652W        W27061  44.863  34.677  10.827
60653W        W27062   2.904  24.538  12.925
60654W        W27063  40.790  23.769  13.103
60655W        W27064  25.959   7.396  12.951
60656W        W27065  18.970   4.205  13.680
60657W        W27066  27.492  21.686  14.416
60658W        W27067  16.428  21.323   0.622
60659W        W27068  20.109   4.640  14.805
60660W        W27069   7.330  33.003   0.919
60661W        W27070  10.806  37.170   4.873
60662W        W27071   7.492  37.099  12.913
60663W        W27072  39.598  43.781  12.945
60664W        W27073  21.978  35.168   1.889
60665W        W27074  10.850  17.350   2.700
60666W        W27075  11.767   2.810   3.951
60667W        W27076  36.438  30.052  14.024
60668W        W27077  16.969  42.634   4.991
60669W        W27078   9.506  19.897  10.671
60670W        W27079  39.799  27.101  12.934
60671W        W27080  37.327  25.264   3.256
60672W        W27081  15.681  18.281   3.169
60673W        W27082  39.992   5.242  14.351
60674W        W27083  21.487  20.829   1.910
60675W        W27084  28.900  24.111  14.684
60676W        W27085  40.922  18.031  12.898
60677W        W27086   0.728  38.994  10.290
60678W        W27087   2.971  15.138   3.348
60679W        W27088  38.416  13.746   4.414
60680W        W27089  18.149   1.462   1.389
60681W        W27090  32.672   5.223   9.811
60682W        W27091  28.425  31.066  13.554
60683W        W27092   4.431  21.603   3.812
60684W        W27093  37.929  41.895   3.731
60685W        W27094  23.539  29.244   1.829
60686W        W27095   8.304   8.339  11.312
60687W        W27096  44.936  21.924  13.952
60688W        W27097   2.966  29.122  14.928
60689W        W27098  24.423   5.865   0.800
60690W        W27099  18.908  39.405   0.065
60691W        W27100  27.680  21.498  14.864
60692W        W27101  40.055  44.740   3.422
60693W        W27102  16.215  28.185  10.605
60694W        W27103  32.450  24.995  11.176
60695W        W27104  24.792  40.543  11.153
60696W        W27105  26.160  19.257  13.745
60697W        W27106  21.461  12.373   3.806
60698W        W27107  37.318  37.424   0.206
60699W        W27108  41.507  39.802  12.905
60700W        W27109  28.996   0.368   1.924
60701W        W27110  31.003   7.826  10.620
60702W        W27111   5.080  27.948   0.873
60703W        W27112  20.660  26.521  13.288
60704W        W27113  35.804  11.723  12.553
60705W        W27114   0.971  13.508   4.044
60706W        W27115  14.836  35.035  13.446
60707W        W27116  37.297  10.352   3.561
60708W        W27117  20.094  43.406   0.998
60709W        W27118  19.345  23.576  14.879
60710W        W27119  13.752  26.542   1.690
60711W        W27120  30.498  43.803  12.390
60712W        W27121  18.323  21.582   9.973
60713W        W27122  23.482   4.254  12.591
60714W        W27123  16.563  40.939  10.745
60715W        W27124  39.077  32.786   3.779
60716W        W27125  17.578  22.632   3.790
60717W        W27126  23.508  17.640   4.014
60718W        W27127   7.710  34.872   0.825
60719W        W27128  27.061   8.307  11.683
60720W        W27129  20.145  40.944   4.457
60721W        W27130  39.784  15.285   0.034
60722W        W27131  42.939  12.382   0.978
60723W        W27132  41.336  26.174   0.411
60724W        W27133   2.436  14.696  14.906
60725W        W27134  38.808  20.456  14.347
60726W        W27135   3.744  11.814   0.659
60727W        W27136   9.094  16.793   2.740
60728W        W27137  41.428  42.357  10.891
60729W        W27138  11.088  11.360  10.619
60730W        W27139   1.273  31.648   1.905
60731W        W27140  36.277  20.204   3.206
60732W        W27141  32.619  30.826   4.885
60733W        W27142  34.386  12.565  12.371
60734W        W27143  20.449  16.124   3.219
60735W        W27144   7.704  39.469   0.174
60736W        W27145  32.801  44.181  10.987
60737W        W27146  39.881   5.929   1.680
60738W        W27147  22.708  12.391  13.400
60739W        W27148   9.644  19.468  12.050
60740W        W27149  14.746  23.577   1.298
60741W        W27150  17.088  36.602  11.079
60742W        W27151  19.246  20.522  12.963
60743W        W27152  14.591  33.419   3.751
60744W        W27153  26.491  24.182  13.057
60745W        W27154   0.354  14.595  11.927
60746W        W27155  36.578  10.934  10.549
60747W        W27156  31.203  14.282  14.282
60748W        W27157  13.686  14.751   4.129
60749W        W27158  44.918   8.486   3.654
60750W        W27159  43.248  44.815  12.648
60751W        W27160  20.253  14.566  12.434
60752W        W27161   6.584   6.799   3.744
60753W        W27162  33.877   4.846   3.210
60754W        W27163  37.326  38.364   3.677
60755W        W27164  33.502  34.796   4.135
60756W        W27165  35.971  25.728   3.600
60757W        W27166  31.908   5.428  10.823
60758W        W27167  17.746  44.553   4.047
60759W        W27168  40.521  30.120  11.092
60760W        W27169  11.214  11.806   1.330
60761W        W27170  26.120  43.936   4.647
60762W        W27171  37.832  27.852   1.126
60763W        W27172   4.202  40.853   2.292
60764W        W27173  13.997  17.539  11.026
60765W        W27174  25.487  40.418  12.446
60766W        W27175  17.725  25.687  12.956
60767W        W27176   3.064  42.637   4.030
60768W        W27177  20.197  36.675  12.568
60769W        W27178  10.662   9.431  11.651
60770W        W27179  20.181   5.943  14.614
60771W        W27180   0.981  24.092  10.536
60772W        W27181  20.673  36.991  11.407
60773W        W27182   9.527  10.254  10.697
60774W        W27183  15.548  43.493   1.374
60775W        W27184  26.424  17.396  11.015
60776W        W27185  22.026  18.124   3.372
60777W        W27186   9.726   7.827   3.897
60778W        W27187  40.872  41.493  12.451
60779W        W27188   3.528  29.719   1.320
60780W        W27189  21.089   4.421   2.856
60781W        W27190  15.988  25.053  12.996
60782W        W27191   2.982  15.358  14.444
60783W        W27192   2.052  21.910   4.557
60784W        W27193   2.092  42.971   0.508
60785W        W27194   5.726  39.429  12.553
60786W        W27195  27.454   4.886  14.389
60787W        W27196  43.798  28.671  11.086
60788W        W27197   3.283   2.264   2.803
60789W        W27198   4.853  16.291  12.354
60790W        W27199   5.461   4.991  12.093
60791W        W27200  17.182  30.187  10.669
60792W        W27201  10.741   1.774  12.967
60793W        W27202  24.853  20.348   2.198
60794W        W27203  23.976  38.082   2.349
60795W        W27204   3.697  15.104   3.838
60796W        W27205  10.128  36.557  12.360
60797W        W27206   0.699   3.452   4.180
60798W        W27207  38.517  35.504  14.990
60799W        W27208  12.979  29.564   2.483
60800W        W27209   0.513   4.276   2.192
60801W        W27210  22.971   3.649   2.025
60802W        W27211  11.370   2.959  13.173
60803W        W27212  26.948  37.591  12.945
60804W        W27213  20.054  24.204  14.823
60805W        W27214   2.375  16.722   4.616
60806W        W27215   7.238  11.850  11.516
60807W        W27216  28.920  37.800   4.003
60808W        W27217  35.636  41.957  12.141
60809W        W27218  36.329  19.877  12.860
60810W        W27219   5.492  39.344   0.194
60811W        W27220  44.907  23.073   0.483
60812W        W27221  24.191  29.740  12.885
60813W        W27222  41.183  30.053   2.358
60814W        W27223  32.648  20.861  14.199
60815W        W27224  40.396  32.233  10.585
60816W        W27225   0.455  24.689   0.417
60817W        W27226  14.131   7.441  14.249
60818W        W27227   9.697  41.279  12.331
60819W        W27228  10.936  16.619  13.481
60820W        W27229  28.529  34.093  14.667
60821W        W27230  31.072  25.072  11.490
60822W        W27231  44.016  35.636   1.660
60823W        W27232  11.593  17.147  11.487
60824W        W27233   3.336   1.983  10.292
60825W        W27234  12.674  23.219   0.718
60826W        W27235  28.032  36.358  11.341
60827W        W27236  17.672   1.278  12.146
60828W        W27237  34.702   0.443   1.734
60829W        W27238  39.499  37.970  12.374
60830W        W27239  43.347  27.544   1.933
60831W        W27240  33.829  40.951   2.382
60832W        W27241   6.788  38.396  14.551
60833W        W27242   7.656  39.504   3.278
60834W        W27243  18.010  37.550   4.903
60835W        W27244  40.592  40.021   2.270
60836W        W27245  17.672  18.453  11.639
60837W        W27246  13.728  30.172  12.897
60838W        W27247  18.726  42.640  12.053
60839W        W27248  11.750   9.564   1.441
60840W        W27249   3.415  33.797  11.195
60841W        W27250   5.766   0.027  13.089
60842W        W27251  17.196  30.194   2.245
60843W        W27252  34.392   0.917   2.660
60844W        W27253  40.056  33.427  14.245
60845W        W27254  25.615   1.013  13.098
60846W        W27255  14.298   8.619   3.394
60847W        W27256  31.889  26.563   2.315
60848W        W27257  18.497  29.727   0.659
60849W        W27258  42.067  35.017  11.905
60850W        W27259   5.270   5.879  14.341
60851W        W27260  20.073  17.597   3.065
60852W        W27261   9.974  16.677  14.725
60853W        W27262  37.336  32.000   1.483
60854W        W27263  25.885  13.975   1.183
60855W        W27264  13.116  43.032   0.689
60856W        W27265  27.917   7.156   3.230
60857W        W27266  19.685  15.669   4.957
60858W        W27267  12.392  18.262   1.308
60859W        W27268   1.043  33.386   0.420
60860W        W27269  26.521  30.632   0.240
60861W        W27270  36.727  43.248  14.890
60862W        W27271  37.155  18.808  12.320
60863W        W27272  23.563   9.339  10.682
60864W        W27273  32.194   7.401   4.170
60865W        W27274  30.702  39.937  11.736
60866W        W27275  32.147   1.208   2.993
60867W        W27276  43.978   7.180  13.366
60868W        W27277   9.982  22.260  10.633
60869W        W27278  39.420  37.686  11.954
60870W        W27279  21.748  39.731  12.225
60871W        W27280  20.611  37.077   4.675
60872W        W27281  36.501   8.159   4.605
60873W        W27282   2.777  39.780  14.918
60874W        W27283  35.146  10.240  14.719
60875W        W27284   8.337  24.274  12.086
60876W        W27285  19.683   7.656  13.456
60877W        W27286  33.392  32.016   2.029
60878W        W27287   6.633  41.541   0.862
60879W        W27288  31.848  35.331  11.221
60880W        W27289  26.181  24.982  13.112
60881W        W27290  12.417   1.053   4.057
60882W        W27291  35.643   4.817   9.940
60883W        W27292  14.884  41.860  14.816
60884W        W27293  12.830  12.706  10.762
60885W        W27294  31.664  37.356   4.626
60886W        W27295  17.785  13.822  12.556
60887W        W27296  43.326  12.037   1.949
60888W        W27297  27.193  38.802   0.985
60889W        W27298  27.089  36.126   2.880
60890W        W27299  16.746  39.909   0.456
60891W        W27300   2.297  44.262   1.653
60892W        W27301   1.292  44.877   1.826
60893W        W27302  33.027  36.008  13.773
60894W        W27303   9.863  24.591   1.363
60895W        W27304  41.045  24.288   1.295
60896W        W27305  26.578  17.049   4.639
60897W        W27306  22.694  15.761   4.710
60898W        W27307  11.321  27.592  12.089
60899W        W27308  19.691  44.828  13.854
60900W        W27309  27.841  37.502  10.642
60901W        W27310  16.537   5.996   0.773
60902W        W27311  14.367  39.426   3.102
60903W        W27312   7.028  11.363   4.110
60904W        W27313   1.844  27.151  14.926
60905W        W27314  39.378  21.990   4.737
60906W        W27315  35.787  13.696  14.885
60907W        W27316  10.338   2.689   2.245
60908W        W27317   8.246  23.001  10.757
60909W        W27318  26.835  42.157   4.953
60910W        W27319   8.599  21.571  10.117
60911W        W27320  22.782  33.646  12.033
60912W        W27321  39.775  42.567  11.607
60913W        W27322   1.285  39.976  13.461
60914W        W27323  40.253  31.503  14.016
60915W        W27324  18.902  35.816  12.989
60916W        W27325  10.201  37.304   4.152
60917W        W27326  28.259   2.247   3.180
60918W        W27327  25.752  30.073  13.920
60919W        W27328  34.383  29.219  12.053
60920W        W27329  23.280  13.206  11.895
60921W        W27330  14.812  34.983   5.084
60922W        W27331  29.690  22.454  13.445
60923W        W27332  41.364  20.007   2.768
60924W        W27333   7.433   2.788   3.149
60925W        W27334  14.864  23.505  11.611
60926W        W27335  44.331  38.965  10.303
60927W        W27336   9.291  15.273   4.876
60928W        W27337  29.034  35.659  14.576
60929W        W27338  12.123  28.831   1.170
60930W        W27339  24.164  33.363  11.009
60931W        W27340  10.321  39.355   0.757
60932W        W27341  36.539  31.886  13.538
60933W        W27342  12.790  38.628   3.595
60934W        W27343  39.180  13.913  10.705
60935W        W27344  37.889   4.173   3.599
60936W        W27345  16.199  15.237   1.128
60937W        W27346  23.182  24.979   2.774
60938W        W27347  31.920  38.858  13.983
60939W        W27348  20.694  27.706   1.873
60940W        W27349  10.769  35.417  13.934
60941W        W27350  20.186   7.628   4.726
60942W        W27351  39.045   2.511  12.449
60943W        W27352  18.094  38.034  11.609
60944W        W27353  34.501  15.539  11.096
60945W        W27354  21.278   4.795   0.254
60946W        W27355  35.476  25.137   0.256
60947W        W27356   5.924  41.950  13.301
60948W        W27357  32.560  33.859   2.011
60949W        W27358  14.444   0.146  12.481
60950W        W27359  29.854  44.416  11.851
60951W        W27360  44.330   8.914   0.475
60952W        W27361  29.089  19.990   2.868
60953W        W27362  12.842  35.976   1.352
60954W        W27363   8.741  32.587   1.272
60955W        W27364  32.075  10.434  13.997
60956W        W27365  37.526  17.615  14.271
60957W        W27366  35.514  25.498  10.723
60958W        W27367  41.976   0.227  12.034
60959W        W27368  20.221  30.924   1.286
60960W        W27369  38.561   2.817   3.703
60961W        W27370   3.586  12.091  13.510
60962W        W27371  16.793  30.189  13.890
60963W        W27372   9.836  37.676  14.050
60964W        W27373  34.126   7.864  13.036
60965W        W27374  26.127  25.143   4.597
60966W        W27375  41.037  41.323  14.498
60967W        W27376  24.798  32.384   2.254
60968W        W27377  21.539  18.143   3.549
60969W        W27378  33.394  35.049   3.097
60970W        W27379   9.254  21.647  12.820
60971W        W27380  27.731  13.516   9.939
60972W        W27381  43.333  36.910   4.857
60973W        W27382  36.974   1.559  14.599
60974W        W27383  23.589  26.378  11.572
60975W        W27384  23.170  30.168  11.635
60976W        W27385  12.414  26.611  12.387
60977W        W27386   9.330  39.944  12.173
60978W        W27387  24.242  21.541   3.832
60979W        W27388  16.593  10.678  13.761
60980W        W27389  44.574  15.983   0.442
60981W        W27390   6.273  25.233   3.477
60982W        W27391  22.565  30.118   1.342
60983W        W27392  12.650  32.664   9.855
60984W        W27393  23.062  22.320   3.589
60985W        W27394  26.918  29.215   0.542
60986W        W27395  20.646  36.023  10.968
60987W        W27396  14.092   8.879  13.695
60988W        W27397  35.969  22.609   1.174
60989W        W27398   6.778  13.066   3.681
60990W        W27399  33.064  20.656   4.342
60991W        W27400  43.313  44.728  12.120
60992W        W27401  38.229  22.853  13.350
60993W        W27402   9.699  33.053  14.383
60994W        W27403  32.970  38.143   2.880
60995W        W27404  16.308  32.634   2.902
60996W        W27405  34.618  41.482   4.983
60997W        W27406  43.635  36.347  13.938
60998W        W27407  42.099  25.391  13.555
60999W        W27408   1.488  26.673   2.265
61000W        W27409  11.522  33.595   2.140
61001W        W27410  40.397  25.416  11.258
61002W        W27411  40.115   6.592   4.124
61003W        W27412  11.275   3.270  12.403
61004W        W27413  11.049  44.788   4.652
61005W        W27414  27.227   0.933   4.704
61006W        W27415  42.734  31.845   3.803
61007W        W27416   3.370  23.969   4.897
61008W        W27417  16.812  35.414   1.709
61009W        W27418  43.377  35.702   2.376
61010W        W27419  11.935  30.335   2.124
61011W        W27420  31.133   7.827  12.984
61012W        W27421  42.289  34.845   4.357
61013W        W27422   3.981  33.422  13.432
61014W        W27423   6.995  35.681  10.715
61015W        W27424  33.019  42.496  13.573
61016W        W27425  35.044  25.703  13.373
61017W        W27426  31.959  18.831  11.005
61018W        W27427  27.656   1.809   2.248
61019W        W27428  14.824  34.013  13.460
61020W        W27429  19.688  42.947  14.954
61021W        W27430  31.925   1.077  10.226
61022W        W27431  42.245   4.950   0.917
61023W        W27432  36.365  30.071   2.188
61024W        W27433  11.343  29.802   0.921
61025W        W27434  31.063  19.593  13.837
61026W        W27435  23.548  38.025   0.448
61027W        W27436  28.257  34.309   3.680
61028W        W27437  20.685  35.113   0.772
61029W        W27438  21.719  16.219  11.561
61030W        W27439  44.222   0.152   1.014
61031W        W27440  24.430   6.644   2.415
61032W        W27441  36.794  39.016  11.111
61033W        W27442  25.331   0.984  10.806
61034W        W27443   1.844  36.745  14.622
61035W        W27444  29.445   6.805   4.157
61036W        W27445  26.943  29.113   1.907
61037W        W27446  10.225   0.179  10.531
61038W        W27447  30.451  17.617   3.214
61039W        W27448  16.729  22.035   1.361
61040W        W27449  25.794  21.472  13.920
61041W        W27450   8.859  24.724   1.209
61042W        W27451  26.164  31.348   4.169
61043W        W27452  10.314  11.168   1.411
61044W        W27453   9.501  29.825  13.846
61045W        W27454   0.439   8.283   0.720
61046W        W27455  20.061   9.305   0.317
61047W        W27456  34.880  28.506   4.085
61048W        W27457  17.456  31.667  12.009
61049W        W27458  35.109   8.398   2.853
61050W        W27459   9.459  17.157  14.475
61051W        W27460  27.550  26.964   4.642
61052W        W27461  36.790  15.092  14.812
61053W        W27462   3.255   2.480   1.242
61054W        W27463  19.557  21.110  11.494
61055W        W27464  28.024  43.402  13.929
61056W        W27465  23.317  27.742  11.196
61057W        W27466  32.909   4.955  10.196
61058W        W27467  41.152  40.875  12.860
61059W        W27468  29.520  41.003  10.922
61060W        W27469  18.601  40.281  12.830
61061W        W27470  35.351  33.921  11.233
61062W        W27471  20.547  37.857  11.971
61063W        W27472   4.864  22.129  12.308
61064W        W27473  22.787  25.049   1.863
61065W        W27474  44.837  18.988   1.648
61066W        W27475  27.489  27.601   3.418
61067W        W27476  39.732  16.301   0.814
61068W        W27477  22.559   4.475  11.206
61069W        W27478  34.296  40.067   2.765
61070W        W27479  28.116   0.171  11.981
61071W        W27480  39.983  12.726  14.156
61072W        W27481  35.118  29.036   1.669
61073W        W27482  18.544  42.291   1.592
61074W        W27483   1.624   0.681   1.455
61075W        W27484  26.300   4.542   2.269
61076W        W27485  42.641  27.612  11.613
61077W        W27486   4.368  30.173   2.357
61078W        W27487   2.185  31.694   4.758
61079W        W27488  31.827  15.363  12.090
61080W        W27489  32.609  33.420  14.804
61081W        W27490  15.819  17.742  11.907
61082W        W27491  29.927  18.992   2.754
61083W        W27492  20.798  12.911  14.917
61084W        W27493  40.725  32.835  13.940
61085W        W27494  13.211  44.539   2.746
61086W        W27495   5.888  32.394  14.442
61087W        W27496  42.535  39.949   2.621
61088W        W27497  40.688  21.542   1.388
61089W        W27498  35.390  16.889  12.999
61090W        W27499  34.589  25.932   4.042
61091W        W27500  31.458  20.549  11.157
61092W        W27501  42.989  21.029  12.036
61093W        W27502  11.499  41.651   4.153
61094W        W27503  40.821  14.248   2.265
61095W        W27504   4.292  17.973   1.856
61096W        W27505  16.965  17.860   2.793
61097W        W27506  15.134  22.813  13.058
61098W        W27507  44.510   2.711  14.767
61099W        W27508   2.070  20.051  13.835
61100W        W27509   5.882  21.211   4.790
61101W        W27510  13.635  40.970   2.527
61102W        W27511  36.440  18.038  12.397
61103W        W27512  20.293  19.457  14.574
61104W        W27513  18.715  40.316   4.809
61105W        W27514  35.883  17.060  13.824
61106W        W27515  10.918  14.286   3.428
61107W        W27516  32.317  29.661  14.737
61108W        W27517  39.424   8.724  10.154
61109W        W27518  18.729  40.111   3.524
61110W        W27519   6.960   5.387  14.251
61111W        W27520   8.258  27.481  14.192
61112W        W27521  39.062  38.116  12.098
61113W        W27522  35.547   5.825  11.848
61114W        W27523  13.859  16.258  10.972
61115W        W27524  31.104   5.325  12.532
61116W        W27525  26.664  10.623  10.646
61117W        W27526  43.025   2.476   4.330
61118W        W27527  19.370   7.841  12.024
61119W        W27528  38.264  23.268   3.383
61120W        W27529   6.750  32.096   1.712
61121W        W27530  24.344  16.534  13.410
61122W        W27531  16.222   5.490  12.110
61123W        W27532  30.049  14.450  10.694
61124W        W27533   7.627  13.621   4.550
61125W        W27534  30.593  41.791  13.887
61126W        W27535  43.455  27.667  14.505
61127W        W27536  39.799  44.841   0.567
61128W        W27537   1.906  26.230   4.048
61129W        W27538   5.569  20.564  13.784
61130W        W27539  43.404  24.994   5.280
61131W        W27540  31.175  31.467  14.954
61132W        W27541  34.412  12.236   3.418
61133W        W27542  15.756  15.313   4.725
61134W        W27543  40.864  42.026  12.474
61135W        W27544  15.499  30.712  13.866
61136W        W27545  11.798   7.862   0.948
61137W        W27546  12.837  43.706  10.759
61138W        W27547   6.762  35.666   1.262
61139W        W27548  36.564  17.541  12.491
61140W        W27549   4.044  39.026   3.301
61141W        W27550  25.104   9.197   0.471
61142W        W27551  26.262   4.622   4.101
61143W        W27552   7.485  22.035   1.356
61144W        W27553   6.555  18.854  14.383
61145W        W27554   8.713  27.301  12.438
61146W        W27555  20.303  37.038  13.899
61147W        W27556  34.951   3.877  14.700
61148W        W27557  15.707  25.940  13.859
61149W        W27558  33.492  11.111  11.902
61150W        W27559  30.103   3.518   3.883
61151W        W27560  24.409  43.269  11.448
61152W        W27561  43.330  25.426   3.293
61153W        W27562  24.474   0.950  13.970
61154W        W27563  19.297  28.101   0.260
61155W        W27564   1.930  26.150  13.819
61156W        W27565  31.877  24.730  14.959
61157W        W27566  40.462  43.678   0.976
61158W        W27567  33.980  17.067   3.616
61159W        W27568  37.105   5.231   3.768
61160W        W27569  11.876   6.374   2.224
61161W        W27570  17.695  43.486   1.878
61162W        W27571   2.326  20.959   2.344
61163W        W27572  39.681  13.133  12.960
61164W        W27573  19.950  30.752  14.802
61165W        W27574  28.024  41.783  10.708
61166W        W27575   6.335  38.588  14.358
61167W        W27576  34.025   0.246   3.659
61168W        W27577  32.292  41.227   4.169
61169W        W27578   1.719  11.642  14.697
61170W        W27579  28.390   5.523   1.279
61171W        W27580  34.037  18.018   2.656
61172W        W27581   2.898  11.818   1.700
61173W        W27582  21.260  38.123  13.921
61174W        W27583  19.554  43.101  11.022
61175W        W27584   9.286  10.444   4.206
61176W        W27585  22.988  31.640   4.675
61177W        W27586   7.234   0.921   3.620
61178W        W27587  28.139  33.737   9.822
61179W        W27588  12.337  36.173   1.295
61180W        W27589   4.277  25.404  13.118
61181W        W27590  11.111  15.628   4.937
61182W        W27591   0.177  27.859  11.533
61183W        W27592   2.482  10.689   3.636
61184W        W27593  39.831  31.562  14.826
61185W        W27594  34.500  29.684  14.098
61186W        W27595  35.145  37.881   3.248
61187W        W27596  11.306  13.206   2.206
61188W        W27597  11.405   4.561  14.313
61189W        W27598   6.255  34.393   4.547
61190W        W27599  16.519  43.678  13.041
61191W        W27600  35.823   6.699   1.876
61192W        W27601   3.706  44.970   0.981
61193W        W27602   4.370   0.639  12.997
61194W        W27603  29.169  42.890  13.875
61195W        W27604   7.379  21.560  14.761
61196W        W27605  19.259  21.444   0.764
61197W        W27606   3.583   1.822  13.073
61198W        W27607  19.133  26.240  14.447
61199W        W27608  14.050  15.243  12.367
61200W        W27609  26.540  44.816   4.662
61201W        W27610  44.132  21.214  14.319
61202W        W27611  13.653  36.372   0.509
61203W        W27612  29.704  35.676   2.346
61204W        W27613  24.059   5.232   2.737
61205W        W27614  24.534  44.851  11.946
61206W        W27615  31.932  35.018   3.702
61207W        W27616  17.802  21.443   2.915
61208W        W27617  44.341  32.773  10.829
61209W        W27618   8.952  37.565  12.455
61210W        W27619  24.225  35.901  10.806
61211W        W27620  23.022  27.530   3.400
61212W        W27621  26.009  38.073  12.376
61213W        W27622  15.381  14.734   1.206
61214W        W27623   0.908  22.087   1.273
61215W        W27624  12.812  44.294  11.443
61216W        W27625  14.263   6.428  10.653
61217W        W27626   5.613  28.577   4.699
61218W        W27627  44.287  26.276   4.124
61219W        W27628   0.558  44.748   0.826
61220W        W27629  30.547  27.220   3.659
61221W        W27630  22.220  35.965   2.205
61222W        W27631  40.460  16.158   3.528
61223W        W27632   7.447  25.019   0.299
61224W        W27633  39.076  25.603   1.858
61225W        W27634  37.143  41.851  11.589
61226W        W27635  44.299  39.094  14.914
61227W        W27636  23.366  23.664  10.216
61228W        W27637  20.806  28.983  11.324
61229W        W27638  31.197  22.108   0.333
61230W        W27639  13.491  43.242   0.394
61231W        W27640  43.353   0.435   2.699
61232W        W27641  21.118  39.492   1.507
61233W        W27642   5.953   3.179   2.725
61234W        W27643  18.352  14.686   1.340
61235W        W27644  18.898  32.611   0.747
61236W        W27645  12.494   7.205   4.673
61237W        W27646  40.347  34.813   2.347
61238W        W27647  18.147  11.791  13.863
61239W        W27648  30.133  18.461  11.216
61240W        W27649  31.429  10.952  10.854
61241W        W27650   9.846  22.730  13.895
61242W        W27651  28.472   6.221   0.559
61243W        W27652   5.709  12.171  12.957
61244W        W27653  33.497  41.459   1.990
61245W        W27654  16.101  33.363  10.607
61246W        W27655  22.914  11.135   3.109
61247W        W27656  36.436  39.315  10.918
61248W        W27657   3.170  38.807   3.018
61249W        W27658  40.451  32.115   1.949
61250W        W27659  13.793  29.532  14.558
61251W        W27660   8.203  38.359   4.178
61252W        W27661  28.729  22.485  13.988
61253W        W27662  18.003   1.222  12.947
61254W        W27663  15.723  17.517  14.475
61255W        W27664  41.789  32.227  10.036
61256W        W27665  36.817  34.000  11.086
61257W        W27666  26.410  26.101  14.345
61258W        W27667  10.939  36.610  14.296
61259W        W27668  39.959  20.186   4.552
61260W        W27669   2.921  21.738  13.851
61261W        W27670  19.782   4.620   1.803
61262W        W27671   6.399  12.735   4.618
61263W        W27672  43.467   9.609  14.321
61264W        W27673  35.756  22.802  11.429
61265W        W27674  33.374   4.014  13.784
61266W        W27675   6.366  24.509  14.837
61267W        W27676  21.150  15.251  12.986
61268W        W27677   5.699  12.740  14.409
61269W        W27678   5.496  19.862   0.165
61270W        W27679   0.395  32.015   3.125
61271W        W27680  18.975   8.480   0.811
61272W        W27681   0.924  25.921  11.615
61273W        W27682  43.751   4.857   1.285
61274W        W27683  27.617  21.610  10.994
61275W        W27684  33.060  17.962  14.742
61276W        W27685  42.457  14.364  11.210
61277W        W27686  17.346  12.244  13.002
61278W        W27687  23.717   3.668  14.311
61279W        W27688  20.791  22.363   2.778
61280W        W27689  10.657  16.093  13.549
61281W        W27690  11.710  19.383   5.349
61282W        W27691  26.654  39.605  14.858
61283W        W27692  23.485   0.052  13.561
61284W        W27693   8.788   8.716   2.204
61285W        W27694   8.036  25.922  11.570
61286W        W27695   0.008  25.286  11.945
61287W        W27696  41.164  31.592   5.121
61288W        W27697  18.335  14.172  11.236
61289W        W27698  42.323  23.978   2.926
61290W        W27699   1.908  27.591  10.655
61291W        W27700   9.189  19.093   2.407
61292W        W27701  40.547  36.159   2.255
61293W        W27702  13.250   0.251   2.208
61294W        W27703  18.197  14.045  13.816
61295W        W27704  31.598  30.993   3.795
61296W        W27705   3.606   1.404  11.072
61297W        W27706  23.603  24.625  11.102
61298W        W27707  15.591  13.456   0.086
61299W        W27708   8.937  30.086  11.303
61300W        W27709  24.783  18.840  11.139
61301W        W27710  24.839  27.132  12.580
61302W        W27711  40.787  31.547  11.934
61303W        W27712   6.253   2.263   3.875
61304W        W27713  10.356   7.635   3.172
61305W        W27714  33.316   1.438   2.704
61306W        W27715  22.694   2.265  14.207
61307W        W27716  25.793   5.543   3.095
61308W        W27717  10.598  12.884   2.924
61309W        W27718  12.736  14.653   1.126
61310W        W27719   1.965   6.446  13.183
61311W        W27720  30.595   4.978   2.482
61312W        W27721  40.333  23.665  13.820
61313W        W27722  27.432   0.351  14.933
61314W        W27723   9.319  42.900  12.957
61315W        W27724  38.879   7.809   4.636
61316W        W27725  35.067  43.966  11.134
61317W        W27726  10.421   8.180  11.987
61318W        W27727   4.916  42.501   3.322
61319W        W27728  15.789  18.617   5.257
61320W        W27729  33.067  29.017  10.570
61321W        W27730   7.926  30.438   3.672
61322W        W27731  32.899  23.164   3.263
61323W        W27732  31.793  26.605  10.706
61324W        W27733  16.152   9.417   0.984
61325W        W27734  39.618  22.712   1.069
61326W        W27735  43.236  25.693   1.263
61327W        W27736  22.495  42.098  13.043
61328W        W27737  16.195  25.502  10.625
61329W        W27738  28.976  22.996  11.879
61330W        W27739  40.334  15.288   3.278
61331W        W27740  33.328   7.728  10.919
61332W        W27741   5.252   1.834  13.799
61333W        W27742  26.062  15.155  12.804
61334W        W27743  22.153  23.275  14.181
61335W        W27744  21.120   4.233  12.493
61336W        W27745  40.440  20.781  10.611
61337W        W27746  17.719  40.749  12.682
61338W        W27747  23.649  27.156  14.868
61339W        W27748  15.305  22.535  12.531
61340W        W27749  36.364   3.666   1.349
61341W        W27750  14.723  14.565  14.753
61342W        W27751  27.658  20.923  13.823
61343W        W27752  17.562  15.265   0.905
61344W        W27753  43.575   1.991   1.327
61345W        W27754  41.203   8.544  11.158
61346W        W27755  42.403   8.935  12.508
61347W        W27756  40.807  14.342   0.851
61348W        W27757  11.961  19.067   4.002
61349W        W27758   2.233  10.920   2.764
61350W        W27759  34.529   7.401  11.917
61351W        W27760   6.019   5.873  12.232
61352W        W27761  23.487  22.785   1.716
61353W        W27762  25.611  22.549   2.057
61354W        W27763  33.042  41.586   3.191
61355W        W27764  17.553   1.243   2.716
61356W        W27765  23.733  40.837  12.108
61357W        W27766  28.917  35.610  12.073
61358W        W27767  12.057  21.270  13.322
61359W        W27768  40.667   3.492   1.883
61360W        W27769  17.529   6.256  11.789
61361W        W27770  28.246  21.112  12.146
61362W        W27771  15.108  23.045  11.620
61363W        W27772  37.789   4.753  14.366
61364W        W27773  26.002  25.985   4.914
61365W        W27774  43.040  11.637   1.845
61366W        W27775  29.732  36.714   2.122
61367W        W27776   2.735   7.712  13.609
61368W        W27777   9.433  32.415   3.889
61369W        W27778  20.506  22.939   1.211
61370W        W27779  43.435  24.430   3.241
61371W        W27780  21.763  33.872  11.030
61372W        W27781   5.831  37.053  14.977
61373W        W27782   7.251  39.974   1.825
61374W        W27783   5.905  19.171   4.527
61375W        W27784  29.420  35.791  11.878
61376W        W27785  39.929   2.091  14.707
61377W        W27786  41.807  36.065   0.713
61378W        W27787   3.687  40.532  14.251
61379W        W27788   9.644  29.658   3.319
61380W        W27789   6.419  25.734   3.504
61381W        W27790  23.105   4.749  14.287
61382W        W27791  10.891  27.881  11.474
61383W        W27792  37.241   2.967   4.073
61384W        W27793  26.164  11.913  10.655
61385W        W27794   1.229  40.079   0.289
61386W        W27795  34.199  24.641  14.473
61387W        W27796  26.690  33.538  11.359
61388W        W27797   8.166  12.649  13.590
61389W        W27798  30.625  40.846  14.811
61390W        W27799  22.023  15.156   3.651
61391W        W27800  34.716   5.889  11.895
61392W        W27801  40.405   7.704  13.590
61393W        W27802   0.418   3.461  14.747
61394W        W27803  34.459  36.097  12.625
61395W        W27804   1.846  14.588  13.607
61396W        W27805  17.093  27.484   2.833
61397W        W27806  24.205   1.310   4.741
61398W        W27807  44.435  28.244   1.539
61399W        W27808  14.780  26.055   3.908
61400W        W27809  36.875  10.707  14.310
61401W        W27810   2.709  17.213  12.563
61402W        W27811  16.777  14.881   2.266
61403W        W27812  24.563  19.515  13.960
61404W        W27813   7.954  42.568  11.153
61405W        W27814  30.139  43.959   2.495
61406W        W27815  37.378  23.594  10.360
61407W        W27816   8.325  19.347  14.951
61408W        W27817  44.913  17.566   1.404
61409W        W27818   0.028   2.411   2.380
61410W        W27819  14.672  41.049  14.509
61411W        W27820  39.159  15.122   5.222
61412W        W27821   2.975   6.989   0.941
61413W        W27822  22.336  15.612   1.669
61414W        W27823  33.473   3.178   1.392
61415W        W27824  27.937  18.729   4.126
61416W        W27825   9.667  21.546   1.378
61417W        W27826  44.300   3.871  14.554
61418W        W27827  26.401  16.283   1.930
61419W        W27828   4.099  13.190   1.716
61420W        W27829  36.281  26.473   2.838
61421W        W27830  31.428  31.721   2.337
61422W        W27831   2.384  15.060   0.283
61423W        W27832  39.887  26.914  14.508
61424W        W27833   6.148  44.748  12.815
61425W        W27834  26.020  13.056  14.907
61426W        W27835   3.489  15.108   3.356
61427W        W27836  36.784  15.670   4.712
61428W        W27837  12.222  24.263   4.279
61429W        W27838  42.688  18.984  12.641
61430W        W27839  34.817  36.081   4.167
61431W        W27840  25.550  21.990  11.617
61432W        W27841   0.527  18.200   4.330
61433W        W27842  28.981   5.894   1.793
61434W        W27843  11.381  43.376  13.562
61435W        W27844  44.843  11.855   3.793
61436W        W27845  41.091  21.272   2.165
61437W        W27846   5.259  31.415   4.548
61438W        W27847  37.502   9.660  10.721
61439W        W27848  38.173  10.270  13.235
61440W        W27849  40.768  25.955  14.484
61441W        W27850   8.065  13.213   3.696
61442W        W27851  34.064  27.138  12.109
61443W        W27852   8.131  25.074  14.737
61444W        W27853  12.354  41.428   4.166
61445W        W27854  11.070   8.234   3.673
61446W        W27855  42.361  22.825   3.212
61447W        W27856   0.922   2.833  13.376
61448W        W27857  12.080  11.351  14.392
61449W        W27858  12.826   9.493   4.495
61450W        W27859  24.097  39.324  12.101
61451W        W27860  15.272  41.608  12.467
61452W        W27861  10.894  11.146  12.163
61453W        W27862   2.347  42.745   3.243
61454W        W27863  28.765   7.354   2.932
61455W        W27864  29.336   6.520   2.330
61456W        W27865   8.652  29.872  12.576
61457W        W27866  42.345  36.042   3.906
61458W        W27867  12.145  34.171   4.017
61459W        W27868   2.239  13.248  13.939
61460W        W27869  40.797  44.299   0.833
61461W        W27870  17.175  23.840   2.791
61462W        W27871  23.244  12.373   1.794
61463W        W27872  41.476  19.048   1.382
61464W        W27873   4.845  28.873   2.279
61465W        W27874  28.922  27.698   2.089
61466W        W27875  29.655  13.600  12.091
61467W        W27876  31.524  44.866  13.608
61468W        W27877  40.141  21.431  11.876
61469W        W27878  27.350   3.701  14.872
61470W        W27879   9.883   4.406  10.723
61471W        W27880  30.480  28.143   0.771
61472W        W27881  14.399  37.999  12.815
61473W        W27882   5.793  22.920   5.417
61474W        W27883  42.944  10.703  11.047
61475W        W27884  27.178  11.808   2.706
61476W        W27885   1.291  20.197   4.151
61477W        W27886   4.390  30.311   4.711
61478W        W27887  22.792  39.977  12.061
61479W        W27888   6.070  20.284  12.466
61480W        W27889  18.644  27.590   3.982
61481W        W27890  25.684  22.803  13.023
61482W        W27891  30.322   1.242  11.126
61483W        W27892   3.488  17.311  11.270
61484W        W27893  21.987  42.829   4.154
61485W        W27894  35.897   9.532   3.707
61486W        W27895   9.755  12.783   2.879
61487W        W27896  28.185  27.516   4.104
61488W        W27897  16.996  17.364   0.002
61489W        W27898  43.892  20.736  13.074
61490W        W27899  26.768  36.287   4.476
61491W        W27900   0.365   1.367  10.784
61492W        W27901  13.751  28.881  12.403
61493W        W27902  23.811  23.513   0.444
61494W        W27903  18.741  29.823  13.368
61495W        W27904   0.295  15.850   1.648
61496W        W27905  44.201  41.058  14.265
61497W        W27906  41.747  27.831   3.499
61498W        W27907  25.933  16.062   1.888
61499W        W27908  30.623  41.098  14.371
61500W        W27909  12.550  33.104   1.847
61501W        W27910  18.509  15.020   3.945
61502W        W27911   4.705  25.663  13.593
61503W        W27912   8.967  39.974   2.220
61504W        W27913   2.921   8.303  14.913
61505W        W27914  13.194  29.600  10.796
61506W        W27915   9.189   0.870  13.894
61507W        W27916  12.821  35.596  14.723
61508W        W27917  30.930  15.535   0.361
61509W        W27918  22.563  15.725   2.621
61510W        W27919   2.318  31.205  12.378
61511W        W27920   1.203  33.746   1.086
61512W        W27921  13.858  16.076  13.395
61513W        W27922  18.349  30.465   2.677
61514W        W27923  13.583  17.840  12.190
61515W        W27924  41.931  35.548   0.720
61516W        W27925  17.716   4.219   1.988
61517W        W27926  38.837  16.993   1.617
61518W        W27927  37.430   3.785   0.257
61519W        W27928  15.310  34.828   5.015
61520W        W27929   0.383   6.878   2.179
61521W        W27930  12.128  20.772  13.402
61522W        W27931  31.646  31.127   0.913
61523W        W27932  13.830   2.911   4.140
61524W        W27933  34.040  17.250   2.186
61525W        W27934  42.525   7.256   3.746
61526W        W27935  38.359  18.430  14.896
61527W        W27936  37.557  39.013   0.260
61528W        W27937  38.062   2.636  11.814
61529W        W27938  40.722  10.015   2.726
61530W        W27939  23.278  43.328   3.908
61531W        W27940  41.859  38.862  11.161
61532W        W27941  31.128   0.143  12.117
61533W        W27942  44.507  32.549  11.757
61534W        W27943  21.085  10.069   3.045
61535W        W27944  37.508  18.606  14.476
61536W        W27945  27.353  36.145  12.571
61537W        W27946   2.507   1.691   0.108
61538W        W27947  12.266  30.094   3.391
61539W        W27948  20.229   1.494  10.715
61540W        W27949  38.472   3.849  11.590
61541W        W27950  27.655  31.447   4.457
61542W        W27951  29.847  19.001   1.366
61543W        W27952  37.363   3.431   2.298
61544W        W27953  44.505  43.227   0.317
61545W        W27954  23.782  42.877  11.942
61546W        W27955  16.633   5.846  12.988
61547W        W27956   3.754  42.786  10.228
61548W        W27957  43.741  16.393  14.992
61549W        W27958  28.917  28.064   2.922
61550W        W27959   2.316   2.257   0.911
61551W        W27960  18.351   4.914   0.923
61552W        W27961   9.273  34.563  14.484
61553W        W27962   0.302   1.394   0.646
61554W        W27963   2.261   2.557   0.501
61555W        W27964  20.181  14.242  11.150
61556W        W27965  41.894  19.784  11.661
61557W        W27966  19.237  44.432  12.979
61558W        W27967  35.794  36.556   0.158
61559W        W27968  22.074  11.193  12.166
61560W        W27969  14.853  38.446   2.616
61561W        W27970  21.641  32.190  11.666
61562W        W27971  15.786  18.085  12.585
61563W        W27972  15.351  37.583  13.503
61564W        W27973   5.349  33.339   1.248
61565W        W27974  32.130  13.202   0.381
61566W        W27975  25.198  31.129  14.522
61567W        W27976   4.311  16.857   1.306
61568W        W27977  19.537  40.296  12.913
61569W        W27978  43.537  20.499   4.323
61570W        W27979  28.173  14.812   2.278
61571W        W27980  16.591  39.575  11.201
61572W        W27981  15.773  37.318  13.540
61573W        W27982  34.871  19.346   2.250
61574W        W27983  41.229  10.908  14.361
61575W        W27984  22.803  16.799  14.975
61576W        W27985  26.563  34.810  10.717
61577W        W27986   5.465  28.645   3.729
61578W        W27987  31.876  11.297  13.759
61579W        W27988   6.955  24.504   4.464
61580W        W27989   3.169  29.907   2.767
61581W        W27990  34.624  33.901  13.659
61582W        W27991  40.326  33.930   1.366
61583W        W27992  25.903  14.996   4.471
61584W        W27993  24.924  30.071  10.705
61585W        W27994  19.211  36.969  14.852
61586W        W27995  10.129  23.684  10.697
61587W        W27996   6.271  19.937   0.812
61588W        W27997  39.561  16.253   2.382
61589W        W27998   7.147  13.635   4.780
61590W        W27999  29.134  19.713   2.331
61591W        W28000  37.895   7.728  14.484
61592W        W28001   0.428  43.206  12.497
61593W        W28002  17.377  42.640  14.453
61594W        W28003   6.834  21.387   0.547
61595W        W28004  43.752   7.812  12.520
61596W        W28005  18.610  12.063  11.678
61597W        W28006  34.832   2.911  13.051
61598W        W28007  41.808  10.250  14.425
61599W        W28008  22.152  31.668  12.494
61600W        W28009  31.634  19.713   2.148
61601W        W28010  31.521   4.318  13.333
61602W        W28011   7.914  21.971  11.563
61603W        W28012  18.680   2.159  11.527
61604W        W28013  17.698  27.768   0.880
61605W        W28014  31.643   8.136   2.132
61606W        W28015  31.006  39.928  13.040
61607W        W28016  19.240  28.563   1.182
61608W        W28017  35.093   9.861  14.394
61609W        W28018  40.533  15.624  10.804
61610W        W28019  10.289  32.310  10.665
61611W        W28020   6.180  20.844  10.665
61612W        W28021  29.007  11.916   4.981
61613W        W28022   7.028  41.784  13.880
61614W        W28023   4.813  31.121  12.706
61615W        W28024  38.549  16.408  13.366
61616W        W28025   9.898   1.948  13.023
61617W        W28026   9.244   5.720  13.963
61618W        W28027  14.714  44.293   1.869
61619W        W28028  17.120   5.206  12.134
61620W        W28029  19.126   8.776   2.399
61621W        W28030  35.940  38.935   0.849
61622W        W28031  21.484  19.651   3.271
61623W        W28032  28.722  13.132  12.152
61624W        W28033  12.426   3.186  14.410
61625W        W28034  10.288   5.335   3.748
61626W        W28035  40.874  41.552   4.123
61627W        W28036  12.166  22.463  13.633
61628W        W28037  34.672  19.848   3.596
61629W        W28038  41.898  25.213  14.766
61630W        W28039   7.862   7.366   1.832
61631W        W28040  37.714  11.494   2.807
61632W        W28041  37.577  35.405   3.567
61633W        W28042  11.695  22.573   1.760
61634W        W28043  16.689   3.405   2.404
61635W        W28044   0.756  33.076  13.814
61636W        W28045  13.525   2.167  13.913
61637W        W28046  17.111  40.602  10.053
61638W        W28047  31.122  18.067  13.930
61639W        W28048   6.077  24.850   1.840
61640W        W28049  25.791  32.179  11.058
61641W        W28050  13.351  38.285   0.950
61642W        W28051  19.963   0.468   4.168
61643W        W28052  22.131   1.505   3.739
61644W        W28053  18.228  16.993   3.205
61645W        W28054  25.025   8.143  12.393
61646W        W28055   2.482  40.126  10.508
61647W        W28056  29.114  17.572   3.684
61648W        W28057   9.244  43.756  14.350
61649W        W28058  30.093  31.969   4.323
61650W        W28059  13.558  17.679   1.870
61651W        W28060  34.041  22.719  12.531
61652W        W28061   0.410  28.060   1.251
61653W        W28062  34.179  12.022  14.413
61654W        W28063   9.194  20.551   3.741
61655W        W28064  24.209  20.227  13.795
61656W        W28065  31.909   2.380   0.250
61657W        W28066   5.129  43.459   2.783
61658W        W28067  40.118  28.592   2.697
61659W        W28068  17.625  41.490   2.270
61660W        W28069  29.132  42.070  11.171
61661W        W28070   5.882  25.603   3.629
61662W        W28071  43.392  20.273   3.382
61663W        W28072  36.834  19.136  13.056
61664W        W28073  37.856  44.325  13.465
61665W        W28074  40.773  32.183  10.962
61666W        W28075  38.088  41.259   4.715
61667W        W28076   8.117   0.331   1.659
61668W        W28077  12.598  42.807  12.626
61669W        W28078  42.793  27.919  10.645
61670W        W28079  21.371  12.943  11.534
61671W        W28080  31.637  17.213  11.512
61672W        W28081  31.020  39.482   2.840
61673W        W28082  37.033  10.852   2.753
61674W        W28083  16.195   3.997  11.031
61675W        W28084   8.305  39.088   3.673
61676W        W28085   4.816  19.688  13.981
61677W        W28086  32.341  41.612  12.544
61678W        W28087  16.370   9.640  13.456
61679W        W28088   4.838  44.942   4.120
61680W        W28089   0.685  37.311   1.859
61681W        W28090   1.383   0.040  12.879
61682W        W28091  39.717  11.831  12.405
61683W        W28092  38.381  41.805  12.946
61684W        W28093  42.581  21.341   2.236
61685W        W28094  27.363  44.055   2.740
61686W        W28095  27.941  33.918  13.942
61687W        W28096  16.780  28.391  13.542
61688W        W28097  40.941  13.192   3.669
61689W        W28098  34.923  31.108   0.027
61690W        W28099   3.052  27.136   1.549
61691W        W28100  28.263  17.046   4.287
61692W        W28101  13.201  11.349  14.042
61693W        W28102  16.578  37.802   0.924
61694W        W28103  43.937  32.487  10.954
61695W        W28104  28.033   9.734   0.697
61696W        W28105   3.627  31.402   1.866
61697W        W28106  18.372  17.002   2.206
61698W        W28107  22.611   8.905  14.807
61699W        W28108   4.218   7.837   1.768
61700W        W28109  29.402  40.426   1.630
61701W        W28110   4.140  44.080   1.966
61702W        W28111  16.750   1.645  13.975
61703W        W28112  25.742   2.996   0.318
61704W        W28113  44.161  32.307   3.682
61705W        W28114  19.159  11.163   0.363
61706W        W28115   5.831  30.303  11.618
61707W        W28116  12.743  20.596   2.247
61708W        W28117  31.205  44.412  14.904
61709W        W28118  37.198  44.004   2.797
61710W        W28119  37.545  29.232  10.775
61711W        W28120  10.370  17.231   2.887
61712W        W28121  41.021  10.173  13.983
61713W        W28122  25.427  26.053   0.212
61714W        W28123  24.970   3.273   2.429
61715W        W28124  28.125  39.491  12.900
61716W        W28125  38.975   4.463  14.942
61717W        W28126   7.113  34.444   2.816
61718W        W28127  33.546   6.308   2.927
61719W        W28128   4.673  18.848  11.738
61720W        W28129   8.848  20.662   0.237
61721W        W28130  14.052  17.529   0.000
61722W        W28131  17.951   9.816  10.949
61723W        W28132  14.823   8.018  14.834
61724W        W28133  31.373  41.544  13.473
61725W        W28134   7.236   9.744   1.106
61726W        W28135  21.792   5.019   0.853
61727W        W28136  34.913  14.779  14.758
61728W        W28137  43.131   6.861   9.966
61729W        W28138  29.976  10.890   4.685
61730W        W28139   9.405   5.398   2.766
61731W        W28140  13.355  41.827  11.149
61732W        W28141  35.875  17.081  12.898
61733W        W28142  29.081  28.602  13.936
61734W        W28143  13.643  27.369   2.732
61735W        W28144  33.349  38.949   0.070
61736W        W28145  22.790  23.457  13.472
61737W        W28146  30.964  44.314  10.843
61738W        W28147  28.784  22.632  13.086
61739W        W28148  37.858   7.733   0.010
61740W        W28149  38.601  25.516   2.717
61741W        W28150  37.965  12.242   3.286
61742W        W28151   0.350  30.037   4.970
61743W        W28152   7.216  15.858  13.384
61744W        W28153  30.573   9.774  12.064
61745W        W28154  15.756  40.087  14.943
61746W        W28155  32.408  31.342   3.808
61747W        W28156  33.116  31.111   0.539
61748W        W28157  19.222   9.921   3.816
61749W        W28158  32.214  16.998   0.481
61750W        W28159  35.865  27.716  12.011
61751W        W28160   8.834   9.706   0.317
61752W        W28161  25.879  43.464  12.479
61753W        W28162  35.366  36.650   2.838
61754W        W28163  38.977  37.542  12.882
61755W        W28164  20.774  15.271   2.032
61756W        W28165  17.010   2.869   1.807
61757W        W28166  14.848  31.963   3.684
61758W        W28167   1.379  24.336   4.711
61759W        W28168  40.610  21.622  11.876
61760W        W28169  36.383   5.048   2.377
61761W        W28170  14.833  16.589  14.083
61762W        W28171   9.981  27.586   3.265
61763W        W28172  15.967  15.600   1.420
61764W        W28173  34.777  32.462   1.793
61765W        W28174  43.548   1.262  14.368
61766W        W28175  27.767  12.642   1.483
61767W        W28176   0.431   7.908  11.804
61768W        W28177  38.537  35.590  10.742
61769W        W28178  41.996  37.585   4.483
61770W        W28179  29.386   0.316   4.054
61771W        W28180  36.971  40.820   2.492
61772W        W28181  28.038  24.214   0.528
61773W        W28182  10.316   6.522  14.539
61774W        W28183  26.033  30.084   4.656
61775W        W28184  40.458  23.292   3.616
61776W        W28185   4.404  23.703  12.954
61777W        W28186  14.423   0.642  12.367
61778W        W28187  43.043  40.004   3.403
61779W        W28188  23.163  11.342   2.642
61780W        W28189  34.970  33.902  12.692
61781W        W28190  10.896   2.257  14.222
61782W        W28191  17.222   8.979   2.803
61783W        W28192  34.025  36.307  12.929
61784W        W28193  15.387  12.160   0.877
61785W        W28194  12.638   7.469   1.347
61786W        W28195  25.427  29.565   1.276
61787W        W28196  24.978  14.565  12.094
61788W        W28197   4.894  27.625  13.835
61789W        W28198   3.471  44.655   2.175
61790W        W28199  44.448   9.140   3.784
61791W        W28200  31.456  37.174   0.838
61792W        W28201  38.988  31.698   0.379
61793W        W28202  14.632  23.231  12.037
61794W        W28203  39.382  11.628   1.222
61795W        W28204  18.550  41.774   4.660
61796W        W28205   4.235   0.926   4.393
61797W        W28206  44.940  20.811  14.446
61798W        W28207  32.874   1.514  11.052
61799W        W28208  41.288  39.075  11.524
61800W        W28209  27.444  10.835   0.882
61801W        W28210  24.471  12.815  11.127
61802W        W28211  42.152   6.871  13.831
61803W        W28212  28.936  21.517   4.603
61804W        W28213  26.636  27.407   1.753
61805W        W28214  12.005  29.179   3.290
61806W        W28215  27.211  17.303  14.834
61807W        W28216   7.188  29.661  14.974
61808W        W28217   8.429  27.025  13.954
61809W        W28218  13.164  44.296   3.230
61810W        W28219  35.530   2.262  10.949
61811W        W28220   3.281  13.540   1.219
61812W        W28221  25.512   9.587   0.967
61813W        W28222  38.816  14.694   4.637
61814W        W28223   2.492  16.038   4.344
61815W        W28224  26.542  27.048   4.449
61816W        W28225   6.476  44.908  14.731
61817W        W28226  19.768  39.665   3.873
61818W        W28227   4.933   0.781   3.675
61819W        W28228   7.714  41.828  13.005
61820W        W28229  20.105   1.516   1.706
61821W        W28230   4.987   2.728   0.824
61822W        W28231  24.921   2.756  14.372
61823W        W28232  16.767  32.946  10.472
61824W        W28233   4.509  42.961  10.070
61825W        W28234  37.584   1.407   1.327
61826W        W28235  36.295  17.842   4.162
61827W        W28236  21.193  37.095  11.385
61828W        W28237  26.488  35.795   1.243
61829W        W28238  33.373  22.201   2.902
61830W        W28239   9.656   3.635  14.380
61831W        W28240   4.396   5.662  13.457
61832W        W28241  27.039  29.200  14.541
61833W        W28242  20.631  13.623   0.869
61834W        W28243  18.823  17.514  14.537
61835W        W28244  26.668  41.387  13.373
61836W        W28245  22.727   7.215  14.329
61837W        W28246   0.774  36.494   2.937
61838W        W28247  42.200  40.131  12.369
61839W        W28248   2.739  42.497   2.289
61840W        W28249  21.533  11.803  11.216
61841W        W28250  25.270  21.266   0.321
61842W        W28251  31.315  17.948  14.500
61843W        W28252  30.137   1.818  14.275
61844W        W28253  13.043   5.658   3.252
61845W        W28254  18.550  23.059  14.541
61846W        W28255  13.297  42.394   2.737
61847W        W28256   1.550   1.222   4.323
61848W        W28257  12.205  14.776   2.388
61849W        W28258  43.248   7.431   2.747
61850W        W28259  40.745  34.677   0.786
61851W        W28260  16.285  39.653  13.722
61852W        W28261   8.396  20.171  12.334
61853W        W28262  17.491  17.645  11.667
61854W        W28263  18.803  43.177   1.375
61855W        W28264   8.010  11.017   0.288
61856W        W28265  13.174  15.280  13.512
61857W        W28266  21.771   5.094   2.717
61858W        W28267   3.571  43.366  14.429
61859W        W28268  29.703  13.870   0.397
61860W        W28269   2.772  42.905  10.921
61861W        W28270  21.058   4.748  12.556
61862W        W28271  41.930  35.587  14.291
61863W        W28272  13.771  20.621   4.138
61864W        W28273  17.848   8.389  12.540
61865W        W28274  22.792  39.429   1.755
61866W        W28275  17.858  12.225  11.531
61867W        W28276  13.727  31.055   1.362
61868W        W28277   7.488  10.585   1.731
61869W        W28278   5.987   9.454   4.274
61870W        W28279   7.667  42.755   3.273
61871W        W28280   3.200   8.303  12.274
61872W        W28281  19.836  30.403   3.554
61873W        W28282  32.835   1.518   3.317
61874W        W28283  44.416  25.065   2.724
61875W        W28284  42.783  14.758  14.185
61876W        W28285  36.336  22.974   2.852
61877W        W28286  32.290   4.593  10.362
61878W        W28287  19.028  17.168   1.628
61879W        W28288   2.881  23.570   4.280
61880W        W28289  36.799  18.230   2.828
61881W        W28290  25.572  38.041   4.156
61882W        W28291  13.685  12.795  14.259
61883W        W28292   4.047  37.999  14.149
61884W        W28293   7.704  38.604  12.124
61885W        W28294  16.553   9.775   0.834
61886W        W28295   8.257   3.125   0.306
61887W        W28296  11.372  24.559  14.456
61888W        W28297   2.275  30.607   3.133
61889W        W28298  43.498  24.739  11.603
61890W        W28299  26.947   3.204   0.519
61891W        W28300  12.627   2.972  12.627
61892W        W28301  40.615  31.761  11.214
61893W        W28302  25.945  11.689   0.792
61894W        W28303  11.272  34.888   4.479
61895W        W28304  42.658  18.613  10.360
61896W        W28305  28.950  39.819  10.691
61897W        W28306  33.765  10.685   2.374
61898W        W28307  24.652  23.579   1.888
61899W        W28308   3.651  27.855  13.875
61900W        W28309  34.243  42.742   3.680
61901W        W28310  44.097   6.204   0.299
61902W        W28311  28.086  27.562   4.611
61903W        W28312  38.874  43.748  14.019
61904W        W28313  13.727  26.656  13.051
61905W        W28314   8.265   8.720  12.265
61906W        W28315  17.573  31.603  10.737
61907W        W28316  23.517   5.192   1.891
61908W        W28317  19.307  39.954   1.260
61909W        W28318  35.275  35.647  10.682
61910W        W28319   6.150  22.213  12.113
61911W        W28320   4.186  43.488   3.623
61912W        W28321   9.280   3.482  14.721
61913W        W28322  13.703   8.939   0.323
61914W        W28323  30.888  15.768   1.747
61915W        W28324  32.026  32.076  14.414
61916W        W28325  17.148  28.706  14.713
61917W        W28326  29.058  25.941  12.590
61918W        W28327  25.948  28.948   4.747
61919W        W28328  32.065   1.389  12.518
61920W        W28329  42.700  23.045   2.847
61921W        W28330   8.637   6.726  13.993
61922W        W28331  18.857  16.792  13.759
61923W        W28332  23.635  25.243   2.818
61924W        W28333   0.997  38.073   2.657
61925W        W28334  44.965  40.096  10.281
61926W        W28335   5.922  27.484  12.581
61927W        W28336  37.932   3.241  10.068
61928W        W28337  16.156  14.671   0.933
61929W        W28338  13.305   3.472   1.913
61930W        W28339  32.432  15.650   0.824
61931W        W28340  33.508   2.753  13.427
61932W        W28341  28.229  36.092  10.945
61933W        W28342  37.239   0.901  11.234
61934W        W28343  13.112  11.391   3.558
61935W        W28344  24.163   5.472  12.307
61936W        W28345  16.859  39.697  15.000
61937W        W28346   5.289  15.276  14.555
61938W        W28347  36.603  27.661   3.304
61939W        W28348  22.580  41.339   2.179
61940W        W28349   3.962  27.053  10.866
61941W        W28350  35.527  18.291  14.114
61942W        W28351  26.069   2.715  13.582
61943W        W28352  28.705   9.313   3.671
61944W        W28353  25.088  39.735  10.347
61945W        W28354   7.249  27.675   0.329
61946W        W28355  18.560  42.908   3.303
61947W        W28356  37.066  22.668  11.755
61948W        W28357  21.361  24.145   4.219
61949W        W28358  35.484  33.801   0.406
61950W        W28359  26.109   8.360   3.007
61951W        W28360  28.951  10.953   1.320
61952W        W28361  36.671  31.918   4.588
61953W        W28362  44.999  28.489   3.559
61954W        W28363  17.932  36.986   4.058
61955W        W28364   2.924  34.617  13.671
61956W        W28365  21.092  30.408  14.925
61957W        W28366   8.326  34.939   4.656
61958W        W28367  17.112  26.777   4.604
61959W        W28368   8.385   9.738  13.250
61960W        W28369  19.728  42.590   4.372
61961W        W28370  40.478  29.954   4.032
61962W        W28371  14.516  32.040  11.670
61963W        W28372  36.072  30.624   3.920
61964W        W28373  38.333  32.029  11.321
61965W        W28374  44.024  39.964   0.810
61966W        W28375  23.488  16.060  12.050
61967W        W28376  40.996  41.841   0.123
61968W        W28377  38.490  19.255  14.305
61969W        W28378   5.047  20.468   2.918
61970W        W28379  13.024  30.382  13.307
61971W        W28380  33.862  24.982  13.327
61972W        W28381  33.589  21.473   4.159
61973W        W28382   4.236   4.887   4.231
61974W        W28383  44.274   4.608  13.930
61975W        W28384  28.906  41.405  11.555
61976W        W28385   0.261  36.531  10.693
61977W        W28386  31.562  27.121  14.916
61978W        W28387  19.075  13.248  14.757
61979W        W28388  41.389  42.727   2.025
61980W        W28389   2.336  27.978   0.012
61981W        W28390  28.011  12.713  10.814
61982W        W28391  36.959  15.918  14.327
61983W        W28392   1.680  24.168   0.747
61984W        W28393  14.353   0.014   1.718
61985W        W28394  39.239   1.866   3.224
61986W        W28395   8.869   3.736   4.234
61987W        W28396  38.991  22.421  14.892
61988W        W28397   7.161  31.150   2.762
61989W        W28398   3.195  11.141   3.939
61990W        W28399  30.568  14.770   0.030
61991W        W28400   6.176  32.509   0.797
61992W        W28401  32.386  32.019   1.826
61993W        W28402  10.820   8.675  12.459
61994W        W28403  18.180  10.314   5.100
61995W        W28404  11.756  13.383  11.180
61996W        W28405   1.877  39.361   2.574
61997W        W28406  36.947  15.434   0.387
61998W        W28407  42.716  42.034  10.683
61999W        W28408  32.729   1.095  14.313
62000W        W28409  42.956  18.153  12.964
62001W        W28410  19.894  37.760  11.173
62002W        W28411  10.195  21.158   3.689
62003W        W28412  15.550  16.028  11.586
62004W        W28413   1.623   1.128   0.651
62005W        W28414  21.551  35.411  12.511
62006W        W28415  33.918  12.030  13.654
62007W        W28416  17.682  22.027  14.375
62008W        W28417   0.394   0.725  11.611
62009W        W28418  31.975  43.533   2.855
62010W        W28419  16.957  26.376  11.232
62011W        W28420  16.021  12.233  14.370
62012W        W28421  40.864   4.060  13.407
62013W        W28422  14.276  41.542  13.353
62014W        W28423  37.447  32.488   0.841
62015W        W28424  11.167  18.534   3.725
62016W        W28425  14.310  40.374   4.227
62017W        W28426  11.198   1.884  12.188
62018W        W28427   9.074   5.366   4.507
62019W        W28428  38.609  39.419   2.828
62020W        W28429   0.334   0.028   0.445
62021W        W28430  30.988   4.398   0.091
62022W        W28431   2.806   8.355   0.907
62023W        W28432   2.846  13.704   2.871
62024W        W28433  11.891  25.713  14.081
62025W        W28434  44.931  13.401  13.474
62026W        W28435   8.611  39.608   2.155
62027W        W28436  27.431  26.393  14.846
62028W        W28437  13.067  15.455   3.812
62029W        W28438  43.527  37.399   0.226
62030W        W28439   5.921  11.267  13.936
62031W        W28440  39.161  15.894   2.264
62032W        W28441  20.104   1.019   3.152
62033W        W28442  38.741  30.267   1.726
62034W        W28443  35.204  41.541   2.918
62035W        W28444   2.051  34.347   2.510
62036W        W28445  43.220  15.051   2.251
62037W        W28446  10.575  17.932  10.800
62038W        W28447  39.501  19.785  11.188
62039W        W28448  37.578  34.361  14.428
62040W        W28449   3.983  18.233  12.095
62041W        W28450  22.400  24.958   0.729
62042W        W28451  11.665  44.261   1.829
62043W        W28452  41.391  44.277   2.599
62044W        W28453  28.092  34.447  13.826
62045W        W28454  18.515  43.774   4.443
62046W        W28455   9.476  30.456   0.405
62047W        W28456  35.520   6.429  14.863
62048W        W28457   8.930   8.524  13.004
62049W        W28458  32.187  36.413  11.045
62050W        W28459  27.986   1.463  11.157
62051W        W28460  31.089   6.179   0.855
62052W        W28461  35.940  22.043  12.670
62053W        W28462  42.340  24.966   2.869
62054W        W28463   6.232  37.665  12.145
62055W        W28464  29.012  39.917  14.460
62056W        W28465   0.760  34.237  12.479
62057W        W28466  39.081  11.778  14.827
62058W        W28467   6.643  39.361   1.339
62059W        W28468  31.857  24.279  13.818
62060W        W28469  29.587  36.237  12.110
62061W        W28470   5.935  22.633   4.602
62062W        W28471  32.582  37.488   4.552
62063W        W28472  36.351   8.799   3.297
62064W        W28473   6.293  30.015  12.402
62065W        W28474  18.563  29.883  12.054
62066W        W28475  24.821   4.311   2.418
62067W        W28476   6.406  37.402  12.551
62068W        W28477   3.252   2.878   4.250
62069W        W28478  18.029  16.495   3.221
62070W        W28479  22.811  26.820  12.521
62071W        W28480  14.743   4.749  14.922
62072W        W28481  38.018  35.200   0.820
62073W        W28482  21.993  15.386  12.544
62074W        W28483  10.696  32.397  11.606
62075W        W28484  25.371  22.053  14.840
62076W        W28485   3.315  21.579   3.250
62077W        W28486  38.176  28.680   3.143
62078W        W28487  33.049  29.866  10.752
62079W        W28488   9.249  21.794  14.850
62080W        W28489   8.466  17.779   0.774
62081W        W28490  40.768  25.669  12.620
62082W        W28491  44.948   6.892   1.193
62083W        W28492  22.621  41.059   0.946
62084W        W28493  32.578  40.110  11.489
62085W        W28494   8.969   6.763   4.291
62086W        W28495   5.781  29.917   3.121
62087W        W28496  14.033  11.091   2.338
62088W        W28497  24.082   2.780  10.950
62089W        W28498  10.345  32.056  12.771
62090W        W28499  25.385  17.150   3.918
62091W        W28500  12.758  14.184   2.411
62092W        W28501   4.260  10.573  10.972
62093W        W28502  22.061  20.078   3.054
62094W        W28503  35.984  15.253  13.426
62095W        W28504  42.041  31.993  13.127
62096W        W28505  19.777  32.675   3.173
62097W        W28506   4.659  23.495  12.469
62098W        W28507  42.661  12.663   3.570
62099W        W28508  18.483  10.702   1.421
62100W        W28509  20.793   1.859   0.423
62101W        W28510   7.348   8.505  14.014
62102W        W28511  22.281   0.343  12.001
62103W        W28512  16.063  18.795  12.134
62104W        W28513  41.429  36.355   4.313
62105W        W28514  28.561   6.678  13.519
62106W        W28515   4.898  10.945   4.565
62107W        W28516   4.179   9.136  14.608
62108W        W28517   3.410   2.374  11.586
62109W        W28518  31.914   5.809  10.220
62110W        W28519  27.958  35.359  12.082
62111W        W28520   9.619  41.730  14.835
62112W        W28521  19.083  30.777   1.541
62113W        W28522   7.741  22.682   4.100
62114W        W28523  39.051  14.900  11.476
62115W        W28524  20.613  27.136  13.119
62116W        W28525   6.764  22.472  13.170
62117W        W28526  35.432  26.907  14.878
62118W        W28527  29.391  16.525   2.449
62119W        W28528  24.597  16.750   3.339
62120W        W28529  29.900   3.575   1.291
62121W        W28530  35.497   9.738  12.916
62122W        W28531  17.863   3.514   2.807
62123W        W28532   9.178  14.999  12.496
62124W        W28533  39.861  21.172   0.499
62125W        W28534  31.419  36.165   1.865
62126W        W28535   7.792  17.707   2.361
62127W        W28536   2.963  24.652   0.953
62128W        W28537  42.204  32.570  13.631
62129W        W28538  11.615  38.857   0.597
62130W        W28539  10.954  43.469   3.200
62131W        W28540   8.516  23.844   0.930
62132W        W28541   3.711  22.490   0.997
62133W        W28542  19.356  40.980  12.973
62134W        W28543  18.257  40.132   3.774
62135W        W28544  35.588   8.130   4.473
62136W        W28545  22.444  38.530   2.141
62137W        W28546  26.595  20.292   0.507
62138W        W28547  20.036  17.816   2.373
62139W        W28548  34.154  14.826   1.778
62140W        W28549  19.811  32.426   0.879
62141W        W28550  36.471  10.845   1.354
62142W        W28551  42.242  44.395   4.000
62143W        W28552  12.763  39.402   0.580
62144W        W28553  25.422  42.031   1.410
62145W        W28554  43.466  23.495   2.297
62146W        W28555  36.170  44.908  12.918
62147W        W28556  25.646  41.262   3.623
62148W        W28557   2.507  22.074  11.659
62149W        W28558   2.821  31.271  12.650
62150W        W28559  37.973  18.708   3.436
62151W        W28560  22.814  31.465   2.965
62152W        W28561  14.001  30.610   1.332
62153W        W28562  26.124  16.649   2.201
62154W        W28563  15.568  44.280   0.917
62155W        W28564   0.937  40.719  12.110
62156W        W28565   4.886  10.742   1.712
62157W        W28566  41.525  25.016   4.228
62158W        W28567  16.061  37.381   2.260
62159W        W28568  30.824  21.485  13.830
62160W        W28569  29.146   9.861  12.126
62161W        W28570  40.531  32.136  14.948
62162W        W28571  41.630  29.083   2.240
62163W        W28572  15.203   0.012  12.212
62164W        W28573  43.990  30.478  14.477
62165W        W28574  17.140  25.624   2.493
62166W        W28575  18.173   2.371  11.486
62167W        W28576   9.264  31.406   0.002
62168W        W28577  36.752  44.284  14.860
62169W        W28578  12.907   8.260  11.304
62170W        W28579  15.729  41.426   0.320
62171W        W28580  13.765  44.834   1.056
62172W        W28581   0.060  37.187  13.781
62173W        W28582  18.732  36.639  13.239
62174W        W28583  33.256  32.179  10.089
62175W        W28584   4.850  34.031  14.155
62176W        W28585  21.889   2.929  14.921
62177W        W28586  24.448  11.544  11.327
62178W        W28587  24.592  28.890  10.723
62179W        W28588  41.318  42.065   4.768
62180W        W28589  18.791  30.039  14.219
62181W        W28590  13.064  11.778   4.558
62182W        W28591  24.534  13.097  10.693
62183W        W28592  13.378  33.140   1.170
62184W        W28593  41.782  25.555  13.919
62185W        W28594  13.804  26.208  11.505
62186W        W28595  12.289  19.171   2.992
62187W        W28596  41.674  16.879   4.011
62188W        W28597  30.628  23.757   0.983
62189W        W28598   0.550   2.747  11.872
62190W        W28599  18.149  30.986   3.556
62191W        W28600  16.732  44.958  14.283
62192W        W28601  32.327   8.368   0.552
62193W        W28602  11.478  19.379   4.109
62194W        W28603  15.205  25.485  14.267
62195W        W28604  37.847  33.564   0.876
62196W        W28605  11.369  32.065  14.302
62197W        W28606   9.652  16.590   4.517
62198W        W28607  29.544  40.966  12.570
62199W        W28608   8.701  12.273   3.748
62200W        W28609   5.667  29.519  12.014
62201W        W28610  44.550  16.701   4.125
62202W        W28611  22.825  21.911   4.900
62203W        W28612  10.406  36.497   0.252
62204W        W28613  43.376  33.117  10.787
62205W        W28614   7.655  34.298  12.122
62206W        W28615  32.279   1.564  12.053
62207W        W28616  16.575  12.149   3.465
62208W        W28617  33.219  27.532   3.664
62209W        W28618  22.632   2.803  11.670
62210W        W28619   0.549  26.235  11.937
62211W        W28620  23.603  32.483   2.336
62212W        W28621  31.127  11.549  14.174
62213W        W28622  23.731  36.891   3.142
62214W        W28623  43.872  23.380   1.916
62215W        W28624  40.827  23.046  10.746
62216W        W28625  43.591   1.481   2.644
62217W        W28626  30.046  26.003   3.680
62218W        W28627  43.642  24.651   1.612
62219W        W28628  25.613   4.166  11.373
62220W        W28629  20.529  43.764   3.643
62221W        W28630   9.540   2.955  14.487
62222W        W28631  14.262  11.530   2.501
62223W        W28632  34.456   0.917   3.182
62224W        W28633  35.341   0.806  12.287
62225W        W28634  44.462  40.256   1.301
62226W        W28635  18.999  42.967   0.461
62227W        W28636  14.978  14.317   4.176
62228W        W28637  34.003  13.137   4.935
62229W        W28638  18.550  42.478   4.164
62230W        W28639  24.556   3.135   3.644
62231W        W28640   8.082  37.126  14.564
62232W        W28641  25.522  27.503  12.159
62233W        W28642  25.002  42.083  12.923
62234W        W28643  17.235  10.522   3.692
62235W        W28644   6.162  13.782   4.608
62236W        W28645   1.034   4.765   2.678
62237W        W28646  30.480  25.163  12.890
62238W        W28647   1.192  21.023  12.088
62239W        W28648  29.826  32.108   4.778
62240W        W28649   9.750   1.674  12.059
62241W        W28650   0.054  28.374  14.986
62242W        W28651  14.105  40.957  12.909
62243W        W28652  22.193  29.957   3.832
62244W        W28653  40.867   6.045   0.698
62245W        W28654  39.419  39.818  13.810
62246W        W28655  18.305  36.012   3.258
62247W        W28656  33.118  28.108  11.660
62248W        W28657   2.915  43.783  11.917
62249W        W28658   1.326  29.567  13.436
62250W        W28659   8.772  13.417   2.768
62251W        W28660  24.194  10.757   4.258
62252W        W28661  15.206  17.647   2.652
62253W        W28662  16.685   4.919  13.058
62254W        W28663  14.046   1.823  12.434
62255W        W28664  42.522   6.418  14.996
62256W        W28665   4.338  13.583   2.688
62257W        W28666  13.733  43.123  13.600
62258W        W28667  20.987  30.021   1.360
62259W        W28668  31.255   1.019   1.380
62260W        W28669   6.178  40.917   4.882
62261W        W28670  25.516  38.473   2.910
62262W        W28671  34.068  24.860   1.693
62263W        W28672  23.768  41.419  10.840
62264W        W28673  22.236  15.911  11.102
62265W        W28674   8.885  41.565   4.637
62266W        W28675  11.373  24.047   4.186
62267W        W28676  26.748  43.964   1.168
62268W        W28677  26.488  21.805  12.037
62269W        W28678  17.684  27.549  14.330
62270W        W28679  42.282   8.825  13.348
62271W        W28680  16.669  13.070   1.202
62272W        W28681  19.774   3.960   2.918
62273W        W28682  44.267  10.426  12.073
62274W        W28683  34.832  12.815  12.483
62275W        W28684   8.745  31.312  13.871
62276W        W28685  30.206  32.507   3.568
62277W        W28686  31.314  16.367   2.268
62278W        W28687   5.370  42.387  10.471
62279W        W28688  29.497  35.491   1.903
62280W        W28689   7.864  41.894   0.772
62281W        W28690  40.945   8.480  11.643
62282W        W28691  25.727   7.948   4.190
62283W        W28692  26.247  24.310   0.311
62284W        W28693  19.623  44.806   0.220
62285W        W28694  30.774  28.592  12.962
62286W        W28695  15.844  42.353  13.554
62287W        W28696  34.378  33.433  12.347
62288W        W28697  40.535  31.097  12.052
62289W        W28698  42.488  19.261  11.092
62290W        W28699  26.671  31.621   4.235
62291W        W28700  25.486  14.625   4.683
62292W        W28701   2.393  35.599  13.429
62293W        W28702  12.431   7.143  14.544
62294W        W28703  27.321  32.644   2.204
62295W        W28704   3.961  11.875  11.100
62296W        W28705  29.815  31.399   0.368
62297W        W28706   3.405  32.019  10.769
62298W        W28707  18.509  44.912  14.536
62299W        W28708  28.191  13.363  14.831
62300W        W28709  10.374  30.584   9.930
62301W        W28710  17.396  36.129   2.694
62302W        W28711  30.448  20.503   0.415
62303W        W28712  36.400  44.937  10.698
62304W        W28713  31.112  27.600  10.673
62305W        W28714   5.994  37.494  10.549
62306W        W28715  41.056  11.659  14.912
62307W        W28716  41.804  39.938   4.999
62308W        W28717  18.209  19.612   4.112
62309W        W28718  34.440  37.883   1.666
62310W        W28719   4.829  18.758   2.416
62311W        W28720  19.542   3.745  11.022
62312W        W28721  26.988  44.480   4.664
62313W        W28722   0.850  21.504  13.600
62314W        W28723  40.844  35.408  13.512
62315W        W28724   2.837  37.847  13.035
62316W        W28725   9.139   4.434  14.845
62317W        W28726   9.783  18.082  14.293
62318W        W28727  25.855  42.854  14.503
62319W        W28728  28.506  13.273  13.952
62320W        W28729  42.876  31.115  10.724
62321W        W28730  17.481  39.870   0.923
62322W        W28731   2.216  11.809  12.002
62323W        W28732  44.852  19.610   0.798
62324W        W28733  16.089  34.538   4.102
62325W        W28734  22.540  43.229   4.037
62326W        W28735  39.745   5.861  12.465
62327W        W28736  37.470  29.040   2.466
62328W        W28737  34.341  12.019   2.349
62329W        W28738  21.231  39.918  12.364
62330W        W28739  41.673  41.737   1.182
62331W        W28740   7.032  30.027   2.421
62332W        W28741   0.529  43.528  13.135
62333W        W28742  13.649  12.947  11.092
62334W        W28743  40.212  24.709   2.181
62335W        W28744  31.038  33.561   0.381
62336W        W28745  20.053  44.435   1.884
62337W        W28746  38.842   0.697   3.056
62338W        W28747  32.476  36.305   1.926
62339W        W28748  16.734  23.511   2.800
62340W        W28749  23.107  43.806  12.422
62341W        W28750  31.172   0.040   4.598
62342W        W28751   1.094   7.403  10.166
62343W        W28752  10.646  21.999   4.551
62344W        W28753  22.459  12.160   0.189
62345W        W28754  20.037   1.488   2.677
62346W        W28755  18.340  16.948  12.595
62347W        W28756  33.991  23.449   2.733
62348W        W28757  20.046  27.198  11.175
62349W        W28758   3.901  29.519   1.875
62350W        W28759  33.400  32.097  14.725
62351W        W28760  43.894   1.742   2.238
62352W        W28761  13.291  14.612   0.379
62353W        W28762  34.123  37.062  11.639
62354W        W28763   7.885  40.371   0.803
62355W        W28764  37.905  40.971   2.362
62356W        W28765  42.825  27.140  14.383
62357W        W28766  19.576   3.452  13.794
62358W        W28767   9.220   1.881  10.974
62359W        W28768   4.482  19.611   2.711
62360W        W28769  42.405  25.180   4.724
62361W        W28770   4.705  28.059   2.746
62362W        W28771  40.443  12.370   2.152
62363W        W28772  15.959  14.376   0.354
62364W        W28773  41.999  21.782   3.977
62365W        W28774  34.634  10.275  13.361
62366W        W28775  29.006  28.945   2.734
62367W        W28776   3.887  28.696   4.051
62368W        W28777  20.040  40.898  12.497
62369W        W28778  13.147  32.102   2.359
62370W        W28779  41.330  42.449  13.331
62371W        W28780  38.339  28.314  14.906
62372W        W28781   6.691  40.953   0.791
62373W        W28782  40.369   1.702   2.642
62374W        W28783  43.724  35.366   1.340
62375W        W28784  19.127  14.707  10.963
62376W        W28785  43.487  34.477  12.056
62377W        W28786   8.838  33.098   0.412
62378W        W28787   9.045  13.719  13.520
62379W        W28788  31.766   4.191  11.173
62380W        W28789  22.037  33.918   0.425
62381W        W28790  36.675  34.783   2.238
62382W        W28791   4.749  37.938   0.804
62383W        W28792  44.965  19.688   0.298
62384W        W28793  36.407  44.944  11.552
62385W        W28794   9.864   1.773  13.507
62386W        W28795  10.088   9.963  12.106
62387W        W28796   0.298  31.363  11.602
62388W        W28797  31.937  30.030   3.615
62389W        W28798  33.482   0.687  11.498
62390W        W28799  20.339  21.266  12.011
62391W        W28800  28.924  18.682  12.531
62392W        W28801  44.422  26.569  13.977
62393W        W28802   1.310  28.749  13.134
62394W        W28803  31.895   4.156   3.174
62395W        W28804   9.356  40.960  10.823
62396W        W28805  15.584  23.999   2.749
62397W        W28806  40.033  15.331   2.840
62398W        W28807  13.555  20.956   3.157
62399W        W28808  34.970  13.686   0.529
62400W        W28809  42.395  10.279  12.427
62401W        W28810  31.974   4.439   0.538
62402W        W28811  43.477  20.144   0.226
62403W        W28812  30.471   2.535  10.716
62404W        W28813  27.241   7.908   2.195
62405W        W28814  40.780  38.764   1.479
62406W        W28815  13.717  39.355   1.757
62407W        W28816  13.234  21.127   1.821
62408W        W28817   2.312  33.024   1.691
62409W        W28818   0.374  20.009  12.748
62410W        W28819  20.270   3.158  13.436
62411W        W28820  20.701  19.255   4.895
62412W        W28821   8.033  25.265   9.676
62413W        W28822  37.384   9.874   3.073
62414W        W28823  10.893  36.048   2.024
62415W        W28824  29.414  23.470  13.524
62416W        W28825  31.881  26.595  12.130
62417W        W28826   2.747  35.944  12.309
62418W        W28827  17.287  43.441   3.668
62419W        W28828  26.312   8.150   2.129
62420W        W28829  41.426  17.120  12.421
62421W        W28830  28.018  32.439  11.873
62422W        W28831  37.236   5.157   1.777
62423W        W28832   4.930   7.178   0.985
62424W        W28833  18.027  14.859  14.247
62425W        W28834  11.420  11.784   2.282
62426W        W28835  44.908   5.638   3.323
62427W        W28836  39.432  39.953  13.218
62428W        W28837  14.880   9.745  14.865
62429W        W28838   7.300  10.803   1.278
62430W        W28839  34.354  35.611   0.848
62431W        W28840  16.954  32.406  13.079
62432W        W28841  36.351   7.732  10.687
62433W        W28842  25.837  17.524   2.186
62434W        W28843  37.745  13.082   3.636
62435W        W28844  29.891   2.362  10.575
62436W        W28845  14.715  32.125  11.195
62437W        W28846  11.852  24.678   2.206
62438W        W28847  25.689  34.060   4.547
62439W        W28848  30.974   5.407   0.510
62440W        W28849  20.731  13.869   3.589
62441W        W28850  12.599   5.643   2.274
62442W        W28851   1.528  34.548   3.273
62443W        W28852  38.720   2.010  11.605
62444W        W28853  14.667  42.930   4.805
62445W        W28854   0.433   1.059   3.488
62446W        W28855   6.134  30.203  13.334
62447W        W28856  12.817  25.246   4.036
62448W        W28857  42.329  36.120   1.500
62449W        W28858   5.681  10.217  11.557
62450W        W28859   8.753  44.633  11.567
62451W        W28860   2.845  34.631   0.870
62452W        W28861  15.660  34.936  10.632
62453W        W28862  13.854  21.646   3.226
62454W        W28863   1.614  40.745   0.840
62455W        W28864  14.716  19.188  14.995
62456W        W28865  20.958  32.969   4.511
62457W        W28866  39.066  31.214   0.213
62458W        W28867  17.419  23.112   3.580
62459W        W28868  37.961  32.566   0.532
62460W        W28869  33.817  12.737  10.381
62461W        W28870  44.305  20.509   1.843
62462W        W28871  31.604  29.459  11.204
62463W        W28872  26.987   9.252  12.041
62464W        W28873   6.598  31.979  12.430
62465W        W28874  30.512  10.877  12.620
62466W        W28875  16.653  27.861  10.513
62467W        W28876  12.106  34.018   0.290
62468W        W28877  15.428  35.884   3.562
62469W        W28878  40.791  36.297  13.438
62470W        W28879   8.630   5.710   0.354
62471W        W28880  38.965  24.762   2.775
62472W        W28881   2.271  44.595   3.683
62473W        W28882  44.570  24.081  10.560
62474W        W28883  39.155  34.909   4.606
62475W        W28884   6.864   7.956   1.368
62476W        W28885  43.625  36.798   3.225
62477W        W28886  13.626  25.764  12.817
62478W        W28887  15.733  29.655  12.194
62479W        W28888  35.895  25.641   2.257
62480W        W28889   4.615  27.869   2.272
62481W        W28890   1.260  20.206  13.962
62482W        W28891  38.067  34.360  14.256
62483W        W28892  43.784   7.441   1.869
62484W        W28893  43.200  13.373   2.196
62485W        W28894  32.436  34.915   2.203
62486W        W28895  17.810   9.376   3.214
62487W        W28896   1.231  32.647  13.216
62488W        W28897  33.660  28.025  13.978
62489W        W28898  15.118  39.437  10.359
62490W        W28899  16.945  18.523  14.364
62491W        W28900  37.139  39.329   4.151
62492W        W28901   9.816   4.692   2.927
62493W        W28902   5.895  44.324   4.683
62494W        W28903  11.331   0.052  12.049
62495W        W28904  14.560  19.747  13.894
62496W        W28905  36.413  16.623   3.761
62497W        W28906   9.187   6.607  10.380
62498W        W28907  11.230  20.175  13.276
62499W        W28908  39.415  36.782   2.852
62500W        W28909  29.727   7.386  13.753
62501W        W28910  33.989  21.311   1.419
62502W        W28911  30.051   7.232   3.681
62503W        W28912  14.708  41.257   2.763
62504W        W28913  20.580  32.816  12.406
62505W        W28914  25.903   7.681   0.437
62506W        W28915  40.973  43.796  11.934
62507W        W28916  40.450  43.547   4.723
62508W        W28917   5.965  36.402   0.779
62509W        W28918  15.064  36.800  13.106
62510W        W28919  21.598  39.710  11.352
62511W        W28920  20.022  43.941   3.829
62512W        W28921   9.314  42.044   1.092
62513W        W28922  42.027   4.492   0.740
62514W        W28923  17.792  19.760   4.380
62515W        W28924  39.885  28.209   0.689
62516W        W28925  30.584  12.859   3.313
62517W        W28926  30.975  16.730   1.728
62518W        W28927  10.668  44.322   2.612
62519W        W28928  36.000  41.821   0.920
62520W        W28929  27.735  12.890  12.136
62521W        W28930  12.773  24.217  10.349
62522W        W28931  15.570  19.297   0.322
62523W        W28932  13.176  12.737  14.161
62524W        W28933   3.103   5.160  11.967
62525W        W28934  44.308  33.550   3.817
62526W        W28935   8.476  37.029  10.744
62527W        W28936  41.107  19.766   3.217
62528W        W28937  20.477  22.792   2.737
62529W        W28938  17.819  11.392  13.872
62530W        W28939  16.158  18.262  10.828
62531W        W28940   1.473  18.489   0.647
62532W        W28941  36.106  29.998  12.347
62533W        W28942  39.350  29.926  11.181
62534W        W28943  42.014   5.395   3.604
62535W        W28944   8.780  29.478  11.007
62536W        W28945  19.453  30.645  11.494
62537W        W28946  18.548  43.009  10.625
62538W        W28947  44.230  19.611  11.628
62539W        W28948  20.768  29.558   2.203
62540W        W28949  24.713  40.071  14.229
62541W        W28950  12.232  43.220   5.341
62542W        W28951   5.898   7.276  10.696
62543W        W28952  34.535  11.802   1.826
62544W        W28953  39.631  31.417  13.472
62545W        W28954  11.597  23.163  12.623
62546W        W28955  18.742  21.280   9.930
62547W        W28956   7.973  25.592   3.278
62548W        W28957  28.739  34.618  14.542
62549W        W28958  18.590  34.098   4.250
62550W        W28959  23.168   3.157  10.581
62551W        W28960  40.378  27.435   3.144
62552W        W28961  31.564  16.273  11.924
62553W        W28962  27.914  29.140   0.767
62554W        W28963   1.995   9.375   0.529
62555W        W28964  29.543  26.173   3.668
62556W        W28965  30.229  14.809   1.412
62557W        W28966  14.186   7.954  12.444
62558W        W28967  44.278  23.018   4.589
62559W        W28968  33.632  35.175   0.761
62560W        W28969   4.971  21.719   0.916
62561W        W28970  37.106  24.589  14.916
62562W        W28971  40.666  17.359   0.197
62563W        W28972  36.831  19.256   2.752
62564W        W28973   4.657  41.813   0.741
62565W        W28974  41.845  42.427  12.139
62566W        W28975   4.019  38.300   2.795
62567W        W28976  35.023  24.904   0.290
62568W        W28977  41.373  10.507   3.077
62569W        W28978  14.237   7.291  14.724
62570W        W28979  31.105  42.457  14.253
62571W        W28980  18.364  43.888   0.957
62572W        W28981  13.889  13.320   2.895
62573W        W28982  24.647  34.986  10.682
62574W        W28983  17.314   7.652  11.984
62575W        W28984  16.596   8.206  12.402
62576W        W28985  16.141  18.327   1.799
62577W        W28986  38.378  21.905   1.331
62578W        W28987  31.222  34.488   2.139
62579W        W28988  44.420  31.877  10.071
62580W        W28989  40.790  21.828  11.454
62581W        W28990   6.800   9.182   0.410
62582W        W28991  29.033  16.171   2.207
62583W        W28992  33.974  10.899  12.116
62584W        W28993  35.262  16.553  12.079
62585W        W28994  36.630  41.915  12.444
62586W        W28995   7.627   2.730   2.408
62587W        W28996  34.217  41.726  11.878
62588W        W28997  37.583  27.159  12.325
62589W        W28998  13.655   1.648  12.866
62590W        W28999  11.725   4.974   3.256
62591W        W29000  11.623  32.472  11.271
62592W        W29001  28.249  17.351   1.420
62593W        W29002  23.934  35.019   3.740
62594W        W29003   2.794  32.654   1.895
62595W        W29004  32.601  38.537   4.519
62596W        W29005  26.102  36.658  12.518
62597W        W29006  24.623  38.961   3.052
62598W        W29007   9.343  29.878   2.933
62599W        W29008  35.357  36.793  11.204
62600W        W29009  41.971  40.898   3.627
62601W        W29010  37.352  21.024  14.397
62602W        W29011  12.644  25.046  14.404
62603W        W29012  30.857  34.513   0.257
62604W        W29013   3.766  24.985  10.329
62605W        W29014  23.951  31.796  12.053
62606W        W29015   5.548   7.892   0.171
62607W        W29016  41.982  14.645   0.403
62608W        W29017  42.312  43.434  12.959
62609W        W29018  41.269  24.835   0.423
62610W        W29019  44.305  39.822   4.363
62611W        W29020  20.537  40.451   1.223
62612W        W29021  25.113  18.456   2.327
62613W        W29022  15.840   5.919   3.522
62614W        W29023  20.659  38.498  12.525
62615W        W29024  22.103  15.075  12.126
62616W        W29025  22.121  40.233  12.609
62617W        W29026  35.084  19.738   0.487
62618W        W29027   1.179  40.599  14.243
62619W        W29028  38.183   9.242  13.476
62620W        W29029  32.484  15.324  10.857
62621W        W29030  38.423  26.413  11.929
62622W        W29031   9.726  16.647   3.177
62623W        W29032  20.544  43.401   0.076
62624W        W29033  30.920  14.458   3.830
62625W        W29034  43.800  38.746   3.168
62626W        W29035  10.743  20.636   0.288
62627W        W29036  39.398  34.249  12.439
62628W        W29037   3.858  40.393   3.767
62629W        W29038  41.255   0.771  11.419
62630W        W29039   0.773  30.408   1.820
62631W        W29040   6.396   8.192  11.901
62632W        W29041  29.955  25.176  13.097
62633W        W29042  28.466   1.385  13.740
62634W        W29043  38.122   9.417  12.500
62635W        W29044   0.987   1.832   3.932
62636W        W29045  20.640  20.625   4.643
62637W        W29046  21.153  22.530   4.877
62638W        W29047  17.221  39.506  13.786
62639W        W29048   4.926   3.943  12.768
62640W        W29049  15.962  13.629  11.228
62641W        W29050  35.859  18.182  10.664
62642W        W29051  42.359  17.229   4.700
62643W        W29052   9.406   9.965  13.448
62644W        W29053   6.564  15.586  12.881
62645W        W29054  32.478  19.632   1.780
62646W        W29055  20.255   5.793   4.617
62647W        W29056  17.748  42.451  12.531
62648W        W29057  41.215   0.892  11.930
62649W        W29058   0.047  25.137   2.009
62650W        W29059  29.372  11.158  14.883
62651W        W29060  16.219  24.599   4.534
62652W        W29061  38.361  36.790  13.374
62653W        W29062  15.486   1.531   1.465
62654W        W29063  37.786  30.482   3.001
62655W        W29064  17.131  30.685  12.379
62656W        W29065  26.225  25.215  14.125
62657W        W29066   2.735  36.094  10.944
62658W        W29067  17.512  38.813   2.650
62659W        W29068  18.583  29.199   1.692
62660W        W29069   3.750  12.859   2.957
62661W        W29070  30.922  17.281  14.762
62662W        W29071  38.042  36.704   3.167
62663W        W29072  28.148  38.230   3.789
62664W        W29073   2.281  41.078  10.786
62665W        W29074  19.573  14.740   2.928
62666W        W29075   6.774   2.288  12.068
62667W        W29076  39.815  13.234  14.273
62668W        W29077  37.335  27.542   1.375
62669W        W29078  27.475   0.887  14.344
62670W        W29079  33.128  21.158   4.212
62671W        W29080  40.862  15.663  12.652
62672W        W29081  18.754   8.733  13.354
62673W        W29082  23.779  33.863   2.335
62674W        W29083  17.555  25.203   0.885
62675W        W29084  31.237   8.415  11.453
62676W        W29085   5.158  12.395  12.119
62677W        W29086   5.672  41.993  10.671
62678W        W29087  38.868  11.140  11.453
62679W        W29088  22.684  30.587  14.048
62680W        W29089   6.797  22.492   4.339
62681W        W29090  39.159  25.008   0.666
62682W        W29091  33.423  37.662   0.423
62683W        W29092  31.476  36.856  13.158
62684W        W29093  31.192  24.536   2.684
62685W        W29094  34.970  22.262   2.698
62686W        W29095  15.805  35.488   0.985
62687W        W29096  28.898   3.988  13.934
62688W        W29097  28.941   8.396  14.830
62689W        W29098  31.152  31.953  10.315
62690W        W29099  28.192   7.632   3.648
62691W        W29100  36.817  31.426  13.908
62692W        W29101  34.001  44.342  12.386
62693W        W29102   9.060  20.902  10.264
62694W        W29103  34.096  27.904  13.730
62695W        W29104  43.843  33.989  10.931
62696W        W29105  23.952   7.871   0.281
62697W        W29106  34.419  31.104   3.356
62698W        W29107  33.945  24.915   3.064
62699W        W29108  44.049   9.920   1.774
62700W        W29109  23.059  23.326   2.688
62701W        W29110  41.098   5.294   4.186
62702W        W29111   9.878  23.788  13.307
62703W        W29112  38.117  39.185   4.103
62704W        W29113  24.437   3.868  13.770
62705W        W29114  31.078  29.147  12.162
62706W        W29115  41.736  10.930  12.853
62707W        W29116   9.893  29.093  14.724
62708W        W29117  32.685  26.472  12.576
62709W        W29118  19.887   1.198  12.911
62710W        W29119  36.516  27.723  10.658
62711W        W29120  42.138  29.185   2.202
62712W        W29121  17.176  44.395  11.983
62713W        W29122  32.351  20.021  13.963
62714W        W29123   1.924  18.673   2.668
62715W        W29124   7.309  34.963   1.148
62716W        W29125  34.604  13.283   0.557
62717W        W29126  17.000  42.824   4.252
62718W        W29127   2.201  35.949   3.286
62719W        W29128   6.377   2.304   1.035
62720W        W29129  41.824  35.528   2.697
62721W        W29130  23.999   0.744  10.598
62722W        W29131  20.151  26.380  12.507
62723W        W29132  16.191  42.485  14.102
62724W        W29133   7.755  25.982   3.633
62725W        W29134  31.851  10.224   3.069
62726W        W29135  43.269  11.314   1.258
62727W        W29136   4.675  42.993  13.185
62728W        W29137  12.853  32.414   0.259
62729W        W29138  37.438  21.401   1.220
62730W        W29139  24.467   8.749  12.912
62731W        W29140  37.134  34.845   3.311
62732W        W29141   1.476  33.403   0.773
62733W        W29142  37.922  24.869   2.683
62734W        W29143  34.540  20.332  11.652
62735W        W29144  13.111  10.801   1.352
62736W        W29145  21.502  40.811  11.387
62737W        W29146  42.439  14.567   2.258
62738W        W29147  39.422  29.654  13.595
62739W        W29148  16.141  31.937   1.595
62740W        W29149  25.478  43.820  13.569
62741W        W29150  27.013  41.543   2.329
62742W        W29151  30.193  33.134   2.803
62743W        W29152   6.778  32.872  13.436
62744W        W29153  10.709  41.873  14.721
62745W        W29154  19.523  10.413  12.006
62746W        W29155  11.717  41.933  12.882
62747W        W29156  18.049  34.248   4.081
62748W        W29157   9.158   1.936   1.260
62749W        W29158   0.994  40.965  13.915
62750W        W29159   3.177  15.295   1.821
62751W        W29160  16.124  24.209  14.405
62752W        W29161  41.194  13.836  12.767
62753W        W29162  10.128  30.905   4.587
62754W        W29163  29.920   2.692   4.042
62755W        W29164  15.154  37.827  13.931
62756W        W29165   2.230  41.382   2.215
62757W        W29166  31.076  40.601  14.833
62758W        W29167  36.023  22.126  11.687
62759W        W29168  18.365  18.586   2.261
62760W        W29169  23.237  10.110  11.137
62761W        W29170  28.937  15.865   1.777
62762W        W29171   8.010  20.536  11.083
62763W        W29172  40.661  39.714  10.180
62764W        W29173   1.691  24.643   0.940
62765W        W29174  13.035  11.807  12.932
62766W        W29175  12.289   0.354  13.439
62767W        W29176  30.464  17.665   4.192
62768W        W29177  35.035   0.574  11.487
62769W        W29178   2.695  14.588  11.528
62770W        W29179  37.738  36.303  12.607
62771W        W29180  42.441  44.800  11.160
62772W        W29181   5.809  44.459  12.173
62773W        W29182  41.358  17.088   4.495
62774W        W29183  40.374  43.136  11.047
62775W        W29184  32.404   5.746  14.871
62776W        W29185  42.572   8.441  12.315
62777W        W29186  24.044  28.707  10.736
62778W        W29187  41.258  11.536   2.156
62779W        W29188   7.692  27.008   4.097
62780W        W29189  18.824  22.175  11.042
62781W        W29190  10.796  30.066  13.092
62782W        W29191  38.072   7.605  11.228
62783W        W29192   4.234   9.284   2.756
62784W        W29193  29.053  15.141   3.870
62785W        W29194   5.400  16.166  14.514
62786W        W29195   3.948   0.827  13.251
62787W        W29196   5.832  43.988  14.866
62788W        W29197  26.064  32.342  14.055
62789W        W29198  25.475  39.489  14.066
62790W        W29199  44.703  22.635   1.210
62791W        W29200   8.415  18.228  13.571
62792W        W29201  14.734  28.470   1.317
62793W        W29202  22.957  35.603  12.819
62794W        W29203  43.537  44.904   0.516
62795W        W29204  16.585   0.388   1.090
62796W        W29205  32.192  31.506   1.764
62797W        W29206  32.199  14.602   3.165
62798W        W29207  41.540  13.697   0.014
62799W        W29208  23.169   6.022   4.380
62800W        W29209  19.560  28.907  10.062
62801W        W29210   6.170  12.379  13.800
62802W        W29211   0.016  16.236   0.339
62803W        W29212   0.887   9.225  12.028
62804W        W29213  19.058  19.608   2.347
62805W        W29214  21.000   9.888  14.276
62806W        W29215   2.265   9.888   1.734
62807W        W29216  33.650  30.652  14.156
62808W        W29217  44.811  31.222   3.406
62809W        W29218  36.245   7.553  13.320
62810W        W29219   1.121  16.216  14.792
62811W        W29220  28.724  26.556  11.261
62812W        W29221  39.315   6.014  13.876
62813W        W29222  36.013   4.911  10.925
62814W        W29223  35.936   9.986  12.841
62815W        W29224  29.491  12.566   0.713
62816W        W29225   4.794  36.942  13.888
62817W        W29226  20.065  12.159  10.775
62818W        W29227  33.190   0.876   3.975
62819W        W29228   0.127   6.864   4.803
62820W        W29229  30.642  43.950   1.729
62821W        W29230  43.312  38.892   0.036
62822W        W29231  44.968  14.553   2.212
62823W        W29232  21.570   4.482  13.515
62824W        W29233  27.203  19.664  10.257
62825W        W29234  28.086  27.190  11.155
62826W        W29235  23.104  44.319  12.871
62827W        W29236  31.871   4.282  12.955
62828W        W29237   9.887   4.015  13.073
62829W        W29238  24.954  18.086   3.636
62830W        W29239  16.221  27.954  13.943
62831W        W29240  34.849  42.040  11.198
62832W        W29241  11.613  34.103  12.449
62833W        W29242  20.212  21.174  12.989
62834W        W29243  40.137  17.405   0.141
62835W        W29244  32.126  25.249  10.434
62836W        W29245  10.818  10.556  12.908
62837W        W29246   9.663  36.297  13.949
62838W        W29247  21.657  28.641  13.336
62839W        W29248  12.407   7.260   1.768
62840W        W29249   6.816  25.059  14.504
62841W        W29250  16.602  33.123   0.821
62842W        W29251  11.631  37.913  13.956
62843W        W29252  40.553  39.862  14.520
62844W        W29253  10.829   0.098  14.995
62845W        W29254  13.163  39.924  12.924
62846W        W29255   2.891  38.906   3.867
62847W        W29256  23.671  22.295  13.498
62848W        W29257  41.422  39.097  12.454
62849W        W29258  43.408  17.976   2.201
62850W        W29259  43.271   3.905   1.340
62851W        W29260  32.128  18.188  14.470
62852W        W29261   9.400  39.496  11.813
62853W        W29262  24.078  37.741  10.598
62854W        W29263   9.514  23.694  14.261
62855W        W29264  42.695  11.777   4.511
62856W        W29265  31.473  25.421   0.972
62857W        W29266  22.962  17.614   4.023
62858W        W29267   2.375  37.301   0.087
62859W        W29268  25.621   7.276   3.732
62860W        W29269  18.579  23.626  14.430
62861W        W29270  31.034  33.888  10.388
62862W        W29271   4.854  15.747   4.184
62863W        W29272  13.488   6.399   3.150
62864W        W29273  26.954  23.583   1.855
62865W        W29274  32.123  34.299  11.146
62866W        W29275  13.696  16.253  11.501
62867W        W29276  28.410  43.606   1.685
62868W        W29277   5.432  17.282  10.344
62869W        W29278  21.184  21.988   2.862
62870W        W29279  33.346  23.476  10.994
62871W        W29280  27.207   9.206   3.615
62872W        W29281  29.397  37.898   2.269
62873W        W29282  19.577  35.599  10.350
62874W        W29283   1.859  21.576   4.186
62875W        W29284  10.142  42.515   3.628
62876W        W29285  23.726   6.908   4.644
62877W        W29286   2.461  21.724   3.258
62878W        W29287  44.259   4.415  11.599
62879W        W29288  28.435  28.256  11.459
62880W        W29289   6.712  40.285  11.132
62881W        W29290  17.683   5.441   1.629
62882W        W29291  35.013  37.477  13.021
62883W        W29292  31.518  36.786  11.540
62884W        W29293  16.110  13.645   4.524
62885W        W29294  17.624  18.271   2.253
62886W        W29295   1.765   7.586   4.730
62887W        W29296   8.873  42.058   2.859
62888W        W29297  39.262  26.883   0.270
62889W        W29298  43.157  34.148   0.263
62890W        W29299  39.448  40.570  11.570
62891W        W29300  25.294  20.666   1.125
62892W        W29301  25.941  17.697  11.768
62893W        W29302  29.346  43.025  14.337
62894W        W29303  12.105   3.279   1.940
62895W        W29304  13.276  25.838   0.769
62896W        W29305  12.642  35.639  12.330
62897W        W29306   1.497  43.778  14.803
62898W        W29307  31.394  42.804   3.778
62899W        W29308  12.522  43.381  14.886
62900W        W29309  30.350   4.065   4.542
62901W        W29310  21.252  44.416   3.601
62902W        W29311   2.543  24.874   1.826
62903W        W29312  40.344  27.532  12.380
62904W        W29313  29.759  14.281   1.972
62905W        W29314  42.031   6.333   2.661
62906W        W29315  31.376  41.935   0.348
62907W        W29316   9.576  18.796  11.181
62908W        W29317  26.085  23.866   5.015
62909W        W29318  17.308  39.037   3.560
62910W        W29319  27.893  17.282  11.939
62911W        W29320  42.323  34.281   3.219
62912W        W29321   5.472  30.463  13.914
62913W        W29322  24.930  20.763   0.791
62914W        W29323  44.934   9.994   0.737
62915W        W29324   3.625  13.427   1.615
62916W        W29325  28.965  15.395  13.502
62917W        W29326  19.973  26.166   0.786
62918W        W29327  40.778  25.590   2.192
62919W        W29328  27.601   7.285  14.528
62920W        W29329  36.014  32.204   2.604
62921W        W29330   0.332  38.570   3.027
62922W        W29331  34.191  31.058  11.496
62923W        W29332  34.442  44.781  12.239
62924W        W29333  38.302  40.765   4.618
62925W        W29334  16.882  23.467  11.752
62926W        W29335  35.679  20.265   1.224
62927W        W29336  13.124  29.909  12.427
62928W        W29337  18.708   3.430  14.353
62929W        W29338  33.951   1.729   2.770
62930W        W29339   1.485  31.276   2.854
62931W        W29340  31.880   7.885  14.348
62932W        W29341  17.637  29.542  12.955
62933W        W29342  14.622  36.416   0.263
62934W        W29343  18.235  34.954  10.674
62935W        W29344  10.339  15.981   3.841
62936W        W29345  12.599  16.831   3.834
62937W        W29346   6.865   6.358   3.700
62938W        W29347  12.702  12.113  11.567
62939W        W29348  29.200  13.729  11.881
62940W        W29349  43.792  43.069   0.936
62941W        W29350  44.542  39.450   2.225
62942W        W29351  32.165  38.017   2.454
62943W        W29352  10.366   8.475  14.552
62944W        W29353  28.570  13.735  14.889
62945W        W29354  22.612   3.963   1.315
62946W        W29355  39.271  17.641   2.320
62947W        W29356  26.560  41.901   3.388
62948W        W29357   9.192  23.467   3.190
62949W        W29358  25.382  12.001   2.671
62950W        W29359   2.795  25.694   0.905
62951W        W29360  17.611  36.877  12.051
62952W        W29361  10.722  44.338   1.239
62953W        W29362  10.105  28.430   2.339
62954W        W29363  29.510  10.381  13.874
62955W        W29364   4.946  21.011   0.403
62956W        W29365  40.390  17.706  13.571
62957W        W29366  32.522  19.642  11.194
62958W        W29367  28.098  35.331   2.367
62959W        W29368  27.515  32.859  11.334
62960W        W29369  23.258  38.903   1.372
62961W        W29370   9.400  42.507   4.595
62962W        W29371  15.225  28.171  14.774
62963W        W29372   8.853  44.131   1.887
62964W        W29373   6.207  28.964  10.605
62965W        W29374  43.478   9.381  11.536
62966W        W29375  44.556  16.394  14.502
62967W        W29376  14.311  31.078  10.524
62968W        W29377  16.082  41.380   5.060
62969W        W29378   7.750  15.198   0.009
62970W        W29379  41.912  11.038  10.440
62971W        W29380   8.911  29.620  10.467
62972W        W29381  14.406  25.332  10.353
62973W        W29382   4.991   2.305   0.486
62974W        W29383  37.624   2.860   2.871
62975W        W29384  17.085  28.456   2.434
62976W        W29385  21.309  36.523   1.202
62977W        W29386  39.113  36.571   0.318
62978W        W29387  18.623  38.642   1.017
62979W        W29388  19.467  12.399  12.451
62980W        W29389   2.900  26.524  12.149
62981W        W29390  25.634  23.950  11.590
62982W        W29391  25.077   0.231   2.267
62983W        W29392  39.564  26.069  12.129
62984W        W29393  28.421   6.181   4.208
62985W        W29394   8.847   8.369  13.499
62986W        W29395   9.749  26.149  13.524
62987W        W29396  14.664  32.024   2.221
62988W        W29397  35.969  33.340   0.854
62989W        W29398  25.493  21.102   4.537
62990W        W29399  27.057  10.696  11.996
62991W        W29400   4.441  41.394  10.657
62992W        W29401   8.690   3.670   1.316
62993W        W29402  36.010  11.664   3.190
62994W        W29403  18.152  22.143  13.332
62995W        W29404  41.057  11.690   3.632
62996W        W29405  44.324  25.076   5.115
62997W        W29406  43.414  17.337   4.589
62998W        W29407  24.623  39.482  11.343
62999W        W29408   7.670   4.187   3.707
63000W        W29409  34.350  42.229   3.646
63001W        W29410  42.531  22.561   2.765
63002W        W29411   0.469  28.579  10.797
63003W        W29412   3.639   6.774  14.530
63004W        W29413   6.136   2.035  12.942
63005W        W29414  17.556  17.351  10.709
63006W        W29415  43.316   4.138   4.482
63007W        W29416  38.004  18.501   2.205
63008W        W29417   7.665  35.814   2.614
63009W        W29418   1.325  21.711  14.836
63010W        W29419  15.743   7.159   2.793
63011W        W29420  43.201  43.181   1.375
63012W        W29421  19.260  11.302  14.387
63013W        W29422  35.648  34.528  11.915
63014W        W29423   4.240   9.149   2.251
63015W        W29424   7.652  35.947   3.541
63016W        W29425   9.718  18.539  11.691
63017W        W29426  29.019  22.488   1.900
63018W        W29427  32.572   2.208   3.768
63019W        W29428   5.765  37.402  14.392
63020W        W29429  38.868  36.754  13.285
63021W        W29430  29.581  12.404   3.809
63022W        W29431   1.311  20.001  12.549
63023W        W29432  33.180  13.205   0.359
63024W        W29433  27.550  17.507  10.651
63025W        W29434   3.512  19.290  14.954
63026W        W29435  43.245  43.282   2.331
63027W        W29436  32.640  17.126   2.411
63028W        W29437  12.284  40.877   1.435
63029W        W29438  32.820  30.677  11.184
63030W        W29439   6.700  32.011  11.537
63031W        W29440   1.708   2.248  12.048
63032W        W29441  33.654  18.576   4.168
63033W        W29442  17.202  28.550   9.919
63034W        W29443  12.838  16.355   3.717
63035W        W29444  10.217  16.120  11.548
63036W        W29445  43.232  16.700  12.500
63037W        W29446  18.848  37.124  13.071
63038W        W29447  25.555  37.978  12.595
63039W        W29448  13.658  14.929  12.297
63040W        W29449  33.994  12.228  10.424
63041W        W29450  24.108  13.236   2.864
63042W        W29451  20.379  14.252   4.512
63043W        W29452   5.773  28.103  14.237
63044W        W29453  25.922  25.992  14.462
63045W        W29454  26.921  11.594   4.094
63046W        W29455  10.540   2.481  13.296
63047W        W29456  24.019  20.335   2.160
63048W        W29457  44.331  20.536   4.720
63049W        W29458  36.479  24.425  11.092
63050W        W29459  17.293   2.802   2.408
63051W        W29460   5.033  14.152   1.278
63052W        W29461  29.341  19.474  10.722
63053W        W29462  37.628  32.808   2.545
63054W        W29463  12.624  39.511   4.572
63055W        W29464  13.161   9.172  13.024
63056W        W29465  22.263  12.183  13.563
63057W        W29466  24.995   4.350  14.533
63058W        W29467  44.493  44.862  14.893
63059W        W29468  24.784  14.082   1.294
63060W        W29469  13.860   3.984   2.125
63061W        W29470  23.685  40.076   4.096
63062W        W29471  34.527  29.731   4.128
63063W        W29472  29.107   0.558   2.934
63064W        W29473  18.643  28.594  11.937
63065W        W29474   6.193  11.915  12.992
63066W        W29475  34.656  17.813   1.422
63067W        W29476  12.623   9.557   1.209
63068W        W29477   3.688  12.406   1.828
63069W        W29478   1.509  21.556   2.817
63070W        W29479  36.820  22.594  14.549
63071W        W29480   8.984  25.777   3.214
63072W        W29481  21.524  38.781   1.833
63073W        W29482  33.458  11.778  12.421
63074W        W29483  39.133  36.041  10.039
63075W        W29484  28.181  39.410   2.172
63076W        W29485  27.977   7.784   4.469
63077W        W29486  12.652  35.909   4.546
63078W        W29487  18.795  25.523  11.977
63079W        W29488  14.222   0.374   4.645
63080W        W29489  23.162  29.249   0.400
63081W        W29490  28.676  39.759   3.147
63082W        W29491  18.820  38.139  13.892
63083W        W29492  21.807   2.535  13.154
63084W        W29493  37.449  34.450   1.939
63085W        W29494  29.851  38.548   2.983
63086W        W29495   2.952   3.792  13.907
63087W        W29496  25.736  22.098   1.868
63088W        W29497   4.329  22.401   3.794
63089W        W29498  10.303   4.221   1.325
63090W        W29499  44.386  35.398   5.080
63091W        W29500  14.276  42.612  14.856
63092W        W29501   0.368  41.278  10.642
63093W        W29502  44.751  39.759  11.202
63094W        W29503  37.646  30.522  10.729
63095W        W29504   2.357   1.687  12.291
63096W        W29505  27.649   6.838   9.813
63097W        W29506  43.936  11.620   0.481
63098W        W29507  23.814  28.536   1.135
63099W        W29508  41.549  22.660   3.687
63100W        W29509  10.941   7.274   3.577
63101W        W29510  37.700   5.721  13.574
63102W        W29511  32.006  32.988   0.720
63103W        W29512  21.347  14.817  13.832
63104W        W29513  14.774  38.898  12.323
63105W        W29514   0.490  17.811  13.529
63106W        W29515  16.547  21.259  12.013
63107W        W29516   6.489  21.993  13.572
63108W        W29517  20.826  15.087   0.423
63109W        W29518   4.328  23.623   3.563
63110W        W29519  32.764   1.051  11.253
63111W        W29520   7.858  23.293  14.994
63112W        W29521  36.476   2.359  11.121
63113W        W29522  10.374  26.237   2.861
63114W        W29523   8.818  35.460   2.059
63115W        W29524   4.749  24.538   3.303
63116W        W29525  31.004  43.097  14.856
63117W        W29526  16.193   8.893  14.946
63118W        W29527  32.049  21.712   3.078
63119W        W29528  14.101  13.722  14.429
63120W        W29529   6.262  25.515   2.433
63121W        W29530  16.593  42.819   3.031
63122W        W29531  25.664  16.619  13.901
63123W        W29532  38.938  13.768  11.135
63124W        W29533  33.794  44.819  11.514
63125W        W29534  43.223   3.833  13.084
63126W        W29535  27.569  44.074  12.664
63127W        W29536  11.646  31.957  12.569
63128W        W29537   7.499  35.377   4.548
63129W        W29538   8.275  18.363  14.911
63130W        W29539  12.832  34.632  11.081
63131W        W29540   1.483  17.519  14.385
63132W        W29541  13.094   9.663  12.929
63133W        W29542  44.510  15.839   4.797
63134W        W29543  32.432   7.915  13.343
63135W        W29544  37.134   1.510   2.759
63136W        W29545  44.282  24.611  11.093
63137W        W29546  16.698  13.677  11.529
63138W        W29547  38.692  19.276   2.343
63139W        W29548  42.578   1.349  13.423
63140W        W29549  13.296  27.289   3.133
63141W        W29550  16.156   9.556  13.915
63142W        W29551  11.143  13.439   4.262
63143W        W29552   9.868  30.016  14.843
63144W        W29553  34.114  42.664   4.170
63145W        W29554  36.645  20.069  13.235
63146W        W29555  20.513   7.287   4.448
63147W        W29556  24.028  29.969  14.716
63148W        W29557  41.245  33.913  14.376
63149W        W29558  42.797  35.407   1.026
63150W        W29559  18.348  18.778  13.491
63151W        W29560  44.282  40.705   3.635
63152W        W29561  41.552  36.843  11.376
63153W        W29562   9.048   8.320  10.750
63154W        W29563  11.736   0.692   2.284
63155W        W29564  26.456  11.201  14.912
63156W        W29565   8.335  44.998   1.052
63157W        W29566  29.661  39.823  12.442
63158W        W29567   7.836  35.875  13.841
63159W        W29568  17.308  18.090   0.941
63160W        W29569  16.317   0.707   4.593
63161W        W29570  14.886  24.127  12.978
63162W        W29571   2.998   5.480  13.510
63163W        W29572  28.183  32.959  12.929
63164W        W29573  10.627  10.756   3.699
63165W        W29574  16.027  30.573   1.742
63166W        W29575  11.837  20.530   2.802
63167W        W29576  18.252  21.635   2.105
63168W        W29577  11.313  28.351   1.999
63169W        W29578   1.289  44.685   0.292
63170W        W29579  16.277  37.312  13.582
63171W        W29580  12.749  32.495   4.971
63172W        W29581   0.894  20.628   1.202
63173W        W29582  13.193  20.614   2.008
63174W        W29583   0.913  39.424  13.948
63175W        W29584  11.189  27.856   4.183
63176W        W29585  15.856  15.821   4.580
63177W        W29586  28.072  21.065   4.593
63178W        W29587  29.679   6.588  14.780
63179W        W29588  12.080  25.334   0.589
63180W        W29589  20.661   5.782   0.773
63181W        W29590  23.209  36.009  14.433
63182W        W29591   4.435  31.913   2.376
63183W        W29592  36.105  17.016   2.518
63184W        W29593  44.826  22.181  10.707
63185W        W29594  40.385  11.938   1.153
63186W        W29595   0.002  18.883   2.408
63187W        W29596  43.048  41.048  10.591
63188W        W29597  10.148   6.865   4.900
63189W        W29598  17.497  42.436   0.771
63190W        W29599   9.739  17.533   4.700
63191W        W29600  27.023  15.172  11.612
63192W        W29601  25.759  34.859  13.909
63193W        W29602   3.244  39.088  13.300
63194W        W29603   6.162  15.363   2.844
63195W        W29604  30.772  34.150   1.477
63196W        W29605   8.373  28.878  13.566
63197W        W29606  42.843  10.358  12.642
63198W        W29607  41.346  24.417  13.727
63199W        W29608  31.797  21.960  10.854
63200W        W29609  20.045   4.424  12.563
63201W        W29610  21.467  18.974   0.501
63202W        W29611  10.925  42.893   1.658
63203W        W29612   3.514   1.350  13.909
63204W        W29613  25.459  42.868   0.397
63205W        W29614  19.742  40.111   1.018
63206W        W29615  13.542  21.732  13.582
63207W        W29616  42.560  18.861   0.638
63208W        W29617  19.722   6.257   2.242
63209W        W29618  43.277  17.234   0.930
63210W        W29619  16.298  26.344  12.332
63211W        W29620  44.880  29.975   1.816
63212W        W29621  35.161   6.439   4.990
63213W        W29622  31.056  11.344   3.982
63214W        W29623   4.892  18.360   2.081
63215W        W29624   2.343  37.189   3.372
63216W        W29625  35.349  29.628   2.704
63217W        W29626  34.673  43.076   2.793
63218W        W29627  28.386  23.806  14.816
63219W        W29628  41.044   9.861   2.301
63220W        W29629  22.287  23.475   4.627
63221W        W29630   9.478  33.499  11.986
63222W        W29631  35.871  39.348  13.960
63223W        W29632  23.243  24.220   0.459
63224W        W29633  38.809   8.367   1.854
63225W        W29634  18.557  25.954  13.375
63226W        W29635   5.228  44.056  14.032
63227W        W29636  32.624   3.447  11.190
63228W        W29637  37.290  16.177  11.117
63229W        W29638  27.103  40.465   0.360
63230W        W29639  18.279  21.071  12.039
63231W        W29640  36.912  36.665   3.414
63232W        W29641   0.377  19.273   3.846
63233W        W29642  17.617  44.689  14.945
63234W        W29643  42.809  20.293   2.907
63235W        W29644   7.874  25.671  13.148
63236W        W29645   4.491  29.278   2.280
63237W        W29646  11.617  18.643   0.242
63238W        W29647  16.802  22.002  13.936
63239W        W29648  31.689  20.767  14.243
63240W        W29649  12.187  30.678  13.324
63241W        W29650  12.789   5.295   4.766
63242W        W29651   9.778  44.160   4.203
63243W        W29652  11.260   4.153  12.130
63244W        W29653   3.673  26.741   1.264
63245W        W29654  13.636  41.502   3.813
63246W        W29655   1.734   7.633   4.208
63247W        W29656  42.857  30.651  12.600
63248W        W29657  26.128  13.320  10.678
63249W        W29658  29.675  30.503  13.445
63250W        W29659   7.581  31.836   3.564
63251W        W29660   6.454  18.284  12.014
63252W        W29661  24.647  43.487   4.205
63253W        W29662  15.351  34.900   1.701
63254W        W29663  24.133  20.736  13.896
63255W        W29664  39.563  25.799   1.811
63256W        W29665  27.858  34.289  14.301
63257W        W29666  40.889  41.467  13.958
63258W        W29667   1.544   2.186  12.844
63259W        W29668  41.082  23.441   0.938
63260W        W29669  42.521  34.931  13.535
63261W        W29670  24.701  12.149   4.611
63262W        W29671  24.162   9.615   2.746
63263W        W29672  19.105  16.579   3.143
63264W        W29673  19.765   5.908  11.310
63265W        W29674  14.911  44.883   4.836
63266W        W29675  32.498  34.395  13.404
63267W        W29676  15.135  13.473   3.196
63268W        W29677   8.845  25.165   0.284
63269W        W29678  14.404  25.534  14.399
63270W        W29679  13.646  15.108   0.441
63271W        W29680  12.854   3.445   0.355
63272W        W29681  11.050  43.232  14.952
63273W        W29682  36.656  22.438  11.017
63274W        W29683  15.755   4.518   0.303
63275W        W29684  13.059  23.372  13.410
63276W        W29685  28.159   1.051   5.095
63277W        W29686  33.369  28.342  14.985
63278W        W29687  32.457  44.965   2.601
63279W        W29688   2.953  35.906   0.442
63280W        W29689  28.239  10.927  10.583
63281W        W29690   3.943   3.147  13.082
63282W        W29691  20.587  23.926  11.044
63283W        W29692  11.777  20.615   3.301
63284W        W29693  15.799   4.638   2.750
63285W        W29694   8.797  14.593   3.750
63286W        W29695  28.926  14.709  13.971
63287W        W29696  29.763   5.469   1.342
63288W        W29697   7.350  11.946   3.953
63289W        W29698   8.730  39.606  11.110
63290W        W29699  31.442   5.399  14.590
63291W        W29700  36.533  30.486   0.846
63292W        W29701  39.108  39.430   0.155
63293W        W29702  38.525  37.980  12.173
63294W        W29703  23.781  29.648  12.484
63295W        W29704  10.572  19.256   2.613
63296W        W29705  12.785  20.015  10.401
63297W        W29706  38.470  12.396   3.352
63298W        W29707   9.588  41.251   2.153
63299W        W29708  11.823   5.312  10.357
63300W        W29709  32.651  20.092  10.537
63301W        W29710  41.903  14.156   2.112
63302W        W29711  41.419   7.121   1.792
63303W        W29712  19.151   2.813   1.478
63304W        W29713  42.201  40.205  13.243
63305W        W29714  14.227  41.768   2.368
63306W        W29715  16.358  25.381   3.200
63307W        W29716  36.983  31.601   1.525
63308W        W29717  44.561  31.957  10.586
63309W        W29718  15.612  42.474  14.907
63310W        W29719  35.818  29.096  14.364
63311W        W29720  21.673  43.080  11.185
63312W        W29721  39.548  25.212   4.108
63313W        W29722  36.917  37.369   4.169
63314W        W29723  44.078  15.171  13.923
63315W        W29724  27.939  31.619  14.352
63316W        W29725  42.418  36.415  12.340
63317W        W29726  41.331  27.516  13.563
63318W        W29727  29.165  36.913  12.481
63319W        W29728   8.882  40.786  10.602
63320W        W29729   0.561   1.021  14.245
63321W        W29730  15.167  31.661  12.984
63322W        W29731  20.834  33.222   0.957
63323W        W29732  28.235  38.750  13.357
63324W        W29733  36.340  25.419  13.538
63325W        W29734  43.499  33.789   0.406
63326W        W29735  22.508  43.392   1.408
63327W        W29736  34.018  35.053  14.257
63328W        W29737  14.383   1.873   5.047
63329W        W29738  31.306  23.811   5.014
63330W        W29739  16.628  26.217  14.516
63331W        W29740   7.729  30.875   0.948
63332W        W29741  12.744  28.277  12.049
63333W        W29742  41.508   9.950   0.265
63334W        W29743  41.934  19.955   1.388
63335W        W29744  21.240  11.611  12.661
63336W        W29745  26.596  12.237   3.373
63337W        W29746   0.273  19.113   2.823
63338W        W29747  41.986  29.529   4.794
63339W        W29748  16.602  10.262   1.918
63340W        W29749  21.988   1.410   0.023
63341W        W29750  40.541  30.682  12.646
63342W        W29751  33.584  16.877   0.068
63343W        W29752  34.319  13.762  11.880
63344W        W29753  35.022  24.231  12.571
63345W        W29754  31.904  43.703   0.905
63346W        W29755  34.852  28.235   4.526
63347W        W29756  36.952  18.050   2.345
63348W        W29757  22.393  44.848   4.453
63349W        W29758  43.750  40.904  11.174
63350W        W29759  27.990  19.065   2.913
63351W        W29760   1.472  31.292  12.851
63352W        W29761   5.443  40.281   4.216
63353W        W29762  10.047  24.110  11.367
63354W        W29763  18.573  43.463   1.718
63355W        W29764  27.551   3.786  10.392
63356W        W29765  39.839  11.185  10.280
63357W        W29766  10.824   0.548  13.266
63358W        W29767  18.796  31.473  12.522
63359W        W29768  32.013  39.899  14.440
63360W        W29769   9.382  33.497  12.968
63361W        W29770  13.812  33.157  11.081
63362W        W29771   7.428  12.595   0.794
63363W        W29772  17.591  27.437   0.389
63364W        W29773  32.431  13.885  13.698
63365W        W29774  35.851  42.179   3.357
63366W        W29775  23.919  15.537  13.501
63367W        W29776  19.975  17.067   3.141
63368W        W29777  25.504   5.427   1.750
63369W        W29778  10.942  31.003  11.606
63370W        W29779  13.097  18.215   4.194
63371W        W29780  10.559   8.226   3.666
63372W        W29781  11.895  30.817  10.774
63373W        W29782   9.313  20.150   1.508
63374W        W29783  35.019  38.122  13.835
63375W        W29784  31.507  13.441  14.340
63376W        W29785   0.006   3.347  12.057
63377W        W29786   7.398  11.696  10.687
63378W        W29787   3.291  32.624   4.651
63379W        W29788   4.796  18.746  13.024
63380W        W29789  32.166   3.421  12.048
63381W        W29790  15.358  37.641   4.008
63382W        W29791  37.146  21.678   3.155
63383W        W29792  35.657   4.198  13.518
63384W        W29793  11.239  24.946  13.645
63385W        W29794  36.498  19.175   3.652
63386W        W29795  44.230  12.433  13.081
63387W        W29796   2.493  23.030  14.106
63388W        W29797  15.284  25.137   0.978
63389W        W29798  28.712  19.761  12.380
63390W        W29799  38.087  27.779   1.603
63391W        W29800  30.481  20.545  11.070
63392W        W29801  26.428  10.315   1.458
63393W        W29802  28.162   1.572  14.570
63394W        W29803  12.612  15.780  12.538
63395W        W29804  40.528  26.553   2.323
63396W        W29805  24.142   6.226   2.314
63397W        W29806  29.443   6.272   4.200
63398W        W29807   2.316  44.768   1.900
63399W        W29808  40.548  22.512   0.090
63400W        W29809  17.701  15.653   3.591
63401W        W29810   8.919  18.226  13.576
63402W        W29811  27.557  23.092   0.276
63403W        W29812  35.156  11.591   4.468
63404W        W29813  42.555   8.848  11.996
63405W        W29814   0.199  25.182   3.229
63406W        W29815  16.118   5.306  14.121
63407W        W29816  43.729  28.597   0.369
63408W        W29817  44.633  12.247   1.719
63409W        W29818   2.835  32.378   2.340
63410W        W29819  41.527   1.233   1.734
63411W        W29820  11.307  32.602   3.293
63412W        W29821  16.677  31.704   3.654
63413W        W29822   8.351  33.871  14.317
63414W        W29823  10.793  37.322   2.311
63415W        W29824  41.042   9.266   0.166
63416W        W29825  13.315  11.730   3.225
63417W        W29826  18.567  21.129  11.439
63418W        W29827   0.774  36.389  10.684
63419W        W29828  19.162   2.279  12.626
63420W        W29829   2.829  30.677  10.744
63421W        W29830  14.712  16.843  10.977
63422W        W29831  25.715   1.375  13.460
63423W        W29832  12.230  36.679   1.233
63424W        W29833  16.304  15.800  12.557
63425W        W29834  41.500   0.039  12.100
63426W        W29835  19.876   7.899  14.914
63427W        W29836  10.286  15.805   9.947
63428W        W29837  29.247  32.401  12.470
63429W        W29838  25.217  21.845  12.992
63430W        W29839   4.390  15.104  12.830
63431W        W29840   2.318  13.355  13.422
63432W        W29841   3.920  43.414  11.688
63433W        W29842  39.286  21.259   1.901
63434W        W29843  15.176   8.796   1.742
63435W        W29844  35.499  25.966  11.391
63436W        W29845  31.669  13.716   3.131
63437W        W29846  10.067  29.612   2.047
63438W        W29847  18.670   1.348   0.125
63439W        W29848  36.177  36.061  12.065
63440W        W29849  37.726   7.860  13.476
63441W        W29850  34.775  33.898  13.163
63442W        W29851  36.300   0.414   1.492
63443W        W29852  12.827  27.542   1.274
63444W        W29853  18.570  34.634  13.437
63445W        W29854   4.865  27.417   0.136
63446W        W29855  10.775   0.750   1.336
63447W        W29856  31.530  40.761   2.655
63448W        W29857  37.885  22.783  12.931
63449W        W29858   8.801  34.561  14.242
63450W        W29859  40.890  12.341   1.824
63451W        W29860   3.706  39.195   0.250
63452W        W29861   1.896  27.423  13.317
63453W        W29862  32.074  31.783  13.849
63454W        W29863  37.018   0.460   4.953
63455W        W29864  37.398  33.816   1.038
63456W        W29865  18.270  34.045  13.026
63457W        W29866  34.507  19.583   3.190
63458W        W29867  30.408  23.220   2.861
63459W        W29868  44.427  29.102  13.098
63460W        W29869  17.572  11.892   4.583
63461W        W29870  39.571  41.967   0.014
63462W        W29871  44.965  11.802  13.459
63463W        W29872  29.274  22.490  13.124
63464W        W29873  31.998  37.817  13.884
63465W        W29874  43.236  37.395  14.380
63466W        W29875   6.151   8.367  10.939
63467W        W29876  39.882  23.196  13.419
63468W        W29877  20.273   3.664  13.524
63469W        W29878  38.343  23.367  13.380
63470W        W29879  15.125  13.267   0.167
63471W        W29880  33.450  19.790  12.903
63472W        W29881  26.641  35.606  12.107
63473W        W29882  13.224  15.269   0.720
63474W        W29883  40.841  19.566  10.775
63475W        W29884  15.609  44.419   0.416
63476W        W29885  44.455  40.995  14.720
63477W        W29886   5.050  24.509   0.219
63478W        W29887  24.008  44.304   0.194
63479W        W29888  20.722  37.600   2.174
63480W        W29889  30.235   7.341  13.725
63481W        W29890   3.886  12.805   3.459
63482W        W29891  19.318  41.642   3.659
63483W        W29892  41.933  17.277  12.402
63484W        W29893  17.308  19.146  13.930
63485W        W29894  33.558   6.758   0.323
63486W        W29895  24.796   3.091   4.592
63487W        W29896  18.084  42.986  10.369
63488W        W29897  21.966  15.838   4.268
63489W        W29898  36.737  22.158   3.820
63490W        W29899  31.937  41.439  11.160
63491W        W29900   9.222  12.631   2.913
63492W        W29901   2.793   9.434   0.951
63493W        W29902  13.867  30.050  10.625
63494W        W29903  34.676  37.013  12.470
63495W        W29904  13.630  14.489  11.206
63496W        W29905  31.653  27.977   2.352
63497W        W29906  32.695  31.988   5.499
63498W        W29907  13.266  42.571   0.921
63499W        W29908  17.879  37.839   3.404
63500W        W29909  20.999  14.245  12.816
63501W        W29910  25.177  44.826  13.953
63502W        W29911  34.081  32.099   3.670
63503W        W29912  15.747   9.133  14.880
63504W        W29913  12.313  42.733  11.802
63505W        W29914   5.778  22.015  13.077
63506W        W29915  23.721  28.627  14.329
63507W        W29916  10.600   9.601  14.288
63508W        W29917   1.938  33.396  13.504
63509W        W29918  44.906   0.525  11.720
63510W        W29919  23.584  29.447  11.676
63511W        W29920  31.657   6.730  14.017
63512W        W29921   0.195  37.574   0.955
63513W        W29922   2.348  33.273  11.197
63514W        W29923  18.684  37.278  14.890
63515W        W29924  22.952  40.523   2.431
63516W        W29925  33.044  22.183  12.775
63517W        W29926  13.693  43.990  13.877
63518W        W29927  40.640  25.945   3.077
63519W        W29928  40.816  40.716   4.575
63520W        W29929  15.652  33.103   4.141
63521W        W29930  32.397  41.497   1.237
63522W        W29931  36.373   2.217   1.316
63523W        W29932  44.864  21.520  12.060
63524W        W29933  30.360  35.388  14.307
63525W        W29934   7.264  31.046   1.882
63526W        W29935  13.251  38.773   0.032
63527W        W29936  40.334  29.094   2.739
63528W        W29937   3.799   5.456  12.565
63529W        W29938  13.789  33.404  12.885
63530W        W29939  20.273  31.911  11.640
63531W        W29940  26.685   2.324   3.804
63532W        W29941  14.856  28.985  11.595
63533W        W29942   5.690  13.768   1.385
63534W        W29943   4.717  14.531   1.046
63535W        W29944  37.965  43.472   0.972
63536W        W29945  14.438  22.916   3.279
63537W        W29946  14.242  21.257   2.760
63538W        W29947  12.297  44.423   1.168
63539W        W29948   9.133  20.241   3.292
63540W        W29949  27.766   0.940  11.146
63541W        W29950  41.539   6.296   2.394
63542W        W29951  21.268  29.965   1.817
63543W        W29952  29.324   1.468   4.192
63544W        W29953  36.715   5.766  14.957
63545W        W29954  11.787  10.091   1.405
63546W        W29955   8.707   4.721   1.425
63547W        W29956   0.476  20.020  14.576
63548W        W29957   7.318  28.890  12.279
63549W        W29958  29.244  27.426  12.359
63550W        W29959  41.329  33.373  14.876
63551W        W29960  17.391   8.615  12.532
63552W        W29961   3.682  42.945   3.787
63553W        W29962   3.246  43.609   0.222
63554W        W29963   0.630  11.176   2.359
63555W        W29964  16.952  22.850  10.312
63556W        W29965  12.202  36.407  12.933
63557W        W29966  36.013  36.523   1.159
63558W        W29967  16.893  28.757   1.307
63559W        W29968  20.732  37.894  11.440
63560W        W29969  35.556  19.121  13.699
63561W        W29970  33.426  39.007  11.550
63562W        W29971  32.029  19.594  12.769
63563W        W29972  35.107  16.635  11.070
63564W        W29973  33.887  37.278  10.783
63565W        W29974  42.872  15.138  12.139
63566W        W29975  31.865  31.925   1.842
63567W        W29976   8.799  28.951  11.082
63568W        W29977  20.923  41.637  14.776
63569W        W29978  39.500  28.054   1.012
63570W        W29979  42.280  35.379   4.631
63571W        W29980  40.685  42.324  13.795
63572W        W29981  43.880  34.200   2.893
63573W        W29982  41.397  33.621  11.152
63574W        W29983  38.339   8.557  12.496
63575W        W29984  13.941  20.672  14.513
63576W        W29985   1.876  16.813   0.221
63577W        W29986  35.246  40.035   0.351
63578W        W29987   4.283   8.188  10.950
63579W        W29988   1.947   7.741   1.237
63580W        W29989  13.665  17.727  10.634
63581W        W29990  30.254  39.485  14.391
63582W        W29991  35.471  41.967  13.439
63583W        W29992   2.396  33.624  12.537
63584W        W29993   1.962   4.422   2.614
63585W        W29994  10.863  17.220   4.533
63586W        W29995  14.074  40.151  14.897
63587W        W29996  36.504  11.085   4.339
63588W        W29997  21.718  41.855  13.314
63589W        W29998   9.360  43.035  10.063
63590W        W29999  35.463  35.126  12.416
63591W        W30000  33.995  38.413   0.758
63592W        W30001   7.793  30.365   0.969
63593W        W30002  22.396  18.793  13.577
63594W        W30003  17.858   9.780  13.076
63595W        W30004   8.488  23.835   3.873
63596W        W30005   8.314  28.868  12.626
63597W        W30006   3.993  14.151  13.070
63598W        W30007  28.960  29.460   0.021
63599W        W30008  23.507  39.362   2.398
63600W        W30009  13.348  39.858   4.325
63601W        W30010  17.652  26.652  12.353
63602W        W30011  28.655  23.771  14.342
63603W        W30012  42.963  23.112  10.735
63604W        W30013  28.607  23.172   2.827
63605W        W30014  12.323  26.987  14.237
63606W        W30015   3.778  20.286   4.197
63607W        W30016  42.056   4.407   4.097
63608W        W30017   4.002  14.977   3.464
63609W        W30018  30.956  40.196  12.586
63610W        W30019  11.695  23.508  14.431
63611W        W30020  26.463  11.362  13.934
63612W        W30021   2.043  13.195   0.867
63613W        W30022  33.030   3.579   0.342
63614W        W30023   4.280   2.058   0.267
63615W        W30024   6.490  44.346   1.871
63616W        W30025  41.696  35.966  10.174
63617W        W30026  40.281  26.045   3.414
63618W        W30027   4.482  31.820   3.666
63619W        W30028  33.036  10.243   4.504
63620W        W30029  40.343  22.931  13.438
63621W        W30030  42.933  25.716   3.089
63622W        W30031  38.463  13.300  14.872
63623W        W30032  28.179  35.706  13.594
63624W        W30033  27.451  16.431  10.676
63625W        W30034  23.184   3.826  14.342
63626W        W30035  35.782  15.145  11.686
63627W        W30036  33.179  36.555  10.963
63628W        W30037  18.107  15.290  13.390
63629W        W30038   5.736  21.021  12.050
63630W        W30039  37.505  17.118   0.550
63631W        W30040  31.428  37.364  12.383
63632W        W30041   5.336   7.945  12.977
63633W        W30042  25.709  18.014  11.196
63634W        W30043  15.310  27.310   1.753
63635W        W30044  34.879  20.876  14.275
63636W        W30045  26.515  38.316   4.953
63637W        W30046  37.567  37.211  11.752
63638W        W30047  34.274  36.644   2.002
63639W        W30048  36.408   0.124  13.838
63640W        W30049  23.949   2.191  13.568
63641W        W30050  13.865  34.967  11.257
63642W        W30051   5.353  21.024   3.698
63643W        W30052   4.049   0.275   1.273
63644W        W30053  26.146  20.297  10.613
63645W        W30054  24.641  26.455   2.037
63646W        W30055  37.994  37.627   3.299
63647W        W30056  13.739   9.726   3.580
63648W        W30057  14.159  38.971   3.323
63649W        W30058   8.972  31.869  10.194
63650W        W30059  13.603  37.377   0.123
63651W        W30060  14.296   1.266  14.474
63652W        W30061  44.413  11.144  11.321
63653W        W30062  10.305  20.176   4.989
63654W        W30063  44.082   6.483  11.132
63655W        W30064  39.020  36.533   9.893
63656W        W30065   2.288   6.152   5.015
63657W        W30066  18.484  25.919  11.886
63658W        W30067  15.174  16.196   0.788
63659W        W30068  23.481  12.294   2.269
63660W        W30069  42.070  38.319  11.662
63661W        W30070   4.026  31.988   1.339
63662W        W30071  34.275  22.558  10.799
63663W        W30072  36.725  43.292  10.776
63664W        W30073  31.402   3.883   1.276
63665W        W30074  17.983  31.362   1.328
63666W        W30075  27.056  35.218   3.170
63667W        W30076  35.950  31.988  12.881
63668W        W30077  21.278  41.374  14.320
63669W        W30078  15.498   3.347   2.646
63670W        W30079  35.523  11.253   4.636
63671W        W30080  30.503  38.130  14.517
63672W        W30081  33.616  19.421   4.718
63673W        W30082  31.399  21.241   3.650
63674W        W30083  16.549  23.117   4.140
63675W        W30084  36.868  27.391   1.225
63676W        W30085   2.449  40.083   4.517
63677W        W30086  42.622  40.956  13.878
63678W        W30087  28.843  22.718   0.807
63679W        W30088  17.607  24.599   3.069
63680W        W30089  24.965  11.773  13.209
63681W        W30090  34.843  15.806  14.914
63682W        W30091  30.005   5.492  11.622
63683W        W30092  28.433   5.140  11.120
63684W        W30093   4.808  36.329   2.042
63685W        W30094   2.899   0.785  14.370
63686W        W30095  17.193  34.830  13.693
63687W        W30096  19.518  10.928   2.914
63688W        W30097  37.590  11.062  12.117
63689W        W30098  20.411  41.699  14.915
63690W        W30099   3.317   2.244   1.946
63691W        W30100  39.837  23.537  13.870
63692W        W30101   7.881  42.311  14.802
63693W        W30102  26.545   2.714   2.050
63694W        W30103  41.858  35.468  11.975
63695W        W30104  34.900  42.267  12.472
63696W        W30105  11.318  14.241   4.962
63697W        W30106  13.621  30.132  12.388
63698W        W30107  10.159   3.965   2.747
63699W        W30108  25.670  35.101  11.443
63700W        W30109   1.807  39.653  14.132
63701W        W30110  27.662  41.995  14.368
63702W        W30111  36.456  12.748  11.109
63703W        W30112  38.937  28.021  10.687
63704W        W30113  38.262  35.610  12.441
63705W        W30114  16.730  39.959   2.240
63706W        W30115  31.005   4.896   2.151
63707W        W30116   9.910  44.586  11.974
63708W        W30117   2.904  13.618  14.811
63709W        W30118  41.595  21.082   4.881
63710W        W30119  27.774  33.431  13.783
63711W        W30120  29.015  44.522   2.773
63712W        W30121  44.610  22.661  12.740
63713W        W30122   0.048  11.027   2.329
63714W        W30123  15.928  34.885   2.692
63715W        W30124  34.923  36.228   3.679
63716W        W30125   0.955   9.317   1.318
63717W        W30126   1.576  11.589  10.146
63718W        W30127  31.475  20.080   0.939
63719W        W30128  19.784  26.278   4.183
63720W        W30129  22.698  30.938  11.417
63721W        W30130   2.712   9.404   1.490
63722W        W30131   2.455  14.126  14.111
63723W        W30132  36.575  36.073  11.510
63724W        W30133  10.309   2.805   0.193
63725W        W30134  27.596  20.169  14.342
63726W        W30135  12.365  42.833   4.996
63727W        W30136  11.476  35.061   2.666
63728W        W30137  14.717  21.372   3.676
63729W        W30138  11.808   9.383  13.948
63730W        W30139  20.738  29.513  13.321
63731W        W30140  11.689  12.894  14.509
63732W        W30141  43.160  33.018   0.342
63733W        W30142   8.552  31.410  11.955
63734W        W30143  17.701  44.412   1.448
63735W        W30144   5.906  22.774  13.344
63736W        W30145  33.746   6.032   1.212
63737W        W30146  34.512   1.067   3.692
63738W        W30147  32.676   1.371   4.823
63739W        W30148  15.643   2.691  13.414
63740W        W30149  35.787  25.885  12.161
63741W        W30150  27.074  12.148   3.549
63742W        W30151  30.614   7.760   4.592
63743W        W30152  37.538   4.684   4.147
63744W        W30153  38.768  41.839   1.931
63745W        W30154  10.921  34.914  11.535
63746W        W30155  36.385  24.203  14.902
63747W        W30156   6.609   1.208   2.360
63748W        W30157  11.200   5.018   5.028
63749W        W30158  15.306  26.004   0.561
63750W        W30159  31.481  38.050   0.355
63751W        W30160  43.006  37.983  10.997
63752W        W30161   6.203  27.917  12.505
63753W        W30162  42.493   2.508  14.449
63754W        W30163  38.406  43.185   3.580
63755W        W30164  16.516  28.563   3.172
63756W        W30165  39.579  12.481   3.657
63757W        W30166   3.745  24.087  13.263
63758W        W30167  29.884   0.951  12.955
63759W        W30168   4.007   9.695   4.585
63760W        W30169   6.335  38.108   4.204
63761W        W30170  30.584  38.472  11.617
63762W        W30171  38.139  20.596   3.190
63763W        W30172  14.518  15.654  13.022
63764W        W30173  44.760   6.984   3.592
63765W        W30174  44.699  27.117   0.722
63766W        W30175  12.228  18.986  12.181
63767W        W30176   5.850   8.362  12.336
63768W        W30177  25.232  13.217   4.241
63769W        W30178  39.815  27.905   1.977
63770W        W30179  44.692  12.656  10.591
63771W        W30180  27.506   1.900   1.712
63772W        W30181   4.451  15.214   0.696
63773W        W30182  14.685  36.546  12.815
63774W        W30183  38.453  36.026  14.839
63775W        W30184  30.954  44.854  14.861
63776W        W30185  23.586  18.536  11.513
63777W        W30186  14.046  23.077   0.795
63778W        W30187  34.784  16.232   0.723
63779W        W30188   6.154  19.360  14.981
63780W        W30189   5.889  26.628  12.385
63781W        W30190  38.383  18.882   2.197
63782W        W30191  38.590  28.226  14.445
63783W        W30192  33.878  37.222   5.036
63784W        W30193  17.529  28.483   2.941
63785W        W30194  31.233  35.898  10.225
63786W        W30195  19.647  15.678   4.440
63787W        W30196  27.676  21.514  13.078
63788W        W30197  43.995  42.065   1.500
63789W        W30198  16.555   6.283  11.875
63790W        W30199  27.946   7.130  11.473
63791W        W30200  21.266  42.122   2.951
63792W        W30201  16.314  42.604   2.084
63793W        W30202   4.125  26.595   4.118
63794W        W30203  36.658  38.783   5.157
63795W        W30204  25.645  38.995   4.112
63796W        W30205  22.998  39.069   3.815
63797W        W30206  42.635  43.079   3.708
63798W        W30207  19.663  33.466   1.036
63799W        W30208  34.167  11.715   2.740
63800W        W30209  36.363  11.365  10.719
63801W        W30210  11.401  32.053  12.027
63802W        W30211  14.742  31.420  14.134
63803W        W30212  27.692   7.865  12.056
63804W        W30213  15.166  25.800   1.868
63805W        W30214  42.632   1.861  14.922
63806W        W30215  35.003  19.582  13.169
63807W        W30216  23.426  29.436  12.974
63808W        W30217  33.410  27.073  12.821
63809W        W30218  33.923  44.568   0.982
63810W        W30219   4.151  27.942   4.055
63811W        W30220  11.637  38.530   0.994
63812W        W30221  43.802   4.451  14.949
63813W        W30222  34.606   6.240   4.055
63814W        W30223  31.864  23.804   3.165
63815W        W30224  31.506  30.623  14.088
63816W        W30225  20.399  10.609   0.464
63817W        W30226  42.842  27.011  10.794
63818W        W30227  10.376  30.449  13.562
63819W        W30228   7.147  35.998   3.678
63820W        W30229  42.044  29.038   3.176
63821W        W30230  15.850  44.866   4.364
63822W        W30231  10.259  12.501   2.752
63823W        W30232  30.659  26.706   3.714
63824W        W30233  20.247   7.372  11.214
63825W        W30234  12.578  21.767   2.804
63826W        W30235  15.434  13.027   2.755
63827W        W30236  37.183  10.629   2.045
63828W        W30237  14.805  26.196  13.903
63829W        W30238  28.032  33.185   2.622
63830W        W30239  43.040  39.868   0.903
63831W        W30240  33.307   4.940   4.250
63832W        W30241  13.411  12.422  14.996
63833W        W30242  21.997  41.591  11.158
63834W        W30243  32.875  38.105  12.182
63835W        W30244  30.013   8.068   3.106
63836W        W30245  37.965  10.350  11.620
63837W        W30246  27.903   1.794   2.740
63838W        W30247  23.174  20.417   1.858
63839W        W30248  37.908  29.031   4.740
63840W        W30249  17.652   2.259   0.841
63841W        W30250  23.104  21.911   5.329
63842W        W30251   3.598   2.218   2.385
63843W        W30252   4.965   4.127   3.709
63844W        W30253  30.598  33.712   4.868
63845W        W30254  12.283  11.914   1.991
63846W        W30255  33.024  11.293   4.557
63847W        W30256  19.172  30.824   4.643
63848W        W30257   4.651  12.382   3.870
63849W        W30258   2.030  34.103   4.143
63850W        W30259   1.844  19.582   1.200
63851W        W30260  44.765   3.428  11.578
63852W        W30261   7.258  28.435   1.167
63853W        W30262  11.915   6.845   3.653
63854W        W30263  24.118  37.138  11.511
63855W        W30264   4.455  15.298  11.327
63856W        W30265  37.810  26.513   0.129
63857W        W30266  32.881  36.963   3.733
63858W        W30267  14.536  27.076  11.564
63859W        W30268   6.135  39.030  13.396
63860W        W30269  10.350  26.229  14.955
63861W        W30270  38.580  15.123  11.072
63862W        W30271  28.031  12.397  13.493
63863W        W30272  43.470  29.474   0.428
63864W        W30273  20.334  22.587  11.541
63865W        W30274   0.930  38.453  10.984
63866W        W30275  19.918  25.576   1.502
63867W        W30276  41.930  18.929  13.310
63868W        W30277  21.116  24.792  10.264
63869W        W30278   2.848  39.721  12.944
63870W        W30279   3.441  27.425  14.815
63871W        W30280  39.411  39.145   4.583
63872W        W30281   6.473  29.504  14.438
63873W        W30282  31.032  20.868  10.408
63874W        W30283  43.840  29.074  14.403
63875W        W30284  24.717   1.484   2.029
63876W        W30285   7.943  17.500  14.786
63877W        W30286  40.686  24.527  14.928
63878W        W30287  34.978  15.525   0.353
63879W        W30288   0.750  28.763   0.377
63880W        W30289  43.415  30.142   4.790
63881W        W30290  11.444  41.494  14.051
63882W        W30291  16.292  34.208   3.746
63883W        W30292  36.810  37.360  14.286
63884W        W30293  27.221  27.470  14.295
63885W        W30294  15.482  29.347   0.016
63886W        W30295  13.798   7.951   3.127
63887W        W30296  23.597  43.495  14.202
63888W        W30297  22.448  11.186   0.546
63889W        W30298  16.784   2.782   0.925
63890W        W30299  40.450   0.737  14.080
63891W        W30300  18.625  35.649  11.689
63892W        W30301   2.849   1.413  10.926
63893W        W30302  22.011  27.580  14.002
63894W        W30303  19.621   7.260   0.804
63895W        W30304  37.523  30.394   4.820
63896W        W30305   5.726  28.981   3.401
63897W        W30306  36.617  40.968   3.912
63898W        W30307  12.298  44.544   2.725
63899W        W30308  34.811  29.033   2.070
63900W        W30309  17.375  19.793  13.310
63901W        W30310  28.025  29.141  11.342
63902W        W30311  41.405  36.656  13.936
63903W        W30312  30.346  25.619  13.115
63904W        W30313  14.284  29.890  14.945
63905W        W30314  44.300   8.075   3.224
63906W        W30315  19.891  39.072   4.127
63907W        W30316  12.339  37.695  13.077
63908W        W30317   1.966  34.654   4.049
63909W        W30318   3.382  17.117   1.344
63910W        W30319   4.925  22.538  10.548
63911W        W30320  32.462  37.419  14.640
63912W        W30321   6.165   0.370   2.763
63913W        W30322  33.077  10.397  12.080
63914W        W30323   8.209  21.808   0.461
63915W        W30324  34.936   2.795   1.324
63916W        W30325  21.211  25.834  12.934
63917W        W30326   5.227   1.676  12.793
63918W        W30327  41.433  29.111   1.727
63919W        W30328   0.678  23.424   2.637
63920W        W30329  13.178  12.127   0.384
63921W        W30330  41.560  31.175   4.095
63922W        W30331   2.237   6.742  10.626
63923W        W30332   1.973  11.263  11.195
63924W        W30333  24.624  37.120  10.441
63925W        W30334   6.825   8.658  14.056
63926W        W30335  13.647  28.094  14.894
63927W        W30336  34.028  21.980  14.314
63928W        W30337  35.371  32.029  14.972
63929W        W30338  41.588  27.419   0.796
63930W        W30339  23.556  22.729   0.779
63931W        W30340  36.692  37.021   1.882
63932W        W30341  37.890  12.478  14.904
63933W        W30342  10.618  40.829  14.902
63934W        W30343   9.353  26.544   3.617
63935W        W30344  38.966  19.947   1.392
63936W        W30345  44.372  29.623   4.563
63937W        W30346  41.482  17.523   1.324
63938W        W30347  42.902   6.146  11.617
63939W        W30348  16.696  44.303  12.180
63940W        W30349  37.073  11.312  12.482
63941W        W30350   0.414  25.939   3.692
63942W        W30351  19.607   3.626  10.490
63943W        W30352  41.539   4.377   4.137
63944W        W30353  37.944  40.125   0.490
63945W        W30354  28.453  16.758   1.814
63946W        W30355  36.124  10.860   0.969
63947W        W30356  42.183   9.365  14.376
63948W        W30357  20.726  18.290  13.970
63949W        W30358   0.949  28.336  10.750
63950W        W30359  14.286  43.677   2.657
63951W        W30360  17.562  30.125   2.642
63952W        W30361   1.491  22.311   1.234
63953W        W30362   9.130  33.560   2.564
63954W        W30363   6.629   8.125  14.706
63955W        W30364  30.114  19.920   4.253
63956W        W30365  42.255  39.379   0.887
63957W        W30366  41.418   6.675   2.036
63958W        W30367  41.810  18.652  10.777
63959W        W30368  20.249  23.460  11.622
63960W        W30369   0.205  15.913   0.723
63961W        W30370   7.623  16.315   2.863
63962W        W30371  35.639   3.338  12.949
63963W        W30372  32.514  15.266  14.940
63964W        W30373  43.940  16.591   1.960
63965W        W30374  14.303  31.180  11.022
63966W        W30375  44.471  34.663   1.743
63967W        W30376  13.823  44.229   1.718
63968W        W30377  15.272  10.350  11.318
63969W        W30378  29.935  21.166   3.643
63970W        W30379  29.897  22.113  11.167
63971W        W30380  14.660   4.096   1.867
63972W        W30381  29.139  23.019   3.138
63973W        W30382  20.489   7.226  10.755
63974W        W30383   5.165  40.791  12.379
63975W        W30384  29.494   2.147   1.835
63976W        W30385  12.772  40.835   1.225
63977W        W30386  11.034  12.965   1.793
63978W        W30387  33.098  19.527   1.674
63979W        W30388  24.059   3.288  13.394
63980W        W30389  42.775  28.937   3.721
63981W        W30390  10.803   9.267   0.104
63982W        W30391  28.655  20.952  14.015
63983W        W30392  44.303   2.500  11.541
63984W        W30393  15.057  17.487   2.142
63985W        W30394  20.534   4.463  10.723
63986W        W30395  35.059   8.278   0.815
63987W        W30396  14.497   1.898  13.996
63988W        W30397   0.863  18.888   4.527
63989W        W30398   8.225   7.274   2.281
63990W        W30399  44.028   6.501  14.891
63991W        W30400  15.422  40.289   4.213
63992W        W30401  13.358  42.307   0.074
63993W        W30402  43.967  43.433   1.762
63994W        W30403  34.344  42.811   0.780
63995W        W30404   2.023  10.177  10.518
63996W        W30405  33.729  27.680  11.199
63997W        W30406  31.636  41.483   3.405
63998W        W30407  44.220  23.747  10.169
63999W        W30408  27.645  22.758  11.875
64000W        W30409  32.371  18.038   3.270
64001W        W30410  16.082  12.223  11.975
64002W        W30411  22.988  43.864   4.556
64003W        W30412  10.070   8.751  14.870
64004W        W30413  44.598  38.384   4.107
64005W        W30414  24.475  13.203   3.245
64006W        W30415  39.562  26.966  11.484
64007W        W30416   5.259  13.917   0.878
64008W        W30417  12.609  17.224  12.372
64009W        W30418   9.818  25.393  11.771
64010W        W30419  27.596  35.940   3.184
64011W        W30420  17.637  19.986   1.196
64012W        W30421  37.387  21.564  11.430
64013W        W30422  29.254  40.814   0.852
64014W        W30423  38.934   5.067  13.811
64015W        W30424  33.011  19.612  14.294
64016W        W30425   3.210  15.852  14.282
64017W        W30426  32.101   2.298  13.768
64018W        W30427  31.437   4.922  14.323
64019W        W30428  12.735  43.914   4.311
64020W        W30429   4.676  17.513   3.601
64021W        W30430  22.572  24.467  13.470
64022W        W30431  40.360  17.094  14.766
64023W        W30432  28.087  16.285   0.223
64024W        W30433  18.242  15.577  12.934
64025W        W30434  32.179  41.931  11.165
64026W        W30435  44.526  13.844   3.289
64027W        W30436  12.845  19.051  11.043
64028W        W30437  24.144  22.292  11.716
64029W        W30438  42.031  38.619   1.320
64030W        W30439  39.415  39.169   1.171
64031W        W30440  11.744   1.595   2.765
64032W        W30441  40.503   7.226   1.728
64033W        W30442  23.252  41.550   4.476
64034W        W30443  14.573  44.540  14.916
64035W        W30444  42.472   8.407   0.255
64036W        W30445  17.404  11.649   0.181
64037W        W30446  16.265  18.684   4.510
64038W        W30447   9.560  30.722  14.053
64039W        W30448  30.657  13.710   4.945
64040W        W30449   9.221  42.082   4.282
64041W        W30450  14.095  24.029  12.458
64042W        W30451  27.045  10.811   3.467
64043W        W30452  36.752  36.706  12.039
64044W        W30453  39.902   8.681   1.493
64045W        W30454  30.280  12.350  11.771
64046W        W30455  28.472  15.293   4.339
64047W        W30456   9.440  41.378   1.200
64048W        W30457  35.463  33.996  13.611
64049W        W30458  35.868  18.698  14.005
64050W        W30459   6.142  26.643   1.173
64051W        W30460  24.937  24.258   1.680
64052W        W30461  27.060  24.269   0.728
64053W        W30462   8.753  35.133  13.396
64054W        W30463   8.324  39.239  11.132
64055W        W30464  29.064  10.298  12.450
64056W        W30465  28.577  24.736   3.511
64057W        W30466  33.037  10.927   0.071
64058W        W30467  24.763  11.323   3.980
64059W        W30468  27.435  26.463  12.433
64060W        W30469  32.943  43.810   2.636
64061W        W30470  17.502  26.616  14.708
64062W        W30471  30.324  31.123   1.191
64063W        W30472  36.448  22.722  13.081
64064W        W30473   4.249   4.503  11.633
64065W        W30474  14.258  18.663   1.461
64066W        W30475   7.428  11.632  12.514
64067W        W30476  26.992  18.786   3.856
64068W        W30477  10.060  38.655  13.906
64069W        W30478  23.713   0.137  11.959
64070W        W30479  36.912  38.479   3.239
64071W        W30480   6.112   1.407   2.378
64072W        W30481   2.118   3.258  11.185
64073W        W30482  24.149  34.209  12.581
64074W        W30483   1.167  35.539  13.424
64075W        W30484  42.977   0.958  11.967
64076W        W30485   7.197  25.098   2.386
64077W        W30486   9.279  42.571   4.081
64078W        W30487   6.015  34.933  14.684
64079W        W30488  11.869  40.535   4.641
64080W        W30489  43.420  31.705   1.424
64081W        W30490   2.893   2.344  12.559
64082W        W30491  37.396  28.000  13.454
64083W        W30492   1.984   2.028  12.444
64084W        W30493  13.745  43.546   0.883
64085W        W30494   6.601   7.704   0.005
64086W        W30495  14.583  14.372  14.268
64087W        W30496  15.011  27.718  12.025
64088W        W30497  11.021   2.470   1.705
64089W        W30498  12.660  16.407   1.851
64090W        W30499   5.534  27.742  14.532
64091W        W30500  29.376  14.137  13.262
64092W        W30501  35.883   5.162   2.209
64093W        W30502  33.008  27.746  10.486
64094W        W30503  24.703  36.026   4.351
64095W        W30504  34.037  12.559   3.217
64096W        W30505   7.723   0.686   3.711
64097W        W30506   7.731   6.513   3.158
64098W        W30507   4.232  14.295   4.810
64099W        W30508  16.812  32.822   4.035
64100W        W30509  43.910  37.997  14.570
64101W        W30510   0.967  20.526   2.235
64102W        W30511  28.761  17.103   2.821
64103W        W30512   1.936  23.385  13.471
64104W        W30513   3.359  17.373   4.191
64105W        W30514   5.220  30.102  10.606
64106W        W30515   5.008  36.606  11.922
64107W        W30516   6.662  43.114  10.608
64108W        W30517   3.793  36.377  11.656
64109W        W30518  17.663  21.071  14.335
64110W        W30519  37.893  24.322   4.046
64111W        W30520  30.455   4.892  10.649
64112W        W30521   6.584  21.477  12.943
64113W        W30522   1.479  30.051  11.073
64114W        W30523   1.340  39.050  11.660
64115W        W30524  38.388  15.135   1.219
64116W        W30525   2.638  10.608  13.388
64117W        W30526   8.171  13.466  14.822
64118W        W30527   3.700  28.262  12.432
64119W        W30528  42.842  34.372   3.219
64120W        W30529  37.967  44.772  14.323
64121W        W30530   4.287   4.955   2.792
64122W        W30531  31.609  10.661   2.935
64123W        W30532   7.140   4.943   4.957
64124W        W30533  32.901   6.914   4.990
64125W        W30534  13.815  25.530   0.009
64126W        W30535  27.709  21.459   3.247
64127W        W30536  40.417  18.102   1.254
64128W        W30537  23.309   9.674  13.291
64129W        W30538  36.910  22.944   2.293
64130W        W30539  39.005  21.844   5.053
64131W        W30540  25.581  38.955   3.074
64132W        W30541  20.412  35.557  10.772
64133W        W30542  35.055  16.331   4.141
64134W        W30543  30.207  34.958   4.848
64135W        W30544   7.264  33.062  13.499
64136W        W30545  23.762   5.235  13.650
64137W        W30546  44.825   5.815  14.432
64138W        W30547  31.818  44.016  10.673
64139W        W30548  24.174  42.053   1.178
64140W        W30549  34.529  16.545   3.621
64141W        W30550   8.806  12.204   2.275
64142W        W30551  19.973  27.047   0.828
64143W        W30552  31.125  10.445   5.047
64144W        W30553   0.545  17.355   4.510
64145W        W30554  15.120  44.837  10.388
64146W        W30555   7.724  43.024  11.145
64147W        W30556  29.061  33.424  12.945
64148W        W30557  43.011   7.932  13.895
64149W        W30558   3.798  13.764  14.264
64150W        W30559  29.629  43.526  14.335
64151W        W30560  17.057  31.087  11.970
64152W        W30561  35.861  10.419   0.899
64153W        W30562  43.330   0.686   0.879
64154W        W30563  25.728  17.775  13.220
64155W        W30564  10.884  20.815  12.117
64156W        W30565  28.603  22.530   0.371
64157W        W30566  38.406  28.043  13.443
64158W        W30567  29.925  16.005   3.442
64159W        W30568  23.750  12.366   3.682
64160W        W30569  41.537  32.225   4.174
64161W        W30570  29.638  43.644  14.832
64162W        W30571  29.091  31.935   3.642
64163W        W30572   3.395  17.417  12.124
64164W        W30573  38.870   5.364  10.706
64165W        W30574  22.657  23.077   1.235
64166W        W30575  35.486  42.443   4.319
64167W        W30576   5.834  38.663   2.798
64168W        W30577  27.684  13.386  13.492
64169W        W30578  33.487   7.223  10.983
64170W        W30579  22.988   8.047  12.661
64171W        W30580  28.510  15.679  11.542
64172W        W30581  13.912  24.860  14.814
64173W        W30582   7.875  34.209   3.146
64174W        W30583  17.892  21.187  13.885
64175W        W30584   4.980  10.840  14.055
64176W        W30585  17.865  36.859   4.602
64177W        W30586  44.647  44.786  12.595
64178W        W30587  17.048   6.273  12.033
64179W        W30588   0.425  32.210  13.919
64180W        W30589  18.812  23.776  13.487
64181W        W30590  30.131   3.680  14.279
64182W        W30591  40.811  35.840  13.004
64183W        W30592  28.511  32.567   1.453
64184W        W30593  22.131  40.854   0.763
64185W        W30594  14.689  41.798   3.793
64186W        W30595  37.911   7.819  10.783
64187W        W30596  19.693  31.620   4.210
64188W        W30597  11.858  34.990  11.024
64189W        W30598  39.556   7.855   1.698
64190W        W30599  14.721  41.790   4.963
64191W        W30600  42.443  31.727  12.450
64192W        W30601   8.981  44.664  14.358
64193W        W30602  24.644  23.573  11.526
64194W        W30603  21.287   3.410  11.541
64195W        W30604  28.547  12.189   4.985
64196W        W30605   4.830  38.440   2.199
64197W        W30606   9.760  11.226   4.421
64198W        W30607  28.668  16.545   1.411
64199W        W30608  36.255  37.777   0.573
64200W        W30609  22.083  36.581   2.071
64201W        W30610  30.900  15.424   2.138
64202W        W30611  29.041  44.507   3.632
64203W        W30612  38.976   2.396   0.899
64204W        W30613  23.330  16.586   3.106
64205W        W30614   8.340  36.427  10.897
64206W        W30615  10.256  16.050  12.530
64207W        W30616   0.850   7.674   2.173
64208W        W30617   0.047  28.689   4.050
64209W        W30618  17.559  25.622   4.826
64210W        W30619   3.437  36.027   1.467
64211W        W30620   6.859  32.663  10.292
64212W        W30621  40.927   3.035   1.876
64213W        W30622   9.663  16.196   1.725
64214W        W30623   0.238   3.804  12.054
64215W        W30624  38.728  24.068  10.341
64216W        W30625  41.084  10.492   4.582
64217W        W30626  14.209  40.482   1.956
64218W        W30627   1.703  31.964   1.855
64219W        W30628   9.686   4.151  11.989
64220W        W30629  31.278  12.241  11.648
64221W        W30630   9.274   0.749  11.973
64222W        W30631   4.274   2.843   3.315
64223W        W30632  40.041  16.047  11.541
64224W        W30633   3.681   5.412  14.047
64225W        W30634  21.612  29.630   2.597
64226W        W30635  16.310  19.642   1.358
64227W        W30636  23.920  11.979   2.205
64228W        W30637  31.274   0.882   5.178
64229W        W30638  30.442  24.146   3.583
64230W        W30639   7.745  16.163  14.886
64231W        W30640  23.819  32.977   0.777
64232W        W30641  11.924  17.628   0.797
64233W        W30642  32.206  31.211  13.885
64234W        W30643  39.549  17.258   3.087
64235W        W30644  11.737  19.249  13.959
64236W        W30645  24.190  36.898  11.966
64237W        W30646  28.410  22.235  14.348
64238W        W30647  15.671  11.149  13.040
64239W        W30648  30.499  39.459  11.597
64240W        W30649   5.139  18.068   2.849
64241W        W30650   2.430   6.613  12.936
64242W        W30651  28.646  37.351  13.510
64243W        W30652  31.920  34.019  13.780
64244W        W30653  40.754   7.115   2.314
64245W        W30654  34.582  29.558   1.320
64246W        W30655  36.425   2.176   4.658
64247W        W30656  32.687  28.944   3.698
64248W        W30657  31.931   6.641   3.553
64249W        W30658  40.429  33.100   4.648
64250W        W30659  44.443  35.149  12.647
64251W        W30660  36.461  21.343   0.284
64252W        W30661  23.723  11.599   0.377
64253W        W30662  15.153   3.332  11.211
64254W        W30663  33.484  41.562  11.239
64255W        W30664  43.255  11.449   5.335
64256W        W30665  35.322  32.200   4.983
64257W        W30666  37.005  15.097  12.012
64258W        W30667   3.886  28.522   2.643
64259W        W30668  39.330   9.327   0.812
64260W        W30669  29.064  42.574  14.305
64261W        W30670  21.250  10.556  11.047
64262W        W30671  31.953  41.705   0.939
64263W        W30672  14.946  39.211   3.819
64264W        W30673  27.319  19.816  14.562
64265W        W30674   8.626  24.258   1.336
64266W        W30675  23.482  16.556  11.683
64267W        W30676  19.181   3.403   0.999
64268W        W30677   8.537   8.212  13.110
64269W        W30678  11.745  38.159   1.372
64270W        W30679  44.117  26.105  12.559
64271W        W30680   4.672  43.893   4.497
64272W        W30681   2.394  28.067  12.699
64273W        W30682  20.676  30.640   3.299
64274W        W30683  28.437   6.857  14.917
64275W        W30684  39.562  12.382   1.724
64276W        W30685  35.640  13.892   2.712
64277W        W30686   1.009  27.020   1.199
64278W        W30687  34.004  29.437  12.854
64279W        W30688  18.091  14.547  14.638
64280W        W30689  18.614  36.612   2.243
64281W        W30690   8.447  41.312   1.433
64282W        W30691  11.421  16.368   2.851
64283W        W30692  10.662  41.010  12.595
64284W        W30693  17.401  29.705   2.323
64285W        W30694  15.684  31.708   0.654
64286W        W30695  12.134   7.675  10.604
64287W        W30696   9.226  27.444   0.206
64288W        W30697  10.095  42.118   2.703
64289W        W30698  43.590  28.829   4.280
64290W        W30699  16.376  26.667   2.879
64291W        W30700   8.935  11.266   2.702
64292W        W30701  37.122  21.034   1.448
64293W        W30702   0.779   4.374  11.598
64294W        W30703  29.669  41.482   2.339
64295W        W30704  43.319  34.037  11.363
64296W        W30705  37.171  29.004   4.029
64297W        W30706  32.386   1.359  11.105
64298W        W30707  20.662  40.441   0.722
64299W        W30708  38.225  37.289   4.088
64300W        W30709   2.352  42.996   2.797
64301W        W30710   9.528  12.696  13.184
64302W        W30711  26.754  16.359   0.547
64303W        W30712  17.556  39.819   3.144
64304W        W30713  41.779  21.598  11.623
64305W        W30714  35.671  22.572   0.290
64306W        W30715  44.159   4.449   4.583
64307W        W30716  25.081  43.760  13.883
64308W        W30717  33.117  25.434  14.795
64309W        W30718   1.659  24.211  13.137
64310W        W30719  43.526  34.388   1.925
64311W        W30720  11.216  27.732   4.729
64312W        W30721  22.287   0.402   4.520
64313W        W30722  30.800   8.934   4.134
64314W        W30723  28.189  10.219   0.303
64315W        W30724  10.388  36.638  10.474
64316W        W30725   8.840  29.450   4.018
64317W        W30726   8.720   2.998  14.370
64318W        W30727  32.686  36.392  13.591
64319W        W30728  27.163  38.491  14.045
64320W        W30729  15.263  35.561   2.562
64321W        W30730  32.439   7.124   2.849
64322W        W30731  44.518  23.868  12.174
64323W        W30732  37.529  26.790   3.194
64324W        W30733  19.961  21.567   0.254
64325W        W30734  16.535  35.834   4.529
64326W        W30735  34.607   8.167   1.078
64327W        W30736  34.638  27.414  12.452
64328W        W30737  13.120  41.939   0.634
64329W        W30738  32.753   6.365   4.955
64330W        W30739  32.476   2.930  11.183
64331W        W30740  25.045   3.005   3.706
64332W        W30741  21.548  38.262   1.800
64333W        W30742  18.091  31.062  12.907
64334W        W30743  23.284  23.616  13.337
64335W        W30744  38.983   2.959  14.472
64336W        W30745  21.570  25.740  10.645
64337W        W30746   7.626   3.270   3.234
64338W        W30747  30.750   0.807   0.655
64339W        W30748  15.284  28.343   3.742
64340W        W30749  17.058  25.377  13.465
64341W        W30750  19.076  21.396  14.435
64342W        W30751  21.166  17.161   1.790
64343W        W30752   2.720  35.935  14.593
64344W        W30753  20.724   1.449  13.854
64345W        W30754  19.271  14.384   1.349
64346W        W30755   7.790  41.897   2.774
64347W        W30756  23.611  20.105   1.752
64348W        W30757  42.593  23.733   4.713
64349W        W30758  21.990  13.163  14.457
64350W        W30759   9.047  31.992   4.548
64351W        W30760  12.685  21.023  10.695
64352W        W30761  32.195  42.504   2.831
64353W        W30762  42.882   3.873  10.722
64354W        W30763  37.868   5.338  11.626
64355W        W30764   4.611  30.778   4.632
64356W        W30765  44.641  18.613   2.129
64357W        W30766  28.061   3.798  11.052
64358W        W30767  23.233   5.319   2.303
64359W        W30768   7.666   8.690  13.466
64360W        W30769   4.302  39.736   1.364
64361W        W30770  41.958  37.300  13.885
64362W        W30771  36.659  25.594   4.368
64363W        W30772  44.613  35.126   0.219
64364W        W30773  34.473   9.700   3.726
64365W        W30774  25.716  13.360   4.390
64366W        W30775   6.607  19.284  14.706
64367W        W30776  42.876  34.530  14.065
64368W        W30777  15.303  39.366   3.174
64369W        W30778   8.204  30.690   0.734
64370W        W30779  11.383  24.802  11.545
64371W        W30780  37.816   8.198   1.121
64372W        W30781  38.579  25.033   2.992
64373W        W30782   1.438  38.758  13.962
64374W        W30783  19.608  31.441   2.963
64375W        W30784  17.681  37.987   0.360
64376W        W30785  33.700  17.708  14.169
64377W        W30786  16.557  11.682   3.666
64378W        W30787  40.933  28.471  12.081
64379W        W30788  15.614  20.244   3.138
64380W        W30789  40.869  41.046   1.438
64381W        W30790  14.753  27.563  10.772
64382W        W30791  28.578  31.586  13.561
64383W        W30792   1.236  20.639  11.370
64384W        W30793   7.105  19.215   0.004
64385W        W30794  31.069  10.200   0.374
64386W        W30795   6.982  20.637  14.914
64387W        W30796  34.817  20.198   0.306
64388W        W30797  26.965   8.049  10.216
64389W        W30798  14.640  16.541   1.917
64390W        W30799  16.009  19.463  11.547
64391W        W30800   1.419  20.606  11.883
64392W        W30801  12.633  39.057  10.784
64393W        W30802  15.924  35.984   3.726
64394W        W30803  44.595  33.221   3.562
64395W        W30804  10.871  40.590  12.848
64396W        W30805  26.758   7.920  11.879
64397W        W30806  31.905  44.310  11.124
64398W        W30807  32.578   0.372   0.875
64399W        W30808   4.909  12.499  12.554
64400W        W30809  31.514  18.055   3.766
64401W        W30810   3.717  24.076   2.356
64402W        W30811   1.793  41.274  13.290
64403W        W30812  13.350  26.981   0.388
64404W        W30813  33.301  42.039   0.815
64405W        W30814   2.737  42.034  10.987
64406W        W30815  32.150  19.360  13.973
64407W        W30816   5.633  30.514   2.285
64408W        W30817   2.522   5.278  13.396
64409W        W30818  20.049  28.063   3.133
64410W        W30819  23.246  16.290   4.210
64411W        W30820  16.492  32.954  14.863
64412W        W30821  44.589  28.451   1.083
64413W        W30822   1.043   6.223   3.688
64414W        W30823  28.066  18.046   0.890
64415W        W30824  25.009  11.416   4.437
64416W        W30825   8.167  25.340  12.305
64417W        W30826  39.567  29.845   3.293
64418W        W30827   9.861  18.502   2.826
64419W        W30828  13.245  22.587  13.061
64420W        W30829   9.356   2.621   0.616
64421W        W30830  34.812  31.063  14.527
64422W        W30831  14.639  19.309   2.330
64423W        W30832  16.751  40.688  14.979
64424W        W30833  33.041  28.130  12.689
64425W        W30834   8.647  14.146  12.620
64426W        W30835   0.742  37.637  10.801
64427W        W30836  31.564  37.567   1.434
64428W        W30837  35.199   4.408   1.168
64429W        W30838  44.687  12.195  13.012
64430W        W30839  19.729   8.876   5.067
64431W        W30840  13.014  25.145   3.066
64432W        W30841   8.607  27.802  12.571
64433W        W30842  11.206  28.441  12.924
64434W        W30843  26.121  32.883  14.301
64435W        W30844  11.763  15.910  13.773
64436W        W30845  43.082   3.430   1.298
64437W        W30846  26.484  28.429  14.751
64438W        W30847  28.555  37.772   0.807
64439W        W30848  40.842  14.600  14.848
64440W        W30849  30.949  20.320   1.812
64441W        W30850   9.637  12.272  11.476
64442W        W30851  38.873  34.425  14.541
64443W        W30852   5.629  31.670  11.086
64444W        W30853  22.082  42.733  12.932
64445W        W30854   3.527  14.340  11.472
64446W        W30855  42.369  24.245   0.728
64447W        W30856  17.480  19.927  12.400
64448W        W30857   2.950  25.581   2.272
64449W        W30858  25.764  13.760  11.334
64450W        W30859  27.718  32.061  14.520
64451W        W30860  32.693  44.958  13.983
64452W        W30861  12.884  41.203  13.837
64453W        W30862  14.924  20.318   3.653
64454W        W30863  20.535  44.870   4.048
64455W        W30864  20.950  31.886   1.818
64456W        W30865  36.060  38.035   0.989
64457W        W30866  25.643  37.005   4.525
64458W        W30867  15.043  29.968  11.193
64459W        W30868   3.240  42.933  13.259
64460W        W30869  35.372  39.842  12.459
64461W        W30870   8.576   0.424  11.200
64462W        W30871  34.711  35.297   1.788
64463W        W30872  43.849  37.940   3.775
64464W        W30873   3.510  11.781  10.868
64465W        W30874  21.514  29.136   2.351
64466W        W30875  25.054  28.812  12.810
64467W        W30876  38.983   0.433  14.709
64468W        W30877  38.794  22.427   4.208
64469W        W30878  14.275   9.037   4.144
64470W        W30879  42.106  24.274   3.318
64471W        W30880   8.214   4.905   4.018
64472W        W30881  41.811  14.236   3.772
64473W        W30882  41.938  30.149  13.857
64474W        W30883   7.442   5.432  14.074
64475W        W30884  12.680  36.945   1.270
64476W        W30885  30.760   5.188   4.208
64477W        W30886   4.004  23.630  14.917
64478W        W30887  22.458  32.908   2.181
64479W        W30888  42.501  31.090   4.977
64480W        W30889   8.260  42.478  11.576
64481W        W30890  32.053  43.048  11.718
64482W        W30891  11.268  12.024   1.843
64483W        W30892  14.590  14.179   3.842
64484W        W30893   3.980  23.960  14.261
64485W        W30894   9.021  34.993   2.124
64486W        W30895   4.996  42.477   2.362
64487W        W30896   1.797  22.555  13.463
64488W        W30897  27.088  13.076   2.754
64489W        W30898  10.031  14.394   0.511
64490W        W30899   1.730  41.348  14.666
64491W        W30900  28.373  10.284   1.442
64492W        W30901   4.348  30.686  13.085
64493W        W30902  18.683  26.661  13.866
64494W        W30903  25.505  19.535   1.701
64495W        W30904  10.939   1.288  12.899
64496W        W30905  15.220  19.988   2.741
64497W        W30906  26.329  12.798  13.548
64498W        W30907  39.590  30.116   4.411
64499W        W30908  19.053  31.325  12.080
64500W        W30909  10.177   3.119  13.792
64501W        W30910   5.455   7.171  12.555
64502W        W30911  32.010  15.658   0.511
64503W        W30912   7.854   8.342   3.756
64504W        W30913   6.457  38.863   1.229
64505W        W30914   9.407  35.399  10.685
64506W        W30915  30.046   4.734  10.974
64507W        W30916   9.842  33.158   1.169
64508W        W30917  20.444  30.127   4.625
64509W        W30918  18.638  37.783   4.599
64510W        W30919  17.687   2.832   1.447
64511W        W30920  41.357  25.258   4.654
64512W        W30921   5.993   4.654  13.237
64513W        W30922  42.863  37.588   4.513
64514W        W30923   8.000  33.381   9.931
64515W        W30924   4.787  35.131   5.070
64516W        W30925  37.429  24.641   0.373
64517W        W30926  11.801  26.651  13.048
64518W        W30927  31.214  34.078  11.380
64519W        W30928   5.368   0.723  13.278
64520W        W30929  23.751  31.984   2.336
64521W        W30930   2.276  36.613  10.777
64522W        W30931  23.070  23.699  12.032
64523W        W30932   5.844  41.877  13.798
64524W        W30933  20.339  10.098   0.482
64525W        W30934  26.052  37.281   2.308
64526W        W30935  20.548  39.402   4.608
64527W        W30936  34.795   4.070   3.931
64528W        W30937  35.778  24.471   0.796
64529W        W30938  11.129  25.714   2.756
64530W        W30939  14.137  12.525   3.593
64531W        W30940  13.797  12.651   3.183
64532W        W30941  33.530  17.915   4.663
64533W        W30942   6.415  42.486  13.081
64534W        W30943  27.076  22.164   0.378
64535W        W30944   5.789  37.509  11.935
64536W        W30945  41.321  39.078   4.775
64537W        W30946  40.442  25.703  12.247
64538W        W30947  26.288  22.625  11.673
64539W        W30948  44.812   5.170  14.899
64540W        W30949  36.115  35.827   1.786
64541W        W30950  44.036  17.251  14.322
64542W        W30951  43.828  27.610  13.368
64543W        W30952   0.361   3.742  12.547
64544W        W30953   1.254  13.157  12.574
64545W        W30954  27.456  27.181   4.177
64546W        W30955  38.814  10.191  11.819
64547W        W30956  13.785  25.266  14.525
64548W        W30957  39.961  17.287   0.697
64549W        W30958  23.546  31.325  11.208
64550W        W30959  29.566   8.173   1.815
64551W        W30960  10.197  40.842   1.643
64552W        W30961  13.803  43.715   1.719
64553W        W30962  40.986  41.294   2.488
64554W        W30963  13.974   9.885  11.502
64555W        W30964  11.696   2.539  11.231
64556W        W30965  37.034  35.156   0.393
64557W        W30966  37.545  12.935   1.979
64558W        W30967  29.717  21.983  11.991
64559W        W30968  40.107  43.713  12.876
64560W        W30969   1.887  16.728   3.174
64561W        W30970  36.693  15.601  13.997
64562W        W30971   4.314  13.715  10.740
64563W        W30972  33.680  31.361  13.001
64564W        W30973   0.285  18.028   2.861
64565W        W30974  39.386  35.756  11.844
64566W        W30975  28.608  26.774   2.239
64567W        W30976  38.157   1.402  12.967
64568W        W30977  36.700   8.150  10.884
64569W        W30978  15.572  24.703   0.646
64570W        W30979   8.163  16.813  11.655
64571W        W30980  21.063  35.214  11.240
64572W        W30981   6.976  22.098  13.476
64573W        W30982   0.824  40.329   4.181
64574W        W30983  26.642  43.749   3.141
64575W        W30984  44.122  11.344   5.025
64576W        W30985  19.456  40.924   4.231
64577W        W30986  19.288  12.156   0.872
64578W        W30987  27.410  11.040  13.995
64579W        W30988  10.240  11.395   3.082
64580W        W30989   0.815  36.836  12.372
64581W        W30990  13.717  36.434  12.898
64582W        W30991  40.961  42.294   2.582
64583W        W30992  33.863  30.157  10.618
64584W        W30993   2.744   0.897  12.561
64585W        W30994  34.353  41.742   2.387
64586W        W30995  21.154  22.617  11.015
64587W        W30996  32.363  35.331  13.813
64588W        W30997  33.495  42.432  11.032
64589W        W30998   1.022  43.422   0.248
64590W        W30999  28.469   3.500   1.416
64591W        W31000  42.448  36.788   0.361
64592W        W31001  33.407  31.093   3.409
64593W        W31002   1.477  42.304   0.263
64594W        W31003  17.964  18.191  13.214
64595W        W31004   4.938  35.871   4.722
64596W        W31005  39.947  43.849   1.813
64597W        W31006  11.991  18.591  10.199
64598W        W31007  21.377   8.758   2.942
64599W        W31008  40.599  18.563  13.447
64600W        W31009  26.902  28.262  13.911
64601W        W31010  24.738  32.788   1.734
64602W        W31011  13.191  39.805  10.419
64603W        W31012  12.229  19.113  13.064
64604W        W31013  13.698  28.399   3.778
64605W        W31014  36.811  13.190  13.441
64606W        W31015  40.119  33.911   2.729
64607W        W31016  22.444  26.426  12.568
64608W        W31017   6.422  37.814   0.339
64609W        W31018   7.199  14.990  11.145
64610W        W31019  24.573  25.717   1.027
64611W        W31020  18.854   4.840   5.060
64612W        W31021  38.395  27.461   3.587
64613W        W31022  42.732  19.256   3.773
64614W        W31023  23.151  26.069  10.920
64615W        W31024  40.896  43.583   3.064
64616W        W31025  21.242  40.412  11.582
64617W        W31026  23.247   7.193  14.238
64618W        W31027   8.913  25.731  14.668
64619W        W31028  36.458  13.164   3.269
64620W        W31029  12.873  19.116   2.685
64621W        W31030  11.691  10.688   1.937
64622W        W31031  44.310  37.722   0.940
64623W        W31032  24.464  13.870   0.375
64624W        W31033  40.936  15.595   2.579
64625W        W31034   5.866   2.879   3.270
64626W        W31035  14.636  29.559   4.265
64627W        W31036  15.777  21.729   0.428
64628W        W31037  13.691  18.195  11.734
64629W        W31038   9.260  21.179  10.693
64630W        W31039  42.393   6.391   2.291
64631W        W31040   2.268   4.873  13.919
64632W        W31041  15.170  41.881   2.216
64633W        W31042   5.152  27.671  10.947
64634W        W31043  14.384  40.812   0.428
64635W        W31044   9.557  30.498   5.517
64636W        W31045  32.852   1.898   4.104
64637W        W31046  23.631  26.417  13.107
64638W        W31047  11.234  39.250  12.815
64639W        W31048   6.590   2.759   2.189
64640W        W31049  38.999  10.081   4.244
64641W        W31050   1.210  44.971   3.807
64642W        W31051  33.896  18.741   3.710
64643W        W31052  17.241  41.041   2.883
64644W        W31053  27.144  37.876   0.878
64645W        W31054  42.194   6.374  14.026
64646W        W31055  37.956  33.160   3.302
64647W        W31056  21.251  36.346  13.877
64648W        W31057  23.640  30.255   1.700
64649W        W31058  21.202  12.899   1.277
64650W        W31059   9.154  43.391  12.946
64651W        W31060  32.126  29.163  13.055
64652W        W31061  37.484  28.428  14.333
64653W        W31062  20.553  36.110   0.807
64654W        W31063  34.562  17.314  13.945
64655W        W31064  10.396   6.018  14.354
64656W        W31065  10.960   1.886   1.105
64657W        W31066  33.820  19.212   0.454
64658W        W31067  13.124  36.973  10.217
64659W        W31068  30.208  15.176  11.705
64660W        W31069  22.802  42.944   4.605
64661W        W31070  24.733  10.589   2.604
64662W        W31071  19.458  26.687   4.075
64663W        W31072  36.173  12.021  11.264
64664W        W31073  43.715   8.904   0.014
64665W        W31074  32.978   0.438   3.803
64666W        W31075  36.831  33.334  14.807
64667W        W31076  23.597   3.912   2.468
64668W        W31077  19.496  38.436  13.190
64669W        W31078  20.013  21.818  14.305
64670W        W31079  17.487  28.616   0.564
64671W        W31080  33.970  27.236  11.130
64672W        W31081  28.425  31.382  11.613
64673W        W31082  39.288   1.254   3.856
64674W        W31083  38.112  10.901  13.273
64675W        W31084  27.177  30.632   4.070
64676W        W31085  37.883  31.668  12.033
64677W        W31086  41.526  43.752   4.079
64678W        W31087  38.778  29.048   2.788
64679W        W31088   5.268  39.073  11.923
64680W        W31089  18.555  42.776   2.459
64681W        W31090   7.629   9.238   4.745
64682W        W31091   6.404   8.188   2.135
64683W        W31092   4.368  23.617   0.303
64684W        W31093   8.422   1.697   0.377
64685W        W31094  21.848  33.429   0.460
64686W        W31095  13.903  18.872  12.885
64687W        W31096  27.545  41.982  11.633
64688W        W31097  23.392  11.262   3.285
64689W        W31098  44.301   4.809   4.073
64690W        W31099  25.631  39.970   4.215
64691W        W31100  35.285  13.613  13.849
64692W        W31101  41.122  32.463  11.695
64693W        W31102  32.593  26.493  10.775
64694W        W31103  39.969  38.492   3.154
64695W        W31104  12.115  26.890  14.696
64696W        W31105  22.989  43.480   2.211
64697W        W31106  17.712  36.577   2.850
64698W        W31107  29.558  24.680   1.714
64699W        W31108  16.370  35.164  11.088
64700W        W31109  31.175   3.849   0.017
64701W        W31110   9.058   9.906   2.740
64702W        W31111  30.010  31.727  14.995
64703W        W31112  17.113  19.737   2.848
64704W        W31113  41.298  20.247   1.908
64705W        W31114  18.839  34.778   2.702
64706W        W31115  37.833   2.548  11.341
64707W        W31116  20.301  10.540  11.125
64708W        W31117  16.301  31.408   3.848
64709W        W31118  12.828  33.912   2.201
64710W        W31119  26.228  24.181  13.507
64711W        W31120  34.130  22.270  13.881
64712W        W31121  19.290  40.600   2.704
64713W        W31122  39.818  38.948  11.065
64714W        W31123   7.931  44.105   2.627
64715W        W31124  37.527   0.863   0.718
64716W        W31125  39.558   1.768  13.212
64717W        W31126  22.533  40.076  14.300
64718W        W31127  24.992   9.758   0.006
64719W        W31128   9.257  24.492  14.879
64720W        W31129  33.948   7.248  12.057
64721W        W31130   2.292   0.315   1.751
64722W        W31131  14.151  41.613   0.769
64723W        W31132  27.683  40.530   4.537
64724W        W31133   4.645   8.523  14.995
64725W        W31134   3.526  37.288   2.144
64726W        W31135  25.451  24.201   1.644
64727W        W31136   3.076   3.214   0.875
64728W        W31137  15.583  35.318   1.855
64729W        W31138  34.142   5.367   3.363
64730W        W31139  36.850  12.030  14.119
64731W        W31140  31.663  13.782   3.668
64732W        W31141  12.748  21.052  12.149
64733W        W31142  27.556  30.316   3.945
64734W        W31143  19.221   8.690  13.606
64735W        W31144   5.961   0.132  13.956
64736W        W31145   2.020   1.943   2.266
64737W        W31146  28.622  21.792   1.689
64738W        W31147  18.827  12.304   3.677
64739W        W31148  23.304  23.217  13.000
64740W        W31149  36.089  20.104  14.288
64741W        W31150   1.275   1.952  13.935
64742W        W31151  35.713  24.029   1.801
64743W        W31152  24.920  38.281  12.101
64744W        W31153  40.762   3.852  10.962
64745W        W31154  22.810  28.435   3.244
64746W        W31155  21.084   3.749  14.375
64747W        W31156  34.915  29.167   5.005
64748W        W31157  38.427  21.646  11.377
64749W        W31158  27.556  10.313  11.518
64750W        W31159  32.234  25.667  14.745
64751W        W31160   5.575  39.651  13.008
64752W        W31161   9.638  43.300   0.323
64753W        W31162  22.112  37.290   4.254
64754W        W31163  13.180  14.238  11.956
64755W        W31164  15.925  16.388   9.911
64756W        W31165   2.309  25.058   1.408
64757W        W31166  28.092  10.876  12.016
64758W        W31167  12.622  19.793  11.604
64759W        W31168  29.628  30.193   5.030
64760W        W31169   7.038  42.026   4.471
64761W        W31170  15.076   5.506   0.879
64762W        W31171  23.411  28.244   3.066
64763W        W31172  11.076   2.430   1.207
64764W        W31173   2.607  13.096  12.497
64765W        W31174  19.422  25.733  13.368
64766W        W31175  26.530  29.096   0.224
64767W        W31176  38.048  10.664  10.676
64768W        W31177   9.104  10.285  10.978
64769W        W31178  27.402  15.235  12.812
64770W        W31179  23.735  10.931  14.488
64771W        W31180  34.304  13.605   3.224
64772W        W31181  20.620  13.870  14.844
64773W        W31182  13.231   7.188  12.522
64774W        W31183   7.477  23.835  11.317
64775W        W31184  41.012  41.802  11.115
64776W        W31185  31.388  36.017  13.496
64777W        W31186  24.357  27.981  13.790
64778W        W31187  40.880  37.615   4.089
64779W        W31188  43.667  17.772  13.553
64780W        W31189  23.757  19.122  14.955
64781W        W31190  23.739  12.878   1.656
64782W        W31191   7.066  18.960  12.458
64783W        W31192  22.131  13.533   0.577
64784W        W31193  31.489  20.718  10.651
64785W        W31194  21.255  30.162  14.484
64786W        W31195   2.257  14.206   0.072
64787W        W31196  38.344  35.862   1.297
64788W        W31197  34.867  27.370  13.902
64789W        W31198  29.759  38.962   0.226
64790W        W31199  41.232   4.807   4.193
64791W        W31200  43.590  12.720   5.014
64792W        W31201  23.137  39.691   2.525
64793W        W31202  40.754  18.052   2.258
64794W        W31203  41.044  44.432   3.688
64795W        W31204  20.409  38.941  12.351
64796W        W31205  13.693  18.384  13.023
64797W        W31206  11.199  39.686   3.182
64798W        W31207  22.119  39.018  10.354
64799W        W31208  28.664  24.766  13.338
64800W        W31209  41.222   7.823  12.435
64801W        W31210  16.260  42.948  12.353
64802W        W31211  43.836  22.510   3.252
64803W        W31212  11.872   9.054   1.402
64804W        W31213  27.752  42.520  14.793
64805W        W31214  37.247  34.663   2.425
64806W        W31215  14.210  39.270  12.573
64807W        W31216  31.808  24.401   0.807
64808W        W31217  37.275  39.402  12.160
64809W        W31218   4.861   6.994   2.400
64810W        W31219  11.059  41.541   4.428
64811W        W31220  44.937  33.026   3.917
64812W        W31221  16.412  32.117   2.781
64813W        W31222  11.369  28.854   2.119
64814W        W31223   6.388  42.093  13.456
64815W        W31224   7.715  38.682  13.109
64816W        W31225  32.515  19.797  14.397
64817W        W31226  22.569  34.962   2.117
64818W        W31227  38.017   6.376   0.341
64819W        W31228   0.220  38.381  13.371
64820W        W31229  44.364  33.931   1.038
64821W        W31230  29.504  26.440   0.936
64822W        W31231  14.929  22.265  14.711
64823W        W31232  34.132  38.982   4.627
64824W        W31233   4.789  31.605  13.312
64825W        W31234  12.214  10.653   2.230
64826W        W31235  37.970  15.929   0.440
64827W        W31236   1.161   5.599   1.212
64828W        W31237   5.125  25.314   4.734
64829W        W31238  29.197  38.387   2.286
64830W        W31239  25.514  27.099  12.940
64831W        W31240  44.780  31.426  11.631
64832W        W31241  22.577   1.106   4.950
64833W        W31242  36.051  20.245   4.367
64834W        W31243  24.141   3.831  11.615
64835W        W31244  41.641   6.751  13.877
64836W        W31245   1.376  27.644   0.506
64837W        W31246  12.412   1.523  11.684
64838W        W31247   7.581   2.191  14.496
64839W        W31248  20.834  11.683   3.814
64840W        W31249  40.992  41.239   4.573
64841W        W31250  44.449  21.638   0.277
64842W        W31251  44.337  31.522  12.568
64843W        W31252  44.022  34.703   2.959
64844W        W31253  12.864  16.187   1.371
64845W        W31254  37.088  30.156   0.310
64846W        W31255  31.933  32.895   0.229
64847W        W31256  11.504  22.872   4.490
64848W        W31257  43.410  33.032   1.664
64849W        W31258  27.944  33.611   1.328
64850W        W31259  33.380  29.890   0.873
64851W        W31260  39.968  29.983  13.754
64852W        W31261  37.351  42.323   0.932
64853W        W31262  39.760  35.610  12.895
64854W        W31263  30.402  34.365   3.608
64855W        W31264   8.450  34.437   1.746
64856W        W31265  43.298  18.760  11.107
64857W        W31266  35.280  10.520   0.456
64858W        W31267  13.928  17.411   3.205
64859W        W31268  24.427  30.884  14.352
64860W        W31269  19.346  34.125   3.197
64861W        W31270  44.243  11.215   0.610
64862W        W31271  22.127  21.959  11.633
64863W        W31272   1.891  32.496  14.954
64864W        W31273   1.180  33.864  12.585
64865W        W31274   7.526   5.356   1.960
64866W        W31275  15.200  27.563  11.573
64867W        W31276  41.346   2.296   5.165
64868W        W31277  19.110  35.590  11.991
64869W        W31278   9.224  35.999  11.927
64870W        W31279  34.858   0.610  14.796
64871W        W31280  36.920  10.704   4.349
64872W        W31281  33.138  24.202   0.386
64873W        W31282  21.054   1.914   1.832
64874W        W31283  35.411  37.899   4.217
64875W        W31284  11.754  40.591  11.618
64876W        W31285  38.188  33.431   3.684
64877W        W31286  37.781  14.786  10.840
64878W        W31287  27.169  32.346   2.626
64879W        W31288  15.016  19.280   9.657
64880W        W31289   3.390  22.054  11.304
64881W        W31290  41.499   7.074  13.027
64882W        W31291   9.742   5.041   2.015
64883W        W31292  43.739  42.398   2.371
64884W        W31293  43.174  20.527   2.609
64885W        W31294  36.019  22.999   3.878
64886W        W31295  19.815  37.314  13.971
64887W        W31296  10.757  33.078   0.883
64888W        W31297  11.839  35.841  12.010
64889W        W31298   3.077  30.693   1.379
64890W        W31299   3.367  17.967   2.193
64891W        W31300  17.510  19.635  10.598
64892W        W31301  34.442  28.157   0.326
64893W        W31302   5.713  31.531   2.760
64894W        W31303  22.258   7.263   2.173
64895W        W31304  18.533   2.705   4.295
64896W        W31305  25.645  30.889   2.785
64897W        W31306  10.389  26.568  11.552
64898W        W31307  26.042  27.917  13.579
64899W        W31308  27.424  26.585   4.116
64900W        W31309  22.248  14.081  10.580
64901W        W31310  23.530   5.656  13.408
64902W        W31311  35.839  35.277  13.642
64903W        W31312  21.988   4.673  12.418
64904W        W31313  36.837  16.249  10.762
64905W        W31314  27.985  25.213  10.666
64906W        W31315  36.339  39.541  14.296
64907W        W31316  17.968  28.696  14.393
64908W        W31317  31.492  29.226   0.669
64909W        W31318   2.966  36.942   4.255
64910W        W31319  15.585  30.003  13.402
64911W        W31320   4.590   7.786   3.499
64912W        W31321  26.991  32.340   1.842
64913W        W31322  18.138  28.480  13.118
64914W        W31323  43.915  31.675   3.184
64915W        W31324  43.951  25.457   4.665
64916W        W31325  29.733  28.753  11.627
64917W        W31326   0.274  16.458  14.521
64918W        W31327  22.837  22.582   3.196
64919W        W31328   7.741   8.316   1.729
64920W        W31329  10.293  34.655  11.004
64921W        W31330   9.234   2.862  13.303
64922W        W31331   2.353  29.009  11.335
64923W        W31332  35.851   1.518   4.378
64924W        W31333  36.421   7.746  13.825
64925W        W31334  10.915  33.374   2.701
64926W        W31335  28.660   1.052   0.230
64927W        W31336   4.278  23.190  12.033
64928W        W31337  41.073   5.302   2.632
64929W        W31338  43.400  36.007   2.794
64930W        W31339  20.508  29.060   1.356
64931W        W31340  11.141  10.074   3.904
64932W        W31341  21.271  39.792   3.333
64933W        W31342  21.441  21.848   2.145
64934W        W31343  20.147  11.280  14.364
64935W        W31344  34.357  44.066   0.210
64936W        W31345  31.344  25.730   3.223
64937W        W31346   3.935  22.631  13.066
64938W        W31347  24.591   4.367  10.987
64939W        W31348  23.473  21.054   4.753
64940W        W31349  35.148   3.913   5.294
64941W        W31350  19.054  26.591  13.490
64942W        W31351   1.455  43.488   2.791
64943W        W31352  11.153  33.040   0.549
64944W        W31353  42.136   7.228   4.126
64945W        W31354  13.778  30.955   0.356
64946W        W31355   5.931  10.528  11.224
64947W        W31356  44.038  11.410   3.238
64948W        W31357  24.388   8.748  11.652
64949W        W31358  43.550   0.437   2.196
64950W        W31359  36.446  18.556   1.164
64951W        W31360   1.949  17.749  14.396
64952W        W31361  33.395  19.448   4.260
64953W        W31362  43.080  17.483  14.505
64954W        W31363  13.887   6.265  11.012
64955W        W31364  41.019  16.060  13.022
64956W        W31365  22.404   0.268   0.429
64957W        W31366  34.110  24.067  14.936
64958W        W31367  12.945   9.395   2.165
64959W        W31368  24.988  25.713   2.700
64960W        W31369  35.551   5.419  13.085
64961W        W31370  11.716  19.785   3.781
64962W        W31371  10.258  16.610   1.828
64963W        W31372  18.203  43.187  11.712
64964W        W31373  21.482  39.955  11.829
64965W        W31374   5.778  23.193   9.851
64966W        W31375  19.565  31.327   3.546
64967W        W31376  10.706  12.744   3.936
64968W        W31377   3.192  38.098   4.600
64969W        W31378  19.978   8.676  12.067
64970W        W31379   0.027  21.717  12.500
64971W        W31380   8.406  25.923   4.998
64972W        W31381   3.181  32.917   3.332
64973W        W31382  32.038  18.682  14.273
64974W        W31383   9.701  15.746  10.733
64975W        W31384  20.005   3.755  11.806
64976W        W31385   5.888  33.519   1.470
64977W        W31386  30.669  31.533   1.313
64978W        W31387  18.947  42.243  13.387
64979W        W31388  44.710  28.517  11.099
64980W        W31389  32.498  34.586  11.869
64981W        W31390  29.610  24.735   2.779
64982W        W31391  29.728  29.478   5.046
64983W        W31392  34.090  32.136   2.843
64984W        W31393  24.206  39.275  10.590
64985W        W31394  12.886  39.559   3.697
64986W        W31395  26.639  33.648   1.809
64987W        W31396  14.103  21.103  14.783
64988W        W31397   0.415  35.726   2.652
64989W        W31398  40.658  18.617  14.797
64990W        W31399  41.935   7.858  10.578
64991W        W31400  36.906  18.854   3.671
64992W        W31401  31.800  16.203  13.282
64993W        W31402   9.309  22.943   3.317
64994W        W31403  14.103   3.901  14.953
64995W        W31404   3.813  38.831   4.699
64996W        W31405  13.096  36.953   3.295
64997W        W31406  20.150  33.357  14.863
64998W        W31407  41.361  40.037  13.366
64999W        W31408   7.447  44.526   1.476
65000W        W31409  17.588  29.629  14.476
65001W        W31410  39.019  44.461   0.222
65002W        W31411  16.754   2.505  14.382
65003W        W31412   2.321   9.724   0.774
65004W        W31413  18.806  12.391  13.152
65005W        W31414  35.681  34.883  14.622
65006W        W31415  18.563  41.853  13.414
65007W        W31416  13.314  13.467  13.569
65008W        W31417  19.515  21.520  12.202
65009W        W31418  10.697  11.221   3.448
65010W        W31419  33.297  10.147   1.221
65011W        W31420  30.812  38.402  12.479
65012W        W31421   2.837   0.903  10.972
65013W        W31422  41.349  39.481  10.682
65014W        W31423  42.384   1.293   4.685
65015W        W31424  24.117  41.849  12.953
65016W        W31425  17.230  40.930   4.386
65017W        W31426  31.410  44.726  14.550
65018W        W31427  28.503  38.225  11.289
65019W        W31428  31.997  35.085  11.647
65020W        W31429  14.793  38.196  13.622
65021W        W31430  31.842   7.755   1.855
65022W        W31431  20.495  16.610  14.267
65023W        W31432  32.835  32.121  11.080
65024W        W31433  10.053  29.203   0.765
65025W        W31434  43.989  22.022   3.278
65026W        W31435  30.591  16.395  14.082
65027W        W31436  33.627  38.517  11.538
65028W        W31437  30.115  14.385  12.124
65029W        W31438  14.038  29.941  13.459
65030W        W31439  21.087  20.706   2.328
65031W        W31440  10.309  12.619   3.644
65032W        W31441  27.517  32.524  11.743
65033W        W31442  12.407  25.611   4.673
65034W        W31443  31.370  16.793   3.986
65035W        W31444  25.221  19.304   2.885
65036W        W31445  20.544  12.899   3.254
65037W        W31446  26.731   6.804   3.321
65038W        W31447  37.411   2.725   4.510
65039W        W31448   5.951  31.367   3.242
65040W        W31449  12.809  16.216   2.734
65041W        W31450  14.630  12.014  12.039
65042W        W31451  13.018   3.778  11.471
65043W        W31452  42.300   7.945  13.427
65044W        W31453  32.585  12.822   3.171
65045W        W31454  20.293   3.947   4.121
65046W        W31455  37.797  38.570  13.437
65047W        W31456  25.512  18.480  11.275
65048W        W31457  10.141  37.658  11.256
65049W        W31458  29.323   4.863   3.724
65050W        W31459  37.427   5.681  14.354
65051W        W31460  22.484  34.862  12.514
65052W        W31461  40.417  28.699   3.661
65053W        W31462   4.511  12.182   2.068
65054W        W31463  22.546  21.919  14.469
65055W        W31464  35.960  14.286  10.414
65056W        W31465  31.920  21.003   0.034
65057W        W31466  31.926  34.779  13.027
65058W        W31467  41.106  37.420   4.583
65059W        W31468  33.580  18.741   0.433
65060W        W31469  11.741  27.052   4.050
65061W        W31470  21.165   0.365  11.602
65062W        W31471   7.590  14.648  13.365
65063W        W31472  19.757  20.062   0.331
65064W        W31473   9.337   3.770  10.324
65065W        W31474  26.428  14.295  11.751
65066W        W31475  15.656   3.717   3.648
65067W        W31476  24.900   0.610   0.962
65068W        W31477  14.800   6.459  10.783
65069W        W31478  20.257  12.564   4.678
65070W        W31479   6.413  25.103   2.817
65071W        W31480  43.016  19.475  13.126
65072W        W31481  16.142   4.642  10.315
65073W        W31482  42.173   0.397  13.324
65074W        W31483  42.911  28.871  11.668
65075W        W31484  42.034  31.413  12.464
65076W        W31485  21.098  27.369  13.027
65077W        W31486  25.723  26.555   3.191
65078W        W31487  22.444   8.950  10.382
65079W        W31488  28.026   3.437   0.004
65080W        W31489  38.937  19.990  13.540
65081W        W31490  43.005   8.436  12.975
65082W        W31491  15.295  33.534  12.789
65083W        W31492  39.295  27.986   2.018
65084W        W31493  39.265  26.864  13.324
65085W        W31494  33.566   2.718   2.313
65086W        W31495  44.491  17.162   3.595
65087W        W31496  13.861   9.795   0.731
65088W        W31497  31.474  15.800  13.193
65089W        W31498   6.735  31.466   3.681
65090W        W31499  12.657  35.503   2.169
65091W        W31500  10.543  24.898   1.774
65092W        W31501  16.858  27.301   1.114
65093W        W31502  33.610  32.431   4.520
65094W        W31503  11.868  16.394  13.083
65095W        W31504  16.752  15.964  13.546
65096W        W31505   6.698  15.581   2.846
65097W        W31506  44.341  31.602   4.818
65098W        W31507   0.866  34.070   4.605
65099W        W31508  44.490  36.954   5.123
65100W        W31509  35.958  18.068  13.937
65101W        W31510   3.682   9.300   1.518
65102W        W31511  42.455  32.192  13.368
65103W        W31512  12.338   3.363   3.687
65104W        W31513  25.865   6.437   3.389
65105W        W31514  21.197  32.093   4.789
65106W        W31515  28.563  28.286  13.711
65107W        W31516   0.124  18.682   0.644
65108W        W31517  11.409  39.857   4.526
65109W        W31518  27.266   1.460   3.530
65110W        W31519  44.979  13.101  12.117
65111W        W31520  20.206  41.082   2.682
65112W        W31521  33.927  17.736   3.087
65113W        W31522   9.406  19.014  14.048
65114W        W31523  33.283   6.656   3.228
65115W        W31524  37.098  17.080  12.159
65116W        W31525  39.048  28.714  13.805
65117W        W31526  24.642  17.995   1.303
65118W        W31527   7.869   1.755   0.458
65119W        W31528  27.559   5.218  12.833
65120W        W31529   7.479   4.490  12.646
65121W        W31530  23.713  15.667   4.171
65122W        W31531  32.954   5.503   2.599
65123W        W31532  25.017  26.226   1.804
65124W        W31533  38.320  24.798   3.376
65125W        W31534  31.669  35.445  13.300
65126W        W31535  23.541   5.304  11.623
65127W        W31536  28.885  14.220   3.559
65128W        W31537  27.585  23.776   4.942
65129W        W31538  42.067  14.380   5.147
65130W        W31539  21.805  12.569   2.995
65131W        W31540   4.920   5.794  13.028
65132W        W31541  36.767  38.053   1.383
65133W        W31542   7.064   6.265  11.132
65134W        W31543  41.494  27.920   1.324
65135W        W31544  21.727  40.551  12.778
65136W        W31545   6.432  22.392   1.755
65137W        W31546  34.673  24.450  11.717
65138W        W31547  29.560  28.628  12.587
65139W        W31548  15.113  36.526  13.529
65140W        W31549  30.818  38.576   0.668
65141W        W31550   5.998   1.715   2.772
65142W        W31551  10.732   7.040   0.114
65143W        W31552   8.862   1.930  13.410
65144W        W31553   1.232  15.305   1.738
65145W        W31554  18.262  19.626  14.493
65146W        W31555  24.753  20.568  11.766
65147W        W31556  26.148   9.929  12.992
65148W        W31557  18.537  40.918   0.863
65149W        W31558   4.702  28.828  11.991
65150W        W31559   7.382  13.755   2.870
65151W        W31560   8.179  28.210   4.531
65152W        W31561  26.002  21.152  13.494
65153W        W31562  22.259  32.426   2.280
65154W        W31563  11.072   7.444  13.484
65155W        W31564  30.186   7.979   3.713
65156W        W31565   9.309  44.938  10.277
65157W        W31566  13.735   8.163  11.157
65158W        W31567  34.582  40.976   4.858
65159W        W31568  13.673  18.962  10.655
65160W        W31569  30.702  11.908  12.850
65161W        W31570   2.024  41.440   4.971
65162W        W31571  19.629  13.250  11.177
65163W        W31572  20.292   4.901  13.868
65164W        W31573  25.164  19.082   5.008
65165W        W31574  32.216  22.027   1.857
65166W        W31575  22.862  33.480   0.282
65167W        W31576  35.433  11.744   0.856
65168W        W31577  32.431  36.479  11.503
65169W        W31578  17.034  36.570   4.216
65170W        W31579  31.064  22.603   1.507
65171W        W31580  20.257  32.507   3.104
65172W        W31581  27.912  34.224   4.111
65173W        W31582  31.011  26.219   0.454
65174W        W31583   6.555  18.382  13.012
65175W        W31584  37.999   0.933  14.949
65176W        W31585  16.861  15.491  13.365
65177W        W31586  38.115   5.212   4.641
65178W        W31587  22.306  24.622  10.720
65179W        W31588  21.635  40.002   3.820
65180W        W31589  28.616  41.347   4.171
65181W        W31590  24.102  39.419   2.922
65182W        W31591  31.547  23.918   0.361
65183W        W31592  20.108  15.141   3.735
65184W        W31593  33.568   8.407  14.874
65185W        W31594  24.569  38.532   0.259
65186W        W31595  10.314  40.282   2.343
65187W        W31596   5.766  18.297   4.532
65188W        W31597   9.769  35.052  10.574
65189W        W31598  11.232  43.837  13.328
65190W        W31599  36.297  34.853  11.987
65191W        W31600  41.370  10.246  12.528
65192W        W31601  25.953  26.627  10.266
65193W        W31602  38.439  13.777   3.914
65194W        W31603  22.611  38.902  10.577
65195W        W31604  28.225  30.868  13.120
65196W        W31605  33.654   7.589   1.389
65197W        W31606  19.015  26.173  10.727
65198W        W31607  16.399  33.197   0.327
65199W        W31608  24.781   8.589  12.500
65200W        W31609  32.898  20.517  13.635
65201W        W31610   8.804  40.633  13.601
65202W        W31611   5.287   2.378  12.068
65203W        W31612  15.712   4.337   9.889
65204W        W31613  28.229   2.422   0.913
65205W        W31614  17.776  40.954  12.192
65206W        W31615  41.008  36.017   2.411
65207W        W31616  26.385   5.704  11.112
65208W        W31617  27.039  25.213  10.770
65209W        W31618  11.285  26.269  14.437
65210W        W31619  19.705  38.945  12.159
65211W        W31620  20.588   6.207   0.446
65212W        W31621  38.409  11.895  11.960
65213W        W31622  39.632  32.375  13.051
65214W        W31623   7.895  15.098   4.521
65215W        W31624  17.818  30.695  12.137
65216W        W31625  17.132  31.951   0.461
65217W        W31626  19.158  37.835  13.488
65218W        W31627   1.595  37.811  12.913
65219W        W31628  14.928   4.435   4.476
65220W        W31629   9.887  31.148   5.081
65221W        W31630  35.082   2.379  11.201
65222W        W31631  28.984  23.456   4.700
65223W        W31632  39.642  20.610   4.573
65224W        W31633  16.837   0.559   2.319
65225W        W31634  22.482  44.779   3.266
65226W        W31635  38.786  32.305  12.037
65227W        W31636   1.747  29.992  14.327
65228W        W31637  43.151  35.824   4.388
65229W        W31638  26.717  28.878  14.797
65230W        W31639  27.530   8.732  14.138
65231W        W31640  24.699  34.142  13.747
65232W        W31641  13.728  35.114  14.829
65233W        W31642  22.486  36.099   0.740
65234W        W31643   9.658  43.663  12.024
65235W        W31644  41.357  44.513   4.523
65236W        W31645   3.679   5.916   3.277
65237W        W31646  23.290   0.365   1.644
65238W        W31647  22.163   6.770   1.863
65239W        W31648  27.339   2.020   0.796
65240W        W31649  16.015  24.093   3.672
65241W        W31650  23.014  37.187   4.125
65242W        W31651  20.250  11.623   2.915
65243W        W31652  32.151  31.409   0.292
65244W        W31653  27.986   6.271   2.203
65245W        W31654   2.302  43.275   3.245
65246W        W31655   9.147  16.566   3.818
65247W        W31656   0.480   4.907  10.657
65248W        W31657   7.796  12.641  14.538
65249W        W31658  41.068  20.796  13.531
65250W        W31659  35.773  18.885   2.827
65251W        W31660  27.615  40.563   0.085
65252W        W31661  42.904  36.531   4.350
65253W        W31662   0.694  37.769   2.177
65254W        W31663   8.788  19.717  14.428
65255W        W31664  19.490  43.923  11.186
65256W        W31665  44.345   3.761  13.262
65257W        W31666  43.550  20.479  14.822
65258W        W31667  32.986   0.783   2.944
65259W        W31668  44.879  27.681  14.393
65260W        W31669  19.891  35.735  11.534
65261W        W31670   9.375  31.892   4.070
65262W        W31671   9.173   8.621  13.819
65263W        W31672  41.759  10.358   1.872
65264W        W31673  37.893  19.509   0.993
65265W        W31674  41.966  10.702   0.180
65266W        W31675  44.244  27.071   0.936
65267W        W31676  19.089   9.306   4.503
65268W        W31677  40.861   7.807  12.786
65269W        W31678  25.799   4.913  12.912
65270W        W31679  39.709  26.453   0.233
65271W        W31680  25.352  15.203  10.507
65272W        W31681   1.711  12.543  12.186
65273W        W31682  29.815   9.836  12.579
65274W        W31683  31.642  11.651  14.069
65275W        W31684  39.440  26.709   4.243
65276W        W31685  29.054  20.039  14.232
65277W        W31686  28.371  44.126   1.695
65278W        W31687  12.547  27.071   1.409
65279W        W31688  18.081  40.518   4.583
65280W        W31689  41.131   8.692   4.146
65281W        W31690  37.730  15.589  12.317
65282W        W31691  29.234  37.344  13.226
65283W        W31692  42.520  30.587   4.790
65284W        W31693  39.901  39.443  12.571
65285W        W31694  30.147  33.538   4.667
65286W        W31695  39.599  41.078   3.772
65287W        W31696  22.023  31.094   3.160
65288W        W31697  21.115   3.594   0.770
65289W        W31698  24.592  10.733   1.637
65290W        W31699  13.741   5.391   3.152
65291W        W31700  16.057  18.863   1.747
65292W        W31701  14.369  19.703   4.103
65293W        W31702  27.437  36.335   1.788
65294W        W31703   1.711   9.716   4.684
65295W        W31704  39.353   6.403  11.115
65296W        W31705  15.875  24.421  11.531
65297W        W31706  11.334  22.546  13.034
65298W        W31707  21.395   0.295   4.217
65299W        W31708  33.889   7.317  14.220
65300W        W31709  30.750   1.651   2.665
65301W        W31710  25.740  34.113   0.429
65302W        W31711  32.920  41.416  10.805
65303W        W31712  38.882  40.918   1.331
65304W        W31713   1.476  19.011   3.744
65305W        W31714   9.398  10.954   4.147
65306W        W31715  29.594  43.922   1.215
65307W        W31716  38.105  32.451  12.534
65308W        W31717  12.515  34.472   3.188
65309W        W31718  33.010  20.093   2.783
65310W        W31719  40.032  28.627  13.863
65311W        W31720  41.890  43.321   4.115
65312W        W31721  14.958  30.120  14.255
65313W        W31722   3.399  35.322   3.143
65314W        W31723  20.895  29.018   4.533
65315W        W31724  33.361   9.330   3.779
65316W        W31725  29.561   6.865   0.751
65317W        W31726  33.343   9.902  14.841
65318W        W31727  41.043  34.644   2.675
65319W        W31728   4.813  20.608  11.646
65320W        W31729  40.450  12.227  10.687
65321W        W31730  41.556   4.942  14.509
65322W        W31731  19.762  44.840   1.196
65323W        W31732  24.656   1.988   2.299
65324W        W31733   5.253  36.089   2.303
65325W        W31734  39.841  14.823   0.384
65326W        W31735  43.501  12.593   3.610
65327W        W31736  41.480  40.007  14.354
65328W        W31737  20.664  27.116   2.162
65329W        W31738  38.364  30.561  14.892
65330W        W31739  29.069   4.961  14.044
65331W        W31740  27.290  22.421  14.966
65332W        W31741  39.865  28.269  11.443
65333W        W31742  14.956  43.824  12.003
65334W        W31743  24.545  28.740   4.323
65335W        W31744  16.939   0.410   9.892
65336W        W31745  13.301   6.459   3.653
65337W        W31746  12.629  43.876  13.851
65338W        W31747  12.108   4.259   0.918
65339W        W31748  39.518  43.714   2.567
65340W        W31749   7.804  21.154  13.120
65341W        W31750  43.520   2.069  11.700
65342W        W31751  10.685  28.205  12.345
65343W        W31752  30.711  31.095  13.749
65344W        W31753  14.853  43.682  10.237
65345W        W31754  30.460   5.346   2.825
65346W        W31755  42.497  29.179  11.497
65347W        W31756   5.161   9.426   2.715
65348W        W31757   8.681  14.896   0.051
65349W        W31758   8.833  21.492  10.964
65350W        W31759  15.603  43.386   2.195
65351W        W31760  24.375   4.397   4.189
65352W        W31761  44.336  17.928  10.331
65353W        W31762   1.012  25.843  14.053
65354W        W31763  22.810   0.699   3.446
65355W        W31764  18.265  22.309   0.205
65356W        W31765   8.815  19.572  12.890
65357W        W31766  12.748  10.367  12.039
65358W        W31767  26.911  25.079  14.830
65359W        W31768  44.428  20.145  11.524
65360W        W31769  40.255  24.455   2.636
65361W        W31770  23.520  43.390   2.302
65362W        W31771  23.871  31.989   1.433
65363W        W31772  38.466  16.884  11.135
65364W        W31773  35.343   1.327  13.207
65365W        W31774  26.438   3.699   3.769
65366W        W31775  37.246  37.892  14.517
65367W        W31776  22.964  18.987   3.344
65368W        W31777  44.379   3.493   5.059
65369W        W31778  30.135   9.810  14.793
65370W        W31779  23.066   0.943   2.911
65371W        W31780  27.808  39.769   2.646
65372W        W31781  19.737  26.495   2.878
65373W        W31782  25.401   7.473   0.883
65374W        W31783  39.454   3.641   1.321
65375W        W31784  32.221  10.781   3.740
65376W        W31785  15.072  37.226   3.150
65377W        W31786  37.425  31.660  14.069
65378W        W31787   1.781  23.517  13.953
65379W        W31788  41.196  31.636  12.855
65380W        W31789  14.085  29.071  13.500
65381W        W31790  24.554  43.098  14.087
65382W        W31791  19.750  37.397  12.821
65383W        W31792   4.381  30.145  13.088
65384W        W31793  24.536  14.945   4.633
65385W        W31794  22.982   6.426  12.850
65386W        W31795  37.499  16.412  11.534
65387W        W31796  34.657  21.749  12.100
65388W        W31797  17.242   0.859   0.227
65389W        W31798  21.242  34.187  11.621
65390W        W31799  32.331  32.960  11.076
65391W        W31800   0.078  10.492  10.701
65392W        W31801  30.871  31.639   3.646
65393W        W31802   1.250  17.487   2.396
65394W        W31803  29.532  25.404  13.387
65395W        W31804  23.067  41.289  11.642
65396W        W31805  42.797   3.248  14.295
65397W        W31806  12.541  34.364   0.288
65398W        W31807  18.840  14.628   1.505
65399W        W31808  22.013  40.468   2.348
65400W        W31809  17.640  21.605   0.923
65401W        W31810  30.770  21.168   4.747
65402W        W31811   7.890  30.278  12.413
65403W        W31812  41.415  42.968  12.142
65404W        W31813  27.330  39.108   2.285
65405W        W31814  27.181   4.063   3.271
65406W        W31815  17.531  35.344   5.017
65407W        W31816   8.221   9.704   0.037
65408W        W31817  32.970   7.406   1.336
65409W        W31818  20.662  44.416   4.259
65410W        W31819  10.306  30.163  13.989
65411W        W31820  14.496  26.751  11.966
65412W        W31821  27.031  37.772   0.015
65413W        W31822   5.863  11.648   1.839
65414W        W31823  40.976  26.208  13.988
65415W        W31824   6.790  36.154  12.489
65416W        W31825  38.996  10.250  13.811
65417W        W31826   5.156  10.780   0.798
65418W        W31827  26.327   9.775   3.530
65419W        W31828   9.286  19.154  12.468
65420W        W31829  35.654  43.896  13.606
65421W        W31830  32.436  32.471  11.107
65422W        W31831  15.165   6.925  12.456
65423W        W31832  43.583   7.218  12.027
65424W        W31833  14.349  22.334  13.458
65425W        W31834  33.357  29.727   2.712
65426W        W31835  19.280  11.082   0.858
65427W        W31836   9.422   3.055  14.995
65428W        W31837  16.400   9.849   4.453
65429W        W31838  20.059   4.876   5.023
65430W        W31839   7.464  25.017   1.723
65431W        W31840  11.825  41.012   2.633
65432W        W31841  12.084  15.095   3.621
65433W        W31842  24.398   0.421  11.022
65434W        W31843  39.850  23.833   3.921
65435W        W31844  23.688  34.217   4.102
65436W        W31845  13.557  42.493   3.177
65437W        W31846  36.384   3.557   2.643
65438W        W31847  15.792  33.395  12.846
65439W        W31848   3.162  42.459  14.427
65440W        W31849  27.881  17.147   1.120
65441W        W31850  30.436  36.706  12.138
65442W        W31851  33.411  36.897  10.330
65443W        W31852  23.523   6.775  10.697
65444W        W31853  28.202  21.269  13.946
65445W        W31854  20.020   7.591   0.832
65446W        W31855  44.071   2.401   4.389
65447W        W31856  41.764   9.215  14.844
65448W        W31857  26.960  38.404   0.734
65449W        W31858  38.889  27.471  14.904
65450W        W31859  17.689  35.685  14.373
65451W        W31860  15.743  39.321   3.408
65452W        W31861  16.807  18.685   2.334
65453W        W31862  26.705   7.816  14.870
65454W        W31863  38.891   0.867  14.991
65455W        W31864  27.143  21.500   4.200
65456W        W31865  34.575   3.723   3.627
65457W        W31866  37.261  12.575   2.212
65458W        W31867  16.093  26.640   1.479
65459W        W31868  37.253   0.725   2.512
65460W        W31869  14.724   4.108   0.970
65461W        W31870  15.251  38.921   1.710
65462W        W31871   7.727  39.550  13.458
65463W        W31872  37.815  42.258   1.153
65464W        W31873  33.282  22.552  13.377
65465W        W31874  14.541  30.064  11.164
65466W        W31875  34.903  17.468   2.795
65467W        W31876  39.622  15.274  11.004
65468W        W31877   6.945  17.519   0.820
65469W        W31878  26.521  37.710   4.109
65470W        W31879  41.844   3.067   3.407
65471W        W31880   5.282  14.789  11.416
65472W        W31881  13.999  32.416   5.566
65473W        W31882  21.569  27.220  13.103
65474W        W31883  28.490  15.988  14.216
65475W        W31884  21.118  44.503  11.605
65476W        W31885  30.497  43.774   3.665
65477W        W31886   6.984   9.591  12.877
65478W        W31887  28.372  12.396  11.017
65479W        W31888   2.511  14.647   4.791
65480W        W31889   0.892  21.161   5.329
65481W        W31890  44.852  21.570  13.482
65482W        W31891  17.542   3.259   1.172
65483W        W31892  28.075  12.024  12.596
65484W        W31893   9.736   5.268   1.323
65485W        W31894   4.298  18.092  12.492
65486W        W31895  39.336  21.621   0.063
65487W        W31896  39.825  14.065   1.168
65488W        W31897  25.524  22.722   1.175
65489W        W31898  13.536  29.379   1.340
65490W        W31899  19.237  37.394  14.269
65491W        W31900  23.247  27.310   1.499
65492W        W31901   4.273   1.650  13.000
65493W        W31902   2.088  22.941  13.274
65494W        W31903  14.351   2.724  13.407
65495W        W31904   4.807  11.602  14.545
65496W        W31905  22.730   7.791   3.124
65497W        W31906   3.680  41.456   3.186
65498W        W31907  37.008  31.971   2.418
65499W        W31908  30.703  17.155  11.393
65500W        W31909  41.314  17.191   2.326
65501W        W31910  20.588   8.745  12.763
65502W        W31911   1.522  10.203   4.861
65503W        W31912  22.918  11.243   0.304
65504W        W31913  36.296  16.488   0.084
65505W        W31914  25.533  13.283  14.885
65506W        W31915  37.626  29.862  11.655
65507W        W31916  43.978  42.897  12.826
65508W        W31917  32.404   9.388   2.346
65509W        W31918   7.935   0.221  13.806
65510W        W31919  15.029   3.827  11.163
65511W        W31920  11.728  30.194   2.583
65512W        W31921   6.181  34.513  13.047
65513W        W31922   2.416  22.299  11.101
65514W        W31923  27.294  28.883   0.339
65515W        W31924  36.808   7.952   3.612
65516W        W31925  29.658   4.860  12.884
65517W        W31926  30.996   0.242  10.750
65518W        W31927   8.177   3.280  10.590
65519W        W31928  26.442  38.980  12.439
65520W        W31929  38.096  17.147  12.108
65521W        W31930   0.763  14.890  13.398
65522W        W31931   5.360   7.723   4.105
65523W        W31932  33.029  16.313   1.651
65524W        W31933  16.714  38.051   2.584
65525W        W31934   7.385  19.828  12.530
65526W        W31935  14.766  28.202   3.819
65527W        W31936  26.634  44.857  12.767
65528W        W31937  44.438  34.880   2.668
65529W        W31938  18.257  26.726   1.422
65530W        W31939  22.477  18.865   0.319
65531W        W31940  34.408  14.477  12.539
65532W        W31941  43.159  31.527   2.377
65533W        W31942   5.797   4.518  12.539
65534W        W31943  37.484  25.891   4.762
65535W        W31944  34.840  31.979  14.763
65536W        W31945  16.244  39.981   2.740
65537W        W31946  11.381  24.561   1.977
65538W        W31947   5.753  42.921  13.930
65539W        W31948  10.714   8.185   4.534
65540W        W31949  38.389  24.076   4.758
65541W        W31950  12.293   2.524   4.969
65542W        W31951  23.047  10.968  11.940
65543W        W31952  43.788  37.523  10.672
65544W        W31953  37.155  15.462   1.658
65545W        W31954  19.073  33.016   4.469
65546W        W31955  19.654  11.970  11.625
65547W        W31956   4.327   8.774  11.634
65548W        W31957  43.864  34.839  13.289
65549W        W31958  31.454   4.681   2.310
65550W        W31959  27.038  36.169   3.454
65551W        W31960  13.192   6.645  14.926
65552W        W31961  35.192  34.891   0.964
65553W        W31962  31.414  28.041  10.699
65554W        W31963  24.022  36.815   1.760
65555W        W31964  20.820  32.861   0.316
65556W        W31965  34.073  39.341   1.910
65557W        W31966   5.228  32.795   1.629
65558W        W31967  18.147  30.921  10.442
65559W        W31968   1.353  31.383  13.939
65560W        W31969   8.333  43.881  12.825
65561W        W31970  22.610  39.895   3.873
65562W        W31971  18.238  38.948  11.927
65563W        W31972   5.925  28.929   4.956
65564W        W31973   0.748  39.880   0.237
65565W        W31974  42.555  42.344   4.697
65566W        W31975  12.257  22.055  13.929
65567W        W31976  34.811  36.976  13.022
65568W        W31977  17.006  35.199   4.159
65569W        W31978  42.848  37.980   2.224
65570W        W31979  30.091  32.663  11.247
65571W        W31980  42.889  11.370   0.906
65572W        W31981   5.230  44.354   0.905
65573W        W31982   1.207  38.023   1.325
65574W        W31983  21.494   5.726   0.301
65575W        W31984  35.047  36.793  14.755
65576W        W31985  44.147  36.348   1.539
65577W        W31986  41.457  42.816   0.458
65578W        W31987  10.736  38.595   0.856
65579W        W31988  20.174  22.220  14.011
65580W        W31989   5.449  38.797   4.149
65581W        W31990  31.992   7.775  10.602
65582W        W31991  34.087  18.871   4.171
65583W        W31992  39.357   1.160   2.859
65584W        W31993   4.963  39.008   4.206
65585W        W31994   6.249   1.683  11.636
65586W        W31995  31.313   3.214  12.560
65587W        W31996   5.687  44.845   1.630
65588W        W31997  40.259  15.049  11.383
65589W        W31998   2.932   5.442  11.585
65590W        W31999   5.032  17.125  10.666
65591W        W32000   9.904  23.652   2.639
65592W        W32001  33.194  32.463   1.885
65593W        W32002   5.217  11.888  12.102
65594W        W32003  28.294  40.425  12.385
65595W        W32004  15.474  40.464  10.926
65596W        W32005  33.916  34.607  10.421
65597W        W32006  13.558  22.449  14.931
65598W        W32007  24.460  18.207   1.793
65599W        W32008  43.363  17.571   4.086
65600W        W32009  14.412  23.175   1.191
65601W        W32010  36.498   6.720  11.636
65602W        W32011  32.328   3.291   2.169
65603W        W32012   0.885   2.772  11.118
65604W        W32013  27.161  27.452   1.755
65605W        W32014  21.621  42.298  10.696
65606W        W32015  25.629  33.561  11.136
65607W        W32016   1.863  30.924   2.922
65608W        W32017  36.333  16.126   3.894
65609W        W32018   0.943  22.048   5.027
65610W        W32019  42.644  17.275  12.864
65611W        W32020  21.365  16.299  14.469
65612W        W32021   5.838  19.469  14.263
65613W        W32022  17.282  37.047   4.254
65614W        W32023  22.343  15.613  11.554
65615W        W32024  38.347  38.860   2.338
65616W        W32025   0.325  27.538   2.713
65617W        W32026   9.078  36.145   1.472
65618W        W32027  16.158  13.267   1.250
65619W        W32028  12.655   8.531  13.573
65620W        W32029   5.681  41.518  12.493
65621W        W32030  21.681  35.789   1.113
65622W        W32031  13.356   8.228   3.135
65623W        W32032   4.701   2.177   0.898
65624W        W32033  10.887  18.251   0.360
65625W        W32034   8.533  11.252   0.234
65626W        W32035   7.667  36.107  12.581
65627W        W32036  20.653  39.253   1.282
65628W        W32037   8.443  30.778  10.775
65629W        W32038  42.328  38.402   1.955
65630W        W32039  12.091  25.949  12.066
65631W        W32040  34.510  14.534   3.147
65632W        W32041  38.919  43.743  14.546
65633W        W32042  27.149  26.511  14.439
65634W        W32043   0.172  11.579  13.961
65635W        W32044   3.760  18.121   1.337
65636W        W32045  38.524   8.876   4.499
65637W        W32046  20.751   7.335  14.261
65638W        W32047   3.766   7.823  12.790
65639W        W32048  19.650   1.268  14.776
65640W        W32049   7.948  18.287  14.489
65641W        W32050  24.116  26.394  14.622
65642W        W32051  44.004  36.026  11.370
65643W        W32052   9.578  17.437  12.716
65644W        W32053  18.162  43.903   4.098
65645W        W32054  21.253  10.391   0.466
65646W        W32055  17.957  39.003  12.359
65647W        W32056   5.266   8.267   1.909
65648W        W32057   6.950  16.862   1.572
65649W        W32058  10.608  21.181   0.345
65650W        W32059   9.416  13.635  13.176
65651W        W32060  40.555  37.617   0.739
65652W        W32061  39.265   9.397   2.941
65653W        W32062  15.614  38.526   3.740
65654W        W32063  36.509  31.473  12.541
65655W        W32064  31.989  30.047   0.488
65656W        W32065  16.580  24.463   2.211
65657W        W32066  18.129  28.057   0.900
65658W        W32067  15.093  10.283  12.813
65659W        W32068  17.547   4.826  10.762
65660W        W32069   7.879  29.452   0.419
65661W        W32070   2.417  23.420  14.584
65662W        W32071  17.163   0.676  13.812
65663W        W32072  27.341  36.054  13.466
65664W        W32073  40.984  44.763  13.363
65665W        W32074  38.514  16.476  11.475
65666W        W32075  21.830   0.316   3.317
65667W        W32076   9.580  18.260  12.629
65668W        W32077  20.989   7.094   4.552
65669W        W32078   9.534  22.448  10.415
65670W        W32079  32.456  23.000   0.838
65671W        W32080  41.427  12.732  13.964
65672W        W32081  27.171   4.717  14.781
65673W        W32082  39.909  34.319   3.594
65674W        W32083   7.149  39.404   1.506
65675W        W32084  22.612  41.941   2.244
65676W        W32085  27.738  28.556   2.363
65677W        W32086  19.217   5.822   3.145
65678W        W32087  32.387  10.781  10.548
65679W        W32088   4.486  40.419  13.969
65680W        W32089  22.012   0.110   2.683
65681W        W32090  17.511   7.531   4.235
65682W        W32091  43.114   0.427  14.157
65683W        W32092  15.142  32.747   1.716
65684W        W32093  31.325  36.966   1.291
65685W        W32094  19.246  25.175   0.366
65686W        W32095  32.981   0.561  10.773
65687W        W32096  17.594  32.174   0.346
65688W        W32097  38.856  14.669  11.048
65689W        W32098  24.396  13.633  14.466
65690W        W32099  44.807  32.587  10.693
65691W        W32100  21.737   3.318   1.923
65692W        W32101  22.097  27.737   4.370
65693W        W32102   9.393  22.469   1.187
65694W        W32103  11.219  23.599   1.754
65695W        W32104   8.970  21.826  14.389
65696W        W32105  19.455  15.761   3.403
65697W        W32106   2.360  36.475   3.245
65698W        W32107  11.626  36.135  10.206
65699W        W32108  12.873  20.902  13.464
65700W        W32109  29.627  41.900  13.842
65701W        W32110  20.020  29.548   4.605
65702W        W32111  34.589  44.250   4.885
65703W        W32112   7.854   4.280   0.451
65704W        W32113  21.724   0.973   0.778
65705W        W32114  22.586  25.857  11.442
65706W        W32115   4.675   8.891  14.608
65707W        W32116  29.148  42.426   1.260
65708W        W32117  22.570  40.022  12.538
65709W        W32118  35.275  31.166   0.764
65710W        W32119  21.209  42.536  11.569
65711W        W32120  21.606   2.237   1.301
65712W        W32121   5.319  15.257  11.108
65713W        W32122  12.251   4.731  13.465
65714W        W32123  20.141  15.696   1.841
65715W        W32124   9.818  30.132   5.209
65716W        W32125  44.049  21.646   4.204
65717W        W32126  19.075  36.287   2.775
65718W        W32127   3.388  20.676  11.903
65719W        W32128  28.736  44.437  13.879
65720W        W32129  42.603  32.564   3.760
65721W        W32130  36.007   8.031  12.559
65722W        W32131  10.331  44.524  12.849
65723W        W32132  29.131  31.311  13.911
65724W        W32133  39.005   3.485  14.530
65725W        W32134  13.731  18.026  12.654
65726W        W32135   2.286  20.318   3.883
65727W        W32136  14.583   0.735   4.162
65728W        W32137  10.643   8.785  14.852
65729W        W32138  32.980   7.313  13.741
65730W        W32139  17.138  35.112  11.928
65731W        W32140  32.045   3.199  13.043
65732W        W32141   2.994   9.282  13.679
65733W        W32142  31.099  42.369   0.462
65734W        W32143  33.566  35.572   0.416
65735W        W32144  42.369  10.930   3.114
65736W        W32145  25.088   9.873   3.238
65737W        W32146  34.391  11.640   4.627
65738W        W32147  35.384  17.381   0.314
65739W        W32148  27.633  12.159   1.268
65740W        W32149  35.770  20.630  10.798
65741W        W32150  39.834  22.459  11.682
65742W        W32151   1.000  34.224   5.080
65743W        W32152  38.484  43.012   2.944
65744W        W32153  22.758   5.960  14.833
65745W        W32154  30.093   1.778  13.750
65746W        W32155   2.225  38.123  11.611
65747W        W32156   0.341  38.078  14.852
65748W        W32157  15.012   6.177   3.085
65749W        W32158   3.746   3.618  11.206
65750W        W32159  12.044  28.893  12.930
65751W        W32160  10.409  22.067   4.099
65752W        W32161  29.551  43.325   2.666
65753W        W32162  21.992  28.640  14.739
65754W        W32163  14.722   7.017   2.184
65755W        W32164  38.687  22.153   2.823
65756W        W32165  40.222  36.838   3.882
65757W        W32166   0.729  31.420  12.901
65758W        W32167   9.646  19.162   0.841
65759W        W32168   4.701   1.163   4.588
65760W        W32169  42.064   3.496  13.608
65761W        W32170  32.255  34.927  12.643
65762W        W32171   8.501   6.866  13.399
65763W        W32172   6.685  12.246   1.733
65764W        W32173  30.997   4.949   1.617
65765W        W32174  24.798  13.699  12.715
65766W        W32175   4.849  37.669  11.093
65767W        W32176  19.243  26.427   3.085
65768W        W32177   4.527  25.141   9.798
65769W        W32178  21.142  10.329   1.373
65770W        W32179   5.345  19.347   4.966
65771W        W32180  31.485  14.170   4.374
65772W        W32181   1.538  15.522  12.049
65773W        W32182   8.562  29.182  10.642
65774W        W32183   5.299  13.765  11.620
65775W        W32184  41.679  34.773   3.668
65776W        W32185  23.117   5.265  14.293
65777W        W32186  44.505  24.511  12.848
65778W        W32187  21.361   4.740   1.798
65779W        W32188  10.127  18.036   4.041
65780W        W32189  17.275  39.820  12.595
65781W        W32190  13.680  32.740  10.248
65782W        W32191  30.653  34.062   2.843
65783W        W32192   2.393  21.149  14.290
65784W        W32193  24.935  31.810  13.468
65785W        W32194  29.536   5.276  13.783
65786W        W32195   5.446  15.782  11.194
65787W        W32196  10.880  11.768   3.841
65788W        W32197  29.821   1.455  14.549
65789W        W32198  28.272  23.178   3.282
65790W        W32199   0.466  40.546  11.992
65791W        W32200  21.596  27.451   2.105
65792W        W32201  39.488  11.089   1.253
65793W        W32202  20.936   0.712   1.166
65794W        W32203  19.754  43.441   0.343
65795W        W32204  38.532  11.403  14.331
65796W        W32205  17.160   9.437  12.873
65797W        W32206  33.909  28.916  14.446
65798W        W32207   8.291  20.055   1.284
65799W        W32208   9.392  14.395  13.890
65800W        W32209  27.009  34.444   1.626
65801W        W32210  23.984  14.409   4.242
65802W        W32211  32.037   7.247  11.977
65803W        W32212  32.968  33.983   2.966
65804W        W32213   6.609  35.045   1.792
65805W        W32214   4.223   7.485  12.122
65806W        W32215  21.337  37.668  11.134
65807W        W32216  19.454  23.304  13.071
65808W        W32217  17.633  20.615   9.853
65809W        W32218  43.543   1.175   4.256
65810W        W32219   9.871  40.546  13.783
65811W        W32220  39.888  42.400   4.571
65812W        W32221  28.040  30.729   1.695
65813W        W32222   8.643  28.021   4.972
65814W        W32223  35.318   7.360  11.523
65815W        W32224   7.810  13.397   0.256
65816W        W32225  21.264  44.936  11.856
65817W        W32226  23.685  37.902  11.622
65818W        W32227  22.558   9.197  11.565
65819W        W32228   8.194  30.575   2.732
65820W        W32229   9.447  28.955   1.845
65821W        W32230  10.811  19.751  13.251
65822W        W32231  16.843   0.278  13.885
65823W        W32232  28.331  17.739  13.910
65824W        W32233  39.263  12.280  14.820
65825W        W32234   2.513  14.331   3.884
65826W        W32235   1.923  23.688  12.578
65827W        W32236  15.269   3.263   4.772
65828W        W32237  22.687  24.117  11.856
65829W        W32238  21.026  16.609   3.747
65830W        W32239  33.529  14.516   1.146
65831W        W32240  41.366   5.715  13.927
65832W        W32241  18.720  44.180   3.084
65833W        W32242  35.983   1.562  11.101
65834W        W32243   4.398   7.094   0.883
65835W        W32244  33.862  15.818   0.773
65836W        W32245   2.192   6.326   4.133
65837W        W32246  31.167  40.145  11.705
65838W        W32247  39.077  42.998  11.982
65839W        W32248  29.125   7.716   4.542
65840W        W32249  35.547  21.412   1.857
65841W        W32250  32.244  29.640   2.808
65842W        W32251  43.790  11.277  13.818
65843W        W32252   8.913   4.857   4.516
65844W        W32253  34.948  12.671   0.940
65845W        W32254  37.530   2.415   2.644
65846W        W32255  19.859  21.053   4.091
65847W        W32256  44.404  27.522  10.144
65848W        W32257  22.394   7.211   0.738
65849W        W32258   0.570  23.854  10.766
65850W        W32259  38.576  33.612  11.143
65851W        W32260   2.658  41.479   3.132
65852W        W32261  31.971  19.531   2.497
65853W        W32262  16.396  42.381   1.575
65854W        W32263  30.016  43.402   4.701
65855W        W32264   0.437  33.784  11.529
65856W        W32265  32.147  37.567   2.795
65857W        W32266   3.962   6.484  13.411
65858W        W32267  43.671   5.360  10.570
65859W        W32268  14.053  10.593  13.981
65860W        W32269  10.924   2.275  11.290
65861W        W32270  28.141   5.619  10.930
65862W        W32271  27.059   2.312  12.019
65863W        W32272   9.114  11.717  13.500
65864W        W32273  28.190  26.694  11.116
65865W        W32274  32.187   8.757  10.824
65866W        W32275  21.588  25.077   3.251
65867W        W32276  42.888  11.441  13.644
65868W        W32277   6.005  38.677  13.954
65869W        W32278  10.899  31.552   3.745
65870W        W32279  31.953   9.402   1.444
65871W        W32280  24.735  10.112  10.298
65872W        W32281  31.220  35.686   1.893
65873W        W32282  32.134  17.371   1.691
65874W        W32283  43.340  35.559  13.305
65875W        W32284  38.434  20.053  14.876
65876W        W32285  30.681  35.866   3.027
65877W        W32286  26.210  20.963   3.270
65878W        W32287  13.732  42.302  11.733
65879W        W32288  38.837  12.958  10.717
65880W        W32289  24.875  39.876   0.344
65881W        W32290   7.246  31.356   3.599
65882W        W32291  19.220  21.574   2.110
65883W        W32292  24.704   2.486  13.288
65884W        W32293  36.307  36.333   0.770
65885W        W32294  26.992  40.215   3.694
65886W        W32295  37.387   4.935  13.826
65887W        W32296  18.491  37.598   5.069
65888W        W32297  17.078  11.009  10.530
65889W        W32298   0.327  20.289  14.995
65890W        W32299   9.428  22.273  14.876
65891W        W32300  16.789  22.224  14.428
65892W        W32301   9.561  18.639   3.241
65893W        W32302  20.510  35.486   4.784
65894W        W32303  26.429  36.887  14.267
65895W        W32304   5.550  33.818  13.460
65896W        W32305  22.866  34.479  12.466
65897W        W32306  14.757   8.420   2.381
65898W        W32307   0.139  24.937   3.707
65899W        W32308  27.532  42.482  14.298
65900W        W32309  38.913   5.353  12.498
65901W        W32310  29.181  12.060  10.251
65902W        W32311  41.528  23.655   3.103
65903W        W32312  25.888  11.896   3.777
65904W        W32313  23.940  40.058   3.617
65905W        W32314  44.329  44.853  11.802
65906W        W32315   7.362  22.309   1.816
65907W        W32316  27.104  40.505   1.352
65908W        W32317  15.370  12.288   4.600
65909W        W32318  27.006  38.086  10.647
65910W        W32319  32.987   5.966  14.091
65911W        W32320   2.063   4.409  11.175
65912W        W32321  39.804  39.883  12.319
65913W        W32322   7.422   6.516   0.363
65914W        W32323  29.206  32.852  13.074
65915W        W32324  11.993  35.618  14.919
65916W        W32325   7.661  13.677  14.288
65917W        W32326   4.419   0.256   2.434
65918W        W32327  37.850  37.889   4.661
65919W        W32328  27.231   2.670   1.894
65920W        W32329  41.014  37.124  10.681
65921W        W32330  32.710   4.450   3.737
65922W        W32331  41.148  27.763  12.700
65923W        W32332   6.365  39.647  11.487
65924W        W32333  18.745   2.268  12.940
65925W        W32334   1.869   6.184  11.216
65926W        W32335  31.395  30.192   4.798
65927W        W32336  34.394  34.968   2.531
65928W        W32337  20.838  28.178   4.521
65929W        W32338   3.922  31.848  13.517
65930W        W32339  25.558   4.205   2.906
65931W        W32340   2.814  10.840  12.276
65932W        W32341  23.253  20.840  12.734
65933W        W32342  25.404  20.866  10.620
65934W        W32343   3.417  15.827   2.603
65935W        W32344  34.604  29.323   0.028
65936W        W32345  27.769  44.383   4.108
65937W        W32346  18.107   2.662  14.913
65938W        W32347  30.364  32.225   4.761
65939W        W32348  38.371  14.118  13.259
65940W        W32349  39.262  32.029   4.113
65941W        W32350  18.755  11.508  13.486
65942W        W32351  11.402  27.074  12.215
65943W        W32352  23.321  38.693  13.404
65944W        W32353   9.257  25.962  12.999
65945W        W32354  32.552  27.551  10.716
65946W        W32355   9.488  11.825   4.987
65947W        W32356  15.820  23.178  12.068
65948W        W32357  38.103  18.944   1.724
65949W        W32358  16.637  15.753  10.772
65950W        W32359  41.084   9.696   1.788
65951W        W32360  40.262  36.106  11.537
65952W        W32361   4.193  18.033  11.634
65953W        W32362  13.760  20.756   0.806
65954W        W32363  21.482  43.185   1.909
65955W        W32364  32.989  15.691  11.640
65956W        W32365  19.760  31.260   1.962
65957W        W32366  43.153   7.335   4.324
65958W        W32367   1.506  39.547   3.292
65959W        W32368  35.336  18.542   4.358
65960W        W32369  21.172  26.579  12.620
65961W        W32370  14.302  20.454  12.055
65962W        W32371  42.698  38.897  14.143
65963W        W32372   8.419  43.102   4.485
65964W        W32373  24.065  31.367  11.173
65965W        W32374  25.604  35.106   4.470
65966W        W32375   9.833  44.493  12.833
65967W        W32376  36.644  10.723   0.860
65968W        W32377  30.442  44.074   3.230
65969W        W32378  17.285   1.826   2.667
65970W        W32379  35.966  29.687  12.838
65971W        W32380  33.605  43.860   4.056
65972W        W32381  21.698  31.053   4.157
65973W        W32382  30.852  36.331  12.089
65974W        W32383  27.043  11.685  11.056
65975W        W32384  15.637   0.382   3.227
65976W        W32385  34.192  17.589  10.742
65977W        W32386  27.672  14.646  13.533
65978W        W32387  44.528  20.631   0.793
65979W        W32388  15.628  26.695  14.394
65980W        W32389  42.950  44.184  11.143
65981W        W32390  37.382  36.911   3.751
65982W        W32391  23.567  33.395  11.557
65983W        W32392  11.896   1.604  13.957
65984W        W32393  42.716  39.792  11.589
65985W        W32394  36.264  31.005   2.239
65986W        W32395  39.881  27.568   3.083
65987W        W32396  17.658  32.170  14.344
65988W        W32397  11.034   2.604   2.781
65989W        W32398  34.827  21.288  10.328
65990W        W32399  29.895   7.788   0.451
65991W        W32400  12.636  17.712   3.567
65992W        W32401  42.614  26.674   0.579
65993W        W32402   8.454  36.050  11.655
65994W        W32403  31.376  18.661  11.411
65995W        W32404  38.036   1.788   4.250
65996W        W32405  10.332  20.776  12.902
65997W        W32406  30.051  11.506   3.160
65998W        W32407  12.641   0.787   2.219
65999W        W32408  43.736  34.245   0.202
66000W        W32409  19.742  13.601   4.286
66001W        W32410   5.298  16.176   1.984
66002W        W32411   9.728  34.426   1.539
66003W        W32412  43.804  14.881   2.594
66004W        W32413  11.709  24.502  12.488
66005W        W32414  44.564   3.976  12.846
66006W        W32415  20.178  39.527   1.659
66007W        W32416  41.420  13.186  12.073
66008W        W32417   6.467  20.350   2.874
66009W        W32418  21.273  20.040  11.986
66010W        W32419  35.054  43.254  11.639
66011W        W32420  29.523  42.805   2.681
66012W        W32421  18.407  34.655   1.848
66013W        W32422  22.773  29.849  12.446
66014W        W32423  22.784  32.152   3.635
66015W        W32424   2.529  31.731  11.542
66016W        W32425   8.422   5.373  10.718
66017W        W32426   1.580  30.618   0.277
66018W        W32427   6.450  22.682   4.665
66019W        W32428  33.650  32.204   5.009
66020W        W32429  37.180  17.038  13.014
66021W        W32430  36.070  27.883   2.928
66022W        W32431   1.206  34.135   1.973
66023W        W32432  41.566  20.639   1.673
66024W        W32433  36.363  41.870   4.564
66025W        W32434  13.017  33.024  13.569
66026W        W32435  44.568   3.224  14.766
66027W        W32436  36.737   9.570  13.600
66028W        W32437   1.099  31.267   3.291
66029W        W32438  44.320  15.713   2.749
66030W        W32439  14.872  25.710   3.300
66031W        W32440  44.376  15.916  14.348
66032W        W32441  42.909  43.875   3.091
66033W        W32442  11.675  41.957  10.350
66034W        W32443   2.436   7.219   9.550
66035W        W32444   7.370  10.996   3.991
66036W        W32445  30.080  41.863   2.418
66037W        W32446  13.326  41.825   4.624
66038W        W32447  15.829  25.535   0.204
66039W        W32448   8.442  10.237  14.211
66040W        W32449   5.719  23.590  12.449
66041W        W32450  26.693  42.523  13.004
66042W        W32451  27.514  38.228  11.975
66043W        W32452  34.942   9.943   3.657
66044W        W32453   9.712  17.001   2.788
66045W        W32454  35.980  39.728  11.520
66046W        W32455  16.737  22.153  13.448
66047W        W32456   0.218  34.559  10.460
66048W        W32457  44.408  42.820  13.888
66049W        W32458  17.334  33.564  11.208
66050W        W32459   6.105  18.713  11.320
66051W        W32460  30.532  24.643   4.192
66052W        W32461  42.495  16.005   4.889
66053W        W32462  10.443  44.404   3.330
66054W        W32463  15.591  30.645   4.591
66055W        W32464  39.904   7.619  12.060
66056W        W32465  21.426  14.350  10.197
66057W        W32466  34.604   2.880   3.551
66058W        W32467  25.278  15.924   2.254
66059W        W32468  32.470  35.475  12.504
66060W        W32469  13.214  26.671  10.139
66061W        W32470  31.846  38.386  14.220
66062W        W32471   8.136  37.130   3.806
66063W        W32472  22.054  37.971  14.333
66064W        W32473  33.293  29.753  12.208
66065W        W32474  22.488  40.388   2.154
66066W        W32475  11.525  37.735   1.654
66067W        W32476  21.495  34.425   3.638
66068W        W32477   4.403  29.377  11.742
66069W        W32478   8.642  41.538  10.784
66070W        W32479   0.224  35.441   1.208
66071W        W32480  19.264  26.590   1.193
66072W        W32481  30.542  16.224   1.010
66073W        W32482  18.755  44.310  11.053
66074W        W32483  34.532  29.251  12.576
66075W        W32484   5.974  36.519   2.731
66076W        W32485  43.373   7.935   0.318
66077W        W32486  41.494  24.159   4.410
66078W        W32487  25.721   5.380   2.228
66079W        W32488   8.991   3.958  12.605
66080W        W32489  25.955   5.132   1.699
66081W        W32490  22.653  10.534  13.793
66082W        W32491  17.751  42.222   2.708
66083W        W32492  44.362   1.244   3.795
66084W        W32493  22.682   4.827   1.370
66085W        W32494  44.205  34.039  13.493
66086W        W32495  23.205   7.400   3.954
66087W        W32496  14.245  43.536  13.172
66088W        W32497  29.619  31.016  14.379
66089W        W32498   6.725   0.451  13.371
66090W        W32499  17.123   2.325   2.604
66091W        W32500  13.783  14.621   4.647
66092W        W32501   7.867  24.709   0.028
66093W        W32502   4.094   8.914   4.118
66094W        W32503   6.865  22.047  13.975
66095W        W32504  36.958  29.200  11.775
66096W        W32505  25.002  38.310  10.588
66097W        W32506  35.814  20.109   3.401
66098W        W32507   1.329  20.563  14.315
66099W        W32508  35.888  38.410   1.732
66100W        W32509  35.361  10.269  10.617
66101W        W32510  24.656  15.555   1.665
66102W        W32511  19.222   0.764  10.757
66103W        W32512   3.242  43.054   2.834
66104W        W32513   9.668  30.730   1.891
66105W        W32514  16.882  28.469   1.895
66106W        W32515  30.187  30.479   4.278
66107W        W32516  37.614  39.926   4.789
66108W        W32517  32.991  36.160  10.680
66109W        W32518  44.054  12.854  14.357
66110W        W32519  43.630   3.248   4.129
66111W        W32520  30.365  25.127   0.966
66112W        W32521  10.375  10.352  12.315
66113W        W32522   6.836  42.311   2.405
66114W        W32523   2.425  36.357  14.752
66115W        W32524  24.473  33.717  12.783
66116W        W32525  44.805  15.918  13.954
66117W        W32526  42.197  32.346  11.704
66118W        W32527  27.037  41.815   2.768
66119W        W32528  37.826  11.810  13.174
66120W        W32529  19.333   5.576  14.308
66121W        W32530  26.955  39.955   4.614
66122W        W32531  36.176  22.512   0.336
66123W        W32532  13.398  22.643   4.836
66124W        W32533  35.455   5.528   4.580
66125W        W32534  21.790  12.789   4.668
66126W        W32535  25.411  10.235  13.847
66127W        W32536  33.165  18.257  11.015
66128W        W32537   8.395  30.061   3.748
66129W        W32538  39.293   3.251  11.850
66130W        W32539  23.684  41.458   2.747
66131W        W32540  24.437   8.106  12.088
66132W        W32541   1.243  41.175   3.067
66133W        W32542   5.918  40.076   4.239
66134W        W32543  44.858  33.957   2.199
66135W        W32544   4.843  43.694  14.794
66136W        W32545   7.498  22.727   2.762
66137W        W32546  13.295   9.741   4.390
66138W        W32547  14.956  13.831   3.792
66139W        W32548  17.155   6.145   4.181
66140W        W32549   9.800  26.692  12.824
66141W        W32550   0.693   3.804   4.633
66142W        W32551   0.407   6.196   1.462
66143W        W32552  39.859  41.877  13.235
66144W        W32553  29.207  17.193  11.118
66145W        W32554  16.593   2.503  12.894
66146W        W32555  22.566  27.702   1.271
66147W        W32556  29.895   6.496   2.317
66148W        W32557  16.559   4.354   0.930
66149W        W32558  39.640  19.049   0.302
66150W        W32559  14.106  39.290  11.177
66151W        W32560  24.064  13.398  11.643
66152W        W32561  33.407  39.912   0.399
66153W        W32562   9.123  31.858   1.445
66154W        W32563   6.464  30.034   3.921
66155W        W32564  18.054  13.891   0.863
66156W        W32565  43.060  28.858  13.049
66157W        W32566  21.520  43.966   3.668
66158W        W32567   8.301  15.246   2.307
66159W        W32568   0.963  19.112  12.812
66160W        W32569  19.783  20.147  11.993
66161W        W32570   1.304  18.743  11.941
66162W        W32571   2.503   5.867  10.892
66163W        W32572  26.691   4.012   3.442
66164W        W32573  20.408  36.518  13.958
66165W        W32574  33.131  36.446   1.548
66166W        W32575  18.676  32.346  10.825
66167W        W32576  33.945  26.453   0.678
66168W        W32577  26.306  29.954   3.241
66169W        W32578  31.412  35.110   3.665
66170W        W32579   0.225  22.245  11.662
66171W        W32580  14.616  21.781   1.356
66172W        W32581  19.802   8.602   0.722
66173W        W32582  27.697  20.079   4.338
66174W        W32583  15.105  34.987  12.983
66175W        W32584  38.139  16.000   3.171
66176W        W32585   9.872  36.776  14.858
66177W        W32586  33.290  44.241  14.854
66178W        W32587  32.046  22.548   3.702
66179W        W32588   2.839  21.125   2.252
66180W        W32589  37.957  30.159  12.450
66181W        W32590  28.780  28.631   4.925
66182W        W32591  14.665  29.376   0.840
66183W        W32592   2.315   1.764   1.697
66184W        W32593  22.607  21.741   2.045
66185W        W32594  25.151  18.361   4.535
66186W        W32595  13.229  27.041  14.401
66187W        W32596  26.562  33.478  10.348
66188W        W32597  31.478  34.350  13.529
66189W        W32598  17.041   7.943   0.926
66190W        W32599  22.662  10.598  11.877
66191W        W32600  40.803   2.378  14.909
66192W        W32601  21.603  30.701   2.372
66193W        W32602   7.234   8.321   3.446
66194W        W32603  17.021  31.919   1.875
66195W        W32604  13.616  31.941   1.200
66196W        W32605  11.919  10.793   3.317
66197W        W32606  21.942  30.455  12.007
66198W        W32607   7.806   5.167   3.567
66199W        W32608  36.349  25.008  13.231
66200W        W32609  37.345  14.652  12.038
66201W        W32610   4.467  29.938  11.191
66202W        W32611   0.007  40.727  11.042
66203W        W32612  42.041   0.547  12.548
66204W        W32613  34.975   9.233   0.447
66205W        W32614  11.330  43.360  12.397
66206W        W32615   4.921  13.187  14.240
66207W        W32616  10.080  39.952   0.411
66208W        W32617  26.522  43.769   2.630
66209W        W32618  14.563  26.193  12.009
66210W        W32619  29.982  42.253   3.443
66211W        W32620  26.728  40.097  11.214
66212W        W32621   3.705   1.440   1.916
66213W        W32622   5.024  31.641  12.831
66214W        W32623   2.578  27.097  12.485
66215W        W32624  13.151  37.303  13.392
66216W        W32625  38.784  24.710   3.624
66217W        W32626   5.780  19.568   1.481
66218W        W32627  40.081  23.242  12.937
66219W        W32628  20.200  25.160   3.536
66220W        W32629  42.988   7.280   2.328
66221W        W32630  41.741   2.288  10.723
66222W        W32631  29.651  12.845  13.554
66223W        W32632   2.239  36.118  10.995
66224W        W32633   3.199  32.108   4.057
66225W        W32634  20.915  22.404  12.984
66226W        W32635  12.569  30.407  13.046
66227W        W32636  18.056  27.432  12.171
66228W        W32637  44.391  37.813   3.671
66229W        W32638  14.749   9.016   9.956
66230W        W32639  44.842  17.755  12.998
66231W        W32640   7.821  13.684   3.141
66232W        W32641  30.703  22.805  14.105
66233W        W32642  43.381   9.237   0.797
66234W        W32643  29.098  25.927   3.724
66235W        W32644  42.510  29.357  13.788
66236W        W32645  15.257  41.330  12.013
66237W        W32646  32.510  23.463   3.641
66238W        W32647   1.915  15.159  13.049
66239W        W32648   7.134  13.668  14.925
66240W        W32649  15.129  32.214   4.229
66241W        W32650  21.731  27.715  13.059
66242W        W32651  18.046   4.379  13.719
66243W        W32652  38.028  15.278  13.110
66244W        W32653  18.434  24.250  14.042
66245W        W32654  12.165  23.970  13.648
66246W        W32655  28.895  19.898  11.605
66247W        W32656  20.732  44.529  12.954
66248W        W32657  13.260  39.928   3.795
66249W        W32658   3.424  16.317   0.824
66250W        W32659   8.359   8.706   4.132
66251W        W32660  24.083   5.962  12.651
66252W        W32661  33.020   4.012   0.000
66253W        W32662   7.417  26.926  14.826
66254W        W32663  20.263  24.256   3.356
66255W        W32664   0.046  26.178  11.834
66256W        W32665   5.307  33.084  11.874
66257W        W32666  14.306  17.593   0.448
66258W        W32667  38.977  43.751  10.964
66259W        W32668  43.847  29.970   4.570
66260W        W32669  33.873  18.693  13.831
66261W        W32670  11.680  26.677  11.772
66262W        W32671  22.204  42.977  10.599
66263W        W32672  30.634  35.604   3.846
66264W        W32673  12.848  32.862  10.656
66265W        W32674  38.209   5.865  14.579
66266W        W32675   0.946  31.247   4.065
66267W        W32676  30.921   5.391  13.007
66268W        W32677  35.017  16.322   3.582
66269W        W32678  35.999  18.621   4.746
66270W        W32679  42.450  17.594   4.372
66271W        W32680   6.023   5.511  10.675
66272W        W32681  11.154  18.095  11.381
66273W        W32682  25.208  13.075  13.386
66274W        W32683  29.392  26.640  13.883
66275W        W32684   3.685  38.425   1.903
66276W        W32685  36.952  25.262  12.121
66277W        W32686  17.074  12.746  11.580
66278W        W32687  40.303   8.838   4.669
66279W        W32688  23.518  26.085  12.311
66280W        W32689   1.954   6.249  10.723
66281W        W32690  18.613   8.122   0.997
66282W        W32691  20.086  28.749   4.012
66283W        W32692   8.752  13.839   0.210
66284W        W32693  12.611  12.340   2.077
66285W        W32694  12.203  21.105   0.190
66286W        W32695  43.997  34.602  11.037
66287W        W32696   7.000  10.271  13.369
66288W        W32697   8.109  19.610   2.825
66289W        W32698   4.631  10.333  14.413
66290W        W32699  39.799   1.145   3.156
66291W        W32700  39.050  19.177   9.987
66292W        W32701  24.621  31.526   3.640
66293W        W32702   4.660   9.643   2.875
66294W        W32703  33.711  10.737   4.617
66295W        W32704  34.136  33.371   2.880
66296W        W32705  20.200  31.752  14.982
66297W        W32706  21.080  36.244  11.134
66298W        W32707  21.981  35.008  14.555
66299W        W32708  33.634  14.004   1.221
66300W        W32709  36.115  41.771  11.728
66301W        W32710  23.678  31.320  11.705
66302W        W32711   6.838  31.950   2.369
66303W        W32712  34.866  27.039  14.340
66304W        W32713  22.222   1.218   0.449
66305W        W32714  28.114  26.665   5.114
66306W        W32715  36.197  34.856   2.052
66307W        W32716  17.262  36.390  10.647
66308W        W32717  13.514   7.690   1.361
66309W        W32718  41.916  42.520   0.474
66310W        W32719  25.166  33.676  13.377
66311W        W32720  21.515  11.133   2.557
66312W        W32721  43.514  38.788   2.168
66313W        W32722   6.894  10.577   3.678
66314W        W32723  42.420  13.572  12.646
66315W        W32724  17.358  31.789  14.473
66316W        W32725  37.303   9.997  13.842
66317W        W32726  42.339  22.187  11.025
66318W        W32727   5.347  43.680   2.350
66319W        W32728   1.769  42.004  12.021
66320W        W32729  28.068   7.763  13.390
66321W        W32730   2.879  16.602  11.792
66322W        W32731  38.437  28.006   0.342
66323W        W32732   1.005   5.754  12.892
66324W        W32733   2.234  40.558  10.728
66325W        W32734  42.381  20.821  13.690
66326W        W32735  17.555  20.077   3.084
66327W        W32736   3.436  32.479   3.543
66328W        W32737  20.466   7.755  12.962
66329W        W32738  17.348  35.584   4.073
66330W        W32739  34.605  33.300  14.400
66331W        W32740  24.243  37.623  14.780
66332W        W32741   6.306   4.799   4.659
66333W        W32742   3.997  38.693  11.141
66334W        W32743  24.698  23.786   4.976
66335W        W32744  14.346   7.953  11.597
66336W        W32745  10.461  26.091  11.780
66337W        W32746   0.902  35.512   2.640
66338W        W32747  28.474   6.312  13.942
66339W        W32748   3.131  23.393  12.427
66340W        W32749  33.626  27.091  13.966
66341W        W32750  25.540  31.619  11.854
66342W        W32751  42.728  11.242   1.807
66343W        W32752  29.023  22.932  13.988
66344W        W32753  26.486   5.018  10.522
66345W        W32754  24.792  31.656  14.967
66346W        W32755  28.626  28.810  13.781
66347W        W32756  14.558   7.195   4.083
66348W        W32757  35.619   2.716  10.657
66349W        W32758  34.686   0.239   3.142
66350W        W32759   1.314   7.826   4.532
66351W        W32760  29.762  17.416  14.086
66352W        W32761  38.321  10.697  12.834
66353W        W32762  13.837  33.596  14.787
66354W        W32763  14.752  42.197  11.903
66355W        W32764  25.537  43.313  13.099
66356W        W32765  37.104  28.202  12.404
66357W        W32766  39.530   7.266   0.498
66358W        W32767  41.839  34.035   1.517
66359W        W32768  25.254  16.854   0.711
66360W        W32769  33.944  41.744  12.294
66361W        W32770  18.066  14.249   0.440
66362W        W32771  39.862   9.640  12.075
66363W        W32772   5.761  16.841   2.231
66364W        W32773  30.565   5.342  13.816
66365W        W32774  43.529   2.227   0.824
66366W        W32775  19.078  44.450   1.701
66367W        W32776   8.203  27.249  11.390
66368W        W32777  39.903  10.114   2.901
66369W        W32778  29.200  21.167  12.182
66370W        W32779  31.952  34.916   2.382
66371W        W32780  21.032  42.940   1.856
66372W        W32781  10.908  37.158  10.281
66373W        W32782  32.734  32.398   1.581
66374W        W32783  32.150  32.118  13.460
66375W        W32784  22.000  43.686  12.381
66376W        W32785  21.816  21.163  13.070
66377W        W32786  27.620   3.956   0.245
66378W        W32787  16.052   3.912   1.822
66379W        W32788  11.870  16.639  10.674
66380W        W32789  29.134  40.664   2.170
66381W        W32790   9.916   5.384   4.149
66382W        W32791   6.158  33.579   2.789
66383W        W32792  13.114   0.248   1.229
66384W        W32793   2.228   1.223   4.957
66385W        W32794  44.977   2.072   0.172
66386W        W32795  11.791  37.055   2.418
66387W        W32796   8.340  16.605   1.753
66388W        W32797  36.385  42.543   0.557
66389W        W32798  34.141  18.780   1.328
66390W        W32799  43.835  37.346   1.464
66391W        W32800   2.650   1.728  14.599
66392W        W32801  21.055   2.850  14.323
66393W        W32802  10.524   7.833  14.733
66394W        W32803   2.036   4.541  14.777
66395W        W32804  27.680  15.095  12.405
66396W        W32805  43.288  12.935   0.532
66397W        W32806  24.426  26.178   1.216
66398W        W32807  30.933  32.826  12.985
66399W        W32808  43.168  42.368  13.520
66400W        W32809   7.185   1.958   0.199
66401W        W32810  29.192  37.467   4.524
66402W        W32811  43.505  33.105   2.684
66403W        W32812  12.904  39.084   2.802
66404W        W32813   2.921  41.254  10.878
66405W        W32814  33.938  26.106  11.067
66406W        W32815  41.994  17.251   3.152
66407W        W32816  20.251  23.733  10.698
66408W        W32817  15.564  33.567  13.261
66409W        W32818  20.880  23.084  12.029
66410W        W32819  36.082  39.925  12.930
66411W        W32820  10.209  36.411  14.764
66412W        W32821  18.007  23.856   3.223
66413W        W32822  17.693  11.402   1.980
66414W        W32823  31.442  41.965  11.580
66415W        W32824  12.312  41.036   2.443
66416W        W32825  11.713   0.858   0.485
66417W        W32826  31.520  19.495  13.623
66418W        W32827  29.148  28.038   0.508
66419W        W32828  24.744  22.077  13.023
66420W        W32829  29.125  35.239   4.007
66421W        W32830  18.856  12.284   2.836
66422W        W32831  27.452  11.177   0.041
66423W        W32832  17.762   6.332   4.735
66424W        W32833  25.264  28.046   3.745
66425W        W32834  20.778  35.155   4.239
66426W        W32835  11.070  37.915   4.130
66427W        W32836  26.409  13.666  13.606
66428W        W32837  29.441  21.116   4.527
66429W        W32838  20.923  10.789   0.443
66430W        W32839  22.210  42.420   2.640
66431W        W32840  30.101   1.428  14.978
66432W        W32841  27.764   8.959   2.712
66433W        W32842  32.793  29.046   3.201
66434W        W32843  37.618  30.846  13.000
66435W        W32844  43.002  29.310  13.891
66436W        W32845  38.815   9.749  14.015
66437W        W32846  39.567  10.113   1.305
66438W        W32847  18.149  30.351  12.974
66439W        W32848  11.388  44.220  13.622
66440W        W32849  38.845  41.495  11.097
66441W        W32850  11.300  14.644   4.240
66442W        W32851  37.327   0.370  11.379
66443W        W32852  31.659   2.528  11.620
66444W        W32853  36.722  39.391  13.018
66445W        W32854   8.940   0.774   0.212
66446W        W32855  31.599  27.687  14.789
66447W        W32856  43.955  44.393   1.319
66448W        W32857   0.460   1.238  14.720
66449W        W32858   2.219   6.823   1.619
66450W        W32859   8.673  33.657   0.501
66451W        W32860  10.233  18.321  14.505
66452W        W32861  37.151  16.289  13.512
66453W        W32862  19.526   4.989  11.623
66454W        W32863  40.489  24.206   1.891
66455W        W32864   0.328  15.186  11.548
66456W        W32865  12.695  18.508   2.875
66457W        W32866  38.388   9.781   3.303
66458W        W32867   4.298  22.904   2.375
66459W        W32868  29.127  28.595   0.364
66460W        W32869  44.865  35.845  14.215
66461W        W32870  41.540  26.647   2.124
66462W        W32871  30.687  14.763   4.203
66463W        W32872  33.577  18.718  10.754
66464W        W32873   3.577  30.209  14.156
66465W        W32874   0.039  42.769   3.100
66466W        W32875  29.782  32.380   3.245
66467W        W32876  26.392  16.530  10.939
66468W        W32877   3.681   0.017   1.828
66469W        W32878   4.535  13.130   3.898
66470W        W32879  16.949  11.925   1.813
66471W        W32880  10.296  19.594   3.313
66472W        W32881  43.783   3.939   1.435
66473W        W32882  43.905  25.996   0.263
66474W        W32883   4.354  40.065   4.854
66475W        W32884   4.962  34.396   4.377
66476W        W32885  31.559  29.592   1.029
66477W        W32886  39.548  41.167  13.807
66478W        W32887  43.836  13.963  12.422
66479W        W32888  23.593   4.668  14.454
66480W        W32889  43.333   0.168   0.909
66481W        W32890   8.700  17.884   2.417
66482W        W32891  36.633  20.839  13.022
66483W        W32892  18.116  39.401  14.918
66484W        W32893  24.813  36.590  12.035
66485W        W32894  23.638  14.055  14.365
66486W        W32895  18.287  41.049   1.779
66487W        W32896  27.997  10.929   0.058
66488W        W32897   4.004  14.120  11.492
66489W        W32898  39.767   4.147  11.878
66490W        W32899  12.782  17.106   0.508
66491W        W32900   7.256  14.356   4.137
66492W        W32901  43.255   3.649  14.963
66493W        W32902  43.201  41.383   0.325
66494W        W32903  16.315  19.317   4.187
66495W        W32904   0.799  17.133  10.508
66496W        W32905  14.402  32.993   2.650
66497W        W32906  18.776  24.128  13.121
66498W        W32907  30.210   0.926   4.020
66499W        W32908  17.152  38.439  11.642
66500W        W32909  39.457  20.301  11.124
66501W        W32910  44.953  37.412  12.468
66502W        W32911   8.779  41.974  11.137
66503W        W32912  41.493  36.345  12.566
66504W        W32913  18.999  17.255  11.219
66505W        W32914  16.737   7.642  11.236
66506W        W32915   1.007  26.677   2.406
66507W        W32916  42.931   4.760   2.666
66508W        W32917   2.920  34.069  11.999
66509W        W32918  19.242  37.593  12.780
66510W        W32919   2.757  16.481   4.908
66511W        W32920  42.039  22.594   2.873
66512W        W32921   1.727  29.593  12.899
66513W        W32922  32.194  19.090  12.847
66514W        W32923  26.085   3.153  14.229
66515W        W32924   1.239   5.458  13.544
66516W        W32925  43.850   4.445   2.805
66517W        W32926  23.364  31.798  11.195
66518W        W32927   4.356  14.212  12.577
66519W        W32928  33.081  26.335   2.283
66520W        W32929  41.962  16.107  12.935
66521W        W32930  21.996   1.759   4.357
66522W        W32931  24.099   0.090   1.884
66523W        W32932  41.903  30.921   3.220
66524W        W32933  16.180  20.952   3.410
66525W        W32934  28.415  21.113   4.999
66526W        W32935  28.349   8.626   2.227
66527W        W32936  26.662  13.728  12.600
66528W        W32937  26.124  34.391   1.715
66529W        W32938  29.647  22.694  13.956
66530W        W32939  42.968  37.882  12.431
66531W        W32940   5.748  24.452  12.601
66532W        W32941  37.633   0.742  11.522
66533W        W32942  38.183   5.226  11.243
66534W        W32943  23.463   1.705   3.855
66535W        W32944  42.797  19.092  10.575
66536W        W32945  19.923  41.734  14.766
66537W        W32946  39.875  14.820  11.144
66538W        W32947  23.426  40.490   1.694
66539W        W32948  36.430  38.962  12.911
66540W        W32949   6.150  37.868   0.788
66541W        W32950  27.934  37.596   3.177
66542W        W32951  33.723  43.246   2.321
66543W        W32952   3.932  21.686  14.942
66544W        W32953  42.293  12.432   2.255
66545W        W32954  11.308   1.387  13.774
66546W        W32955  35.612   8.864  10.711
66547W        W32956  38.508  40.986   4.184
66548W        W32957  26.626  42.864   2.072
66549W        W32958   4.670   5.828   3.205
66550W        W32959  23.616   5.455   0.462
66551W        W32960  30.487  30.721  12.476
66552W        W32961  24.616   3.842  11.056
66553W        W32962  44.512  42.771   3.649
66554W        W32963  15.694  16.782   4.739
66555W        W32964   8.812  13.800   1.632
66556W        W32965  18.170   1.655  12.736
66557W        W32966  36.823  31.143   2.256
66558W        W32967  12.242   6.359  11.968
66559W        W32968  16.935  39.121  10.520
66560W        W32969  34.581  19.270   4.668
66561W        W32970  42.445  20.964  12.493
66562W        W32971  22.301  18.386   3.743
66563W        W32972  38.033  22.052   2.367
66564W        W32973  20.672   3.959   0.086
66565W        W32974   7.271  42.626   2.396
66566W        W32975  20.724  38.454   0.028
66567W        W32976  43.069  43.301   3.855
66568W        W32977  35.329  26.941  10.756
66569W        W32978  14.850  15.538  10.616
66570W        W32979  35.014  30.717  11.687
66571W        W32980   0.748  30.203  14.422
66572W        W32981   0.957   7.159  11.123
66573W        W32982  16.342  23.652  14.692
66574W        W32983  30.208  40.522   0.629
66575W        W32984  13.142  26.749  11.660
66576W        W32985  26.713   5.776   1.390
66577W        W32986  10.071  18.845  13.358
66578W        W32987   5.535  25.243  12.487
66579W        W32988  24.597  36.236  12.449
66580W        W32989  40.402  16.896   2.360
66581W        W32990  10.380  19.146   3.068
66582W        W32991   1.015   9.699  12.710
66583W        W32992  44.046  19.052  14.145
66584W        W32993  10.194  33.431   0.285
66585W        W32994  13.828  20.606  13.045
66586W        W32995   8.315  19.728  14.122
66587W        W32996  15.237  12.889  14.831
66588W        W32997  39.984  15.703  14.501
66589W        W32998  11.986  15.844   3.260
66590W        W32999  44.888  40.911   0.986
66591W        W33000  38.651   1.128   3.753
66592W        W33001  19.097   5.770  12.608
66593W        W33002  26.566  27.911   1.680
66594W        W33003  41.782  42.799  12.508
66595W        W33004   5.398  18.876  10.690
66596W        W33005  32.662  13.173   0.374
66597W        W33006  25.654  41.903  13.106
66598W        W33007  34.809  30.152  13.540
66599W        W33008  15.349  28.976  12.894
66600W        W33009  24.525  42.450   3.345
66601W        W33010  32.487  29.319  13.895
66602W        W33011  17.807  16.839   4.054
66603W        W33012  38.810  10.723   4.240
66604W        W33013  43.782  43.862  12.384
66605W        W33014  10.331  37.823  14.218
66606W        W33015   9.818  13.443   1.766
66607W        W33016  25.529  18.317  10.803
66608W        W33017  31.052  18.240  10.299
66609W        W33018  35.768  43.663  14.078
66610W        W33019  26.637  24.034  12.559
66611W        W33020  44.340   8.106   5.026
66612W        W33021  39.803  11.392  10.750
66613W        W33022  42.262  36.863  12.099
66614W        W33023  12.638  26.679   0.804
66615W        W33024  36.377  10.252   0.805
66616W        W33025  22.270  22.778  14.290
66617W        W33026  36.939  28.002  10.497
66618W        W33027  26.732  38.922  14.543
66619W        W33028  32.136   6.992  14.747
66620W        W33029  23.913  32.261   5.178
66621W        W33030  17.058  16.153   0.317
66622W        W33031  30.920  20.505   4.008
66623W        W33032  35.856  37.565   0.264
66624W        W33033  32.909  24.541   4.666
66625W        W33034   0.884  44.261  10.280
66626W        W33035  40.729   9.717   3.191
66627W        W33036  10.935  44.420  10.725
66628W        W33037  24.541  27.135  11.296
66629W        W33038  32.691  35.560  13.441
66630W        W33039   7.335  21.757   0.284
66631W        W33040  44.317  17.984  12.535
66632W        W33041  10.767  15.740   1.723
66633W        W33042   8.133  38.855   2.368
66634W        W33043  43.509  41.316   0.778
66635W        W33044  29.511  20.147   0.917
66636W        W33045  26.486  44.306   4.615
66637W        W33046  33.902  18.318   1.267
66638W        W33047  14.108  22.051   3.511
66639W        W33048  35.497   9.273   0.298
66640W        W33049  42.281  23.180   1.621
66641W        W33050  25.112   9.859  12.039
66642W        W33051   1.620  34.260   3.789
66643W        W33052  37.791  33.668  12.090
66644W        W33053  13.025  32.928  14.381
66645W        W33054   9.881  37.875  13.570
66646W        W33055  28.397  13.895  11.204
66647W        W33056  43.864   7.940  10.252
66648W        W33057   0.954  19.547  11.222
66649W        W33058   1.092  31.454   2.354
66650W        W33059   2.292  39.132  10.782
66651W        W33060   6.200  28.683   4.607
66652W        W33061  36.201   8.775   2.794
66653W        W33062  43.337  10.839   0.391
66654W        W33063  26.685  14.581   3.535
66655W        W33064  42.180   7.007  11.996
66656W        W33065  10.724  29.444  12.001
66657W        W33066   7.721  15.303   0.523
66658W        W33067  31.868  31.404  13.540
66659W        W33068   0.449  15.709   3.225
66660W        W33069  13.357  21.514   1.502
66661W        W33070  37.441  22.539   2.831
66662W        W33071  14.603  41.826   0.983
66663W        W33072   3.921  40.957   4.474
66664W        W33073  25.880   2.440  14.438
66665W        W33074  40.139  28.848   0.342
66666W        W33075  17.162  22.322   1.213
66667W        W33076  13.819  32.861   3.500
66668W        W33077  40.087  36.503   1.272
66669W        W33078  10.716  31.863   0.298
66670W        W33079  32.729  25.063   3.485
66671W        W33080  35.584  21.728   3.265
66672W        W33081  29.384  31.161   0.275
66673W        W33082  28.088  37.890  13.073
66674W        W33083  13.294  37.271   1.942
66675W        W33084  40.457   2.005  14.802
66676W        W33085  29.331   4.314   4.577
66677W        W33086  34.419   9.161   1.267
66678W        W33087  22.761   1.243   3.246
66679W        W33088  27.014  39.707   3.579
66680W        W33089  33.730  21.259  12.011
66681W        W33090  37.637  18.695   2.516
66682W        W33091  39.124  25.984   1.155
66683W        W33092  22.979   6.648  13.365
66684W        W33093  16.980  30.073   4.298
66685W        W33094  11.851   7.750   2.916
66686W        W33095  12.565  38.530  10.705
66687W        W33096   8.861   2.482   0.700
66688W        W33097  15.118  16.740  13.306
66689W        W33098   0.667  30.958  10.701
66690W        W33099  29.861  16.323  11.250
66691W        W33100  31.404  31.525   3.887
66692W        W33101   3.794  12.333   0.391
66693W        W33102  20.081  14.920   1.007
66694W        W33103  32.811  20.278   0.973
66695W        W33104  43.752  11.846  13.685
66696W        W33105  23.511  30.963  14.291
66697W        W33106   8.244  27.096  12.379
66698W        W33107   5.684  13.288   4.507
66699W        W33108  13.797   9.690  12.342
66700W        W33109  11.093  19.720  14.958
66701W        W33110  42.222  44.525   2.814
66702W        W33111  12.130  26.613   4.148
66703W        W33112  22.649  15.322   0.259
66704W        W33113   0.643   5.621   2.286
66705W        W33114  36.913  11.116   4.671
66706W        W33115  33.904  29.938  13.035
66707W        W33116  43.337  28.383   4.267
66708W        W33117  40.439  17.356  12.534
66709W        W33118  32.482   8.834   0.336
66710W        W33119  21.177   5.389  14.466
66711W        W33120  36.371  37.474   4.170
66712W        W33121  29.505  15.211  10.487
66713W        W33122  17.522  33.309   1.818
66714W        W33123  22.963   6.224   0.238
66715W        W33124  34.000   6.336   1.549
66716W        W33125   3.840   9.005  13.820
66717W        W33126   9.777  27.521   4.176
66718W        W33127  19.356   3.334  14.966
66719W        W33128  37.373  43.434  12.072
66720W        W33129  20.670  22.180   0.907
66721W        W33130  37.943  44.548   2.956
66722W        W33131   0.691  18.652  14.049
66723W        W33132  22.147  18.649  12.320
66724W        W33133  19.831  15.291   1.721
66725W        W33134  20.534   0.186  14.361
66726W        W33135   1.944  35.553   0.933
66727W        W33136  25.323   2.833   1.187
66728W        W33137  32.348   9.400  13.303
66729W        W33138  18.633  15.333  10.841
66730W        W33139   2.133  20.379   2.986
66731W        W33140  38.474  37.380  12.795
66732W        W33141  31.411  11.445  13.132
66733W        W33142  41.602  43.300   2.860
66734W        W33143  12.838   6.238  12.629
66735W        W33144  20.346   1.877   2.445
66736W        W33145   8.221  21.186   3.653
66737W        W33146  41.906  24.456   3.761
66738W        W33147   6.518  23.639  12.009
66739W        W33148   3.396  16.211   4.321
66740W        W33149  13.832  19.998  14.946
66741W        W33150  20.258  13.797   1.228
66742W        W33151  34.635  39.047   4.612
66743W        W33152  15.159  38.078   2.791
66744W        W33153  23.487  15.921  13.830
66745W        W33154  19.193  13.025   0.749
66746W        W33155  43.942  22.077   4.485
66747W        W33156   4.370   0.354   0.764
66748W        W33157  19.077  29.384   5.061
66749W        W33158  15.854  34.950  14.354
66750W        W33159  44.654  32.989  11.488
66751W        W33160  13.249   2.601  12.047
66752W        W33161  15.626  31.651  11.096
66753W        W33162  26.876   1.675  10.474
66754W        W33163  29.056   6.462  12.138
66755W        W33164   7.207  15.329  11.529
66756W        W33165  19.626  21.736  13.028
66757W        W33166   1.341  22.273  10.813
66758W        W33167   2.494   2.652   1.692
66759W        W33168  32.013  29.906  11.699
66760W        W33169  42.557   1.966   0.803
66761W        W33170  15.791  25.741  12.108
66762W        W33171  28.572  18.342   3.515
66763W        W33172  31.515  15.868  14.921
66764W        W33173  17.701   5.911  13.040
66765W        W33174  10.375  10.775  12.616
66766W        W33175  21.749  13.322   1.895
66767W        W33176  19.228  23.043  14.830
66768W        W33177  38.679  18.777   2.684
66769W        W33178  27.579  16.581  12.664
66770W        W33179  18.726  27.208   1.396
66771W        W33180  11.052  35.851   2.535
66772W        W33181  29.839  13.026  13.035
66773W        W33182  18.394  24.967   4.093
66774W        W33183   4.247  24.180   2.292
66775W        W33184  41.245  10.924   4.308
66776W        W33185  21.196  11.054   3.316
66777W        W33186  28.640  33.955   2.784
66778W        W33187  21.767  19.002  14.985
66779W        W33188  36.169  38.486   2.665
66780W        W33189  29.069  29.371   4.164
66781W        W33190  22.281  30.982   1.349
66782W        W33191  40.075  40.066   2.233
66783W        W33192  21.584   2.964  10.778
66784W        W33193  25.515  37.525   4.126
66785W        W33194  18.080  33.006   2.289
66786W        W33195  10.901  34.852   0.087
66787W        W33196  28.895  39.586   1.770
66788W        W33197  13.662   4.801  11.979
66789W        W33198   0.889  19.469   3.176
66790W        W33199  39.366   9.898  14.938
66791W        W33200  35.874  29.717  13.337
66792W        W33201  34.447  16.614  14.788
66793W        W33202  42.437  26.121  11.999
66794W        W33203  21.606   8.878  10.706
66795W        W33204  26.093  27.434   3.705
66796W        W33205  33.604  31.002   0.342
66797W        W33206  44.032  17.264  12.941
66798W        W33207  22.397  39.808  11.472
66799W        W33208  16.129  10.410   0.414
66800W        W33209  35.344  30.621  10.946
66801W        W33210  41.528  26.111  13.077
66802W        W33211  13.227  30.287   1.450
66803W        W33212   4.384  38.507  13.407
66804W        W33213  35.154  16.158   1.699
66805W        W33214  33.051  10.903  12.072
66806W        W33215   2.924  14.163   4.681
66807W        W33216   8.888  19.503  11.144
66808W        W33217  22.587  22.048   5.350
66809W        W33218  12.902  35.817   5.415
66810W        W33219  23.049  15.635   2.826
66811W        W33220   3.018  21.376   1.808
66812W        W33221  14.706  39.880  12.595
66813W        W33222  23.976   6.434  12.160
66814W        W33223  12.765  28.728  14.402
66815W        W33224  36.806  24.937  10.769
66816W        W33225   1.174  21.088  11.087
66817W        W33226   4.148  38.931   0.803
66818W        W33227  28.097  35.882   0.462
66819W        W33228  26.461  34.315  11.540
66820W        W33229  15.354  18.693   3.138
66821W        W33230  39.929   8.077  12.983
66822W        W33231  32.016   8.461   1.381
66823W        W33232  27.569  44.029  12.161
66824W        W33233   7.757  44.227   0.695
66825W        W33234  40.141  41.039  12.033
66826W        W33235  12.270   3.745   0.227
66827W        W33236  17.890  28.847  11.661
66828W        W33237   4.468  44.331   3.309
66829W        W33238  39.014  33.240  12.053
66830W        W33239   1.486  23.972  12.712
66831W        W33240  41.036  12.407   0.889
66832W        W33241   2.720   6.834  13.358
66833W        W33242  42.956  14.473  11.413
66834W        W33243   2.594   3.380  13.949
66835W        W33244  32.449  37.115  11.545
66836W        W33245  11.562  27.512  11.621
66837W        W33246   5.366   3.134  11.227
66838W        W33247  37.799  39.433  12.179
66839W        W33248  25.199  42.527   0.048
66840W        W33249   5.822  27.445  11.725
66841W        W33250  27.654   1.321  13.380
66842W        W33251  21.261  19.144   1.316
66843W        W33252   2.747   7.087   2.207
66844W        W33253  20.882  16.756  12.461
66845W        W33254  43.869   8.236  14.059
66846W        W33255  30.541  29.721  14.555
66847W        W33256  12.834   3.402  10.761
66848W        W33257   0.799  28.008  12.888
66849W        W33258  39.865  29.056  14.923
66850W        W33259  38.019  22.226   1.475
66851W        W33260  28.086  15.723   2.347
66852W        W33261  43.071  42.519   3.012
66853W        W33262  21.039  42.771  11.091
66854W        W33263  41.965  26.871  13.347
66855W        W33264   0.978  23.017   2.758
66856W        W33265  37.585   2.908  13.291
66857W        W33266   9.256  44.790  13.394
66858W        W33267  41.959  36.621  10.494
66859W        W33268  21.315   0.236  14.903
66860W        W33269   7.124   5.883   2.094
66861W        W33270  29.659  18.276   3.363
66862W        W33271  22.626   6.740   3.848
66863W        W33272   5.886  41.248  11.089
66864W        W33273  19.798  13.766  13.086
66865W        W33274  17.520  31.646  13.993
66866W        W33275  16.294  36.964  11.509
66867W        W33276  22.670  32.302  11.548
66868W        W33277  31.828   8.256   4.577
66869W        W33278  17.273  29.009   1.573
66870W        W33279  37.731  40.193  12.134
66871W        W33280   1.736  17.334   2.286
66872W        W33281   2.421  43.208  11.852
66873W        W33282  13.757  11.749  11.729
66874W        W33283   7.138   5.217  11.719
66875W        W33284  31.063   7.359  13.207
66876W        W33285  24.066   3.288   3.409
66877W        W33286  41.132   5.186   3.192
66878W        W33287   0.650  37.370  11.787
66879W        W33288  16.744  35.387   3.069
66880W        W33289  17.366  35.388   4.536
66881W        W33290  36.953   8.932  10.277
66882W        W33291  31.804  32.903  14.741
66883W        W33292   3.315  14.687   0.488
66884W        W33293  34.186  44.312   2.856
66885W        W33294  26.071  22.074  11.764
66886W        W33295  10.037   6.628  12.378
66887W        W33296  39.654  19.591   3.062
66888W        W33297   2.208  17.128   2.309
66889W        W33298  16.806   1.827  13.156
66890W        W33299  11.905  16.149  10.486
66891W        W33300   5.878   1.233   1.716
66892W        W33301  13.064  14.364   2.861
66893W        W33302  18.109  44.528  12.049
66894W        W33303  32.825   2.906  14.798
66895W        W33304  35.654  13.346   0.841
66896W        W33305  30.302  17.742  10.485
66897W        W33306   0.355  21.606  13.386
66898W        W33307   8.937   2.271   3.709
66899W        W33308  23.673  11.314   0.829
66900W        W33309  16.494   4.860   0.786
66901W        W33310  25.149  26.077  13.948
66902W        W33311  42.033   2.967  11.626
66903W        W33312  21.700  10.388   4.734
66904W        W33313   6.376  43.299   1.707
66905W        W33314  31.049  40.242  14.454
66906W        W33315  13.176  29.002   2.223
66907W        W33316  10.015  10.531   1.046
66908W        W33317  22.980  39.890   4.700
66909W        W33318  29.682   5.699   4.167
66910W        W33319   5.713   8.656   3.272
66911W        W33320   3.726  12.170  11.992
66912W        W33321  28.420   5.820  14.200
66913W        W33322  36.052   5.808   0.210
66914W        W33323  13.690  37.982  12.668
66915W        W33324  11.608  12.756  12.538
66916W        W33325  11.346  39.060  13.912
66917W        W33326  20.001  38.149  12.370
66918W        W33327  16.252  11.721   2.305
66919W        W33328  44.888  35.914   2.711
66920W        W33329  24.225  27.495  13.996
66921W        W33330  14.575  25.697  12.542
66922W        W33331  10.273  17.510  14.928
66923W        W33332  14.116  34.524   1.859
66924W        W33333  24.022  13.210   4.180
66925W        W33334  17.267  33.701  14.354
66926W        W33335  23.710  35.016   4.489
66927W        W33336  37.673  11.230  11.647
66928W        W33337  16.803  22.228   0.867
66929W        W33338  14.793  28.764   4.470
66930W        W33339  30.981  18.596   3.213
66931W        W33340  43.459  20.317  14.346
66932W        W33341  18.801  19.768   3.440
66933W        W33342  39.122  43.446  10.591
66934W        W33343  42.532  34.745   3.406
66935W        W33344   5.768  29.409   3.124
66936W        W33345  27.702  12.802  12.980
66937W        W33346  43.807  27.418   1.749
66938W        W33347   3.806  39.442   1.295
66939W        W33348  23.830  27.234   2.589
66940W        W33349   9.717  37.007  14.418
66941W        W33350   9.275  35.354   1.811
66942W        W33351  27.371   7.841   1.334
66943W        W33352   6.772  31.446  13.175
66944W        W33353   5.869  14.267   3.226
66945W        W33354   2.573  11.090  14.472
66946W        W33355   3.006  28.444   4.095
66947W        W33356  43.499  22.973  13.373
66948W        W33357  36.212  37.289  12.832
66949W        W33358  34.345  37.857   1.172
66950W        W33359   6.336  13.359   0.422
66951W        W33360  23.056  33.027   0.023
66952W        W33361  19.721  24.915   0.402
66953W        W33362  21.325  15.631   3.623
66954W        W33363   2.689  22.569  14.353
66955W        W33364  43.782  11.817   4.592
66956W        W33365  35.144  32.501  11.363
66957W        W33366  24.119  10.908  13.805
66958W        W33367  21.274  28.627   0.706
66959W        W33368  44.566  18.837   3.349
66960W        W33369  42.104  29.655  13.920
66961W        W33370   1.164  14.628   4.333
66962W        W33371  19.598  43.318   0.873
66963W        W33372  26.460  43.592  14.107
66964W        W33373  19.354  37.450  13.775
66965W        W33374  42.828  10.181  12.121
66966W        W33375  19.693   0.263   1.502
66967W        W33376  25.127  22.019   1.336
66968W        W33377  43.529  43.140   1.778
66969W        W33378  30.224   4.509  11.411
66970W        W33379  15.744  32.619  14.446
66971W        W33380  22.562  42.393   1.140
66972W        W33381  35.963  14.961  10.419
66973W        W33382   3.742   2.333  11.071
66974W        W33383  39.382   8.645   3.348
66975W        W33384   5.286  29.127   3.632
66976W        W33385  41.454  33.125   2.216
66977W        W33386   5.811   2.455   0.894
66978W        W33387  35.552  14.844  13.888
66979W        W33388  24.797  17.783   0.836
66980W        W33389  15.333  20.487  11.263
66981W        W33390  33.599  42.079  11.446
66982W        W33391  11.919  25.280  11.587
66983W        W33392   1.270   0.282   1.506
66984W        W33393  13.616   2.221   3.118
66985W        W33394   2.104  44.589  11.232
66986W        W33395  10.262  21.954  14.917
66987W        W33396   7.630  34.378   2.666
66988W        W33397  22.217   8.688   2.332
66989W        W33398  25.011  35.989  14.766
66990W        W33399  42.882  31.489  11.102
66991W        W33400  34.609  29.158  13.852
66992W        W33401  21.656  24.957  13.415
66993W        W33402  27.233  29.974  14.022
66994W        W33403  10.628  30.850   0.201
66995W        W33404  22.056  10.931   3.212
66996W        W33405  24.495  18.021   2.791
66997W        W33406  22.977   4.267  11.988
66998W        W33407  41.920  14.673   2.207
66999W        W33408  11.311  17.709  14.033
67000W        W33409  12.162  30.639   2.470
67001W        W33410  11.836  24.012  10.853
67002W        W33411  33.091  37.037  13.900
67003W        W33412  11.695  22.991  11.736
67004W        W33413  41.093  40.234   3.681
67005W        W33414  43.015  11.348  11.734
67006W        W33415   7.664  11.349   0.489
67007W        W33416  27.862   3.958  10.010
67008W        W33417  37.178  38.159   4.937
67009W        W33418  16.227  32.703   4.683
67010W        W33419  20.497  22.142   0.024
67011W        W33420  39.722  41.016  14.288
67012W        W33421  10.595  18.589   3.306
67013W        W33422  16.794  35.409   0.799
67014W        W33423   4.962  29.477   9.944
67015W        W33424  37.803  42.701   4.447
67016W        W33425  44.827  18.816   2.903
67017W        W33426   9.608  40.228   4.557
67018W        W33427  43.666  37.937  11.974
67019W        W33428  13.802  30.708  11.562
67020W        W33429  18.977  39.285  14.495
67021W        W33430  24.123   0.729   2.325
67022W        W33431  29.706  33.487   0.791
67023W        W33432  38.610  40.959   3.680
67024W        W33433  37.654   8.203  10.471
67025W        W33434  43.497   2.433   0.336
67026W        W33435  21.008  30.420   1.719
67027W        W33436  43.752  13.102   1.239
67028W        W33437   7.016  10.951  14.318
67029W        W33438   1.681  28.488   3.717
67030W        W33439   6.710  29.404   2.160
67031W        W33440   3.795  11.889  13.964
67032W        W33441  31.501  37.148   4.130
67033W        W33442  36.565  28.454   0.858
67034W        W33443   7.654   6.318  11.591
67035W        W33444  27.508  22.395   2.954
67036W        W33445  22.240  39.905   2.319
67037W        W33446  12.098  34.481   0.524
67038W        W33447  33.518  41.052   2.803
67039W        W33448  15.635  40.853  13.586
67040W        W33449  20.989   6.857  11.109
67041W        W33450  16.483  18.406  12.090
67042W        W33451   9.250  42.765  14.378
67043W        W33452   2.759   5.154  11.144
67044W        W33453  42.059  36.923   1.039
67045W        W33454   6.672  33.541   2.734
67046W        W33455   6.015  28.591  14.903
67047W        W33456   8.477  42.848  13.941
67048W        W33457  21.302  31.617  10.440
67049W        W33458  31.190  15.958  12.046
67050W        W33459  11.770  42.087  11.507
67051W        W33460  38.213   0.449   0.919
67052W        W33461  32.038  36.812  11.561
67053W        W33462  24.662  12.811   2.307
67054W        W33463  32.361  17.615  12.824
67055W        W33464  28.121  28.094  13.492
67056W        W33465  25.723  29.175   3.507
67057W        W33466   8.330  42.317  12.049
67058W        W33467  20.271  32.303   0.686
67059W        W33468  27.615  42.451   1.190
67060W        W33469  39.922  42.121   1.269
67061W        W33470  26.462  41.656  11.653
67062W        W33471  32.653  43.569   1.353
67063W        W33472  29.518  21.456   0.461
67064W        W33473  23.614  27.220  14.346
67065W        W33474  40.967  35.755   3.686
67066W        W33475  36.287  35.476  13.046
67067W        W33476  22.261  28.927  10.708
67068W        W33477  36.423   5.525   0.973
67069W        W33478   7.684   2.480   3.928
67070W        W33479   0.890  33.293   4.153
67071W        W33480  12.036   6.496   0.229
67072W        W33481  43.909  43.710   4.593
67073W        W33482  39.101   2.250   1.381
67074W        W33483   7.318  33.967  12.359
67075W        W33484   1.978  24.622  13.963
67076W        W33485  11.216  21.641   1.883
67077W        W33486  17.124  25.624   3.001
67078W        W33487  21.635  41.925   0.507
67079W        W33488  10.324  26.674   1.723
67080W        W33489  11.121  32.637  11.399
67081W        W33490  38.021  15.248  14.000
67082W        W33491  27.996   6.221   0.780
67083W        W33492   0.004   9.159  13.267
67084W        W33493  26.061  35.144  11.114
67085W        W33494   6.202  27.016  12.566
67086W        W33495  15.250   0.256   4.631
67087W        W33496  41.529   5.751  10.425
67088W        W33497  15.729  32.577   2.467
67089W        W33498   4.291  32.919   0.512
67090W        W33499  28.098  28.097   0.879
67091W        W33500  11.043   1.037  13.410
67092W        W33501  21.538  33.813  12.411
67093W        W33502   6.836  24.070  11.170
67094W        W33503  28.987  26.220  14.403
67095W        W33504  12.772  28.916   4.609
67096W        W33505  24.032  42.959   2.973
67097W        W33506  39.442  19.568  11.694
67098W        W33507  23.524  15.127   1.465
67099W        W33508   7.145  39.598   3.122
67100W        W33509  11.801  27.936   3.389
67101W        W33510  16.092  44.453   4.995
67102W        W33511  20.626  12.745  13.115
67103W        W33512  32.033  36.990   1.970
67104W        W33513  38.987   3.204   3.377
67105W        W33514  42.186  41.634   0.387
67106W        W33515  31.306  39.999   4.968
67107W        W33516  11.369  32.430   0.741
67108W        W33517  42.876   7.659   0.430
67109W        W33518  13.206   6.196   4.098
67110W        W33519  13.873   0.427  13.238
67111W        W33520   8.837  33.930   0.081
67112W        W33521  34.916  25.966   3.076
67113W        W33522   1.470  12.397  10.923
67114W        W33523  36.626   0.434  10.686
67115W        W33524   0.848  32.787  12.558
67116W        W33525  37.470  31.960  12.093
67117W        W33526   9.676  13.154   4.574
67118W        W33527  32.529  43.703  11.160
67119W        W33528  27.487  10.172  14.549
67120W        W33529  31.988   1.586   3.283
67121W        W33530  19.680  27.712   5.049
67122W        W33531   4.293   0.970  10.667
67123W        W33532  37.967  24.446  10.747
67124W        W33533  32.678   4.017   1.746
67125W        W33534  36.566  17.267   2.963
67126W        W33535  20.755   8.308   1.768
67127W        W33536  26.953  19.728   3.270
67128W        W33537  22.330  14.602   1.877
67129W        W33538  29.860  20.764   4.747
67130W        W33539  22.377  11.560   4.542
67131W        W33540  20.693   5.366  14.650
67132W        W33541  22.992   1.796  14.441
67133W        W33542  15.499   5.821   0.783
67134W        W33543  18.593  15.217   0.810
67135W        W33544  34.538   3.415   2.810
67136W        W33545   3.321  22.595   2.333
67137W        W33546   5.320  26.012   1.244
67138W        W33547   4.389   3.545  10.532
67139W        W33548  39.698   5.174   1.335
67140W        W33549  13.077  40.280  10.251
67141W        W33550  20.738   7.131   0.420
67142W        W33551  34.580  38.861   2.384
67143W        W33552   8.696   3.674   2.495
67144W        W33553  32.802  41.380   4.209
67145W        W33554   7.923  40.521   1.767
67146W        W33555  10.347  41.167  10.018
67147W        W33556  36.549  25.573  11.489
67148W        W33557  23.020  33.158   2.008
67149W        W33558  43.015  42.191   4.493
67150W        W33559   2.025  37.542   2.389
67151W        W33560  34.816  15.519   4.505
67152W        W33561  27.502   3.440   1.694
67153W        W33562   6.422   3.494   2.743
67154W        W33563  27.292  37.410  13.434
67155W        W33564   3.167   2.861   0.366
67156W        W33565  42.145  10.753   2.678
67157W        W33566  43.929  35.800  14.881
67158W        W33567  21.565  19.638  12.116
67159W        W33568  20.750  25.744   2.527
67160W        W33569  19.150  29.401   2.276
67161W        W33570  43.921   1.358  10.716
67162W        W33571   8.671  21.711  13.968
67163W        W33572   6.213   8.186   4.399
67164W        W33573   7.398  16.274   0.296
67165W        W33574   1.866   5.401   0.536
67166W        W33575  34.661  28.405  14.856
67167W        W33576  18.756  16.883   2.878
67168W        W33577  41.366  37.854   4.079
67169W        W33578  28.378  30.569   2.682
67170W        W33579  36.869  24.108  11.207
67171W        W33580  22.140   2.133  12.392
67172W        W33581  26.784  26.042   1.775
67173W        W33582  42.334  21.002   0.703
67174W        W33583   0.480  23.800  13.533
67175W        W33584  18.061   2.839   4.397
67176W        W33585  31.470  29.137  12.519
67177W        W33586  35.935  13.905  14.433
67178W        W33587  14.997  14.294  10.821
67179W        W33588  14.834  17.506  12.127
67180W        W33589  29.476  30.505  14.277
67181W        W33590  40.524  36.798   1.389
67182W        W33591  10.644  15.513  14.334
67183W        W33592  32.487  39.470  14.042
67184W        W33593  30.588  17.529  13.372
67185W        W33594  34.093   4.061   4.488
67186W        W33595  38.018   0.077  12.808
67187W        W33596  24.603  21.800  13.471
67188W        W33597  35.371  43.522  11.297
67189W        W33598  41.543  29.047   3.268
67190W        W33599  10.330  33.394   0.813
67191W        W33600  31.966  23.711   2.674
67192W        W33601  21.569   7.725   0.409
67193W        W33602  25.930   6.078  14.540
67194W        W33603  41.329  31.980   0.448
67195W        W33604  37.543   5.696   3.168
67196W        W33605   3.996  34.372  12.559
67197W        W33606  13.028   9.371   3.513
67198W        W33607   3.983  23.260   0.328
67199W        W33608  44.043  44.985  11.100
67200W        W33609  13.613  36.007  13.732
67201W        W33610   2.387  18.272   0.781
67202W        W33611  14.904  37.403   3.902
67203W        W33612  20.111  32.296  14.915
67204W        W33613  14.309   8.090   3.317
67205W        W33614  27.555   8.092   1.793
67206W        W33615  40.589  33.008  11.225
67207W        W33616  15.098  15.013   4.761
67208W        W33617  18.385  11.289  12.563
67209W        W33618  33.196  41.062  13.556
67210W        W33619  24.844  43.214   1.387
67211W        W33620  37.203  42.088  14.121
67212W        W33621  30.049  32.855  10.742
67213W        W33622  24.970  30.000   2.268
67214W        W33623  27.776  33.434  14.733
67215W        W33624  44.869  38.113   4.528
67216W        W33625  26.677   3.014  14.969
67217W        W33626   7.249  17.098  14.755
67218W        W33627  44.210  40.450   0.896
67219W        W33628  32.381  11.319  13.885
67220W        W33629  18.898  36.102   0.293
67221W        W33630  43.421  25.772   4.208
67222W        W33631  44.319  25.646  12.332
67223W        W33632   2.532  41.400   0.297
67224W        W33633  35.048   8.952  13.945
67225W        W33634   4.988  21.046   1.995
67226W        W33635   9.432  41.883   3.839
67227W        W33636   0.506  36.780   1.226
67228W        W33637  12.318   3.107  10.151
67229W        W33638   1.228  26.729   3.135
67230W        W33639   9.367  13.305  10.725
67231W        W33640  43.360  40.517  11.588
67232W        W33641   2.997   8.605   0.476
67233W        W33642  15.121   9.699  13.947
67234W        W33643  12.721  40.602  12.396
67235W        W33644  21.983  33.817  13.535
67236W        W33645  30.968  10.769   3.318
67237W        W33646  39.007  20.050  14.055
67238W        W33647   5.689  13.213  11.568
67239W        W33648  33.056  35.472   0.381
67240W        W33649  12.575  39.832  14.827
67241W        W33650  40.509  38.305   4.448
67242W        W33651   2.059  40.969  11.514
67243W        W33652  16.169   7.317  11.628
67244W        W33653  29.892   2.206  14.001
67245W        W33654   0.513  38.797  13.478
67246W        W33655  12.351   2.737   3.098
67247W        W33656  15.081   2.794   3.548
67248W        W33657  22.149   4.831  12.911
67249W        W33658  26.643   0.194   2.494
67250W        W33659   3.265  28.076  11.219
67251W        W33660  36.530  38.694  12.046
67252W        W33661   1.482   3.466  13.942
67253W        W33662  12.215  32.061  11.506
67254W        W33663  27.249  27.547   0.288
67255W        W33664  31.729   5.886   4.112
67256W        W33665   7.199  24.069  13.940
67257W        W33666  33.628  38.156   9.799
67258W        W33667  15.564  33.317  13.715
67259W        W33668  14.326   6.922  11.524
67260W        W33669  35.195  25.039   4.609
67261W        W33670  14.474  10.206   2.593
67262W        W33671  38.091  14.849  12.201
67263W        W33672  28.075   3.911  10.489
67264W        W33673  38.924  28.741   3.679
67265W        W33674   3.354  29.224   2.446
67266W        W33675  24.876  17.546   1.306
67267W        W33676   5.731  19.250  13.822
67268W        W33677  21.543  29.410   9.935
67269W        W33678  21.606   8.230  14.518
67270W        W33679  11.274  29.095   3.629
67271W        W33680  26.759  22.231   3.525
67272W        W33681   4.370  25.101  14.101
67273W        W33682  34.796  30.536  10.323
67274W        W33683  24.208  39.747  10.380
67275W        W33684  23.044  15.309  11.101
67276W        W33685  14.281   4.441   2.686
67277W        W33686  16.232  40.263  12.050
67278W        W33687   7.745  28.255   4.014
67279W        W33688  13.178  36.474   3.443
67280W        W33689  31.362  12.361  14.336
67281W        W33690   9.657   5.141   3.167
67282W        W33691  36.466   4.961   1.857
67283W        W33692  31.999  28.305  11.704
67284W        W33693  22.270  10.652   2.831
67285W        W33694  10.606  10.953   0.548
67286W        W33695   8.107  34.040   2.337
67287W        W33696  18.378  37.423  13.821
67288W        W33697  31.966   9.274  12.989
67289W        W33698  10.245  38.136   1.462
67290W        W33699  42.328  15.777  13.859
67291W        W33700  26.050   9.975   4.856
67292W        W33701   2.844  21.334   4.498
67293W        W33702  42.852   2.455  11.247
67294W        W33703  35.704  41.059  14.578
67295W        W33704   3.446   8.079  13.893
67296W        W33705  38.065  27.186   1.823
67297W        W33706  14.110   8.770  12.016
67298W        W33707   1.128   3.202   4.008
67299W        W33708  34.995  12.695  11.576
67300W        W33709  19.728  10.631   4.219
67301W        W33710  35.080   5.889  13.636
67302W        W33711   8.677   1.656   4.536
67303W        W33712  43.313  43.996  10.834
67304W        W33713  14.364   4.091   2.306
67305W        W33714  19.918  25.050  12.142
67306W        W33715   2.998  31.565  14.042
67307W        W33716  20.260  25.354   2.475
67308W        W33717  43.578  12.993  11.026
67309W        W33718  41.770  15.448  13.526
67310W        W33719  24.007   6.830  11.846
67311W        W33720  22.273  16.802  10.891
67312W        W33721  20.701  40.287   0.236
67313W        W33722   4.821  34.382  11.131
67314W        W33723  23.209  44.888   2.482
67315W        W33724  17.977   6.776   2.300
67316W        W33725  41.778  34.079   3.292
67317W        W33726  38.461   7.384   2.962
67318W        W33727  12.539  11.567   0.836
67319W        W33728  14.598  43.858  14.022
67320W        W33729  34.552  33.469   1.456
67321W        W33730  10.782  17.419  14.755
67322W        W33731  29.486  28.135  10.686
67323W        W33732  37.586  28.902   0.941
67324W        W33733  18.168  44.791   0.220
67325W        W33734  25.180   6.427   2.807
67326W        W33735  41.533  18.127   3.015
67327W        W33736   1.328  19.016   4.723
67328W        W33737  15.102  29.137   3.318
67329W        W33738  25.765   8.410   1.696
67330W        W33739  16.079   9.516  11.171
67331W        W33740  39.620   6.886   0.876
67332W        W33741  25.089  20.287   4.332
67333W        W33742  25.274  25.670  11.035
67334W        W33743   2.755  29.584  12.609
67335W        W33744  29.200  25.676   0.585
67336W        W33745  40.101  25.819  11.131
67337W        W33746  41.349   8.321  10.694
67338W        W33747   7.527  33.813  11.916
67339W        W33748   3.207  42.355   1.056
67340W        W33749  41.049  24.933  14.912
67341W        W33750  34.381  29.997  13.269
67342W        W33751  35.802  11.657   1.266
67343W        W33752   8.352  40.581  11.525
67344W        W33753  10.726  21.164  12.976
67345W        W33754   7.916  25.808  12.367
67346W        W33755  30.217  31.931  10.768
67347W        W33756  44.821  12.793  13.413
67348W        W33757  42.484  15.609   1.462
67349W        W33758  26.559  40.977  11.064
67350W        W33759  27.920   7.327   1.873
67351W        W33760  19.086   9.667  10.803
67352W        W33761   2.843  36.143   3.891
67353W        W33762  28.149   2.942   0.911
67354W        W33763   7.664  34.992   2.305
67355W        W33764  11.599  19.647  14.991
67356W        W33765  30.537  24.057  10.656
67357W        W33766  10.889  39.531  10.818
67358W        W33767  11.676   4.413  11.257
67359W        W33768   6.848   2.668  13.070
67360W        W33769   9.803  38.189  14.000
67361W        W33770  21.782  36.290   1.293
67362W        W33771  20.061  43.331   2.373
67363W        W33772   5.864  44.470   3.308
67364W        W33773  39.447  12.294   2.308
67365W        W33774  40.386  42.799  12.524
67366W        W33775  30.306  12.664  12.561
67367W        W33776   4.645  28.893  12.709
67368W        W33777  19.382  23.747   2.247
67369W        W33778  19.112  18.593   3.357
67370W        W33779  26.009   6.428  12.809
67371W        W33780  28.714   6.787  12.397
67372W        W33781  37.402  30.004  14.894
67373W        W33782  16.394   0.901  11.476
67374W        W33783   3.979  33.122   2.354
67375W        W33784  18.328  12.167  10.427
67376W        W33785   0.923  29.932  12.401
67377W        W33786  20.157  21.726  12.903
67378W        W33787  17.295  20.231  10.179
67379W        W33788  30.066   0.246  10.704
67380W        W33789  38.719  26.516  11.125
67381W        W33790  41.363  40.569  13.596
67382W        W33791  34.947  35.692  13.381
67383W        W33792  40.601  31.731  13.632
67384W        W33793  10.470  30.406   0.402
67385W        W33794   7.280  28.315   0.301
67386W        W33795  40.491  11.869  11.988
67387W        W33796  31.523   8.754   3.449
67388W        W33797  27.936   0.823   3.132
67389W        W33798  39.746  21.690   1.194
67390W        W33799   6.234  43.143   4.981
67391W        W33800  21.924  40.173  12.022
67392W        W33801   1.933  16.730  10.764
67393W        W33802  27.670  39.526   2.218
67394W        W33803  40.204   1.907  11.649
67395W        W33804   0.080  40.150   1.629
67396W        W33805  16.057  43.020   3.846
67397W        W33806  30.622  34.906   3.353
67398W        W33807  43.301   5.908   0.560
67399W        W33808  24.001  27.533   0.947
67400W        W33809  21.170  42.421   4.050
67401W        W33810   7.863   3.750  14.567
67402W        W33811  22.923   4.458  12.487
67403W        W33812   3.901  36.188  13.965
67404W        W33813   9.661   4.743   3.945
67405W        W33814  31.083  19.456  11.875
67406W        W33815  37.214  36.583  14.883
67407W        W33816  20.103  22.696  13.794
67408W        W33817  18.714   4.376   3.570
67409W        W33818   6.198  26.634  13.911
67410W        W33819  28.370  32.509   1.964
67411W        W33820  25.602   7.314   2.339
67412W        W33821  34.850  20.231  12.047
67413W        W33822  11.345   4.065  14.435
67414W        W33823   5.115  28.026   3.040
67415W        W33824  23.718  16.319   1.296
67416W        W33825  21.189  15.847  10.690
67417W        W33826  29.632  21.452   4.151
67418W        W33827  44.271  27.323   0.029
67419W        W33828  31.974   1.887  10.033
67420W        W33829  21.849  19.348   1.421
67421W        W33830  17.905  41.277   2.642
67422W        W33831  38.375  12.292   4.282
67423W        W33832  11.119  32.883   1.927
67424W        W33833  18.250  39.586   2.402
67425W        W33834  39.514   3.735   3.600
67426W        W33835  34.582   5.340   1.520
67427W        W33836  29.118  27.716  11.932
67428W        W33837  29.543  16.527  12.358
67429W        W33838  11.559  24.333   2.466
67430W        W33839  22.524  16.231  14.953
67431W        W33840  40.486  34.595  11.117
67432W        W33841  34.925  10.172   0.695
67433W        W33842  29.661  17.824  14.508
67434W        W33843  29.669  36.366   0.805
67435W        W33844  38.048  41.107   1.860
67436W        W33845  42.218  20.513   2.336
67437W        W33846  21.916  31.689  13.905
67438W        W33847   0.024   4.298   4.147
67439W        W33848   4.215   5.162  12.491
67440W        W33849   6.413  40.020  13.087
67441W        W33850  10.537  31.478  14.398
67442W        W33851   7.270  19.964   1.360
67443W        W33852   8.232  17.304   0.769
67444W        W33853  25.545  38.970   4.641
67445W        W33854  26.932  10.301   0.134
67446W        W33855  32.922  27.268  10.977
67447W        W33856  23.586  35.760   3.247
67448W        W33857  42.470   7.987   9.863
67449W        W33858  13.713  31.924  13.506
67450W        W33859  20.802  40.865   0.995
67451W        W33860  15.253  20.165   9.767
67452W        W33861  16.184  41.399   3.329
67453W        W33862  22.043   9.688  10.731
67454W        W33863  15.172  43.848  13.261
67455W        W33864  27.745  26.053  12.673
67456W        W33865  42.554  14.394   2.731
67457W        W33866  21.944  26.718  11.482
67458W        W33867  42.957   9.735  11.280
67459W        W33868  17.105   6.502   2.316
67460W        W33869  12.996  20.573   0.460
67461W        W33870  26.570  26.216  12.062
67462W        W33871   8.919  14.168   3.186
67463W        W33872   5.356  41.187   3.660
67464W        W33873  38.578   6.641  14.403
67465W        W33874  18.837  25.506   2.693
67466W        W33875  34.844  42.919   4.769
67467W        W33876   2.290  33.354   3.273
67468W        W33877  29.139   9.146  11.516
67469W        W33878  22.770  34.455   4.241
67470W        W33879  40.058  35.914  12.549
67471W        W33880  16.269  23.468   9.774
67472W        W33881  18.116  42.799  10.866
67473W        W33882  30.857  32.310  13.994
67474W        W33883   9.847   7.670  10.799
67475W        W33884   8.790  34.395  11.174
67476W        W33885  42.816  32.660  14.449
67477W        W33886  32.102  36.756   0.286
67478W        W33887  22.644  19.101   4.209
67479W        W33888  31.716  24.259   3.379
67480W        W33889  26.218  24.820  10.666
67481W        W33890  40.799  35.622   2.735
67482W        W33891  12.371  26.283   3.449
67483W        W33892  19.988  35.998  10.062
67484W        W33893  20.784   7.255   2.247
67485W        W33894   3.424  10.349  11.748
67486W        W33895  34.133  20.282   2.288
67487W        W33896  43.625  38.628   4.384
67488W        W33897  38.924  20.678  12.819
67489W        W33898  22.028   7.993   0.360
67490W        W33899  42.444  35.719  13.111
67491W        W33900  28.148  11.445  14.299
67492W        W33901  14.699  12.874  14.393
67493W        W33902  14.323  42.927  14.399
67494W        W33903  24.285   0.887   1.382
67495W        W33904  26.065   7.529   3.189
67496W        W33905  36.025  38.874  12.109
67497W        W33906  28.585  27.516  12.002
67498W        W33907  10.102  29.093  12.191
67499W        W33908  25.100  15.374  11.435
67500W        W33909  41.545  38.961  14.270
67501W        W33910  22.740  10.350   0.277
67502W        W33911  20.213  14.073   2.883
67503W        W33912  10.397  26.739   2.853
67504W        W33913  42.828  40.760  14.531
67505W        W33914  13.748  42.530  14.819
67506W        W33915   4.348  11.574  10.908
67507W        W33916  37.592   3.339   4.043
67508W        W33917   6.819  15.324   4.148
67509W        W33918  23.595  13.855  13.035
67510W        W33919   3.259  12.134   1.862
67511W        W33920   3.706   9.823  13.560
67512W        W33921   0.488   9.112   4.908
67513W        W33922  22.418  38.605  10.179
67514W        W33923  16.568   1.880   4.365
67515W        W33924  10.812  18.759  12.888
67516W        W33925  37.289  33.701   0.197
67517W        W33926   6.195  29.049  13.016
67518W        W33927  27.734   1.554  14.225
67519W        W33928   1.750  34.502   0.879
67520W        W33929  12.368  29.144  14.284
67521W        W33930  37.789   8.571   4.132
67522W        W33931  32.250   6.359   4.828
67523W        W33932  10.454  32.270  14.337
67524W        W33933  24.048  34.081   0.897
67525W        W33934  35.245   4.758  14.137
67526W        W33935  37.600  43.150   5.036
67527W        W33936  29.826  29.089   1.599
67528W        W33937  21.009  32.649  14.564
67529W        W33938   1.848  26.750  11.203
67530W        W33939   2.765  20.382   3.160
67531W        W33940   5.411  31.434   0.895
67532W        W33941   5.664   3.168   1.430
67533W        W33942  15.263  20.635  13.008
67534W        W33943   8.653  29.504  13.916
67535W        W33944  26.475  17.174   3.710
67536W        W33945   6.863   8.502   2.188
67537W        W33946   4.267  37.090   2.155
67538W        W33947  25.146  43.352   1.828
67539W        W33948   8.192   4.703   1.841
67540W        W33949  28.917  11.409   0.438
67541W        W33950  25.038  17.626   0.363
67542W        W33951  26.504  28.347   0.704
67543W        W33952  18.045  21.664  13.479
67544W        W33953  26.623  25.502  10.482
67545W        W33954  23.172  19.156  13.705
67546W        W33955  32.208  23.413  11.674
67547W        W33956  14.610  19.694   0.786
67548W        W33957   1.837  20.164   3.694
67549W        W33958   3.219  15.432  11.754
67550W        W33959  22.969   7.060   3.640
67551W        W33960   6.907  13.443  14.238
67552W        W33961  21.256   5.894  10.737
67553W        W33962  16.978  43.305   0.337
67554W        W33963  34.672  20.266   4.620
67555W        W33964  26.736  25.164   0.457
67556W        W33965  18.766  30.715  14.539
67557W        W33966  26.928  43.836  10.634
67558W        W33967   5.218   6.209   2.434
67559W        W33968  28.112  22.511  11.900
67560W        W33969  24.270  24.768  12.039
67561W        W33970  25.020  32.171  11.656
67562W        W33971  31.920  32.247  12.989
67563W        W33972  27.034  30.469   0.268
67564W        W33973   6.239  22.656  14.472
67565W        W33974  41.293   1.613   2.634
67566W        W33975  27.927  13.102   3.690
67567W        W33976  37.965  43.285  11.210
67568W        W33977  17.175  14.815  12.871
67569W        W33978  25.731  19.968  10.675
67570W        W33979   4.166  32.768   1.506
67571W        W33980  40.562  40.302   1.270
67572W        W33981  22.747  31.417  11.615
67573W        W33982  13.335  39.378   0.874
67574W        W33983   8.929  14.135   4.997
67575W        W33984   8.367  44.420  11.035
67576W        W33985  43.930  22.556  10.938
67577W        W33986  15.295  30.892   1.269
67578W        W33987  25.108  29.297  12.991
67579W        W33988   0.922  31.352  13.387
67580W        W33989  28.478   9.935   0.886
67581W        W33990  41.019  42.478   3.646
67582W        W33991   7.680  11.836   1.267
67583W        W33992  34.349  37.612  13.978
67584W        W33993  19.866  29.616  13.542
67585W        W33994  10.123  33.505   3.181
67586W        W33995   6.009   7.570  11.972
67587W        W33996  20.272  12.447  11.140
67588W        W33997   6.874  19.865   0.193
67589W        W33998   6.836  12.962  14.374
67590W        W33999  29.537  18.825  10.264
67591W        W34000  14.220  18.450  12.918
67592W        W34001  17.425   0.865   4.442
67593W        W34002  29.177  23.733   3.718
67594W        W34003   9.178   3.474  10.710
67595W        W34004   3.894  11.777   2.093
67596W        W34005  24.309  22.008   0.761
67597W        W34006  31.324  22.259   2.767
67598W        W34007  34.061  21.509  14.556
67599W        W34008  23.658   4.590   3.790
67600W        W34009  19.158  26.479  12.175
67601W        W34010  35.863   6.784  14.962
67602W        W34011  18.695  24.455   2.808
67603W        W34012  38.314   5.650  11.541
67604W        W34013   4.437  40.322  12.966
67605W        W34014  38.998  34.441  13.169
67606W        W34015  35.660  24.652  12.602
67607W        W34016  24.110  31.544   1.691
67608W        W34017   3.884  42.687  13.776
67609W        W34018  14.250  16.437  14.568
67610W        W34019  29.455  22.775   1.873
67611W        W34020  43.509  17.246  14.338
67612W        W34021  44.433  34.811  11.435
67613W        W34022  33.457   6.464  12.931
67614W        W34023  13.718  32.977   4.518
67615W        W34024  40.332  17.811   2.122
67616W        W34025  32.702   8.369  13.378
67617W        W34026  39.225   2.816  11.128
67618W        W34027  13.521  43.669   2.684
67619W        W34028  41.486  28.253   3.264
67620W        W34029  17.305  26.924  13.526
67621W        W34030  17.980  31.540  13.049
67622W        W34031  28.049  22.240  13.972
67623W        W34032  16.297   0.113   3.600
67624W        W34033   7.410  33.066  11.374
67625W        W34034  23.497  36.359   4.080
67626W        W34035   2.823  43.507  14.892
67627W        W34036  43.024  38.805  11.596
67628W        W34037  27.027  24.569  10.731
67629W        W34038  37.150  22.960   2.767
67630W        W34039   7.329  40.856   0.323
67631W        W34040  44.416  40.120   2.797
67632W        W34041  13.446  36.577   1.440
67633W        W34042  35.261  18.938   1.922
67634W        W34043  16.690  32.420  14.437
67635W        W34044   6.982   6.457   1.329
67636W        W34045   5.728   4.229  11.702
67637W        W34046  15.429  38.363  11.687
67638W        W34047  44.641  30.937   1.201
67639W        W34048  40.803   2.896  11.320
67640W        W34049  23.237  39.987  14.489
67641W        W34050   7.788  26.075  12.798
67642W        W34051  42.873   0.460  10.602
67643W        W34052   6.125  17.596  14.465
67644W        W34053  19.631  39.384  10.733
67645W        W34054  41.037  12.420  11.671
67646W        W34055  11.673   0.106   2.949
67647W        W34056  37.549  34.029  10.388
67648W        W34057  14.883  17.277  10.754
67649W        W34058   3.478  37.839   3.724
67650W        W34059  32.602  20.028   3.214
67651W        W34060  34.742  15.853  10.789
67652W        W34061  16.967  42.530   0.736
67653W        W34062  23.119  33.672   1.846
67654W        W34063  20.339   3.983   0.486
67655W        W34064   0.051  23.758  14.454
67656W        W34065  18.675  24.146  10.656
67657W        W34066  32.047  38.390   2.112
67658W        W34067   1.701  27.729   1.427
67659W        W34068  20.989  42.377   2.568
67660W        W34069  41.283  15.294  11.677
67661W        W34070  21.166   4.964  10.785
67662W        W34071  30.567  40.235   2.718
67663W        W34072  35.883  25.211  10.445
67664W        W34073  19.728  21.201   1.884
67665W        W34074  33.547  14.117   2.163
67666W        W34075   5.814  17.103  12.509
67667W        W34076  25.627  35.143   0.318
67668W        W34077   4.528  39.685   2.880
67669W        W34078   7.847   3.748   3.906
67670W        W34079  16.425  36.109   3.673
67671W        W34080  27.020  12.025  10.308
67672W        W34081  43.802  19.515  13.457
67673W        W34082  30.420   7.880   1.359
67674W        W34083  16.697   4.096   0.501
67675W        W34084   0.784  30.628  14.002
67676W        W34085  40.349  12.301  14.047
67677W        W34086  21.068  38.810   0.545
67678W        W34087   6.749   6.303   1.795
67679W        W34088  29.919   8.873   4.580
67680W        W34089  33.894   9.755   1.428
67681W        W34090  44.544  17.984  13.786
67682W        W34091  19.999   0.323  12.392
67683W        W34092  19.361  13.882   1.351
67684W        W34093  38.131   2.190  13.400
67685W        W34094  25.717   1.953   3.233
67686W        W34095  25.641   9.927  14.414
67687W        W34096   0.720  41.446  10.150
67688W        W34097  40.257  41.534   2.309
67689W        W34098  31.148  32.649   0.469
67690W        W34099  42.597  19.504  14.578
67691W        W34100  10.750  20.160   4.644
67692W        W34101  22.105   9.226  13.057
67693W        W34102  20.298  25.655   3.718
67694W        W34103   1.713  18.622   4.196
67695W        W34104  28.055  17.848  13.043
67696W        W34105  40.803   2.225  10.590
67697W        W34106  19.041  10.732   2.892
67698W        W34107  24.207  13.257   4.956
67699W        W34108  32.646   9.306   4.807
67700W        W34109   2.300  11.600  12.452
67701W        W34110   0.539  16.651   3.093
67702W        W34111   9.581  12.676   1.673
67703W        W34112  36.405  43.041   0.800
67704W        W34113   3.349  40.909   4.191
67705W        W34114  27.129  28.330   2.318
67706W        W34115   4.144  43.568  14.842
67707W        W34116  34.143  20.467   0.885
67708W        W34117  10.284  20.526  14.387
67709W        W34118  37.074  31.585  11.372
67710W        W34119  23.560   0.984  14.095
67711W        W34120  26.147  10.533  14.927
67712W        W34121  21.488  25.511  14.364
67713W        W34122  22.170  20.571  11.290
67714W        W34123  39.272  25.617   3.145
67715W        W34124  22.698  33.376  12.946
67716W        W34125  19.657  32.655  11.047
67717W        W34126   1.987  11.110   0.070
67718W        W34127  19.168  33.134  11.532
67719W        W34128  31.021   2.961   2.777
67720W        W34129  11.622   1.715  12.947
67721W        W34130  32.595  33.909   3.349
67722W        W34131  31.945  43.754  11.093
67723W        W34132  15.715   5.735  11.124
67724W        W34133  14.552   1.961  13.178
67725W        W34134  20.729  29.972   0.892
67726W        W34135  15.629  35.348  14.075
67727W        W34136   8.479  13.479  10.544
67728W        W34137  43.313   7.740   9.774
67729W        W34138   4.294  10.788   1.510
67730W        W34139  34.373  27.998  13.045
67731W        W34140  26.700  32.203  12.457
67732W        W34141  31.809  28.397   1.124
67733W        W34142   3.840  24.176   1.863
67734W        W34143  36.230  30.655   3.424
67735W        W34144  39.037  38.199   2.980
67736W        W34145  24.959  39.550  13.549
67737W        W34146  35.341   3.672   0.006
67738W        W34147  37.408  25.802   2.183
67739W        W34148   2.294  32.746  12.410
67740W        W34149   4.390  35.750  11.161
67741W        W34150  12.463  15.109   1.001
67742W        W34151  12.111  34.841   2.287
67743W        W34152   2.042  36.148   2.165
67744W        W34153  32.784  28.217  14.769
67745W        W34154  42.258   2.414  10.801
67746W        W34155  30.634  27.173  13.779
67747W        W34156  34.132   5.319   0.208
67748W        W34157  30.005  28.228   1.475
67749W        W34158  27.617  42.053   1.532
67750W        W34159  33.938  11.765  12.663
67751W        W34160   7.375  17.357   3.567
67752W        W34161  23.920  14.783   3.701
67753W        W34162  32.103  32.494  14.936
67754W        W34163  43.102  28.161   4.658
67755W        W34164   4.516  34.327  12.516
67756W        W34165  26.321  25.579  13.632
67757W        W34166   0.456  28.386   2.454
67758W        W34167  30.018  17.507  12.954
67759W        W34168   0.309   2.285  14.828
67760W        W34169   4.338  28.958  14.028
67761W        W34170  35.599   5.164   2.653
67762W        W34171  14.246  29.096   3.692
67763W        W34172  40.909  15.541  14.895
67764W        W34173   2.324  19.550  13.538
67765W        W34174  24.479   6.728   0.868
67766W        W34175  43.539  35.475  11.103
67767W        W34176  22.712  13.388  13.628
67768W        W34177  16.532  39.534  13.058
67769W        W34178  27.729  21.793  12.114
67770W        W34179  25.613  43.831   1.926
67771W        W34180  23.356  34.447  12.341
67772W        W34181  28.464  32.881  10.889
67773W        W34182  22.697  30.044  13.924
67774W        W34183  33.282  31.494   3.766
67775W        W34184  11.163  25.444   2.276
67776W        W34185   2.881  35.252   4.066
67777W        W34186  44.081  23.501  13.593
67778W        W34187  29.369  32.980   2.519
67779W        W34188  18.200  35.345  11.525
67780W        W34189   9.891  14.136   3.379
67781W        W34190  29.166  29.966  12.469
67782W        W34191   0.114  19.546   4.204
67783W        W34192   0.374   9.391   2.843
67784W        W34193  36.222  13.336   2.862
67785W        W34194  14.601  16.647   3.342
67786W        W34195   2.667   3.172  11.251
67787W        W34196  23.053  31.372  13.465
67788W        W34197   9.671  32.836  14.846
67789W        W34198  23.146  11.669  13.463
67790W        W34199  23.875  24.277  13.806
67791W        W34200  14.226   1.762  13.565
67792W        W34201  27.911  10.659   4.531
67793W        W34202   6.444   5.366  14.307
67794W        W34203  41.807  43.521   4.618
67795W        W34204   1.245  38.729   0.827
67796W        W34205  24.118   9.540   5.282
67797W        W34206  34.488  21.177   4.985
67798W        W34207  35.389   2.793  14.759
67799W        W34208  27.410   7.137   3.830
67800W        W34209  28.039  22.622   4.787
67801W        W34210  27.994   8.399  14.134
67802W        W34211  26.239  26.924   3.658
67803W        W34212  25.649   3.795  11.016
67804W        W34213  21.693  17.732   0.327
67805W        W34214  10.799  39.657  12.014
67806W        W34215  33.390  43.003  10.737
67807W        W34216   3.572  21.646   4.203
67808W        W34217  13.028  22.391  10.267
67809W        W34218  24.725  26.525   1.461
67810W        W34219   0.176  20.006   1.610
67811W        W34220  44.939   4.739   0.847
67812W        W34221  35.351  20.361  12.915
67813W        W34222  23.175  16.823   3.600
67814W        W34223  32.707  22.746   3.017
67815W        W34224  26.973  37.583  14.394
67816W        W34225   2.165   0.455   3.574
67817W        W34226  31.499  38.388   4.810
67818W        W34227   9.310  10.304   0.316
67819W        W34228  25.222  21.616   3.610
67820W        W34229  24.755  23.760   2.790
67821W        W34230  22.293  44.419   3.655
67822W        W34231  17.802  44.306  13.948
67823W        W34232  38.938  18.825   3.614
67824W        W34233  17.330  31.713   4.384
67825W        W34234  38.001  40.958   3.412
67826W        W34235  25.985  41.706   4.041
67827W        W34236   4.893  14.932  12.590
67828W        W34237  17.483  13.838   0.853
67829W        W34238  17.270  22.739  13.629
67830W        W34239  24.446   8.058   4.009
67831W        W34240  16.295  34.108  13.027
67832W        W34241   3.003  42.485   0.263
67833W        W34242  20.920  38.939  12.388
67834W        W34243   0.472  28.419  12.162
67835W        W34244   7.528  14.195  11.272
67836W        W34245  14.618  18.104   3.267
67837W        W34246  42.014  28.946   1.713
67838W        W34247  19.731  29.715  11.401
67839W        W34248  14.647  20.779   1.606
67840W        W34249  26.129   3.743  10.747
67841W        W34250  11.267   5.948   2.624
67842W        W34251   6.333  23.106  13.502
67843W        W34252  37.866  13.225  13.385
67844W        W34253  24.583  35.168   4.590
67845W        W34254   5.960  21.824  10.100
67846W        W34255   7.785  22.951  14.430
67847W        W34256  34.065  34.761   1.547
67848W        W34257  30.260   8.209   4.544
67849W        W34258  19.806  19.723   3.013
67850W        W34259   8.343   0.858   1.005
67851W        W34260   5.401  29.449  12.783
67852W        W34261  29.221  43.258   3.370
67853W        W34262   9.834  42.028  13.869
67854W        W34263   8.475  24.624   3.239
67855W        W34264   0.986  13.336   0.759
67856W        W34265  15.798   1.205  13.954
67857W        W34266  44.985   1.208  14.911
67858W        W34267  17.048  24.731  11.360
67859W        W34268   2.797  11.668   4.914
67860W        W34269   4.274   6.603   3.559
67861W        W34270  35.896  39.422   1.634
67862W        W34271  12.626   0.779   2.726
67863W        W34272  14.313  28.956  11.564
67864W        W34273  27.048  24.688   4.477
67865W        W34274  11.246   4.547  10.798
67866W        W34275  13.299  42.776   5.022
67867W        W34276   6.344  36.033   4.606
67868W        W34277   8.270  25.458  14.414
67869W        W34278  23.574   8.813  10.650
67870W        W34279  26.545  22.030  11.569
67871W        W34280  24.202  32.624  12.487
67872W        W34281   0.790  42.885   2.384
67873W        W34282   5.798  15.587  11.648
67874W        W34283  30.470  11.833   1.386
67875W        W34284  11.433  21.194  13.935
67876W        W34285  18.668  32.073   3.125
67877W        W34286  19.993   4.676   3.217
67878W        W34287   9.261  35.568  12.608
67879W        W34288  28.233  28.278  11.936
67880W        W34289  38.844  44.527   0.730
67881W        W34290   9.825  38.531  10.699
67882W        W34291   2.622   2.289  12.112
67883W        W34292  20.636  16.956   1.953
67884W        W34293  18.137  14.563  12.898
67885W        W34294  31.545   2.840  13.489
67886W        W34295  22.423  29.721   2.118
67887W        W34296  34.348   8.084   4.564
67888W        W34297  17.095  25.184  10.663
67889W        W34298   3.111  13.160  14.765
67890W        W34299  31.417  27.573  11.708
67891W        W34300   7.151   7.838  12.571
67892W        W34301  37.826  22.685   0.249
67893W        W34302  40.025  18.538   3.154
67894W        W34303   5.293   4.063   1.469
67895W        W34304  39.228  18.309   0.107
67896W        W34305  20.548  37.514  13.437
67897W        W34306  30.182  20.241  13.185
67898W        W34307  31.656  22.252  12.598
67899W        W34308  10.629   0.220  11.816
67900W        W34309  27.174  43.683   1.293
67901W        W34310  18.878  23.572  12.516
67902W        W34311   5.248  42.144   0.938
67903W        W34312  34.319  11.694  12.327
67904W        W34313  39.074  34.437  11.316
67905W        W34314  19.690  17.907   4.162
67906W        W34315   8.188  35.052  11.971
67907W        W34316  17.331  41.819   1.961
67908W        W34317  38.466   2.521   3.202
67909W        W34318  43.002  19.663   3.677
67910W        W34319   5.867  35.746  12.432
67911W        W34320  24.734  13.445   3.614
67912W        W34321  22.347  12.251  13.056
67913W        W34322  30.633  23.553  14.409
67914W        W34323  35.112  41.096  11.988
67915W        W34324   2.936   9.789  11.427
67916W        W34325  28.750   6.819   0.888
67917W        W34326   4.268  34.986  10.644
67918W        W34327   3.110  30.341  12.548
67919W        W34328   0.432  40.521  13.489
67920W        W34329  26.188   0.947  13.833
67921W        W34330  29.018   6.764  11.256
67922W        W34331  28.190  28.548  11.082
67923W        W34332  44.499  11.844  11.955
67924W        W34333   6.335  31.990   0.727
67925W        W34334  36.041  41.167  14.974
67926W        W34335  32.527   6.090   2.785
67927W        W34336  38.817   6.785   2.441
67928W        W34337   9.011   1.276  12.182
67929W        W34338  34.552  21.902   1.881
67930W        W34339  14.558  30.448  14.147
67931W        W34340  32.367  37.632   3.272
67932W        W34341  27.566  29.972   0.350
67933W        W34342  26.334  35.572   3.821
67934W        W34343  33.514  32.812   4.172
67935W        W34344  16.065  35.888  14.859
67936W        W34345  28.063  40.273  10.496
67937W        W34346   2.329   3.861   4.227
67938W        W34347  33.823  33.769   3.044
67939W        W34348  18.550  26.110  10.417
67940W        W34349  33.880   6.146  10.195
67941W        W34350  41.790  18.008  11.223
67942W        W34351  34.479  14.996  11.785
67943W        W34352  40.818  15.117   2.410
67944W        W34353   8.751  22.779   1.481
67945W        W34354  24.457  30.493  12.754
67946W        W34355   5.406  11.602  12.505
67947W        W34356  10.006  29.678  13.905
67948W        W34357   0.465  29.557   4.759
67949W        W34358  19.537  16.280   1.776
67950W        W34359  17.463   7.014   4.178
67951W        W34360   4.779  41.508  12.470
67952W        W34361  28.800  18.860   0.847
67953W        W34362   6.234  16.108  12.047
67954W        W34363  31.144   0.487   4.875
67955W        W34364  38.603  34.451   3.409
67956W        W34365   4.852   8.166  14.687
67957W        W34366  13.806  17.820   2.326
67958W        W34367  20.022  16.268  13.071
67959W        W34368  29.150  39.361   1.346
67960W        W34369  42.554  43.866   1.453
67961W        W34370  25.032  17.159  13.546
67962W        W34371  11.568   6.737   4.036
67963W        W34372  24.014  30.535   1.963
67964W        W34373  11.197  21.203  13.468
67965W        W34374  11.642  12.111   5.150
67966W        W34375  18.574   1.202   4.391
67967W        W34376  28.247  36.035  14.005
67968W        W34377  10.984  27.447   1.599
67969W        W34378  12.706   8.983  10.616
67970W        W34379  39.015  31.923  10.266
67971W        W34380  17.597  30.900  13.465
67972W        W34381  42.318  33.583  14.899
67973W        W34382  44.397  33.257   1.616
67974W        W34383   5.078  28.435   2.691
67975W        W34384  32.458  34.800   1.682
67976W        W34385   5.872  18.600  10.418
67977W        W34386  43.184  10.548  14.659
67978W        W34387   2.620  44.744   0.319
67979W        W34388  27.957  35.558   4.880
67980W        W34389  30.166  21.232   3.175
67981W        W34390  22.988  12.108   2.188
67982W        W34391  36.354   3.297   3.100
67983W        W34392  39.829  31.920  14.423
67984W        W34393  16.577  37.915   1.554
67985W        W34394   4.347  22.012   0.862
67986W        W34395  11.671   5.139  12.874
67987W        W34396  28.114  20.599   2.650
67988W        W34397  34.821  11.316   3.949
67989W        W34398  35.346  20.537   2.765
67990W        W34399  14.928  16.257  13.289
67991W        W34400  30.996  34.738  12.354
67992W        W34401  33.909   8.927   3.570
67993W        W34402  39.117   1.329   1.276
67994W        W34403  41.853  19.855  13.085
67995W        W34404  25.698  42.231   2.703
67996W        W34405  40.486  12.445  11.158
67997W        W34406  34.605   7.613   0.309
67998W        W34407   2.883  12.922   2.154
67999W        W34408  13.639  18.081   1.001
68000W        W34409  34.336  26.914   4.152
68001W        W34410  31.375  42.015  10.718
68002W        W34411  34.872  16.778  11.506
68003W        W34412   4.764  14.076   0.233
68004W        W34413  43.673  42.707   0.014
68005W        W34414  14.462  14.776  10.801
68006W        W34415  20.574  36.468  10.658
68007W        W34416   3.907  44.977  13.395
68008W        W34417   8.642  32.435  11.530
68009W        W34418  12.256  44.302   0.286
68010W        W34419   1.712  30.761  11.402
68011W        W34420   7.060   8.730   3.702
68012W        W34421  39.283   3.795   0.853
68013W        W34422  12.419   7.266  12.812
68014W        W34423  42.644  14.694   0.991
68015W        W34424  17.588  15.754  10.772
68016W        W34425  44.494   1.453   1.846
68017W        W34426   2.766  30.690  13.497
68018W        W34427  28.428  39.933   4.466
68019W        W34428  20.270  37.292   0.258
68020W        W34429  12.716  37.117   3.698
68021W        W34430  18.156  35.651   2.881
68022W        W34431  40.033  22.438  12.160
68023W        W34432  24.651  39.004  10.614
68024W        W34433  13.337   5.381  14.542
68025W        W34434  16.043  10.036  11.237
68026W        W34435  19.170  31.428  10.600
68027W        W34436  44.541  33.977   3.950
68028W        W34437  24.678  20.010  13.975
68029W        W34438   0.800  44.733  12.213
68030W        W34439  37.580   7.413   1.855
68031W        W34440   7.211   6.642  10.792
68032W        W34441  12.145   5.483   0.235
68033W        W34442  40.261  40.547  11.989
68034W        W34443  40.073   3.333  14.087
68035W        W34444   5.332   4.763   0.788
68036W        W34445  33.325  23.990  11.529
68037W        W34446  29.842  32.417  14.281
68038W        W34447  28.284  23.586   1.707
68039W        W34448  41.257  24.561   4.167
68040W        W34449  31.565   1.671  11.302
68041W        W34450  27.727   7.448   2.816
68042W        W34451  18.876  44.771   2.796
68043W        W34452   4.055  31.060  14.561
68044W        W34453  29.496  34.961  12.459
68045W        W34454   5.657  31.324   4.197
68046W        W34455  29.148   2.636  14.364
68047W        W34456  31.102  40.961   2.367
68048W        W34457  18.372   0.374   3.980
68049W        W34458   9.790  21.050   3.271
68050W        W34459  26.039  43.384   4.194
68051W        W34460  42.449  33.111  13.986
68052W        W34461  11.241  12.818  11.999
68053W        W34462  41.139   8.165  10.244
68054W        W34463   6.815  38.245   4.331
68055W        W34464  23.455   3.064  11.085
68056W        W34465  28.837  23.333   0.726
68057W        W34466  17.852  20.589  14.310
68058W        W34467  23.004  30.935  14.781
68059W        W34468   8.408   4.751   4.522
68060W        W34469  41.481   2.995  10.798
68061W        W34470  38.264  20.336   2.538
68062W        W34471  13.527  24.992  13.013
68063W        W34472  42.269   9.259  14.878
68064W        W34473   1.406  17.677   4.343
68065W        W34474   0.329   6.811   2.683
68066W        W34475  27.770  21.169  11.246
68067W        W34476   6.600  37.362  13.027
68068W        W34477  31.356   5.224   0.827
68069W        W34478  27.147  33.632  11.114
68070W        W34479   9.743  44.511   1.931
68071W        W34480  10.240  13.700  11.917
68072W        W34481  10.752  32.920  11.689
68073W        W34482  19.623  14.831  12.967
68074W        W34483  16.055  23.088   3.765
68075W        W34484  14.831  19.031  10.088
68076W        W34485  12.368   3.609  10.012
68077W        W34486   5.731  39.121  14.711
68078W        W34487   2.442  42.389  12.792
68079W        W34488  22.117  29.522  14.696
68080W        W34489  39.723  37.038  13.449
68081W        W34490  24.008   5.502  14.996
68082W        W34491  38.045  11.725   0.672
68083W        W34492  14.064   9.214   2.839
68084W        W34493  37.951  17.561   3.530
68085W        W34494   4.115  13.136  14.882
68086W        W34495  15.572   8.730  14.034
68087W        W34496  21.012  16.684  11.646
68088W        W34497  27.057  11.288   4.557
68089W        W34498  29.703  33.174  11.945
68090W        W34499  15.593  21.467  11.215
68091W        W34500  28.034  40.315   0.331
68092W        W34501  19.241  43.449   0.504
68093W        W34502  17.338  13.743   4.922
68094W        W34503  13.301  30.406  11.583
68095W        W34504  39.999  12.277   1.324
68096W        W34505   7.682  27.192   1.247
68097W        W34506  34.929  21.209   4.719
68098W        W34507   8.985   9.555  12.934
68099W        W34508  21.704  44.189   1.888
68100W        W34509   0.851  27.184  12.901
68101W        W34510   0.446  34.120  12.045
68102W        W34511  24.486  34.602  14.709
68103W        W34512  24.952  33.097  11.612
68104W        W34513  21.978  30.424   3.790
68105W        W34514  36.626  24.724  14.005
68106W        W34515  15.198  31.296  11.528
68107W        W34516  40.470  40.673  13.939
68108W        W34517   5.624  14.785  13.936
68109W        W34518  26.205  11.234   0.906
68110W        W34519  18.665  21.167  10.921
68111W        W34520  33.998  18.343  13.443
68112W        W34521  11.446  12.352  14.811
68113W        W34522  35.636  15.677  11.381
68114W        W34523  16.962   1.469   3.933
68115W        W34524   9.377  25.464  12.462
68116W        W34525  27.564  36.913  14.859
68117W        W34526   4.242  20.462  12.551
68118W        W34527  29.398  36.158  11.525
68119W        W34528  29.287  32.098   1.245
68120W        W34529  39.415  30.758  14.571
68121W        W34530  15.546  30.924   3.286
68122W        W34531  38.290  40.372   2.254
68123W        W34532  30.994  32.965   1.761
68124W        W34533  15.623  20.222  12.446
68125W        W34534  33.982  10.404   4.104
68126W        W34535   3.261  44.030   0.579
68127W        W34536   2.071   7.859   0.358
68128W        W34537  28.500  20.475  13.659
68129W        W34538  17.806  35.129   3.283
68130W        W34539  36.381   9.192  12.973
68131W        W34540  34.838  22.487   3.142
68132W        W34541  27.579   5.579  11.527
68133W        W34542  30.409  39.358  13.410
68134W        W34543  10.897   8.813   1.947
68135W        W34544  24.139  24.259  11.287
68136W        W34545  23.107  10.837   2.666
68137W        W34546  38.544   7.264   2.469
68138W        W34547  28.403  13.963  11.862
68139W        W34548  18.657  14.060  11.619
68140W        W34549  34.440  44.299  14.085
68141W        W34550  44.632  28.249   0.331
68142W        W34551  32.010  40.564  13.042
68143W        W34552  42.189  11.818  13.538
68144W        W34553  42.040   2.542  13.409
68145W        W34554  16.362  26.417   4.217
68146W        W34555  27.282  15.094  11.186
68147W        W34556   6.285  34.207  14.549
68148W        W34557  20.483  17.824  11.505
68149W        W34558   9.102  19.624   2.745
68150W        W34559  16.940  42.066   3.775
68151W        W34560  24.129  13.194  13.543
68152W        W34561  34.933  17.660   0.417
68153W        W34562  31.585  39.230   2.389
68154W        W34563  11.265  34.590   2.585
68155W        W34564  13.347   5.671   4.102
68156W        W34565  19.518  22.270  12.967
68157W        W34566  34.025  28.362  11.070
68158W        W34567   8.307  16.532  12.661
68159W        W34568  28.892  32.838   2.647
68160W        W34569  21.580  25.229   0.045
68161W        W34570   9.248  37.513  12.877
68162W        W34571  35.789  16.795  10.315
68163W        W34572  38.426  44.527  14.474
68164W        W34573  32.026  30.507  14.797
68165W        W34574   1.968   1.896   0.887
68166W        W34575   9.194  43.811   2.347
68167W        W34576  18.270  29.110  14.390
68168W        W34577  17.120  44.067  12.900
68169W        W34578  21.766  29.202   2.811
68170W        W34579  21.110  29.172  10.197
68171W        W34580  31.956   0.488   1.881
68172W        W34581  18.219  43.342  14.068
68173W        W34582   4.280   0.162   2.946
68174W        W34583  32.028   8.262  10.784
68175W        W34584  25.769  42.494  12.575
68176W        W34585  24.461  44.994  11.300
68177W        W34586   4.409  16.930  12.822
68178W        W34587  37.015  37.405  11.643
68179W        W34588  39.422  13.615  11.276
68180W        W34589  38.761  36.103  11.398
68181W        W34590  41.930  21.622   1.059
68182W        W34591   9.667   5.990   2.405
68183W        W34592  24.042  34.492   1.255
68184W        W34593   6.303  21.383   3.707
68185W        W34594  30.145  40.148   0.159
68186W        W34595  19.340  18.188   1.446
68187W        W34596  17.228  38.479   1.830
68188W        W34597  24.313  19.087   4.650
68189W        W34598  23.773  25.155   1.658
68190W        W34599   4.428  42.950   0.357
68191W        W34600  22.240  26.192   4.545
68192W        W34601   7.082  16.523   1.204
68193W        W34602  43.204   6.260   0.921
68194W        W34603  43.521  32.027   4.523
68195W        W34604   1.229   9.011   4.271
68196W        W34605  11.175  13.759  10.995
68197W        W34606  15.107  32.903   4.651
68198W        W34607  11.130  28.019  14.181
68199W        W34608  27.199  31.835   0.503
68200W        W34609  13.568  43.744  12.058
68201W        W34610   9.021  27.722  10.167
68202W        W34611  44.746  38.879  11.581
68203W        W34612   9.317  32.577  13.587
68204W        W34613  10.697  36.480   4.224
68205W        W34614   9.626   1.027   2.774
68206W        W34615   1.392   4.774  14.280
68207W        W34616  40.950   3.013  10.846
68208W        W34617  25.947  18.607  11.468
68209W        W34618  10.750   1.635   2.609
68210W        W34619  19.144  21.748   4.807
68211W        W34620   2.485  26.857  11.055
68212W        W34621   3.114   7.743   3.344
68213W        W34622  43.292  41.898   4.182
68214W        W34623  26.117  33.809  12.712
68215W        W34624  32.425  42.963  14.029
68216W        W34625  37.949   4.100   1.727
68217W        W34626  36.940  10.436   2.481
68218W        W34627  20.229  28.445   0.696
68219W        W34628  14.954  23.046   3.616
68220W        W34629  41.831  40.966   0.767
68221W        W34630  12.411  21.751   3.289
68222W        W34631  19.737  26.119   4.680
68223W        W34632  30.014  37.951  12.461
68224W        W34633   9.647  27.510   3.676
68225W        W34634  28.875  11.835   9.848
68226W        W34635  42.448  20.471  12.584
68227W        W34636   1.574   6.996  11.222
68228W        W34637   8.644  31.007   3.590
68229W        W34638   7.659  38.472   4.346
68230W        W34639  35.944  37.800   4.078
68231W        W34640  20.270  22.176   2.831
68232W        W34641  38.389  35.613   0.828
68233W        W34642  16.365   8.290   4.856
68234W        W34643  28.441   9.252   0.506
68235W        W34644  32.407  21.179   2.875
68236W        W34645  11.946   4.941  14.983
68237W        W34646  12.328  11.760  11.555
68238W        W34647  21.842   6.872  10.704
68239W        W34648  13.746  26.377  12.213
68240W        W34649  38.847  32.778  11.170
68241W        W34650  40.392  37.990  14.444
68242W        W34651  12.321  23.485   0.983
68243W        W34652  30.788  44.765   5.070
68244W        W34653   5.595  31.967  12.294
68245W        W34654  14.273   9.915  14.265
68246W        W34655  11.214  30.373   2.648
68247W        W34656  31.433  21.500  11.883
68248W        W34657   5.217  21.420   4.013
68249W        W34658  36.369  22.675   0.790
68250W        W34659   8.461  34.979   3.900
68251W        W34660  18.352  23.029  13.731
68252W        W34661   1.201  35.643  14.267
68253W        W34662  35.083  19.161  13.434
68254W        W34663   8.035  12.149   2.930
68255W        W34664  33.498  33.966   1.994
68256W        W34665  24.424  40.300   3.714
68257W        W34666  37.433  12.348  13.737
68258W        W34667  23.469  13.584   0.908
68259W        W34668  40.882   0.102   3.731
68260W        W34669  15.863  17.258   4.479
68261W        W34670   1.292  28.233   4.728
68262W        W34671  18.140   8.476   0.161
68263W        W34672  13.298  34.387  14.901
68264W        W34673  44.547   4.366   1.269
68265W        W34674  28.908  31.895   0.279
68266W        W34675  19.272  17.296  13.924
68267W        W34676  38.592  44.249   1.685
68268W        W34677   8.133  26.612   2.375
68269W        W34678   9.326  39.041  12.069
68270W        W34679  18.556   8.602   2.424
68271W        W34680   0.918  35.880  10.675
68272W        W34681   2.495   6.408  14.872
68273W        W34682   7.148  37.420   1.930
68274W        W34683  13.839  10.463   1.639
68275W        W34684  27.916  24.214  12.029
68276W        W34685  14.813   5.495   4.882
68277W        W34686  25.656  27.773   1.665
68278W        W34687   7.161  38.825  10.630
68279W        W34688  14.091  15.266   1.203
68280W        W34689  39.921   5.900   3.948
68281W        W34690  32.478  20.556  13.304
68282W        W34691  34.334  16.126   2.205
68283W        W34692  29.418   5.286  11.055
68284W        W34693  39.572  23.027  12.970
68285W        W34694   0.180  12.798   3.307
68286W        W34695  11.870   0.712   0.948
68287W        W34696  21.657  32.492   4.138
68288W        W34697   5.763  29.514  14.797
68289W        W34698  11.970  41.541  14.165
68290W        W34699   4.722  35.913  12.514
68291W        W34700  25.834   4.207   3.322
68292W        W34701  27.194   8.658  14.571
68293W        W34702  22.289  42.252  14.570
68294W        W34703  13.349  11.116  13.572
68295W        W34704   2.256  27.134  13.560
68296W        W34705  17.674   3.740  13.607
68297W        W34706  39.763  35.619   0.636
68298W        W34707   8.318  21.167   5.110
68299W        W34708  37.011   7.836   4.463
68300W        W34709  32.383  34.265   4.715
68301W        W34710   2.300  24.782   2.739
68302W        W34711  22.818  38.042  14.054
68303W        W34712   0.356   1.955   1.844
68304W        W34713  31.169  11.536  12.297
68305W        W34714  30.378  21.515   3.587
68306W        W34715  43.863  14.313  10.635
68307W        W34716  41.745  17.765  13.124
68308W        W34717  41.618  40.825  11.758
68309W        W34718  42.508  27.731  13.169
68310W        W34719  20.934  44.399  14.720
68311W        W34720  32.376  12.592   2.291
68312W        W34721  33.582  27.171  11.949
68313W        W34722  39.832  27.160   1.027
68314W        W34723   2.746  15.277  13.533
68315W        W34724  35.530  16.722  12.508
68316W        W34725  18.354  18.323   0.289
68317W        W34726  18.134  24.552   4.861
68318W        W34727  33.094  44.919   2.612
68319W        W34728  40.781   2.985  12.167
68320W        W34729  41.698  33.098   4.089
68321W        W34730  11.419  31.124   4.088
68322W        W34731  41.934  11.019  10.961
68323W        W34732  29.454  24.522   0.729
68324W        W34733   0.620  25.711  13.518
68325W        W34734   6.824  18.164   2.881
68326W        W34735  23.036  16.352  14.901
68327W        W34736  38.975  14.369  14.393
68328W        W34737   2.201   6.923   2.771
68329W        W34738   8.057  31.144  14.812
68330W        W34739  39.993  23.514  12.219
68331W        W34740  33.470  26.578  13.001
68332W        W34741   6.795   8.452  13.291
68333W        W34742  44.491   1.333  13.556
68334W        W34743  16.530  13.835  14.843
68335W        W34744  39.323  21.486   4.838
68336W        W34745  15.198  33.211  10.686
68337W        W34746   9.537  28.832  12.969
68338W        W34747  30.983   7.639  11.106
68339W        W34748  24.159  44.734   1.534
68340W        W34749   0.790   0.271   3.233
68341W        W34750   2.923  10.159   3.193
68342W        W34751   8.156  33.575  11.472
68343W        W34752  44.829  27.369   2.586
68344W        W34753  18.649  16.016   4.197
68345W        W34754  14.732  22.772   2.432
68346W        W34755   5.845  41.065   2.588
68347W        W34756  19.601  25.201  10.457
68348W        W34757  33.820   8.533   4.253
68349W        W34758  17.944  25.916   4.102
68350W        W34759   3.845  21.614  10.576
68351W        W34760  17.741  10.219   0.290
68352W        W34761  38.418  27.577   4.634
68353W        W34762  30.488  29.647  10.718
68354W        W34763  26.162  14.887  10.720
68355W        W34764  15.673  37.771   3.152
68356W        W34765  17.944  35.845   2.142
68357W        W34766  32.122  20.244  12.062
68358W        W34767  20.711  44.147  11.915
68359W        W34768  18.682  28.023  11.256
68360W        W34769  10.864  37.412   4.060
68361W        W34770  25.003  33.624   4.080
68362W        W34771  21.274  28.273   2.088
68363W        W34772  35.875  16.108  11.133
68364W        W34773  39.523   5.413  11.608
68365W        W34774  20.691  42.099   0.764
68366W        W34775   8.238  38.582  14.537
68367W        W34776   1.342  41.051  13.473
68368W        W34777  25.266  44.094   3.381
68369W        W34778  25.363  12.037  13.419
68370W        W34779  24.415   2.241  11.544
68371W        W34780  42.317   0.907  11.147
68372W        W34781  33.524   5.930  10.598
68373W        W34782  13.772  35.106  12.088
68374W        W34783  28.379   1.475   0.181
68375W        W34784  28.146  16.163   2.102
68376W        W34785   8.778   2.009   1.607
68377W        W34786  21.742  27.941   0.336
68378W        W34787  27.513  40.788   0.555
68379W        W34788  37.490  38.890  14.276
68380W        W34789  11.451  31.039  14.520
68381W        W34790  18.734   1.213   3.880
68382W        W34791  10.338  23.105  12.748
68383W        W34792   6.966   2.333  10.855
68384W        W34793   1.327  11.152  10.360
68385W        W34794  26.234  24.253   2.132
68386W        W34795   9.182  27.612   1.225
68387W        W34796  44.271  43.467   3.111
68388W        W34797  21.514  18.575   0.197
68389W        W34798  26.913  39.916  14.468
68390W        W34799  39.810   6.111  13.950
68391W        W34800  27.129  33.182  11.406
68392W        W34801  21.586  32.429   1.968
68393W        W34802  43.861  43.316  14.424
68394W        W34803   0.700   2.573   1.076
68395W        W34804  38.966   4.197  13.971
68396W        W34805  44.787  35.842  13.339
68397W        W34806   8.481  18.705   4.081
68398W        W34807  12.340  28.657  12.066
68399W        W34808   6.043  14.901  13.344
68400W        W34809  26.722  42.562  14.922
68401W        W34810  28.872  26.971  13.986
68402W        W34811  29.714  18.736  14.254
68403W        W34812  14.811  32.359  13.125
68404W        W34813  14.996  23.249  11.156
68405W        W34814  20.535  15.791  11.607
68406W        W34815  16.455  26.331  12.862
68407W        W34816   5.976  28.570   3.674
68408W        W34817  22.523  20.133   2.685
68409W        W34818   8.752  20.816   0.714
68410W        W34819  27.752   8.114   2.281
68411W        W34820  19.655   2.495   4.738
68412W        W34821  13.229  39.922  10.919
68413W        W34822  15.194   2.508   0.387
68414W        W34823   3.486  40.577   1.523
68415W        W34824   1.294  36.435   2.458
68416W        W34825  19.052  14.108  12.551
68417W        W34826  32.578  14.484   4.216
68418W        W34827  13.706  13.626  11.685
68419W        W34828   9.371  37.566  10.585
68420W        W34829  28.903   4.313   2.599
68421W        W34830  28.546  27.745  13.566
68422W        W34831   9.659  18.731  14.935
68423W        W34832  37.547  34.648  11.251
68424W        W34833   1.222  38.286  13.995
68425W        W34834  25.256  37.351   4.575
68426W        W34835  27.454  39.439  13.734
68427W        W34836  34.585  40.510   0.734
68428W        W34837  43.460  32.505   2.395
68429W        W34838   5.305  10.247  13.369
68430W        W34839  20.477  15.481   3.883
68431W        W34840   6.009  12.178   3.347
68432W        W34841  41.000   8.243   3.088
68433W        W34842  18.998  25.641   3.221
68434W        W34843  35.819  14.394  14.469
68435W        W34844  17.871   9.469  14.451
68436W        W34845  15.759   2.045   4.329
68437W        W34846   3.759  15.977   4.607
68438W        W34847  34.986  27.929   2.821
68439W        W34848  19.215  35.614   0.988
68440W        W34849  33.513  37.885  14.009
68441W        W34850  32.972  32.903  11.647
68442W        W34851  21.009  18.845   4.107
68443W        W34852  39.932   3.735   4.553
68444W        W34853  39.251   7.508  13.780
68445W        W34854   0.687  30.773   1.323
68446W        W34855  40.264  28.849  13.091
68447W        W34856  13.267  20.523  11.584
68448W        W34857  14.880  27.410   1.485
68449W        W34858   0.841  38.367   0.878
68450W        W34859   0.162  17.568  12.094
68451W        W34860  41.068  30.342  13.826
68452W        W34861  12.133  40.696  13.437
68453W        W34862   0.416  29.580   1.568
68454W        W34863   0.865  40.833   3.169
68455W        W34864   9.186  25.032  11.252
68456W        W34865   6.035   2.237  10.696
68457W        W34866  20.228  22.652  10.634
68458W        W34867  28.602   7.250  14.369
68459W        W34868  43.066  24.451   0.372
68460W        W34869   9.713  13.060  10.995
68461W        W34870  23.069  14.811   0.952
68462W        W34871  28.511  16.199  12.486
68463W        W34872  15.041  18.802  12.544
68464W        W34873  21.163  36.750  13.525
68465W        W34874  17.092  13.863  12.459
68466W        W34875  13.251  17.504   2.267
68467W        W34876   3.081  22.942   3.732
68468W        W34877  38.947  30.011  14.626
68469W        W34878  12.405  32.842  12.962
68470W        W34879  39.549  39.395  14.769
68471W        W34880  43.112  30.891   1.419
68472W        W34881  14.753  16.572  12.384
68473W        W34882   0.274  28.174   1.844
68474W        W34883   2.755  10.926   2.709
68475W        W34884  11.361  36.630   0.237
68476W        W34885   4.802  29.701  13.784
68477W        W34886  20.598  15.138   4.260
68478W        W34887  43.983  15.329  11.075
68479W        W34888  11.903  38.926  13.239
68480W        W34889  42.994  17.813   0.399
68481W        W34890  20.845   3.034   2.377
68482W        W34891  20.365  43.227   1.398
68483W        W34892   4.207  42.035   3.677
68484W        W34893  29.022  24.353  11.564
68485W        W34894  17.738  27.240   0.863
68486W        W34895  23.405  18.791  13.401
68487W        W34896  35.775  17.771  13.552
68488W        W34897  32.126   7.399   3.160
68489W        W34898  27.648  41.051  13.387
68490W        W34899  35.134   4.268  14.411
68491W        W34900  24.024  22.070   0.313
68492W        W34901  22.793  27.956   0.841
68493W        W34902  34.648  34.099  10.544
68494W        W34903  32.323  22.014  10.778
68495W        W34904  15.560  35.333  14.580
68496W        W34905  33.695  22.289  13.567
68497W        W34906  18.390  26.437  14.935
68498W        W34907  16.421  31.774   1.195
68499W        W34908   4.515   8.055   0.298
68500W        W34909  21.690  14.837  11.879
68501W        W34910   7.673  29.494  14.937
68502W        W34911  22.828  11.394  10.744
68503W        W34912  44.748  26.559  12.354
68504W        W34913  41.551   6.443  12.447
68505W        W34914  33.295  30.266   4.521
68506W        W34915   9.265   2.498  11.615
68507W        W34916  16.441  24.572  13.455
68508W        W34917  36.501  29.914   4.702
68509W        W34918   2.954  27.437   2.844
68510W        W34919  33.506   6.909  11.398
68511W        W34920  11.061  41.041  12.242
68512W        W34921   1.336  21.809   2.361
68513W        W34922  33.133  21.893  11.908
68514W        W34923  40.874  21.549  10.708
68515W        W34924  16.136  17.357  12.018
68516W        W34925  26.460   4.482  10.148
68517W        W34926  14.732  30.094   1.926
68518W        W34927  20.811  36.351   1.177
68519W        W34928  43.070  10.286   4.261
68520W        W34929  31.315  15.448  12.074
68521W        W34930  25.044  30.453   4.415
68522W        W34931  20.519   6.228   4.719
68523W        W34932  44.046  33.453   1.244
68524W        W34933  42.804   4.181   4.580
68525W        W34934  21.322   2.552  11.014
68526W        W34935  43.205   3.671   3.724
68527W        W34936   1.144  33.861  11.213
68528W        W34937  32.974   7.802   1.007
68529W        W34938   6.088  40.007   0.089
68530W        W34939   1.792  28.025   4.666
68531W        W34940  26.757   4.271   3.010
68532W        W34941  22.049  33.065  12.155
68533W        W34942   8.893  36.179   0.764
68534W        W34943  17.200  31.215  10.632
68535W        W34944  42.937  30.311   4.835
68536W        W34945  16.804  19.703   4.595
68537W        W34946  39.129  24.907  12.572
68538W        W34947  38.860   0.529  11.641
68539W        W34948  13.776   6.241  12.373
68540W        W34949   1.857   2.097   1.644
68541W        W34950  40.671  31.545   4.922
68542W        W34951  33.890  37.458   3.219
68543W        W34952  19.780  22.235   1.838
68544W        W34953   7.221  25.266   0.740
68545W        W34954  27.574  18.435   1.728
68546W        W34955  30.519  37.790   0.389
68547W        W34956  26.630   6.040   2.315
68548W        W34957   6.923  11.420  14.523
68549W        W34958   6.089  44.874   2.643
68550W        W34959  27.715   4.363  11.219
68551W        W34960  10.855   1.707  13.951
68552W        W34961  21.447  40.305   4.970
68553W        W34962  31.117  37.381   2.174
68554W        W34963   0.456  18.970  14.997
68555W        W34964  27.069   6.294  11.253
68556W        W34965  19.239  11.735   1.968
68557W        W34966   0.765  21.777   0.873
68558W        W34967   2.862  44.905  11.113
68559W        W34968  26.585  34.534   3.251
68560W        W34969  35.074   1.534  14.465
68561W        W34970  27.084  27.642  14.773
68562W        W34971  20.456  43.565  14.539
68563W        W34972   0.471   3.361   3.709
68564W        W34973  15.814  38.351   1.637
68565W        W34974   4.322  18.865  14.372
68566W        W34975  41.678   8.874   1.861
68567W        W34976  28.138   8.872   1.287
68568W        W34977  23.637  42.873   4.782
68569W        W34978  32.722  39.631  14.894
68570W        W34979  32.295   8.731  11.631
68571W        W34980  19.150  20.894  14.460
68572W        W34981  26.672  39.517   4.677
68573W        W34982  34.535  24.028  12.568
68574W        W34983   3.036   6.640  12.997
68575W        W34984  30.397  11.127  11.760
68576W        W34985  20.086  10.736  10.701
68577W        W34986  43.801  29.461  14.999
68578W        W34987  34.512  43.540   2.700
68579W        W34988  25.539  13.123  12.599
68580W        W34989  26.844   7.387  13.458
68581W        W34990   3.735  18.682  13.084
68582W        W34991  15.088  38.792   2.219
68583W        W34992  24.581  31.987   3.912
68584W        W34993  31.498  26.781   3.572
68585W        W34994   8.087  40.845   4.137
68586W        W34995  29.532   1.021  14.591
68587W        W34996  27.181   8.917   1.879
68588W        W34997  11.488  32.597  14.290
68589W        W34998  30.901   1.689   4.208
68590W        W34999  12.859  41.335   1.382
68591W        W35000  42.784  32.674   0.329
68592W        W35001  10.114  19.336   0.377
68593W        W35002  11.234  12.174   0.240
68594W        W35003  35.825  40.108  12.504
68595W        W35004  27.585  20.904   3.163
68596W        W35005   4.551  25.860  13.128
68597W        W35006   1.887  29.444  14.258
68598W        W35007  21.126  17.262  10.751
68599W        W35008  23.897  41.097  14.748
68600W        W35009  31.426  26.416   0.691
68601W        W35010   4.490  36.644  11.990
68602W        W35011  13.265  14.749   0.890
68603W        W35012  11.194   4.470  14.776
68604W        W35013  30.300  32.501  11.696
68605W        W35014  35.768  11.127  14.214
68606W        W35015   6.848  41.300  12.072
68607W        W35016  28.031  34.784  14.249
68608W        W35017  12.170  27.530   0.632
68609W        W35018  11.436  38.562  11.633
68610W        W35019  39.193  10.220  10.422
68611W        W35020  14.272  34.779  11.626
68612W        W35021  16.747  44.440  14.499
68613W        W35022  16.274  22.042  13.850
68614W        W35023  38.324  42.223   3.787
68615W        W35024  16.628  12.927  14.754
68616W        W35025  38.988   0.257  13.872
68617W        W35026  14.367  28.553   0.187
68618W        W35027  36.783  40.912  11.664
68619W        W35028  40.948  34.354  11.164
68620W        W35029  23.729   4.277  12.106
68621W        W35030  12.856  26.645  12.643
68622W        W35031   7.285  41.725  14.318
68623W        W35032  30.252  13.783   3.680
68624W        W35033  27.965   5.205  11.325
68625W        W35034  37.052  28.760  11.514
68626W        W35035  12.536  34.165   2.628
68627W        W35036  26.405  44.253   9.917
68628W        W35037   6.723   6.911   1.419
68629W        W35038   0.798  33.476  11.236
68630W        W35039  22.315   1.723   0.276
68631W        W35040   0.947  35.934   0.431
68632W        W35041  24.046  33.536   0.724
68633W        W35042   5.757   4.393   2.248
68634W        W35043  13.039  28.547  11.686
68635W        W35044   9.459   6.331  11.954
68636W        W35045   2.926  44.805  13.345
68637W        W35046  10.546  19.249   4.545
68638W        W35047  26.182  42.907   3.251
68639W        W35048   8.363   6.134   0.485
68640W        W35049  19.815  23.144  11.121
68641W        W35050   2.658  16.722  14.548
68642W        W35051  44.275  35.626  12.541
68643W        W35052  35.086   2.495  14.437
68644W        W35053  13.784  13.269   0.458
68645W        W35054  22.591  43.010  14.381
68646W        W35055  24.293  15.648   0.815
68647W        W35056  29.044  11.849  12.637
68648W        W35057  43.486  15.303  11.431
68649W        W35058  13.254  43.946   4.135
68650W        W35059  11.169  37.451   1.935
68651W        W35060   8.753  31.398   3.304
68652W        W35061  26.470  18.735   4.554
68653W        W35062  10.899  44.250   4.117
68654W        W35063  39.063   8.250  12.358
68655W        W35064  27.230  22.997   4.822
68656W        W35065  42.381   1.539   4.246
68657W        W35066  13.644  36.384   4.625
68658W        W35067  35.891  12.821  11.571
68659W        W35068  10.201  37.968  14.975
68660W        W35069  22.265  20.539   2.845
68661W        W35070  12.789  35.556   1.675
68662W        W35071  21.148  21.977  13.875
68663W        W35072   3.246   7.835  13.432
68664W        W35073  33.682  18.576  14.477
68665W        W35074   0.366  19.560  14.385
68666W        W35075  19.308   2.443   0.353
68667W        W35076  22.712   5.669  13.895
68668W        W35077  41.723  29.664  12.069
68669W        W35078   3.838  31.859  14.048
68670W        W35079  33.856  11.716   4.571
68671W        W35080  35.336  40.072  13.503
68672W        W35081  43.351  37.496   1.661
68673W        W35082  21.240  24.462   4.662
68674W        W35083  40.760   0.278  13.242
68675W        W35084  31.820  21.269  12.161
68676W        W35085  28.033   9.471  12.006
68677W        W35086  17.970  44.522  10.717
68678W        W35087   4.648  12.789  14.461
68679W        W35088  10.187  17.180  11.482
68680W        W35089  14.801  42.806  14.593
68681W        W35090  44.460   8.563   3.365
68682W        W35091  17.240  30.913  11.491
68683W        W35092  35.664  42.906  11.215
68684W        W35093   3.468  42.311   0.066
68685W        W35094  12.235  35.101   4.494
68686W        W35095   6.271  11.424   0.344
68687W        W35096  30.537  26.172   3.624
68688W        W35097   7.457  16.873  13.395
68689W        W35098  33.842  20.679   4.468
68690W        W35099  31.046  36.906   2.343
68691W        W35100   4.867  19.293   4.272
68692W        W35101  13.097   2.985   3.561
68693W        W35102  16.170   7.362   0.288
68694W        W35103  19.257  19.977  11.151
68695W        W35104  13.064  21.713   1.871
68696W        W35105  26.746   7.424   5.278
68697W        W35106  31.978  18.251  10.243
68698W        W35107   1.503  11.716   0.180
68699W        W35108  16.160  15.144  14.637
68700W        W35109  35.447   3.702  13.594
68701W        W35110  36.650  43.575   2.534
68702W        W35111  19.670  30.614   0.612
68703W        W35112   7.683  38.066  10.952
68704W        W35113  37.105  38.571  11.115
68705W        W35114  31.643  11.403  12.103
68706W        W35115   1.921   3.166  12.948
68707W        W35116   8.934  17.042  12.424
68708W        W35117   6.909  44.989   4.101
68709W        W35118   9.931  41.471   1.082
68710W        W35119   9.556   9.152   1.684
68711W        W35120  30.881  25.108  13.380
68712W        W35121   1.954   9.749  11.615
68713W        W35122   2.866  19.023  12.506
68714W        W35123  12.893  44.726  11.174
68715W        W35124  14.119  42.494   3.138
68716W        W35125  28.953  16.670  11.688
68717W        W35126  17.052  17.356  13.829
68718W        W35127  39.082  24.213  13.305
68719W        W35128  31.043  44.696   0.361
68720W        W35129  17.832  11.754   4.100
68721W        W35130  21.567   3.301   0.774
68722W        W35131  17.292  36.289   0.620
68723W        W35132  44.411  33.496   2.509
68724W        W35133  13.640   9.830  11.128
68725W        W35134  34.120  29.931  14.390
68726W        W35135  18.066   8.194   3.994
68727W        W35136  41.998  11.564  14.489
68728W        W35137  29.648  15.832  13.954
68729W        W35138  41.007  26.653  11.485
68730W        W35139  30.677   2.953   1.937
68731W        W35140   4.286  41.086   1.054
68732W        W35141  31.407   4.530  10.989
68733W        W35142  17.757   7.839   4.635
68734W        W35143  10.289  41.784  11.219
68735W        W35144  18.247  40.748  13.426
68736W        W35145  13.764  13.152   3.361
68737W        W35146  34.187  43.068  13.606
68738W        W35147  26.540  43.276   0.972
68739W        W35148  21.258   6.117  10.280
68740W        W35149  28.631  18.640  14.265
68741W        W35150  25.996  31.741  11.209
68742W        W35151  22.649  37.869  10.482
68743W        W35152  31.489  28.602   1.892
68744W        W35153  15.333   4.286   4.806
68745W        W35154  26.647   3.936   4.588
68746W        W35155  34.034  24.157   3.646
68747W        W35156   4.219  41.945   2.395
68748W        W35157  33.581  28.614   1.363
68749W        W35158  27.368  13.300  14.377
68750W        W35159  22.989   2.777   4.352
68751W        W35160  12.192  33.595  13.582
68752W        W35161   1.669  14.886   2.693
68753W        W35162  16.914   5.383  13.099
68754W        W35163  22.547  11.838   2.283
68755W        W35164  30.596  27.030  14.987
68756W        W35165  25.229  14.648   3.290
68757W        W35166  28.594  10.403   0.691
68758W        W35167  22.547  20.662  12.128
68759W        W35168  20.506  32.972   1.294
68760W        W35169  16.572  42.433  11.325
68761W        W35170  11.167   6.306   1.166
68762W        W35171  28.250  15.433  10.971
68763W        W35172  12.113  14.052  12.515
68764W        W35173  20.147  33.013   3.281
68765W        W35174  19.576  13.572  14.096
68766W        W35175  31.961  42.438  10.952
68767W        W35176  44.425  31.673   1.048
68768W        W35177   3.225  24.570  11.090
68769W        W35178  43.033   2.359   4.837
68770W        W35179  35.485  38.091   1.870
68771W        W35180  27.004  42.589   2.312
68772W        W35181  12.186  10.786   2.787
68773W        W35182  19.326  32.533   1.038
68774W        W35183   4.005  16.903   1.756
68775W        W35184  19.151  26.045   1.244
68776W        W35185  13.434  34.968   2.054
68777W        W35186  34.100  40.081  14.911
68778W        W35187  40.992   7.423   1.850
68779W        W35188  32.682  17.671  13.238
68780W        W35189   3.314  11.637   1.427
68781W        W35190  31.980  13.762  13.906
68782W        W35191  28.020  23.247  14.024
68783W        W35192  38.660  29.486  12.535
68784W        W35193   9.699  24.158   4.080
68785W        W35194  15.176  25.267   3.546
68786W        W35195  29.982  12.024  12.114
68787W        W35196  12.627  19.540   0.820
68788W        W35197  40.100  13.534  12.979
68789W        W35198  33.542  13.846  14.391
68790W        W35199   3.640  10.204  14.335
68791W        W35200  29.128  10.254   4.075
68792W        W35201  33.349  18.392  14.867
68793W        W35202   6.645  11.679  13.077
68794W        W35203  18.264  42.937   4.788
68795W        W35204  11.348  43.263   0.761
68796W        W35205  27.248  29.306   1.367
68797W        W35206  20.477  22.425   2.381
68798W        W35207  38.003  11.409  12.317
68799W        W35208   4.453  11.896   3.848
68800W        W35209  38.961  44.557  10.519
68801W        W35210   2.354  28.038  10.195
68802W        W35211  31.114   4.055  11.595
68803W        W35212  19.575  15.263  10.410
68804W        W35213  12.900  36.966  12.031
68805W        W35214   2.782  31.296   2.646
68806W        W35215  37.478  39.020   2.333
68807W        W35216   0.517  18.947  11.248
68808W        W35217  16.190  43.014  11.850
68809W        W35218  22.793  28.191  11.040
68810W        W35219  39.487  22.491   1.522
68811W        W35220   8.894  13.502  10.846
68812W        W35221  28.981  18.415   1.773
68813W        W35222  33.946   4.999   3.692
68814W        W35223  31.092  22.706  14.489
68815W        W35224  10.284  28.092  13.540
68816W        W35225  34.533  26.138  13.576
68817W        W35226   6.853  20.378   0.341
68818W        W35227   2.845  44.724  11.602
68819W        W35228  37.512  28.942   4.415
68820W        W35229  18.151  39.599  13.850
68821W        W35230  39.154  39.530   0.690
68822W        W35231   8.245  36.984  11.689
68823W        W35232   7.187  16.483   2.171
68824W        W35233  10.567  19.459   1.787
68825W        W35234  12.331  39.415   1.432
68826W        W35235  20.737  27.982  11.999
68827W        W35236  41.418  29.840   3.572
68828W        W35237  36.036  36.908   0.433
68829W        W35238  43.776   0.299   1.285
68830W        W35239  19.684  25.509  14.298
68831W        W35240  23.097  37.244   2.790
68832W        W35241  15.790   4.529   4.453
68833W        W35242  20.553  22.021  13.663
68834W        W35243  29.037  37.033   0.990
68835W        W35244  40.697  30.624   3.564
68836W        W35245   3.693  38.869  13.127
68837W        W35246  30.410  10.932   4.992
68838W        W35247  18.245  29.516   4.140
68839W        W35248  16.259  27.294   2.136
68840W        W35249   7.243  29.398   3.286
68841W        W35250   3.439  13.806  13.833
68842W        W35251   8.876  29.723   1.666
68843W        W35252  12.694  29.391   2.882
68844W        W35253  26.728  18.722  13.368
68845W        W35254  30.880  15.195   1.258
68846W        W35255  35.014  20.447  11.475
68847W        W35256   4.168  17.407   1.809
68848W        W35257  12.848   8.327  14.046
68849W        W35258  20.286  12.685   2.698
68850W        W35259  21.105  11.283   0.388
68851W        W35260  18.728  26.463   1.306
68852W        W35261   4.895  21.063  11.378
68853W        W35262  34.638  15.076  13.037
68854W        W35263  40.034  27.989   1.409
68855W        W35264  16.875  14.473  11.029
68856W        W35265  34.488  24.008   0.344
68857W        W35266  28.679   5.680   3.191
68858W        W35267   1.321  18.284   0.174
68859W        W35268  44.551   4.418  13.097
68860W        W35269  28.289   2.618  13.376
68861W        W35270  15.863  23.589  10.727
68862W        W35271  16.620   3.511  14.580
68863W        W35272  41.314  40.799   4.138
68864W        W35273  42.759   6.800   3.627
68865W        W35274  32.003  18.859  12.004
68866W        W35275  24.918  39.110  12.646
68867W        W35276  30.014  16.782   3.228
68868W        W35277  36.638  37.471   9.930
68869W        W35278  10.862  22.510  11.376
68870W        W35279  40.286   0.338  11.154
68871W        W35280  29.917  30.922  12.009
68872W        W35281   9.902  27.525  13.041
68873W        W35282   6.931  11.325   1.394
68874W        W35283  34.276  35.262   2.939
68875W        W35284  38.500  34.177  12.026
68876W        W35285   5.441  23.160  12.535
68877W        W35286   2.916  25.585   3.227
68878W        W35287   6.929   9.330  11.071
68879W        W35288  11.680   4.490   0.077
68880W        W35289  44.993  14.749   3.168
68881W        W35290  23.121  18.216   1.286
68882W        W35291  36.129  34.532   3.866
68883W        W35292   1.146  37.525  13.059
68884W        W35293  24.529  43.373  10.731
68885W        W35294  22.492   1.390   0.850
68886W        W35295   8.935  42.529  10.457
68887W        W35296  36.249  12.785  14.803
68888W        W35297  38.037   6.940  11.631
68889W        W35298  40.238   7.288  13.858
68890W        W35299  44.760  35.047   3.399
68891W        W35300  34.863  27.819   4.236
68892W        W35301  40.972   1.369   1.359
68893W        W35302  26.329   7.679   2.393
68894W        W35303  20.278  42.755   1.165
68895W        W35304  36.256   0.565   2.686
68896W        W35305   7.601  13.996   3.967
68897W        W35306  12.170  37.172   4.887
68898W        W35307  22.613  11.671  11.132
68899W        W35308   3.418  37.410  13.564
68900W        W35309  14.719  24.569  12.793
68901W        W35310   4.525  22.505  11.111
68902W        W35311  12.463  38.541   0.370
68903W        W35312   6.786  37.529   0.590
68904W        W35313  13.576  38.777  14.228
68905W        W35314  19.569  32.119   4.158
68906W        W35315  22.591  12.716   4.278
68907W        W35316  16.600  30.192  11.421
68908W        W35317  23.749  18.006   0.887
68909W        W35318  38.814   6.211   1.777
68910W        W35319  32.088  21.753  12.142
68911W        W35320   9.329  38.485  10.841
68912W        W35321  39.667  35.343  11.928
68913W        W35322  41.371  39.970   0.861
68914W        W35323  22.634  29.445   1.727
68915W        W35324   9.577  42.015   4.684
68916W        W35325  32.881  29.419   1.970
68917W        W35326  22.330   7.350  11.264
68918W        W35327   4.645  24.099  11.982
68919W        W35328  21.624  23.194  10.505
68920W        W35329  34.219  12.826  14.059
68921W        W35330  35.079   5.386   0.315
68922W        W35331   8.698  35.833  12.050
68923W        W35332  14.603   3.925  14.676
68924W        W35333   7.907   4.650   3.655
68925W        W35334  27.994  38.026   2.022
68926W        W35335  31.966   2.427  14.268
68927W        W35336  20.302   4.893   2.735
68928W        W35337  42.717  24.272   5.020
68929W        W35338  40.281  36.304  13.595
68930W        W35339  38.560  10.819   1.934
68931W        W35340  23.963  16.254  14.698
68932W        W35341  28.957  17.369  13.329
68933W        W35342  24.204   9.802   1.862
68934W        W35343  28.917  26.093  11.181
68935W        W35344  24.000   2.940  11.863
68936W        W35345  10.514  27.621   3.204
68937W        W35346  10.341  12.034   1.723
68938W        W35347  37.398   2.442   4.077
68939W        W35348  31.467  11.803   3.937
68940W        W35349  35.529   3.999  12.129
68941W        W35350  24.107  31.194  13.499
68942W        W35351  18.146   4.567  12.105
68943W        W35352  15.811  27.031  11.180
68944W        W35353  10.799  28.080  13.742
68945W        W35354  44.194  20.497  10.569
68946W        W35355  28.963  10.184   2.719
68947W        W35356  42.403  41.834   0.831
68948W        W35357  37.341  13.178  10.823
68949W        W35358  26.459   5.874   1.839
68950W        W35359   3.614  29.994   1.753
68951W        W35360  42.022  39.530   3.756
68952W        W35361  18.497   4.030  11.231
68953W        W35362   9.821   1.712  12.562
68954W        W35363  35.500  15.224   4.788
68955W        W35364   3.834  19.999  11.463
68956W        W35365   0.406  34.883   4.624
68957W        W35366  27.440   6.810  10.275
68958W        W35367  11.554   1.309   3.208
68959W        W35368  44.895   6.357  12.643
68960W        W35369  25.929   0.997   3.284
68961W        W35370   9.288   7.842   2.166
68962W        W35371  26.814  42.843   0.363
68963W        W35372   1.522   4.501   3.266
68964W        W35373  16.671  23.958  12.425
68965W        W35374  35.376  31.690   1.468
68966W        W35375  42.565   1.291  14.304
68967W        W35376  35.974  11.324  11.566
68968W        W35377  30.533  12.676  12.082
68969W        W35378  19.645  30.187  11.634
68970W        W35379  27.206   6.567   4.570
68971W        W35380  13.923  40.928   0.247
68972W        W35381  41.143  15.186   2.823
68973W        W35382  24.621  27.460   2.254
68974W        W35383  40.434   8.737   5.161
68975W        W35384   3.723  13.252   2.136
68976W        W35385  32.081  34.836  12.117
68977W        W35386   7.782  22.295  13.526
68978W        W35387  44.868  34.930   2.358
68979W        W35388  43.730   6.698   2.259
68980W        W35389   4.161  16.308  13.586
68981W        W35390  31.769  12.968  14.512
68982W        W35391  20.465  18.922  14.452
68983W        W35392  19.218  17.059   3.645
68984W        W35393  28.652  28.789  12.468
68985W        W35394   7.375  22.296  11.544
68986W        W35395  14.313   8.513  14.392
68987W        W35396  24.645  40.778   3.667
68988W        W35397  28.945  18.851  13.265
68989W        W35398   9.920  16.547  13.320
68990W        W35399  20.539  36.566  12.193
68991W        W35400  27.734  13.895   2.227
68992W        W35401  22.606  13.730   0.375
68993W        W35402  13.018  30.584   3.393
68994W        W35403  36.483  40.738  10.852
68995W        W35404  17.131  10.295  14.399
68996W        W35405  42.322  16.939  12.408
68997W        W35406  10.811  18.250   4.491
68998W        W35407   3.189  39.865  10.510
68999W        W35408  18.333  12.232  13.032
69000W        W35409  12.147  43.753  11.148
69001W        W35410  29.875  33.985  11.955
69002W        W35411  40.262   4.247   1.238
69003W        W35412  40.992  28.242  12.536
69004W        W35413   5.998  23.650  12.015
69005W        W35414  11.255  30.485  13.617
69006W        W35415  17.528  38.457   9.800
69007W        W35416   4.532  19.799   3.199
69008W        W35417  14.131   3.594  10.196
69009W        W35418  17.469  30.465   1.899
69010W        W35419   9.693  15.249  14.988
69011W        W35420  21.190  25.054  14.402
69012W        W35421  44.453  43.753   3.511
69013W        W35422  25.187  37.092   2.222
69014W        W35423  13.782  35.920   4.791
69015W        W35424   9.393  16.698  10.763
69016W        W35425  26.389   6.681  14.797
69017W        W35426   5.659  35.625  11.202
69018W        W35427  21.256  17.505   0.969
69019W        W35428  37.795  29.992  12.919
69020W        W35429  11.266  39.272   1.408
69021W        W35430  17.651  24.017  13.455
69022W        W35431  36.391   9.771   2.425
69023W        W35432  37.107   0.199  12.541
69024W        W35433  18.688  15.832  12.966
69025W        W35434  40.258   3.740  13.843
69026W        W35435  11.889   1.133  12.561
69027W        W35436  22.929  34.230  12.025
69028W        W35437   3.785  34.067  11.939
69029W        W35438  18.640   3.355   0.283
69030W        W35439  17.192   2.319   3.142
69031W        W35440  13.932  34.909   2.183
69032W        W35441  42.226   2.947  14.463
69033W        W35442  15.849   5.802  14.960
69034W        W35443  28.139  41.573   0.771
69035W        W35444   5.456  35.247   2.604
69036W        W35445  20.048  44.867  11.123
69037W        W35446  13.661  21.837   3.691
69038W        W35447  41.844  34.021   0.996
69039W        W35448  42.203   5.798   3.348
69040W        W35449  27.979  41.084  14.715
69041W        W35450  43.328  42.577   4.239
69042W        W35451  32.480  16.582   0.194
69043W        W35452  11.124  10.832  11.085
69044W        W35453  26.619   7.239   4.282
69045W        W35454  14.227  40.237  11.120
69046W        W35455  37.568  28.126   2.528
69047W        W35456  24.190   1.197  13.613
69048W        W35457   4.210  30.064   0.710
69049W        W35458   3.046  21.822   0.747
69050W        W35459  19.570  44.645  11.932
69051W        W35460  19.846  27.700   2.324
69052W        W35461  36.551  13.772  13.753
69053W        W35462  14.163  19.500  14.875
69054W        W35463   2.537  42.724   1.880
69055W        W35464  38.775  12.767   1.399
69056W        W35465  10.878  40.951  11.686
69057W        W35466  15.533  15.337  12.449
69058W        W35467  42.780   2.888  14.881
69059W        W35468  17.964   4.414   3.304
69060W        W35469  23.967  28.962   1.849
69061W        W35470  16.808  11.613  13.451
69062W        W35471  39.910  24.577   0.922
69063W        W35472  15.299  16.061   1.748
69064W        W35473   8.477   0.130   3.840
69065W        W35474  11.756  44.693   9.910
69066W        W35475  16.807  10.911  12.140
69067W        W35476  39.953  43.901   4.713
69068W        W35477   7.599  35.137   4.091
69069W        W35478  36.412   4.230   4.673
69070W        W35479  34.757   3.561   0.352
69071W        W35480  28.069   9.082   2.289
69072W        W35481   9.841  14.728  11.734
69073W        W35482  34.376   1.065  14.763
69074W        W35483  18.234  11.577  14.889
69075W        W35484  11.517  16.627   4.567
69076W        W35485  30.860   5.428   2.352
69077W        W35486  36.892  40.996   3.476
69078W        W35487   4.899  27.250   4.163
69079W        W35488  43.998  19.586   3.474
69080W        W35489  28.701  30.048   4.592
69081W        W35490  10.207  21.706  12.404
69082W        W35491   1.367   9.440  11.952
69083W        W35492  29.388  34.849   3.751
69084W        W35493  11.187  27.345  13.985
69085W        W35494  13.149  30.671  12.002
69086W        W35495  21.674  23.580   2.685
69087W        W35496  43.896   9.176   3.945
69088W        W35497  39.821   8.509   1.025
69089W        W35498   4.941  34.604   3.906
69090W        W35499  25.770  42.096   4.743
69091W        W35500  30.405  43.501   2.376
69092W        W35501  28.758  27.250  12.429
69093W        W35502  16.840  38.560   2.663
69094W        W35503  26.968  17.281   2.240
69095W        W35504  14.118   3.667   2.445
69096W        W35505  10.432  22.577   4.150
69097W        W35506  32.220  13.656   2.332
69098W        W35507  29.909   9.167  12.163
69099W        W35508  28.420  13.785   4.076
69100W        W35509   3.904  43.575  13.588
69101W        W35510   4.472  33.348   2.303
69102W        W35511  39.513  34.494  11.958
69103W        W35512  37.322  13.224  13.427
69104W        W35513  40.406  19.217   3.664
69105W        W35514   1.393  29.190   1.819
69106W        W35515  41.634  26.170   1.331
69107W        W35516  42.827  42.408   3.530
69108W        W35517  39.943   0.170  11.967
69109W        W35518  24.113  23.331  15.000
69110W        W35519  28.178  39.724   3.015
69111W        W35520  37.695  34.489   0.508
69112W        W35521  43.061   2.002  14.654
69113W        W35522  12.209  41.797  11.567
69114W        W35523  14.049  36.296  11.617
69115W        W35524  31.608  40.101   3.247
69116W        W35525  42.871  33.721   1.366
69117W        W35526  23.030  37.138   1.912
69118W        W35527   8.074  32.840   1.646
69119W        W35528  35.155  30.491  13.784
69120W        W35529   9.179  17.258  14.040
69121W        W35530  32.924  44.001   0.818
69122W        W35531  20.926  31.449   3.573
69123W        W35532  26.223  13.641  11.076
69124W        W35533   4.217  25.882   0.638
69125W        W35534  29.627  20.558   0.071
69126W        W35535  20.301  25.019  14.182
69127W        W35536  18.767   3.824   3.263
69128W        W35537  32.964   3.451   1.226
69129W        W35538   4.292  41.058  11.542
69130W        W35539  15.093   0.968  14.346
69131W        W35540  32.486   7.006   4.250
69132W        W35541  11.661  23.326   4.349
69133W        W35542  40.234  13.276  11.213
69134W        W35543  32.640  12.305  14.846
69135W        W35544  40.985   5.313   0.245
69136W        W35545  26.632  21.793   3.769
69137W        W35546  41.836  33.564   0.781
69138W        W35547   5.317  29.097   2.140
69139W        W35548  23.802   3.385  13.865
69140W        W35549   8.858  31.583   0.309
69141W        W35550   7.182  11.807  12.032
69142W        W35551  44.558  44.246  12.480
69143W        W35552  26.703  26.553  13.183
69144W        W35553  35.892  26.541   1.603
69145W        W35554  43.358  38.176   3.861
69146W        W35555  43.726  41.563  11.931
69147W        W35556  18.079   2.208  10.603
69148W        W35557  41.573  25.419  13.480
69149W        W35558  40.056  15.565  11.743
69150W        W35559  30.690   9.464   5.342
69151W        W35560   9.349   0.921   3.251
69152W        W35561  15.624   0.306  13.937
69153W        W35562  36.108  15.379   4.078
69154W        W35563  19.713  22.434   0.262
69155W        W35564  12.871  25.457  11.422
69156W        W35565  16.133  12.230   2.245
69157W        W35566  39.479  29.157   1.812
69158W        W35567  39.934  10.281   2.398
69159W        W35568  19.663  14.136  14.794
69160W        W35569  19.597  14.834   1.933
69161W        W35570  28.522  29.451   3.489
69162W        W35571  39.565  28.138   1.576
69163W        W35572  12.623   4.167   0.909
69164W        W35573  11.788  32.414   2.342
69165W        W35574  24.519  25.608  13.527
69166W        W35575   5.607  13.665   0.449
69167W        W35576  41.474  11.348   4.092
69168W        W35577  16.618  42.482   1.100
69169W        W35578  44.048   5.486   0.847
69170W        W35579   8.697   5.236   1.368
69171W        W35580   5.819  42.245  11.228
69172W        W35581  34.909  41.578  12.043
69173W        W35582  14.956  12.115   1.740
69174W        W35583  20.160   8.351   1.785
69175W        W35584   6.185  31.115  13.888
69176W        W35585  16.585   9.942   3.643
69177W        W35586  37.421  22.805   2.356
69178W        W35587  44.213  42.345  13.868
69179W        W35588  17.289  30.378  13.863
69180W        W35589  33.355  11.464   4.131
69181W        W35590   9.305  30.960   0.261
69182W        W35591  39.402   3.825  14.497
69183W        W35592   8.111  36.941   1.237
69184W        W35593   4.886  41.991  11.108
69185W        W35594  44.778  37.090  12.892
69186W        W35595  24.839  17.186  12.567
69187W        W35596   2.309   7.810   1.615
69188W        W35597  37.253  32.640   2.881
69189W        W35598   8.797  13.879   2.143
69190W        W35599  26.965  39.737  11.590
69191W        W35600  20.743  17.544  12.804
69192W        W35601  29.414  44.596  14.334
69193W        W35602  34.647  16.197   2.659
69194W        W35603   3.843  16.997  10.975
69195W        W35604  15.331   8.413   3.121
69196W        W35605   7.010   9.134   1.698
69197W        W35606  40.484  24.660  11.429
69198W        W35607   0.076  20.767   3.629
69199W        W35608  42.206  25.979  11.562
69200W        W35609  14.162  17.294  11.489
69201W        W35610  43.788  23.932  10.728
69202W        W35611  18.487  20.167  13.295
69203W        W35612  25.188  12.836   2.480
69204W        W35613  22.975  41.119   4.686
69205W        W35614  11.541  31.887  13.426
69206W        W35615  24.126  27.604   2.374
69207W        W35616  14.622  21.068   3.272
69208W        W35617  35.969  31.702   3.538
69209W        W35618  15.262  42.438   1.881
69210W        W35619   8.330   1.740   0.872
69211W        W35620   2.268   1.508   2.420
69212W        W35621  44.153   9.795   2.699
69213W        W35622  14.818   9.710   2.929
69214W        W35623   5.263  19.350  12.976
69215W        W35624  42.282  24.494  13.441
69216W        W35625   2.564  29.622  12.115
69217W        W35626  24.985  25.942   4.040
69218W        W35627  13.441  44.875   3.635
69219W        W35628  34.838  29.554   2.762
69220W        W35629  23.247   9.447   4.477
69221W        W35630  40.222  28.185  14.031
69222W        W35631  15.630  32.507   3.890
69223W        W35632  33.662  12.964  10.877
69224W        W35633   4.700   6.682  11.676
69225W        W35634  30.959   9.433   1.509
69226W        W35635  41.530  39.408   3.824
69227W        W35636  44.313  39.384  11.822
69228W        W35637  14.724  18.668   1.693
69229W        W35638  15.293  29.406   3.759
69230W        W35639  32.228  31.941  11.650
69231W        W35640  30.646   6.164   1.820
69232W        W35641   7.865   2.461  13.504
69233W        W35642  23.479   4.442  10.718
69234W        W35643   5.681  12.864   0.333
69235W        W35644   7.877  36.491  14.503
69236W        W35645   9.655  37.404  13.586
69237W        W35646  29.863  22.531   4.895
69238W        W35647   1.015  25.578   4.373
69239W        W35648  26.219  34.672  11.265
69240W        W35649  37.105  34.794  10.882
69241W        W35650  11.610  10.356   0.928
69242W        W35651  38.810  41.456   1.281
69243W        W35652  31.050  10.808   0.514
69244W        W35653   8.417  22.470   1.146
69245W        W35654   2.938  23.286   2.948
69246W        W35655  23.025  31.905   3.223
69247W        W35656  42.956  39.170   0.382
69248W        W35657  35.637  33.304   0.473
69249W        W35658  14.899   0.466  12.422
69250W        W35659   3.846  40.439   2.258
69251W        W35660  28.809  21.784  13.475
69252W        W35661  31.762  42.462   3.682
69253W        W35662  30.556   4.470  11.035
69254W        W35663   4.586  23.702   4.094
69255W        W35664  39.805  21.114  10.339
69256W        W35665  32.095   1.695   9.531
69257W        W35666   6.859  17.117   0.508
69258W        W35667  29.968  16.989   3.696
69259W        W35668  27.112  11.199  11.819
69260W        W35669  37.117  42.956   3.613
69261W        W35670  40.851  42.259  13.309
69262W        W35671  27.497  37.705  12.026
69263W        W35672  13.077  37.817   3.290
69264W        W35673  23.682  12.776   2.176
69265W        W35674  31.468  37.447   2.968
69266W        W35675  40.739  25.113  11.487
69267W        W35676  23.683  27.033   4.677
69268W        W35677   0.874  40.275   2.288
69269W        W35678  22.643  13.607  12.510
69270W        W35679  17.727  17.402  12.987
69271W        W35680  38.163  22.652  12.020
69272W        W35681  30.582  20.233  12.344
69273W        W35682  31.572  16.272   3.944
69274W        W35683  19.253  21.699   1.222
69275W        W35684  14.860  15.790   0.552
69276W        W35685  36.553  14.124   2.877
69277W        W35686   5.305  34.864  11.698
69278W        W35687  21.821  41.329   0.850
69279W        W35688  41.010  25.319   2.673
69280W        W35689  28.588  29.453  12.986
69281W        W35690   3.647   9.388   1.023
69282W        W35691  24.189  37.047  12.965
69283W        W35692  11.246  23.632   4.563
69284W        W35693  40.741  13.223   1.218
69285W        W35694   3.789  16.734  12.078
69286W        W35695   6.614  10.750  10.728
69287W        W35696  20.084   3.170  10.045
69288W        W35697  32.670  27.972   2.640
69289W        W35698   8.423  25.875  10.666
69290W        W35699  25.403  12.531  11.440
69291W        W35700  37.248  13.079   2.374
69292W        W35701  37.768   3.528   1.367
69293W        W35702  35.703  41.042  12.106
69294W        W35703   6.706  40.803  14.908
69295W        W35704   3.927  18.528   3.100
69296W        W35705  24.009  41.024  11.654
69297W        W35706   0.282  12.227   1.184
69298W        W35707  32.415  15.821  10.944
69299W        W35708   0.243  13.902  12.519
69300W        W35709  43.105  13.788   4.806
69301W        W35710  41.847   6.845   1.766
69302W        W35711  15.004  44.057  11.549
69303W        W35712  41.394  32.614  11.042
69304W        W35713  15.690  12.605   0.762
69305W        W35714  22.756  33.846   0.660
69306W        W35715  28.458   8.568   3.628
69307W        W35716  12.195  30.984   2.052
69308W        W35717  41.482  40.327  12.160
69309W        W35718  33.521   7.225  13.589
69310W        W35719  23.529  37.907  10.746
69311W        W35720  36.519  42.380   4.598
69312W        W35721  30.367   5.198  11.872
69313W        W35722  21.923   0.731   1.877
69314W        W35723  30.177  11.557   4.084
69315W        W35724  43.836  21.714   3.704
69316W        W35725   9.569  21.934  14.050
69317W        W35726  30.993  34.417   2.636
69318W        W35727  25.370  15.551  14.570
69319W        W35728   4.701  39.772   1.728
69320W        W35729   4.901  23.472  11.175
69321W        W35730  32.040  24.117   0.267
69322W        W35731  22.572  22.232   2.917
69323W        W35732  35.561  41.791   4.198
69324W        W35733   3.231   9.885  14.420
69325W        W35734  30.984  22.041  11.609
69326W        W35735  21.745  24.445   4.540
69327W        W35736  26.688  21.525  13.962
69328W        W35737  21.450  38.569   1.365
69329W        W35738   1.459  38.393  12.635
69330W        W35739  25.749  18.277  14.427
69331W        W35740  17.796  25.615  10.652
69332W        W35741   5.506  40.980  13.505
69333W        W35742  35.510   0.305  12.386
69334W        W35743  11.337  28.137   0.207
69335W        W35744  17.135  21.721   3.390
69336W        W35745  32.489  32.165   1.119
69337W        W35746  41.458  44.009  13.079
69338W        W35747  33.261   6.177   1.128
69339W        W35748  11.185  23.484   3.569
69340W        W35749   3.440  44.089   0.103
69341W        W35750  27.028   8.698   0.444
69342W        W35751  37.452  44.906  14.417
69343W        W35752  21.832   5.348   2.263
69344W        W35753  16.164  19.088  12.541
69345W        W35754  39.328  22.703   1.985
69346W        W35755  27.095  24.844   2.142
69347W        W35756  39.379  13.393   1.976
69348W        W35757  14.372  13.123   4.186
69349W        W35758   4.803  16.104   3.796
69350W        W35759  16.809  41.971   0.399
69351W        W35760  15.488   1.227   4.332
69352W        W35761  43.395  38.668  11.955
69353W        W35762  29.438   8.095   0.468
69354W        W35763  21.498  30.531  11.198
69355W        W35764  37.137   3.060  13.058
69356W        W35765   5.451  27.509   2.634
69357W        W35766  11.555  23.078   1.945
69358W        W35767  20.063  26.594  14.112
69359W        W35768  39.838  40.314  13.204
69360W        W35769  21.677  21.186  10.781
69361W        W35770  39.098  23.040  12.001
69362W        W35771   6.753  11.083   1.797
69363W        W35772   9.580  29.702  14.558
69364W        W35773  26.905   9.265   1.229
69365W        W35774  27.991  33.138   1.572
69366W        W35775  32.024  37.236  13.273
69367W        W35776  32.889   0.267  11.996
69368W        W35777  27.465   9.408  12.928
69369W        W35778  18.073   5.800   2.171
69370W        W35779  20.429  43.633   4.566
69371W        W35780   3.439  28.572  14.501
69372W        W35781  28.608  42.086  13.562
69373W        W35782  25.521   1.506  12.525
69374W        W35783   4.926  32.115   2.408
69375W        W35784  26.481  27.071   3.219
69376W        W35785  34.849  41.299  10.684
69377W        W35786   8.596  44.748   0.667
69378W        W35787  16.256   0.301   1.513
69379W        W35788  17.491  15.742   3.105
69380W        W35789  21.202  17.077   3.838
69381W        W35790  17.895  19.652  13.457
69382W        W35791  35.051   3.707  11.351
69383W        W35792   8.715   4.895   0.860
69384W        W35793  19.015  40.374   1.374
69385W        W35794  14.792   5.403   2.437
69386W        W35795  31.253  27.581   4.698
69387W        W35796   8.295  14.117  11.171
69388W        W35797  22.733  21.543   4.111
69389W        W35798   6.605  39.966  12.494
69390W        W35799  36.869  19.139  11.097
69391W        W35800  16.850  17.306   0.691
69392W        W35801  38.536   9.807   1.921
69393W        W35802  17.099  11.250  12.807
69394W        W35803   9.249  41.792  12.122
69395W        W35804  43.358  29.493   1.841
69396W        W35805  36.085  40.824  12.922
69397W        W35806  15.723   5.079  13.834
69398W        W35807   5.354  22.667  13.280
69399W        W35808  42.265  26.691   1.488
69400W        W35809  34.055  31.745   1.569
69401W        W35810  10.215  31.544   4.966
69402W        W35811  25.187   6.136  14.971
69403W        W35812  20.771  39.619  13.000
69404W        W35813  17.333  11.784   4.098
69405W        W35814   9.212   1.907   2.324
69406W        W35815  32.523  30.618   3.200
69407W        W35816  18.483   1.758  14.429
69408W        W35817  27.883  24.717   0.437
69409W        W35818  39.045   4.269   4.599
69410W        W35819   5.454  10.865   0.370
69411W        W35820  11.404  44.165  12.270
69412W        W35821  18.332   4.349   0.299
69413W        W35822   4.354   1.530  14.363
69414W        W35823   5.277  25.025  10.221
69415W        W35824  39.916   5.496  14.827
69416W        W35825  22.605  18.495  11.725
69417W        W35826  13.555  28.577  11.643
69418W        W35827   7.499   4.662  11.160
69419W        W35828   5.665   5.006  12.979
69420W        W35829  20.767  32.504   4.328
69421W        W35830   5.044  38.365  10.677
69422W        W35831  33.503   1.740  14.694
69423W        W35832  19.719   2.842  12.070
69424W        W35833  30.616   5.277  12.335
69425W        W35834  30.166   1.906  14.784
69426W        W35835  38.227  40.920  12.596
69427W        W35836  19.272  19.043   1.498
69428W        W35837  18.667  35.973   0.717
69429W        W35838  41.272  12.720   4.119
69430W        W35839   2.110  27.579   1.143
69431W        W35840  41.779  12.449  10.840
69432W        W35841  10.260  14.760  11.406
69433W        W35842  24.004  19.106  14.506
69434W        W35843   4.942  33.087   4.112
69435W        W35844  22.571  36.516   3.361
69436W        W35845   1.844   7.581  10.628
69437W        W35846  32.339  16.998  10.210
69438W        W35847  36.395   8.951   4.289
69439W        W35848  30.105  11.227   0.453
69440W        W35849   1.410  22.066   0.429
69441W        W35850  24.681  43.846  12.582
69442W        W35851   7.262  15.897  12.461
69443W        W35852   0.324   5.419   2.672
69444W        W35853  27.591   6.893  13.565
69445W        W35854  37.918  18.819  14.240
69446W        W35855  17.298  30.725  10.737
69447W        W35856  40.937  18.245   4.968
69448W        W35857  27.250  38.391   1.815
69449W        W35858  31.837  13.265  13.987
69450W        W35859   3.869   5.734  10.807
69451W        W35860   0.348   6.905  11.584
69452W        W35861  18.749   7.839  13.791
69453W        W35862  25.184  31.753  12.973
69454W        W35863  38.467  18.076  13.849
69455W        W35864  22.642  42.077  10.764
69456W        W35865  35.654   8.382  12.461
69457W        W35866  39.530  43.246  12.955
69458W        W35867   1.001  21.517   2.660
69459W        W35868   6.221  22.136  14.549
69460W        W35869  10.354   3.250  11.047
69461W        W35870  30.186  35.854  13.328
69462W        W35871  31.116  26.997  12.365
69463W        W35872  30.874  22.626   2.011
69464W        W35873  27.948  14.571   4.493
69465W        W35874  43.328  43.590   3.234
69466W        W35875  25.976  30.014  10.661
69467W        W35876  26.736  35.490   1.880
69468W        W35877  15.064  42.002   1.139
69469W        W35878   6.496  21.193  13.400
69470W        W35879   7.253  32.105   4.147
69471W        W35880   3.722  41.499   5.296
69472W        W35881  10.852  40.361  14.834
69473W        W35882   6.756  32.349  13.472
69474W        W35883  43.426  36.595  12.612
69475W        W35884  33.889  34.396   0.387
69476W        W35885  26.108   0.093  13.486
69477W        W35886   4.810  39.072  12.161
69478W        W35887  43.959   5.475  12.746
69479W        W35888  31.677   3.571  12.922
69480W        W35889  35.184  25.910  10.963
69481W        W35890   7.406  16.919  12.605
69482W        W35891   6.875  28.464   3.186
69483W        W35892  44.237  27.500  11.629
69484W        W35893  35.755  25.177  12.636
69485W        W35894   5.777  33.047  10.972
69486W        W35895  33.493  12.304  12.495
69487W        W35896  18.140  29.450   1.866
69488W        W35897  30.543  17.850  11.885
69489W        W35898  24.486  35.491   0.674
69490W        W35899  15.127   1.878  11.040
69491W        W35900  27.412  42.267   2.711
69492W        W35901  27.110  30.603   3.341
69493W        W35902  33.172  28.973   3.842
69494W        W35903  40.055  21.348   4.546
69495W        W35904   5.296  35.705  14.242
69496W        W35905  20.071  11.233  14.883
69497W        W35906   4.440  16.758   0.796
69498W        W35907  37.672  19.546  11.154
69499W        W35908  31.785  34.295  13.053
69500W        W35909   7.296  13.319  13.530
69501W        W35910   2.369  35.094   3.090
69502W        W35911  18.772   9.456   0.059
69503W        W35912   5.708  16.580   1.258
69504W        W35913  39.822  44.245  10.927
69505W        W35914  26.409  31.595   2.816
69506W        W35915  11.726  36.826  10.561
69507W        W35916  10.732  28.508   4.328
69508W        W35917  14.315  28.519   2.918
69509W        W35918  30.176  17.063   0.068
69510W        W35919  23.651  37.373  11.559
69511W        W35920   8.328  11.790  10.426
69512W        W35921  24.968  27.937   3.277
69513W        W35922  20.566  30.114  14.865
69514W        W35923   6.556  44.730   2.808
69515W        W35924  41.953  40.973   1.688
69516W        W35925  43.750  14.169   4.631
69517W        W35926  25.462  26.036   2.320
69518W        W35927  29.215  35.379   0.586
69519W        W35928  35.960   7.397   3.245
69520W        W35929  30.077  42.249   2.073
69521W        W35930   3.386  43.813  12.073
69522W        W35931  15.013  41.215  13.847
69523W        W35932  42.580  32.003  11.850
69524W        W35933  13.288  31.861  11.905
69525W        W35934  13.315  34.575   2.787
69526W        W35935   2.789  35.594  11.891
69527W        W35936  22.523  22.092  12.574
69528W        W35937  26.010   7.389   2.684
69529W        W35938   6.465  22.024   2.172
69530W        W35939  44.872  16.613  12.453
69531W        W35940  30.457  34.872   2.230
69532W        W35941  30.589  12.901   4.363
69533W        W35942   7.640  38.559   0.119
69534W        W35943  29.928  26.675   3.226
69535W        W35944  43.320  33.415  10.263
69536W        W35945  12.820   2.045  12.377
69537W        W35946  11.874   7.266   1.761
69538W        W35947  44.899  40.452   4.105
69539W        W35948  12.075   1.350  11.305
69540W        W35949  20.885  33.352   0.172
69541W        W35950  17.433  40.787  13.995
69542W        W35951  38.039  27.941   2.450
69543W        W35952  31.959  26.975   3.728
69544W        W35953  23.154  11.155  14.831
69545W        W35954  33.367  21.225   3.741
69546W        W35955  33.869  18.180  12.089
69547W        W35956   5.048  25.000   2.870
69548W        W35957  18.584  11.743   1.338
69549W        W35958  41.910  19.163   4.202
69550W        W35959  13.084  16.824   0.813
69551W        W35960   2.714  14.216  10.871
69552W        W35961   7.928  42.073   0.280
69553W        W35962  34.464  35.362   3.409
69554W        W35963   4.839  28.968  13.194
69555W        W35964   0.874   2.942   4.792
69556W        W35965   7.517   7.944   2.386
69557W        W35966   2.726   8.497  13.041
69558W        W35967  42.845   5.195   2.403
69559W        W35968   0.794  29.586   4.349
69560W        W35969  30.024  33.389   4.182
69561W        W35970   2.330  24.861   4.619
69562W        W35971  36.943  16.167   4.566
69563W        W35972  31.898  11.133   3.474
69564W        W35973  38.794  25.604   4.564
69565W        W35974  22.524  39.850  13.820
69566W        W35975   7.868  11.415  12.347
69567W        W35976  42.976  20.573   3.329
69568W        W35977  38.847   1.530  11.736
69569W        W35978  34.875  28.174   2.380
69570W        W35979   4.335   2.580  14.379
69571W        W35980  14.368  12.699  13.798
69572W        W35981  18.165  12.701   3.097
69573W        W35982  40.994  16.562  14.707
69574W        W35983  41.443  32.484  10.428
69575W        W35984   8.695  31.105   4.457
69576W        W35985  37.328  39.438   3.646
69577W        W35986  38.900  36.389  11.017
69578W        W35987  19.540  36.702  11.590
69579W        W35988  43.525   7.247   1.408
69580W        W35989  18.644  40.571   3.749
69581W        W35990  20.250  18.452   3.382
69582W        W35991  23.083   0.843  13.979
69583W        W35992  30.879  18.644  11.423
69584W        W35993  31.382  22.772   1.886
69585W        W35994   4.218   9.792  12.086
69586W        W35995  40.672  29.132   4.489
69587W        W35996   8.168  32.351   4.072
69588W        W35997  13.902  12.646  11.878
69589W        W35998  12.846   3.860   2.660
69590W        W35999  38.433  33.955   1.347
69591W        W36000  27.520  30.335   2.190
69592W        W36001  32.800  38.278   1.532
69593W        W36002   2.756  13.404   1.962
69594W        W36003  24.711   0.823  12.134
69595W        W36004  34.156  18.737  14.791
69596W        W36005  32.723  22.049   1.798
69597W        W36006  10.886  41.054   3.139
69598W        W36007  43.330  34.277   3.423
69599W        W36008  28.756   2.693   0.220
69600W        W36009  40.715  37.369   9.982
69601W        W36010   4.746  42.971  13.704
69602W        W36011  21.245  18.092   1.264
69603W        W36012  40.322  12.903   4.477
69604W        W36013   5.640  43.573   3.610
69605W        W36014  11.586  12.301   2.235
69606W        W36015   3.842   4.748  10.037
69607W        W36016  41.285  31.107  11.490
69608W        W36017   0.723  27.120   0.739
69609W        W36018  16.106  12.648  11.080
69610W        W36019   4.084  11.389   3.136
69611W        W36020  44.409  13.143  14.923
69612W        W36021  36.813   8.116  12.615
69613W        W36022  39.926  10.879  10.685
69614W        W36023   0.991  24.969  12.018
69615W        W36024  33.443  24.658   2.250
69616W        W36025  43.015  26.128  11.763
69617W        W36026  28.476  32.848  12.516
69618W        W36027  15.690  10.277   5.075
69619W        W36028  15.093  34.914  13.876
69620W        W36029  25.694   1.973   9.921
69621W        W36030  42.332  12.734  10.707
69622W        W36031  37.116  28.996   1.289
69623W        W36032   3.021  18.861  12.054
69624W        W36033  37.095  20.726   0.791
69625W        W36034  41.305  41.620  12.194
69626W        W36035  44.094  40.815  13.046
69627W        W36036  23.275  19.756  10.568
69628W        W36037   4.944  37.521   2.707
69629W        W36038  16.616  44.047  14.820
69630W        W36039  19.248  38.323  14.376
69631W        W36040   6.405  18.509   4.133
69632W        W36041  10.076   9.895   1.725
69633W        W36042  19.284   6.668   1.243
69634W        W36043  17.060  37.649   0.810
69635W        W36044  26.975  32.414  10.657
69636W        W36045  38.516  14.689   0.926
69637W        W36046  28.981  30.035  11.543
69638W        W36047   4.346  28.205   1.528
69639W        W36048  16.899  17.046  12.083
69640W        W36049  21.771  36.928  12.137
69641W        W36050   3.167  33.431   2.352
69642W        W36051  19.617  32.136  11.997
69643W        W36052   9.467  28.769   4.208
69644W        W36053   1.836  30.890  12.661
69645W        W36054  33.563  35.084   0.207
69646W        W36055  27.595  20.790   0.885
69647W        W36056  21.967  39.053   1.806
69648W        W36057   7.320   1.518   0.479
69649W        W36058   8.152  20.501   1.514
69650W        W36059  39.351  18.132   1.633
69651W        W36060   9.751  25.357  14.777
69652W        W36061  19.019  38.742   1.870
69653W        W36062  30.947  14.678  11.852
69654W        W36063  14.698   3.438  14.830
69655W        W36064  31.101  27.712   2.821
69656W        W36065  14.372  10.598  11.124
69657W        W36066  31.516  33.778   0.402
69658W        W36067   5.412   2.846  11.863
69659W        W36068  20.517  18.621   1.188
69660W        W36069  18.469  27.455  12.498
69661W        W36070   0.519  16.767   1.283
69662W        W36071   8.401  43.782  12.332
69663W        W36072  28.920  19.643  12.865
69664W        W36073  21.670  40.534   0.721
69665W        W36074   9.239  18.559   2.304
69666W        W36075  41.695  16.833   1.603
69667W        W36076   8.951  32.025   0.028
69668W        W36077  27.788  34.850  14.730
69669W        W36078  28.854  28.636  13.356
69670W        W36079  14.214  18.968  11.232
69671W        W36080  42.253  20.176   0.856
69672W        W36081  24.468  37.057  13.662
69673W        W36082  12.541  21.452   3.699
69674W        W36083  31.638  40.939   1.577
69675W        W36084  21.298  37.048   4.748
69676W        W36085  23.549   5.193  12.138
69677W        W36086  23.073   3.419  11.013
69678W        W36087  22.937  39.813  13.334
69679W        W36088  23.028  39.182   2.315
69680W        W36089  41.703   7.868   2.578
69681W        W36090  16.624  39.944  13.417
69682W        W36091   3.098  39.383   4.102
69683W        W36092  37.781  39.814  10.873
69684W        W36093  23.937  18.327   3.608
69685W        W36094  19.033  23.843   3.478
69686W        W36095  20.492  24.889   2.415
69687W        W36096  36.418   5.300   4.571
69688W        W36097  11.647  12.447   3.620
69689W        W36098  14.757  30.463   0.850
69690W        W36099  37.400  31.905  13.609
69691W        W36100  13.367  32.157   1.872
69692W        W36101  14.667   9.599  13.007
69693W        W36102  44.954  26.973   3.161
69694W        W36103  24.114  12.050  12.081
69695W        W36104   7.424  27.467  13.308
69696W        W36105  12.723  33.930  14.460
69697W        W36106  11.344  21.837  11.389
69698W        W36107  26.050  18.739  14.869
69699W        W36108  19.929  28.900   3.090
69700W        W36109  17.774  21.694  13.957
69701W        W36110  21.988  23.679  13.337
69702W        W36111  37.707  36.104  13.070
69703W        W36112  32.441  37.291   2.004
69704W        W36113  26.445  39.989   4.847
69705W        W36114  33.126   7.509   2.328
69706W        W36115   2.660  25.735   4.737
69707W        W36116  43.953  22.604   0.802
69708W        W36117  10.376  17.011  14.859
69709W        W36118  40.070  23.101   4.682
69710W        W36119   2.816  32.190  14.968
69711W        W36120   8.078  20.697   3.728
69712W        W36121  34.504  11.108  10.342
69713W        W36122  19.556  41.357  14.730
69714W        W36123  24.127  14.886  10.681
69715W        W36124  37.314  31.323   3.143
69716W        W36125   5.244  11.646   3.415
69717W        W36126  18.692  24.018  12.608
69718W        W36127  37.381   0.222  13.420
69719W        W36128  35.960  29.553   0.394
69720W        W36129  33.511  20.485  12.503
69721W        W36130  24.714   3.738  12.933
69722W        W36131  44.186  28.773  14.692
69723W        W36132   2.993  11.187   4.669
69724W        W36133  26.135  25.838  11.539
69725W        W36134   4.135   5.267  14.991
69726W        W36135  23.296  11.853  12.017
69727W        W36136   2.653   0.805  14.828
69728W        W36137  23.730  26.954   0.765
69729W        W36138  10.772  31.004   0.728
69730W        W36139  26.876  31.033   4.264
69731W        W36140  11.232  44.993  14.646
69732W        W36141  31.665  30.576  13.605
69733W        W36142   1.608  27.995  11.164
69734W        W36143  11.046  29.772   4.733
69735W        W36144   4.295  42.817  10.520
69736W        W36145   1.900  28.082  10.462
69737W        W36146  19.025  10.383   2.361
69738W        W36147   9.923  24.254   1.757
69739W        W36148  18.039  44.236   3.707
69740W        W36149  36.187  18.106   2.499
69741W        W36150  30.463   7.268   2.347
69742W        W36151  36.964  40.106  13.790
69743W        W36152   0.201  32.029  13.347
69744W        W36153  20.744  23.744  10.558
69745W        W36154   3.263   5.900  11.478
69746W        W36155  29.870  36.656   1.284
69747W        W36156  25.515  17.557  14.379
69748W        W36157  40.080  11.428   2.476
69749W        W36158   2.623  31.416   3.850
69750W        W36159  44.063   5.643  13.244
69751W        W36160  33.297  10.692  11.039
69752W        W36161  36.530   7.149   4.733
69753W        W36162  20.641  16.338   2.788
69754W        W36163  36.509  40.206  10.887
69755W        W36164  14.403  19.587  14.402
69756W        W36165  40.630  41.897   2.424
69757W        W36166  20.513  28.829  13.490
69758W        W36167   0.017  22.224  12.629
69759W        W36168  26.013   9.392  11.679
69760W        W36169  13.246   8.549   1.861
69761W        W36170  10.063  40.516  14.278
69762W        W36171  30.708  30.478  12.049
69763W        W36172  36.627  15.035   2.446
69764W        W36173   5.262  22.821   3.247
69765W        W36174  10.803  38.295   1.498
69766W        W36175   5.286  13.870  13.148
69767W        W36176  25.038  43.249  11.710
69768W        W36177   2.519  18.563  10.753
69769W        W36178  36.772  20.948   2.358
69770W        W36179  23.713  19.348  11.119
69771W        W36180  24.118  32.643  14.655
69772W        W36181  29.031  24.681   2.760
69773W        W36182   1.388  38.136   3.081
69774W        W36183  19.486  40.942  14.357
69775W        W36184  41.210  20.150   0.976
69776W        W36185   1.434  43.014   3.699
69777W        W36186  38.096   9.666   3.795
69778W        W36187  21.193  33.468   1.249
69779W        W36188  41.803  36.914  12.994
69780W        W36189  44.791  37.085   0.178
69781W        W36190  43.976   0.188   2.939
69782W        W36191  18.006   8.433   2.856
69783W        W36192  34.965  39.189  13.039
69784W        W36193   9.878  30.644   5.127
69785W        W36194  28.685  16.856  12.485
69786W        W36195  11.927   7.790  12.637
69787W        W36196  14.602  28.514  11.612
69788W        W36197  39.359  20.532  10.657
69789W        W36198  32.891  34.622  12.432
69790W        W36199  31.526  16.040   4.691
69791W        W36200  41.907  41.494  14.943
69792W        W36201  18.563   8.898  10.259
69793W        W36202  20.052  31.023   0.754
69794W        W36203  39.394   4.622  11.982
69795W        W36204   3.239  33.002   2.791
69796W        W36205  12.304   5.888  12.949
69797W        W36206  35.534  39.844  14.107
69798W        W36207   0.002   7.859  12.101
69799W        W36208  16.626   4.302  13.189
69800W        W36209   1.976  44.671   2.362
69801W        W36210   1.007  10.307  10.328
69802W        W36211  10.179  39.991  10.651
69803W        W36212   0.160  35.375   4.656
69804W        W36213  34.400  38.905   3.666
69805W        W36214   9.391  16.339   3.442
69806W        W36215   5.401  16.237   4.544
69807W        W36216   7.853  28.191  14.840
69808W        W36217  25.731  24.587  13.119
69809W        W36218  37.333  34.671   4.418
69810W        W36219  11.083  18.573  13.622
69811W        W36220  11.377  33.595  11.505
69812W        W36221  24.263  44.213   2.188
69813W        W36222  40.503   8.433   2.988
69814W        W36223  24.469  38.827   3.525
69815W        W36224  38.902  33.447  13.540
69816W        W36225   9.904  28.247   1.873
69817W        W36226   6.434   6.839  12.316
69818W        W36227  43.032  40.076   1.391
69819W        W36228   9.246  28.508  14.266
69820W        W36229  13.056  22.397  13.553
69821W        W36230  25.180  21.551  10.208
69822W        W36231  36.416   9.284  13.909
69823W        W36232   3.793  13.296  11.657
69824W        W36233  37.308   3.548  13.581
69825W        W36234  32.492  26.080   1.247
69826W        W36235  15.854  31.936  11.459
69827W        W36236   5.389  33.836   1.366
69828W        W36237  12.625  43.761   5.191
69829W        W36238  25.670  42.552   4.050
69830W        W36239   5.763  11.662  13.102
69831W        W36240  35.401  30.909   2.658
69832W        W36241  17.772  38.317  10.251
69833W        W36242   5.424  12.760  14.869
69834W        W36243  31.880  30.735  11.199
69835W        W36244  10.610  11.164   4.453
69836W        W36245  36.689  20.325  11.621
69837W        W36246  44.291  41.451  14.845
69838W        W36247  37.763   8.893  11.546
69839W        W36248  36.140  34.894   3.268
69840W        W36249  30.001  38.673   1.164
69841W        W36250  20.715   3.301  13.160
69842W        W36251   6.909  18.213  10.616
69843W        W36252  17.382  14.730   3.262
69844W        W36253  23.927  33.226  10.176
69845W        W36254  10.923   2.333   3.615
69846W        W36255  29.474   9.747   2.236
69847W        W36256  20.790  37.813  13.983
69848W        W36257  34.107  26.550  12.390
69849W        W36258   5.821  26.413  10.888
69850W        W36259  22.650  14.302  13.744
69851W        W36260  19.282  44.029   4.769
69852W        W36261  14.182  15.669  11.657
69853W        W36262  12.714  34.397  12.412
69854W        W36263   5.276  31.467   1.906
69855W        W36264  22.724  26.610  12.997
69856W        W36265  15.753  38.782   0.902
69857W        W36266  14.873  36.481  14.796
69858W        W36267  41.392  14.802  12.531
69859W        W36268  44.784  27.882   1.860
69860W        W36269  20.765  19.981   3.414
69861W        W36270  25.026   6.319  12.069
69862W        W36271  26.753   7.218   0.419
69863W        W36272  26.978  37.964   5.010
69864W        W36273  22.174  10.280  13.887
69865W        W36274  11.150  20.222   1.208
69866W        W36275  28.361  41.524   3.627
69867W        W36276  25.063  43.472   0.873
69868W        W36277  32.741  21.556  12.022
69869W        W36278  17.220  19.565   2.374
69870W        W36279   1.869  34.210  11.297
69871W        W36280  19.600  40.402   4.589
69872W        W36281   4.159  42.967   3.617
69873W        W36282  27.417  26.423  10.879
69874W        W36283  15.226  13.629   1.917
69875W        W36284  43.190  33.821   3.223
69876W        W36285   5.283  29.656  11.254
69877W        W36286  15.679  23.494   2.186
69878W        W36287  21.771  23.261  13.850
69879W        W36288  31.812   3.214  12.577
69880W        W36289   2.933  35.657  11.062
69881W        W36290  42.965  34.928   1.681
69882W        W36291  10.054  22.676  14.412
69883W        W36292  15.543  26.938  13.924
69884W        W36293  42.599   9.820   1.862
69885W        W36294  10.267  39.126   1.270
69886W        W36295  39.455  32.389  11.569
69887W        W36296   0.931  23.767   2.302
69888W        W36297   0.251  39.030   3.242
69889W        W36298  39.858  19.715   0.374
69890W        W36299   6.101  37.354  10.044
69891W        W36300  38.594  24.326  13.361
69892W        W36301  32.024  37.484   1.763
69893W        W36302  14.281   0.478  14.029
69894W        W36303  37.448  39.386  10.722
69895W        W36304  20.629  41.822   4.566
69896W        W36305  22.226  19.749  13.463
69897W        W36306  14.912  27.035   0.192
69898W        W36307  40.483  44.271   0.380
69899W        W36308   4.139  36.366   0.135
69900W        W36309   8.124  36.694  10.519
69901W        W36310  44.017  21.080  11.165
69902W        W36311  24.939  43.777  11.590
69903W        W36312  10.804  11.301   1.926
69904W        W36313  43.425  34.046   2.698
69905W        W36314  36.353  39.989  13.402
69906W        W36315  19.041   4.692  12.464
69907W        W36316  10.658   3.199   3.790
69908W        W36317   3.085  44.807   4.422
69909W        W36318  19.504   0.384   2.689
69910W        W36319  43.717   9.470  12.531
69911W        W36320  16.881  13.661  13.027
69912W        W36321  39.796  19.541   1.740
69913W        W36322  24.063  11.709   2.640
69914W        W36323   7.175  43.390  12.415
69915W        W36324  44.366  31.721  11.539
69916W        W36325  43.269  11.224  13.011
69917W        W36326   6.332  26.032  13.052
69918W        W36327  25.561  31.207   4.267
69919W        W36328  15.858  36.345   0.039
69920W        W36329  39.305  16.781   4.243
69921W        W36330   7.395  17.654  13.960
69922W        W36331  11.861  25.621  13.114
69923W        W36332  41.936  16.205   0.931
69924W        W36333  20.546  38.462  12.040
69925W        W36334  42.612  16.488   4.812
69926W        W36335  15.539  39.118   1.223
69927W        W36336   0.250  36.931  14.994
69928W        W36337  43.084  25.153  12.488
69929W        W36338  26.799  28.429  11.242
69930W        W36339  32.986  35.849  14.930
69931W        W36340  21.374  16.206  12.977
69932W        W36341   3.224  12.218  13.147
69933W        W36342   3.846  14.666  14.518
69934W        W36343  25.716  43.165   0.064
69935W        W36344  34.390  30.448   4.757
69936W        W36345  39.783  38.624  13.123
69937W        W36346  26.041   4.714   0.876
69938W        W36347  26.123  37.491   1.855
69939W        W36348  12.380  26.968   2.773
69940W        W36349  15.047  41.914  13.444
69941W        W36350   4.155  23.487  12.528
69942W        W36351  24.956   2.798  12.973
69943W        W36352  37.518  21.925   4.647
69944W        W36353  38.777  15.224  10.620
69945W        W36354  32.090  27.582   4.449
69946W        W36355  25.567  37.998   4.675
69947W        W36356  11.889   1.593  14.756
69948W        W36357   2.776  42.041  12.100
69949W        W36358  32.426  22.530   3.376
69950W        W36359  38.063  13.489   3.732
69951W        W36360  42.197  39.978   0.453
69952W        W36361   7.973  10.805  14.608
69953W        W36362  15.153  27.911   4.284
69954W        W36363  39.664  32.399  12.039
69955W        W36364  36.321  11.685  11.633
69956W        W36365  10.392  31.578  13.596
69957W        W36366  23.536  32.137   4.109
69958W        W36367  18.860  20.560  12.492
69959W        W36368  38.533  12.820   4.762
69960W        W36369  36.577  27.908  11.662
69961W        W36370  22.736   9.704  10.325
69962W        W36371  11.952  12.608  14.862
69963W        W36372  26.203  35.361   5.122
69964W        W36373  15.400  35.246   2.940
69965W        W36374   1.311  18.561   3.900
69966W        W36375  18.896  43.443  13.733
69967W        W36376   8.513  34.316   0.951
69968W        W36377  21.721  19.758   2.747
69969W        W36378   6.295  21.030   1.734
69970W        W36379  19.555   9.102  11.222
69971W        W36380   8.683  34.854   2.497
69972W        W36381  10.904  32.878   2.548
69973W        W36382  31.382  11.436  11.509
69974W        W36383  10.264  39.310   3.243
69975W        W36384   0.501  30.987  13.043
69976W        W36385  40.937  25.038  11.932
69977W        W36386  19.317   7.318  13.251
69978W        W36387   5.686  22.667   0.762
69979W        W36388   5.506  38.571  13.860
69980W        W36389  30.975  15.985   2.873
69981W        W36390   2.709  13.718  10.660
69982W        W36391  16.613   8.195  10.634
69983W        W36392  43.125   1.800  11.491
69984W        W36393  18.823  29.518   0.293
69985W        W36394  38.961  14.836  11.996
69986W        W36395   0.719  32.799  11.604
69987W        W36396  20.064  32.912  13.060
69988W        W36397  31.401  20.994  12.069
69989W        W36398  26.396  28.398   4.472
69990W        W36399  27.007  29.551   4.513
69991W        W36400  10.196   2.336   0.518
69992W        W36401  37.810   9.552   2.804
69993W        W36402  18.222  43.331  14.573
69994W        W36403  36.571   9.588  11.695
69995W        W36404  25.997  30.887  11.609
69996W        W36405   4.873  37.418   3.630
69997W        W36406  17.633   4.405   0.927
69998W        W36407  15.465   0.880   2.299
69999W        W36408  36.435   4.180  13.054
70000W        W36409  36.817  19.758   2.701
70001W        W36410   7.301  26.024  13.626
70002W        W36411   5.656  33.391   2.741
70003W        W36412  23.092  15.127  14.354
70004W        W36413   4.931  38.985   5.051
70005W        W36414   3.139  30.589   2.266
70006W        W36415  15.333  27.606  10.671
70007W        W36416  44.997  41.299  13.524
70008W        W36417  28.977   6.110   0.829
70009W        W36418  43.016  36.839  11.650
70010W        W36419  35.125  27.562   1.248
70011W        W36420   2.338  40.012  14.740
70012W        W36421  26.086   8.139  13.529
70013W        W36422  31.169  35.862   1.367
70014W        W36423  29.500  18.276   3.856
70015W        W36424  18.841  34.751   4.109
70016W        W36425  35.183  19.640   3.637
70017W        W36426  16.838  38.907  10.971
70018W        W36427  14.117  36.031  12.068
70019W        W36428  11.227  42.119  12.377
70020W        W36429  33.860   2.587  12.996
70021W        W36430  12.123  29.323   1.298
70022W        W36431  23.150  41.943  12.403
70023W        W36432  26.031  14.289   1.808
70024W        W36433  34.548  37.496   4.937
70025W        W36434   2.810  38.464   4.690
70026W        W36435  39.946  37.074  11.702
70027W        W36436  19.300   0.121   3.693
70028W        W36437  39.833   2.777   4.529
70029W        W36438  25.943   1.809   2.694
70030W        W36439  33.219  29.033   2.225
70031W        W36440  17.220  15.041  10.715
70032W        W36441  23.482  30.746   1.652
70033W        W36442  22.784   6.709   3.305
70034W        W36443  30.189  29.194   1.242
70035W        W36444  35.946  21.032  12.554
70036W        W36445  41.409  38.587  12.557
70037W        W36446  14.770  42.298   1.907
70038W        W36447  22.093  33.517   4.491
70039W        W36448  21.057  25.930  10.658
70040W        W36449  37.825   6.759  12.054
70041W        W36450  19.199  36.782   4.445
70042W        W36451  32.898  21.114  14.948
70043W        W36452  34.371  43.531   3.770
70044W        W36453   3.882  24.151   0.019
70045W        W36454  39.432  14.899   2.146
70046W        W36455  21.951  39.427  10.627
70047W        W36456  37.408  20.596  10.560
70048W        W36457   9.556  32.903   3.689
70049W        W36458  15.125  22.604   0.991
70050W        W36459   3.528  10.753  13.446
70051W        W36460  15.057  26.065  12.759
70052W        W36461   3.211   2.999  11.419
70053W        W36462  15.649  20.287   3.658
70054W        W36463  15.513   6.357  14.998
70055W        W36464  27.167   6.751   3.065
70056W        W36465  38.740   3.089   0.443
70057W        W36466  16.527  26.934   1.348
70058W        W36467  32.363   1.268   2.516
70059W        W36468  37.921  15.982   1.028
70060W        W36469   7.130  19.803   4.259
70061W        W36470  23.335  22.464   3.144
70062W        W36471   2.312  13.774   3.626
70063W        W36472  39.527  36.231  12.034
70064W        W36473  15.270   6.621   1.346
70065W        W36474  40.353   5.683  13.197
70066W        W36475  25.365   4.362   1.545
70067W        W36476   5.416  17.845  12.295
70068W        W36477  34.877   6.385  11.989
70069W        W36478   9.466  22.555  11.694
70070W        W36479  31.398  11.036  12.387
70071W        W36480  29.059  27.589   3.613
70072W        W36481  21.721   9.172   0.782
70073W        W36482  28.501  33.482  13.165
70074W        W36483  43.435  36.007   0.011
70075W        W36484  12.721   8.953   1.959
70076W        W36485  16.115  32.214   3.197
70077W        W36486  28.934  44.799  14.232
70078W        W36487   1.917  24.215  10.670
70079W        W36488  13.160  20.143   1.263
70080W        W36489  24.894   1.765  10.739
70081W        W36490  38.078  42.912  13.314
70082W        W36491   0.919  37.094   1.260
70083W        W36492  31.586  31.652   0.916
70084W        W36493  11.204   8.253  10.637
70085W        W36494  18.380   0.495   2.797
70086W        W36495   3.632   0.971  11.332
70087W        W36496   0.258  29.255  13.930
70088W        W36497  23.643  36.713   1.373
70089W        W36498   2.034  27.582   3.853
70090W        W36499  42.901  41.550   4.319
70091W        W36500  31.475  29.162  10.785
70092W        W36501  24.768  32.399   3.120
70093W        W36502  30.553  35.871   5.051
70094W        W36503  24.157  40.368   0.279
70095W        W36504  28.417  21.263  10.648
70096W        W36505  21.500  40.951  14.528
70097W        W36506  28.449  11.863  11.069
70098W        W36507   5.399  28.593  12.555
70099W        W36508   3.421  11.235  11.668
70100W        W36509   5.719  43.088  11.657
70101W        W36510  38.749  27.000   4.239
70102W        W36511  26.226  26.395  13.333
70103W        W36512   6.759   0.266   0.557
70104W        W36513  11.287  10.819   0.043
70105W        W36514  24.088  43.408  14.915
70106W        W36515  39.100  35.813   2.409
70107W        W36516   2.235  39.921  12.088
70108W        W36517  20.255   4.693   3.648
70109W        W36518  43.255  44.864  11.588
70110W        W36519  24.681  20.921  12.182
70111W        W36520   2.641  22.586  12.539
70112W        W36521  43.831   0.603   2.658
70113W        W36522  20.162  14.897   4.184
70114W        W36523  23.474  17.501  13.491
70115W        W36524  23.691  20.068  11.633
70116W        W36525   0.871  36.448   0.522
70117W        W36526   9.804   7.924   1.414
70118W        W36527  16.909  12.775  12.093
70119W        W36528  39.949  28.924   1.796
70120W        W36529  15.725   6.732   3.480
70121W        W36530   3.380  20.526   0.285
70122W        W36531  39.946   2.109  13.949
70123W        W36532  42.308  21.442  14.910
70124W        W36533  11.667  12.452   0.288
70125W        W36534  44.775  26.140  10.411
70126W        W36535  41.512   4.947   0.438
70127W        W36536   1.777  21.804  14.522
70128W        W36537  23.118   1.762  10.372
70129W        W36538   4.940   2.795   2.787
70130W        W36539  17.638  38.643  11.584
70131W        W36540  33.190  17.719   2.309
70132W        W36541   9.201  30.005  11.726
70133W        W36542   3.317  34.839  12.015
70134W        W36543  10.949  15.016  12.994
70135W        W36544  16.442  39.242  10.839
70136W        W36545   1.817  41.601  13.674
70137W        W36546  39.143  29.303   0.545
70138W        W36547  43.295  29.149   1.324
70139W        W36548  13.106  33.699  12.350
70140W        W36549  44.506  24.022   3.669
70141W        W36550  40.383  14.682  12.445
70142W        W36551   9.321  43.164  11.205
70143W        W36552  18.789  10.489  13.684
70144W        W36553  41.152  17.044   2.777
70145W        W36554  28.405  35.610  12.037
70146W        W36555  15.095  15.039  12.383
70147W        W36556  20.523  39.515  11.154
70148W        W36557  19.375   4.973   3.747
70149W        W36558  25.469  23.154   0.329
70150W        W36559  25.965  28.648   3.719
70151W        W36560  20.618  18.752  10.396
70152W        W36561  26.308  29.589   2.159
70153W        W36562   8.665  21.145   0.294
70154W        W36563  34.051   3.686   3.719
70155W        W36564  26.121  15.444  12.396
70156W        W36565  18.043  44.767  14.181
70157W        W36566  37.565  31.236   2.697
70158W        W36567  18.081  39.962  11.509
70159W        W36568  13.669   5.763  10.703
70160W        W36569  37.918  22.953  13.795
70161W        W36570  15.358  34.102   0.267
70162W        W36571  28.771  31.520   4.603
70163W        W36572  27.035  35.924  12.998
70164W        W36573  22.228   6.325   2.568
70165W        W36574  42.425   0.499  11.413
70166W        W36575  14.211  39.308   1.262
70167W        W36576  41.001   5.797  10.653
70168W        W36577  13.747  30.124   4.467
70169W        W36578  22.295  29.635   0.267
70170W        W36579   9.334  31.491   1.726
70171W        W36580  15.142  40.825   0.059
70172W        W36581  30.556  36.507  10.856
70173W        W36582   4.843  31.676  11.542
70174W        W36583  41.228  27.271  11.857
70175W        W36584   4.535  37.999  14.004
70176W        W36585   4.412  20.300   3.340
70177W        W36586  17.797  31.948  14.795
70178W        W36587  26.806  37.797   0.496
70179W        W36588  20.715  38.115  13.524
70180W        W36589   7.813  20.763   2.314
70181W        W36590  31.993  18.509   4.379
70182W        W36591  16.884   0.755  10.654
70183W        W36592  29.374  41.100  10.427
70184W        W36593  16.617  44.739   2.812
70185W        W36594  14.632  13.739   2.620
70186W        W36595   4.795  32.435  12.678
70187W        W36596  20.041  31.458  11.754
70188W        W36597   5.307   7.943  14.389
70189W        W36598  14.105  36.346   0.236
70190W        W36599   7.795  27.104  12.082
70191W        W36600  22.663  37.567   5.074
70192W        W36601   6.489   3.272  12.299
70193W        W36602  17.613   8.066   4.193
70194W        W36603  19.723  40.655   0.867
70195W        W36604   4.147  12.133  13.533
70196W        W36605  41.148  39.111   1.651
70197W        W36606  33.939  15.511  12.916
70198W        W36607  29.348  32.571  14.090
70199W        W36608  10.749   1.279   1.293
70200W        W36609   0.252  18.729  14.394
70201W        W36610   8.307   2.026  10.747
70202W        W36611  22.484  43.351   2.244
70203W        W36612  17.129  14.556   4.575
70204W        W36613  41.288  16.037   0.327
70205W        W36614  26.970  33.473   0.949
70206W        W36615  43.522  39.178  11.937
70207W        W36616  29.508  12.232   4.829
70208W        W36617   5.262   0.774   1.235
70209W        W36618  44.675  43.786  12.005
70210W        W36619  44.426  21.196   4.789
70211W        W36620  40.630   5.868   2.108
70212W        W36621  12.776  11.691  12.466
70213W        W36622  17.749  20.837  11.263
70214W        W36623  41.568  23.146  11.259
70215W        W36624  15.805   4.109   1.400
70216W        W36625  26.486  26.970  14.066
70217W        W36626  40.447  32.296   3.990
70218W        W36627  41.015  17.597   2.153
70219W        W36628  30.054   7.894  13.105
70220W        W36629   3.192   8.471  11.794
70221W        W36630  36.918  33.337  12.534
70222W        W36631  17.289  15.553   2.616
70223W        W36632  28.179  32.940   4.573
70224W        W36633  10.405  12.019  11.154
70225W        W36634  42.376  35.128   2.286
70226W        W36635  35.384  40.414   2.431
70227W        W36636   9.430  31.996   1.870
70228W        W36637   4.491  33.422   3.085
70229W        W36638  16.917  41.716   2.254
70230W        W36639  27.644  33.940   4.832
70231W        W36640  37.841  26.161   3.940
70232W        W36641  22.649  11.364  12.449
70233W        W36642   4.246  34.988  12.431
70234W        W36643  42.827  25.177   0.757
70235W        W36644  23.591  16.226  13.381
70236W        W36645  34.978  35.620   4.290
70237W        W36646  16.566  32.646   1.474
70238W        W36647  42.078   9.875   1.870
70239W        W36648   4.891  44.718  12.378
70240W        W36649  19.784  26.614   1.926
70241W        W36650  37.493  37.798  13.469
70242W        W36651  41.660  22.594   1.983
70243W        W36652  15.486  38.606   1.314
70244W        W36653  29.131   0.298  13.669
70245W        W36654  42.478  36.084  11.707
70246W        W36655  20.229  28.094   2.653
70247W        W36656  20.471  11.951  11.059
70248W        W36657  30.868   5.731  12.204
70249W        W36658  25.151  29.590  14.455
70250W        W36659   7.057  29.519  10.397
70251W        W36660  20.327   8.252   3.631
70252W        W36661  29.996  20.107  12.210
70253W        W36662  33.393   1.285  14.980
70254W        W36663  25.964  41.497  13.252
70255W        W36664   4.993  31.705   3.652
70256W        W36665  16.256  25.116  13.458
70257W        W36666  32.079  24.240   2.582
70258W        W36667  22.572  37.564  13.074
70259W        W36668  11.756  37.165   0.887
70260W        W36669   9.244  24.089   3.826
70261W        W36670   3.776  12.776   0.076
70262W        W36671   1.814   5.510  13.494
70263W        W36672   6.183   2.286   2.875
70264W        W36673   4.665  16.254  13.356
70265W        W36674  17.753  21.684   2.374
70266W        W36675  18.785   3.421  13.540
70267W        W36676  29.058  29.602  11.828
70268W        W36677  42.132  29.635  11.224
70269W        W36678   8.686  35.395   1.211
70270W        W36679  31.081   8.369  13.619
70271W        W36680  27.483  19.597   4.598
70272W        W36681  25.782  16.756  12.938
70273W        W36682   3.417  35.199   4.166
70274W        W36683  11.730  19.399   0.842
70275W        W36684  40.954  24.719  13.552
70276W        W36685   9.634   3.275   4.706
70277W        W36686  41.915  36.085  10.639
70278W        W36687  43.496   7.167   2.366
70279W        W36688  19.181  17.168  14.411
70280W        W36689  20.739  29.970   1.821
70281W        W36690  18.034  44.012   1.355
70282W        W36691   0.453   4.415   3.866
70283W        W36692  32.147  13.690   3.363
70284W        W36693  39.584  12.019  13.853
70285W        W36694  29.012  25.634  14.359
70286W        W36695  30.449  37.288   0.320
70287W        W36696  30.670  36.005   1.286
70288W        W36697   7.122   1.915   4.095
70289W        W36698  40.432  29.114   1.773
70290W        W36699  32.023  21.288   4.712
70291W        W36700  16.124  22.733  12.094
70292W        W36701  23.895   5.315   1.293
70293W        W36702  10.875  26.514   4.572
70294W        W36703  14.993  30.627  13.964
70295W        W36704   4.684  25.444   0.499
70296W        W36705  30.449  17.162   1.184
70297W        W36706  25.749  39.291  14.875
70298W        W36707  43.503  19.086   0.359
70299W        W36708   8.385  32.617   3.681
70300W        W36709  10.725  33.368   0.411
70301W        W36710  31.976  15.131  13.595
70302W        W36711   4.519  25.254  11.585
70303W        W36712  23.190  27.168   4.708
70304W        W36713  29.570  28.400   2.119
70305W        W36714  19.971  10.392   0.243
70306W        W36715  28.945   0.801   1.622
70307W        W36716  42.942  36.609   0.403
70308W        W36717  31.999  37.000   2.472
70309W        W36718  11.756  43.814   4.132
70310W        W36719  21.023  24.599  14.821
70311W        W36720  44.803  15.569   2.598
70312W        W36721  23.060  20.473  13.062
70313W        W36722   2.859   6.214   3.331
70314W        W36723   9.663  42.425   3.768
70315W        W36724  26.998  38.095  14.365
70316W        W36725  35.101  41.023  12.880
70317W        W36726  34.493  20.050  14.901
70318W        W36727   9.361  28.187  14.951
70319W        W36728   7.813   7.255  12.088
70320W        W36729  40.538  10.267  14.249
70321W        W36730  40.084  43.792  14.671
70322W        W36731  44.957   1.071   0.412
70323W        W36732  43.251  13.219  14.096
70324W        W36733  31.975  27.574   3.225
70325W        W36734  10.871  27.565   0.724
70326W        W36735   9.324   1.392   3.513
70327W        W36736  25.058  28.276   2.330
70328W        W36737  35.887   2.879   0.003
70329W        W36738  33.283   1.749  14.239
70330W        W36739  12.194  13.128  11.115
70331W        W36740  12.144  39.079  10.961
70332W        W36741  32.954  30.915   3.207
70333W        W36742   1.700  22.215   3.077
70334W        W36743  35.929  24.575   1.663
70335W        W36744  41.484  41.976  11.254
70336W        W36745  28.358   2.315  12.395
70337W        W36746  39.563  35.417  10.599
70338W        W36747  30.565  25.619  12.639
70339W        W36748  33.145  18.696   4.199
70340W        W36749   3.830   6.217  12.058
70341W        W36750   8.899  22.676   4.116
70342W        W36751  31.989  26.005   2.310
70343W        W36752  42.772   2.691   3.134
70344W        W36753  36.488  13.756   3.624
70345W        W36754  36.939  26.509   1.405
70346W        W36755  17.768  43.233  11.982
70347W        W36756  43.425   4.829  14.224
70348W        W36757  40.421  44.722  11.219
70349W        W36758   5.901  29.470  12.951
70350W        W36759  21.824  14.433  12.617
70351W        W36760  29.678  24.199  13.959
70352W        W36761  38.627   0.361  12.515
70353W        W36762   0.534  30.125  13.071
70354W        W36763   6.270  28.129  11.165
70355W        W36764  20.059  20.802  11.966
70356W        W36765  14.087  20.943  12.120
70357W        W36766  20.072  19.983   0.932
70358W        W36767  15.922  38.962   3.739
70359W        W36768  31.734  22.211  14.356
70360W        W36769   0.462   9.399   1.520
70361W        W36770  10.692   6.512   0.044
70362W        W36771   1.759   5.900   3.534
70363W        W36772  26.639  32.927  11.925
70364W        W36773   3.011  29.803  13.589
70365W        W36774  38.539  11.574   0.546
70366W        W36775  33.852  36.335   3.780
70367W        W36776   1.747  11.949  11.132
70368W        W36777  44.838  40.504   0.310
70369W        W36778   8.422  38.030   1.868
70370W        W36779  12.722  28.589   1.506
70371W        W36780  26.130  21.471  14.368
70372W        W36781   8.032  11.822   4.090
70373W        W36782  28.469  28.598  14.671
70374W        W36783  29.847  42.887  11.573
70375W        W36784   2.664   0.433  13.826
70376W        W36785  18.684   6.621  11.795
70377W        W36786  18.153  33.741   4.085
70378W        W36787  28.946   0.354  12.457
70379W        W36788  23.554  25.267  14.534
70380W        W36789  11.655   0.695   1.402
70381W        W36790  38.481   2.732  12.095
70382W        W36791  26.862  29.430  12.763
70383W        W36792   5.199  26.593   1.003
70384W        W36793   8.633   9.859   1.878
70385W        W36794  17.563  42.204  12.966
70386W        W36795  34.338  40.400   0.264
70387W        W36796  34.682  30.645   2.152
70388W        W36797  18.195  14.427   0.920
70389W        W36798  14.985  11.784   0.906
70390W        W36799  13.111  32.416  11.578
70391W        W36800  33.915  15.158   0.230
70392W        W36801  34.434  28.665  13.401
70393W        W36802  41.049  33.479   3.608
70394W        W36803   3.135   2.164  12.076
70395W        W36804  30.882   8.786  11.502
70396W        W36805  21.633  39.287   2.780
70397W        W36806  13.313   3.018  11.199
70398W        W36807  35.657  15.694  12.371
70399W        W36808  25.018   9.380  14.189
70400W        W36809  33.115   2.517   0.278
70401W        W36810  40.645  26.204   4.924
70402W        W36811   2.806  27.902  14.808
70403W        W36812  41.870  38.617   3.618
70404W        W36813  25.698  13.163  13.519
70405W        W36814  36.514  39.016   2.626
70406W        W36815  16.287  22.173   1.133
70407W        W36816  21.627  12.914  12.883
70408W        W36817  18.200  27.441   0.024
70409W        W36818  13.251  14.807   1.394
70410W        W36819  19.191  33.493  13.414
70411W        W36820  36.993  25.105   2.447
70412W        W36821  38.460  24.351   0.939
70413W        W36822   2.877   9.059  14.117
70414W        W36823  10.772  14.673   3.088
70415W        W36824  13.112  20.075   0.337
70416W        W36825   7.345  12.336  13.787
70417W        W36826  20.427  34.370   1.953
70418W        W36827   5.319  41.874   1.388
70419W        W36828  13.391  36.596   0.114
70420W        W36829  24.642   7.922  11.546
70421W        W36830  31.426  30.147   1.895
70422W        W36831  25.988   3.849  11.718
70423W        W36832  15.750   6.357  10.784
70424W        W36833  28.687  43.749   4.505
70425W        W36834  10.944  15.187  12.022
70426W        W36835   2.801  40.838   4.250
70427W        W36836  19.353  20.288   4.634
70428W        W36837  23.440  42.372   4.685
70429W        W36838  14.258  26.416  13.806
70430W        W36839  24.091  10.712   1.475
70431W        W36840  23.005  42.531   4.880
70432W        W36841  15.297  11.856   3.221
70433W        W36842  17.424   0.932   3.566
70434W        W36843   5.923  17.277  11.676
70435W        W36844   7.347  33.431  13.157
70436W        W36845  26.414  39.864  11.539
70437W        W36846  12.826  36.119   4.988
70438W        W36847  43.001  31.369  14.838
70439W        W36848   5.034  26.427  14.824
70440W        W36849  15.598  23.292  14.458
70441W        W36850  38.544  37.898   2.298
70442W        W36851  25.922  32.367  11.586
70443W        W36852  34.117   2.445  11.656
70444W        W36853  44.929   0.346   1.885
70445W        W36854   6.190  33.882   1.918
70446W        W36855  41.628  23.422   1.769
70447W        W36856  43.331   7.524  13.966
70448W        W36857  40.828  27.113  13.255
70449W        W36858   2.846  14.803   0.288
70450W        W36859  31.891  21.124   3.779
70451W        W36860  20.310   5.073  11.197
70452W        W36861   9.289  20.671   1.539
70453W        W36862   6.272  22.356   9.848
70454W        W36863   3.359  29.064   4.625
70455W        W36864  16.695  41.805   4.584
70456W        W36865  27.434  27.083   0.397
70457W        W36866   2.718  20.185   3.638
70458W        W36867  21.027  15.712   2.209
70459W        W36868  23.675   9.098   1.356
70460W        W36869  14.812  35.047   0.322
70461W        W36870  42.857  15.806   2.681
70462W        W36871  28.388  40.515   3.787
70463W        W36872  34.178  38.485  13.873
70464W        W36873  14.670  29.442  13.951
70465W        W36874  23.433  28.606  13.791
70466W        W36875  31.230  31.154  12.866
70467W        W36876  35.595  41.873   2.030
70468W        W36877   7.860   4.286   3.256
70469W        W36878  44.387   1.465  10.933
70470W        W36879  32.007   0.857   2.658
70471W        W36880  15.702   6.268   4.251
70472W        W36881  33.639   5.301  12.465
70473W        W36882  25.259  43.164   5.111
70474W        W36883  10.406  18.730  10.950
70475W        W36884  27.138   3.082   4.291
70476W        W36885  33.516  19.143   3.532
70477W        W36886  33.551  26.810   1.869
70478W        W36887  40.874   2.524   2.787
70479W        W36888  27.646  44.874  14.267
70480W        W36889  26.798  37.316  10.239
70481W        W36890   0.885  42.324   2.254
70482W        W36891  39.316   3.510   3.165
70483W        W36892  20.789  10.797  11.065
70484W        W36893   8.906  34.663   1.742
70485W        W36894  43.147  38.430  14.894
70486W        W36895  24.162  23.835  12.921
70487W        W36896   1.719  16.477   0.989
70488W        W36897  28.564  42.936   0.978
70489W        W36898   7.046  44.104  14.029
70490W        W36899  19.020  10.087   4.696
70491W        W36900  32.186  42.829   4.172
70492W        W36901  38.542   9.389   0.329
70493W        W36902  41.025  31.570  14.408
70494W        W36903  10.415   3.692   4.027
70495W        W36904  23.610  42.461   0.919
70496W        W36905  44.539   2.866   1.187
70497W        W36906  26.772   0.723   0.264
70498W        W36907   3.905  32.361   1.768
70499W        W36908   3.679  26.866   2.384
70500W        W36909  23.953  39.577  13.327
70501W        W36910  33.343   1.269   1.450
70502W        W36911  32.624   6.932  13.264
70503W        W36912  25.765  28.705  14.364
70504W        W36913  22.223  18.975   1.463
70505W        W36914  44.986  25.553   0.955
70506W        W36915  26.047  18.351  11.016
70507W        W36916  15.714  22.970   2.166
70508W        W36917  22.022  35.539   0.769
70509W        W36918  41.767  16.210  14.481
70510W        W36919   5.399   4.205   4.596
70511W        W36920  36.649  12.804  12.038
70512W        W36921   0.161  39.674   4.181
70513W        W36922  41.188  23.578  11.217
70514W        W36923  40.856  27.917   0.891
70515W        W36924  28.386  36.955  14.434
70516W        W36925  19.233  27.166   4.018
70517W        W36926   8.788  34.660   3.209
70518W        W36927  10.185  23.807   1.068
70519W        W36928  14.165  14.443   3.713
70520W        W36929  38.077  39.511   0.807
70521W        W36930  25.135  20.567  11.418
70522W        W36931  30.619  21.486   3.114
70523W        W36932  32.249  44.061   4.595
70524W        W36933  16.866  29.995  12.943
70525W        W36934   1.757  13.180   2.909
70526W        W36935   4.406   5.435   3.003
70527W        W36936  41.357  25.443   3.227
70528W        W36937  35.425   7.804   1.290
70529W        W36938   8.129   5.530   3.304
70530W        W36939   7.168  44.987   1.712
70531W        W36940  23.965  42.096  12.507
70532W        W36941  25.083   2.699   0.737
70533W        W36942   8.366   1.358  12.947
70534W        W36943   2.197  42.305  11.875
70535W        W36944  12.514  43.100  13.088
70536W        W36945   6.110  44.890   3.619
70537W        W36946   6.171  37.163  11.031
70538W        W36947  29.433  19.945  13.882
70539W        W36948  13.087   9.193   4.036
70540W        W36949  37.022   4.320  14.079
70541W        W36950  29.639   8.221  11.427
70542W        W36951  33.602  25.815   3.003
70543W        W36952  10.442   5.491   0.840
70544W        W36953   3.876  16.592  14.967
70545W        W36954  26.037  44.847   4.512
70546W        W36955  38.177  37.852  10.816
70547W        W36956  16.718   5.640  14.238
70548W        W36957  24.070  35.167   0.690
70549W        W36958  20.232  11.888   0.506
70550W        W36959  16.372   1.166   1.214
70551W        W36960  14.253  35.976  10.365
70552W        W36961   0.758   5.797   3.582
70553W        W36962  14.026   7.976   0.967
70554W        W36963  26.172  41.609  10.616
70555W        W36964  41.678  43.823   1.204
70556W        W36965  34.572  14.830   0.129
70557W        W36966   3.384  22.959  12.474
70558W        W36967  22.731  38.515   4.635
70559W        W36968  31.956  17.183  12.785
70560W        W36969   4.055  39.805  10.320
70561W        W36970  13.394  38.070   2.969
70562W        W36971  14.811  41.965   0.340
70563W        W36972  15.168  28.947   0.175
70564W        W36973  35.510   9.524   2.499
70565W        W36974  10.493  35.127  11.128
70566W        W36975  36.881  24.727  11.227
70567W        W36976  29.087  21.025  14.346
70568W        W36977  28.498  28.132   3.614
70569W        W36978  36.575  27.152   3.222
70570W        W36979  40.432  11.434  11.036
70571W        W36980  43.613  27.127  13.318
70572W        W36981  30.559  28.687  13.846
70573W        W36982  26.036  24.828   0.885
70574W        W36983   3.137   0.028   2.275
70575W        W36984  34.912   2.502  13.500
70576W        W36985  29.991   1.436   3.666
70577W        W36986  31.642  17.775  12.432
70578W        W36987  26.841  27.080  14.445
70579W        W36988  23.321  43.737   3.181
70580W        W36989  38.125  42.169  14.960
70581W        W36990  44.869  12.436  13.863
70582W        W36991  25.485  40.987   3.204
70583W        W36992  38.545  31.322  10.702
70584W        W36993  32.118   0.715  10.523
70585W        W36994  24.570  20.522  13.081
70586W        W36995   1.579  10.186  11.527
70587W        W36996   5.278  21.301  10.715
70588W        W36997  16.985  18.523  12.977
70589W        W36998  19.673  12.247   4.092
70590W        W36999  13.053  36.362   1.696
70591W        W37000   4.737  22.024   4.475
70592W        W37001  23.969   0.144  11.222
70593W        W37002   2.677  34.010   1.615
70594W        W37003  37.413  12.259  14.826
70595W        W37004  15.204  25.479  13.371
70596W        W37005  19.534  16.812   1.291
70597W        W37006  10.797  41.769  11.314
70598W        W37007  14.884  10.679  11.157
70599W        W37008  44.920  12.693   0.425
70600W        W37009  15.566  31.662   3.696
70601W        W37010  43.680  43.039  11.879
70602W        W37011  22.792  31.834  13.900
70603W        W37012  24.114   5.931  11.642
70604W        W37013  23.701  21.242  14.513
70605W        W37014  33.083  24.080  12.696
70606W        W37015   7.740  40.058   1.965
70607W        W37016  40.750  23.295   0.487
70608W        W37017   4.858  30.780  13.305
70609W        W37018  17.709  38.900  12.782
70610W        W37019  41.296  12.704  13.444
70611W        W37020  13.023  29.162   3.248
70612W        W37021   3.230  31.483   1.488
70613W        W37022  44.417   1.248   2.730
70614W        W37023  14.261  43.562   0.837
70615W        W37024   8.041   5.159   4.419
70616W        W37025  12.104  41.414   3.717
70617W        W37026  16.795  22.616   3.117
70618W        W37027  21.626  36.435   2.300
70619W        W37028  35.366  20.480   1.607
70620W        W37029  40.390  19.705   3.833
70621W        W37030  19.997  22.745   1.149
70622W        W37031  10.977  32.109   2.007
70623W        W37032  13.236  35.502   5.130
70624W        W37033  12.986  22.303   5.001
70625W        W37034  20.423  30.856  12.444
70626W        W37035  32.540   6.993   0.460
70627W        W37036  23.776  39.013  10.500
70628W        W37037  25.216  29.916  11.113
70629W        W37038  32.943  21.999   2.668
70630W        W37039   2.776   6.156  14.478
70631W        W37040  35.923   8.429  12.920
70632W        W37041  36.594  21.111  10.442
70633W        W37042  13.335  21.449  14.502
70634W        W37043  20.799  18.551  13.539
70635W        W37044   2.196   9.663  13.458
70636W        W37045  39.393   7.378   2.621
70637W        W37046   1.033   4.969  11.580
70638W        W37047  11.339  21.170  14.850
70639W        W37048  17.323   5.000   0.805
70640W        W37049   8.607  24.750   2.326
70641W        W37050  23.193  39.167  13.642
70642W        W37051  27.230   6.609  14.560
70643W        W37052   9.178  21.141  13.530
70644W        W37053   8.173  25.076  11.814
70645W        W37054  35.131  15.188   2.512
70646W        W37055   0.745  21.014  14.923
70647W        W37056  29.125   7.590  14.893
70648W        W37057  21.817  17.689  14.822
70649W        W37058  31.056  21.370  10.235
70650W        W37059  33.624  19.566   3.819
70651W        W37060  29.219  41.468   2.825
70652W        W37061  30.461  28.058  10.707
70653W        W37062  29.340  12.633  14.849
70654W        W37063  12.174  35.520  13.962
70655W        W37064  18.742  33.872  14.889
70656W        W37065   2.646   4.905  10.679
70657W        W37066   1.704  44.540   3.721
70658W        W37067  41.498  38.292   3.301
70659W        W37068  38.359  11.209  11.528
70660W        W37069  40.941   1.283   4.532
70661W        W37070  28.329   3.993  14.606
70662W        W37071  21.071  10.222  12.905
70663W        W37072  44.975  36.168   4.143
70664W        W37073  41.833  42.933  14.704
70665W        W37074  23.849  43.172   3.823
70666W        W37075  38.930  38.099  14.452
70667W        W37076   2.178  33.739  11.206
70668W        W37077  26.130  42.581   1.948
70669W        W37078  15.659   4.922   2.338
70670W        W37079  37.340  20.510  14.448
70671W        W37080  25.317  40.839  13.626
70672W        W37081  14.816  31.198   0.467
70673W        W37082  22.562  16.282  11.230
70674W        W37083  18.710  28.024  12.307
70675W        W37084  28.636  31.133   1.738
70676W        W37085  37.648  10.371  13.860
70677W        W37086  24.029  25.024  12.468
70678W        W37087  42.937  37.350  11.675
70679W        W37088  31.506  17.740   4.186
70680W        W37089  27.604  26.564  11.926
70681W        W37090  24.363  24.026  12.171
70682W        W37091  27.543  28.942  12.259
70683W        W37092   0.480   5.482   0.960
70684W        W37093  16.126  23.403   4.185
70685W        W37094  21.781   8.905   0.314
70686W        W37095  17.199  32.906  14.328
70687W        W37096  29.444   0.553  13.361
70688W        W37097   1.243   2.104   3.216
70689W        W37098  13.164  31.758  10.208
70690W        W37099  36.575  22.585  11.986
70691W        W37100  14.084  27.619   3.292
70692W        W37101  42.897  31.494   2.816
70693W        W37102  25.720   7.832  14.493
70694W        W37103   5.854  16.569   2.686
70695W        W37104  20.279  18.130   2.965
70696W        W37105  28.667   1.739   4.062
70697W        W37106  22.318  14.138  14.479
70698W        W37107   3.289   0.875   1.133
70699W        W37108  22.739  19.707  14.386
70700W        W37109   2.473  28.449  11.033
70701W        W37110  32.681  14.726   1.400
70702W        W37111  32.431  36.450  14.442
70703W        W37112  44.192  42.449   0.791
70704W        W37113   8.728   8.624  12.066
70705W        W37114  43.591  21.274  13.097
70706W        W37115  15.469   1.718  12.689
70707W        W37116  28.102  22.379  10.662
70708W        W37117  34.546  16.689   0.734
70709W        W37118  19.939  16.107   2.102
70710W        W37119  39.619  37.156  12.114
70711W        W37120   5.332  29.018   4.660
70712W        W37121  14.411  22.175  14.887
70713W        W37122  40.755  43.047   3.802
70714W        W37123  37.387   4.233  12.527
70715W        W37124  16.761  40.047  11.077
70716W        W37125   8.941  16.976  14.842
70717W        W37126  40.626  30.917   4.156
70718W        W37127  20.777  43.319  11.588
70719W        W37128  21.203  10.258   4.614
70720W        W37129  14.243   9.680   3.699
70721W        W37130   1.682   9.275   1.754
70722W        W37131  24.899  33.536  11.901
70723W        W37132  18.184  20.185  12.036
70724W        W37133   8.223  29.585   4.517
70725W        W37134  21.241  18.985  14.990
70726W        W37135  42.926   0.392   0.660
70727W        W37136  33.912  16.131   3.159
70728W        W37137  14.170  11.816  12.862
70729W        W37138  22.062  33.807   2.840
70730W        W37139   1.657  23.340   0.839
70731W        W37140  16.212  32.442   2.437
70732W        W37141  20.848   9.159  14.038
70733W        W37142  39.759  33.018   3.176
70734W        W37143  42.556   7.007  10.711
70735W        W37144  30.705  28.298  11.120
70736W        W37145  36.956  33.939   1.412
70737W        W37146  33.437   8.711   3.469
70738W        W37147  30.727  14.710   2.856
70739W        W37148   3.964  17.495  10.758
70740W        W37149  15.501  44.108  10.231
70741W        W37150  13.251  15.322   1.235
70742W        W37151   5.328  11.746  10.685
70743W        W37152  22.377   2.421  14.607
70744W        W37153  21.692  33.093  11.559
70745W        W37154  33.849  24.494   2.570
70746W        W37155  44.753  15.607   0.733
70747W        W37156  39.221  18.716   2.727
70748W        W37157  40.163  24.181  11.418
70749W        W37158  44.348  41.494  11.723
70750W        W37159  12.397  31.143  12.458
70751W        W37160  10.868  19.530  10.696
70752W        W37161  20.844  36.593  13.151
70753W        W37162  32.962  44.319   4.556
70754W        W37163  37.060  32.268   1.140
70755W        W37164  42.950   3.517  11.078
70756W        W37165  32.942  25.098  11.846
70757W        W37166  22.999  39.959   0.873
70758W        W37167  34.932   7.742  10.791
70759W        W37168   2.745  22.705  13.761
70760W        W37169  12.210  32.182   2.148
70761W        W37170  26.986  10.241  10.743
70762W        W37171  18.630   8.822   1.244
70763W        W37172  41.051  40.906   1.911
70764W        W37173   7.866  35.336  14.753
70765W        W37174  18.059  29.599   4.631
70766W        W37175  14.210  16.171   0.002
70767W        W37176  40.931  14.531  13.928
70768W        W37177  17.676  24.746   5.081
70769W        W37178  26.841  32.257  11.128
70770W        W37179  26.549  23.530   3.316
70771W        W37180  37.556  26.908   4.547
70772W        W37181  16.612  20.746  11.899
70773W        W37182  17.694   1.564   2.340
70774W        W37183   2.166   5.755   0.006
70775W        W37184  35.891   3.878  14.742
70776W        W37185  20.877  36.497  14.241
70777W        W37186  15.879  13.215   4.723
70778W        W37187  30.924   0.204  11.625
70779W        W37188  12.261  20.123  12.823
70780W        W37189   0.322  37.465  13.399
70781W        W37190   5.402  41.855   2.742
70782W        W37191  22.238  25.022   4.557
70783W        W37192  29.450  24.659  13.971
70784W        W37193  22.282  11.029  12.610
70785W        W37194  10.050   6.236   1.649
70786W        W37195  30.559  24.229  13.924
70787W        W37196  35.437  24.503   1.803
70788W        W37197  23.056  19.141  13.202
70789W        W37198   3.115   9.706   3.305
70790W        W37199  17.293  33.538   3.045
70791W        W37200   7.076  40.413   2.038
70792W        W37201   6.724  32.995  10.700
70793W        W37202   1.665   8.190   0.373
70794W        W37203  39.988   2.862  11.526
70795W        W37204  35.982  14.237   1.261
70796W        W37205  18.336  19.527  10.313
70797W        W37206   8.761   1.639  11.901
70798W        W37207  28.980  33.859   2.123
70799W        W37208  36.462  29.524  14.100
70800W        W37209  17.287  40.962   3.868
70801W        W37210  33.580   9.280  13.907
70802W        W37211  42.754  36.099   4.649
70803W        W37212  27.980  38.546   2.302
70804W        W37213  34.966  38.037   3.943
70805W        W37214  17.065  24.627  12.355
70806W        W37215   6.666  24.685  13.789
70807W        W37216  27.083  22.319  12.971
70808W        W37217  42.796  40.461   3.390
70809W        W37218   6.945  28.597  13.297
70810W        W37219  13.417  15.553   0.325
70811W        W37220  33.055  35.145  11.546
70812W        W37221  42.757  39.351  14.410
70813W        W37222   0.336  44.443  11.005
70814W        W37223  34.040  25.605  11.123
70815W        W37224  36.357  23.189  14.785
70816W        W37225  22.813   2.722   0.883
70817W        W37226  17.866   5.644   1.168
70818W        W37227  16.296   6.264   2.044
70819W        W37228   0.850   3.045  11.560
70820W        W37229   2.394  19.097  12.307
70821W        W37230  28.742  16.227  13.824
70822W        W37231   3.818  36.580   3.280
70823W        W37232  16.601  44.934   0.859
70824W        W37233  18.322  33.013  10.649
70825W        W37234  25.986   4.640   1.841
70826W        W37235  43.496  40.865   3.912
70827W        W37236  42.459  10.681   3.580
70828W        W37237  24.049  35.799  10.334
70829W        W37238  10.219  14.175  12.147
70830W        W37239  18.213   9.276  11.447
70831W        W37240  42.279  33.250  11.645
70832W        W37241  24.479  23.808  13.815
70833W        W37242  34.861  24.992  12.866
70834W        W37243   4.433  42.284   3.286
70835W        W37244  36.101  11.432   2.650
70836W        W37245   1.327  44.338  10.883
70837W        W37246  40.448   8.527  14.833
70838W        W37247   6.847  42.352   3.287
70839W        W37248  15.613   8.157  10.714
70840W        W37249  24.817  19.576  10.528
70841W        W37250  16.542   5.949   4.306
70842W        W37251  32.390  30.010   3.302
70843W        W37252   8.688  21.276   4.731
70844W        W37253  19.250  28.141   3.701
70845W        W37254  31.153  13.892   0.926
70846W        W37255  19.338  43.776  11.664
70847W        W37256   5.655  24.224  14.837
70848W        W37257  18.654  28.610  13.173
70849W        W37258  11.928  40.368  12.037
70850W        W37259  33.945  21.679  11.203
70851W        W37260  13.166  14.299  11.462
70852W        W37261  43.071  14.076   4.120
70853W        W37262   6.608   8.237  12.848
70854W        W37263  37.520  26.943   0.275
70855W        W37264  38.763   2.879   0.920
70856W        W37265   5.905  32.541   1.814
70857W        W37266  11.292  24.109  10.966
70858W        W37267   9.240  30.040  10.498
70859W        W37268   6.174  28.161   0.165
70860W        W37269   8.596  44.456  12.017
70861W        W37270  26.596  29.618  11.180
70862W        W37271  29.069  30.671  12.094
70863W        W37272  27.183   1.130  11.678
70864W        W37273   1.085   3.342   4.513
70865W        W37274  28.179  18.668   2.595
70866W        W37275  38.961  28.674   0.939
70867W        W37276  33.335  37.292   5.050
70868W        W37277  38.317  11.497  13.849
70869W        W37278   3.353  37.577  11.130
70870W        W37279  19.219  19.530   3.731
70871W        W37280  28.658  11.717   0.083
70872W        W37281  42.982  12.280   3.414
70873W        W37282  11.049  27.395   4.011
70874W        W37283  41.357  31.728  11.151
70875W        W37284  39.267  35.452   1.609
70876W        W37285  25.546  40.310   0.086
70877W        W37286  37.433  19.995   4.267
70878W        W37287  31.125  29.653   4.496
70879W        W37288   4.398  30.150   0.237
70880W        W37289  24.615  28.345   3.370
70881W        W37290  25.336  18.057   5.019
70882W        W37291  24.462  23.715  14.323
70883W        W37292  36.056   1.935  10.735
70884W        W37293   5.146  11.136   3.355
70885W        W37294   1.018   1.497   0.007
70886W        W37295   3.869  26.119   0.977
70887W        W37296  27.952  31.385  11.427
70888W        W37297  32.626  18.500   2.436
70889W        W37298  43.998   4.777   3.651
70890W        W37299  24.560  44.250  12.897
70891W        W37300   5.145   0.360  13.630
70892W        W37301  35.466   5.912  11.337
70893W        W37302  28.070  38.060   4.267
70894W        W37303   6.930   9.711   4.751
70895W        W37304  26.142  15.338  14.326
70896W        W37305  42.331  22.248  12.178
70897W        W37306  17.028  31.469  14.677
70898W        W37307  37.323  10.173   2.279
70899W        W37308   1.775  29.702   0.313
70900W        W37309   1.468  22.565  11.235
70901W        W37310  22.299  21.634   1.244
70902W        W37311  24.721  27.214   2.693
70903W        W37312  15.133  29.634   0.906
70904W        W37313  30.802  23.426  13.878
70905W        W37314  22.695  26.061  10.087
70906W        W37315  31.876   7.183   3.555
70907W        W37316  11.504  36.899  12.231
70908W        W37317   3.561  43.107  12.435
70909W        W37318  16.641  34.874  14.891
70910W        W37319  33.998  39.926   4.573
70911W        W37320  35.928  20.663   0.062
70912W        W37321  11.671   1.555   4.034
70913W        W37322  38.554  19.500  12.965
70914W        W37323  20.352  19.066  14.925
70915W        W37324  40.425  41.095  11.163
70916W        W37325  33.907  39.584  14.481
70917W        W37326  28.624  38.300   0.765
70918W        W37327  35.974   9.250  14.443
70919W        W37328   7.867   5.669  11.096
70920W        W37329   0.241  35.589  11.627
70921W        W37330  20.814  24.377  11.069
70922W        W37331  19.292  29.122  14.451
70923W        W37332  29.637  14.486  11.817
70924W        W37333  31.380  33.662   4.187
70925W        W37334  32.355  11.505  11.686
70926W        W37335  24.161  12.650   2.007
70927W        W37336   8.923  15.604  14.024
70928W        W37337  41.705   1.290   2.610
70929W        W37338  42.969   8.185   9.859
70930W        W37339  15.592  19.906   4.628
70931W        W37340   6.224  36.519   4.764
70932W        W37341   0.536   1.913  12.380
70933W        W37342   7.737  31.874   1.824
70934W        W37343   0.740  13.288  13.551
70935W        W37344  34.108   8.758  10.487
70936W        W37345   7.134  16.634  12.982
70937W        W37346  35.591   4.730  13.747
70938W        W37347  16.288  31.907  14.236
70939W        W37348  30.185   7.465  12.837
70940W        W37349  33.927  15.307  13.381
70941W        W37350  15.276   4.868  14.062
70942W        W37351  12.189  30.556  11.117
70943W        W37352  12.047  20.118   4.086
70944W        W37353  34.614  38.891  11.675
70945W        W37354  17.559  18.312   3.654
70946W        W37355   2.300  42.814   2.320
70947W        W37356  39.911   8.814  10.063
70948W        W37357  41.227  24.624   2.183
70949W        W37358   6.281  41.535   0.082
70950W        W37359  18.834  36.655  11.919
70951W        W37360   0.527  31.617  11.985
70952W        W37361  29.567   7.370   4.575
70953W        W37362  17.015  44.945  10.968
70954W        W37363   1.539  15.981   3.926
70955W        W37364   9.872  43.377  12.394
70956W        W37365  12.096  28.573   3.927
70957W        W37366  12.243  22.706  12.114
70958W        W37367  16.039  20.737   2.742
70959W        W37368   8.167  27.962   1.410
70960W        W37369  41.947  26.644  14.343
70961W        W37370  13.122  42.361   4.043
70962W        W37371   6.833   8.576  14.578
70963W        W37372   8.856  28.458  12.038
70964W        W37373  10.243  27.741  14.915
70965W        W37374  10.826   6.446  11.539
70966W        W37375   4.856  21.245  10.392
70967W        W37376  31.660  40.291   4.695
70968W        W37377  41.314  14.085   1.403
70969W        W37378  20.641  11.817   0.898
70970W        W37379   9.995  37.451  10.402
70971W        W37380  12.596   8.649  11.494
70972W        W37381  32.645  29.504   0.111
70973W        W37382  31.689  13.731   5.017
70974W        W37383  32.210  41.031  11.269
70975W        W37384  29.013  23.455  10.683
70976W        W37385  22.736   4.398  14.423
70977W        W37386  35.061  16.017  13.957
70978W        W37387   1.159   1.177  11.078
70979W        W37388   4.736  43.132   5.073
70980W        W37389   9.169  30.280   4.072
70981W        W37390  13.672  26.786  14.311
70982W        W37391  19.050  24.624  11.578
70983W        W37392  14.251   4.312  10.901
70984W        W37393  41.483   2.936   1.279
70985W        W37394  28.462  25.784  14.940
70986W        W37395   7.781  30.276   2.826
70987W        W37396  24.023  15.185   2.432
70988W        W37397  10.760  31.869  11.555
70989W        W37398   8.071   3.762  12.374
70990W        W37399  44.359  13.596  12.425
70991W        W37400  22.042   7.756   3.899
70992W        W37401   1.950  22.156   2.093
70993W        W37402   7.387  35.890   4.644
70994W        W37403  25.108  41.472   4.599
70995W        W37404  15.395  31.763  11.611
70996W        W37405  21.212  20.869  11.686
70997W        W37406  19.291  19.684   3.228
70998W        W37407  16.201  30.008   3.104
70999W        W37408  38.626  17.646  12.666
71000W        W37409   4.079  35.870  12.554
71001W        W37410  40.318  34.473  12.484
71002W        W37411  39.000   5.232   0.824
71003W        W37412  24.457  33.580  12.262
71004W        W37413  27.189  29.875   3.460
71005W        W37414   0.320  30.672  13.745
71006W        W37415  22.041  33.628   3.977
71007W        W37416  44.511  15.801   4.084
71008W        W37417  40.345  10.802   3.128
71009W        W37418  10.714  24.912  13.035
71010W        W37419  26.172   8.612   3.744
71011W        W37420  19.200   5.368   4.369
71012W        W37421  15.775  22.199  13.951
71013W        W37422  31.114  32.963  10.591
71014W        W37423   0.704  35.099   3.825
71015W        W37424  10.986  34.886  12.510
71016W        W37425  17.788   4.860   2.695
71017W        W37426   4.301  14.091  13.497
71018W        W37427   2.525  24.352   4.736
71019W        W37428  22.627  23.565   0.842
71020W        W37429   9.849  43.860   4.654
71021W        W37430  28.524  32.547   2.880
71022W        W37431  39.090  28.826   1.948
71023W        W37432  32.894  33.551   4.149
71024W        W37433  14.995  42.977  10.732
71025W        W37434   6.977   5.948   1.434
71026W        W37435  14.856  13.163  13.544
71027W        W37436  10.996  28.616  12.461
71028W        W37437  30.100  41.038  13.616
71029W        W37438  13.784  23.999  11.971
71030W        W37439  27.336   5.193  14.816
71031W        W37440  34.687  20.085  13.999
71032W        W37441  30.128  16.263   3.062
71033W        W37442  18.640  24.696   5.082
71034W        W37443  32.186  40.672   0.662
71035W        W37444  29.500  41.490  10.745
71036W        W37445  31.857  30.496   0.296
71037W        W37446  10.030  38.603  12.873
71038W        W37447  26.833  34.043  14.353
71039W        W37448   6.325  37.592   4.243
71040W        W37449  15.362  35.433  13.218
71041W        W37450  20.863  36.726   3.921
71042W        W37451  27.331  41.537  12.584
71043W        W37452  11.700  36.947   2.900
71044W        W37453  16.654  37.287  11.290
71045W        W37454   1.899  11.789   1.240
71046W        W37455  42.576  40.615  13.082
71047W        W37456   0.195   6.225  14.004
71048W        W37457  31.400  24.628  12.827
71049W        W37458  35.681  38.378  13.746
71050W        W37459   6.895  23.234   4.982
71051W        W37460  32.148  43.782  13.081
71052W        W37461  23.932  23.509   1.169
71053W        W37462  27.498  13.441   2.197
71054W        W37463  18.104  25.907  13.646
71055W        W37464  39.891  41.482   3.940
71056W        W37465  44.376   2.920  12.793
71057W        W37466  17.089   8.233   3.296
71058W        W37467  24.282  34.071   1.391
71059W        W37468  27.510  37.921  10.712
71060W        W37469  26.116  10.391   2.379
71061W        W37470   4.811  14.505   0.533
71062W        W37471  29.422   2.892  12.929
71063W        W37472  11.588  36.974  11.017
71064W        W37473  11.637   7.700   3.375
71065W        W37474   0.530   7.117   4.606
71066W        W37475  28.809  30.124  12.067
71067W        W37476  19.725   0.704   1.781
71068W        W37477  16.007   7.626  12.905
71069W        W37478  33.998   5.389  13.949
71070W        W37479  21.236  22.630  12.675
71071W        W37480  13.164  20.880  11.200
71072W        W37481   9.293  22.132  13.482
71073W        W37482  23.757  13.338   3.750
71074W        W37483  24.118  43.986  14.427
71075W        W37484  31.225  44.867   2.259
71076W        W37485  34.573  13.845   1.927
71077W        W37486   4.233   0.047  12.114
71078W        W37487  42.086  18.642  11.725
71079W        W37488  38.162  15.033   0.757
71080W        W37489  42.846  29.407   1.686
71081W        W37490   8.159  24.547   0.611
71082W        W37491  38.835  14.874  14.457
71083W        W37492  11.718  27.958  14.904
71084W        W37493  42.822  28.049  11.987
71085W        W37494  20.802  44.133   3.322
71086W        W37495  42.958   9.116   0.436
71087W        W37496  33.124  15.680   0.411
71088W        W37497  19.354   8.811  10.725
71089W        W37498  30.170  20.010  12.710
71090W        W37499  20.503  40.921  14.441
71091W        W37500   0.507   8.934   5.374
71092W        W37501  23.384  22.296  13.044
71093W        W37502   6.436  24.082   3.886
71094W        W37503  41.436  36.305   2.433
71095W        W37504  43.933  17.709  10.580
71096W        W37505   8.445  15.793  14.217
71097W        W37506   4.413  38.822   2.986
71098W        W37507  44.510  39.362  10.607
71099W        W37508   8.048   8.105  13.010
71100W        W37509  21.612  31.882  12.082
71101W        W37510  17.661  10.130   1.366
71102W        W37511  30.505  44.366  10.618
71103W        W37512  44.968  23.898   4.209
71104W        W37513   9.160  10.724   1.912
71105W        W37514   8.702  28.844   1.380
71106W        W37515   6.507  23.106  11.693
71107W        W37516  26.190   1.864  13.792
71108W        W37517  30.683   8.130   3.696
71109W        W37518   6.338  19.120   2.283
71110W        W37519  27.600  24.807   2.336
71111W        W37520  33.018  24.283  10.687
71112W        W37521  38.718  25.443  11.141
71113W        W37522  31.357  18.464  13.020
71114W        W37523  30.657  21.546  14.717
71115W        W37524  36.511  37.453  10.477
71116W        W37525   9.387  42.295  13.888
71117W        W37526  19.832  42.449   1.177
71118W        W37527  30.223   9.641  10.763
71119W        W37528  39.147  43.750   4.239
71120W        W37529  21.622  18.185   3.048
71121W        W37530  42.943  23.148   0.006
71122W        W37531  18.097  10.233   1.891
71123W        W37532  25.196  34.849  12.744
71124W        W37533  35.028  33.273   4.914
71125W        W37534  23.774   3.287   2.068
71126W        W37535  17.136  26.063   3.291
71127W        W37536  24.205  22.877  14.758
71128W        W37537  10.301  26.509  10.115
71129W        W37538  29.470  24.152  10.674
71130W        W37539   9.251  42.847  12.142
71131W        W37540  29.078   3.139  14.496
71132W        W37541  41.966  35.271  11.468
71133W        W37542  44.488  41.887  10.681
71134W        W37543   8.795  36.786   0.833
71135W        W37544  16.274  16.738   0.447
71136W        W37545  21.516  18.339  13.503
71137W        W37546   9.175  37.804   2.399
71138W        W37547   0.016  14.653  14.853
71139W        W37548  35.258   7.894   2.896
71140W        W37549   6.243  24.473   3.121
71141W        W37550   9.362  42.523   0.747
71142W        W37551  37.066  37.673   3.340
71143W        W37552  13.167  22.114   3.657
71144W        W37553  26.668   4.993   3.137
71145W        W37554   8.295  20.096  11.846
71146W        W37555  24.646  11.407  14.596
71147W        W37556   6.706   3.339   4.450
71148W        W37557  35.189   0.218  12.801
71149W        W37558  17.469  38.028   1.982
71150W        W37559  43.820   1.712  12.981
71151W        W37560  12.849   8.204   2.340
71152W        W37561   6.887  38.865   1.540
71153W        W37562  15.689  15.255   3.794
71154W        W37563  35.205  37.816   0.912
71155W        W37564  21.104  43.761   4.473
71156W        W37565  23.229   5.963  12.388
71157W        W37566   7.383  40.872   1.348
71158W        W37567  43.254   3.424   0.442
71159W        W37568  35.458  44.063   3.176
71160W        W37569  20.077  38.117   1.450
71161W        W37570  30.224  37.120   5.336
71162W        W37571  22.507  32.683  13.393
71163W        W37572  30.349  43.033  10.647
71164W        W37573  22.715  26.153  10.622
71165W        W37574  23.029  33.910   0.063
71166W        W37575   2.168   6.792  12.421
71167W        W37576   1.220  10.549  13.397
71168W        W37577  29.466  43.204   0.812
71169W        W37578  23.665  10.400  11.451
71170W        W37579  20.658   3.917   2.321
71171W        W37580  21.476  40.115   0.499
71172W        W37581  35.973  22.658  14.028
71173W        W37582   5.149   6.926  14.484
71174W        W37583  35.807  35.044  11.988
71175W        W37584  38.254  33.698  12.545
71176W        W37585  22.196  31.387   2.300
71177W        W37586   1.670   6.727  12.514
71178W        W37587  33.449  28.313   3.244
71179W        W37588   9.350   0.209   2.205
71180W        W37589  38.416   2.685   0.224
71181W        W37590  29.737  22.635   2.338
71182W        W37591  31.027   7.501  10.228
71183W        W37592  14.214  39.199  13.086
71184W        W37593  22.894   7.622   3.603
71185W        W37594  35.125   0.685  10.236
71186W        W37595  13.219  18.838   4.717
71187W        W37596  26.609  44.681  13.267
71188W        W37597  44.699   4.369   4.570
71189W        W37598  42.490   7.484   2.414
71190W        W37599  22.584  22.465   4.264
71191W        W37600   3.226  17.874  11.875
71192W        W37601  11.785  12.683   1.241
71193W        W37602  30.256  30.497   1.315
71194W        W37603  42.281  36.645   1.438
71195W        W37604  31.150  34.549   0.720
71196W        W37605  29.928   7.228   0.791
71197W        W37606  17.287  35.030  14.164
71198W        W37607  11.057   7.121   2.134
71199W        W37608   8.253  12.597   0.459
71200W        W37609   6.410  15.067  12.986
71201W        W37610  25.259   5.960   4.361
71202W        W37611   3.970  13.602  11.179
71203W        W37612   9.656  29.564   3.838
71204W        W37613  33.690  39.542   0.707
71205W        W37614  44.210  18.092  14.793
71206W        W37615  31.380  31.041   4.252
71207W        W37616  23.512  18.318   2.833
71208W        W37617  10.751  12.228   1.991
71209W        W37618  31.072  41.015  12.924
71210W        W37619  40.979   8.074   4.242
71211W        W37620  25.492  31.102  10.413
71212W        W37621  27.591  36.250   4.911
71213W        W37622  13.580  32.432   2.302
71214W        W37623  36.122  42.773   2.131
71215W        W37624  30.161  15.716   1.530
71216W        W37625   7.709  43.390   4.785
71217W        W37626   8.942  13.439  13.044
71218W        W37627  11.742   9.111   2.729
71219W        W37628  29.331  40.769   4.827
71220W        W37629   5.875  15.367   1.941
71221W        W37630   8.759  40.126  11.083
71222W        W37631   8.722  32.481   0.745
71223W        W37632   4.938  16.666   1.678
71224W        W37633  34.414  34.455   4.596
71225W        W37634   5.030  35.875  11.739
71226W        W37635  30.649  42.906   4.209
71227W        W37636  10.122   7.894  12.952
71228W        W37637  25.428  18.018   2.445
71229W        W37638  18.253  37.003  14.868
71230W        W37639  19.099  33.834   4.061
71231W        W37640  19.810  28.018  12.096
71232W        W37641  33.474  25.407  10.590
71233W        W37642  20.125  26.472   4.635
71234W        W37643  11.157  12.486  11.595
71235W        W37644  25.494  18.489   2.844
71236W        W37645   1.535  34.651  11.586
71237W        W37646  12.181  11.369   4.128
71238W        W37647  20.882  16.570   0.648
71239W        W37648  29.644  16.394  13.920
71240W        W37649  12.361  14.458  14.112
71241W        W37650  25.481  19.691   2.213
71242W        W37651  29.894  21.965   2.760
71243W        W37652   1.063  38.145  12.403
71244W        W37653  44.236  28.409  11.214
71245W        W37654  38.660  41.859   4.033
71246W        W37655  30.916  14.904   2.005
71247W        W37656  14.798  43.657  13.588
71248W        W37657  25.554  35.047   2.208
71249W        W37658   2.753  32.511  14.551
71250W        W37659  29.651  37.615   2.617
71251W        W37660   3.484  21.231  11.705
71252W        W37661  35.646   5.943   0.994
71253W        W37662  40.382  43.360  14.985
71254W        W37663   2.014  26.562   0.865
71255W        W37664  25.454  38.507  10.707
71256W        W37665   4.482  31.567   4.934
71257W        W37666  34.177  30.533   3.613
71258W        W37667  31.959  29.399   2.321
71259W        W37668   1.821  42.193   3.815
71260W        W37669  32.146  27.779  11.675
71261W        W37670   8.731  36.381  13.926
71262W        W37671   1.004  11.179   3.630
71263W        W37672  43.328  11.525  13.913
71264W        W37673  40.478  15.683   0.747
71265W        W37674  43.914  35.115  11.065
71266W        W37675  11.361  21.004   2.197
71267W        W37676   8.716  17.077   0.733
71268W        W37677  24.942  27.304  11.611
71269W        W37678  19.442  33.962  11.493
71270W        W37679  31.371  36.286  11.514
71271W        W37680  40.785  38.731  14.246
71272W        W37681  44.950  38.855  12.832
71273W        W37682  13.739  25.194   1.915
71274W        W37683  26.547  23.674   2.284
71275W        W37684  20.633  11.253  12.201
71276W        W37685  37.237   3.679  11.443
71277W        W37686   5.190  11.617   1.211
71278W        W37687  24.010  38.862   0.840
71279W        W37688  27.123  12.135  10.794
71280W        W37689   1.008   0.051  10.779
71281W        W37690  24.976  40.573  12.336
71282W        W37691   1.824  26.190  12.085
71283W        W37692  30.102  44.027  12.145
71284W        W37693  37.675  36.328   2.387
71285W        W37694  12.696  42.270   1.775
71286W        W37695  19.951  42.879   3.500
71287W        W37696   6.346  36.952   3.171
71288W        W37697  33.549  28.611   0.412
71289W        W37698  16.475  15.616   2.905
71290W        W37699  29.484   9.383  14.036
71291W        W37700  25.447   8.603  13.942
71292W        W37701  39.947  10.677   3.761
71293W        W37702   9.587  10.269   1.149
71294W        W37703  32.594  15.378   4.315
71295W        W37704  25.643  14.422  13.758
71296W        W37705   0.849  28.877  10.603
71297W        W37706  20.186  37.817  14.378
71298W        W37707  14.369  36.627  14.881
71299W        W37708  37.197  12.711   1.666
71300W        W37709  14.823   4.158  12.047
71301W        W37710   0.413  10.715   4.120
71302W        W37711  21.227  24.656  13.410
71303W        W37712   9.405   0.955  12.457
71304W        W37713  13.290   4.457   0.972
71305W        W37714  29.420   0.300  11.299
71306W        W37715  32.427  35.852   3.106
71307W        W37716   5.809  12.608   1.461
71308W        W37717  35.648  17.862   1.286
71309W        W37718  31.618  42.542   4.999
71310W        W37719   0.789  14.207   0.479
71311W        W37720   4.457  26.624  12.650
71312W        W37721  38.887  26.481   2.883
71313W        W37722  31.996  29.911  14.387
71314W        W37723  42.375  29.662  11.681
71315W        W37724   0.724  20.764  11.443
71316W        W37725  17.268  20.258   0.515
71317W        W37726  38.943  29.305   1.800
71318W        W37727  20.055   8.178   3.204
71319W        W37728  38.423   5.866   3.704
71320W        W37729  31.544  40.481   4.183
71321W        W37730  43.277   0.459   1.335
71322W        W37731   7.910  12.184  14.793
71323W        W37732  22.965  35.866  11.166
71324W        W37733  37.896   9.834  11.592
71325W        W37734  42.956  10.922  13.738
71326W        W37735  28.001  14.994  12.815
71327W        W37736  36.866  13.296  12.399
71328W        W37737  42.800  19.046  13.323
71329W        W37738  40.740  32.894  14.472
71330W        W37739   5.668  10.796  13.973
71331W        W37740  32.970  29.844   3.675
71332W        W37741  13.285  32.896  11.497
71333W        W37742  28.700   7.377   1.232
71334W        W37743  13.115  44.376   4.381
71335W        W37744  18.815   0.423  13.667
71336W        W37745  34.536  17.080   2.114
71337W        W37746   8.353  25.927   2.827
71338W        W37747   4.940  20.731   4.598
71339W        W37748  22.226  19.655   1.740
71340W        W37749  10.850  35.013   3.724
71341W        W37750  20.684  12.894  13.905
71342W        W37751  19.609  40.604   3.733
71343W        W37752  43.874  23.024  10.677
71344W        W37753  16.734  39.801  13.924
71345W        W37754  34.073  31.082   2.725
71346W        W37755  21.638  25.938  12.435
71347W        W37756   7.146  16.731  10.588
71348W        W37757  31.613   4.310   3.620
71349W        W37758  35.267   7.190  14.448
71350W        W37759  17.346  25.175   4.994
71351W        W37760  23.784  43.706  11.847
71352W        W37761  34.070  40.842   0.381
71353W        W37762  29.444  42.151  10.682
71354W        W37763  39.802  17.018   0.277
71355W        W37764  19.191  29.011  13.464
71356W        W37765  44.488  17.479   4.585
71357W        W37766   2.803   2.922  10.800
71358W        W37767  37.121  15.226  13.986
71359W        W37768  19.495  33.091  11.957
71360W        W37769  31.550  44.833  11.375
71361W        W37770  32.532  10.236  13.241
71362W        W37771   2.998  24.586   1.748
71363W        W37772  20.775   9.331   4.117
71364W        W37773  22.321  18.984  11.946
71365W        W37774  17.986  10.283  13.936
71366W        W37775  27.114  38.866  11.070
71367W        W37776  10.855  44.825  12.104
71368W        W37777  14.403  16.818  11.423
71369W        W37778  14.896   5.993  11.652
71370W        W37779  26.493  20.713   1.901
71371W        W37780   5.982   0.205   0.393
71372W        W37781  17.783   1.829   1.193
71373W        W37782  33.438  23.219  14.514
71374W        W37783   2.477  12.628  10.757
71375W        W37784  18.293   4.889  11.283
71376W        W37785  31.911  25.577  14.299
71377W        W37786  36.864  35.896   3.876
71378W        W37787   3.639  16.103  14.069
71379W        W37788  36.172   3.439   4.871
71380W        W37789  11.263  42.968   0.335
71381W        W37790  10.784  17.156   0.204
71382W        W37791  35.341  41.416   3.385
71383W        W37792   1.041  34.525  12.817
71384W        W37793  37.935  17.471   3.028
71385W        W37794  23.698  29.623   4.457
71386W        W37795   7.054  38.682   3.347
71387W        W37796   4.044   9.652   1.251
71388W        W37797  15.740  12.327  10.799
71389W        W37798  35.309  34.596  10.579
71390W        W37799  28.697  11.466  12.638
71391W        W37800  26.822   6.951   2.142
71392W        W37801   8.646   7.280   1.160
71393W        W37802  21.730   5.250   0.377
71394W        W37803   2.878  28.879  12.462
71395W        W37804  15.915  15.182   4.256
71396W        W37805   0.232  35.878   3.136
71397W        W37806  11.843  39.371  10.664
71398W        W37807  11.263  18.619  12.657
71399W        W37808   4.189   2.284   0.909
71400W        W37809  38.768   7.883   1.259
71401W        W37810  41.217  10.919   4.831
71402W        W37811  16.172  12.097   0.291
71403W        W37812  22.504  21.096  13.847
71404W        W37813  13.316  26.553   1.970
71405W        W37814  19.659  27.121   4.302
71406W        W37815  18.102   3.452   0.286
71407W        W37816  41.064  39.926  10.605
71408W        W37817  26.511  37.773   4.967
71409W        W37818  33.180  11.062   1.034
71410W        W37819   8.786  30.205   1.890
71411W        W37820  16.501  36.158  13.367
71412W        W37821  41.723  10.715  14.218
71413W        W37822   2.697   4.434   4.601
71414W        W37823  26.976  29.656  14.841
71415W        W37824  39.877  37.053   0.506
71416W        W37825  24.993   1.530  11.180
71417W        W37826  17.009  41.489  13.024
71418W        W37827  33.506  40.388  14.283
71419W        W37828  13.390  28.608  13.009
71420W        W37829  15.492   7.261  12.046
71421W        W37830  22.567  18.959  11.475
71422W        W37831  40.560  34.104  10.509
71423W        W37832   4.694  37.472   9.840
71424W        W37833  30.976  28.080   1.919
71425W        W37834  25.106   2.314   0.355
71426W        W37835  11.306  29.147   4.652
71427W        W37836  30.959   1.096  11.877
71428W        W37837  18.567  16.061  11.614
71429W        W37838   0.449  41.918   4.706
71430W        W37839   1.852  11.627   5.019
71431W        W37840   5.982  22.723  12.023
71432W        W37841  31.534  39.592   4.460
71433W        W37842  31.290  32.009   2.767
71434W        W37843  25.257  14.192   4.520
71435W        W37844  16.744   3.052   4.577
71436W        W37845  25.025   8.573   9.749
71437W        W37846   4.200  14.599  12.884
71438W        W37847  15.729  43.974   1.328
71439W        W37848  41.936  44.716   1.995
71440W        W37849   5.623   1.293  14.427
71441W        W37850  31.783  25.633   1.332
71442W        W37851  31.015   5.615  14.383
71443W        W37852  39.954  29.421   1.966
71444W        W37853   3.421  23.544  11.176
71445W        W37854  28.978  21.116   1.349
71446W        W37855  17.665  44.288   2.924
71447W        W37856  23.009  15.240  11.981
71448W        W37857  38.289  13.787  14.918
71449W        W37858   2.426  31.860   3.687
71450W        W37859  41.968  28.898   4.206
71451W        W37860  35.898  18.405  14.905
71452W        W37861  11.096  24.906  12.650
71453W        W37862  36.052  29.582  11.584
71454W        W37863   0.499  17.339   3.506
71455W        W37864  28.012  36.743  13.671
71456W        W37865  34.977  22.179   1.785
71457W        W37866  19.258  35.069  12.831
71458W        W37867  23.552   3.286  14.962
71459W        W37868  23.790  11.662  12.043
71460W        W37869  33.999  35.612  11.967
71461W        W37870  39.064  16.339  12.954
71462W        W37871   7.244  37.940  10.684
71463W        W37872  41.236   0.478  14.850
71464W        W37873  12.997  20.125   4.057
71465W        W37874  17.150  24.162   4.633
71466W        W37875  23.379   5.425   1.419
71467W        W37876  16.514  28.562   1.012
71468W        W37877  42.325   3.245   4.638
71469W        W37878  18.666  10.907  14.818
71470W        W37879  24.532  12.022  11.512
71471W        W37880  32.082  11.220  10.751
71472W        W37881  37.873  24.705   3.653
71473W        W37882  18.169   0.738   0.770
71474W        W37883  18.031  34.340  14.344
71475W        W37884  18.791  20.527  14.476
71476W        W37885  29.732  12.112   0.814
71477W        W37886  39.403   6.488   3.115
71478W        W37887  39.987  43.806  13.357
71479W        W37888   9.621   7.444   1.323
71480W        W37889  18.757   6.174   4.630
71481W        W37890  23.365  15.407   3.204
71482W        W37891   0.458  41.997  14.543
71483W        W37892  26.083   4.148   1.998
71484W        W37893  35.287  15.267  11.684
71485W        W37894   6.251  44.292  13.057
71486W        W37895  15.226  34.787  10.164
71487W        W37896  15.504   8.110   4.918
71488W        W37897  43.024  11.159  11.272
71489W        W37898  39.804  27.856   0.287
71490W        W37899  44.847   0.550   3.710
71491W        W37900  10.903   3.421   2.791
71492W        W37901  32.141  43.536  12.613
71493W        W37902  34.571  18.542   3.257
71494W        W37903  21.312   5.278   2.354
71495W        W37904  28.949  18.033   4.590
71496W        W37905  32.140  33.987  12.782
71497W        W37906   1.019  37.520   3.793
71498W        W37907  39.970  30.112  11.132
71499W        W37908  28.150  25.664   9.881
71500W        W37909   9.745   9.617  11.924
71501W        W37910  34.493  34.116   0.383
71502W        W37911  14.548  42.473   4.586
71503W        W37912  29.490  30.221  13.828
71504W        W37913   3.795  39.942  14.320
71505W        W37914  42.964   3.787   4.286
71506W        W37915   3.740  35.960  13.516
71507W        W37916   9.326   6.925  10.759
71508W        W37917  13.719   2.960   3.324
71509W        W37918   6.815  40.752   2.855
71510W        W37919  19.354  44.110  14.234
71511W        W37920  44.791  41.964   2.748
71512W        W37921  23.583  32.896  13.017
71513W        W37922  42.730  10.700  14.166
71514W        W37923  11.365   3.495  14.845
71515W        W37924   8.718  40.750   0.897
71516W        W37925  12.587   8.411   1.382
71517W        W37926  35.735  31.327   1.411
71518W        W37927  22.205   0.713  12.377
71519W        W37928  23.050  33.612   3.372
71520W        W37929  44.983   6.209   2.088
71521W        W37930  29.711  30.114   3.314
71522W        W37931   5.746  31.582   4.640
71523W        W37932  17.589   6.682  10.766
71524W        W37933  40.811  19.135  14.308
71525W        W37934  27.528  25.205   3.535
71526W        W37935   8.154   7.885   2.626
71527W        W37936  44.925  29.722   2.306
71528W        W37937  36.932   1.717   0.969
71529W        W37938  14.110  27.040   4.664
71530W        W37939  25.031  12.405  11.872
71531W        W37940   6.148  42.370   2.676
71532W        W37941  10.687  41.945  10.832
71533W        W37942   2.256  17.032  13.011
71534W        W37943  30.955  14.720  14.646
71535W        W37944  23.923  21.164   4.521
71536W        W37945  29.116  30.881  14.258
71537W        W37946  11.707  18.031  13.926
71538W        W37947  38.889   7.819   2.211
71539W        W37948  16.396   7.685   2.386
71540W        W37949  28.381  25.117   3.222
71541W        W37950   7.142  14.670   2.816
71542W        W37951  21.236   5.495  13.045
71543W        W37952  18.089  15.600   2.316
71544W        W37953  20.105  19.510  13.035
71545W        W37954   9.662   7.261   2.196
71546W        W37955  13.208   6.434   4.550
71547W        W37956   9.844  41.007   4.773
71548W        W37957  24.004  42.470  13.857
71549W        W37958  20.114  43.698  13.394
71550W        W37959  42.524  31.657  14.883
71551W        W37960  21.224  28.972  10.750
71552W        W37961   6.371   5.076   0.660
71553W        W37962  14.870  21.545   3.185
71554W        W37963  43.342  21.157   0.821
71555W        W37964  26.539  18.022  14.943
71556W        W37965  32.672  10.226   0.915
71557W        W37966  35.368  18.029   4.284
71558W        W37967  30.772   9.881   9.811
71559W        W37968  35.531   2.396  12.936
71560W        W37969   5.901  37.637   2.756
71561W        W37970   6.831  12.276  12.460
71562W        W37971  23.769  33.933   0.457
71563W        W37972  23.727   4.875  14.918
71564W        W37973  19.703  33.930  12.503
71565W        W37974  11.609  42.529   2.323
71566W        W37975   3.422   7.844  12.354
71567W        W37976  33.558  14.530  13.034
71568W        W37977   6.854  27.040  13.271
71569W        W37978  12.806   3.475  13.505
71570W        W37979  25.702  44.571  11.653
71571W        W37980  31.266  15.187  11.134
71572W        W37981   5.242  22.131  11.264
71573W        W37982  28.094  21.604  12.406
71574W        W37983  10.818  23.248  12.599
71575W        W37984  41.515  22.838   4.555
71576W        W37985  39.158  22.056   4.250
71577W        W37986   7.493  37.991   3.585
71578W        W37987  37.635   2.914  11.840
71579W        W37988  25.586  24.240   9.686
71580W        W37989  15.331  19.342  14.531
71581W        W37990   3.679   4.211   3.987
71582W        W37991  43.690  38.357  14.275
71583W        W37992  35.181   3.755   3.741
71584W        W37993  31.666   3.114   1.035
71585W        W37994  44.463  29.686   5.068
71586W        W37995   0.900  24.442   3.223
71587W        W37996  42.246  22.104  13.841
71588W        W37997   5.744  29.472   4.261
71589W        W37998  16.310  22.207  12.399
71590W        W37999  37.954  39.607   1.857
71591W        W38000  36.517  29.420  12.758
71592W        W38001   5.921  32.717   0.361
71593W        W38002  12.154  22.888   4.950
71594W        W38003  41.959  28.155  14.453
71595W        W38004  38.283   6.840   4.553
71596W        W38005   6.066  17.347   1.614
71597W        W38006  23.249  24.247  11.187
71598W        W38007  17.064   9.389   0.008
71599W        W38008  37.729  38.443   2.880
71600W        W38009  42.017  24.188   4.214
71601W        W38010  15.384  37.580  10.469
71602W        W38011  18.047  41.594   1.024
71603W        W38012  38.651  30.767   0.278
71604W        W38013  14.547   5.236  12.616
71605W        W38014  42.802  41.906  11.175
71606W        W38015  34.814   6.331  13.440
71607W        W38016  44.939  17.554   4.224
71608W        W38017  20.672   9.574  13.008
71609W        W38018  11.440  22.100  14.393
71610W        W38019  31.720  26.701   3.125
71611W        W38020  23.479  42.583  10.658
71612W        W38021  27.946  11.412   0.214
71613W        W38022   4.721  11.872   5.116
71614W        W38023  34.222   7.950   0.315
71615W        W38024   5.470   1.374  14.926
71616W        W38025   6.348   3.853  14.824
71617W        W38026  22.995   7.460  14.821
71618W        W38027  30.383   3.594   0.183
71619W        W38028  30.391  25.095  14.344
71620W        W38029  35.604  42.423  11.399
71621W        W38030  37.002   6.888  14.403
71622W        W38031   0.402  21.511   0.265
71623W        W38032  21.125   2.626   0.282
71624W        W38033  24.430  43.422  13.346
71625W        W38034  44.427  17.353   1.689
71626W        W38035  43.946  19.059  12.441
71627W        W38036   9.451  37.365   2.313
71628W        W38037  35.606  20.195  10.581
71629W        W38038  36.590  38.213  14.838
71630W        W38039   8.733  15.620  10.645
71631W        W38040  41.837  40.434  12.585
71632W        W38041   5.666  31.065   2.950
71633W        W38042  16.719   7.627   2.795
71634W        W38043  30.156  40.592   4.632
71635W        W38044  33.104  41.128   1.798
71636W        W38045  37.340   1.790   4.496
71637W        W38046  26.490  32.879  13.476
71638W        W38047  30.879  23.510   2.407
71639W        W38048  41.946  26.886   1.864
71640W        W38049  32.911  41.472  13.406
71641W        W38050   3.403  42.431   0.582
71642W        W38051  31.658  26.172   1.080
71643W        W38052   5.504  19.118  13.384
71644W        W38053  26.367  39.396  12.107
71645W        W38054  26.395  35.609   2.284
71646W        W38055  13.816  22.170  13.960
71647W        W38056  37.330  30.952  12.574
71648W        W38057  19.923  30.132  13.531
71649W        W38058   5.815  10.954  10.433
71650W        W38059  26.689  20.256  12.840
71651W        W38060  10.673  27.417  14.836
71652W        W38061  34.811  10.208  11.610
71653W        W38062  35.347   8.195  14.355
71654W        W38063   0.451  25.161   1.672
71655W        W38064  41.859  12.615  11.681
71656W        W38065  44.910  15.680  11.528
71657W        W38066  22.661  18.685  12.213
71658W        W38067  34.814  36.250   0.098
71659W        W38068   0.323   9.529   2.037
71660W        W38069  40.914   4.299  14.340
71661W        W38070  41.984  19.691  12.598
71662W        W38071   6.258  43.677   2.241
71663W        W38072   7.923  24.315  12.454
71664W        W38073  27.096  13.576  13.994
71665W        W38074  13.870  26.774  12.569
71666W        W38075  38.177  11.820  14.220
71667W        W38076  36.483  16.778   3.214
71668W        W38077  12.514  21.170   2.860
71669W        W38078  30.954  20.598  13.867
71670W        W38079  40.332  35.400  13.464
71671W        W38080  12.889  11.367  13.638
71672W        W38081  43.972  39.997   3.924
71673W        W38082   7.838  24.743   1.978
71674W        W38083   2.227   4.530  12.959
71675W        W38084   8.331  42.112   0.894
71676W        W38085  23.280  26.760  11.560
71677W        W38086  23.031  25.143  12.387
71678W        W38087  44.644  40.415   1.776
71679W        W38088  31.733  34.497   4.055
71680W        W38089  17.648  30.353  12.521
71681W        W38090  41.386  19.172   0.056
71682W        W38091   9.058  31.477   9.853
71683W        W38092  38.601  41.313  10.668
71684W        W38093   0.427  44.750  14.984
71685W        W38094  39.448   9.780   4.298
71686W        W38095  21.466   9.709  13.549
71687W        W38096   9.717   0.006   0.974
71688W        W38097  27.907  40.074   4.424
71689W        W38098  10.029   8.236   3.719
71690W        W38099  19.723   7.648   2.837
71691W        W38100  39.948  33.313  11.200
71692W        W38101  21.614  34.101   1.980
71693W        W38102  27.450  29.869  13.580
71694W        W38103  41.478  39.652  13.718
71695W        W38104   7.848  30.632   1.411
71696W        W38105  19.639  34.813   1.631
71697W        W38106  17.857  39.503  11.580
71698W        W38107   8.147  25.010   2.409
71699W        W38108  23.016  12.628   3.083
71700W        W38109   8.054  33.680  14.953
71701W        W38110  17.742  18.324   3.154
71702W        W38111  41.918   0.921   0.280
71703W        W38112  14.357  11.191   3.672
71704W        W38113  26.340  38.300   2.721
71705W        W38114   5.744   7.730   3.143
71706W        W38115  40.231  11.788  12.426
71707W        W38116  35.931  34.194   0.404
71708W        W38117   3.230  33.023  14.773
71709W        W38118  10.580   7.550  14.304
71710W        W38119  21.304  21.801  14.807
71711W        W38120  13.768   7.230   1.370
71712W        W38121  13.347  27.395   4.797
71713W        W38122  31.627  39.559  14.425
71714W        W38123  18.980  10.210  10.960
71715W        W38124  43.503  39.952  14.419
71716W        W38125  14.655  42.314  14.682
71717W        W38126  35.823  29.790   3.594
71718W        W38127   4.912  26.497   3.810
71719W        W38128  34.308  14.558  13.424
71720W        W38129  13.836  35.909   2.321
71721W        W38130  22.121   1.129   2.806
71722W        W38131   1.356  13.221  11.299
71723W        W38132  12.139   7.319  13.559
71724W        W38133  40.645   8.828   1.871
71725W        W38134  18.193  18.123   2.161
71726W        W38135  43.321  30.708   3.900
71727W        W38136  21.770  32.548   0.395
71728W        W38137   6.954   0.803  11.232
71729W        W38138  37.624  15.149   0.756
71730W        W38139  24.709  13.851   0.832
71731W        W38140  18.286   8.697  13.657
71732W        W38141  11.399  39.565  10.846
71733W        W38142   4.153  12.174   1.696
71734W        W38143  43.395  34.077  12.861
71735W        W38144  41.748  12.116   0.447
71736W        W38145  25.103  35.535   3.223
71737W        W38146  14.228  26.641  10.901
71738W        W38147  35.071  22.674   3.561
71739W        W38148   8.633  29.053   2.324
71740W        W38149   1.725  25.623  11.213
71741W        W38150   2.941  40.958  12.594
71742W        W38151  16.868   9.907   4.644
71743W        W38152  11.651  43.342   5.214
71744W        W38153  44.537  44.845   0.748
71745W        W38154  41.109  42.437   4.161
71746W        W38155  22.233   0.943  11.095
71747W        W38156  22.838  39.312  13.310
71748W        W38157  32.648  27.463   1.278
71749W        W38158  33.497  44.857  13.260
71750W        W38159   6.852  12.960   0.773
71751W        W38160  39.148  12.723   2.284
71752W        W38161  18.713   4.665  10.381
71753W        W38162  27.047   3.668   1.855
71754W        W38163  14.500  24.513   2.827
71755W        W38164  43.399   2.342  13.771
71756W        W38165   8.467   0.967  10.078
71757W        W38166  22.570   0.385  12.529
71758W        W38167  10.354  41.430  11.926
71759W        W38168  41.857  12.161   3.643
71760W        W38169  16.889  20.491  10.361
71761W        W38170   2.516  26.696   0.848
71762W        W38171   7.666  39.773  13.912
71763W        W38172  25.877  39.299  13.779
71764W        W38173  17.068  18.040  14.518
71765W        W38174  39.590  34.163  12.941
71766W        W38175  31.469  39.018   3.659
71767W        W38176  31.039  41.164  14.864
71768W        W38177  27.025  35.031   4.866
71769W        W38178  23.288  28.500   4.814
71770W        W38179  16.578  42.591   4.512
71771W        W38180  44.695  19.166  12.145
71772W        W38181  31.862   0.748  10.959
71773W        W38182   6.904  33.102   9.984
71774W        W38183  25.660  19.821   4.110
71775W        W38184  29.651  44.431  12.841
71776W        W38185  23.618   7.123   3.739
71777W        W38186   8.428  31.923  14.912
71778W        W38187  39.779  23.120   0.794
71779W        W38188  41.852  43.065  10.487
71780W        W38189  36.388  13.162   0.499
71781W        W38190  26.858  19.452   4.931
71782W        W38191  11.765   7.240   4.018
71783W        W38192   5.709   3.371   3.182
71784W        W38193  26.630   3.337   1.805
71785W        W38194  42.959  43.918  13.304
71786W        W38195   4.578   0.690  10.333
71787W        W38196  42.053   5.371   1.668
71788W        W38197   3.676  27.910   1.305
71789W        W38198  14.923  34.613   2.680
71790W        W38199  38.468  22.129  11.126
71791W        W38200  18.668   2.506   4.767
71792W        W38201   1.935  39.339  13.750
71793W        W38202   4.145  17.662  13.323
71794W        W38203  22.036   5.707  13.555
71795W        W38204  23.987  25.700  11.602
71796W        W38205  15.272   7.624   1.372
71797W        W38206  20.684  17.191   4.648
71798W        W38207  26.475   1.907   1.796
71799W        W38208   4.804   4.363  12.451
71800W        W38209  41.198  42.304  13.810
71801W        W38210  14.776  27.939  14.696
71802W        W38211  14.185  11.720   2.955
71803W        W38212  29.852  19.754   0.937
71804W        W38213  17.200  28.450   3.980
71805W        W38214  42.380  43.533  13.504
71806W        W38215  12.789   1.667   0.728
71807W        W38216   7.832  39.827  13.018
71808W        W38217  10.321   6.262   4.086
71809W        W38218   7.927  37.845  11.907
71810W        W38219  38.040  41.482   3.444
71811W        W38220  14.853  33.558   4.638
71812W        W38221  20.132  21.772   3.692
71813W        W38222   3.515  41.463  12.191
71814W        W38223  18.204   6.306  13.647
71815W        W38224  30.575  36.302   0.805
71816W        W38225  37.596  15.772   4.346
71817W        W38226  15.277  12.522  10.757
71818W        W38227  18.535  11.655  10.397
71819W        W38228  12.695   2.673   0.744
71820W        W38229  41.849  18.537  11.276
71821W        W38230  26.703   2.765  14.335
71822W        W38231  42.764  38.909  12.557
71823W        W38232  22.330  19.578  12.577
71824W        W38233  18.842  22.383  14.337
71825W        W38234  42.272  32.279   9.842
71826W        W38235  42.040  19.145   2.258
71827W        W38236   1.913   3.818  13.344
71828W        W38237  26.260  41.564  13.663
71829W        W38238  32.685  22.147  13.952
71830W        W38239  34.112  30.453  14.364
71831W        W38240   1.038  39.307   3.315
71832W        W38241  43.106  44.827  14.820
71833W        W38242  10.771  33.644  14.649
71834W        W38243   2.223  27.130   3.979
71835W        W38244  20.150  33.151  12.579
71836W        W38245   7.265   9.204   3.666
71837W        W38246  18.941   6.854  10.974
71838W        W38247  37.016  17.317  13.410
71839W        W38248   8.985  16.854  14.328
71840W        W38249  22.746  27.210   1.319
71841W        W38250   7.524  18.921  11.581
71842W        W38251  37.062  32.893  14.806
71843W        W38252  23.117  16.590   0.345
71844W        W38253  35.653  12.121  11.256
71845W        W38254  35.633  38.885  13.888
71846W        W38255  28.033   3.184   0.472
71847W        W38256  16.292  23.218   4.638
71848W        W38257  34.290  34.357   1.764
71849W        W38258   6.479  36.365   0.919
71850W        W38259  22.040  19.194   1.900
71851W        W38260  21.620  32.856  10.563
71852W        W38261   4.507  37.591   2.123
71853W        W38262  34.373  10.718   2.628
71854W        W38263  17.886  24.206  12.963
71855W        W38264   7.725   7.076   2.305
71856W        W38265  11.678  27.888   1.886
71857W        W38266  20.255  12.450  12.838
71858W        W38267  22.274  10.706  12.201
71859W        W38268  22.543  41.057  12.801
71860W        W38269  37.292  19.507  12.946
71861W        W38270  26.623  24.649   4.172
71862W        W38271  12.594  21.713   4.565
71863W        W38272  30.022   7.864  12.102
71864W        W38273  33.589   8.081  11.185
71865W        W38274  21.999   7.712   2.921
71866W        W38275   7.199  28.208  11.047
71867W        W38276  32.178   3.493   2.613
71868W        W38277  43.312  10.130   2.153
71869W        W38278  15.345  25.714   0.118
71870W        W38279   3.452  14.704  13.664
71871W        W38280  23.937  29.828   4.059
71872W        W38281  29.147  38.897  14.326
71873W        W38282  31.703  16.537   1.280
71874W        W38283  40.608  25.574   1.678
71875W        W38284   1.381  40.105  12.131
71876W        W38285  33.350   5.927  14.765
71877W        W38286  19.991  30.625   4.058
71878W        W38287  40.820  21.826   3.618
71879W        W38288  15.448  19.730   4.145
71880W        W38289  16.716  33.045  13.790
71881W        W38290  44.098  43.011  10.699
71882W        W38291  35.549   8.115  11.982
71883W        W38292   2.252  11.719   2.467
71884W        W38293   3.935  42.761  14.273
71885W        W38294  41.409  22.515   0.453
71886W        W38295  18.626  43.654  11.958
71887W        W38296  32.817  18.778  13.096
71888W        W38297  16.632  27.038   1.899
71889W        W38298  39.062   5.620   4.437
71890W        W38299  28.018  25.960   1.290
71891W        W38300   7.859  34.561   0.258
71892W        W38301  35.134   4.139   3.229
71893W        W38302  13.368  28.167   1.759
71894W        W38303   3.221  38.356  12.463
71895W        W38304  29.033  16.714  13.187
71896W        W38305  36.910  26.952  14.769
71897W        W38306  24.985  30.486  14.906
71898W        W38307  36.892  23.446   4.118
71899W        W38308  36.069  26.803  14.006
71900W        W38309   1.964  34.983  12.313
71901W        W38310   5.851  25.892  12.907
71902W        W38311  23.671  39.498   4.921
71903W        W38312  14.567   1.702  14.464
71904W        W38313  25.974  33.590   3.882
71905W        W38314  28.527   4.769   2.066
71906W        W38315   1.728  33.684   4.112
71907W        W38316  42.124   7.133  11.120
71908W        W38317  12.179  35.372   2.295
71909W        W38318  38.148  23.950  10.775
71910W        W38319  37.761  43.989   1.222
71911W        W38320   4.239  25.769  10.358
71912W        W38321  33.360  33.170   3.533
71913W        W38322  20.549  19.064   1.925
71914W        W38323  13.746  32.336   0.892
71915W        W38324  16.289  20.076   3.752
71916W        W38325  18.921   6.268  14.880
71917W        W38326  20.761  11.257  11.243
71918W        W38327  18.434   1.826   2.304
71919W        W38328  38.411  13.271  13.339
71920W        W38329  12.772  16.077   2.237
71921W        W38330  28.115   3.557  14.435
71922W        W38331  10.728  13.526  14.371
71923W        W38332   7.606   5.367  13.431
71924W        W38333  26.924  40.793   4.389
71925W        W38334  18.723   7.823   1.411
71926W        W38335  42.483  32.049  12.853
71927W        W38336  10.815  20.394   0.793
71928W        W38337  42.881  20.366   1.316
71929W        W38338  26.018  37.045   0.217
71930W        W38339  15.787   0.847  13.109
71931W        W38340   3.162  39.710   1.328
71932W        W38341  18.007  30.502  11.199
71933W        W38342  39.626  28.985   0.452
71934W        W38343  28.185  36.135  14.995
71935W        W38344  28.384  34.682  11.150
71936W        W38345  41.500  26.744  12.890
71937W        W38346   1.765  10.888  14.588
71938W        W38347   2.184   2.007  11.944
71939W        W38348  18.508  28.066   4.177
71940W        W38349  42.719  38.940   0.991
71941W        W38350  15.957   1.387   4.218
71942W        W38351   6.193  29.355   4.033
71943W        W38352  40.555  22.985  11.174
71944W        W38353  18.587  37.405   3.255
71945W        W38354   6.506  10.686  12.636
71946W        W38355   3.788  25.057   2.050
71947W        W38356  38.414  26.211  14.039
71948W        W38357   4.156  43.933   4.569
71949W        W38358  20.005  15.843  11.673
71950W        W38359  23.576  35.478   1.954
71951W        W38360   8.657  29.014   0.370
71952W        W38361  44.808  23.101  11.629
71953W        W38362  29.061  35.308   1.401
71954W        W38363  26.181  29.075  13.957
71955W        W38364  12.185  13.283   0.057
71956W        W38365  16.476  12.267  11.191
71957W        W38366   3.750  24.272   3.187
71958W        W38367  38.953  41.867   0.343
71959W        W38368  42.904  35.275  13.380
71960W        W38369  36.547  18.704   1.704
71961W        W38370   2.544  44.665  12.204
71962W        W38371  12.668  43.831   2.655
71963W        W38372  15.639  24.463   3.662
71964W        W38373   3.881  33.263   3.789
71965W        W38374  14.174  35.460  12.082
71966W        W38375  43.426  24.986  10.925
71967W        W38376  22.170   1.273   4.201
71968W        W38377   9.332  37.031   1.690
71969W        W38378   1.836   2.500  12.518
71970W        W38379  14.031  22.743   2.796
71971W        W38380  42.772  22.035  11.591
71972W        W38381  36.681  32.897  13.853
71973W        W38382  18.088  19.797  10.682
71974W        W38383  28.785   2.707  13.525
71975W        W38384  10.850  41.475   0.654
71976W        W38385  34.804  35.378   2.966
71977W        W38386  38.826  25.593   1.311
71978W        W38387  28.366  44.902   3.256
71979W        W38388   0.481  31.130  13.550
71980W        W38389  33.421  18.469  14.015
71981W        W38390  29.527  41.233  14.403
71982W        W38391  27.046  37.496  13.881
71983W        W38392  28.711  34.603  11.986
71984W        W38393  34.874   2.247   1.373
71985W        W38394  12.100  44.909  14.449
71986W        W38395  21.665  39.296   0.926
71987W        W38396  42.924  37.303   0.954
71988W        W38397  40.065  31.682   0.924
71989W        W38398   3.423  27.613  11.446
71990W        W38399  14.562  25.091  12.014
71991W        W38400   8.338  21.211  14.378
71992W        W38401   0.371  10.970   1.885
71993W        W38402   2.990   1.711   3.658
71994W        W38403  28.738  23.838   1.821
71995W        W38404  15.298   9.748  12.980
71996W        W38405  44.996  40.031  14.274
71997W        W38406  31.473  40.462  11.440
71998W        W38407  23.592   8.312   0.029
71999W        W38408  18.314  20.658  13.318
72000W        W38409  27.670  32.421  14.888
72001W        W38410  20.540  20.213   1.174
72002W        W38411  16.723  42.270   2.858
72003W        W38412  42.042  27.221  11.264
72004W        W38413   3.224  36.595   2.764
72005W        W38414   7.851  28.111   5.428
72006W        W38415  36.967   0.711  14.134
72007W        W38416  24.149  44.138   3.748
72008W        W38417   6.678  21.110   1.409
72009W        W38418   4.687   0.472  13.838
72010W        W38419  35.350  14.159   4.225
72011W        W38420  10.974  15.247   1.818
72012W        W38421  20.009  31.261  14.856
72013W        W38422   6.684  14.342   4.235
72014W        W38423  40.076  34.435   3.065
72015W        W38424  29.715  28.301  11.862
72016W        W38425  31.622   5.389  12.599
72017W        W38426  15.442   5.793  13.783
72018W        W38427  17.704  43.181   3.839
72019W        W38428  27.511  15.093  14.890
72020W        W38429   7.186  40.865  14.095
72021W        W38430  40.038  25.463   2.721
72022W        W38431   9.635  34.570   2.885
72023W        W38432  15.289  23.071   3.202
72024W        W38433  31.414  31.491  11.257
72025W        W38434  36.078  10.283  13.249
72026W        W38435  29.039   5.694   4.775
72027W        W38436   0.908  28.675  11.951
72028W        W38437  14.556  10.348  14.274
72029W        W38438  30.106  43.581   3.335
72030W        W38439  10.744  35.357  10.695
72031W        W38440   5.325  21.171  10.177
72032W        W38441   8.317  24.119  13.903
72033W        W38442  38.153  18.335  11.585
72034W        W38443  19.041  16.272  11.598
72035W        W38444  17.090  30.550  10.292
72036W        W38445  18.108  14.288   2.069
72037W        W38446   5.772  27.570  14.113
72038W        W38447  40.326  35.885   5.344
72039W        W38448   8.866  17.024   4.544
72040W        W38449  19.815  28.012  13.525
72041W        W38450  35.438  26.139  13.375
72042W        W38451  18.832  10.813  10.390
72043W        W38452  44.651  16.255   4.378
72044W        W38453  20.070  44.169   3.205
72045W        W38454   5.096   8.424   2.895
72046W        W38455  39.259  23.183  11.521
72047W        W38456  24.016  36.090  13.891
72048W        W38457  16.823  43.810  11.559
72049W        W38458  43.440  19.097   3.326
72050W        W38459  11.881  38.326   4.037
72051W        W38460  23.055   5.188  11.483
72052W        W38461  44.379  19.100   0.432
72053W        W38462  20.103  19.779   1.721
72054W        W38463  12.088  44.524   0.726
72055W        W38464  13.942  35.884   3.827
72056W        W38465  43.773  35.816  12.379
72057W        W38466  36.288  40.430  12.606
72058W        W38467  25.839  25.947   1.963
72059W        W38468  16.582  29.402  12.281
72060W        W38469  34.863  35.921   2.904
72061W        W38470  38.150  40.183  13.399
72062W        W38471  43.854  26.557  12.361
72063W        W38472  32.278  15.712   4.080
72064W        W38473  37.070  18.090   5.402
72065W        W38474  28.293  11.824  10.570
72066W        W38475  35.327   0.609  10.728
72067W        W38476   9.638   3.045   3.693
72068W        W38477  28.494  40.509  10.685
72069W        W38478  22.997  33.722   9.906
72070W        W38479  25.847   7.848   2.342
72071W        W38480   1.732  21.021   2.708
72072W        W38481   9.881   0.482   1.007
72073W        W38482  24.902  18.739  12.596
72074W        W38483  20.224  13.783  11.377
72075W        W38484  20.263   7.875  13.454
72076W        W38485  41.517   6.227   4.270
72077W        W38486  23.678  20.461  14.023
72078W        W38487  21.036  43.226   0.192
72079W        W38488  37.171  30.847   3.236
72080W        W38489  26.643  14.790   2.176
72081W        W38490  29.658  25.626   0.293
72082W        W38491  21.767  27.874  10.274
72083W        W38492  27.194   3.898   4.438
72084W        W38493  23.171  13.415   1.827
72085W        W38494  30.394  41.321   3.639
72086W        W38495  17.852  10.244   3.134
72087W        W38496  21.519   5.710   2.050
72088W        W38497  21.189  40.316   2.021
72089W        W38498  13.208  18.309   4.693
72090W        W38499  13.187  14.335  10.470
72091W        W38500  34.869  31.416  12.624
72092W        W38501  18.543  44.062  12.964
72093W        W38502  19.687  29.466   2.348
72094W        W38503  36.516  11.335   1.166
72095W        W38504  21.598  44.859   3.520
72096W        W38505   0.127   0.731   0.024
72097W        W38506   1.315  15.347  12.486
72098W        W38507  21.084  36.690  12.353
72099W        W38508  43.732  35.124   2.879
72100W        W38509  36.572  25.651  13.954
72101W        W38510  30.852  28.430  14.207
72102W        W38511  14.253   7.439  11.564
72103W        W38512  12.652  41.601   0.282
72104W        W38513  14.851   1.926   5.323
72105W        W38514  22.225   8.681  10.766
72106W        W38515  28.104  25.921  11.500
72107W        W38516   0.307  30.925   2.099
72108W        W38517  36.045   4.440   3.751
72109W        W38518  36.519  30.237   0.362
72110W        W38519  35.243  29.111  11.901
72111W        W38520  29.867  40.917  10.542
72112W        W38521  28.756  33.744  13.552
72113W        W38522  11.312   7.273   2.633
72114W        W38523   5.354  37.391  12.474
72115W        W38524  42.776  16.835  13.873
72116W        W38525  39.419  43.592  14.581
72117W        W38526   1.404  18.680   3.375
72118W        W38527  26.577  26.713  11.858
72119W        W38528  30.662  15.791  12.617
72120W        W38529   4.901  37.582  13.416
72121W        W38530  11.929  33.597  14.407
72122W        W38531  34.265  20.191  13.007
72123W        W38532  24.924  42.588  12.945
72124W        W38533  10.407  15.318   0.363
72125W        W38534  30.389  12.546  11.314
72126W        W38535  29.947  25.793   2.283
72127W        W38536   6.904  35.880  12.055
72128W        W38537  29.057  18.319   1.267
72129W        W38538  22.875   5.161  13.800
72130W        W38539  35.860   5.847   4.673
72131W        W38540  40.519   8.876  12.126
72132W        W38541   9.045  18.642   4.957
72133W        W38542  16.815  24.076   0.731
72134W        W38543  17.753   1.996   2.677
72135W        W38544  20.641  27.197  14.713
72136W        W38545  16.173  41.558  12.471
72137W        W38546   3.344   3.515   1.371
72138W        W38547  41.063   6.333  12.397
72139W        W38548  20.105  32.643  12.579
72140W        W38549  26.049  13.310  12.467
72141W        W38550  41.732  23.713   2.189
72142W        W38551  44.968  23.626  12.402
72143W        W38552  10.732  17.887  12.171
72144W        W38553  26.952  12.613   1.887
72145W        W38554  14.368  12.704   1.495
72146W        W38555   4.492  39.770  11.635
72147W        W38556  38.580  24.613   0.355
72148W        W38557  38.850  25.610  13.438
72149W        W38558   3.937  11.944   4.507
72150W        W38559  32.960   5.315  14.348
72151W        W38560   9.922  31.108   2.224
72152W        W38561   1.162   8.288   0.453
72153W        W38562  10.591  16.072   3.251
72154W        W38563   5.867  32.099   4.630
72155W        W38564  27.190  28.167   2.969
72156W        W38565   9.867  20.248   1.912
72157W        W38566  41.531  40.801  10.783
72158W        W38567  24.562  27.280  10.714
72159W        W38568  38.061   8.167  12.081
72160W        W38569  38.449   9.639   1.456
72161W        W38570  16.287  29.843  11.632
72162W        W38571   4.718   9.787   3.399
72163W        W38572   3.776  34.592  12.063
72164W        W38573  35.951   9.531  13.881
72165W        W38574   8.898  30.096  13.032
72166W        W38575  11.852  26.134   2.264
72167W        W38576  32.806  43.952   3.125
72168W        W38577   9.122   6.421   2.866
72169W        W38578  39.892  25.098   2.169
72170W        W38579  19.608  24.025  12.583
72171W        W38580  31.659   1.959   0.014
72172W        W38581  12.405  42.499   0.710
72173W        W38582   7.709  29.163   1.373
72174W        W38583  15.881  15.303  14.227
72175W        W38584  12.230  37.356   2.448
72176W        W38585   2.264  38.114   2.111
72177W        W38586   1.636   5.885  14.937
72178W        W38587  28.744  18.707  13.751
72179W        W38588  22.460  21.940   4.324
72180W        W38589   1.858  38.414   0.162
72181W        W38590  17.301  22.043  13.124
72182W        W38591  13.702  13.773   2.674
72183W        W38592  44.829  31.598  14.827
72184W        W38593  42.567  28.932  12.956
72185W        W38594  18.813   6.359  11.022
72186W        W38595  33.402  28.437   3.979
72187W        W38596  23.184  36.465   1.298
72188W        W38597   7.660  29.674   1.270
72189W        W38598  11.280  17.479  14.504
72190W        W38599  19.070  36.445  14.137
72191W        W38600  36.103   4.862  12.410
72192W        W38601  34.446  21.187   1.201
72193W        W38602  13.110  14.767  13.125
72194W        W38603  27.937  26.649   3.193
72195W        W38604  34.868  43.048  13.090
72196W        W38605  21.714  19.051  13.308
72197W        W38606  40.830  14.085   4.059
72198W        W38607   8.132  14.591  13.449
72199W        W38608  12.750   0.676   0.657
72200W        W38609  26.720   1.487   1.655
72201W        W38610  35.866  36.192   1.516
72202W        W38611   9.905  17.041   0.785
72203W        W38612  30.184  14.215  14.402
72204W        W38613  21.777  25.664  14.834
72205W        W38614  11.239  38.748   4.509
72206W        W38615  15.906  30.058   2.241
72207W        W38616  20.593   7.398   3.176
72208W        W38617  29.590   8.607   4.915
72209W        W38618  14.559  32.535   2.443
72210W        W38619  30.442  38.329   3.823
72211W        W38620  26.039  24.635   4.469
72212W        W38621   8.504  22.670   1.955
72213W        W38622  23.641  28.872  12.899
72214W        W38623  33.355   5.652  14.315
72215W        W38624  42.850  27.685  11.117
72216W        W38625  24.705  15.251  13.831
72217W        W38626  14.101   0.941  12.620
72218W        W38627  12.720  37.100  11.089
72219W        W38628   7.742   0.620  11.074
72220W        W38629  24.184  19.017  11.140
72221W        W38630   9.797  26.171   0.214
72222W        W38631  36.126   9.753  10.676
72223W        W38632  12.367  13.231  12.632
72224W        W38633  14.078  28.341  10.805
72225W        W38634  11.896  22.969   0.304
72226W        W38635  40.193  30.369   2.228
72227W        W38636   1.814  21.842   1.684
72228W        W38637   2.811  43.717   0.788
72229W        W38638  29.657  26.577   1.910
72230W        W38639  11.745  43.239   2.837
72231W        W38640  23.441  16.060   0.903
72232W        W38641  13.850   0.251  14.796
72233W        W38642  44.927  30.396  11.607
72234W        W38643  23.534  25.726   4.173
72235W        W38644   0.185  30.943   1.239
72236W        W38645  41.557   7.345   0.864
72237W        W38646  13.721   0.211   4.576
72238W        W38647  10.067  12.345  13.978
72239W        W38648  26.414  41.822  12.555
72240W        W38649  36.920  24.085  14.877
72241W        W38650  28.077   8.836   1.802
72242W        W38651  10.296  35.819   2.799
72243W        W38652  24.181  20.787  12.258
72244W        W38653   1.987  22.518   1.159
72245W        W38654  44.798  39.358   3.254
72246W        W38655  18.754   0.836   2.886
72247W        W38656  12.636  23.074   3.801
72248W        W38657  28.152  18.600  11.660
72249W        W38658   6.210  12.272  10.597
72250W        W38659  26.597  35.313  11.609
72251W        W38660  27.184   6.426  13.698
72252W        W38661  27.465  19.630  13.561
72253W        W38662  38.432  12.811  11.455
72254W        W38663  40.714  37.753   3.245
72255W        W38664   8.355   4.957   0.029
72256W        W38665  28.186  28.593  13.912
72257W        W38666  36.959  29.564  13.988
72258W        W38667  34.482  18.272   2.809
72259W        W38668  21.015  22.215  14.922
72260W        W38669   0.711   1.133   4.159
72261W        W38670  35.666  25.468   2.671
72262W        W38671  16.067  11.813   3.623
72263W        W38672  28.981  42.355   0.188
72264W        W38673  37.553   8.106  11.978
72265W        W38674  33.075  25.267  10.281
72266W        W38675  15.931  10.900   2.102
72267W        W38676   3.646  36.811   3.701
72268W        W38677  20.556  23.558  13.896
72269W        W38678  19.147  22.217   1.315
72270W        W38679   4.242  41.283   4.184
72271W        W38680   8.361  11.347  13.091
72272W        W38681  42.939  25.808  14.533
72273W        W38682  17.814  34.346  13.844
72274W        W38683   7.775  41.796  14.835
72275W        W38684   2.149  28.819  10.900
72276W        W38685  34.357  11.286   4.170
72277W        W38686  33.389  14.060  11.438
72278W        W38687  27.064  42.791  10.761
72279W        W38688  17.700   2.798   4.744
72280W        W38689  41.059  38.224  12.482
72281W        W38690  23.182  44.734   0.858
72282W        W38691  35.771  17.553  11.046
72283W        W38692  32.459  16.526  11.931
72284W        W38693  11.807  23.077   5.369
72285W        W38694  28.679  32.915  13.780
72286W        W38695  28.178   2.689   0.449
72287W        W38696  43.453  14.602  11.982
72288W        W38697  39.291  31.357  13.865
72289W        W38698   2.687  26.555   0.353
72290W        W38699   8.919  42.702  14.932
72291W        W38700   6.359  28.542   3.273
72292W        W38701  40.018   7.665   3.141
72293W        W38702   6.493   2.141  11.629
72294W        W38703   8.709   4.129   2.260
72295W        W38704  36.327  15.105  12.459
72296W        W38705  30.930   2.147   0.360
72297W        W38706   2.464  36.415   1.186
72298W        W38707  43.375  40.072  12.405
72299W        W38708  37.472  40.280  12.578
72300W        W38709  30.393  33.966   3.274
72301W        W38710   4.077  33.932  14.243
72302W        W38711  40.541   6.212  13.456
72303W        W38712  38.777  27.715   5.000
72304W        W38713  29.712  29.785  13.984
72305W        W38714  41.899  44.910  14.359
72306W        W38715  22.719  42.576   0.696
72307W        W38716  38.532   0.911  11.407
72308W        W38717  23.567  40.882   3.413
72309W        W38718  10.028   4.621  14.206
72310W        W38719   4.104  29.394  13.921
72311W        W38720  24.533  36.626   3.028
72312W        W38721  16.830  10.563   0.230
72313W        W38722  29.647  43.839   2.635
72314W        W38723  14.166  15.291   1.708
72315W        W38724   9.287  43.045   3.830
72316W        W38725   1.824  20.383   4.167
72317W        W38726   9.765   7.178   0.880
72318W        W38727  40.362  21.417   3.206
72319W        W38728  21.210  43.000   3.177
72320W        W38729  34.675  42.970  13.586
72321W        W38730   0.520  32.685   0.266
72322W        W38731  11.088   5.062   9.900
72323W        W38732  31.145  10.362   4.200
72324W        W38733  37.827  31.156  12.621
72325W        W38734  38.930  10.787   2.779
72326W        W38735   7.132  31.663   2.722
72327W        W38736   9.825  24.128   4.581
72328W        W38737  14.580  27.718   3.488
72329W        W38738  21.948  14.659  13.067
72330W        W38739  22.479  30.629  10.869
72331W        W38740  35.639  21.015  13.817
72332W        W38741   9.143  40.850  11.790
72333W        W38742  40.102  13.370   2.694
72334W        W38743  36.442  13.131  12.996
72335W        W38744  27.671  18.731   2.612
72336W        W38745  12.492  43.961   1.249
72337W        W38746  11.761   9.200  13.452
72338W        W38747  19.501   9.254   1.712
72339W        W38748   4.000   8.595  10.761
72340W        W38749  18.172  42.681   1.578
72341W        W38750  44.929  13.159  14.825
72342W        W38751  21.783  20.697   1.433
72343W        W38752  43.294  24.370   0.901
72344W        W38753  19.297  26.019  11.606
72345W        W38754  17.739  23.499   1.423
72346W        W38755   1.972  19.483  11.175
72347W        W38756  38.421  10.702   1.439
72348W        W38757  21.779  29.953   1.906
72349W        W38758   2.174  15.305   3.741
72350W        W38759   2.435   8.182  14.031
72351W        W38760  37.032  16.121   3.049
72352W        W38761  39.930  32.441  14.402
72353W        W38762   2.768  42.542   1.474
72354W        W38763  22.577  24.217   3.647
72355W        W38764  32.066   5.509   5.503
72356W        W38765   1.955  16.707   4.061
72357W        W38766  19.662   5.900  11.815
72358W        W38767   5.120  22.780  13.744
72359W        W38768  34.496  32.205   0.954
72360W        W38769  42.329   1.908   1.792
72361W        W38770  19.566  40.439  11.564
72362W        W38771  34.340  41.979  12.590
72363W        W38772  10.857  29.230   2.636
72364W        W38773  10.342  39.577   3.734
72365W        W38774  29.267  32.394   3.438
72366W        W38775   1.286   0.014  13.885
72367W        W38776   0.834   3.636   0.774
72368W        W38777   7.609  14.768   4.224
72369W        W38778  11.550  34.081   4.670
72370W        W38779  28.992  18.564  14.948
72371W        W38780  21.035   2.462  13.256
72372W        W38781   4.749  37.587   4.230
72373W        W38782  15.853  32.599   3.415
72374W        W38783  17.175   7.405   1.382
72375W        W38784  41.750  41.900   4.518
72376W        W38785   8.067  12.585  11.499
72377W        W38786   5.785   7.435   4.189
72378W        W38787  10.777   4.237  13.368
72379W        W38788  33.429  19.977  12.371
72380W        W38789  30.762  38.184   2.854
72381W        W38790  38.186  40.147   3.772
72382W        W38791  28.221  16.117   4.612
72383W        W38792  27.917  28.863   1.614
72384W        W38793   5.260  10.225  14.266
72385W        W38794  41.441  32.805   0.719
72386W        W38795  35.750  12.721  12.882
72387W        W38796  37.993  30.162   0.033
72388W        W38797  36.432  14.701  13.996
72389W        W38798  10.630  10.772  11.925
72390W        W38799  17.122  27.465  13.495
72391W        W38800   9.858   9.791   2.733
72392W        W38801  31.417   6.244  11.135
72393W        W38802   5.338   0.813  13.801
72394W        W38803  39.089  41.268   2.630
72395W        W38804  12.218  21.228  12.385
72396W        W38805  23.533  15.023   2.397
72397W        W38806  23.778  19.696  10.729
72398W        W38807  35.130  13.752   2.790
72399W        W38808  18.677  29.503  12.363
72400W        W38809  42.998  16.358   4.505
72401W        W38810  42.766  25.549   4.090
72402W        W38811  35.270  19.613  13.623
72403W        W38812  31.173  30.571   1.381
72404W        W38813   5.311   1.693   0.306
72405W        W38814  18.623  22.719  12.827
72406W        W38815  37.464  37.765   1.823
72407W        W38816  35.675  21.074   1.253
72408W        W38817  30.171   2.884   1.812
72409W        W38818  44.950  15.938  11.074
72410W        W38819  17.219  30.489   0.440
72411W        W38820   0.741  42.473  14.918
72412W        W38821  30.406  13.328  14.151
72413W        W38822  36.608  23.816   3.179
72414W        W38823   7.454  38.556   0.603
72415W        W38824  32.275  42.434  11.491
72416W        W38825   8.748  16.069  13.878
72417W        W38826  26.956   3.964   2.272
72418W        W38827  33.558  10.683   1.172
72419W        W38828  31.074  43.391  14.414
72420W        W38829  37.621  30.811  11.183
72421W        W38830  42.408  12.824   1.027
72422W        W38831  17.831  19.158   2.671
72423W        W38832  23.904   2.257   3.291
72424W        W38833  25.569  19.434   5.110
72425W        W38834  22.627  37.547  11.732
72426W        W38835  25.303  42.275  12.546
72427W        W38836  20.036  44.535  11.537
72428W        W38837  30.506   2.913   2.688
72429W        W38838  40.056  32.646  10.642
72430W        W38839  38.685  27.413   0.655
72431W        W38840  26.155  39.759  14.895
72432W        W38841  38.064  34.528  11.484
72433W        W38842  26.418  25.423   0.080
72434W        W38843  26.055  35.870   1.998
72435W        W38844  29.023  31.903   0.794
72436W        W38845  40.153  15.563   2.330
72437W        W38846  18.895  39.064   4.158
72438W        W38847  33.525  18.034  12.532
72439W        W38848   4.156  10.980   3.570
72440W        W38849  43.261   2.028  12.212
72441W        W38850  38.241  35.457  12.929
72442W        W38851   4.874  39.582  12.407
72443W        W38852  12.334  10.892  14.327
72444W        W38853  22.551  34.493  14.354
72445W        W38854   7.917  21.741   1.342
72446W        W38855  26.481   2.435   3.348
72447W        W38856  22.806  39.043  11.983
72448W        W38857  10.384  10.911   3.180
72449W        W38858  23.243  25.242   3.680
72450W        W38859  25.013  27.499  14.939
72451W        W38860  30.640  31.593  11.908
72452W        W38861  28.672   0.852  14.244
72453W        W38862  44.583  42.921  10.548
72454W        W38863  33.336  24.856  12.637
72455W        W38864  41.706   9.584   3.135
72456W        W38865  19.077  27.677  12.498
72457W        W38866  34.336  33.088   3.672
72458W        W38867   8.353  36.087  12.997
72459W        W38868   4.140  39.289   2.838
72460W        W38869  41.346  15.240  10.268
72461W        W38870   1.725  33.932  14.258
72462W        W38871  26.472  15.654  11.260
72463W        W38872  44.276   7.667   3.642
72464W        W38873  32.855  18.355  11.968
72465W        W38874  29.842  26.621  10.234
72466W        W38875  43.273   6.463  10.704
72467W        W38876  28.510  11.374  11.266
72468W        W38877  41.411  10.103  13.043
72469W        W38878  13.085  26.156  13.392
72470W        W38879   5.901  32.872  14.228
72471W        W38880  17.576  12.247   4.222
72472W        W38881  10.814  13.846   4.263
72473W        W38882   3.547   0.974  13.535
72474W        W38883  42.434  29.819  10.845
72475W        W38884  21.019  12.307  14.441
72476W        W38885  32.151  32.652   3.761
72477W        W38886  30.007  10.855  11.520
72478W        W38887   9.635  15.314  12.420
72479W        W38888  40.272  34.528   0.510
72480W        W38889  31.456  40.549  12.558
72481W        W38890  43.839  13.698   0.065
72482W        W38891  36.014   8.872   0.945
72483W        W38892  18.143  23.611   4.141
72484W        W38893  35.893  23.505   3.923
72485W        W38894   0.670  14.409   0.939
72486W        W38895  27.695  34.995  10.738
72487W        W38896  33.740  21.459   0.969
72488W        W38897  39.456  19.914  12.732
72489W        W38898   0.598  11.876  10.385
72490W        W38899  23.973  25.955   1.886
72491W        W38900  42.317  27.928  14.792
72492W        W38901  34.063  19.332  11.122
72493W        W38902  20.786  35.010   3.740
72494W        W38903  20.493  41.908  12.642
72495W        W38904   1.990  14.192   4.422
72496W        W38905  19.785  28.079   4.660
72497W        W38906  11.317  14.705  13.190
72498W        W38907  42.361   3.174  14.930
72499W        W38908  14.766  17.302  14.557
72500W        W38909   8.315  13.220   1.634
72501W        W38910  21.703   4.606   4.538
72502W        W38911  21.338  16.174   2.213
72503W        W38912  27.030  26.208  12.964
72504W        W38913   1.000  42.636  10.699
72505W        W38914  30.895  27.912   3.260
72506W        W38915  11.933   3.729   1.750
72507W        W38916  40.560  43.154   0.951
72508W        W38917  29.639  31.555   1.799
72509W        W38918   4.297   9.236  12.365
72510W        W38919  12.119  30.160  13.327
72511W        W38920  37.374   5.227  11.782
72512W        W38921  33.135  41.780   2.710
72513W        W38922  15.875   0.215   2.348
72514W        W38923  35.054  37.187  13.465
72515W        W38924  35.328  34.837  11.108
72516W        W38925  37.130  28.078   4.980
72517W        W38926  36.211  12.802   9.747
72518W        W38927  35.632  10.071   2.708
72519W        W38928  10.148  25.516  14.497
72520W        W38929  14.799  12.283  11.628
72521W        W38930  24.930  27.490   4.725
72522W        W38931  42.311  33.616   2.321
72523W        W38932   5.929  13.211   3.395
72524W        W38933  30.131  41.490   0.245
72525W        W38934   2.397  15.037  10.797
72526W        W38935  11.503   9.835  11.606
72527W        W38936  21.477  21.776  12.449
72528W        W38937   5.869  28.568   3.151
72529W        W38938  39.944  20.535   4.150
72530W        W38939  39.524  27.059   4.671
72531W        W38940  42.842  34.212   1.487
72532W        W38941  22.844  23.218  12.105
72533W        W38942  16.588   5.929   1.645
72534W        W38943  43.810  26.447  14.521
72535W        W38944  19.068  42.976   3.307
72536W        W38945  35.311  43.185   2.197
72537W        W38946  35.643  39.035   4.729
72538W        W38947  24.853  33.608   0.405
72539W        W38948  12.762   5.289  10.449
72540W        W38949  16.055   6.501  12.089
72541W        W38950   0.302  21.305  11.922
72542W        W38951  19.732  14.722   0.649
72543W        W38952   4.501  28.845  13.561
72544W        W38953  15.514  17.690  10.982
72545W        W38954  26.531  37.394   0.324
72546W        W38955  17.193  26.727  13.067
72547W        W38956   7.841  29.397  12.611
72548W        W38957  14.951  15.557   1.068
72549W        W38958  35.071  13.245   0.259
72550W        W38959  12.381   0.954   3.144
72551W        W38960  27.894  21.549   4.633
72552W        W38961  15.580  21.432  13.526
72553W        W38962  14.691  20.779   3.704
72554W        W38963  19.311  21.989   0.792
72555W        W38964   8.915  16.657  10.621
72556W        W38965  31.077   0.213   0.242
72557W        W38966  10.621  25.681  14.500
72558W        W38967  15.214  24.578   4.333
72559W        W38968   5.538  11.464  14.240
72560W        W38969  40.800  15.875  11.185
72561W        W38970   4.304  22.750   4.167
72562W        W38971   7.849   7.590   2.322
72563W        W38972  16.409   1.695   1.103
72564W        W38973  19.927   4.322  14.397
72565W        W38974  42.609  39.960   4.681
72566W        W38975  35.986   6.751  11.588
72567W        W38976  18.245   6.319   2.872
72568W        W38977   2.360   6.179   3.262
72569W        W38978   6.299  32.194  12.793
72570W        W38979   8.687  41.940  14.549
72571W        W38980  44.440  35.855  12.075
72572W        W38981  16.982  13.376  12.615
72573W        W38982   4.299  22.052  10.117
72574W        W38983  24.539  38.322   1.246
72575W        W38984  18.028  28.428  14.819
72576W        W38985  23.773  31.503   1.262
72577W        W38986  20.139   5.965  12.626
72578W        W38987  18.555  28.489   2.944
72579W        W38988  38.859  34.764   9.913
72580W        W38989  21.407  30.483  13.197
72581W        W38990  17.726  21.524  12.560
72582W        W38991  21.178  11.367   2.897
72583W        W38992  23.038   0.190  13.311
72584W        W38993  13.514  23.492   3.762
72585W        W38994  18.803  44.719   3.657
72586W        W38995  37.776   1.425   1.884
72587W        W38996   7.969  15.634   2.227
72588W        W38997  27.297  19.513   2.304
72589W        W38998   0.596  18.794   0.501
72590W        W38999  26.119   1.875   2.195
72591W        W39000  35.506  17.030  14.955
72592W        W39001  17.322  19.040   1.645
72593W        W39002  42.446  23.908  14.553
72594W        W39003  38.985   1.509  12.526
72595W        W39004  39.518  16.240   3.173
72596W        W39005  30.516   1.397  12.022
72597W        W39006   1.204  10.205  12.337
72598W        W39007  39.798   6.864  13.812
72599W        W39008  36.174  44.367  10.745
72600W        W39009  16.288  14.034   4.840
72601W        W39010   8.612  24.538  13.818
72602W        W39011  30.479  41.114   0.218
72603W        W39012  19.464  41.868  10.748
72604W        W39013   0.846  38.008   3.693
72605W        W39014  15.325  43.516   2.619
72606W        W39015  30.949  13.463  14.918
72607W        W39016  22.767  33.959  12.443
72608W        W39017   1.739  27.975   3.655
72609W        W39018   8.648  37.047   3.340
72610W        W39019   4.417   9.419   0.422
72611W        W39020  38.940  34.255  11.786
72612W        W39021  37.990   7.829  13.966
72613W        W39022  24.243  14.111   0.833
72614W        W39023  18.528  41.318   1.206
72615W        W39024   5.258   5.952   1.886
72616W        W39025  43.200  31.654   4.730
72617W        W39026  36.428  41.349   4.573
72618W        W39027  34.399   3.274   1.632
72619W        W39028  22.762  24.713  12.475
72620W        W39029  26.598  23.283  14.174
72621W        W39030  38.497   4.563  10.753
72622W        W39031  12.551  42.370   3.179
72623W        W39032  42.003   5.350   3.099
72624W        W39033  18.045  15.480   3.226
72625W        W39034   3.257  13.028  11.952
72626W        W39035  22.082  37.562   1.039
72627W        W39036  15.320  39.529   3.668
72628W        W39037   8.920   0.437   4.681
72629W        W39038  17.690  28.248   1.817
72630W        W39039   9.812  32.443   1.618
72631W        W39040  17.972  12.891   0.855
72632W        W39041   9.551  11.929   3.303
72633W        W39042  11.129  37.052  14.069
72634W        W39043   8.768   7.153  12.589
72635W        W39044  10.735  16.053   1.117
72636W        W39045  38.532   8.199  14.974
72637W        W39046  40.084   9.207  13.294
72638W        W39047  38.659  20.524   3.368
72639W        W39048   3.249  32.938  11.833
72640W        W39049   9.800  14.613   0.923
72641W        W39050  24.929  22.084   2.261
72642W        W39051   0.690   8.900   1.445
72643W        W39052   6.231  41.914   4.944
72644W        W39053   1.553   5.406   3.351
72645W        W39054  27.077   2.815  13.932
72646W        W39055   1.710  29.093  10.720
72647W        W39056  27.224  26.886   2.209
72648W        W39057  42.533   5.703  13.425
72649W        W39058  20.583  42.799   4.219
72650W        W39059  19.274   3.365  12.817
72651W        W39060  22.586  32.589   3.881
72652W        W39061   0.082  43.982   2.846
72653W        W39062  32.227   0.764  12.983
72654W        W39063   8.213  22.680  13.517
72655W        W39064  23.906  27.166   3.351
72656W        W39065  14.061  30.504   2.178
72657W        W39066  25.954  33.634   2.509
72658W        W39067  11.218  14.986  11.599
72659W        W39068  19.531   0.705  12.071
72660W        W39069  15.172  44.374  13.307
72661W        W39070  34.232  21.581   0.909
72662W        W39071  19.645  33.296   2.476
72663W        W39072  43.224  13.694  10.466
72664W        W39073  22.514  28.587  11.210
72665W        W39074  18.101   9.363   4.634
72666W        W39075   3.266  32.440  13.939
72667W        W39076  38.560  24.567  14.462
72668W        W39077  43.446  24.771   4.116
72669W        W39078  34.153  40.812   4.018
72670W        W39079   0.709   5.439   3.952
72671W        W39080   8.374  42.637   0.991
72672W        W39081  41.744   5.141  11.097
72673W        W39082  44.418  28.370  10.717
72674W        W39083  12.160  23.449  13.424
72675W        W39084  34.712   1.983  11.538
72676W        W39085  14.903  16.166   4.510
72677W        W39086   3.491  23.967   0.950
72678W        W39087   1.666  33.976   0.774
72679W        W39088  35.570  14.692  11.858
72680W        W39089  34.821   7.359  14.254
72681W        W39090   0.341  23.728  12.008
72682W        W39091   3.399  42.307  12.368
72683W        W39092   5.840   8.272  14.992
72684W        W39093  32.886  17.923   4.036
72685W        W39094   4.369   5.969  10.693
72686W        W39095  43.473  39.810  10.924
72687W        W39096  41.538  28.616   2.489
72688W        W39097  24.714  27.684  14.072
72689W        W39098  18.249  39.635   4.568
72690W        W39099  42.505  11.960   4.068
72691W        W39100   6.388  14.273   1.416
72692W        W39101  27.696  44.091   0.819
72693W        W39102   3.785   7.479  12.400
72694W        W39103  44.024  26.510   4.533
72695W        W39104  41.276  11.068  11.596
72696W        W39105  38.594   9.220  10.746
72697W        W39106  24.430  32.407   1.874
72698W        W39107  23.572   1.385   1.820
72699W        W39108  40.842  28.469   0.995
72700W        W39109  30.441   1.303   2.379
72701W        W39110  11.613  20.980   0.760
72702W        W39111   5.931  19.736  12.482
72703W        W39112  11.156  10.017  12.118
72704W        W39113  42.253   1.812   4.679
72705W        W39114  29.537  23.320   2.852
72706W        W39115  18.534  44.267   3.568
72707W        W39116  29.639  14.729   2.718
72708W        W39117  20.059  19.464   0.842
72709W        W39118   9.062  22.504   3.654
72710W        W39119   7.607  14.670   2.274
72711W        W39120  26.402   0.551   4.077
72712W        W39121  18.335  24.864   3.250
72713W        W39122  39.582  41.919  12.596
72714W        W39123  15.074   7.208  13.803
72715W        W39124  20.154  38.985  13.728
72716W        W39125  25.440  22.987  12.607
72717W        W39126  35.402  31.714  13.483
72718W        W39127   0.753  23.593  13.092
72719W        W39128  32.517  15.274  11.465
72720W        W39129  13.684  18.562  10.344
72721W        W39130  44.329  28.063   2.000
72722W        W39131  19.328  14.059   3.668
72723W        W39132   7.776   3.048  12.001
72724W        W39133   2.442  23.975   0.655
72725W        W39134  40.606  42.276   0.735
72726W        W39135  30.428  28.026  12.364
72727W        W39136  30.176  33.052   3.663
72728W        W39137  44.052   6.335   1.296
72729W        W39138  40.038  24.454   0.437
72730W        W39139   4.694   8.601  13.817
72731W        W39140  38.051  21.106   2.862
72732W        W39141  29.071   3.592   0.889
72733W        W39142  24.930  20.964   9.783
72734W        W39143  13.311  40.061  14.420
72735W        W39144  14.413  29.662   1.245
72736W        W39145  20.558  34.396   4.498
72737W        W39146  25.548  19.969   5.046
72738W        W39147   6.974  10.620   2.693
72739W        W39148  14.845   0.897   9.733
72740W        W39149   9.441  25.954   2.175
72741W        W39150  26.435  26.768  10.576
72742W        W39151  24.509  41.319  13.442
72743W        W39152  43.962   6.570   4.979
72744W        W39153  32.645  44.314  14.053
72745W        W39154  23.702  14.268   4.658
72746W        W39155  19.481  25.551  11.359
72747W        W39156  16.008  23.237  11.076
72748W        W39157   2.387   3.026   0.686
72749W        W39158  12.183  23.804   0.595
72750W        W39159  41.467  13.296   1.860
72751W        W39160  19.658   2.428  11.119
72752W        W39161  43.767  39.416  12.386
72753W        W39162  27.914  40.285   3.713
72754W        W39163   2.810  12.215  11.515
72755W        W39164  25.593   1.981  12.349
72756W        W39165   8.418  37.366  14.864
72757W        W39166   2.336  41.480   0.783
72758W        W39167   9.912  10.883   2.391
72759W        W39168   9.609   0.859   5.030
72760W        W39169  13.639   2.695   2.887
72761W        W39170  36.590  11.738  11.028
72762W        W39171   8.599  37.193   1.107
72763W        W39172  19.829  31.783   2.102
72764W        W39173  27.413  14.586  13.079
72765W        W39174   4.738  14.080  14.724
72766W        W39175   9.815  39.341   0.709
72767W        W39176  32.636  20.935   4.210
72768W        W39177  38.025  11.554   1.954
72769W        W39178  10.149   1.291  14.372
72770W        W39179  38.017  34.125  11.820
72771W        W39180  35.429  35.420  11.998
72772W        W39181  36.957  27.265  12.693
72773W        W39182  32.955  32.654   2.305
72774W        W39183   3.823  24.056  11.535
72775W        W39184  42.823  15.851   4.524
72776W        W39185  35.180  17.979   5.198
72777W        W39186   8.914   9.701   2.295
72778W        W39187  28.163  33.209   2.091
72779W        W39188  27.618  33.970   1.914
72780W        W39189   5.641   6.855   3.531
72781W        W39190   7.292  33.542  13.750
72782W        W39191   7.873   6.558   2.313
72783W        W39192  39.863   2.849  14.788
72784W        W39193  42.876  42.880   3.312
72785W        W39194   7.162   1.890  14.690
72786W        W39195  21.035  42.541  14.895
72787W        W39196   6.173  26.549  13.047
72788W        W39197  12.815  20.842  11.574
72789W        W39198  19.085  27.701  13.402
72790W        W39199  39.930  15.275  13.036
72791W        W39200   7.227   2.932   1.138
72792W        W39201   6.406  43.793   4.041
72793W        W39202  35.394  35.484  13.516
72794W        W39203   6.639  33.627   0.344
72795W        W39204   1.857   8.795   4.678
72796W        W39205  23.848   4.651  11.062
72797W        W39206  31.471  14.120  13.866
72798W        W39207  36.347  43.803  11.587
72799W        W39208   8.619   7.100  14.356
72800W        W39209  13.662  39.790  13.100
72801W        W39210   6.266  31.948  13.778
72802W        W39211  37.456  17.434   3.674
72803W        W39212  12.615  37.429   4.710
72804W        W39213  15.758  10.851   0.326
72805W        W39214  39.285   3.504   2.254
72806W        W39215  37.010  24.639  14.349
72807W        W39216  10.546  42.534  11.970
72808W        W39217  11.719  36.897  14.035
72809W        W39218   6.342  17.611   3.284
72810W        W39219  27.872  25.582   3.288
72811W        W39220  12.224  12.307   4.627
72812W        W39221  37.015  35.677   0.321
72813W        W39222  18.665  34.942   0.688
72814W        W39223   5.261  35.991   4.310
72815W        W39224   6.657  42.067   0.928
72816W        W39225  16.520  38.778   1.403
72817W        W39226  29.341   9.612   0.425
72818W        W39227   4.513  28.997  10.789
72819W        W39228  17.684  15.294   2.357
72820W        W39229   4.222  11.601  13.975
72821W        W39230  11.359  35.649   4.911
72822W        W39231  39.635  33.723  11.425
72823W        W39232  29.658  42.742   1.837
72824W        W39233  28.424  31.965   3.224
72825W        W39234  41.663  32.426  12.516
72826W        W39235  23.146   6.877  13.825
72827W        W39236   8.830  10.185  14.526
72828W        W39237  40.976  19.687   4.674
72829W        W39238  35.110   4.427  10.608
72830W        W39239  32.581   0.238  12.416
72831W        W39240  22.076  29.327  12.530
72832W        W39241  44.012  36.448   3.889
72833W        W39242   1.412  21.301   2.369
72834W        W39243  27.626  19.128   3.832
72835W        W39244  38.891  25.221  13.875
72836W        W39245  28.715  25.439   0.329
72837W        W39246  37.658  17.768   1.219
72838W        W39247  38.530  20.683  10.590
72839W        W39248  33.564  21.754  14.501
72840W        W39249  20.227  22.924  13.343
72841W        W39250  38.149  37.046   3.598
72842W        W39251   0.275  42.932  11.994
72843W        W39252  43.981  23.680   2.337
72844W        W39253   4.561  21.171   3.224
72845W        W39254  40.303   8.227  13.394
72846W        W39255  28.085  19.332  10.610
72847W        W39256  30.581  14.851   1.011
72848W        W39257  25.626   8.939  13.522
72849W        W39258   9.953   5.371   2.775
72850W        W39259  25.927   8.669   2.118
72851W        W39260  16.635  31.183   2.004
72852W        W39261  18.514  31.505  12.988
72853W        W39262  14.738  44.812  12.098
72854W        W39263  40.344  42.746  13.892
72855W        W39264  12.399   7.640   3.678
72856W        W39265  23.667  21.778  13.522
72857W        W39266   2.282  30.510  12.188
72858W        W39267  25.556  14.831   2.241
72859W        W39268   6.876   9.617  14.326
72860W        W39269  21.535  30.081   2.356
72861W        W39270  17.626  23.060  14.504
72862W        W39271  24.605  40.442   3.256
72863W        W39272  16.614  39.593  12.078
72864W        W39273   5.638  20.565   1.752
72865W        W39274  37.225  15.682   2.252
72866W        W39275   6.715  43.584   0.021
72867W        W39276  28.570  30.345   0.249
72868W        W39277  25.486  35.590  10.705
72869W        W39278  42.403  16.551   2.837
72870W        W39279   6.400  17.880   1.330
72871W        W39280  35.094  28.109   4.967
72872W        W39281   9.490  22.083  12.612
72873W        W39282  35.982  15.622   2.925
72874W        W39283  44.971  22.043  14.872
72875W        W39284  28.139  27.679  13.859
72876W        W39285  42.589  27.533   0.048
72877W        W39286  43.431  14.192   0.909
72878W        W39287  27.004  20.376  11.627
72879W        W39288   7.309  36.124   3.195
72880W        W39289  37.330  35.053  14.084
72881W        W39290  15.139   0.518  11.458
72882W        W39291  18.534  14.787   1.895
72883W        W39292  30.114   0.033  14.372
72884W        W39293  38.513  43.482  14.315
72885W        W39294  11.598  10.173  10.965
72886W        W39295  28.989  19.433   1.928
72887W        W39296  40.520   7.497   0.048
72888W        W39297   5.349   5.208  11.637
72889W        W39298  15.378   3.765   4.073
72890W        W39299  25.749  20.467   0.962
72891W        W39300  43.783  27.796  11.682
72892W        W39301  16.371   9.231   4.738
72893W        W39302   7.361   9.611  11.047
72894W        W39303  42.217  32.451   2.445
72895W        W39304   2.767  11.089  10.845
72896W        W39305   1.234  34.372  12.343
72897W        W39306   5.952  23.619   2.116
72898W        W39307   8.096  21.778   3.347
72899W        W39308  19.497  42.830  12.642
72900W        W39309  24.493  37.056   1.796
72901W        W39310  19.723   6.911   4.165
72902W        W39311  32.310   3.938  12.061
72903W        W39312   1.094   3.242  11.146
72904W        W39313  27.433   9.139   0.313
72905W        W39314  37.040  39.604   0.856
72906W        W39315  17.031   4.509  12.923
72907W        W39316  31.392   6.484  14.472
72908W        W39317   0.901  17.961   0.289
72909W        W39318  41.851   1.151  12.906
72910W        W39319  43.987   5.214   2.305
72911W        W39320  43.897  40.465  14.947
72912W        W39321   6.855  26.083   4.549
72913W        W39322  18.283  13.522  14.609
72914W        W39323   8.845  20.681   2.299
72915W        W39324   6.648  26.315   0.234
72916W        W39325  29.490  25.179   1.372
72917W        W39326  40.915  21.004  10.792
72918W        W39327  17.810  23.180   4.538
72919W        W39328  11.761  26.556  11.283
72920W        W39329   4.964   7.285   4.560
72921W        W39330  21.248  16.291  11.418
72922W        W39331  14.796   9.425  14.330
72923W        W39332  18.482   6.690   2.283
72924W        W39333  27.014  29.786  11.413
72925W        W39334  24.152  19.528   4.858
72926W        W39335  23.137  44.555  11.397
72927W        W39336   8.603   1.479  13.427
72928W        W39337   2.946   9.658  14.043
72929W        W39338  39.590   7.789   0.806
72930W        W39339  35.050  38.409  12.922
72931W        W39340  16.640  15.766  11.625
72932W        W39341  21.888  16.750  12.670
72933W        W39342  10.201  35.516  10.258
72934W        W39343  31.894   5.751  14.363
72935W        W39344  27.993  23.396  11.676
72936W        W39345   1.823  35.357   0.474
72937W        W39346  33.540   2.218   2.379
72938W        W39347  41.368  41.321   4.198
72939W        W39348  19.287  19.645  12.602
72940W        W39349  14.662  40.523   3.271
72941W        W39350  19.712   7.895   2.384
72942W        W39351  10.618  17.686   1.363
72943W        W39352  37.414  43.077   2.100
72944W        W39353  12.916   7.277  14.725
72945W        W39354  10.156  10.588   2.809
72946W        W39355  27.171   7.086   9.720
72947W        W39356  32.920  19.605   4.166
72948W        W39357  14.591  19.094   1.396
72949W        W39358  16.696  27.033  12.430
72950W        W39359   1.317  31.046   1.237
72951W        W39360  17.655   1.450  10.687
72952W        W39361  37.972  10.714  14.146
72953W        W39362   2.759  39.365   2.603
72954W        W39363  37.922  29.304  14.758
72955W        W39364  15.193   5.448  11.258
72956W        W39365  24.996   7.763  13.425
72957W        W39366  23.082   8.202   1.271
72958W        W39367  21.466  27.035   1.683
72959W        W39368  41.569  36.453  10.774
72960W        W39369  19.573  30.821  13.844
72961W        W39370   1.735  28.918  14.806
72962W        W39371  26.246  25.099   0.511
72963W        W39372   0.495   1.807   4.666
72964W        W39373   4.249   5.829   4.155
72965W        W39374  41.284  12.496   0.430
72966W        W39375  22.623   5.376   4.579
72967W        W39376  11.374  41.959   4.586
72968W        W39377  18.581  31.135  11.962
72969W        W39378  31.001   7.643  12.498
72970W        W39379  34.658  14.657   2.670
72971W        W39380  16.189  25.950  14.447
72972W        W39381   6.324   1.799  10.753
72973W        W39382   4.490  35.920  11.634
72974W        W39383  34.363   9.641  14.078
72975W        W39384  44.250  36.501   5.078
72976W        W39385  25.704  13.768  14.879
72977W        W39386  38.840   7.190  13.860
72978W        W39387   3.466  39.747   0.912
72979W        W39388  42.392  21.296   4.182
72980W        W39389  11.806  38.097   3.596
72981W        W39390  24.536  15.634   2.856
72982W        W39391  24.663  13.653  11.676
72983W        W39392  44.387  25.626  10.830
72984W        W39393  23.512  10.823  11.705
72985W        W39394  21.307  13.042  14.979
72986W        W39395  32.634   4.516   5.495
72987W        W39396   9.213  17.687   0.275
72988W        W39397  35.902  15.757  13.445
72989W        W39398  44.826  26.747   1.030
72990W        W39399   3.211  17.058   3.787
72991W        W39400  31.222   9.554   3.226
72992W        W39401  33.888   4.381   2.884
72993W        W39402   4.799  31.706   2.780
72994W        W39403  20.383  25.006   4.892
72995W        W39404  37.127   0.543   4.106
72996W        W39405  32.578  32.674   1.155
72997W        W39406   0.108  40.664   1.763
72998W        W39407  29.455   6.085   3.203
72999W        W39408   4.677  12.613  12.096
73000W        W39409  35.432  30.999  14.807
73001W        W39410  37.857  12.653  13.909
73002W        W39411  15.958  26.206  10.419
73003W        W39412   8.797  11.166   1.248
73004W        W39413  41.310   0.721   3.159
73005W        W39414  21.472  18.356  12.073
73006W        W39415  36.410  38.774   4.333
73007W        W39416   2.039  11.832   4.100
73008W        W39417  28.447   7.211   0.745
73009W        W39418  30.143  31.426  14.065
73010W        W39419  22.516   9.156   0.796
73011W        W39420  39.066   0.239   0.723
73012W        W39421  22.636  26.333  11.629
73013W        W39422  24.030  26.095  13.860
73014W        W39423  13.332   5.686  11.512
73015W        W39424  20.187   8.848   1.008
73016W        W39425  44.211  12.793   0.982
73017W        W39426  40.567  32.044  11.993
73018W        W39427  19.320  19.573   0.397
73019W        W39428  32.875  10.033   3.530
73020W        W39429  30.079  29.988   1.951
73021W        W39430  13.669  26.895   3.698
73022W        W39431  15.728  33.689  12.402
73023W        W39432   6.687  13.681  12.988
73024W        W39433  38.334  25.701   4.772
73025W        W39434   3.092  44.198  11.163
73026W        W39435  12.207  13.652  12.871
73027W        W39436  30.445  15.650   1.974
73028W        W39437  36.968  15.422  14.444
73029W        W39438  22.722  23.217   4.550
73030W        W39439   4.598   7.450  12.907
73031W        W39440  36.810  24.240  13.998
73032W        W39441  35.611   3.822  13.111
73033W        W39442  24.598   2.963   0.782
73034W        W39443  44.135  36.449  13.903
73035W        W39444  32.974  21.555   3.858
73036W        W39445  11.703  26.718   0.877
73037W        W39446  33.482   8.675  13.585
73038W        W39447  32.613  14.497  12.528
73039W        W39448   4.664   7.201   2.850
73040W        W39449  11.567  29.205  13.326
73041W        W39450  15.817  18.595  11.337
73042W        W39451  42.555  24.455   0.298
73043W        W39452  17.760  44.513   0.420
73044W        W39453  21.496  21.651   4.151
73045W        W39454  33.467  23.346  12.780
73046W        W39455  30.057  17.683  11.889
73047W        W39456  38.531  13.804   4.909
73048W        W39457  11.264  29.313   0.747
73049W        W39458  41.672  14.180   0.186
73050W        W39459  34.494  26.695   4.615
73051W        W39460  20.029  31.881  13.105
73052W        W39461  28.460  17.654  11.468
73053W        W39462  24.006  38.446   4.224
73054W        W39463   3.863  38.454  14.416
73055W        W39464  34.687  21.141  13.039
73056W        W39465  17.059  17.399   3.762
73057W        W39466   3.870  24.997  13.892
73058W        W39467  25.534  22.582   3.060
73059W        W39468  39.532  26.547  11.878
73060W        W39469  27.051   6.162  10.776
73061W        W39470  23.706  44.411  10.652
73062W        W39471  14.650  27.038   1.196
73063W        W39472  36.842  28.843  12.179
73064W        W39473  21.187  16.477  13.416
73065W        W39474  37.482  41.725  12.924
73066W        W39475  21.921   9.713  12.805
73067W        W39476  12.849  32.681   1.881
73068W        W39477  17.745  10.949  12.936
73069W        W39478  44.724  33.953  11.276
73070W        W39479  44.975  17.894  13.496
73071W        W39480  30.426  16.574  13.204
73072W        W39481  13.094   4.790   1.324
73073W        W39482  37.536   8.141   2.457
73074W        W39483  39.153  36.177  11.714
73075W        W39484  29.769  40.096  14.310
73076W        W39485   7.904  12.807   2.777
73077W        W39486  38.326  27.362  11.165
73078W        W39487  30.526  37.886  13.598
73079W        W39488   5.056  33.627  13.421
73080W        W39489   6.066  38.912  12.093
73081W        W39490  43.517   6.582   4.068
73082W        W39491  31.994  43.275  13.016
73083W        W39492   4.179  17.772  12.122
73084W        W39493  31.865   4.795  13.827
73085W        W39494  42.421  16.206  10.446
73086W        W39495  12.590  18.865   0.243
73087W        W39496  15.307  33.686  13.940
73088W        W39497  43.923  34.858   1.372
73089W        W39498  11.427   1.324  14.799
73090W        W39499  35.843  14.257  11.749
73091W        W39500  34.350  12.564  12.875
73092W        W39501  29.288  13.785  11.393
73093W        W39502  39.217  10.547   0.435
73094W        W39503  12.667   6.852  10.719
73095W        W39504  23.570  40.243   4.698
73096W        W39505  10.558  36.393  13.817
73097W        W39506  26.947  41.080  12.973
73098W        W39507  28.623  42.818  11.220
73099W        W39508  34.018   7.881  13.564
73100W        W39509   8.605   4.395   1.826
73101W        W39510   4.490  40.936  13.637
73102W        W39511  18.778  30.871   4.293
73103W        W39512  12.138  39.174  11.447
73104W        W39513  26.670  24.243  11.160
73105W        W39514  19.358  13.653  12.313
73106W        W39515   1.727  35.018  10.967
73107W        W39516  21.538  39.481   3.838
73108W        W39517  23.477  14.394   1.837
73109W        W39518  19.118  15.563  13.054
73110W        W39519  14.365  32.384   1.672
73111W        W39520  39.370  22.713  11.714
73112W        W39521   4.269  37.174  14.931
73113W        W39522  23.126  11.333   0.847
73114W        W39523  26.433   1.650  12.911
73115W        W39524  30.408  19.553   1.740
73116W        W39525  21.560  12.811   3.370
73117W        W39526  42.699  17.894   3.596
73118W        W39527  27.944  31.973   0.011
73119W        W39528  38.216   5.633  12.441
73120W        W39529  31.062  17.447   4.248
73121W        W39530   4.111  23.988   5.270
73122W        W39531  30.143  32.037  12.500
73123W        W39532  36.611   1.439  14.252
73124W        W39533  22.506  24.998   3.217
73125W        W39534  41.084  14.659   2.635
73126W        W39535  16.876  34.365  14.817
73127W        W39536   2.983  34.368   0.446
73128W        W39537  37.688  11.698   1.060
73129W        W39538   2.413  21.239   4.170
73130W        W39539  22.200  31.881  12.005
73131W        W39540  15.415  26.548   0.840
73132W        W39541  14.085  12.753   4.444
73133W        W39542  39.108  22.523  12.154
73134W        W39543  13.511  28.072  11.395
73135W        W39544  15.208  40.280  14.116
73136W        W39545  30.721  39.478   3.288
73137W        W39546  42.370  27.082   0.287
73138W        W39547  11.257  27.921   0.691
73139W        W39548   6.892  11.958  14.488
73140W        W39549  36.112  22.737  12.200
73141W        W39550  37.079  36.899  11.671
73142W        W39551  34.766  26.047  12.749
73143W        W39552  21.195  24.435   1.869
73144W        W39553  43.035  23.603  13.443
73145W        W39554   5.918  35.431   3.740
73146W        W39555  32.916   6.699  12.514
73147W        W39556  23.057  41.494   3.450
73148W        W39557  20.847  29.988  13.518
73149W        W39558   6.333  27.976  11.655
73150W        W39559  26.556   1.571   4.200
73151W        W39560  15.279   6.145   0.393
73152W        W39561   4.637   2.923   4.650
73153W        W39562  35.540   2.414   3.697
73154W        W39563   2.040  11.177  12.643
73155W        W39564  38.349  11.427   1.016
73156W        W39565  15.129  21.717  13.521
73157W        W39566  20.917  12.644   0.881
73158W        W39567  10.265  37.947   0.527
73159W        W39568   2.082  31.019   3.375
73160W        W39569  18.246  11.120  14.572
73161W        W39570  22.829  18.126  13.105
73162W        W39571   2.994  30.253  13.851
73163W        W39572  30.657  30.740  11.579
73164W        W39573  43.913  39.031   2.418
73165W        W39574  26.666  25.658  14.079
73166W        W39575  27.506  18.698   4.600
73167W        W39576  23.576   4.774   3.328
73168W        W39577  15.676  23.886  12.460
73169W        W39578  33.493  43.950  14.446
73170W        W39579   1.493  32.594  10.684
73171W        W39580  42.328  40.854  11.072
73172W        W39581   1.487  19.356  10.532
73173W        W39582  20.810  14.279   1.178
73174W        W39583  17.571   4.584   4.036
73175W        W39584  22.952   2.322  11.587
73176W        W39585  37.900  26.884  14.087
73177W        W39586  17.688   2.638   0.352
73178W        W39587  24.197  42.329  14.304
73179W        W39588  23.204  13.848  10.788
73180W        W39589  34.426  22.824   4.676
73181W        W39590   0.059   4.021   1.348
73182W        W39591   5.807  16.685  13.979
73183W        W39592   3.987  12.135  12.466
73184W        W39593  11.399   9.870  12.556
73185W        W39594  10.539   0.994  13.469
73186W        W39595   9.596  10.159   3.030
73187W        W39596   6.304  25.503  13.126
73188W        W39597  22.287   3.815  12.086
73189W        W39598  13.581  17.534   4.534
73190W        W39599  28.926  18.925   1.910
73191W        W39600   4.614  35.119  12.096
73192W        W39601   1.929  28.690   4.126
73193W        W39602  26.550  33.745  12.428
73194W        W39603  38.452  29.178  14.799
73195W        W39604  10.774  43.966  10.883
73196W        W39605   8.908   8.877  14.216
73197W        W39606  14.060   8.956  11.516
73198W        W39607  43.308  11.833  14.376
73199W        W39608  31.589  33.297   0.831
73200W        W39609  21.991   5.702  11.500
73201W        W39610  42.769  33.729   4.564
73202W        W39611  22.991  16.721   4.100
73203W        W39612  43.454  20.656   0.308
73204W        W39613  41.566  35.031  12.079
73205W        W39614  20.315  35.905  13.852
73206W        W39615  28.179  33.238  10.657
73207W        W39616   5.717  22.562   3.209
73208W        W39617  19.241  22.200   3.138
73209W        W39618  15.885  42.002  11.163
73210W        W39619  12.034  16.752  11.989
73211W        W39620  23.710  44.186  11.999
73212W        W39621   4.297  16.512   1.947
73213W        W39622   8.174  33.577  13.121
73214W        W39623  26.400  27.523   1.315
73215W        W39624  18.803  43.386   3.130
73216W        W39625  30.542  12.469   4.064
73217W        W39626  21.136  39.895  13.257
73218W        W39627  19.635  31.275   4.597
73219W        W39628   1.490  20.527   3.770
73220W        W39629   8.716   3.043   2.837
73221W        W39630  35.607   6.803   1.417
73222W        W39631   4.709  31.924  12.004
73223W        W39632  27.024  28.971   3.450
73224W        W39633  15.207  25.063   4.495
73225W        W39634   5.252   7.384   3.697
73226W        W39635  44.363  44.447   1.787
73227W        W39636  15.092  32.440   2.417
73228W        W39637  39.105  36.446  12.962
73229W        W39638  10.740  14.540   1.211
73230W        W39639  12.227  16.629  14.291
73231W        W39640  35.150  28.482   2.069
73232W        W39641   0.175   1.273  12.103
73233W        W39642  13.944  13.789   1.803
73234W        W39643  30.192  30.018  14.054
73235W        W39644  29.027  27.918   1.584
73236W        W39645  16.953  19.975   4.158
73237W        W39646  35.467  26.725   2.482
73238W        W39647  36.314  12.752   1.200
73239W        W39648  37.090  42.807   9.802
73240W        W39649  27.640  18.522  11.545
73241W        W39650  30.781   5.776   2.758
73242W        W39651   3.991  36.440   2.410
73243W        W39652  12.951   8.277  14.591
73244W        W39653  24.237  10.500  12.580
73245W        W39654  40.239  16.610   3.249
73246W        W39655  12.931  41.025  12.167
73247W        W39656  17.648   7.117   2.729
73248W        W39657  37.326  33.991  11.208
73249W        W39658   3.416  24.940  12.406
73250W        W39659   1.782  22.753  14.489
73251W        W39660  22.214  25.263  14.424
73252W        W39661  15.175  10.272   4.658
73253W        W39662  18.698  17.666  13.626
73254W        W39663   9.556   1.675   1.500
73255W        W39664  21.988   7.894  14.451
73256W        W39665  30.029  19.241   3.677
73257W        W39666  18.493  20.269   4.163
73258W        W39667  23.659  27.443   3.747
73259W        W39668  35.577  32.622  12.569
73260W        W39669  15.620  13.835   2.420
73261W        W39670   5.953  40.257  10.649
73262W        W39671  14.820  14.577  10.431
73263W        W39672   1.717  40.995   0.401
73264W        W39673  10.292  21.143  13.267
73265W        W39674  14.353  21.514   3.206
73266W        W39675   7.569  40.490   2.199
73267W        W39676   3.989   4.347  12.915
73268W        W39677   6.789  18.370  14.330
73269W        W39678  32.631  21.527   0.902
73270W        W39679   8.384  30.798  12.560
73271W        W39680  16.000   8.702   4.148
73272W        W39681  22.013   2.893  13.915
73273W        W39682  25.225  32.110  14.410
73274W        W39683  43.249   1.180  15.000
73275W        W39684  20.634  12.122   4.189
73276W        W39685  38.326  36.490  14.020
73277W        W39686  22.137   6.709  12.663
73278W        W39687  31.930  28.311  12.532
73279W        W39688  23.595  32.376  13.003
73280W        W39689  34.521  23.557   1.836
73281W        W39690  37.270  31.656   2.746
73282W        W39691  15.681  20.954   0.948
73283W        W39692  35.973  18.093   3.364
73284W        W39693  25.888  32.125  13.613
73285W        W39694   0.820   6.903  14.513
73286W        W39695  44.822  12.295   4.038
73287W        W39696   5.722  32.172   1.040
73288W        W39697  32.527   0.013   3.109
73289W        W39698  25.166  32.866  13.956
73290W        W39699  33.058  18.599   1.298
73291W        W39700  25.276   9.356   1.367
73292W        W39701   4.887   6.803  13.676
73293W        W39702  38.838   8.108   2.708
73294W        W39703  15.040  35.046   4.619
73295W        W39704  27.165  37.267  11.178
73296W        W39705  23.279  10.309   0.180
73297W        W39706  11.684  20.787  14.793
73298W        W39707  24.085  23.840   0.801
73299W        W39708  21.159  38.499  12.385
73300W        W39709  22.223  37.895   2.714
73301W        W39710  39.797   2.932  14.283
73302W        W39711  36.684  10.373   1.252
73303W        W39712  29.834  41.310   1.780
73304W        W39713  39.763  36.099   4.710
73305W        W39714   8.592  15.565  11.531
73306W        W39715  39.894  39.681  11.633
73307W        W39716   9.217  19.889  11.118
73308W        W39717  43.054  26.698   3.342
73309W        W39718   4.906   6.883  13.158
73310W        W39719  40.233  10.573  12.197
73311W        W39720  28.143  37.878  12.557
73312W        W39721  37.076  13.494  11.515
73313W        W39722  30.650  14.467   5.043
73314W        W39723  44.417   1.468  11.633
73315W        W39724  18.678   1.506   1.650
73316W        W39725  31.695  25.692  11.191
73317W        W39726  38.509  22.795   1.865
73318W        W39727  42.778   7.813  14.330
73319W        W39728  35.532  29.861   0.331
73320W        W39729  34.863   7.986  11.271
73321W        W39730  10.317  39.751  12.082
73322W        W39731  26.271  25.950   0.780
73323W        W39732   9.204  39.535  11.319
73324W        W39733   3.895  30.451   0.254
73325W        W39734  22.841  43.478  13.081
73326W        W39735  17.276  19.066   0.714
73327W        W39736   8.395  24.586  11.679
73328W        W39737  13.614  19.531  11.462
73329W        W39738  43.458   2.840  14.320
73330W        W39739  44.081   9.951  12.067
73331W        W39740  12.152  39.226   3.955
73332W        W39741  22.984  41.364  13.381
73333W        W39742   6.013   1.769  12.089
73334W        W39743  30.133  40.985  13.012
73335W        W39744  37.372  32.744   3.903
73336W        W39745  28.692   7.810   2.224
73337W        W39746  21.257  11.043  12.555
73338W        W39747  43.427   8.751   2.961
73339W        W39748  37.354   6.980   3.630
73340W        W39749  18.229  36.587   2.600
73341W        W39750  43.967  21.486  10.796
73342W        W39751  27.643  43.469  11.011
73343W        W39752  39.845  12.575   4.584
73344W        W39753  40.788  39.891   0.020
73345W        W39754  39.269   9.839   0.946
73346W        W39755   1.176  41.364  14.811
73347W        W39756  24.726  17.086   4.648
73348W        W39757  37.060   4.748  12.383
73349W        W39758  22.058  41.832  14.315
73350W        W39759   1.737   7.919   3.708
73351W        W39760  44.794   4.225  12.467
73352W        W39761  10.073  20.245   4.535
73353W        W39762  26.098  19.607   3.946
73354W        W39763  28.630  42.624   1.825
73355W        W39764  24.976  19.856   2.203
73356W        W39765  11.240   3.734   0.807
73357W        W39766   1.351   8.210  14.968
73358W        W39767  32.623  17.892   0.224
73359W        W39768  12.232  34.824   1.028
73360W        W39769  35.629  25.503  11.213
73361W        W39770  24.301  25.728   1.490
73362W        W39771  37.086  43.360   3.928
73363W        W39772  16.618  17.115   0.288
73364W        W39773  40.003  18.252   0.967
73365W        W39774   9.680   6.140  13.485
73366W        W39775  27.676  42.403  12.961
73367W        W39776   6.729  31.046   1.883
73368W        W39777  21.029  38.580  12.873
73369W        W39778   7.397  43.051   3.662
73370W        W39779  34.871  34.508   0.196
73371W        W39780  33.191   8.200   0.570
73372W        W39781  32.234  35.352  12.027
73373W        W39782  43.216   3.115   0.023
73374W        W39783  44.539  23.159   1.253
73375W        W39784  24.002  44.825  14.987
73376W        W39785   8.296   1.005  10.583
73377W        W39786   1.642  43.244   5.004
73378W        W39787  39.745  13.497   4.041
73379W        W39788  13.711  18.683  13.444
73380W        W39789  37.523  35.626  10.714
73381W        W39790   7.322  32.508  10.491
73382W        W39791  19.200  12.041  12.844
73383W        W39792  39.059  37.073   4.107
73384W        W39793  29.580  31.974   4.130
73385W        W39794   2.263   7.933   3.637
73386W        W39795   1.354  32.325  11.175
73387W        W39796  31.569   9.421   4.088
73388W        W39797   4.135  37.037  12.021
73389W        W39798  23.210   6.488   2.743
73390W        W39799  26.210  32.409   3.106
73391W        W39800  27.368  36.414   0.816
73392W        W39801  12.248  43.946  13.498
73393W        W39802  20.967  17.410  13.308
73394W        W39803  19.136  42.953  11.952
73395W        W39804   4.277  10.870  11.996
73396W        W39805  28.685  17.695   0.026
73397W        W39806  12.575   9.101   1.478
73398W        W39807  41.385  31.602   1.435
73399W        W39808  41.010   3.536   3.873
73400W        W39809  37.560  41.899   1.916
73401W        W39810  44.840  10.895   4.197
73402W        W39811   4.160   4.976   3.290
73403W        W39812  39.981  35.869  13.535
73404W        W39813   8.393   6.620   0.643
73405W        W39814   6.261  33.885   4.658
73406W        W39815   6.384  20.382  10.725
73407W        W39816  40.171  16.803   1.404
73408W        W39817  27.011  41.801   3.673
73409W        W39818  29.019  37.865  12.713
73410W        W39819  10.306   6.394   0.359
73411W        W39820  24.006  42.751   0.413
73412W        W39821  14.217  16.260   3.370
73413W        W39822  18.099   0.232   0.910
73414W        W39823  16.989  35.358  12.340
73415W        W39824   7.349  27.422   3.950
73416W        W39825  21.745  17.262   2.676
73417W        W39826  15.987  18.280  12.148
73418W        W39827   8.879  34.277  13.810
73419W        W39828  37.307  11.348  14.813
73420W        W39829   2.288  29.410   3.756
73421W        W39830   9.696  35.368  12.375
73422W        W39831  12.834  21.803  10.234
73423W        W39832   3.301  19.577  13.437
73424W        W39833  12.134  18.712   1.149
73425W        W39834  26.348  44.086  14.225
73426W        W39835  42.787  10.176   2.945
73427W        W39836  32.297  16.795  14.275
73428W        W39837  33.667   0.924  14.184
73429W        W39838  38.891  17.889  14.366
73430W        W39839  32.728  27.728   3.641
73431W        W39840   5.814  37.022   0.478
73432W        W39841  18.700  14.480  12.464
73433W        W39842  42.805  33.465   2.311
73434W        W39843   1.155  23.569   4.030
73435W        W39844  20.691  19.722   2.971
73436W        W39845  42.027  17.188   5.110
73437W        W39846  12.182  33.381   1.036
73438W        W39847  29.391  18.769   1.720
73439W        W39848   4.364  38.803  10.395
73440W        W39849  13.928  41.783  14.307
73441W        W39850  27.656   1.863   0.423
73442W        W39851   9.253  33.089  12.226
73443W        W39852  39.892  30.860  14.325
73444W        W39853  44.594  29.486   3.697
73445W        W39854  21.551  22.353  12.338
73446W        W39855   3.772   1.756   4.600
73447W        W39856  28.655   8.809   2.627
73448W        W39857   3.912  22.148  12.816
73449W        W39858  30.972  37.169  10.813
73450W        W39859   9.374  27.363   9.954
73451W        W39860   8.381  33.485  11.953
73452W        W39861   8.630  16.252  14.417
73453W        W39862  38.057  20.595   4.531
73454W        W39863  31.404  38.968  13.920
73455W        W39864  18.203  30.959  14.722
73456W        W39865   7.401  32.675   1.904
73457W        W39866  19.694  17.307  14.302
73458W        W39867  19.178   2.637   3.718
73459W        W39868   6.874  15.662   1.569
73460W        W39869  20.591   7.887   4.506
73461W        W39870   0.813  24.622   3.689
73462W        W39871  32.238  33.421  14.423
73463W        W39872  32.680   8.007   4.500
73464W        W39873   7.673  37.364   1.860
73465W        W39874  24.549  12.843   0.892
73466W        W39875   0.848   7.778  12.883
73467W        W39876  33.599  39.932  11.332
73468W        W39877  30.085  19.483   1.342
73469W        W39878  35.854   7.219   4.130
73470W        W39879  31.423  41.845  14.323
73471W        W39880   5.159  37.607   2.218
73472W        W39881  10.578  37.553  11.568
73473W        W39882   8.303   4.949  12.362
73474W        W39883  15.962  13.692   2.787
73475W        W39884  30.302  38.120  12.068
73476W        W39885  44.083   0.675  12.593
73477W        W39886  43.373  26.993   0.461
73478W        W39887  17.939   1.974   3.159
73479W        W39888  12.744  11.113  11.556
73480W        W39889   7.383  11.408  13.952
73481W        W39890   0.302  42.755   0.017
73482W        W39891  36.933  11.377  12.982
73483W        W39892  40.769   5.606   3.413
73484W        W39893  15.302  12.714   3.157
73485W        W39894  14.920  31.654   1.375
73486W        W39895  41.996  30.172  12.985
73487W        W39896   3.030  39.368   2.138
73488W        W39897  31.639  42.841   3.328
73489W        W39898  11.648  14.277   3.994
73490W        W39899  33.323  35.974  14.550
73491W        W39900   1.266   7.752   1.823
73492W        W39901  22.224  42.068   1.908
73493W        W39902  40.611  40.111  11.180
73494W        W39903  41.237  32.119   2.488
73495W        W39904  26.819  33.988  11.678
73496W        W39905  34.552  31.494  12.149
73497W        W39906  40.499  24.078   2.384
73498W        W39907  36.590  22.195  14.840
73499W        W39908  41.732  44.339  14.885
73500W        W39909  12.390  31.622  10.632
73501W        W39910  29.111  29.077   4.975
73502W        W39911  34.635  22.070   2.376
73503W        W39912  31.017  19.355   3.727
73504W        W39913  29.693  37.311   3.018
73505W        W39914  24.697  17.277   3.316
73506W        W39915  28.052  11.657   3.295
73507W        W39916  23.097  14.325  10.980
73508W        W39917  22.714  15.309  13.895
73509W        W39918   7.110   5.629   4.126
73510W        W39919  30.901   6.484   3.198
73511W        W39920   0.043   4.533   1.307
73512W        W39921   1.276  34.862   4.583
73513W        W39922  38.063   1.969   5.162
73514W        W39923  43.318   4.472  13.855
73515W        W39924  23.640   2.778   3.678
73516W        W39925  20.636  37.404  10.710
73517W        W39926   0.160  24.287  13.785
73518W        W39927  43.787  17.373  14.757
73519W        W39928  24.227  23.583  12.461
73520W        W39929  29.939  22.965   1.679
73521W        W39930  17.084  44.573   4.571
73522W        W39931  31.923   0.867  12.566
73523W        W39932  26.132  34.788   3.319
73524W        W39933  35.465  31.407   3.808
73525W        W39934  15.264   3.746  13.033
73526W        W39935  28.476  12.602   0.922
73527W        W39936  32.432  35.996  11.255
73528W        W39937   9.914  20.064   2.800
73529W        W39938   5.740   0.415  14.980
73530W        W39939  25.484  36.071  11.924
73531W        W39940  36.511   3.539  11.165
73532W        W39941  32.629  29.972   0.395
73533W        W39942  21.993   5.162   3.855
73534W        W39943  36.036   2.396  12.739
73535W        W39944  42.956   8.118  14.670
73536W        W39945  29.381   5.274  12.092
73537W        W39946  13.547  11.589   4.546
73538W        W39947  40.552   9.638   2.270
73539W        W39948  32.618  18.906  12.623
73540W        W39949   0.502  32.371   0.863
73541W        W39950  21.801  38.637   4.488
73542W        W39951  43.898  21.290   1.845
73543W        W39952  18.078  42.017  12.497
73544W        W39953  38.927  17.724   3.562
73545W        W39954  44.267  31.235  13.000
73546W        W39955  22.997  17.539  14.394
73547W        W39956  12.348  35.436  13.313
73548W        W39957  35.762   6.189   1.943
73549W        W39958  23.006   8.293  14.411
73550W        W39959   9.910  21.955   1.680
73551W        W39960  34.338  39.879  10.825
73552W        W39961  36.830  30.066   0.752
73553W        W39962  41.883  10.514  10.302
73554W        W39963  38.398   3.277   2.760
73555W        W39964  37.808  26.315  13.866
73556W        W39965  23.501   6.119   1.086
73557W        W39966  26.165  12.932   2.235
73558W        W39967  43.080  22.057   4.218
73559W        W39968   5.295  10.648   3.337
73560W        W39969  14.818  12.296   2.917
73561W        W39970  16.307  11.760  14.474
73562W        W39971  31.191  37.045  12.712
73563W        W39972  22.674   8.785   3.130
73564W        W39973  38.319   4.688   0.748
73565W        W39974  15.419  16.787  11.943
73566W        W39975  32.802  18.743  11.639
73567W        W39976  43.849  24.195   2.960
73568W        W39977   4.361  32.382   1.218
73569W        W39978  30.153  38.471  13.825
73570W        W39979  18.261  28.034  11.556
73571W        W39980  40.356  43.385   3.689
73572W        W39981  26.659   5.518   2.203
73573W        W39982  18.293  39.554   2.907
73574W        W39983  37.352  38.423   1.687
73575W        W39984  13.894  29.144   1.636
73576W        W39985  20.739  44.805  12.500
73577W        W39986   5.253  38.643  11.528
73578W        W39987   6.174   8.699   4.507
73579W        W39988   9.199   8.826   1.895
73580W        W39989  39.376   0.419  14.372
73581W        W39990  13.183  36.308  13.682
73582W        W39991  15.366  17.906   0.375
73583W        W39992  10.726  36.921   3.974
73584W        W39993  19.579  34.667  13.053
73585W        W39994  32.816  23.106   2.667
73586W        W39995  40.019  19.324   4.952
73587W        W39996   3.696  18.029  11.403
73588W        W39997   2.033  16.441   3.600
73589W        W39998  19.854   4.511   4.664
73590W        W39999  23.564  14.345  13.251
73591W        W40000  15.203  13.388   3.689
73592W        W40001  17.578   0.439   3.650
73593W        W40002  27.567  30.985  12.582
73594W        W40003  31.542  38.579   0.359
73595W        W40004  33.048  17.228   0.754
73596W        W40005   6.845   4.861  13.397
73597W        W40006   2.927  44.773  14.277
73598W        W40007  23.648   6.888  13.970
73599W        W40008  32.629  16.240   1.958
73600W        W40009  14.448  27.662  11.174
73601W        W40010  38.295  34.708   2.739
73602W        W40011  12.634  14.514   0.241
73603W        W40012  29.998  26.563   4.120
73604W        W40013  35.847   3.404  13.430
73605W        W40014  17.151   6.945  10.867
73606W        W40015  43.958  21.174   5.011
73607W        W40016  14.738  31.805   0.870
73608W        W40017   8.254  16.646  14.384
73609W        W40018  13.189  37.839  12.769
73610W        W40019  40.993  24.767   3.740
73611W        W40020   2.231  14.256  13.659
73612W        W40021   0.345   5.759  14.256
73613W        W40022  41.969  39.077  10.700
73614W        W40023  19.646  33.293   0.526
73615W        W40024  28.974  17.730  14.399
73616W        W40025   0.439  15.714  11.461
73617W        W40026  18.083  11.258  10.797
73618W        W40027  26.181  13.545  14.937
73619W        W40028  38.526  11.153   0.250
73620W        W40029  42.275  23.661  13.820
73621W        W40030   9.911   9.769  13.480
73622W        W40031  40.045  14.491   4.328
73623W        W40032  42.248  27.221   4.528
73624W        W40033  22.241  20.947   0.513
73625W        W40034  42.843  27.970   5.054
73626W        W40035  11.149  24.190   2.798
73627W        W40036  15.563  31.355  10.678
73628W        W40037  12.727  11.623  10.671
73629W        W40038  14.893  18.240  10.487
73630W        W40039  31.485  18.599   1.934
73631W        W40040  17.546  33.235   0.293
73632W        W40041  20.031  16.682   0.349
73633W        W40042   4.911  41.081   2.708
73634W        W40043  40.355  11.250  14.839
73635W        W40044  18.123  30.933  10.954
73636W        W40045  14.018  10.187  12.358
73637W        W40046  33.720  27.562   3.576
73638W        W40047   3.454  29.542  13.598
73639W        W40048  26.635  12.665  10.715
73640W        W40049  24.000   0.412   2.774
73641W        W40050  11.362  37.889  14.825
73642W        W40051  25.229  34.620   2.298
73643W        W40052  30.099  26.839  12.388
73644W        W40053   4.441  34.284  10.294
73645W        W40054  39.873  22.194   3.143
73646W        W40055  22.104  20.181  11.624
73647W        W40056   8.397  25.461   0.348
73648W        W40057   3.910  29.394  11.999
73649W        W40058  37.818  10.318   2.217
73650W        W40059   3.411   1.984   4.274
73651W        W40060  24.768  14.417  13.424
73652W        W40061  18.735  16.701  12.335
73653W        W40062   0.918  28.928  14.464
73654W        W40063  26.948  26.640  14.893
73655W        W40064  28.244  26.600   0.773
73656W        W40065  27.422  38.422  10.690
73657W        W40066  44.816  22.056   0.830
73658W        W40067  26.589   0.319   1.060
73659W        W40068  25.368  20.206   2.162
73660W        W40069   5.984  41.896   4.009
73661W        W40070  28.064  20.018   2.464
73662W        W40071  11.100  43.077   5.471
73663W        W40072   0.249  38.255  11.430
73664W        W40073  15.351   6.691  10.730
73665W        W40074  35.553  36.927  14.036
73666W        W40075  35.996  41.343   0.482
73667W        W40076   9.414  24.748   3.962
73668W        W40077  32.807   1.612  14.355
73669W        W40078  35.485  42.829   3.984
73670W        W40079   8.783  24.169   3.549
73671W        W40080  27.818   1.222  10.701
73672W        W40081  33.629   1.075   4.142
73673W        W40082  31.389  17.120  11.968
73674W        W40083  33.166  24.012   3.123
73675W        W40084  25.952  26.925  14.175
73676W        W40085  44.410  20.076   2.778
73677W        W40086   5.232  14.298  13.476
73678W        W40087  15.522   8.912  11.776
73679W        W40088   3.955  28.180   4.507
73680W        W40089  10.387  17.827  14.478
73681W        W40090  10.800  29.156  11.573
73682W        W40091   7.559   1.857  14.107
73683W        W40092  17.235  15.688   0.216
73684W        W40093  43.516  13.748   0.496
73685W        W40094  12.163   0.981   2.256
73686W        W40095  22.205  20.486  10.780
73687W        W40096  29.081  14.360  14.406
73688W        W40097   6.655  30.642  12.597
73689W        W40098  27.484  22.894   0.764
73690W        W40099  34.686  38.590  13.942
73691W        W40100  34.875  40.040  13.267
73692W        W40101  23.508  14.207   0.279
73693W        W40102  43.750  15.727   1.740
73694W        W40103   2.835  21.361   3.145
73695W        W40104  32.781  14.801  14.915
73696W        W40105  39.333  33.995  11.966
73697W        W40106  13.681   7.753   2.266
73698W        W40107   2.039   8.691   2.551
73699W        W40108  28.465  30.581   3.226
73700W        W40109  44.073  29.047   4.434
73701W        W40110  16.715   7.232   0.267
73702W        W40111   8.253  27.436  13.670
73703W        W40112  13.321  19.547   3.647
73704W        W40113  17.068  15.496  11.585
73705W        W40114   4.845  43.968  13.699
73706W        W40115  12.807  32.663  14.802
73707W        W40116  39.635  30.659   0.058
73708W        W40117  20.807  36.936   2.880
73709W        W40118   2.843  31.177  10.657
73710W        W40119  40.885  38.808  14.831
73711W        W40120   6.227  42.932  11.505
73712W        W40121  36.602  42.442  14.283
73713W        W40122  28.284   1.441   1.713
73714W        W40123   8.852  25.275   3.263
73715W        W40124   7.876   9.295  14.613
73716W        W40125  34.025   3.984   2.301
73717W        W40126   9.389   1.982  12.474
73718W        W40127   8.622   0.316  12.967
73719W        W40128   3.788  26.779   4.729
73720W        W40129  33.469  41.482  13.435
73721W        W40130  32.493   6.696  12.831
73722W        W40131   5.365   4.729   2.235
73723W        W40132  14.260  27.450  13.960
73724W        W40133  33.255   7.863   2.853
73725W        W40134  34.613  43.261   0.697
73726W        W40135  14.215   2.923  13.891
73727W        W40136  40.532  21.128  11.575
73728W        W40137  35.556  40.765  12.878
73729W        W40138  44.790  14.570   4.690
73730W        W40139  15.555   4.143   1.849
73731W        W40140  19.855  24.461  12.517
73732W        W40141  18.944  35.535  10.625
73733W        W40142  39.009  15.623   0.911
73734W        W40143  30.178  11.726   3.604
73735W        W40144  16.610  26.037  14.021
73736W        W40145   8.348  41.973  10.714
73737W        W40146  37.793  31.964  11.577
73738W        W40147  13.782  38.826   1.768
73739W        W40148   1.972  38.850  13.893
73740W        W40149  13.423  43.231   4.394
73741W        W40150  40.001  30.494  10.770
73742W        W40151   3.871  16.145   4.111
73743W        W40152   0.851  31.784  12.564
73744W        W40153  18.560  27.608   0.453
73745W        W40154  35.149  10.882   2.321
73746W        W40155  28.907  33.462  11.967
73747W        W40156  26.476  26.484   0.974
73748W        W40157  34.943   4.887   1.245
73749W        W40158  11.330  36.046   4.570
73750W        W40159  25.634   0.664  12.241
73751W        W40160  42.372  17.803  11.992
73752W        W40161  41.317   4.482   4.595
73753W        W40162  34.813  39.771  11.070
73754W        W40163  18.141  12.708  13.807
73755W        W40164  13.249  15.388  14.006
73756W        W40165  24.293   3.827   4.094
73757W        W40166  21.617  22.822  12.137
73758W        W40167   6.175   3.151  10.634
73759W        W40168  31.050  23.551  11.289
73760W        W40169   4.456  10.628  12.415
73761W        W40170  23.069  36.429   4.665
73762W        W40171   3.414   2.823  11.861
73763W        W40172   6.618  14.566  14.965
73764W        W40173  10.336  36.073   3.242
73765W        W40174  13.086  10.269  14.455
73766W        W40175  41.119  29.060   2.305
73767W        W40176  40.640  16.987  12.929
73768W        W40177  34.461  42.517   1.199
73769W        W40178  43.135  41.831   1.416
73770W        W40179  30.976  33.321  14.923
73771W        W40180  21.568  25.188   0.963
73772W        W40181  15.781   7.531   1.448
73773W        W40182  38.785  34.268   1.663
73774W        W40183  16.255  10.221  10.364
73775W        W40184  26.484  19.478   3.215
73776W        W40185   1.056   0.255   0.503
73777W        W40186  42.414  37.115   2.271
73778W        W40187  10.941   9.793  13.275
73779W        W40188  39.341  14.530  11.676
73780W        W40189  19.248   1.770   4.249
73781W        W40190   0.370  16.031  14.277
73782W        W40191   7.250   6.378   0.842
73783W        W40192  33.047  36.438   0.582
73784W        W40193  14.679   4.480  10.706
73785W        W40194  40.395  19.640   0.046
73786W        W40195   2.251  42.833  13.626
73787W        W40196  23.637  28.972   2.288
73788W        W40197   4.292   1.473   4.499
73789W        W40198   4.859   0.953  14.003
73790W        W40199   3.448  43.342   4.689
73791W        W40200  37.068  18.703   1.846
73792W        W40201  33.117  19.051  10.912
73793W        W40202  41.069  27.036  12.335
73794W        W40203  44.690   3.189  12.458
73795W        W40204  11.252  40.466  11.191
73796W        W40205  29.437   4.471  12.650
73797W        W40206  39.044  42.528   2.102
73798W        W40207  24.969  23.294  12.730
73799W        W40208  38.963  40.576  13.983
73800W        W40209  21.624  34.930   2.700
73801W        W40210   4.437   9.300  10.331
73802W        W40211  16.441  24.400   9.815
73803W        W40212  27.237  34.922   4.395
73804W        W40213   1.202  13.144  13.762
73805W        W40214  35.946  36.467  10.775
73806W        W40215  11.660  20.691  13.870
73807W        W40216   5.279  17.567   1.993
73808W        W40217  39.625  20.557   3.162
73809W        W40218  22.396   9.665  12.965
73810W        W40219  31.512  14.630   4.089
73811W        W40220  41.943  31.539  13.376
73812W        W40221  41.205  29.468   4.414
73813W        W40222  11.724  38.801  11.995
73814W        W40223  38.194   0.941  14.216
73815W        W40224   9.355  19.717   1.208
73816W        W40225   3.735  18.609   2.189
73817W        W40226   9.246  30.311   0.910
73818W        W40227  41.910  15.568   2.517
73819W        W40228  44.716  37.406   4.233
73820W        W40229  34.247  21.392  13.890
73821W        W40230  20.160  12.848  11.555
73822W        W40231  16.847  33.577  13.649
73823W        W40232   6.241  20.306   2.374
73824W        W40233  38.548  36.383  13.041
73825W        W40234  13.947   4.827   4.374
73826W        W40235  32.955  28.797   4.689
73827W        W40236  36.744   4.779  12.843
73828W        W40237  29.758   3.402   4.576
73829W        W40238  39.815  42.905  14.319
73830W        W40239  16.120   0.953   1.631
73831W        W40240  36.027   8.426  13.526
73832W        W40241  42.397   4.549   0.388
73833W        W40242  22.791  40.486  14.505
73834W        W40243   9.246  23.738   1.427
73835W        W40244  36.204   1.746  13.833
73836W        W40245  38.107  11.066   1.892
73837W        W40246  10.371   2.281  14.163
73838W        W40247  27.504  32.696   2.852
73839W        W40248  13.109   8.711  11.469
73840W        W40249   8.405  31.536   1.239
73841W        W40250  31.024   6.093  13.853
73842W        W40251  20.101  39.033   2.812
73843W        W40252  30.517  14.043  10.892
73844W        W40253   6.656   2.198  13.008
73845W        W40254  44.403  40.051  12.591
73846W        W40255  30.556  30.210  12.471
73847W        W40256  33.512   5.003  12.857
73848W        W40257  31.017  28.929   1.860
73849W        W40258  24.648  23.139  13.120
73850W        W40259  31.918  24.052   3.794
73851W        W40260  13.352  12.438   2.922
73852W        W40261   2.954  40.047  12.561
73853W        W40262  17.311  28.124  14.166
73854W        W40263  27.010  30.517  13.508
73855W        W40264  44.741  13.172   0.327
73856W        W40265  35.513  12.319  14.008
73857W        W40266  40.986  24.153   2.179
73858W        W40267  26.128  42.284   2.413
73859W        W40268   7.795  29.671  13.571
73860W        W40269  26.556  17.039   3.189
73861W        W40270  17.650  30.558   2.916
73862W        W40271   0.531  12.717   4.575
73863W        W40272  12.361  17.235   4.225
73864W        W40273   6.778  42.252  13.935
73865W        W40274   0.045   3.230  11.188
73866W        W40275  23.044  22.735  11.508
73867W        W40276  28.479  39.551   4.084
73868W        W40277  23.929  35.040  12.043
73869W        W40278  26.190  18.741   1.655
73870W        W40279  16.234  37.156   1.806
73871W        W40280   9.747  28.774  13.800
73872W        W40281   3.179   7.354   3.675
73873W        W40282  16.629   8.069  11.568
73874W        W40283  12.350  15.013   1.910
73875W        W40284   0.984   2.015   2.337
73876W        W40285  40.590   1.818   3.120
73877W        W40286  17.698  11.019  12.174
73878W        W40287  23.579  30.954  12.838
73879W        W40288  20.646   9.292  10.716
73880W        W40289  43.569  15.877  10.598
73881W        W40290  34.116  24.980  14.862
73882W        W40291  33.475  32.653  13.329
73883W        W40292   1.814  25.672   3.800
73884W        W40293  42.961   8.173  11.275
73885W        W40294  14.252  18.181  11.567
73886W        W40295  10.580  14.625  10.589
73887W        W40296   7.181  12.315  14.774
73888W        W40297   0.281  38.489   2.052
73889W        W40298  17.679  24.233   3.440
73890W        W40299  22.795  41.309  12.080
73891W        W40300  24.267  16.051  14.336
73892W        W40301  20.305  43.594  11.004
73893W        W40302   6.773  35.287   2.255
73894W        W40303  19.651   9.765   1.358
73895W        W40304  38.089  11.536   0.188
73896W        W40305  43.152  33.067  14.424
73897W        W40306   8.016  36.215   2.635
73898W        W40307  42.718  43.338   1.491
73899W        W40308  14.725  10.072  11.991
73900W        W40309  29.238   5.413  14.552
73901W        W40310  12.227   9.697  13.945
73902W        W40311  15.519  41.044   1.258
73903W        W40312  16.128  25.207   3.649
73904W        W40313  28.033  19.531  11.096
73905W        W40314  16.314  35.990   3.192
73906W        W40315   8.412  37.782  12.079
73907W        W40316  28.045  40.571  14.755
73908W        W40317   3.919  12.246   4.937
73909W        W40318  30.397   9.266   0.151
73910W        W40319  42.580   2.809  14.049
73911W        W40320  12.970  31.373  11.411
73912W        W40321  10.307  39.002   1.786
73913W        W40322  19.716  11.265  14.064
73914W        W40323  40.837  32.826   3.189
73915W        W40324   8.214  26.124  13.109
73916W        W40325  39.327  10.348  11.047
73917W        W40326  20.522  30.481  12.791
73918W        W40327  37.595   6.314  12.053
73919W        W40328   7.676  27.733   3.729
73920W        W40329  33.134   4.447   1.285
73921W        W40330  41.744  35.423   0.233
73922W        W40331  34.002  41.845   3.722
73923W        W40332  32.777   5.860  13.596
73924W        W40333  27.516  20.011  12.790
73925W        W40334  19.766   2.138   1.338
73926W        W40335  42.687  32.451   1.210
73927W        W40336  33.640  24.595  13.617
73928W        W40337  14.298  39.959  11.840
73929W        W40338  30.471   8.237   1.724
73930W        W40339  38.062   7.312   2.227
73931W        W40340  21.856   3.171   4.949
73932W        W40341  26.122  42.436  12.196
73933W        W40342  20.126   6.332   2.911
73934W        W40343  19.502  22.703  12.158
73935W        W40344  38.080  42.074  10.766
73936W        W40345  30.535   9.057   1.070
73937W        W40346  25.573  19.276   2.507
73938W        W40347  11.405  15.398   2.739
73939W        W40348  30.829   1.337   1.408
73940W        W40349   2.048  37.420  12.912
73941W        W40350  37.066   6.702   0.746
73942W        W40351   5.021  30.910  11.265
73943W        W40352  20.312   1.481  14.176
73944W        W40353  36.106   5.889   1.205
73945W        W40354  13.293  39.079   1.802
73946W        W40355   6.679  31.590  11.196
73947W        W40356   7.703  43.898   2.184
73948W        W40357  39.264   1.354  11.980
73949W        W40358  33.007  32.380   1.128
73950W        W40359  14.157  17.933  12.944
73951W        W40360  19.315  12.019   2.871
73952W        W40361  22.094  30.872   2.246
73953W        W40362   9.332   8.889  10.744
73954W        W40363  40.929  28.035   4.529
73955W        W40364  36.009   7.135  10.994
73956W        W40365   4.333  31.469   2.620
73957W        W40366  32.021  35.193  14.252
73958W        W40367  19.317  43.081   1.378
73959W        W40368  44.828  38.218  11.085
73960W        W40369   5.294   3.603   0.525
73961W        W40370  15.219   9.400  10.701
73962W        W40371  30.517   2.311   0.829
73963W        W40372  29.082   5.722  12.651
73964W        W40373   7.615  33.176  10.215
73965W        W40374  16.395  27.624  10.924
73966W        W40375  11.566  37.536  11.603
73967W        W40376  33.334   1.735  11.216
73968W        W40377   7.889  38.912   1.249
73969W        W40378  42.986  35.742   2.028
73970W        W40379   9.195  41.567   4.239
73971W        W40380   4.991  29.543   3.744
73972W        W40381   4.533  19.731  12.089
73973W        W40382  29.203  35.114  13.461
73974W        W40383  21.568  19.295  11.462
73975W        W40384  16.628  18.594  11.618
73976W        W40385  18.496   5.929  13.459
73977W        W40386  17.706  20.339  11.148
73978W        W40387   3.916   1.265   3.671
73979W        W40388  26.260  21.190   4.114
73980W        W40389   7.157  15.851   0.065
73981W        W40390   0.409  23.691   0.427
73982W        W40391  30.675  10.384  12.521
73983W        W40392   4.193  34.971  13.358
73984W        W40393  19.604   8.353  14.988
73985W        W40394  29.788  22.025   3.379
73986W        W40395   8.922  24.542  13.406
73987W        W40396  34.817   9.486   1.278
73988W        W40397   0.989  32.604   0.957
73989W        W40398  24.666   6.338   1.651
73990W        W40399  39.654  17.315   2.180
73991W        W40400  31.850  35.841  11.368
73992W        W40401  34.640   5.792   1.229
73993W        W40402  12.540  29.189  12.087
73994W        W40403  23.272  44.834  13.018
73995W        W40404   0.216   7.798   0.778
73996W        W40405   9.269  32.525   3.396
73997W        W40406  28.686  36.053  14.251
73998W        W40407  26.170  31.112  12.034
73999W        W40408  40.511   5.049  13.137
74000W        W40409  36.934  44.743  10.687
74001W        W40410  14.806   4.967  10.686
74002W        W40411  33.088  18.577   0.402
74003W        W40412  38.725  12.288  12.064
74004W        W40413  27.030   6.883  12.675
74005W        W40414  35.552   4.552   3.744
74006W        W40415  43.924  38.418  10.889
74007W        W40416  31.514  22.680  10.947
74008W        W40417  26.169  23.782   0.337
74009W        W40418  32.404  33.215  11.522
74010W        W40419  19.610  16.606  13.025
74011W        W40420  14.172  27.526  11.573
74012W        W40421   3.305  19.291   2.314
74013W        W40422  44.370  21.794  12.138
74014W        W40423   3.313  15.905  14.893
74015W        W40424  15.300  37.583   2.835
74016W        W40425  40.428  13.673  13.426
74017W        W40426  21.237   5.584  10.304
74018W        W40427   8.143  10.187   3.189
74019W        W40428  22.552  30.252  14.427
74020W        W40429  18.537  36.397   4.301
74021W        W40430  13.067  40.513   2.867
74022W        W40431   8.611  14.750   0.552
74023W        W40432   2.373  26.632   4.687
74024W        W40433   3.906   3.710  10.419
74025W        W40434   3.330  35.503   1.442
74026W        W40435  20.807  28.639   2.119
74027W        W40436   1.475   9.783  12.490
74028W        W40437  11.941  15.001  11.025
74029W        W40438   6.153  16.756   0.268
74030W        W40439  39.819  37.849   4.079
74031W        W40440  44.544  20.171   4.327
74032W        W40441   0.917   6.374   0.422
74033W        W40442  23.392   3.153   4.833
74034W        W40443  37.741  41.514   5.013
74035W        W40444  22.215   8.812  12.521
74036W        W40445   0.949  31.932   2.207
74037W        W40446  37.048  11.618   1.830
74038W        W40447  23.548  40.540   4.276
74039W        W40448  25.904  32.422  14.535
74040W        W40449  14.566   8.262  10.754
74041W        W40450  10.415   3.358   2.646
74042W        W40451  44.944  36.082  11.097
74043W        W40452  24.230  20.281   4.155
74044W        W40453  16.016  25.739  10.189
74045W        W40454  17.605   4.782   1.290
74046W        W40455   4.896  10.847  12.618
74047W        W40456  14.826  33.318  12.204
74048W        W40457   7.840  42.444   1.853
74049W        W40458   8.818  42.899   0.978
74050W        W40459  36.519  10.005  14.482
74051W        W40460  42.405  17.845   0.802
74052W        W40461  38.186   0.266   2.672
74053W        W40462  35.841  28.680   1.231
74054W        W40463  14.873   6.642   4.787
74055W        W40464  18.362  12.488   4.516
74056W        W40465  26.143  17.354   4.596
74057W        W40466  13.418   5.984  11.920
74058W        W40467  23.843  13.541  11.192
74059W        W40468  40.284  42.597  11.162
74060W        W40469  17.569   8.168  13.905
74061W        W40470   1.892  18.998  14.037
74062W        W40471  32.049   3.316   0.693
74063W        W40472  24.170   1.905  12.015
74064W        W40473  14.878  44.905  11.231
74065W        W40474   8.294   8.179   3.959
74066W        W40475  28.312  11.812  13.900
74067W        W40476  30.160  38.997   1.729
74068W        W40477  15.995   1.895  10.755
74069W        W40478  11.213  14.239  12.438
74070W        W40479  17.776  15.000  11.201
74071W        W40480  24.982  42.955   0.241
74072W        W40481  41.976  33.110   2.800
74073W        W40482  24.246  28.142   2.729
74074W        W40483   4.714  35.880  14.454
74075W        W40484  33.256  15.279  11.473
74076W        W40485  21.727  23.481  14.744
74077W        W40486   3.256  18.136   2.698
74078W        W40487  26.045  34.788  13.495
74079W        W40488  14.861  18.779  14.130
74080W        W40489  33.031  20.329   3.316
74081W        W40490  28.025  15.593   1.821
74082W        W40491  32.526   6.452   3.181
74083W        W40492  39.517   5.087   1.836
74084W        W40493  33.779  40.370   1.146
74085W        W40494  31.596  26.719   1.554
74086W        W40495  12.357   4.849   2.686
74087W        W40496   4.392  23.448  11.166
74088W        W40497  13.378  34.054  10.241
74089W        W40498  15.361  15.559   0.063
74090W        W40499  36.776  29.273   2.748
74091W        W40500   6.383  39.855  10.440
74092W        W40501  21.795   0.165  12.995
74093W        W40502  22.769  42.830   3.187
74094W        W40503  22.956  40.340  13.398
74095W        W40504  37.580  44.344   1.817
74096W        W40505  19.597  11.220   3.351
74097W        W40506  36.005  15.485  10.529
74098W        W40507  26.046   5.170   1.183
74099W        W40508  17.629   8.441   3.222
74100W        W40509   1.613  43.577  11.220
74101W        W40510  13.068  15.242   2.573
74102W        W40511  31.117  28.435  10.838
74103W        W40512  37.925  15.171  10.279
74104W        W40513  11.941  22.595   3.180
74105W        W40514  20.637  21.977   3.702
74106W        W40515  35.750  15.775  14.971
74107W        W40516   0.209  15.388   0.742
74108W        W40517   8.653  21.466   3.803
74109W        W40518  21.646   3.414   3.314
74110W        W40519  19.958  13.938   3.381
74111W        W40520  28.188  42.434   3.552
74112W        W40521  33.113  13.081  13.537
74113W        W40522  31.501  33.385  14.960
74114W        W40523  22.702  13.878  10.671
74115W        W40524  17.261   4.833   2.700
74116W        W40525  44.943  31.232  11.181
74117W        W40526  14.280  43.048  11.847
74118W        W40527  26.238  43.848  13.111
74119W        W40528  40.587  25.160  12.728
74120W        W40529  40.025  41.329  13.520
74121W        W40530  14.479  16.967  14.025
74122W        W40531  41.995  35.949  11.887
74123W        W40532  30.454   9.502   2.891
74124W        W40533   3.209  15.862  11.473
74125W        W40534   6.380  21.785   4.292
74126W        W40535  43.593  10.336   3.993
74127W        W40536  22.612   4.921  11.496
74128W        W40537   3.691  17.862  13.488
74129W        W40538  32.403   4.828   3.576
74130W        W40539  36.041  12.092   3.539
74131W        W40540   3.743   0.265   4.840
74132W        W40541  33.888  44.296  10.266
74133W        W40542   3.664  16.729  14.522
74134W        W40543  28.062  25.416  11.560
74135W        W40544  18.249   7.679   1.207
74136W        W40545   0.349  10.793  14.184
74137W        W40546  27.961  37.108   1.680
74138W        W40547  16.613  31.563  11.524
74139W        W40548   5.841  32.217  13.075
74140W        W40549  38.889   2.632  13.864
74141W        W40550  23.640  33.428   4.515
74142W        W40551  29.517   0.038  13.442
74143W        W40552  36.429  22.509   3.071
74144W        W40553  25.020  37.391   4.103
74145W        W40554   2.053  14.217   2.816
74146W        W40555  37.650  37.869  10.861
74147W        W40556  13.160  18.672   2.707
74148W        W40557  42.556  25.010   3.717
74149W        W40558  35.692  14.593   1.953
74150W        W40559  40.895  33.363   0.978
74151W        W40560  10.392  12.732   1.114
74152W        W40561  36.394   8.139   3.848
74153W        W40562  42.803  31.338   3.699
74154W        W40563  23.184  24.463  14.424
74155W        W40564   2.915   6.381  12.573
74156W        W40565  12.602  22.079   3.637
74157W        W40566   9.784   5.400  14.015
74158W        W40567  25.066   9.177  11.368
74159W        W40568  33.339  10.056  10.306
74160W        W40569   2.991  27.564   3.771
74161W        W40570  31.961  16.334   2.966
74162W        W40571  34.503  27.174   0.909
74163W        W40572  34.939  31.559  11.814
74164W        W40573  36.978  14.099   0.697
74165W        W40574   1.738  15.013   3.790
74166W        W40575  21.645  37.659  14.315
74167W        W40576  32.443  12.641  12.998
74168W        W40577  34.509  10.210   3.788
74169W        W40578   3.666  39.910   2.487
74170W        W40579  11.605  21.978   0.306
74171W        W40580  30.445  18.859  12.854
74172W        W40581  19.435  10.340  11.119
74173W        W40582  22.242  44.014  12.948
74174W        W40583   1.370   9.198  13.374
74175W        W40584  39.150  25.247  12.166
74176W        W40585  29.087  37.839   1.410
74177W        W40586  24.511  11.669   0.861
74178W        W40587  29.898  18.616   1.720
74179W        W40588  21.133   7.910   1.309
74180W        W40589  39.547  40.481   2.896
74181W        W40590  21.606   7.174   0.380
74182W        W40591   1.188  43.433   1.167
74183W        W40592  33.437  29.226   0.314
74184W        W40593  24.269  36.357   2.670
74185W        W40594  37.540  28.716   3.244
74186W        W40595  31.065   0.739  12.223
74187W        W40596  36.322  32.545  13.911
74188W        W40597   8.856  16.377   1.315
74189W        W40598  40.595  32.626   1.853
74190W        W40599  33.890  11.250   3.672
74191W        W40600  21.759  15.666   1.388
74192W        W40601   5.761  23.567   3.535
74193W        W40602   7.829  33.581  13.883
74194W        W40603  43.496  41.430   1.646
74195W        W40604  23.203  41.770  14.397
74196W        W40605  30.972  43.841  11.021
74197W        W40606  23.722  25.473   3.700
74198W        W40607  12.902  27.280   1.751
74199W        W40608  29.204   6.528   1.022
74200W        W40609   9.811  16.274   2.216
74201W        W40610  15.793  10.777  10.767
74202W        W40611   1.777  35.029   0.899
74203W        W40612   3.123  39.891  13.784
74204W        W40613   4.650   2.806  11.576
74205W        W40614  12.297  42.536  13.764
74206W        W40615  42.515  19.737   0.863
74207W        W40616  29.332  35.358  12.187
74208W        W40617  24.015  29.297   4.129
74209W        W40618   5.724  34.122   3.494
74210W        W40619   5.613  35.626   2.282
74211W        W40620   3.399   5.455  12.261
74212W        W40621   9.792   1.572   3.665
74213W        W40622  12.608  31.747  11.459
74214W        W40623  18.169   2.198   1.739
74215W        W40624  32.867  34.030  14.089
74216W        W40625  38.316  28.343   3.513
74217W        W40626  23.761  16.841   2.769
74218W        W40627   1.889  43.283   3.773
74219W        W40628  44.473  25.479   4.716
74220W        W40629  39.415  21.209   4.083
74221W        W40630  33.960   2.372  12.140
74222W        W40631  40.942  17.737  14.875
74223W        W40632  24.913  24.735   0.952
74224W        W40633  32.561  37.480   1.055
74225W        W40634  23.058  15.805  11.208
74226W        W40635  24.810  38.638   3.871
74227W        W40636  40.924  15.359   3.592
74228W        W40637  24.992  27.694   2.733
74229W        W40638  12.765  32.406   1.285
74230W        W40639   8.315  12.133   1.536
74231W        W40640  15.333  13.094   4.079
74232W        W40641  39.454   9.355  10.933
74233W        W40642   4.982  41.272   4.493
74234W        W40643  27.757  16.774  13.098
74235W        W40644  10.994  24.126   1.259
74236W        W40645  10.777  27.652  14.043
74237W        W40646  11.690  14.780   1.105
74238W        W40647   0.045  44.794   0.793
74239W        W40648  39.197   6.249  12.939
74240W        W40649  33.022  21.495  13.325
74241W        W40650  43.463  23.936   3.250
74242W        W40651   2.292  41.624   9.960
74243W        W40652  33.435   5.490   4.274
74244W        W40653  20.772   2.708  12.043
74245W        W40654  17.346  12.307  11.548
74246W        W40655  22.269  34.377   2.314
74247W        W40656  41.425   9.195   0.706
74248W        W40657  35.125  20.106  10.695
74249W        W40658  36.405  43.215   0.304
74250W        W40659  39.872  11.796   1.158
74251W        W40660  19.514  13.669   3.375
74252W        W40661   1.167  44.070  12.920
74253W        W40662  36.911  26.492  11.562
74254W        W40663  32.099  12.201  12.532
74255W        W40664  28.020  33.638  10.986
74256W        W40665  18.161  23.013  12.787
74257W        W40666  13.900  44.649  11.106
74258W        W40667  26.203  18.711   0.413
74259W        W40668  40.053  25.488   0.809
74260W        W40669  10.413  43.069  11.940
74261W        W40670  41.594  35.931  13.371
74262W        W40671  40.493   6.394  14.363
74263W        W40672  27.517   0.063  12.897
74264W        W40673  25.932   2.966  13.142
74265W        W40674   1.846  30.020   0.716
74266W        W40675   1.462  32.564   2.633
74267W        W40676  43.789   9.407  13.515
74268W        W40677   6.689  24.938  11.720
74269W        W40678  12.102  13.347  10.663
74270W        W40679  34.841  38.379  12.423
74271W        W40680  35.525  27.044   0.463
74272W        W40681  38.405  33.380   2.241
74273W        W40682  33.105  17.713   1.508
74274W        W40683   8.881  39.784   0.745
74275W        W40684  26.120   7.461  11.193
74276W        W40685   4.797  20.716  13.666
74277W        W40686  36.918  32.327  12.576
74278W        W40687  43.874  28.785   3.592
74279W        W40688  33.384  16.628   3.695
74280W        W40689  26.044  41.286   2.289
74281W        W40690   6.970  18.523   4.042
74282W        W40691  42.306  29.338   1.427
74283W        W40692  42.835  13.389   3.571
74284W        W40693  35.340  14.771  13.412
74285W        W40694  13.312  36.645  12.184
74286W        W40695  31.440  20.736   0.208
74287W        W40696  12.138  39.014   1.066
74288W        W40697  21.015  14.826   1.226
74289W        W40698  34.297  28.273  14.032
74290W        W40699   5.255   9.925  11.612
74291W        W40700  29.494   0.321   2.129
74292W        W40701   0.391  11.353  12.176
74293W        W40702  19.556  21.756  11.240
74294W        W40703  13.993  23.490  11.293
74295W        W40704   1.076  38.763   4.113
74296W        W40705  33.411  17.099   4.348
74297W        W40706  15.834  37.851   2.110
74298W        W40707   1.369  29.688   3.524
74299W        W40708   8.609  30.014   0.481
74300W        W40709  41.808   5.490  13.838
74301W        W40710  33.352   1.943   4.128
74302W        W40711  28.654  38.823  14.504
74303W        W40712   0.200   1.431   3.804
74304W        W40713  44.762  22.717   3.527
74305W        W40714  11.636   6.175   4.705
74306W        W40715   5.165  31.076  10.688
74307W        W40716  13.695  39.470  14.923
74308W        W40717  18.824  31.387   2.307
74309W        W40718   5.659  15.911   0.866
74310W        W40719   8.317  23.628  13.352
74311W        W40720  11.316  28.240  11.142
74312W        W40721   4.251  28.067  13.155
74313W        W40722  43.782  11.862   0.918
74314W        W40723   8.084  44.780   1.899
74315W        W40724   3.208   1.658  11.214
74316W        W40725  23.660   6.478   0.747
74317W        W40726  23.805  44.524   3.853
74318W        W40727   0.897  10.862  10.583
74319W        W40728   6.893  19.158   3.480
74320W        W40729  29.407   5.631   2.472
74321W        W40730  40.001  37.872  12.639
74322W        W40731  32.062  15.007   4.006
74323W        W40732  15.705  11.331   4.404
74324W        W40733  25.496  19.309  11.051
74325W        W40734  30.968  26.492  14.282
74326W        W40735  17.209   2.763   4.518
74327W        W40736   5.210   1.242  13.162
74328W        W40737  22.757   3.097  11.281
74329W        W40738  41.964  41.484   0.822
74330W        W40739  34.124   2.710   3.624
74331W        W40740  29.054  12.385   3.626
74332W        W40741  24.048  36.095  12.971
74333W        W40742  38.766  12.432  10.803
74334W        W40743  26.746  35.228   2.424
74335W        W40744  14.039  19.831  11.505
74336W        W40745   4.627  26.353  11.083
74337W        W40746  23.762   2.796   1.207
74338W        W40747  36.017   2.313   5.005
74339W        W40748  40.738   4.037  12.112
74340W        W40749  41.790  29.587   2.352
74341W        W40750  17.167  34.659  13.127
74342W        W40751  24.130  25.945  14.870
74343W        W40752  39.510   2.190   3.906
74344W        W40753  10.445  35.104  14.973
74345W        W40754   4.939  27.511   2.597
74346W        W40755   9.213  27.505  14.213
74347W        W40756  13.037  16.830  14.934
74348W        W40757  33.647  30.614   3.612
74349W        W40758  19.695   8.026   0.385
74350W        W40759  14.925  40.115  14.530
74351W        W40760  17.714  15.775  13.925
74352W        W40761  16.321   3.270  12.404
74353W        W40762  37.273  16.316  14.051
74354W        W40763  30.549  35.157   1.805
74355W        W40764   0.888  31.977   0.771
74356W        W40765  20.076  43.037  13.916
74357W        W40766  18.655  16.598  11.805
74358W        W40767   5.877  28.744  12.547
74359W        W40768  19.049   9.126   5.006
74360W        W40769   8.430  26.333  13.559
74361W        W40770  19.848  36.857   2.124
74362W        W40771  18.296  24.105   4.105
74363W        W40772   6.410  35.527   3.837
74364W        W40773  18.649  25.935  11.012
74365W        W40774  36.938   2.902   3.653
74366W        W40775  37.890  38.715   2.122
74367W        W40776  22.592  36.610  12.515
74368W        W40777  42.947  23.187   1.871
74369W        W40778  24.351  21.633   1.632
74370W        W40779  36.460  39.435  11.428
74371W        W40780  33.442  31.913  13.899
74372W        W40781  19.849  36.525   0.423
74373W        W40782   9.144  44.288  13.325
74374W        W40783  42.944  22.945  13.045
74375W        W40784   7.448  16.394  12.497
74376W        W40785  18.542  36.970  13.584
74377W        W40786  16.536  14.786  14.671
74378W        W40787   0.811  38.948  10.801
74379W        W40788  36.155  22.256  13.079
74380W        W40789  29.958  43.979   3.040
74381W        W40790  36.962  27.664  10.891
74382W        W40791  35.545  17.425  13.119
74383W        W40792  33.388  35.376  11.851
74384W        W40793   0.064  18.100   1.660
74385W        W40794  28.200   8.204  13.149
74386W        W40795   2.427  44.076   3.674
74387W        W40796  27.647  10.806   1.826
74388W        W40797  11.705  21.108  14.371
74389W        W40798  25.573  38.290  14.843
74390W        W40799   3.505  26.746  14.399
74391W        W40800  28.546  36.695   4.703
74392W        W40801  14.819   1.201   2.743
74393W        W40802  36.125  13.521  13.916
74394W        W40803   4.726  37.431  14.889
74395W        W40804  20.511  18.538   2.210
74396W        W40805  42.502   9.386  11.910
74397W        W40806   4.898  12.189   2.414
74398W        W40807   9.297   9.238   3.283
74399W        W40808  35.600  20.315  12.437
74400W        W40809  38.661   8.879   0.038
74401W        W40810   7.709  32.376   2.744
74402W        W40811  21.206  12.537  14.959
74403W        W40812  40.052  36.334   2.185
74404W        W40813  32.883  42.233   1.095
74405W        W40814   7.548  13.769  13.517
74406W        W40815  35.821  19.157   0.174
74407W        W40816  38.263  28.736  12.657
74408W        W40817  38.350  32.853   0.729
74409W        W40818   8.806   5.071  12.398
74410W        W40819  12.826  13.396   4.049
74411W        W40820  23.059  33.581   3.883
74412W        W40821  35.153  29.721  14.292
74413W        W40822  23.040  23.830   2.499
74414W        W40823  23.806   7.850   2.330
74415W        W40824  14.084  25.009  13.827
74416W        W40825  44.259   1.494  13.094
74417W        W40826  17.705  12.863  14.776
74418W        W40827  44.907  16.384  10.788
74419W        W40828  14.084   4.108  12.313
74420W        W40829  16.039   5.843   4.357
74421W        W40830  17.608  29.513  13.931
74422W        W40831  24.800   7.484   2.089
74423W        W40832  16.092  25.095  14.993
74424W        W40833  35.902  43.778   3.157
74425W        W40834   6.716   8.122   2.547
74426W        W40835  43.547  39.311   2.168
74427W        W40836   6.190  30.469   0.310
74428W        W40837  38.569   2.169   5.071
74429W        W40838  31.592   4.292   1.480
74430W        W40839  24.492  27.585   3.608
74431W        W40840  24.992  29.838   1.267
74432W        W40841  18.347  13.433   0.766
74433W        W40842  13.152  35.950  10.405
74434W        W40843   1.782  24.753   2.246
74435W        W40844  10.747  34.593   1.834
74436W        W40845  27.535  37.619   1.363
74437W        W40846  38.412  39.215   3.649
74438W        W40847  31.409  24.175  13.539
74439W        W40848  39.439   0.956  10.161
74440W        W40849  26.881  39.487  13.023
74441W        W40850  22.747  34.644  12.938
74442W        W40851   9.160  21.955   4.630
74443W        W40852  20.391  24.611  13.861
74444W        W40853  15.225  19.398   3.745
74445W        W40854  21.758   6.959  14.817
74446W        W40855  20.540   3.677  11.142
74447W        W40856  26.677  24.138   4.038
74448W        W40857  36.639  26.463   4.571
74449W        W40858   2.064  29.418  13.389
74450W        W40859  11.317  19.808   1.522
74451W        W40860  41.252  19.542  13.845
74452W        W40861  11.221  15.703   2.310
74453W        W40862   2.511  30.514  11.717
74454W        W40863  25.627  38.981  11.993
74455W        W40864  39.108  27.953  13.014
74456W        W40865  25.691  33.114   1.016
74457W        W40866  42.704   8.118   0.629
74458W        W40867  23.256  20.485  12.329
74459W        W40868  27.704   8.684  12.616
74460W        W40869   5.387  39.327   0.718
74461W        W40870  31.644  28.940   4.614
74462W        W40871   2.192   9.176   4.502
74463W        W40872  38.520  20.488  13.935
74464W        W40873  33.434  42.428  14.729
74465W        W40874  17.388  28.253  11.573
74466W        W40875   0.406   1.142  13.395
74467W        W40876  30.555  15.218  11.255
74468W        W40877  16.598  34.014   4.566
74469W        W40878  29.190   0.866   0.811
74470W        W40879  24.652  23.162   4.129
74471W        W40880  38.555  14.823  11.471
74472W        W40881  41.105  21.835   1.420
74473W        W40882  19.588  29.922  13.878
74474W        W40883  22.526   0.112   1.307
74475W        W40884  44.654  35.996   3.184
74476W        W40885  29.094  25.093  14.188
74477W        W40886  39.350  42.368  11.221
74478W        W40887   4.184  24.631  11.957
74479W        W40888  12.110   7.204   2.217
74480W        W40889  25.461  39.462   3.872
74481W        W40890  30.507   1.134  12.457
74482W        W40891  23.751   2.191  14.459
74483W        W40892  38.306  40.769   2.634
74484W        W40893  43.981   2.257   2.241
74485W        W40894  32.160   0.764   3.258
74486W        W40895  29.351   6.155  12.489
74487W        W40896  33.439   4.431  14.071
74488W        W40897  32.209  29.515  13.501
74489W        W40898  24.390  43.081  14.586
74490W        W40899   8.603  43.344  10.541
74491W        W40900  24.964  32.656  11.909
74492W        W40901  25.591  23.331   1.835
74493W        W40902  30.039  33.370   3.239
74494W        W40903   5.219  17.237   1.021
74495W        W40904   1.837   9.258   4.911
74496W        W40905  14.993  18.206   0.887
74497W        W40906  15.155   7.127   4.095
74498W        W40907  13.471  29.431   2.401
74499W        W40908   2.849   6.388  10.721
74500W        W40909  36.124   6.810   1.457
74501W        W40910   0.923  21.690  12.555
74502W        W40911  41.053  14.974  11.043
74503W        W40912  33.854  25.737   0.164
74504W        W40913  33.231   3.836  11.977
74505W        W40914  36.424  33.039   2.813
74506W        W40915  30.304  19.736  11.466
74507W        W40916  20.055  44.819  11.968
74508W        W40917  17.093  20.243  11.546
74509W        W40918  28.901  28.824  10.716
74510W        W40919  24.633  36.563  14.169
74511W        W40920   1.275  23.748  11.689
74512W        W40921  12.708  22.723  11.447
74513W        W40922  30.986   4.164  14.591
74514W        W40923  25.751   5.624  10.895
74515W        W40924  13.858   7.167   0.036
74516W        W40925   3.462   2.731   2.695
74517W        W40926  18.397  13.891   2.785
74518W        W40927  36.585  19.520   2.259
74519W        W40928   7.031   3.324  12.417
74520W        W40929   1.538  29.635  10.689
74521W        W40930  38.014   7.225   0.167
74522W        W40931  39.223   9.163   2.094
74523W        W40932  26.827  19.736   2.272
74524W        W40933  41.393   4.514  14.245
74525W        W40934  41.871  11.799   2.953
74526W        W40935   8.768   3.314   0.330
74527W        W40936  28.941  20.001  13.725
74528W        W40937   7.966  22.501   2.830
74529W        W40938  44.193  28.630  13.371
74530W        W40939  16.821  29.444   4.216
74531W        W40940  24.849  37.990  14.018
74532W        W40941  27.334  10.540   5.019
74533W        W40942  20.466  25.062  12.932
74534W        W40943  31.457  43.424   4.153
74535W        W40944  38.089  29.519   4.771
74536W        W40945  14.078  42.854   4.970
74537W        W40946  13.565  36.550   5.126
74538W        W40947  43.990  34.614  11.961
74539W        W40948   0.400   6.331   2.412
74540W        W40949  13.404  34.011   5.317
74541W        W40950  24.898   0.903   4.156
74542W        W40951  20.009  22.960   0.260
74543W        W40952  12.522   7.271   0.050
74544W        W40953  11.397   0.473   0.778
74545W        W40954  10.000   3.604  13.913
74546W        W40955  20.038  24.980   2.173
74547W        W40956   2.152   5.697   3.224
74548W        W40957  27.703   4.451  13.457
74549W        W40958  44.992  36.528  14.797
74550W        W40959   6.980  19.634  11.038
74551W        W40960  33.399  31.548  12.534
74552W        W40961   6.265  42.019  12.934
74553W        W40962  40.563  27.024  12.369
74554W        W40963  18.153   8.647  12.088
74555W        W40964  12.797  26.049  11.646
74556W        W40965  10.444  15.148  12.176
74557W        W40966   5.167  26.217   0.316
74558W        W40967   6.621  25.375   1.179
74559W        W40968  15.648  43.146   4.100
74560W        W40969  41.988  30.688  11.106
74561W        W40970  15.743  36.341  10.500
74562W        W40971   1.141  13.575  14.539
74563W        W40972  44.237   0.456  11.162
74564W        W40973  26.740  27.586   0.215
74565W        W40974  16.902  29.152  11.527
74566W        W40975  11.308   0.023  13.478
74567W        W40976  35.473   6.864   0.922
74568W        W40977   5.747  41.954  14.813
74569W        W40978  41.254  12.205  13.559
74570W        W40979  18.863  20.154   3.833
74571W        W40980  14.734  35.929   0.398
74572W        W40981  30.526  37.440  10.773
74573W        W40982  41.135  22.542   1.810
74574W        W40983   5.936  24.574   3.533
74575W        W40984  18.504  24.684  11.403
74576W        W40985  19.696  24.004   1.856
74577W        W40986  27.534  10.185  14.051
74578W        W40987   4.014  28.621   1.675
74579W        W40988  29.647  10.767   1.901
74580W        W40989   8.846  37.852   0.355
74581W        W40990   0.033  14.165   4.969
74582W        W40991   3.383   6.461   4.928
74583W        W40992  11.808  28.606  11.158
74584W        W40993   9.197  11.228   2.086
74585W        W40994  13.231  22.283   2.942
74586W        W40995  39.223  42.480   0.860
74587W        W40996  13.561  15.843   1.874
74588W        W40997   2.428  41.950   2.869
74589W        W40998   7.861  44.684  13.818
74590W        W40999  37.579   0.100  11.002
74591W        W41000  28.975  40.849   3.593
74592W        W41001   6.251   9.294  12.558
74593W        W41002  19.196  39.048   4.585
74594W        W41003  27.199  42.033   4.166
74595W        W41004  22.472  10.173  12.899
74596W        W41005  17.254  10.370  13.327
74597W        W41006  14.856   4.885   1.852
74598W        W41007  32.550  35.772  12.059
74599W        W41008  19.934  13.390  11.554
74600W        W41009   6.958   3.326  13.037
74601W        W41010  11.065  15.272   4.103
74602W        W41011   8.166  12.717   5.188
74603W        W41012   4.838  32.137   1.184
74604W        W41013   5.431  23.588  13.743
74605W        W41014   4.124   5.195  13.875
74606W        W41015   4.762  18.275   2.565
74607W        W41016  37.278  14.551  10.728
74608W        W41017   7.707  17.702  12.846
74609W        W41018  43.068  10.587   1.315
74610W        W41019  38.041  35.576   2.002
74611W        W41020  22.260  29.653  11.422
74612W        W41021  29.572   6.903  11.117
74613W        W41022  25.898  40.045  12.425
74614W        W41023  23.891  33.473   0.223
74615W        W41024  37.090   6.290  12.091
74616W        W41025  12.189  14.548  12.669
74617W        W41026  33.867  18.074   1.761
74618W        W41027   9.328  14.358   0.707
74619W        W41028  42.261   3.398  13.110
74620W        W41029   4.521   3.435  14.872
74621W        W41030  18.536  40.390  12.326
74622W        W41031   1.434   0.877   3.690
74623W        W41032   4.439   1.372  11.390
74624W        W41033  43.720   9.460   3.127
74625W        W41034  26.661  18.490   0.775
74626W        W41035  23.764  31.135   2.621
74627W        W41036   3.871   3.532   2.818
74628W        W41037  37.387  17.409  13.800
74629W        W41038  15.233  25.176  10.650
74630W        W41039   2.883  43.212   0.902
74631W        W41040  34.966   6.987  12.445
74632W        W41041  44.554  36.578  14.519
74633W        W41042  23.781  30.859  11.953
74634W        W41043  13.296  36.029   3.207
74635W        W41044  22.175  26.254  11.362
74636W        W41045  44.248  37.202   0.861
74637W        W41046  43.122  16.258  12.236
74638W        W41047  33.334  40.955   0.814
74639W        W41048  42.008   8.630   2.319
74640W        W41049  25.414  36.156  12.433
74641W        W41050  36.547  40.561   0.899
74642W        W41051  15.876  24.064  11.947
74643W        W41052  29.369   3.231   0.031
74644W        W41053  36.978   8.429   4.606
74645W        W41054  10.898  26.981  12.168
74646W        W41055   9.360  14.560   1.214
74647W        W41056  25.047  24.281   0.766
74648W        W41057  37.365  11.948  13.387
74649W        W41058  40.556  36.274   1.336
74650W        W41059   7.734  12.248   3.807
74651W        W41060   5.825  23.996   3.170
74652W        W41061  43.508  19.221  11.066
74653W        W41062  44.672   9.752   2.593
74654W        W41063   8.570  32.065  13.388
74655W        W41064  27.549  14.542   2.630
74656W        W41065  23.461  25.468   3.263
74657W        W41066  30.051  11.053   4.169
74658W        W41067  19.498   5.129  10.711
74659W        W41068  24.177  41.652   5.069
74660W        W41069  26.944   3.294   5.066
74661W        W41070  12.198   6.638  11.515
74662W        W41071  29.931  37.860   4.093
74663W        W41072   5.821  24.026  14.295
74664W        W41073  24.625  18.096  10.894
74665W        W41074  24.940  21.151   2.181
74666W        W41075  39.784   6.177   3.365
74667W        W41076  15.231  30.964   3.684
74668W        W41077   9.464  42.952   2.862
74669W        W41078  44.318  29.378   4.113
74670W        W41079  25.184  41.948  14.361
74671W        W41080  36.408  40.422   4.517
74672W        W41081  23.058  15.403   4.598
74673W        W41082  25.666  30.494  14.240
74674W        W41083   2.697  12.370   4.615
74675W        W41084  19.687  32.570   1.838
74676W        W41085  15.109  32.589   3.857
74677W        W41086  36.839  42.058  11.189
74678W        W41087  14.252  33.331   3.000
74679W        W41088  11.154  25.476   1.748
74680W        W41089  15.591  11.786  10.732
74681W        W41090  29.369  24.141   4.986
74682W        W41091  33.893  22.736  10.496
74683W        W41092  10.938  19.473   1.377
74684W        W41093  23.854  35.858   4.673
74685W        W41094  18.985   8.275   2.603
74686W        W41095  22.689  36.338  14.917
74687W        W41096  16.455  13.057  12.675
74688W        W41097  20.021  35.583   2.235
74689W        W41098  25.465  32.066   4.054
74690W        W41099  14.741   1.315  10.968
74691W        W41100  28.518  33.566   0.466
74692W        W41101  32.422   2.569  12.094
74693W        W41102  39.049   5.169   4.689
74694W        W41103  25.460   9.891   1.394
74695W        W41104  44.002   5.715   1.770
74696W        W41105   7.312  12.784  14.447
74697W        W41106  15.374  35.061  11.068
74698W        W41107  19.134  37.194  10.331
74699W        W41108  21.303  23.198   2.380
74700W        W41109  11.828   4.383  14.061
74701W        W41110  27.952   4.950   1.485
74702W        W41111  37.618   3.382   0.503
74703W        W41112  20.601  35.929  12.609
74704W        W41113  44.002   4.026  10.890
74705W        W41114  16.295   3.661  13.318
74706W        W41115  27.199  15.978   2.791
74707W        W41116  43.820  43.388  13.533
74708W        W41117  40.705  14.759   1.684
74709W        W41118  22.251  10.692  10.955
74710W        W41119  43.656  31.635   2.374
74711W        W41120  33.379  29.785   1.790
74712W        W41121   7.860  10.855  10.972
74713W        W41122  40.840  12.976   3.197
74714W        W41123   8.154  21.184   2.305
74715W        W41124  43.879  38.913   1.397
74716W        W41125  14.242  32.645  14.720
74717W        W41126  13.843   6.434  13.360
74718W        W41127   4.694  30.600   0.233
74719W        W41128  14.815  29.524  13.443
74720W        W41129  23.249  34.564  12.842
74721W        W41130   2.284  40.167   0.230
74722W        W41131  44.847  24.068  11.215
74723W        W41132  37.000  26.814  11.181
74724W        W41133   1.152  16.242  13.979
74725W        W41134  19.801  14.936  12.176
74726W        W41135  17.287  22.239  12.173
74727W        W41136  40.285  34.464   4.838
74728W        W41137  40.482  18.436   0.262
74729W        W41138  11.498  27.409   1.627
74730W        W41139  29.426  13.368   3.707
74731W        W41140  37.345  34.894  11.651
74732W        W41141  17.619  25.643  13.888
74733W        W41142  43.120  44.471   3.702
74734W        W41143  27.557   0.760  11.595
74735W        W41144   4.434   8.785  12.151
74736W        W41145   4.253  14.861   2.276
74737W        W41146  28.914  35.522   4.409
74738W        W41147  31.113  12.273  14.790
74739W        W41148  14.336  40.872  11.996
74740W        W41149  23.470  40.115   2.718
74741W        W41150  23.659   0.962   2.161
74742W        W41151  34.059  23.436  11.949
74743W        W41152  25.625  38.829  12.894
74744W        W41153  35.600   4.712   1.920
74745W        W41154  31.059  15.375   0.825
74746W        W41155  38.244  17.873   2.772
74747W        W41156  40.486   4.628  12.148
74748W        W41157  29.040  18.036  14.885
74749W        W41158  29.029  35.559  10.778
74750W        W41159  30.324   3.411   1.825
74751W        W41160  34.774  33.018  13.435
74752W        W41161  34.569  20.328   2.714
74753W        W41162  32.965  35.903   2.878
74754W        W41163   6.568   8.883  12.448
74755W        W41164  15.790  41.921   4.539
74756W        W41165   2.681  38.754  12.834
74757W        W41166   5.203  23.647  10.485
74758W        W41167   0.766  30.853   3.229
74759W        W41168  26.207  31.991  14.434
74760W        W41169  17.748   3.790  12.082
74761W        W41170   4.132  28.126  11.575
74762W        W41171  37.306  27.135   4.149
74763W        W41172  21.306  26.223  13.867
74764W        W41173  44.451  17.090   0.302
74765W        W41174   9.684  37.456  12.072
74766W        W41175  25.652  16.417   1.340
74767W        W41176  21.476  29.162  13.498
74768W        W41177  15.320   6.133   1.210
74769W        W41178  13.040  20.120  12.381
74770W        W41179  34.109   3.748  11.885
74771W        W41180  28.970  42.315  11.615
74772W        W41181  21.188  31.970   1.346
74773W        W41182  14.292  20.282  12.817
74774W        W41183  33.490  22.646   1.758
74775W        W41184  35.625  42.011  14.685
74776W        W41185  27.744  16.031   1.800
74777W        W41186  35.416  33.918   1.347
74778W        W41187  38.976  41.237  14.537
74779W        W41188  27.877  17.077  11.458
74780W        W41189  32.219   0.967  14.334
74781W        W41190  29.504  44.708   3.631
74782W        W41191  22.804   8.901  10.760
74783W        W41192   5.343  23.549  14.243
74784W        W41193   7.736  18.236   3.182
74785W        W41194  38.529  22.161  13.835
74786W        W41195   7.398   2.890   4.107
74787W        W41196  34.897  37.176  12.028
74788W        W41197   6.977   7.625  12.136
74789W        W41198   2.893   1.269  11.737
74790W        W41199  32.087   0.198   0.771
74791W        W41200  25.161  24.457  14.952
74792W        W41201  28.684  21.725   0.832
74793W        W41202  18.000   2.242  11.957
74794W        W41203  42.778  24.609  13.576
74795W        W41204  17.554  11.439  13.014
74796W        W41205  14.676  38.283  13.143
74797W        W41206   6.499  42.361  12.180
74798W        W41207  32.484  40.603   3.597
74799W        W41208  34.373  40.257   2.291
74800W        W41209  11.117  18.328  14.871
74801W        W41210  11.986   0.201   4.233
74802W        W41211   0.986   1.963  14.383
74803W        W41212  12.939  24.648  11.065
74804W        W41213   4.970   5.790   0.677
74805W        W41214  22.133  21.804  14.760
74806W        W41215   6.035  30.830  12.864
74807W        W41216  15.699  13.243  12.141
74808W        W41217  24.661   9.198   0.202
74809W        W41218  19.767  42.363  11.572
74810W        W41219  11.946  31.090  14.764
74811W        W41220  11.368  21.484  10.960
74812W        W41221   0.203  15.403  13.314
74813W        W41222   5.506   7.990  12.231
74814W        W41223  26.943  34.559  12.514
74815W        W41224  15.753  14.140  10.364
74816W        W41225  22.455  38.847  11.532
74817W        W41226  11.700  19.619   3.286
74818W        W41227   8.375  32.112   0.943
74819W        W41228  11.754  11.936   3.631
74820W        W41229  39.695  18.213  14.710
74821W        W41230  10.748  20.591   4.344
74822W        W41231  39.922  14.567   1.289
74823W        W41232   2.741   5.457   0.851
74824W        W41233   7.786  23.493   2.571
74825W        W41234  28.905  19.741  10.669
74826W        W41235  36.911   3.710  10.465
74827W        W41236   8.150  29.473   1.297
74828W        W41237  40.198  44.196  11.252
74829W        W41238   1.931  17.250   0.493
74830W        W41239  15.748  34.555   3.681
74831W        W41240  17.065   6.410  14.318
74832W        W41241  20.359  18.755   2.841
74833W        W41242   9.207  19.884  13.072
74834W        W41243  42.483  13.087   3.810
74835W        W41244  37.369  34.420   3.457
74836W        W41245   1.376   4.001  13.943
74837W        W41246  29.379  13.017  12.777
74838W        W41247   4.753  15.841   1.674
74839W        W41248   5.933   5.326  14.339
74840W        W41249  12.111   5.997   0.354
74841W        W41250  43.226  44.912   2.741
74842W        W41251  24.063  39.648  12.499
74843W        W41252  19.758  39.090   0.830
74844W        W41253  10.577  32.549   2.824
74845W        W41254  26.077   7.843  10.007
74846W        W41255  23.077  14.424   4.167
74847W        W41256   4.878  37.791   1.814
74848W        W41257  24.690  14.694   4.212
74849W        W41258  39.130  30.738   0.027
74850W        W41259  10.201   5.942   4.896
74851W        W41260  36.832  29.975   1.263
74852W        W41261   6.334  17.594   2.397
74853W        W41262  41.769  16.091  12.004
74854W        W41263  41.605  32.066  14.987
74855W        W41264  25.603  38.016  14.385
74856W        W41265  32.464  14.387  13.454
74857W        W41266  31.858  42.030   2.750
74858W        W41267  23.492  28.837   0.307
74859W        W41268  33.863   6.389  11.792
74860W        W41269  24.494   2.493   2.410
74861W        W41270  16.275  32.955  13.520
74862W        W41271  11.931  33.102  12.883
74863W        W41272   7.770  19.806  10.715
74864W        W41273  15.871  20.041   0.643
74865W        W41274  44.263  14.329   3.363
74866W        W41275  35.449  15.383   2.883
74867W        W41276  34.240   1.444   4.110
74868W        W41277  13.642   5.781   2.153
74869W        W41278   8.690  19.246   2.426
74870W        W41279  39.938  24.759   4.488
74871W        W41280  23.218   2.883  11.867
74872W        W41281  30.037  30.781  13.029
74873W        W41282  17.348  30.659  11.926
74874W        W41283  15.622  34.887  14.813
74875W        W41284  39.838  21.952  11.515
74876W        W41285  17.261  32.105   1.450
74877W        W41286  13.232  39.564   1.934
74878W        W41287  22.991  23.192  10.336
74879W        W41288  17.157  40.280   2.232
74880W        W41289   7.205  20.303   3.716
74881W        W41290  18.427  32.562  14.890
74882W        W41291   0.295  30.538  13.257
74883W        W41292   9.271   0.883   9.632
74884W        W41293  21.664  32.522  13.800
74885W        W41294  27.558  13.351  11.424
74886W        W41295   7.448   7.619   3.738
74887W        W41296   1.336   6.916  11.670
74888W        W41297   4.393   0.677   2.819
74889W        W41298   4.018  33.125  11.666
74890W        W41299  20.137  34.406  14.010
74891W        W41300  20.277  22.244  12.022
74892W        W41301  31.136   1.369   0.996
74893W        W41302   9.721  31.438  12.970
74894W        W41303  38.433  31.395  11.201
74895W        W41304  25.644  33.143  12.360
74896W        W41305  31.902  31.074   1.716
74897W        W41306  44.756  16.979  14.902
74898W        W41307   0.109   0.933  14.470
74899W        W41308  43.801  37.436   3.754
74900W        W41309  39.526  39.828  10.616
74901W        W41310  37.451  18.019  12.986
74902W        W41311  35.186  35.571   2.649
74903W        W41312  39.506  37.342  12.861
74904W        W41313  33.119   5.876   4.184
74905W        W41314  14.212  29.640   0.759
74906W        W41315  23.546   8.726   1.758
74907W        W41316  20.734  18.315  11.532
74908W        W41317  35.184  18.678   1.446
74909W        W41318  20.719  39.658  13.519
74910W        W41319  31.513  39.544  10.556
74911W        W41320   1.699  12.298   1.242
74912W        W41321  35.205  25.483  11.613
74913W        W41322  31.529  44.514  11.899
74914W        W41323  14.176   6.657  11.932
74915W        W41324  42.377   2.173  11.241
74916W        W41325  19.020  43.089   2.382
74917W        W41326  35.059  27.645   3.801
74918W        W41327  22.978  31.454   0.886
74919W        W41328  16.868  28.036   2.211
74920W        W41329  37.977  41.739  13.601
74921W        W41330   3.703   8.825   1.732
74922W        W41331  30.909   5.820   3.761
74923W        W41332  16.339  12.151  12.892
74924W        W41333  41.837  24.277  12.582
74925W        W41334  13.427  13.331   0.846
74926W        W41335  19.568  13.767   2.145
74927W        W41336  44.940   5.847  13.748
74928W        W41337   3.011  11.741   4.111
74929W        W41338  28.397  26.708  11.610
74930W        W41339   2.361  16.796   3.728
74931W        W41340  30.714   4.890   3.002
74932W        W41341  14.219   5.828   2.879
74933W        W41342  34.335  11.183  14.563
74934W        W41343  37.006  26.538   4.913
74935W        W41344  10.864  33.844   0.190
74936W        W41345   6.074  42.836  11.969
74937W        W41346  41.638  11.771   4.369
74938W        W41347   5.926  28.092  11.997
74939W        W41348   8.341  22.308   1.631
74940W        W41349  14.562  41.254   4.111
74941W        W41350  32.127   5.997  10.644
74942W        W41351  11.072   9.932   1.718
74943W        W41352   7.137   8.226  12.918
74944W        W41353  11.755  35.540   2.589
74945W        W41354  28.150  22.786  10.345
74946W        W41355  18.787  27.540  12.128
74947W        W41356  11.565  12.234   4.075
74948W        W41357   2.452  25.390   1.849
74949W        W41358  18.494  41.845   2.896
74950W        W41359  44.005  33.129   3.715
74951W        W41360  22.066  40.917  12.700
74952W        W41361  43.915  21.106   3.630
74953W        W41362  42.047  11.775   3.942
74954W        W41363  23.013  26.219   3.751
74955W        W41364  40.101  18.609   1.901
74956W        W41365   7.208   2.822  12.505
74957W        W41366  15.846  43.114  13.058
74958W        W41367   5.180  42.964  13.010
74959W        W41368  18.723  18.145  11.949
74960W        W41369  30.527  22.578  10.679
74961W        W41370  38.557  38.828   3.362
74962W        W41371  27.931  29.520   3.272
74963W        W41372  15.997   3.389  13.928
74964W        W41373   9.139   9.957  10.551
74965W        W41374   3.692  32.199   0.824
74966W        W41375   8.192  31.127  13.862
74967W        W41376  14.484  12.038   3.834
74968W        W41377  23.854   3.899  12.958
74969W        W41378   8.306   0.767  12.049
74970W        W41379  41.020  30.682  12.932
74971W        W41380  16.920  43.540   4.420
74972W        W41381   6.936  43.966  14.750
74973W        W41382  28.690  17.051  12.978
74974W        W41383  16.711  17.102   4.479
74975W        W41384  18.134   1.995  13.121
74976W        W41385   8.376  38.134  13.826
74977W        W41386  29.935   9.802   3.711
74978W        W41387  33.492  15.652   3.175
74979W        W41388  12.618  17.644  13.522
74980W        W41389  20.464  21.644   0.217
74981W        W41390  42.751  13.491   3.074
74982W        W41391  10.961  13.188  14.077
74983W        W41392  11.203  43.301   3.639
74984W        W41393  43.613   8.929   1.669
74985W        W41394  36.887  22.520   1.939
74986W        W41395  19.767   0.305  14.047
74987W        W41396  37.618  15.295   1.798
74988W        W41397  25.127  41.803  11.918
74989W        W41398   3.889   4.271   3.007
74990W        W41399   1.488  25.737  13.851
74991W        W41400   9.402  23.117  11.624
74992W        W41401  26.406  41.449  12.929
74993W        W41402  26.600   4.924  11.934
74994W        W41403  26.398   7.170   3.003
74995W        W41404  34.072  33.092  12.651
74996W        W41405  20.171  22.740   1.632
74997W        W41406  33.125  34.442   4.113
74998W        W41407  13.947   0.275   0.336
74999W        W41408  42.179  24.662  12.459
75000W        W41409  23.791  14.849   3.191
75001W        W41410  38.886  19.185  12.433
75002W        W41411  13.724  23.555   1.284
75003W        W41412   1.499  17.826  12.593
75004W        W41413   7.826  29.178   4.637
75005W        W41414  43.807  29.178  11.278
75006W        W41415   8.764   8.402   4.151
75007W        W41416  43.285   6.878   3.645
75008W        W41417  21.463  43.761   2.764
75009W        W41418   9.243  11.112   1.576
75010W        W41419  44.432  20.618   4.110
75011W        W41420  30.708  25.198   4.301
75012W        W41421   7.921  23.640  11.577
75013W        W41422  32.379   3.235  10.764
75014W        W41423   1.832  34.548  14.000
75015W        W41424  30.031  24.177   0.208
75016W        W41425  21.043   8.599   3.305
75017W        W41426  36.398  37.550  11.454
75018W        W41427   4.942  30.215  12.514
75019W        W41428  26.088  25.335   0.949
75020W        W41429   0.507   9.058   3.224
75021W        W41430  31.064  23.779   0.470
75022W        W41431  29.444   9.743   0.900
75023W        W41432  35.331  26.135  14.521
75024W        W41433  24.476  15.439  14.663
75025W        W41434  13.732  43.459  14.953
75026W        W41435  35.623  33.966   4.164
75027W        W41436  30.340   4.340   0.878
75028W        W41437  36.456   5.451  14.347
75029W        W41438  43.055   3.763   4.808
75030W        W41439  13.404  18.156  10.474
75031W        W41440  18.054  18.226  12.698
75032W        W41441  41.115  28.657   1.464
75033W        W41442  10.871  40.814  14.457
75034W        W41443  26.447  18.163   1.683
75035W        W41444   8.305  28.481  11.688
75036W        W41445   2.120  12.398   2.188
75037W        W41446  15.584  28.567   1.397
75038W        W41447  36.397  28.197   1.323
75039W        W41448   6.664  20.875   2.891
75040W        W41449  15.195  13.862   1.435
75041W        W41450  14.887   9.634  13.492
75042W        W41451  13.828   5.402   0.358
75043W        W41452  13.731   3.300  12.895
75044W        W41453   4.267   5.837  11.680
75045W        W41454  26.006   0.541  11.465
75046W        W41455  37.885   9.301  13.904
75047W        W41456   3.428  25.940  11.436
75048W        W41457  13.278  22.180  10.668
75049W        W41458  15.082  37.526  12.536
75050W        W41459  33.595  34.871  10.750
75051W        W41460   4.323  30.118   2.878
75052W        W41461   3.801   3.716   1.264
75053W        W41462  29.164  19.954  12.497
75054W        W41463  29.592  24.676  12.370
75055W        W41464  37.429  22.613   1.874
75056W        W41465  35.429  38.839  10.637
75057W        W41466  28.934   3.770   1.413
75058W        W41467   9.473  27.029   3.730
75059W        W41468  25.608  43.422  11.051
75060W        W41469  12.181   0.415   1.262
75061W        W41470  44.447   3.928   0.241
75062W        W41471  41.480  34.334   0.822
75063W        W41472  20.490  27.095   0.778
75064W        W41473  37.474  42.228  12.971
75065W        W41474  18.052  20.958   1.496
75066W        W41475   3.403   4.375   2.909
75067W        W41476  23.334  41.326   0.387
75068W        W41477  36.927   6.584   3.106
75069W        W41478  17.401  30.871  13.982
75070W        W41479  43.385  44.945   1.373
75071W        W41480  31.886  18.989  11.508
75072W        W41481   6.158   0.031  11.100
75073W        W41482  24.144  41.290  12.092
75074W        W41483   5.713  40.542  14.043
75075W        W41484  26.787  40.156  13.990
75076W        W41485   3.720   8.126   4.565
75077W        W41486   8.359   1.715   1.753
75078W        W41487  26.163   3.386  11.841
75079W        W41488  36.431  37.401  13.302
75080W        W41489  30.988   2.745   2.305
75081W        W41490  35.860  20.231  14.744
75082W        W41491  35.915   1.939   1.230
75083W        W41492  17.830   1.610   0.292
75084W        W41493  22.557  30.978  12.340
75085W        W41494   5.892  36.547   3.270
75086W        W41495  41.080  34.872  13.770
75087W        W41496  30.045  40.238   4.285
75088W        W41497  22.600  25.158  14.756
75089W        W41498  10.043   6.657   3.929
75090W        W41499  10.087  22.998   1.310
75091W        W41500  35.860  24.984  13.089
75092W        W41501  32.106  22.991  13.934
75093W        W41502  20.648  34.127  14.820
75094W        W41503  30.573  27.524  10.679
75095W        W41504  35.024  27.960   0.923
75096W        W41505  19.468  32.285   3.327
75097W        W41506  17.216  32.964   3.752
75098W        W41507  20.143   8.678   3.905
75099W        W41508   4.562  13.480   3.536
75100W        W41509  21.621   2.392   0.330
75101W        W41510  35.902  23.563   1.010
75102W        W41511  32.535  25.932   4.521
75103W        W41512  13.398   9.159   2.239
75104W        W41513  17.634   1.645  11.170
75105W        W41514  39.973  40.319  14.794
75106W        W41515  29.271  31.610   2.197
75107W        W41516  25.724  44.335  12.099
75108W        W41517  32.012  16.044  14.714
75109W        W41518  31.814   3.274   2.232
75110W        W41519  11.017  19.760  14.106
75111W        W41520  19.991  23.075   2.858
75112W        W41521  21.009  38.673  11.930
75113W        W41522   6.832  38.960   4.194
75114W        W41523  31.216  28.003  13.517
75115W        W41524  16.232  36.840  12.547
75116W        W41525  26.546  23.106   0.651
75117W        W41526  34.444  22.909  11.659
75118W        W41527  10.239   0.222   3.597
75119W        W41528  15.666  43.123   2.637
75120W        W41529  34.266  35.500  10.718
75121W        W41530  33.988  32.582  13.264
75122W        W41531  29.510  36.583   2.568
75123W        W41532  11.617  32.422   2.869
75124W        W41533  17.745  24.214   0.990
75125W        W41534  25.570  28.168  14.313
75126W        W41535  15.743  18.058  10.624
75127W        W41536  19.484  15.707  11.165
75128W        W41537  38.595  31.574   4.108
75129W        W41538  26.502  15.482  13.969
75130W        W41539   7.887  30.622   2.325
75131W        W41540  20.299  44.019  10.703
75132W        W41541  31.835   1.519   5.404
75133W        W41542   2.409  33.399   0.737
75134W        W41543  26.719  14.663   2.656
75135W        W41544  44.691  30.130  10.785
75136W        W41545  40.962  24.614  11.637
75137W        W41546  23.660  31.833  11.626
75138W        W41547   9.870  11.445   0.839
75139W        W41548  29.081  13.658   1.714
75140W        W41549  16.423   0.281  13.544
75141W        W41550  34.953   1.994  12.034
75142W        W41551  18.320  36.909  13.107
75143W        W41552   6.939  26.091   5.515
75144W        W41553  39.809  43.510  12.498
75145W        W41554  40.002   7.327  12.485
75146W        W41555  36.581  16.536   0.835
75147W        W41556  43.462   6.323  13.537
75148W        W41557   2.307  15.651   0.978
75149W        W41558  21.080  29.573   0.786
75150W        W41559  10.323  35.580   2.343
75151W        W41560  16.358  40.416  13.390
75152W        W41561  29.099  30.366  15.000
75153W        W41562  32.924   7.318   2.794
75154W        W41563   3.654   7.473   2.791
75155W        W41564  25.227   0.730   2.219
75156W        W41565   1.892  19.243  13.526
75157W        W41566  12.140  29.621  14.250
75158W        W41567  31.900  11.121  12.493
75159W        W41568  23.143   2.915  14.383
75160W        W41569  19.840  21.265  11.896
75161W        W41570  32.957  22.120   4.206
75162W        W41571  22.711  19.664   5.014
75163W        W41572  20.126  41.487   1.227
75164W        W41573   7.960   7.935  12.043
75165W        W41574  12.829   3.343   3.830
75166W        W41575  14.666  37.744   3.559
75167W        W41576   6.506  23.550  11.116
75168W        W41577  12.973   4.872  13.500
75169W        W41578   6.809  16.684  13.937
75170W        W41579   9.278  18.188  11.655
75171W        W41580  38.327  24.762   2.149
75172W        W41581  26.697  36.901  14.732
75173W        W41582  11.842  39.700   0.101
75174W        W41583  44.257   9.859  11.608
75175W        W41584  14.237  25.284   1.709
75176W        W41585  15.699   4.321  13.288
75177W        W41586   1.830  29.507  14.809
75178W        W41587  13.645   6.662   0.804
75179W        W41588  35.467  29.725   4.005
75180W        W41589  44.371  26.132   4.639
75181W        W41590  19.021   7.328  10.747
75182W        W41591  35.986   0.923  14.324
75183W        W41592  38.848   4.303   1.740
75184W        W41593   3.403   3.100  12.323
75185W        W41594  36.079   4.879  11.463
75186W        W41595   5.633  18.508  14.569
75187W        W41596  36.098  34.317  13.656
75188W        W41597   7.382  41.370   0.224
75189W        W41598  42.563  18.772   3.640
75190W        W41599  10.176  18.276  11.667
75191W        W41600  37.596   4.757  12.480
75192W        W41601  44.748   4.571  11.008
75193W        W41602   3.359  33.872   0.080
75194W        W41603  12.884  27.770  12.042
75195W        W41604  24.194  30.451  14.552
75196W        W41605  20.582   4.297   2.821
75197W        W41606  43.912   0.705  13.557
75198W        W41607  23.063  23.022  13.434
75199W        W41608  31.464  37.046  11.973
75200W        W41609  14.251   4.654   4.925
75201W        W41610  13.108   8.451   4.561
75202W        W41611  39.529  34.908   4.221
75203W        W41612  44.333  36.161  12.469
75204W        W41613   0.040   5.402  12.098
75205W        W41614   6.637  44.879   0.865
75206W        W41615  38.155  21.514   3.156
75207W        W41616  26.078  35.673   0.692
75208W        W41617  14.792  31.125   4.926
75209W        W41618  38.722   9.932  10.054
75210W        W41619  26.503   2.458  13.383
75211W        W41620  31.940  16.504   4.263
75212W        W41621  29.121  15.641   2.239
75213W        W41622  13.014  29.845  13.262
75214W        W41623   1.912  33.589   1.007
75215W        W41624  35.960   0.226   3.636
75216W        W41625  33.639  39.270   3.262
75217W        W41626  12.112  21.189   0.708
75218W        W41627  35.542   1.408   3.589
75219W        W41628  39.001  35.579   3.938
75220W        W41629   6.677  25.480  13.489
75221W        W41630  16.167   1.996   3.551
75222W        W41631  42.625  16.326  13.906
75223W        W41632  44.018  24.303  12.950
75224W        W41633  13.622   0.838   0.206
75225W        W41634   5.635  18.971   3.643
75226W        W41635  29.971  27.975   4.286
75227W        W41636  24.570  11.722   4.938
75228W        W41637  33.966  35.355   4.667
75229W        W41638  39.052  27.653   0.929
75230W        W41639  26.010  23.557   3.250
75231W        W41640  19.304  39.036  14.044
75232W        W41641  33.850  30.663   1.786
75233W        W41642  22.223   0.725   3.311
75234W        W41643  22.168  41.529   3.825
75235W        W41644  12.045  33.107   0.356
75236W        W41645  37.163  40.521  13.508
75237W        W41646   6.291  41.816   4.408
75238W        W41647  44.581  13.640   1.287
75239W        W41648  10.610  29.408   3.892
75240W        W41649  12.051  19.689  14.013
75241W        W41650  35.377  13.703   2.314
75242W        W41651  33.932  44.065  14.874
75243W        W41652  21.120  15.037   1.749
75244W        W41653  36.105  38.918  14.534
75245W        W41654  10.253  14.555   0.072
75246W        W41655  10.114  23.320   0.938
75247W        W41656  14.528  34.933   4.655
75248W        W41657   2.041  16.776  11.260
75249W        W41658   8.888  24.224   4.666
75250W        W41659  14.876   7.327   3.696
75251W        W41660  29.488  28.700  12.093
75252W        W41661  33.331  13.591   1.301
75253W        W41662  26.466   1.071   4.153
75254W        W41663   2.360  30.058  11.917
75255W        W41664  33.592  33.092   4.602
75256W        W41665  20.333  23.102  12.040
75257W        W41666  44.307  34.308   1.381
75258W        W41667  18.802  38.684  12.399
75259W        W41668  26.264   2.403   2.847
75260W        W41669   4.265  21.722  12.165
75261W        W41670  31.558  17.184  13.620
75262W        W41671  15.496  25.011   4.948
75263W        W41672  25.692  19.487  13.755
75264W        W41673  36.723  14.606   3.558
75265W        W41674  38.414  44.802   4.060
75266W        W41675  25.086  30.892  11.153
75267W        W41676  15.679  10.173  11.587
75268W        W41677  37.374  14.788   1.046
75269W        W41678   9.603  38.056  10.706
75270W        W41679  22.494  31.906  10.990
75271W        W41680   4.692  33.216  13.050
75272W        W41681   3.754  25.674   3.708
75273W        W41682   2.261  34.835  13.846
75274W        W41683  12.362  42.628  13.047
75275W        W41684  18.273  10.781  11.136
75276W        W41685  12.647  11.452  12.927
75277W        W41686   8.717  43.313   1.360
75278W        W41687  16.002   9.539   4.335
75279W        W41688  32.359  44.891  10.628
75280W        W41689  29.875  18.758   0.913
75281W        W41690   3.429  10.622  13.941
75282W        W41691   2.346  44.279  12.507
75283W        W41692  17.679  41.223   4.543
75284W        W41693  27.616  29.215  13.038
75285W        W41694  15.331  42.947   2.222
75286W        W41695  36.556  20.090  14.628
75287W        W41696  22.978   6.951   2.838
75288W        W41697  35.446  23.490   3.671
75289W        W41698  25.044  31.843   3.745
75290W        W41699  23.289  32.000  14.498
75291W        W41700   8.195   7.402   3.217
75292W        W41701  31.703  35.176  12.082
75293W        W41702  42.543  13.195  11.936
75294W        W41703  26.731  17.748  13.378
75295W        W41704  23.751  16.207   4.292
75296W        W41705  16.104   1.014   0.782
75297W        W41706  41.824  30.421  12.528
75298W        W41707  28.244  24.028   0.966
75299W        W41708  25.159  37.879  11.847
75300W        W41709  24.396  37.843  13.139
75301W        W41710  32.565  21.538  10.721
75302W        W41711  19.627  13.784  11.637
75303W        W41712  41.212  28.686   3.432
75304W        W41713  20.517  41.311   4.507
75305W        W41714   3.954  33.478   3.164
75306W        W41715  44.046  20.995  10.630
75307W        W41716   5.837  30.284  10.662
75308W        W41717   4.421  10.585   2.419
75309W        W41718   6.839  15.915  11.095
75310W        W41719   3.381  26.741   2.847
75311W        W41720  32.636  41.403   1.708
75312W        W41721  29.212  14.243  11.636
75313W        W41722  33.291  17.012   4.966
75314W        W41723  20.583  42.874  13.614
75315W        W41724  24.627  17.903  10.394
75316W        W41725  24.973  30.080   3.624
75317W        W41726   7.602  23.782  13.835
75318W        W41727  43.345  32.162  11.390
75319W        W41728   0.464   4.926  14.525
75320W        W41729  39.536  39.056   3.732
75321W        W41730  28.631   0.354   2.332
75322W        W41731  40.627   3.312  14.504
75323W        W41732  26.632  17.658  10.632
75324W        W41733  30.034   8.826  13.009
75325W        W41734  31.039  37.355   2.683
75326W        W41735  21.577   4.983  13.436
75327W        W41736  26.957   7.347  14.948
75328W        W41737   5.516  41.969   1.884
75329W        W41738  43.256  41.677  11.034
75330W        W41739  27.941  14.701   1.790
75331W        W41740  22.621  24.575  12.962
75332W        W41741  25.972  27.463  11.903
75333W        W41742   2.359  14.279  11.244
75334W        W41743  36.640  24.608   2.408
75335W        W41744  42.999  38.393  13.022
75336W        W41745  14.145  30.650   4.832
75337W        W41746  30.450  17.336  11.818
75338W        W41747  35.502  40.224   0.818
75339W        W41748  15.868  44.664   2.600
75340W        W41749  28.585  18.056   1.841
75341W        W41750  18.359  24.783  14.231
75342W        W41751  35.431  12.670   1.441
75343W        W41752  38.755   9.717   1.052
75344W        W41753  27.272  32.709   1.455
75345W        W41754  15.591   3.867  10.390
75346W        W41755  37.048  40.789   1.992
75347W        W41756  28.990   3.652  13.571
75348W        W41757   5.417  12.664   4.227
75349W        W41758  22.019   2.436  14.986
75350W        W41759  40.766  15.992   0.326
75351W        W41760   2.651  33.448   2.277
75352W        W41761  33.854   5.211   4.271
75353W        W41762   9.247  31.540   3.654
75354W        W41763  21.286  28.981   1.908
75355W        W41764  31.156  27.470  14.979
75356W        W41765  13.291   5.397   4.548
75357W        W41766  37.063  31.651  11.959
75358W        W41767  36.637  28.993   1.780
75359W        W41768   5.217  37.376  14.969
75360W        W41769  33.104  40.113  12.580
75361W        W41770   5.197   6.398  14.396
75362W        W41771  30.852  27.011  14.259
75363W        W41772  21.731  27.136  13.952
75364W        W41773  38.778  42.623   5.081
75365W        W41774  30.120  36.623   0.798
75366W        W41775  23.215   9.162  13.254
75367W        W41776  24.250  41.429   0.514
75368W        W41777  27.510   2.920  11.056
75369W        W41778  26.948  28.103  10.850
75370W        W41779  40.752   3.621   1.354
75371W        W41780  27.620  28.473   4.704
75372W        W41781  24.805   5.292  13.979
75373W        W41782  38.928  13.413   2.732
75374W        W41783  35.176  43.095  12.111
75375W        W41784   0.884  43.953  13.320
75376W        W41785  36.527  34.365  11.963
75377W        W41786  28.594  10.098  12.368
75378W        W41787   6.298   6.943  10.734
75379W        W41788   7.842  28.149   4.908
75380W        W41789  43.515  31.398   3.374
75381W        W41790  41.858  13.276  12.871
75382W        W41791  25.426  30.010   1.985
75383W        W41792   7.630   6.065  14.524
75384W        W41793  35.313  26.339   0.953
75385W        W41794   6.447  26.567  11.137
75386W        W41795   0.551   0.731   1.243
75387W        W41796  12.009  29.052  12.042
75388W        W41797  21.019  19.274   1.788
75389W        W41798   5.895  13.640  11.384
75390W        W41799   1.635  20.848  11.086
75391W        W41800  28.819  31.634  11.882
75392W        W41801  21.051  12.825  13.553
75393W        W41802   1.335  19.534  13.460
75394W        W41803  27.035  32.843  13.905
75395W        W41804  10.593  43.878  12.123
75396W        W41805  44.520  40.754   3.179
75397W        W41806  29.429  10.003   3.696
75398W        W41807  25.938  24.489   5.021
75399W        W41808  35.334  34.658  14.964
75400W        W41809  31.845  22.227   2.764
75401W        W41810  14.599  15.229  11.002
75402W        W41811  18.554  21.219   3.764
75403W        W41812   4.222   8.557   3.759
75404W        W41813  23.921  21.258   2.218
75405W        W41814  39.724   7.376  13.915
75406W        W41815  18.820  37.420   1.868
75407W        W41816   1.799  40.833  14.820
75408W        W41817  36.967   7.117   3.249
75409W        W41818   9.396  40.563   2.639
75410W        W41819  29.543   9.926   4.172
75411W        W41820  38.476  21.798   4.438
75412W        W41821   7.723  26.052  11.959
75413W        W41822  10.727  18.789   3.816
75414W        W41823  38.068  34.033  10.338
75415W        W41824  33.951  36.795  13.592
75416W        W41825  12.338  39.504  10.729
75417W        W41826  21.784  21.699   1.671
75418W        W41827  28.202  21.569  11.903
75419W        W41828  28.524   4.390   0.731
75420W        W41829  23.694  16.891   3.298
75421W        W41830  22.815   1.813  14.987
75422W        W41831  37.260  31.999  11.622
75423W        W41832  10.540  40.098   0.201
75424W        W41833  38.305   9.777  13.917
75425W        W41834  16.049  11.715  11.987
75426W        W41835  26.670   6.249  10.281
75427W        W41836  35.688  35.072   1.065
75428W        W41837  15.591   6.741  12.142
75429W        W41838   8.372  39.187   4.619
75430W        W41839  44.445   6.546  12.789
75431W        W41840  16.644  37.334  14.351
75432W        W41841  17.198  32.656  11.223
75433W        W41842  17.323   5.124   1.827
75434W        W41843   7.149  17.777  14.428
75435W        W41844  26.524   3.649   2.427
75436W        W41845  10.144  17.279   5.055
75437W        W41846  42.757  37.399  13.969
75438W        W41847  33.111  11.906  12.042
75439W        W41848  16.532   4.261   3.217
75440W        W41849  28.210  42.933   4.856
75441W        W41850  42.422  12.558  13.027
75442W        W41851  26.451  30.815  14.752
75443W        W41852  18.088  22.287  11.431
75444W        W41853  20.357  31.464   0.766
75445W        W41854  15.334   2.751   4.642
75446W        W41855  23.451  42.664  12.814
75447W        W41856  19.617  42.528   3.766
75448W        W41857  22.585  39.847   4.376
75449W        W41858  14.735  39.433  14.225
75450W        W41859  11.388   7.296  12.979
75451W        W41860   6.214  29.256  14.821
75452W        W41861  16.804  23.894  14.802
75453W        W41862  16.351  20.710   2.335
75454W        W41863   6.239  27.501   2.235
75455W        W41864  18.139   6.355   3.810
75456W        W41865  25.260  18.615   0.711
75457W        W41866  11.685  38.211   1.883
75458W        W41867   3.753  10.561   2.680
75459W        W41868  22.479  19.712  14.857
75460W        W41869   1.449  14.687   4.756
75461W        W41870  26.656  27.930  14.734
75462W        W41871  40.784  26.841   0.996
75463W        W41872  44.731  21.680  11.224
75464W        W41873  42.300   2.836   2.405
75465W        W41874  21.175  33.376   1.775
75466W        W41875  26.163  38.951  12.871
75467W        W41876  16.162   4.473   1.272
75468W        W41877  43.773  12.561   1.244
75469W        W41878  31.663  20.964   3.267
75470W        W41879   8.269   1.521  11.678
75471W        W41880  13.521  29.955  13.316
75472W        W41881  36.298  16.386  12.853
75473W        W41882  43.700  43.667   3.989
75474W        W41883  24.667   6.086   1.198
75475W        W41884  40.576  28.890   3.200
75476W        W41885  44.817  19.860   3.938
75477W        W41886  35.412  21.955   0.489
75478W        W41887  20.041  19.598  12.079
75479W        W41888   8.709   8.854  13.721
75480W        W41889  40.577  20.426   3.138
75481W        W41890  44.309  41.296   1.941
75482W        W41891  11.623  12.666  13.520
75483W        W41892  42.570  38.576   0.618
75484W        W41893   3.422  44.948   0.021
75485W        W41894  29.845  40.385  14.781
75486W        W41895  11.472   0.788  11.624
75487W        W41896  41.154  14.333   0.229
75488W        W41897  25.197   4.388  11.611
75489W        W41898   5.432  19.445   3.619
75490W        W41899  38.818  11.234   0.847
75491W        W41900  23.762  28.065  12.115
75492W        W41901  42.626   3.591   2.857
75493W        W41902  42.000  20.660  12.321
75494W        W41903  37.858  12.258   4.145
75495W        W41904  37.063  23.963  10.578
75496W        W41905  12.045  19.516  12.071
75497W        W41906   5.802   9.909  12.872
75498W        W41907  33.636  17.579  13.684
75499W        W41908  29.058  44.505  11.168
75500W        W41909  18.454  35.432  10.735
75501W        W41910  41.366  41.527  14.881
75502W        W41911  29.077  28.953  14.880
75503W        W41912  37.894  31.088   0.673
75504W        W41913  21.306   1.263  12.469
75505W        W41914   1.475  14.686   0.976
75506W        W41915  21.220  26.156  11.096
75507W        W41916  13.827  24.742  12.630
75508W        W41917  40.012  25.502   1.803
75509W        W41918  17.258  11.873   0.965
75510W        W41919  33.996  31.112   0.004
75511W        W41920   5.743  13.200  12.879
75512W        W41921  21.266   4.960   0.967
75513W        W41922  16.387   8.727  13.607
75514W        W41923   9.264  29.011   2.790
75515W        W41924  16.494  42.727  14.893
75516W        W41925   7.198  18.468  12.499
75517W        W41926  12.102  17.201   1.105
75518W        W41927  41.382  24.460   3.141
75519W        W41928  39.401  34.831   0.535
75520W        W41929  33.215  35.479  13.454
75521W        W41930  13.126  14.003  13.526
75522W        W41931  19.763  31.119   1.464
75523W        W41932  20.813  19.070  13.541
75524W        W41933   0.674  13.630   1.663
75525W        W41934   3.326  18.320   0.723
75526W        W41935  43.806  11.640  11.429
75527W        W41936  16.560  41.666   0.793
75528W        W41937  32.515  35.868   2.601
75529W        W41938  31.956  28.951   1.811
75530W        W41939   7.130  41.570  14.777
75531W        W41940  38.863  16.549  11.062
75532W        W41941   8.339  22.555  11.414
75533W        W41942  21.133  28.032  14.869
75534W        W41943  23.148   5.944  12.905
75535W        W41944  10.591  10.238  11.390
75536W        W41945   3.481   3.455   2.497
75537W        W41946   8.722   5.843   4.245
75538W        W41947  14.998  37.014  12.651
75539W        W41948  30.177  44.739  12.638
75540W        W41949  41.920   9.303   0.874
75541W        W41950  43.850  38.826  11.691
75542W        W41951  18.184  42.820   2.081
75543W        W41952   5.759   2.337   4.633
75544W        W41953   8.744  34.852   1.224
75545W        W41954   2.495  18.525   3.198
75546W        W41955  41.586  23.093  13.795
75547W        W41956   8.182  23.658   0.204
75548W        W41957  30.431   4.829   0.993
75549W        W41958  27.679  15.174   1.890
75550W        W41959  16.565   0.738   1.485
75551W        W41960  41.256  21.575  13.867
75552W        W41961  32.604  44.009   2.220
75553W        W41962  22.114  44.960   3.634
75554W        W41963  21.275  13.595  14.104
75555W        W41964  40.957  14.328  11.562
75556W        W41965  25.837  15.317  10.777
75557W        W41966  14.192  29.490   1.917
75558W        W41967   6.001  33.815   3.212
75559W        W41968  30.827  31.463  12.716
75560W        W41969  34.068  24.695   1.212
75561W        W41970   4.166  21.320  14.338
75562W        W41971  17.281  33.705   4.411
75563W        W41972  36.844   6.732  14.941
75564W        W41973  26.310  41.420   0.908
75565W        W41974  31.378  12.783   1.670
75566W        W41975  15.242   5.665   0.220
75567W        W41976   2.661  22.244   2.771
75568W        W41977  19.574   4.231   0.458
75569W        W41978   0.240  24.469   0.850
75570W        W41979  37.388  43.100  12.504
75571W        W41980  39.743   6.413   3.824
75572W        W41981  21.924  16.866  11.262
75573W        W41982  26.120  37.877  13.698
75574W        W41983  24.303  21.267  13.082
75575W        W41984  11.017  18.991   4.700
75576W        W41985  32.317  21.851  11.686
75577W        W41986  38.809  28.556   2.319
75578W        W41987  22.892  38.985  14.920
75579W        W41988  16.358   7.942  11.025
75580W        W41989  25.729   9.411  12.380
75581W        W41990   7.648  28.630   5.021
75582W        W41991  18.528  20.657   0.325
75583W        W41992  12.915  31.340   0.852
75584W        W41993   0.440   6.616  14.819
75585W        W41994  30.405  13.580  11.098
75586W        W41995  24.204  16.725  14.803
75587W        W41996  17.736  19.034   1.319
75588W        W41997  38.937  22.983  11.017
75589W        W41998  25.999  20.845   0.177
75590W        W41999  40.914   8.848  14.867
75591W        W42000  33.100  36.449   2.727
75592W        W42001  28.099  41.505   1.289
75593W        W42002  26.139   6.667  12.335
75594W        W42003  37.074  34.431  11.238
75595W        W42004  21.219  12.733   0.432
75596W        W42005  19.715  28.788   4.980
75597W        W42006  33.843   1.662  10.696
75598W        W42007  43.008  26.962  14.858
75599W        W42008  20.156  26.630   0.573
75600W        W42009   1.799  36.269  14.469
75601W        W42010   5.638  11.725   2.729
75602W        W42011  43.945  34.743   1.909
75603W        W42012   5.633   4.614   0.351
75604W        W42013  40.155  31.525  13.501
75605W        W42014   8.125  13.408   2.385
75606W        W42015  10.208  34.365  10.137
75607W        W42016  34.418  21.411   1.821
75608W        W42017  19.819   8.325   3.677
75609W        W42018  24.690  30.102   3.180
75610W        W42019  31.863  29.391   3.153
75611W        W42020   6.914  36.400  12.057
75612W        W42021  30.221  37.963   1.955
75613W        W42022  39.984  18.427  10.457
75614W        W42023  11.973  20.727   1.736
75615W        W42024  21.732  12.849   1.232
75616W        W42025   7.303  16.593  13.818
75617W        W42026   9.183  13.382  13.905
75618W        W42027  28.185   0.290  14.430
75619W        W42028   9.443  12.788   2.484
75620W        W42029  31.572  29.188   2.797
75621W        W42030  25.564  17.727   0.247
75622W        W42031   8.165  29.164   4.228
75623W        W42032  19.466   1.300   2.740
75624W        W42033  35.429  32.564   4.578
75625W        W42034  34.413   7.139   3.526
75626W        W42035   0.708  28.975   2.709
75627W        W42036   0.764   2.278   0.211
75628W        W42037  43.601  21.603   4.488
75629W        W42038   7.952  31.538  10.773
75630W        W42039  18.798  37.127  13.996
75631W        W42040  43.792  35.342  13.465
75632W        W42041  21.533  24.649   0.693
75633W        W42042  13.329  26.631  13.383
75634W        W42043  31.275  32.230   1.384
75635W        W42044  16.034  30.409  10.941
75636W        W42045  15.901  25.602   3.187
75637W        W42046  33.958  28.427   3.700
75638W        W42047  30.124  32.271  14.956
75639W        W42048   6.189  17.303  11.221
75640W        W42049  13.312  16.976   2.272
75641W        W42050  19.331  39.554  14.764
75642W        W42051  20.563   3.721   0.887
75643W        W42052  11.249  34.171   3.830
75644W        W42053  10.779  14.531  14.532
75645W        W42054  31.959  39.972   2.888
75646W        W42055  17.325  41.387   4.169
75647W        W42056  40.366  33.712   3.125
75648W        W42057  27.904  28.772  13.020
75649W        W42058  36.660  35.015   0.731
75650W        W42059  44.904  15.250   1.495
75651W        W42060  32.865  30.636   2.786
75652W        W42061  44.498   7.276   2.348
75653W        W42062   4.846   1.732  12.452
75654W        W42063   9.701  16.334   1.234
75655W        W42064  10.103  21.548   1.125
75656W        W42065   1.923  24.981  13.319
75657W        W42066  33.951  41.048  11.511
75658W        W42067   5.301  35.464   4.018
75659W        W42068  38.731  18.800  10.664
75660W        W42069  23.255  36.875  14.824
75661W        W42070  35.921  38.091   0.351
75662W        W42071   4.824  15.333  10.054
75663W        W42072  14.690  22.809   4.574
75664W        W42073  36.578  12.305   1.321
75665W        W42074  38.530   0.838  12.400
75666W        W42075  26.673  12.627  12.732
75667W        W42076  13.443  17.018   1.344
75668W        W42077  33.509  10.770  13.568
75669W        W42078   6.565   3.877  11.226
75670W        W42079  17.176  44.275   1.313
75671W        W42080  25.200  26.534   3.150
75672W        W42081  39.865  24.286   4.674
75673W        W42082  43.195  21.135   0.308
75674W        W42083  14.385  34.375   4.702
75675W        W42084  44.521  15.518   1.190
75676W        W42085  22.168  37.221  13.211
75677W        W42086  44.573  19.338  13.026
75678W        W42087  25.229  39.996  13.452
75679W        W42088  28.945   9.710  13.580
75680W        W42089  37.989  19.189  12.358
75681W        W42090  17.354  18.336  12.137
75682W        W42091  29.722  43.367   1.312
75683W        W42092  13.237  31.264   2.748
75684W        W42093  41.486  33.612  13.130
75685W        W42094   0.069  16.169  11.569
75686W        W42095  31.038  26.992   2.139
75687W        W42096   0.628  44.351  11.783
75688W        W42097   6.255  40.446   2.615
75689W        W42098  29.203  11.671  11.779
75690W        W42099  36.698  33.032   0.225
75691W        W42100   4.717  30.925  10.360
75692W        W42101  28.014  44.802   3.664
75693W        W42102  23.047  21.844   1.799
75694W        W42103  20.580  43.623   1.724
75695W        W42104  16.660   9.128   3.880
75696W        W42105  30.139  35.052   0.464
75697W        W42106  15.780  12.637   2.854
75698W        W42107  29.413  21.235  10.615
75699W        W42108  24.873  11.193  11.627
75700W        W42109   2.410   8.221  10.767
75701W        W42110   8.356  34.399   3.157
75702W        W42111  36.044  28.501   0.761
75703W        W42112  38.435  41.315  13.059
75704W        W42113   0.342  41.952   4.212
75705W        W42114   4.713  13.068  11.628
75706W        W42115  25.512   4.964  14.554
75707W        W42116   7.895  13.954  13.880
75708W        W42117  37.778   9.258   3.643
75709W        W42118  17.066   0.006   2.876
75710W        W42119  27.458  16.722  11.102
75711W        W42120  35.384  15.046   0.853
75712W        W42121  24.972  42.498   4.663
75713W        W42122  11.225  31.318   3.091
75714W        W42123   4.399  37.052   1.072
75715W        W42124  33.027  26.704   2.655
75716W        W42125  27.412  25.621  12.094
75717W        W42126  29.222   4.610  14.920
75718W        W42127  44.474  35.529  10.845
75719W        W42128  29.555   7.704  14.416
75720W        W42129  37.543  24.037   2.761
75721W        W42130   3.345  22.876   0.905
75722W        W42131  37.484   6.372   1.452
75723W        W42132  32.954  36.665  10.516
75724W        W42133  10.471  43.994   2.260
75725W        W42134  27.088  27.806  12.532
75726W        W42135  40.806  30.656  12.023
75727W        W42136  41.974  27.376   3.585
75728W        W42137  33.110   0.437   2.372
75729W        W42138   5.452  12.757   2.289
75730W        W42139  19.237  44.324   4.192
75731W        W42140   5.514  34.538  12.450
75732W        W42141   0.857  12.752  13.878
75733W        W42142  36.894  31.426  12.937
75734W        W42143  44.385  31.477  10.612
75735W        W42144   1.176  27.081  11.232
75736W        W42145  16.080  33.234  11.095
75737W        W42146   1.450  30.536  10.630
75738W        W42147   4.180  35.422  11.526
75739W        W42148   8.289  30.622  14.802
75740W        W42149  15.818  32.106  13.324
75741W        W42150   6.917  38.356   2.811
75742W        W42151  33.392  25.528   0.244
75743W        W42152  37.838  30.652  14.892
75744W        W42153  37.031  32.936   1.938
75745W        W42154  30.397  35.125   3.759
75746W        W42155  37.458  24.099   4.260
75747W        W42156  16.009  36.040  12.949
75748W        W42157  29.154  38.010  11.729
75749W        W42158  22.989  42.748  14.078
75750W        W42159  16.586  34.350   4.138
75751W        W42160   3.789  22.113  14.696
75752W        W42161  16.151  39.256  12.080
75753W        W42162  16.237  27.600  13.537
75754W        W42163  24.499  34.189   0.027
75755W        W42164  29.668   5.748  11.011
75756W        W42165  37.309  15.963   1.423
75757W        W42166  17.123   0.498   2.769
75758W        W42167  39.945  21.996  14.862
75759W        W42168  26.932  20.964   3.596
75760W        W42169  43.503  30.962  12.439
75761W        W42170  35.464  24.448  10.768
75762W        W42171  25.134  33.863  13.856
75763W        W42172  12.493   8.430  12.665
75764W        W42173  25.636  33.349   4.696
75765W        W42174  44.130   3.216   4.221
75766W        W42175  18.768  39.712  11.054
75767W        W42176   9.640  27.541  13.911
75768W        W42177   3.428  34.566   1.457
75769W        W42178  26.587   5.689  13.956
75770W        W42179  28.013  38.917   3.665
75771W        W42180  39.588  36.609   0.493
75772W        W42181  14.295  34.974  13.458
75773W        W42182  31.126  39.075  13.443
75774W        W42183  27.003  14.054   4.220
75775W        W42184   4.943  26.626  13.432
75776W        W42185  23.746   9.611   0.425
75777W        W42186  22.774  29.241   3.637
75778W        W42187  25.008   9.367   0.937
75779W        W42188  33.069  27.308   1.963
75780W        W42189  39.881  32.058  12.728
75781W        W42190  23.727  10.633  12.607
75782W        W42191  43.185   0.219  10.934
75783W        W42192  35.656  37.900   2.328
75784W        W42193  32.146  11.076   1.536
75785W        W42194  15.727   8.251  13.890
75786W        W42195  17.587  32.089  13.316
75787W        W42196  37.797  14.149  10.674
75788W        W42197  41.834   0.681  13.839
75789W        W42198  31.829  33.374   0.374
75790W        W42199  39.499  14.675   3.109
75791W        W42200  23.605  41.875  13.069
75792W        W42201  24.487  13.552  13.503
75793W        W42202  32.395  27.978   1.639
75794W        W42203  36.311  12.256   3.108
75795W        W42204  36.532  41.083   0.865
75796W        W42205  29.643  18.547   5.048
75797W        W42206  22.199  31.105   0.428
75798W        W42207   8.944   7.455   2.874
75799W        W42208  39.034   0.839   3.574
75800W        W42209  17.707  26.474  13.745
75801W        W42210  12.814  22.037  14.064
75802W        W42211  17.624  12.773   4.466
75803W        W42212  25.544   0.473   2.866
75804W        W42213  21.193  27.355  10.750
75805W        W42214  16.055  15.152  13.326
75806W        W42215  11.798  22.907   4.029
75807W        W42216  12.606  37.413  11.488
75808W        W42217  17.087  31.030  13.443
75809W        W42218  26.559  33.451   1.276
75810W        W42219  42.949   2.768  14.416
75811W        W42220  11.906   8.078  11.787
75812W        W42221  27.050  15.619   0.839
75813W        W42222  23.423  26.088   1.205
75814W        W42223  29.697   3.374  14.095
75815W        W42224  33.845  41.870  12.772
75816W        W42225   5.398  24.688  14.852
75817W        W42226  38.639  14.637  14.037
75818W        W42227  44.770  23.153  11.115
75819W        W42228  39.048  23.049  12.958
75820W        W42229  40.787  23.682   3.801
75821W        W42230  35.504   8.639   4.513
75822W        W42231  31.498  32.116   3.244
75823W        W42232  41.969   8.197  11.562
75824W        W42233  34.116  38.805   1.919
75825W        W42234  23.056  28.952   2.248
75826W        W42235  41.148  42.787  14.240
75827W        W42236  41.574   3.252   2.909
75828W        W42237   7.197  32.476   4.731
75829W        W42238   1.247  13.709  10.502
75830W        W42239  40.081   4.733  14.481
75831W        W42240   6.231  13.587  11.027
75832W        W42241  31.371  15.600   4.367
75833W        W42242  15.907  39.917   4.669
75834W        W42243  13.976  13.985  13.871
75835W        W42244  24.404  26.344   2.911
75836W        W42245   6.212  23.677  14.413
75837W        W42246  31.484  23.291   3.655
75838W        W42247  41.907  40.708   1.245
75839W        W42248  18.292  39.011   0.807
75840W        W42249   8.200  13.752  12.103
75841W        W42250  22.675  11.766   3.852
75842W        W42251  35.574  36.354   3.219
75843W        W42252  33.880  36.809  12.975
75844W        W42253  15.668  23.595  11.196
75845W        W42254  14.500   7.380  10.540
75846W        W42255   8.948  25.050  13.497
75847W        W42256  18.498   3.831   1.190
75848W        W42257  14.873   3.384   0.371
75849W        W42258  36.349  16.084  14.759
75850W        W42259   2.322  10.460   4.446
75851W        W42260   9.182  22.483   4.534
75852W        W42261  30.466   8.107  14.719
75853W        W42262  11.876  15.149   2.727
75854W        W42263   5.704  39.263  12.065
75855W        W42264   0.233  39.921  11.147
75856W        W42265  16.091  17.143   3.651
75857W        W42266  25.300  25.688   3.707
75858W        W42267  14.783  31.378  14.649
75859W        W42268  38.118  39.764  13.047
75860W        W42269  15.315  22.266  11.388
75861W        W42270   0.511  14.308  12.327
75862W        W42271  12.849  39.579  11.629
75863W        W42272  28.048  11.145   4.588
75864W        W42273  37.654  41.528  12.486
75865W        W42274  14.544  14.516   1.627
75866W        W42275   8.786  20.805   4.566
75867W        W42276  33.333  19.490  12.507
75868W        W42277  21.000   8.766   1.725
75869W        W42278  29.888  18.144   1.473
75870W        W42279   4.163  26.607  11.434
75871W        W42280  26.120  12.625  13.042
75872W        W42281   9.231   7.749  13.046
75873W        W42282  36.352   6.834   0.031
75874W        W42283   6.970  19.445   0.481
75875W        W42284  41.076  16.152  11.694
75876W        W42285  29.679  38.487   2.485
75877W        W42286  15.788   1.993   4.864
75878W        W42287  25.475  26.303  13.103
75879W        W42288  17.955  12.788  11.924
75880W        W42289   1.003   5.680   4.327
75881W        W42290  16.328  38.391   2.674
75882W        W42291   3.339  24.639   3.730
75883W        W42292   9.271  10.192  14.800
75884W        W42293   9.798  17.558  11.968
75885W        W42294  41.273  32.659   2.175
75886W        W42295  34.576  26.021   2.640
75887W        W42296   4.230  28.140  12.426
75888W        W42297   4.222  39.573  14.538
75889W        W42298   2.706  37.693   0.182
75890W        W42299  12.272   2.389   0.721
75891W        W42300  34.028  36.532   2.871
75892W        W42301  14.723   3.748   5.088
75893W        W42302   1.815  16.518   2.716
75894W        W42303  15.106  39.781  14.167
75895W        W42304  38.023  21.238  14.547
75896W        W42305  33.180  20.057   2.281
75897W        W42306  12.797  31.086  12.122
75898W        W42307   1.979  12.661  11.750
75899W        W42308  42.244  42.655   1.909
75900W        W42309   9.136  25.072   0.702
75901W        W42310  21.621  24.024  14.553
75902W        W42311  40.544  18.834  11.166
75903W        W42312  33.513  41.492   2.495
75904W        W42313  35.304  33.529  11.600
75905W        W42314  37.379  21.184   0.740
75906W        W42315   5.185  44.719  11.956
75907W        W42316  11.545   8.170   2.801
75908W        W42317   9.024  14.115   3.735
75909W        W42318   2.645  15.598   1.365
75910W        W42319  17.749  41.984   1.688
75911W        W42320   0.312  33.056  12.045
75912W        W42321  21.879   6.907   2.295
75913W        W42322  11.318  26.589   1.909
75914W        W42323  21.994  39.188   1.307
75915W        W42324  27.053  30.946  10.741
75916W        W42325  11.610  23.918   2.905
75917W        W42326  43.747  32.480  11.432
75918W        W42327  38.873  18.314  12.940
75919W        W42328  10.413  38.294  11.939
75920W        W42329  23.185   4.604   1.636
75921W        W42330   2.909  34.106  13.870
75922W        W42331  25.632  13.844   0.747
75923W        W42332  29.471  22.215   2.179
75924W        W42333  31.224   4.473  12.401
75925W        W42334  13.701   0.607  12.789
75926W        W42335  14.245  20.011   0.272
75927W        W42336  17.375  36.793   4.715
75928W        W42337   2.126   0.969   0.654
75929W        W42338  14.573   3.464   5.504
75930W        W42339  18.551  16.817   4.764
75931W        W42340   5.059  18.222   3.848
75932W        W42341   8.359  21.559  10.584
75933W        W42342   9.123  17.152  10.723
75934W        W42343  12.283  38.238  11.225
75935W        W42344  24.916  15.735  13.791
75936W        W42345  14.218  30.816  14.036
75937W        W42346  14.792  11.055  11.915
75938W        W42347  20.734  35.637  13.045
75939W        W42348  40.209  26.551   0.224
75940W        W42349  33.789  40.313  12.004
75941W        W42350   9.604  17.147   1.912
75942W        W42351   1.557  13.771  10.996
75943W        W42352  27.665   0.437  12.015
75944W        W42353  29.698  14.371  10.308
75945W        W42354  36.529  36.547   2.059
75946W        W42355  17.100  10.383   1.740
75947W        W42356  20.730  31.816  14.316
75948W        W42357  14.599  41.739  10.730
75949W        W42358  13.381  34.024   4.749
75950W        W42359  43.424  33.150  13.983
75951W        W42360   4.011  31.147   2.212
75952W        W42361  33.362  44.383  10.208
75953W        W42362  14.058  29.287   1.140
75954W        W42363   6.693   5.701   2.338
75955W        W42364  36.817  19.262   0.980
75956W        W42365   4.775  33.389   4.522
75957W        W42366   2.428  26.217  13.575
75958W        W42367  35.510  16.057  14.275
75959W        W42368  31.183  40.962  12.119
75960W        W42369   6.916  13.274   3.238
75961W        W42370   4.761  16.103  14.808
75962W        W42371  32.012  11.330   4.484
75963W        W42372  38.909  13.727   4.537
75964W        W42373   0.761  38.436  14.265
75965W        W42374   3.296  18.594  12.406
75966W        W42375  28.541  13.630  10.712
75967W        W42376   9.231  18.531   3.651
75968W        W42377  40.975  28.536  14.365
75969W        W42378  11.107   5.510  13.466
75970W        W42379  17.644  21.593   3.402
75971W        W42380  34.421  41.446   1.966
75972W        W42381  38.707  19.734  14.347
75973W        W42382  39.121  11.341   3.827
75974W        W42383  37.766   1.332   0.822
75975W        W42384   6.354  33.531   0.998
75976W        W42385  15.318  11.311   1.680
75977W        W42386   8.939  11.291   4.352
75978W        W42387  33.304  16.212  14.259
75979W        W42388  16.715  27.691   3.136
75980W        W42389   6.196  24.467  13.960
75981W        W42390  13.896   8.295  12.070
75982W        W42391  32.892   5.242   0.702
75983W        W42392  13.310  26.003  14.312
75984W        W42393  13.465  37.908  15.000
75985W        W42394   8.066  24.023   2.693
75986W        W42395  25.821  12.660  13.482
75987W        W42396  42.327  17.689   3.883
75988W        W42397  39.389  42.889   3.156
75989W        W42398   4.001   5.816  10.319
75990W        W42399   2.037  33.389   2.689
75991W        W42400   7.318  34.326  10.648
75992W        W42401  12.699   3.240   4.797
75993W        W42402  29.534  26.986  13.499
75994W        W42403  12.254   8.381   0.349
75995W        W42404  38.950   9.602  10.906
75996W        W42405   0.116  42.375   2.719
75997W        W42406  33.656  19.605  12.019
75998W        W42407  14.113  14.758  11.183
75999W        W42408  24.651  23.597   3.288
76000W        W42409  23.482  21.962   2.050
76001W        W42410  21.868  35.499  14.364
76002W        W42411  28.895  13.691  11.077
76003W        W42412  32.055  24.942   3.843
76004W        W42413  26.153  30.765   2.891
76005W        W42414  32.390  23.575  10.474
76006W        W42415   4.799  28.577  13.892
76007W        W42416  43.289  42.815   0.929
76008W        W42417   1.359   3.927  12.999
76009W        W42418   0.978   7.305   1.831
76010W        W42419  41.231  15.608  13.007
76011W        W42420  10.965  30.977  12.427
76012W        W42421  35.315  29.002   3.309
76013W        W42422  37.570  40.787   4.206
76014W        W42423  16.990   6.742   1.799
76015W        W42424  30.348  25.393   3.144
76016W        W42425  29.822   0.999   1.343
76017W        W42426  33.707  19.463   0.887
76018W        W42427   0.160  14.898  13.451
76019W        W42428  40.526  16.250  13.914
76020W        W42429  27.981  27.045   1.868
76021W        W42430  29.575  22.580  10.184
76022W        W42431  18.229  17.871  13.538
76023W        W42432  29.699   9.716   0.054
76024W        W42433   2.770  17.534  11.359
76025W        W42434  10.745  38.125  14.007
76026W        W42435  16.887  43.060  14.873
76027W        W42436  36.543  18.604  11.723
76028W        W42437  18.084  11.791   3.649
76029W        W42438  21.634  38.507  13.542
76030W        W42439   7.263  10.433  11.374
76031W        W42440  14.767  17.053   0.035
76032W        W42441  27.379  20.502  14.018
76033W        W42442  30.047  37.758  11.582
76034W        W42443  37.983  24.333   2.717
76035W        W42444   4.346  44.330  13.272
76036W        W42445  37.446  31.540  14.746
76037W        W42446  36.070  25.456  13.020
76038W        W42447  38.448   3.391  12.826
76039W        W42448  15.663   3.246   3.438
76040W        W42449  34.349  43.771  14.737
76041W        W42450   7.885   7.233   4.568
76042W        W42451  11.914   0.868  11.333
76043W        W42452  28.205  18.301   4.237
76044W        W42453  42.348  32.960  12.496
76045W        W42454  14.355   7.788   1.771
76046W        W42455   4.341  37.857   4.011
76047W        W42456  17.231  17.325  11.242
76048W        W42457  30.548  22.306  14.042
76049W        W42458  19.691  30.387  14.069
76050W        W42459  34.581  34.534  13.736
76051W        W42460  21.332   8.853   1.322
76052W        W42461  13.820  21.679   2.339
76053W        W42462  38.178  21.860   1.807
76054W        W42463  29.441   3.506   0.510
76055W        W42464  35.088   9.297   1.840
76056W        W42465   1.362  22.920   1.719
76057W        W42466  37.593  40.470   0.816
76058W        W42467  34.981  34.297   4.667
76059W        W42468  18.337   9.598  13.025
76060W        W42469  29.104  26.473   0.203
76061W        W42470  15.120  16.782   4.272
76062W        W42471  40.087  30.034   4.551
76063W        W42472  36.395   6.171  13.130
76064W        W42473  15.234  29.510  12.979
76065W        W42474  14.088   3.248  12.526
76066W        W42475  18.144  21.830  14.344
76067W        W42476  40.484  19.054   3.151
76068W        W42477  25.508  24.043   0.761
76069W        W42478  22.758   1.408   1.310
76070W        W42479   3.049  43.334   1.771
76071W        W42480  17.106  33.434  12.523
76072W        W42481  32.583   5.461   0.299
76073W        W42482  17.501  16.112   3.463
76074W        W42483   8.759  14.886   3.039
76075W        W42484  34.030  36.073  12.283
76076W        W42485  33.099  43.887  13.382
76077W        W42486  21.072  30.942  13.171
76078W        W42487  34.489  36.426  11.736
76079W        W42488  35.259  25.040   5.127
76080W        W42489  10.964  28.918   0.557
76081W        W42490  34.282  21.592  11.674
76082W        W42491  23.251  32.142   4.541
76083W        W42492  30.745  22.183   1.747
76084W        W42493  23.703  24.649  12.631
76085W        W42494  13.427  38.818   0.925
76086W        W42495  39.916   5.747   4.496
76087W        W42496  33.682   9.263   4.235
76088W        W42497   8.843  21.153  13.905
76089W        W42498  27.160  16.777  11.521
76090W        W42499  38.339   8.506   4.155
76091W        W42500  34.709  37.996  11.002
76092W        W42501  32.892   1.437   1.310
76093W        W42502  15.158  43.018   2.746
76094W        W42503  17.811  32.475   0.748
76095W        W42504  32.838   2.020   3.340
76096W        W42505  29.606   0.069  14.338
76097W        W42506   7.746   1.244   0.510
76098W        W42507  17.307  44.254   0.420
76099W        W42508  29.135  44.669  13.434
76100W        W42509  23.693  30.645  13.334
76101W        W42510  40.040  32.678  12.865
76102W        W42511  28.658  12.423   4.518
76103W        W42512   2.880  32.414  12.083
76104W        W42513  41.682  33.675  11.959
76105W        W42514  27.937  35.475   0.758
76106W        W42515  14.263  24.614   1.041
76107W        W42516  37.570  37.000   1.351
76108W        W42517  19.461  30.143   1.414
76109W        W42518   6.684  34.086   4.880
76110W        W42519  18.489  30.440   4.211
76111W        W42520  28.011  18.064   4.687
76112W        W42521  15.072  30.425   1.261
76113W        W42522  32.237  24.109   4.435
76114W        W42523   6.059  39.763  12.812
76115W        W42524   9.812   6.449   3.371
76116W        W42525  36.920  31.958  12.956
76117W        W42526  44.371  30.474  14.149
76118W        W42527   0.361  17.657   1.685
76119W        W42528   4.770  20.243   4.521
76120W        W42529   6.137  30.211  14.854
76121W        W42530   9.164   1.459  14.272
76122W        W42531  18.768  22.484   2.416
76123W        W42532  10.685   6.448   0.952
76124W        W42533   5.923  30.878   4.232
76125W        W42534  11.219  10.472  10.711
76126W        W42535  43.416  12.835   1.521
76127W        W42536  20.325  34.058  10.694
76128W        W42537  11.627   2.313   4.528
76129W        W42538  38.359   3.937   0.100
76130W        W42539  18.803  43.313  11.038
76131W        W42540  26.443   4.632  14.090
76132W        W42541  28.780  37.341  11.668
76133W        W42542  26.734   0.974  11.427
76134W        W42543  43.879  14.716   3.568
76135W        W42544  32.489  27.752   3.164
76136W        W42545  17.922   6.776   4.116
76137W        W42546   2.035  15.648  12.042
76138W        W42547  37.367   9.480  13.853
76139W        W42548  34.475   7.663   3.595
76140W        W42549  21.318   4.162  11.045
76141W        W42550  15.557  23.389   5.362
76142W        W42551   9.291  27.246   4.968
76143W        W42552   3.346  34.325  12.071
76144W        W42553  39.796  13.658  14.729
76145W        W42554  34.002  21.667   3.235
76146W        W42555  30.068  31.975  14.004
76147W        W42556  13.171  30.963  13.915
76148W        W42557  12.167  15.986  12.353
76149W        W42558   8.512   7.730   2.967
76150W        W42559  12.626  10.357   2.074
76151W        W42560  24.027  33.317   1.689
76152W        W42561   7.368  11.352  11.586
76153W        W42562   8.006   7.410   0.460
76154W        W42563   6.185  15.084  11.195
76155W        W42564  27.921  10.180  14.832
76156W        W42565  33.954  25.774   4.387
76157W        W42566  10.218  32.923  11.799
76158W        W42567  27.907   7.847  11.056
76159W        W42568  38.926  21.050   4.214
76160W        W42569   1.847  28.177   4.134
76161W        W42570   8.248  24.923  11.312
76162W        W42571  38.559  21.291   2.887
76163W        W42572  34.399   5.920  10.171
76164W        W42573  13.719  13.530  13.948
76165W        W42574  26.713   4.886  14.996
76166W        W42575   2.956  27.490  11.711
76167W        W42576   5.222  41.379  11.710
76168W        W42577  15.279   7.786  14.934
76169W        W42578  13.322  36.681   4.317
76170W        W42579   5.810  14.520   2.723
76171W        W42580  41.821  32.419   3.299
76172W        W42581  22.717  37.756   2.554
76173W        W42582   6.724   2.798  10.912
76174W        W42583  10.570  42.500  11.073
76175W        W42584  31.832  12.722  11.168
76176W        W42585   4.265  19.226   1.865
76177W        W42586  26.939  21.700  10.170
76178W        W42587  16.964  44.133   4.874
76179W        W42588  11.296  15.546   0.223
76180W        W42589  13.245   3.120   4.054
76181W        W42590  39.053  38.201   1.798
76182W        W42591  41.489  36.570   3.371
76183W        W42592  19.055  34.062   4.511
76184W        W42593  44.743   3.706   2.276
76185W        W42594   0.774  28.255   4.626
76186W        W42595  36.157  36.481  14.751
76187W        W42596   3.838  25.490   1.721
76188W        W42597  19.290  39.731  13.312
76189W        W42598   5.902  21.955   2.258
76190W        W42599  10.137  44.046  11.934
76191W        W42600  36.948  39.997   3.181
76192W        W42601   2.465   9.647   2.152
76193W        W42602  15.370  32.822   2.187
76194W        W42603  11.303  40.648  12.508
76195W        W42604  16.615  27.730  12.735
76196W        W42605  20.201   1.207   4.484
76197W        W42606  26.401  15.521  10.774
76198W        W42607  19.279   3.862  12.648
76199W        W42608  43.886  25.315  13.493
76200W        W42609  18.704  14.124   4.998
76201W        W42610  32.214  22.066  14.575
76202W        W42611  17.173  28.876   2.120
76203W        W42612  24.652  30.789  11.413
76204W        W42613  24.584  40.765  13.011
76205W        W42614  31.537  40.454   1.733
76206W        W42615   7.620  25.626   5.471
76207W        W42616  17.668  31.638   3.627
76208W        W42617  43.310  31.905   0.322
76209W        W42618  20.683  33.455   2.500
76210W        W42619  39.557  14.213   2.904
76211W        W42620  44.391  25.985   0.041
76212W        W42621   4.419  30.911  13.602
76213W        W42622  12.809  20.186  10.942
76214W        W42623  31.975  31.993  14.998
76215W        W42624  33.324  29.027   3.188
76216W        W42625   7.500  44.788  11.590
76217W        W42626   8.927   5.399  10.614
76218W        W42627   7.066  24.539  11.152
76219W        W42628  20.530  38.379  13.019
76220W        W42629   2.729  30.073  12.861
76221W        W42630  33.128  14.742  11.738
76222W        W42631   4.359  40.379   4.123
76223W        W42632  35.935  17.280  10.305
76224W        W42633  41.343  31.613   2.389
76225W        W42634  37.540  33.188  13.926
76226W        W42635  26.217   5.253   2.181
76227W        W42636  32.158   4.867   2.733
76228W        W42637  40.264  33.587   1.860
76229W        W42638  43.911  19.287   5.006
76230W        W42639  25.487  32.567   4.147
76231W        W42640  21.826  37.486  11.112
76232W        W42641   0.943  20.964  10.599
76233W        W42642   9.137  10.836  13.533
76234W        W42643   2.765  42.928  13.514
76235W        W42644  30.184  38.908   2.631
76236W        W42645  19.582  21.463   4.169
76237W        W42646  21.606  17.530  12.495
76238W        W42647  42.734  38.852   3.839
76239W        W42648  11.171  34.885   3.054
76240W        W42649   0.948  35.421   0.436
76241W        W42650  15.501   6.277  14.080
76242W        W42651  43.087   3.580  10.329
76243W        W42652  23.141   1.399  11.718
76244W        W42653   3.951  37.629   3.770
76245W        W42654  29.907  44.257   4.682
76246W        W42655   5.961  38.899  12.594
76247W        W42656  20.063  44.492   0.923
76248W        W42657  40.080   1.306   1.260
76249W        W42658  25.374  31.974  12.196
76250W        W42659   6.449  28.393  13.444
76251W        W42660  13.720  40.107  11.050
76252W        W42661  10.755  42.868  14.688
76253W        W42662  17.987  21.761   1.346
76254W        W42663  21.806  18.500   3.830
76255W        W42664  21.309  26.869  10.509
76256W        W42665  31.341  43.812   0.234
76257W        W42666   0.451  13.233  11.371
76258W        W42667  17.254  18.269  13.999
76259W        W42668  32.860  10.507   3.322
76260W        W42669  10.106  26.257  11.032
76261W        W42670  11.637  20.456  11.110
76262W        W42671  18.687   0.483  11.580
76263W        W42672   2.001  31.830   1.349
76264W        W42673  34.111  19.556   1.695
76265W        W42674  17.795   7.204  12.915
76266W        W42675  31.866  38.361  12.295
76267W        W42676  31.590  21.055   4.192
76268W        W42677  38.773   4.314   2.730
76269W        W42678  19.425  28.020   2.260
76270W        W42679  33.389  22.046  10.644
76271W        W42680  36.436  21.739   1.426
76272W        W42681  34.018  21.330   0.507
76273W        W42682  13.199  10.144  12.025
76274W        W42683   2.449  17.152   2.779
76275W        W42684   0.279  16.381  13.346
76276W        W42685  22.648  20.037  11.722
76277W        W42686   4.628   1.807  11.610
76278W        W42687   2.322  26.971   0.049
76279W        W42688  17.139   3.346   0.277
76280W        W42689  44.329   4.112   4.229
76281W        W42690  27.008   5.282   3.380
76282W        W42691  14.812  18.229   1.455
76283W        W42692   7.396   4.388   2.870
76284W        W42693  30.543  24.241  14.542
76285W        W42694  10.696   8.709   4.541
76286W        W42695  18.764   7.149  12.633
76287W        W42696  26.019  13.488   3.152
76288W        W42697  24.511  30.079   2.069
76289W        W42698   3.974  35.887  11.647
76290W        W42699  40.060  10.008   1.427
76291W        W42700  11.336  13.711  12.770
76292W        W42701  32.666  36.967   1.174
76293W        W42702  12.110  14.620  13.191
76294W        W42703  29.169   7.628  10.693
76295W        W42704  25.264  10.838   0.965
76296W        W42705  23.148   8.572  10.463
76297W        W42706  15.725  44.833   1.653
76298W        W42707   0.873  17.139   1.935
76299W        W42708   8.070  22.087   0.873
76300W        W42709  34.973   3.767   2.312
76301W        W42710  24.615  26.113  13.711
76302W        W42711  13.242  44.642   9.766
76303W        W42712  20.119   0.559  14.826
76304W        W42713  20.641  33.912   2.215
76305W        W42714  27.508  41.430  13.045
76306W        W42715   9.201  43.683  11.151
76307W        W42716  44.529  37.047  13.820
76308W        W42717  27.661  40.857   4.101
76309W        W42718  42.392  12.211   3.600
76310W        W42719  20.208  30.172   3.821
76311W        W42720  15.273  30.916  10.730
76312W        W42721  14.220  15.508   4.578
76313W        W42722  26.288  36.440   1.795
76314W        W42723   3.905   5.615   0.281
76315W        W42724   9.158  44.131  10.856
76316W        W42725  16.105   4.031  11.973
76317W        W42726   6.263   0.280   3.939
76318W        W42727  33.797  11.380   2.765
76319W        W42728   5.766  31.569   3.761
76320W        W42729  40.579  28.457  13.128
76321W        W42730  18.007  27.569   4.666
76322W        W42731  38.051  28.583   0.935
76323W        W42732  35.594   6.373  12.556
76324W        W42733  36.343  44.952   0.169
76325W        W42734  35.782  23.996  13.032
76326W        W42735  26.854  30.513   1.740
76327W        W42736  26.015  36.362   4.290
76328W        W42737  27.917  36.881  11.662
76329W        W42738  12.846  14.799  14.865
76330W        W42739  25.063  29.968   4.611
76331W        W42740  13.855  17.092  13.475
76332W        W42741  30.327  16.947  12.132
76333W        W42742   8.444  28.453  11.183
76334W        W42743  33.826  29.459   1.797
76335W        W42744  41.950   2.020  13.317
76336W        W42745   5.193  33.931   0.052
76337W        W42746  36.629  18.640  11.210
76338W        W42747  33.152  42.027  12.663
76339W        W42748  33.328  39.836   4.417
76340W        W42749  23.734  13.244   4.594
76341W        W42750   6.628  39.596   3.165
76342W        W42751   6.176  14.580  12.944
76343W        W42752  15.055  28.651   1.681
76344W        W42753   2.272  28.382   1.315
76345W        W42754   9.377  33.648  14.398
76346W        W42755  18.890   4.866   3.629
76347W        W42756  26.525  17.283  11.834
76348W        W42757  20.044  15.698  11.182
76349W        W42758   3.331  17.823  13.065
76350W        W42759  43.409  31.179   4.823
76351W        W42760  36.971  21.489   0.197
76352W        W42761  17.272   2.321   0.303
76353W        W42762   7.000  21.469  11.462
76354W        W42763  24.310  17.157  12.494
76355W        W42764   6.129  44.833  14.335
76356W        W42765  41.343   3.920  13.596
76357W        W42766  41.984  39.991  12.819
76358W        W42767   1.405  41.984   0.689
76359W        W42768  20.272   6.893   4.160
76360W        W42769   0.218  44.521  14.570
76361W        W42770  33.212  29.615   4.471
76362W        W42771  38.103  38.063   3.020
76363W        W42772  43.485   0.969   2.887
76364W        W42773   3.787  16.305   3.616
76365W        W42774  11.728   5.798  10.725
76366W        W42775  42.834  28.986   2.803
76367W        W42776  17.712  36.973   0.757
76368W        W42777  11.123  21.020   0.309
76369W        W42778  17.308  17.812   0.039
76370W        W42779  18.975  10.533   9.848
76371W        W42780  35.123   1.047   4.212
76372W        W42781  23.243   5.162   0.209
76373W        W42782  25.765  27.928  12.428
76374W        W42783   9.637  13.124   1.416
76375W        W42784  26.462  44.807  10.997
76376W        W42785  28.690  44.827  11.569
76377W        W42786  34.471   8.660   1.487
76378W        W42787  40.525  20.088  12.250
76379W        W42788  28.636  12.569  13.189
76380W        W42789   9.192   9.850  14.356
76381W        W42790  42.649  21.200   1.425
76382W        W42791  11.250  43.974  10.097
76383W        W42792  14.737  34.462  11.731
76384W        W42793  39.589   6.362  13.532
76385W        W42794  37.542   2.921   0.754
76386W        W42795  28.440  30.214  12.542
76387W        W42796   7.342  42.612   4.526
76388W        W42797   6.117  10.401   1.428
76389W        W42798  14.164  30.943  13.528
76390W        W42799  16.645  42.873  10.122
76391W        W42800  13.837  13.302  13.492
76392W        W42801  12.342  38.399   4.240
76393W        W42802  41.429  14.099  13.804
76394W        W42803  35.100  39.090  13.604
76395W        W42804  39.675   8.895  13.425
76396W        W42805  38.915  34.056  10.578
76397W        W42806   7.436  24.314  11.568
76398W        W42807  21.134  24.788   3.230
76399W        W42808   2.509  29.180   1.858
76400W        W42809  10.812  22.535   0.899
76401W        W42810   3.908   7.350   3.242
76402W        W42811   5.753  19.507  12.942
76403W        W42812  39.830  13.797  12.585
76404W        W42813  21.920  32.566   2.762
76405W        W42814  38.346   2.948   1.225
76406W        W42815  16.268   3.183   4.233
76407W        W42816   7.280  35.510   2.426
76408W        W42817  40.284   3.138  12.109
76409W        W42818  10.643   7.474   1.029
76410W        W42819  13.734   9.951   1.649
76411W        W42820  15.840   7.582   0.615
76412W        W42821  10.375  22.736  11.374
76413W        W42822  44.313  35.927   4.910
76414W        W42823  26.874  27.039  11.518
76415W        W42824   1.188  23.471  12.099
76416W        W42825  34.465  15.126   3.695
76417W        W42826  42.233   0.509   1.732
76418W        W42827  35.883  37.290   4.027
76419W        W42828  39.281  36.565   5.024
76420W        W42829  36.573  14.713  11.525
76421W        W42830  20.538  11.061  14.714
76422W        W42831   9.302  33.928   2.864
76423W        W42832  27.247   3.881  12.577
76424W        W42833  21.651  36.552   4.701
76425W        W42834  29.911   4.646   0.820
76426W        W42835   8.182  37.852   0.742
76427W        W42836   5.000  24.448  12.181
76428W        W42837  24.525  34.458  13.307
76429W        W42838   9.899  33.525  14.362
76430W        W42839  28.158   0.800   3.620
76431W        W42840  15.075  17.131   2.692
76432W        W42841  44.750  29.994   4.659
76433W        W42842  16.679  18.928   4.163
76434W        W42843  21.721  28.724  11.506
76435W        W42844  18.128  28.026  13.799
76436W        W42845  41.203  27.867   4.947
76437W        W42846   9.768   0.747  14.944
76438W        W42847   3.813  27.029  10.376
76439W        W42848  10.306   2.848   0.710
76440W        W42849  19.294  32.175   4.603
76441W        W42850   4.671  34.459   3.149
76442W        W42851  26.690  11.974  13.345
76443W        W42852  35.499  32.892   2.829
76444W        W42853  27.060  44.935   4.421
76445W        W42854  18.016  15.337  11.633
76446W        W42855  13.005  34.839   1.140
76447W        W42856   8.562   8.117   3.322
76448W        W42857  20.158  39.036   0.102
76449W        W42858   2.849  44.617   2.248
76450W        W42859  29.862  33.111   2.416
76451W        W42860  32.072   6.822   4.461
76452W        W42861  20.671   8.803   0.644
76453W        W42862  27.906  17.311   4.032
76454W        W42863  39.981  33.096   0.219
76455W        W42864   1.959  27.900  12.476
76456W        W42865  14.599   5.883   2.509
76457W        W42866  33.901  20.494  14.135
76458W        W42867  19.524  24.111  14.736
76459W        W42868   6.208  21.632  13.299
76460W        W42869   7.951  20.735   4.227
76461W        W42870  33.183  34.965   0.536
76462W        W42871  37.764  23.607   1.186
76463W        W42872   3.992  20.641  11.245
76464W        W42873  11.667  39.263   4.155
76465W        W42874  16.235  21.950  10.856
76466W        W42875  37.485   1.936  10.238
76467W        W42876   0.750  11.935   4.135
76468W        W42877  16.782  16.519  11.179
76469W        W42878  40.440   2.847  10.795
76470W        W42879  26.942  12.072  14.770
76471W        W42880  38.323  16.634   0.511
76472W        W42881  37.896  43.960   2.257
76473W        W42882  22.081  13.873  13.881
76474W        W42883  24.106  18.781  13.872
76475W        W42884  35.779  12.143   3.063
76476W        W42885  39.088   8.165  14.966
76477W        W42886  38.583  34.962   1.375
76478W        W42887  26.517   1.594  14.885
76479W        W42888  33.559  25.325  10.063
76480W        W42889  33.644   8.908  11.862
76481W        W42890   7.275  38.532  11.436
76482W        W42891  39.946  15.334   0.544
76483W        W42892  42.950  25.199   1.640
76484W        W42893  24.345  12.236   0.015
76485W        W42894  31.109   8.501   5.862
76486W        W42895   1.883  15.800   4.892
76487W        W42896   5.455  26.471   1.426
76488W        W42897  26.657  20.708  11.969
76489W        W42898  23.522   9.249  11.505
76490W        W42899  17.589  13.674   2.292
76491W        W42900   3.441  25.375   3.114
76492W        W42901  35.378   9.782  14.828
76493W        W42902  19.141   5.366  13.886
76494W        W42903  34.289  44.345   1.821
76495W        W42904   0.961   2.189  12.532
76496W        W42905  18.687   7.179  13.973
76497W        W42906  41.755   5.800   3.055
76498W        W42907  33.844  29.919   2.172
76499W        W42908  38.928  38.813  13.800
76500W        W42909   5.764  42.717   0.356
76501W        W42910  42.988  29.979   2.498
76502W        W42911  36.871  40.227  13.208
76503W        W42912  15.347  41.498  13.390
76504W        W42913  29.507   6.936  13.816
76505W        W42914  12.343  38.286  12.536
76506W        W42915  11.942  36.589  11.384
76507W        W42916  41.106  28.023  14.343
76508W        W42917  26.496  26.930   0.710
76509W        W42918  26.430  14.646  11.094
76510W        W42919   4.354  37.413   2.588
76511W        W42920  33.003  42.134  11.795
76512W        W42921  24.211  43.040  12.677
76513W        W42922  43.862   9.567  13.020
76514W        W42923  41.765  31.436   3.279
76515W        W42924  21.161  37.192  12.392
76516W        W42925   4.957   8.521   4.097
76517W        W42926  22.465   7.702   0.413
76518W        W42927  14.144   4.332  13.278
76519W        W42928  18.156  41.995   0.039
76520W        W42929  44.838   8.206   3.235
76521W        W42930  40.282  36.929   3.374
76522W        W42931  14.784  44.035   1.416
76523W        W42932  28.098  22.416   3.808
76524W        W42933  33.482  35.898   4.735
76525W        W42934  36.360  13.566   2.228
76526W        W42935   7.624  10.887  12.133
76527W        W42936   4.234  36.583   1.149
76528W        W42937  20.136  42.367  10.604
76529W        W42938  17.552   8.347   0.230
76530W        W42939   2.371  10.302  14.869
76531W        W42940  28.993   8.390  11.983
76532W        W42941  36.499  19.761   3.127
76533W        W42942  16.356   8.117  14.851
76534W        W42943  26.189   1.459   3.400
76535W        W42944  25.381  17.220   0.246
76536W        W42945  25.905  13.409  14.513
76537W        W42946  32.007  23.055  14.589
76538W        W42947  39.804  18.400   2.309
76539W        W42948  15.325  19.250  13.468
76540W        W42949   2.777  23.082  12.648
76541W        W42950  28.933   8.666   1.796
76542W        W42951  28.500  14.487  11.946
76543W        W42952  42.969  42.851   2.322
76544W        W42953   9.754  23.134   4.404
76545W        W42954  37.468  26.057   4.269
76546W        W42955  39.847   6.120   4.869
76547W        W42956  39.465   7.423  11.026
76548W        W42957  26.797  26.627   1.354
76549W        W42958  14.582   1.445   3.133
76550W        W42959  28.629  36.073   0.798
76551W        W42960  28.909  35.587  13.070
76552W        W42961   2.475  42.499  13.308
76553W        W42962  19.591  19.077   0.345
76554W        W42963  34.185   6.139   2.035
76555W        W42964   3.398  42.968   5.076
76556W        W42965  43.464  34.806   4.751
76557W        W42966  38.635  25.961  11.214
76558W        W42967  17.804  29.202   0.226
76559W        W42968  23.563   8.329  13.376
76560W        W42969  18.248  44.707   3.647
76561W        W42970   4.462  35.602   4.569
76562W        W42971  30.869   3.403   0.076
76563W        W42972   8.117  16.572   1.269
76564W        W42973  39.655  12.752   2.123
76565W        W42974  21.549   0.458   0.872
76566W        W42975  14.152  36.742   2.378
76567W        W42976  33.138  24.561  13.491
76568W        W42977  33.811   6.458  13.325
76569W        W42978  16.714  36.854  14.135
76570W        W42979   1.078  30.540   0.337
76571W        W42980  34.424  33.409  10.603
76572W        W42981  26.513   8.514   1.266
76573W        W42982  27.892  39.563   0.852
76574W        W42983  27.451  21.727   5.518
76575W        W42984   1.756  40.456  13.006
76576W        W42985  11.852  42.826   1.482
76577W        W42986   0.064  32.572   2.540
76578W        W42987  15.003  21.356  12.099
76579W        W42988  34.079  11.219  11.165
76580W        W42989  40.708  40.341  12.092
76581W        W42990   6.653   7.916  12.424
76582W        W42991   9.732  23.467   1.272
76583W        W42992  40.682  33.106  13.488
76584W        W42993   4.895  37.292   1.829
76585W        W42994   7.178  32.362   2.248
76586W        W42995  15.222  29.693  14.748
76587W        W42996  36.545   0.706   4.920
76588W        W42997  34.069  22.001  13.331
76589W        W42998  18.729  44.973  10.603
76590W        W42999  25.479   1.326  11.152
76591W        W43000  13.685  18.989   3.160
76592W        W43001  43.959  29.640   3.876
76593W        W43002  13.084  12.163   3.266
76594W        W43003  41.704  25.950  11.502
76595W        W43004  36.501  34.177  11.470
76596W        W43005  29.686   6.962   2.231
76597W        W43006  40.893  29.310  12.623
76598W        W43007  18.134  25.423   4.105
76599W        W43008  41.487  24.889  13.557
76600W        W43009  28.906  25.105  10.732
76601W        W43010  22.126   7.836  13.905
76602W        W43011   3.480   7.445  14.286
76603W        W43012   8.597   7.919   0.060
76604W        W43013  28.454  25.355   0.785
76605W        W43014  30.113  37.401   4.324
76606W        W43015  20.421  30.315  13.564
76607W        W43016  17.652  32.249  12.837
76608W        W43017  31.047  20.770   4.463
76609W        W43018  36.970   5.904  12.947
76610W        W43019  13.612   2.838   0.452
76611W        W43020   1.492   2.333  14.215
76612W        W43021  40.493  12.894   0.886
76613W        W43022  26.848  14.943   0.372
76614W        W43023  24.017  41.034   2.736
76615W        W43024  36.119  22.380   2.675
76616W        W43025   3.460  24.908   3.319
76617W        W43026  25.064  40.846   1.346
76618W        W43027   6.323  11.796   1.660
76619W        W43028  13.334  39.389  10.729
76620W        W43029  13.110  22.542   0.173
76621W        W43030   9.162  32.539  11.595
76622W        W43031  27.721   2.874   4.544
76623W        W43032  23.596  20.025   4.802
76624W        W43033  24.309   3.958  12.690
76625W        W43034   4.674  22.728  14.962
76626W        W43035   1.960  11.354   2.869
76627W        W43036  41.364  19.983  12.965
76628W        W43037  21.504  14.368  11.109
76629W        W43038   1.403  41.262  13.942
76630W        W43039   4.830  40.838  13.116
76631W        W43040   1.712  23.684  13.073
76632W        W43041   9.733  13.699   3.171
76633W        W43042   0.518  18.156  13.928
76634W        W43043   6.907  35.488   1.739
76635W        W43044  25.024  35.101  13.721
76636W        W43045   8.430   0.464  12.519
76637W        W43046  27.951   5.321   1.881
76638W        W43047   6.459  14.151  13.044
76639W        W43048  14.510  31.563   3.656
76640W        W43049  10.999  14.892  13.543
76641W        W43050  37.432  44.656   4.999
76642W        W43051  24.669   2.618   3.694
76643W        W43052  34.019  34.627   2.461
76644W        W43053  31.515  42.250   4.576
76645W        W43054  43.277  18.509  14.845
76646W        W43055  40.385  44.381  13.096
76647W        W43056  36.334  44.952  12.433
76648W        W43057   4.286  18.158   4.423
76649W        W43058   9.135   9.933   1.875
76650W        W43059  38.302  35.816   3.295
76651W        W43060  14.698  18.644   1.160
76652W        W43061  43.928  13.689   2.664
76653W        W43062  10.644  28.654  11.505
76654W        W43063  21.609  10.476   1.671
76655W        W43064  32.329  12.183   3.776
76656W        W43065  22.255  10.489   0.101
76657W        W43066  23.232  19.164   4.754
76658W        W43067  13.776  14.564  13.014
76659W        W43068  28.615   3.860  11.972
76660W        W43069  41.968   4.425   1.415
76661W        W43070  33.310  18.918  13.762
76662W        W43071   4.959  42.988   3.108
76663W        W43072   8.469  14.490  14.763
76664W        W43073  31.688  43.293  12.585
76665W        W43074   1.317  39.759  13.980
76666W        W43075  38.382  28.031  11.682
76667W        W43076   3.704   2.370  12.025
76668W        W43077  36.430  41.454  14.177
76669W        W43078  28.022  39.943   1.321
76670W        W43079   5.013   1.307   3.310
76671W        W43080  20.703   8.380  14.633
76672W        W43081   9.178   2.819   2.871
76673W        W43082  33.205  41.429   9.832
76674W        W43083  13.291   5.089   4.954
76675W        W43084  39.264  17.136   1.379
76676W        W43085  11.912   7.256  13.093
76677W        W43086  35.950  16.800  14.828
76678W        W43087  29.165   1.411   3.341
76679W        W43088   5.881  39.425   0.594
76680W        W43089  36.793  25.112  12.609
76681W        W43090  37.080  14.515   3.197
76682W        W43091  35.478  42.280  12.935
76683W        W43092  20.413  29.030   3.142
76684W        W43093  12.326  38.038   1.278
76685W        W43094  11.251  16.710   3.196
76686W        W43095  31.905  20.759   4.463
76687W        W43096  10.326   4.027   4.922
76688W        W43097  33.656   9.834   0.777
76689W        W43098  10.725  31.730  10.218
76690W        W43099  26.537  14.427   0.726
76691W        W43100  44.068  39.238  14.084
76692W        W43101   1.218  19.754  10.854
76693W        W43102  20.652  14.213   3.194
76694W        W43103  40.713   0.183  10.967
76695W        W43104  40.515  14.295   1.853
76696W        W43105  13.712  32.990  13.595
76697W        W43106  12.743  40.294   3.235
76698W        W43107  21.735   7.991   1.777
76699W        W43108  40.229  37.429   2.605
76700W        W43109  16.299  19.028  14.989
76701W        W43110  22.960   8.650  12.036
76702W        W43111  30.560  11.950  11.882
76703W        W43112  20.175   3.528  12.481
76704W        W43113   9.134  12.685   0.160
76705W        W43114  14.248  44.385  13.452
76706W        W43115  33.158  14.773  13.928
76707W        W43116  40.359  27.708  11.087
76708W        W43117  10.630  18.608  13.352
76709W        W43118  33.919  33.017   0.934
76710W        W43119  36.157  34.012   3.142
76711W        W43120   1.889   1.686  11.608
76712W        W43121  38.000   0.554  11.844
76713W        W43122   9.843   6.643  14.723
76714W        W43123  18.711  39.909   0.153
76715W        W43124  41.502  36.471   0.392
76716W        W43125  10.099   0.385   9.778
76717W        W43126   0.439  15.563  12.875
76718W        W43127  25.165  14.694  10.614
76719W        W43128  16.839  44.044   0.424
76720W        W43129   1.672  13.887  12.375
76721W        W43130  14.030  41.326   4.090
76722W        W43131  24.554  32.870   0.403
76723W        W43132   3.477  30.080  13.662
76724W        W43133  30.983  26.530  12.581
76725W        W43134   4.405  28.882   0.000
76726W        W43135  38.869   8.230  14.396
76727W        W43136  42.390  24.705   3.340
76728W        W43137  19.808   6.766   3.099
76729W        W43138  38.421  16.121   5.433
76730W        W43139  22.788   6.871  10.716
76731W        W43140  19.753   8.360  12.975
76732W        W43141  26.526   7.165  11.663
76733W        W43142  21.828  31.720  11.614
76734W        W43143   7.753  27.420   1.758
76735W        W43144  29.184   1.897  13.856
76736W        W43145  29.091  17.671  10.900
76737W        W43146  22.171  26.177  14.092
76738W        W43147  35.482  17.049  13.502
76739W        W43148  35.900  34.181   2.725
76740W        W43149   9.335  31.167   3.087
76741W        W43150  27.996  32.178  10.761
76742W        W43151  42.833  29.628  13.467
76743W        W43152  17.736  43.735  12.059
76744W        W43153  21.702  39.516   4.329
76745W        W43154  22.106  26.638  13.806
76746W        W43155  30.634  23.730  12.565
76747W        W43156  24.658  10.664  12.904
76748W        W43157  43.271   4.298  12.437
76749W        W43158   3.363  23.933   1.831
76750W        W43159  29.895  23.837  10.656
76751W        W43160  37.933  34.665   1.886
76752W        W43161   6.898  16.107   4.642
76753W        W43162  23.886  39.116  14.933
76754W        W43163  25.322  15.616   5.122
76755W        W43164  27.252  23.300  11.144
76756W        W43165  30.556  42.545  12.552
76757W        W43166  30.625  24.621  12.102
76758W        W43167   0.545  27.795   4.168
76759W        W43168  16.612  32.606   0.920
76760W        W43169   7.238  11.540   4.579
76761W        W43170  22.742  32.241  13.587
76762W        W43171  25.668  30.734  13.297
76763W        W43172  12.217  41.053   4.961
76764W        W43173  27.949  39.800  10.724
76765W        W43174  12.255   8.485   3.136
76766W        W43175  28.031  42.384  14.353
76767W        W43176  36.847  43.735  11.637
76768W        W43177  43.889  23.135   2.363
76769W        W43178   0.572  20.121  13.372
76770W        W43179   4.980  19.603   2.781
76771W        W43180  12.724  28.963   1.882
76772W        W43181  22.683  23.028   0.709
76773W        W43182  21.962  12.232   0.369
76774W        W43183  12.279  19.633  12.975
76775W        W43184  28.054  16.791  11.847
76776W        W43185  44.237  10.352   1.551
76777W        W43186  20.333  10.887   2.290
76778W        W43187  43.415  35.772   3.297
76779W        W43188  20.337  25.612  12.842
76780W        W43189  13.353  17.063  13.360
76781W        W43190  21.965  21.152  10.353
76782W        W43191   8.711  11.919  13.789
76783W        W43192  43.030  19.271   0.207
76784W        W43193  33.056  30.391  11.561
76785W        W43194  13.225  29.609   4.900
76786W        W43195  13.855  30.924  14.370
76787W        W43196  14.672  44.239  14.496
76788W        W43197  30.885  11.499  13.133
76789W        W43198  38.694  11.526  11.736
76790W        W43199  26.169   3.437  13.153
76791W        W43200  19.774  44.359   0.446
76792W        W43201  42.262  19.895  13.421
76793W        W43202   9.827  42.952   3.676
76794W        W43203  18.062   0.890   2.199
76795W        W43204  44.980  23.167  12.644
76796W        W43205  33.052  33.674   2.067
76797W        W43206  36.573  16.307   2.937
76798W        W43207  25.000   8.177   2.314
76799W        W43208  26.233  36.455  13.552
76800W        W43209   2.719  40.329  14.893
76801W        W43210  21.100  34.993   4.992
76802W        W43211  30.029  40.915  11.044
76803W        W43212   9.300  14.584  12.210
76804W        W43213  21.486   7.375   3.618
76805W        W43214   4.395  10.800  14.456
76806W        W43215  14.137  33.380  12.446
76807W        W43216  24.687  42.118  14.316
76808W        W43217  34.537  22.929  12.572
76809W        W43218   4.161  21.056  14.786
76810W        W43219  44.724  28.960   3.599
76811W        W43220   8.186  31.172  11.535
76812W        W43221  22.259  39.804  12.872
76813W        W43222  36.388  36.901  14.965
76814W        W43223  26.680  39.592  11.166
76815W        W43224  37.397  44.321  11.942
76816W        W43225  40.483   1.988   4.536
76817W        W43226  36.092  37.421  14.785
76818W        W43227  12.684   8.678   0.547
76819W        W43228  42.466  44.776   3.221
76820W        W43229   0.522  37.515   4.558
76821W        W43230  13.783   2.049  11.524
76822W        W43231  17.771  22.291  13.019
76823W        W43232  17.072  35.831   4.466
76824W        W43233  19.569   9.245   4.700
76825W        W43234  11.562  15.088   3.741
76826W        W43235  18.623  17.432  13.170
76827W        W43236   6.773  41.613   0.279
76828W        W43237  33.316  34.247  14.414
76829W        W43238  13.081  19.764   1.757
76830W        W43239  41.027  37.996  14.233
76831W        W43240   7.457  30.353   2.436
76832W        W43241   8.857  11.850   1.036
76833W        W43242   2.456  21.792  11.116
76834W        W43243  42.735  16.625  14.921
76835W        W43244  39.757  26.021  13.427
76836W        W43245   6.703  39.490   0.803
76837W        W43246  18.388  34.444   0.392
76838W        W43247  40.108  13.065  12.103
76839W        W43248   4.276  37.036  13.879
76840W        W43249  23.162  26.524   0.427
76841W        W43250  29.447  37.350   0.718
76842W        W43251  35.582  16.545  14.517
76843W        W43252  43.828  11.693   2.830
76844W        W43253  14.379  24.913  10.656
76845W        W43254  33.726  42.764  12.188
76846W        W43255  28.586  32.103  11.620
76847W        W43256  30.172  21.079  11.226
76848W        W43257   6.224   9.186  13.085
76849W        W43258  26.021  24.079  14.902
76850W        W43259  42.717   4.331  10.563
76851W        W43260  41.167  23.661  14.445
76852W        W43261  33.089   2.077   4.558
76853W        W43262  31.056  16.635  12.649
76854W        W43263   4.329   7.446  13.938
76855W        W43264  19.765  31.893  11.593
76856W        W43265  39.619  25.603  11.943
76857W        W43266  17.273  32.451   0.641
76858W        W43267  24.655   8.890  11.205
76859W        W43268  24.829  40.546   1.737
76860W        W43269  40.579  40.839   3.369
76861W        W43270  11.292  27.571   2.071
76862W        W43271  44.514  27.531   0.966
76863W        W43272  16.298  10.337   2.354
76864W        W43273   3.245  35.004   0.854
76865W        W43274  39.909  38.572  14.069
76866W        W43275   1.685  15.136   0.801
76867W        W43276   4.744  27.645  11.899
76868W        W43277   0.902  11.617   2.200
76869W        W43278  37.571  37.607  13.973
76870W        W43279  25.950  11.294   0.409
76871W        W43280  42.421  12.348   1.209
76872W        W43281  20.549  41.796   1.227
76873W        W43282  31.051   5.448   3.388
76874W        W43283  32.964  28.385  13.711
76875W        W43284  11.109  44.871  13.011
76876W        W43285   8.019  44.724  13.170
76877W        W43286  24.032  18.224   0.025
76878W        W43287  38.816  41.238   1.777
76879W        W43288  30.835  39.899   4.679
76880W        W43289   3.150  42.368  11.913
76881W        W43290  20.048   2.789  14.376
76882W        W43291  32.948  17.182  14.311
76883W        W43292  10.892  22.819   1.373
76884W        W43293  13.788  44.725  11.977
76885W        W43294  11.950  42.014  14.386
76886W        W43295  35.693  30.980  13.522
76887W        W43296  11.764  36.637   0.916
76888W        W43297   8.676   3.571  10.734
76889W        W43298  17.530  25.477   1.327
76890W        W43299   0.335  35.602  12.459
76891W        W43300  41.923  10.710   1.395
76892W        W43301  28.143  19.148   3.906
76893W        W43302   2.908  40.683  13.043
76894W        W43303  23.984   0.951  11.909
76895W        W43304  19.473  11.434  10.780
76896W        W43305  44.604  41.464  14.406
76897W        W43306  43.892  32.141   4.079
76898W        W43307  40.025  41.329  10.508
76899W        W43308   0.353   9.199   1.007
76900W        W43309  28.233  11.549  12.425
76901W        W43310  18.086  10.882  12.520
76902W        W43311  17.278  25.675  10.551
76903W        W43312  21.785  18.492  11.025
76904W        W43313  34.360  40.977   0.819
76905W        W43314  31.544  39.613   0.341
76906W        W43315  39.217  35.095  14.529
76907W        W43316  41.533   0.800   3.630
76908W        W43317  36.947   5.557  14.522
76909W        W43318  10.516  30.041  12.113
76910W        W43319  17.173  40.975  14.876
76911W        W43320  29.951  27.959  14.165
76912W        W43321  10.271  28.454  12.068
76913W        W43322   4.692  26.491  12.123
76914W        W43323   7.923  29.961   3.888
76915W        W43324  44.851  44.905   0.304
76916W        W43325  28.513  25.164  13.043
76917W        W43326  39.572  20.773  14.732
76918W        W43327   3.197  13.066  11.172
76919W        W43328   4.300  24.703   1.856
76920W        W43329  25.125  22.792   2.743
76921W        W43330   8.462  32.129  13.882
76922W        W43331   6.477  13.325   1.391
76923W        W43332  29.059  21.346  13.930
76924W        W43333  24.607  24.582   3.098
76925W        W43334  35.055  26.635   1.303
76926W        W43335   5.963  29.724  13.421
76927W        W43336  26.689  41.240   1.206
76928W        W43337   4.266   0.223  11.153
76929W        W43338  31.444  40.217   0.811
76930W        W43339  37.560  16.190   3.099
76931W        W43340  16.524  31.716  10.990
76932W        W43341   0.473  40.791  14.774
76933W        W43342   1.305  24.590   2.930
76934W        W43343   0.645  24.858   0.858
76935W        W43344  16.139   3.012  11.999
76936W        W43345  21.075  26.319  13.043
76937W        W43346   8.549  27.634  11.570
76938W        W43347  17.103   3.212   2.646
76939W        W43348  21.164  33.082  14.310
76940W        W43349  14.563  38.946   1.231
76941W        W43350  11.085  44.369   0.861
76942W        W43351  21.452  32.378   2.820
76943W        W43352   4.131   4.737   2.227
76944W        W43353  15.090  11.856   4.574
76945W        W43354  34.700   2.350  14.749
76946W        W43355   1.170  11.138   2.324
76947W        W43356  13.726  17.766   2.837
76948W        W43357  37.071  30.704   3.779
76949W        W43358  26.695  18.836  12.512
76950W        W43359  41.770  21.416   3.217
76951W        W43360   2.734  19.524   0.025
76952W        W43361  31.165  18.875   4.080
76953W        W43362  34.991  28.516  12.053
76954W        W43363  17.518   6.859  13.599
76955W        W43364  26.560  25.682  14.623
76956W        W43365  12.239  34.017  14.295
76957W        W43366  31.122  11.662   3.097
76958W        W43367  32.397  37.999   1.313
76959W        W43368  30.964  30.629  14.614
76960W        W43369   9.225  19.604   2.251
76961W        W43370  24.788  27.472   0.413
76962W        W43371  39.083  13.664   2.325
76963W        W43372  19.817  43.316   4.175
76964W        W43373  42.935  19.129   3.339
76965W        W43374   6.357  10.140  10.664
76966W        W43375  42.925  39.848  12.611
76967W        W43376  25.644  23.646   0.443
76968W        W43377   0.489  39.639  13.700
76969W        W43378   8.992  30.135   4.977
76970W        W43379  38.838  42.589  10.319
76971W        W43380  26.494   3.556   1.350
76972W        W43381  22.627   3.951  11.720
76973W        W43382   7.628  21.975  14.553
76974W        W43383   3.993   2.374   3.173
76975W        W43384  18.247  34.017  10.682
76976W        W43385  12.207  28.552   4.429
76977W        W43386   1.393  19.872   0.384
76978W        W43387  12.306  15.516  12.187
76979W        W43388   0.662  25.490  14.861
76980W        W43389  12.212  25.018   2.749
76981W        W43390   2.264   6.982   1.137
76982W        W43391  22.829  37.893   9.973
76983W        W43392  16.067  41.033  12.846
76984W        W43393   3.748  26.601  10.659
76985W        W43394  39.884  15.363  13.546
76986W        W43395  13.379  36.721   1.928
76987W        W43396  10.163  25.516  10.663
76988W        W43397  37.509  41.407   0.785
76989W        W43398  33.130  34.255   2.225
76990W        W43399  33.564   1.911   3.664
76991W        W43400   8.203  17.093   1.830
76992W        W43401  29.128   6.737   4.563
76993W        W43402  29.241  22.544  11.658
76994W        W43403  30.563  41.283   2.716
76995W        W43404   9.926   8.255   0.494
76996W        W43405  25.953  28.387  10.706
76997W        W43406  25.185  18.893   2.573
76998W        W43407  43.992  23.842   0.144
76999W        W43408  44.196  35.893   3.448
77000W        W43409   3.759   4.696   2.663
77001W        W43410  31.516  33.308  11.498
77002W        W43411   8.407   6.305  10.695
77003W        W43412  23.643  32.154   0.966
77004W        W43413  20.591   2.348   1.183
77005W        W43414   7.257  38.451  12.370
77006W        W43415   1.656  39.477  13.275
77007W        W43416  25.028  20.620  12.839
77008W        W43417  37.575  15.195  11.182
77009W        W43418   3.408   8.884   1.304
77010W        W43419  32.861   5.030   4.557
77011W        W43420  10.870  22.563   2.307
77012W        W43421  25.715   6.163   0.008
77013W        W43422  32.119  35.097  13.395
77014W        W43423  14.636  31.872  13.900
77015W        W43424  26.669  20.268   3.663
77016W        W43425   7.917  27.523   0.921
77017W        W43426   4.301  26.603   0.471
77018W        W43427  13.878  33.740   0.800
77019W        W43428  21.114  23.928   1.888
77020W        W43429  17.724  24.694  12.982
77021W        W43430  17.586  44.913   3.723
77022W        W43431  35.403  14.079  14.519
77023W        W43432  35.356  29.406   0.033
77024W        W43433  42.216  40.565   0.431
77025W        W43434  36.974  40.882   1.025
77026W        W43435  11.204  41.838   0.770
77027W        W43436  21.104  21.333  11.405
77028W        W43437   7.843   6.368   5.079
77029W        W43438  30.969  42.255   0.966
77030W        W43439  11.332  19.279  11.529
77031W        W43440  35.175  26.587  10.358
77032W        W43441  21.293   9.109   1.977
77033W        W43442  43.372  15.092   0.539
77034W        W43443  40.888   7.689   5.120
77035W        W43444  37.428  22.007  11.178
77036W        W43445  41.236   7.801  10.663
77037W        W43446  24.374   1.966   4.146
77038W        W43447   5.345   3.577  11.492
77039W        W43448   8.906  23.291  11.605
77040W        W43449  20.858  37.092  13.291
77041W        W43450  42.883  24.203   4.528
77042W        W43451  29.550  21.325  10.113
77043W        W43452  30.537  38.911   3.192
77044W        W43453  20.543  41.371  12.501
77045W        W43454   6.644  42.550  13.537
77046W        W43455  20.531   2.433   3.177
77047W        W43456  14.770  39.473   4.220
77048W        W43457   5.393  12.492  11.218
77049W        W43458  16.851   1.125  13.910
77050W        W43459   7.207  35.820  11.204
77051W        W43460   5.959  15.897  11.125
77052W        W43461  28.723  21.212  11.957
77053W        W43462   6.756   8.630   0.351
77054W        W43463  40.496  10.446  13.758
77055W        W43464  29.927   3.673   3.415
77056W        W43465  29.044   3.072  12.571
77057W        W43466  42.926  38.400   3.693
77058W        W43467   9.942  31.947   3.205
77059W        W43468  34.392  39.818  11.360
77060W        W43469  10.351  23.822   4.266
77061W        W43470  26.151  25.257   2.328
77062W        W43471  14.422   8.789   2.745
77063W        W43472   5.760  16.093  11.564
77064W        W43473  27.939   7.153   3.776
77065W        W43474  14.380  42.555   4.102
77066W        W43475  33.083  30.283  12.932
77067W        W43476  13.345   2.711  13.743
77068W        W43477  15.534   0.210  10.480
77069W        W43478  19.517  20.529   0.333
77070W        W43479  16.590   0.451  11.643
77071W        W43480  36.468  35.674  11.820
77072W        W43481  28.238  23.178  13.543
77073W        W43482  44.405  32.127   4.174
77074W        W43483  31.987  13.708   0.251
77075W        W43484   3.673  32.260   2.713
77076W        W43485  32.019   5.466   4.571
77077W        W43486  13.597  33.477  12.380
77078W        W43487  34.870   9.779  14.906
77079W        W43488   0.323   5.892   3.903
77080W        W43489  43.928  44.906   4.292
77081W        W43490  17.051  25.532   1.497
77082W        W43491  34.286  42.726   2.710
77083W        W43492  26.463  13.847  12.005
77084W        W43493  30.134  30.412  11.578
77085W        W43494  35.469  37.040  14.520
77086W        W43495  24.930   8.289   3.156
77087W        W43496  38.382  25.671   4.251
77088W        W43497   7.178  29.913   3.348
77089W        W43498   7.137  38.992  13.327
77090W        W43499  11.356   2.092   4.910
77091W        W43500   9.749   5.632  13.541
77092W        W43501  20.256  36.958  11.075
77093W        W43502  19.990  28.889  12.587
77094W        W43503   2.013   0.384   0.353
77095W        W43504  41.989  34.265  12.853
77096W        W43505  20.953  35.112   2.471
77097W        W43506  31.412  44.970  13.111
77098W        W43507  33.341  39.936   1.779
77099W        W43508  42.586  12.404   3.132
77100W        W43509  43.452  14.296  10.230
77101W        W43510  10.865  37.565   2.776
77102W        W43511  39.615  39.320  11.409
77103W        W43512  41.822   6.704  11.096
77104W        W43513   7.831   9.426  11.100
77105W        W43514  43.280  32.628  10.569
77106W        W43515  22.192  34.155  11.600
77107W        W43516  16.986  42.830   1.199
77108W        W43517  11.864  44.012  12.815
77109W        W43518  36.116  33.860   0.891
77110W        W43519  18.389  31.665   2.273
77111W        W43520  19.511  14.078  13.960
77112W        W43521  19.601   9.498   0.423
77113W        W43522  29.670  41.183   2.813
77114W        W43523  36.140   0.247   1.990
77115W        W43524  44.424   8.759  14.515
77116W        W43525  23.621  33.765   3.284
77117W        W43526  26.587  27.213   2.744
77118W        W43527   5.334  11.761   3.914
77119W        W43528   6.829  40.027  10.696
77120W        W43529  43.985   5.723   4.383
77121W        W43530  16.993  43.788   1.295
77122W        W43531  32.331  30.639   2.724
77123W        W43532   8.342  34.564  14.986
77124W        W43533  25.356  37.058  12.724
77125W        W43534   0.154  23.380   2.690
77126W        W43535   1.977  28.274  10.944
77127W        W43536  11.528  11.624  14.089
77128W        W43537   4.768   1.870  13.515
77129W        W43538  34.496  14.830   1.351
77130W        W43539   3.239  31.698  11.150
77131W        W43540  34.200  19.042   1.786
77132W        W43541  19.457   3.721   1.604
77133W        W43542   0.913   9.160   3.534
77134W        W43543  12.960   2.902   4.481
77135W        W43544  20.335  30.727   2.700
77136W        W43545  30.969  31.423   1.724
77137W        W43546  35.392  13.085  12.643
77138W        W43547  41.582   4.305  13.824
77139W        W43548   7.753  35.719   4.247
77140W        W43549  36.728  38.038   4.720
77141W        W43550  24.392  15.159   2.060
77142W        W43551   2.033  38.398   1.126
77143W        W43552  13.314  20.177  11.956
77144W        W43553  32.029  17.279  14.348
77145W        W43554  25.157   3.391  11.836
77146W        W43555   7.395  32.367   0.907
77147W        W43556  38.701  36.210   1.757
77148W        W43557  38.611  27.597  11.556
77149W        W43558  16.011  13.769  14.834
77150W        W43559  19.699   2.125  11.525
77151W        W43560  14.761  10.212   1.638
77152W        W43561  25.062  24.197  12.486
77153W        W43562  20.609   0.353  14.838
77154W        W43563  11.961  38.499  14.409
77155W        W43564  32.110  18.947   4.096
77156W        W43565  35.784   9.355  10.721
77157W        W43566  29.057  17.945   0.848
77158W        W43567   9.300   1.672   5.022
77159W        W43568  26.885  14.735  12.470
77160W        W43569  22.130  27.600   0.411
77161W        W43570  37.132   3.834   3.566
77162W        W43571   7.458   9.811  11.949
77163W        W43572  11.756  10.180   1.908
77164W        W43573  42.588  32.550  11.973
77165W        W43574   5.411  40.757   3.314
77166W        W43575  11.782  21.972  12.046
77167W        W43576  16.693  15.191   1.296
77168W        W43577   9.243  41.263  12.112
77169W        W43578  30.679  18.221   0.411
77170W        W43579  27.431  36.289  13.940
77171W        W43580  39.427  42.510  12.486
77172W        W43581  36.320  37.893   4.439
77173W        W43582  14.084  42.288  10.739
77174W        W43583  17.183  11.250  12.027
77175W        W43584   9.762  22.323  13.493
77176W        W43585  35.973  31.114   3.551
77177W        W43586  34.440  24.671   4.851
77178W        W43587  40.880  41.894   2.904
77179W        W43588  44.271  29.098  12.616
77180W        W43589  23.201  10.376  10.686
77181W        W43590  30.526  21.999  14.487
77182W        W43591  44.740  15.390   4.951
77183W        W43592   9.675  41.798   2.913
77184W        W43593  28.493   5.361  10.659
77185W        W43594  12.753  41.111   4.219
77186W        W43595  11.708  36.217  12.982
77187W        W43596  34.031  38.395  12.023
77188W        W43597  41.475  13.429  14.577
77189W        W43598  41.641  15.697   2.107
77190W        W43599  38.771   2.216  12.887
77191W        W43600  38.472  40.401  10.892
77192W        W43601  16.832  13.055   2.586
77193W        W43602  39.441   2.416  10.655
77194W        W43603  16.133  43.880   2.301
77195W        W43604   3.990  38.001   1.953
77196W        W43605  27.021  34.107   4.783
77197W        W43606  44.214  13.144   0.420
77198W        W43607  26.487  33.214   4.585
77199W        W43608  42.757   1.788  11.110
77200W        W43609  15.632  39.267  13.175
77201W        W43610  43.565  18.295   4.252
77202W        W43611  26.066  29.972   2.764
77203W        W43612   9.619   0.881  13.590
77204W        W43613  33.090  28.488   0.728
77205W        W43614  12.317  30.845  12.863
77206W        W43615   1.427   2.803  13.427
77207W        W43616  42.086  10.551  11.160
77208W        W43617  34.046   1.745   1.820
77209W        W43618  39.127   6.917   3.356
77210W        W43619  41.151  27.892   3.107
77211W        W43620  27.979   6.624  13.958
77212W        W43621  36.807   8.991   1.393
77213W        W43622   5.703  32.767  11.715
77214W        W43623  15.714   8.113  11.608
77215W        W43624  17.676  32.884   3.089
77216W        W43625  18.768  18.864  12.561
77217W        W43626  33.753   0.587   4.007
77218W        W43627  40.408  43.455   3.137
77219W        W43628  31.624  27.922   4.574
77220W        W43629  32.389  41.516  11.513
77221W        W43630  15.770  22.128   3.867
77222W        W43631  18.220  32.201   0.592
77223W        W43632  26.581  19.550   4.136
77224W        W43633  20.572   2.785  14.519
77225W        W43634  27.113  28.476   1.804
77226W        W43635  14.327  10.789  14.390
77227W        W43636  37.670  11.172  13.418
77228W        W43637  10.344  10.679  13.135
77229W        W43638  16.518  24.545   0.677
77230W        W43639   1.163   2.261  11.171
77231W        W43640  40.883   3.696  13.047
77232W        W43641  10.806   0.176  13.625
77233W        W43642  22.780   9.723   4.429
77234W        W43643  18.619  13.882   0.828
77235W        W43644  12.866  37.450  10.189
77236W        W43645  17.182   9.313  10.903
77237W        W43646   0.919  44.349   0.467
77238W        W43647   1.320  17.338   1.746
77239W        W43648  35.061  25.276  14.296
77240W        W43649  15.289  20.306   4.031
77241W        W43650  29.526  10.343   4.459
77242W        W43651  37.327  17.254  12.582
77243W        W43652  36.620   5.064  12.412
77244W        W43653  19.978  44.683   3.227
77245W        W43654  20.279  42.652  13.250
77246W        W43655  24.578  18.690  11.594
77247W        W43656  11.732  24.189   1.978
77248W        W43657  30.223  15.241  14.267
77249W        W43658  28.454  22.743  14.434
77250W        W43659  37.161  42.773  14.874
77251W        W43660  42.020  37.330   0.646
77252W        W43661  19.192   6.815   1.728
77253W        W43662  12.705  29.025  13.917
77254W        W43663  24.335  26.022   3.310
77255W        W43664  30.558   7.169  13.025
77256W        W43665  12.787   4.187  13.074
77257W        W43666  27.341  30.539  14.844
77258W        W43667  11.167   7.010   0.397
77259W        W43668  43.768  23.770   1.503
77260W        W43669  22.200  14.026   0.463
77261W        W43670  20.335  15.205   0.422
77262W        W43671  43.762   2.675  11.149
77263W        W43672   0.318  32.331   4.716
77264W        W43673  26.282   0.563   3.396
77265W        W43674  32.173  23.988  12.913
77266W        W43675  14.506   1.898  12.685
77267W        W43676  11.778  40.066   3.724
77268W        W43677  19.001  20.158  13.379
77269W        W43678  26.552  32.209   2.106
77270W        W43679  29.918  23.484  13.857
77271W        W43680  40.830  29.214   2.706
77272W        W43681  43.712   8.514  13.022
77273W        W43682  19.939  18.939   0.726
77274W        W43683  21.138  30.638  13.594
77275W        W43684  40.552  38.112  12.417
77276W        W43685  18.588  36.968   2.648
77277W        W43686  11.799  21.493  10.670
77278W        W43687  12.271  33.038  12.495
77279W        W43688  28.087  10.270   0.818
77280W        W43689  43.215  19.741   1.717
77281W        W43690  40.629  14.886  13.270
77282W        W43691  22.538  35.555   3.349
77283W        W43692  37.383  25.078   3.734
77284W        W43693  18.733  21.614   2.318
77285W        W43694  27.250  10.680  14.973
77286W        W43695  28.060  30.397  12.930
77287W        W43696  19.609  28.267  11.695
77288W        W43697  15.215  42.319  12.063
77289W        W43698  24.052  42.126  14.760
77290W        W43699   7.564  12.193  10.705
77291W        W43700  24.673  16.845  12.934
77292W        W43701  11.548   0.535  12.079
77293W        W43702   7.761  36.532   2.334
77294W        W43703  20.552  28.254   1.860
77295W        W43704  20.480  17.127  12.985
77296W        W43705  32.863  15.179  10.555
77297W        W43706   2.262   3.530  10.420
77298W        W43707  10.047  16.205   4.527
77299W        W43708  42.293  44.359   0.774
77300W        W43709  18.089   8.302   2.340
77301W        W43710  29.001  18.278  14.424
77302W        W43711  37.422  24.378  10.745
77303W        W43712  27.986  29.900   2.796
77304W        W43713   6.426  36.720  11.962
77305W        W43714  34.464  40.055  12.400
77306W        W43715   9.925  32.123   0.991
77307W        W43716   7.261   2.541   1.487
77308W        W43717  34.309  16.585  11.191
77309W        W43718  27.069  14.282   3.767
77310W        W43719   9.646  42.062  11.975
77311W        W43720  21.515  35.526  13.448
77312W        W43721  39.605  21.588   5.755
77313W        W43722  10.496  31.967   1.829
77314W        W43723  35.373  32.149   1.687
77315W        W43724   2.273  31.377  13.772
77316W        W43725  34.699  28.550  13.824
77317W        W43726  10.156   7.170   3.090
77318W        W43727  24.986  24.745  11.640
77319W        W43728   1.418   9.536   1.374
77320W        W43729  21.101   4.998  14.808
77321W        W43730  14.338   4.946  13.036
77322W        W43731   6.308  29.501  12.638
77323W        W43732   1.852  12.735  12.982
77324W        W43733  40.574  29.607  10.806
77325W        W43734  33.048  14.433   3.305
77326W        W43735  31.967  20.611   0.347
77327W        W43736  31.590  21.540   2.164
77328W        W43737   2.413  15.145   2.367
77329W        W43738  22.268  18.790   2.806
77330W        W43739   3.402  26.213  10.550
77331W        W43740  10.499   9.417  12.437
77332W        W43741  31.143  15.028   4.436
77333W        W43742  15.751  24.016   2.257
77334W        W43743  41.043  12.681  11.199
77335W        W43744   3.228  19.770   2.148
77336W        W43745   6.266  26.853   1.644
77337W        W43746  32.989  26.180  11.613
77338W        W43747  22.804   2.966   4.796
77339W        W43748  38.550   0.248  14.955
77340W        W43749  10.322   8.827   1.876
77341W        W43750   5.830  12.543   3.763
77342W        W43751  33.236  43.497  14.308
77343W        W43752  34.335  42.223  13.351
77344W        W43753  37.761  32.412   3.804
77345W        W43754  14.397  43.128  10.091
77346W        W43755  35.908  33.564   3.170
77347W        W43756   8.070  32.500   4.563
77348W        W43757   2.328  19.335   1.678
77349W        W43758  26.104   0.389   4.454
77350W        W43759  14.380   1.435   3.620
77351W        W43760  16.968   4.650   0.877
77352W        W43761  21.903  39.852   0.700
77353W        W43762  31.783  14.425  12.901
77354W        W43763  35.861  19.763  10.624
77355W        W43764   5.352  44.284   1.474
77356W        W43765   3.965  12.633   4.441
77357W        W43766  36.837  27.485  11.839
77358W        W43767  16.839  18.616   3.208
77359W        W43768  16.850  22.645  13.299
77360W        W43769  25.926  30.072  14.401
77361W        W43770   9.249  18.088  13.976
77362W        W43771  44.097  32.630  14.502
77363W        W43772  35.083  20.691  11.912
77364W        W43773  30.525   2.465   0.327
77365W        W43774  39.021  44.334  11.485
77366W        W43775  12.768  40.806   3.205
77367W        W43776  13.408  43.858  14.920
77368W        W43777  19.310  33.807  10.666
77369W        W43778  10.376  29.005   2.677
77370W        W43779  39.726  28.493   0.265
77371W        W43780  34.587  37.694  10.347
77372W        W43781  34.472  19.771  14.420
77373W        W43782  40.673   4.555  13.441
77374W        W43783  10.181  21.320  11.469
77375W        W43784  29.515  13.900  10.424
77376W        W43785   5.146   1.287  12.435
77377W        W43786   5.443   8.185   4.299
77378W        W43787  23.081   9.129   3.169
77379W        W43788  35.265  36.390  13.819
77380W        W43789  15.553  42.004   3.536
77381W        W43790  34.650  35.984  11.511
77382W        W43791  44.030   6.974  11.172
77383W        W43792   9.840  39.062  12.026
77384W        W43793  39.090  14.113  14.882
77385W        W43794  43.149  40.259   5.321
77386W        W43795  25.046  21.550  13.389
77387W        W43796  15.713  12.599  14.914
77388W        W43797  22.175   0.514  12.865
77389W        W43798  11.101  31.977   0.654
77390W        W43799  12.203  10.415   1.748
77391W        W43800  36.812  38.468   1.675
77392W        W43801  41.970  13.178   3.780
77393W        W43802  25.481  23.523  14.957
77394W        W43803  10.307  39.508   1.662
77395W        W43804  31.904  43.375  14.824
77396W        W43805  29.091  25.105  13.525
77397W        W43806  10.602  44.812  10.686
77398W        W43807  10.276  12.841  10.964
77399W        W43808  33.838  19.563  11.521
77400W        W43809  44.654  39.038  11.058
77401W        W43810  33.643  30.146  11.455
77402W        W43811  21.508  24.800  14.732
77403W        W43812   1.246  30.208   1.848
77404W        W43813  42.498  38.011  11.068
77405W        W43814  13.543  35.518   0.821
77406W        W43815  14.005  43.444   2.267
77407W        W43816  28.088  15.594   4.563
77408W        W43817  19.093  30.891  10.514
77409W        W43818  37.701  12.512   1.703
77410W        W43819   9.435  31.581  11.230
77411W        W43820  12.564   7.958  10.635
77412W        W43821  31.228  13.881   0.056
77413W        W43822  34.653   8.148   2.785
77414W        W43823  31.656  38.723  12.593
77415W        W43824  41.921   2.783   4.450
77416W        W43825  28.957   3.955  10.566
77417W        W43826  23.626  30.868  11.471
77418W        W43827  24.597  26.444  11.908
77419W        W43828   5.018  28.592   1.816
77420W        W43829   4.409  42.088   1.926
77421W        W43830  42.359  11.946   3.130
77422W        W43831  20.808  37.468  12.961
77423W        W43832   9.752  21.649  12.647
77424W        W43833  36.465   3.710  12.075
77425W        W43834  33.071   5.836  11.439
77426W        W43835   9.677  27.694  10.789
77427W        W43836  43.757   8.802   2.163
77428W        W43837   1.474   7.607   1.362
77429W        W43838  34.828  32.159  11.095
77430W        W43839  20.767  31.141   0.364
77431W        W43840  34.398  36.337   4.271
77432W        W43841  28.818  37.601  13.094
77433W        W43842  43.729  18.736  14.949
77434W        W43843  10.229  10.494  10.173
77435W        W43844  38.518  20.858  11.587
77436W        W43845  32.564  24.235   2.275
77437W        W43846  22.166  44.386   4.541
77438W        W43847  31.660  27.568   1.983
77439W        W43848  10.249  20.076  11.144
77440W        W43849  10.809  42.861   4.328
77441W        W43850   1.565  21.585   0.287
77442W        W43851  16.771  28.290   0.351
77443W        W43852   0.076   4.942   2.702
77444W        W43853  14.330  17.688   1.388
77445W        W43854  19.282  39.558   1.600
77446W        W43855  21.567   3.818  14.568
77447W        W43856  25.205  12.087   0.435
77448W        W43857  30.503  27.012   4.572
77449W        W43858  44.473  29.975   0.915
77450W        W43859  36.834  15.828  13.466
77451W        W43860   5.648  14.588  13.426
77452W        W43861   1.945  41.681   2.907
77453W        W43862   6.694  26.796  14.969
77454W        W43863  32.426  19.497   1.241
77455W        W43864   8.196  20.069   0.700
77456W        W43865   3.285  19.073   0.392
77457W        W43866  41.549  21.764  12.041
77458W        W43867  35.039  42.587   4.062
77459W        W43868  30.961  22.575  11.573
77460W        W43869  12.762   6.226  12.111
77461W        W43870   6.094  18.066   2.470
77462W        W43871  23.203   4.099   0.081
77463W        W43872  41.397  17.771  10.199
77464W        W43873  22.737  12.805  13.907
77465W        W43874  34.956  41.748  14.458
77466W        W43875   2.707  26.184   3.640
77467W        W43876   1.258  22.981  12.165
77468W        W43877  24.209  17.373  11.158
77469W        W43878   8.046  40.485  14.068
77470W        W43879  41.564  29.217   0.736
77471W        W43880  21.589   5.030   1.383
77472W        W43881  42.577  13.602   4.694
77473W        W43882  25.431  18.583   1.207
77474W        W43883  41.225  14.387  13.435
77475W        W43884   1.385  19.247  11.978
77476W        W43885  25.784  21.664  11.926
77477W        W43886   2.907  14.687  12.838
77478W        W43887  31.866  18.165  14.915
77479W        W43888  13.237  17.140   4.540
77480W        W43889  10.092   2.461   1.583
77481W        W43890  21.361  18.063  12.849
77482W        W43891  24.674  29.025  13.120
77483W        W43892  30.986  10.828   2.334
77484W        W43893   0.952  43.922  12.453
77485W        W43894   9.180  31.414   5.370
77486W        W43895   4.283  32.952  14.982
77487W        W43896  32.158  38.840   0.971
77488W        W43897  41.100  42.041  10.646
77489W        W43898   6.291  30.430  10.437
77490W        W43899  33.830  17.105  12.944
77491W        W43900  10.638  31.101   3.714
77492W        W43901  31.800   8.020  11.568
77493W        W43902  21.956  42.845   2.801
77494W        W43903  12.633  32.175   3.820
77495W        W43904  41.576  35.941   0.263
77496W        W43905  42.521  23.189   4.238
77497W        W43906  13.337  32.732  13.310
77498W        W43907   4.938  33.317   0.895
77499W        W43908  35.348  17.816  11.127
77500W        W43909  11.340  35.374   0.890
77501W        W43910  10.138  10.846   1.832
77502W        W43911  24.496   0.199  12.929
77503W        W43912   1.261  19.472   4.959
77504W        W43913  44.870  17.101   0.873
77505W        W43914  29.571  38.888  12.516
77506W        W43915  35.857  21.641  13.051
77507W        W43916  33.063  18.093   1.176
77508W        W43917  22.539  19.812  11.239
77509W        W43918  23.047  13.350  10.654
77510W        W43919  25.978   3.455  11.376
77511W        W43920  20.573  21.678   4.271
77512W        W43921  15.550  11.840   3.687
77513W        W43922  42.003  17.280  10.086
77514W        W43923  16.852   7.446  13.880
77515W        W43924  20.630  22.503  13.860
77516W        W43925   3.247  17.279  12.994
77517W        W43926  36.781  23.571   3.619
77518W        W43927  35.356   5.578   0.761
77519W        W43928   1.962   5.684   0.949
77520W        W43929  39.283  44.770   0.589
77521W        W43930  23.532  13.275   1.346
77522W        W43931  41.239  44.389   3.087
77523W        W43932  18.610  38.394   3.212
77524W        W43933  40.216  39.235   1.964
77525W        W43934  27.705  17.857   3.684
77526W        W43935  16.733  34.551   0.299
77527W        W43936   7.952   6.478   0.402
77528W        W43937  22.817  29.647   0.394
77529W        W43938  30.567  41.873   4.303
77530W        W43939   1.574   8.117   3.040
77531W        W43940  28.521  14.171  12.345
77532W        W43941  41.422   0.267   2.876
77533W        W43942  16.826  44.502   3.226
77534W        W43943  27.052  15.502  12.006
77535W        W43944   0.773  15.801  11.917
77536W        W43945   9.132  35.538  12.106
77537W        W43946   4.371  27.292   1.767
77538W        W43947  29.495  42.027   4.150
77539W        W43948  12.648  12.174  10.744
77540W        W43949   5.509   1.562   2.688
77541W        W43950   0.856   2.141  10.261
77542W        W43951   1.929  30.224   2.421
77543W        W43952  39.574  23.587   0.942
77544W        W43953   8.863  25.585  12.993
77545W        W43954  26.570  39.912   3.833
77546W        W43955  38.959  21.635   1.810
77547W        W43956   9.712  19.642  11.564
77548W        W43957   5.419  37.013  14.658
77549W        W43958   3.932  23.763   3.134
77550W        W43959  11.207  30.042  12.775
77551W        W43960  24.544  17.469   0.472
77552W        W43961  25.010   6.715  14.821
77553W        W43962   6.906  20.420   2.038
77554W        W43963  42.842  33.674   3.867
77555W        W43964   3.251  26.270  14.337
77556W        W43965  14.393  29.227   1.513
77557W        W43966   8.357  21.068  11.786
77558W        W43967  23.904   3.384  12.575
77559W        W43968   9.939  42.898   2.638
77560W        W43969  11.299  30.763   4.495
77561W        W43970   9.603  40.086  13.840
77562W        W43971  29.098  10.917   3.135
77563W        W43972  43.766  30.887   4.552
77564W        W43973   7.179  28.344   2.308
77565W        W43974  29.517  23.239  12.541
77566W        W43975  14.584  34.059  10.458
77567W        W43976   6.101   9.167   0.942
77568W        W43977  28.494  23.153   0.379
77569W        W43978   9.751  14.273   1.401
77570W        W43979  29.651  28.913   2.060
77571W        W43980   3.243   8.764  10.786
77572W        W43981  24.442  27.415  12.053
77573W        W43982  42.563  24.245  12.967
77574W        W43983  32.999   8.633   3.739
77575W        W43984  18.406  22.736  12.344
77576W        W43985  37.840  35.789  10.325
77577W        W43986   6.965  14.814   1.299
77578W        W43987  20.648   6.177   2.474
77579W        W43988   4.171   4.458   1.162
77580W        W43989  13.550  11.298   3.187
77581W        W43990   8.653  22.281  12.915
77582W        W43991   4.689   7.159   3.711
77583W        W43992  34.933  36.423   2.703
77584W        W43993  43.833  14.709   4.605
77585W        W43994  41.824  10.647   2.302
77586W        W43995  26.064  32.399   1.861
77587W        W43996  24.311  31.757  14.759
77588W        W43997  35.391   1.983   1.892
77589W        W43998  21.167  35.502   1.611
77590W        W43999   1.384  21.604  13.427
77591W        W44000  21.811   7.374  13.020
77592W        W44001   1.470   2.825   2.114
77593W        W44002  34.530  14.309   1.382
77594W        W44003  18.622  12.949  13.447
77595W        W44004   1.968   2.182  14.096
77596W        W44005  28.040  24.714  14.050
77597W        W44006   8.717  26.120   0.397
77598W        W44007  20.286   6.359  10.682
77599W        W44008  29.353  26.623  11.828
77600W        W44009  11.263  39.768  12.877
77601W        W44010  22.627  18.663   1.562
77602W        W44011  24.522   9.238  14.322
77603W        W44012  34.050  14.292   2.315
77604W        W44013  14.079  20.815   1.666
77605W        W44014   6.896  10.644  12.976
77606W        W44015  20.886  29.431  14.713
77607W        W44016  22.022  14.058   4.120
77608W        W44017  39.056  15.866  14.722
77609W        W44018   8.463  41.509  12.637
77610W        W44019  31.622   1.665   2.007
77611W        W44020  22.534  44.491  14.487
77612W        W44021  34.385  37.498   3.393
77613W        W44022  31.511  29.993  14.580
77614W        W44023  35.235  23.143  14.438
77615W        W44024  28.343  35.456   3.239
77616W        W44025  23.062   3.540   4.898
77617W        W44026  25.216   0.930  14.974
77618W        W44027  25.028  31.939   3.228
77619W        W44028  44.771  32.128   1.820
77620W        W44029  20.131  30.412   1.438
77621W        W44030   8.111  32.914   9.748
77622W        W44031   5.415  16.022   3.215
77623W        W44032   1.830  14.310   1.837
77624W        W44033  19.641   1.872   3.911
77625W        W44034  33.581  40.428  11.072
77626W        W44035  23.261   7.695   4.523
77627W        W44036  44.313   4.233  13.544
77628W        W44037  43.371   4.333  14.363
77629W        W44038  24.192   9.259   4.005
77630W        W44039   7.774  23.300   0.912
77631W        W44040  25.398   2.994  12.070
77632W        W44041   3.427   7.453  11.059
77633W        W44042  24.547  13.727   3.211
77634W        W44043  19.138   1.424   3.147
77635W        W44044  27.658  28.187   4.221
77636W        W44045  37.864  35.077  12.844
77637W        W44046  43.440  18.021  13.147
77638W        W44047   2.858  27.483   0.453
77639W        W44048  13.618  15.006  11.107
77640W        W44049  31.381   7.411  12.782
77641W        W44050  37.286  13.045  12.625
77642W        W44051  30.015  20.189  14.562
77643W        W44052  23.707  30.771   4.588
77644W        W44053  10.162  11.022   4.664
77645W        W44054  36.551  24.672   2.921
77646W        W44055  25.350  12.917   2.983
77647W        W44056   1.037   4.313   3.284
77648W        W44057  39.849  43.363  14.862
77649W        W44058  20.835  20.990  14.551
77650W        W44059  23.702  39.051  13.474
77651W        W44060   3.178   6.284   4.475
77652W        W44061  19.016  33.000  14.416
77653W        W44062  41.182  23.775   4.570
77654W        W44063  30.172  12.572   3.158
77655W        W44064  14.875   5.410   1.928
77656W        W44065   8.796   8.667  11.039
77657W        W44066  31.834  38.774   4.837
77658W        W44067  32.452   2.504  14.511
77659W        W44068  28.010  13.099   1.541
77660W        W44069   2.325  28.892   1.436
77661W        W44070  30.643  18.191  11.504
77662W        W44071   2.251  11.344   4.166
77663W        W44072   9.067  17.504   2.375
77664W        W44073  37.289  29.561  12.048
77665W        W44074  11.891   6.810   2.496
77666W        W44075  40.015  35.066   4.354
77667W        W44076  41.677   5.962   0.238
77668W        W44077  19.128  11.178  13.368
77669W        W44078   4.770  28.008  13.031
77670W        W44079   6.185  17.574   4.518
77671W        W44080   2.332  12.645  14.304
77672W        W44081  21.247   2.124   2.691
77673W        W44082  23.100  12.596  11.117
77674W        W44083  12.307  13.969  13.956
77675W        W44084  41.776  28.668  13.950
77676W        W44085  43.804  25.018  11.946
77677W        W44086  33.021  37.353   1.241
77678W        W44087  18.644  18.170  13.770
77679W        W44088  28.416  28.681  10.644
77680W        W44089  16.314  34.484   2.808
77681W        W44090   2.840   1.440   1.198
77682W        W44091   7.580  25.571   0.959
77683W        W44092   3.179  20.542  14.464
77684W        W44093   7.490  20.533  11.065
77685W        W44094  40.818  41.396   2.022
77686W        W44095  42.754  21.223  13.825
77687W        W44096  21.406  14.994  13.360
77688W        W44097  27.933  41.979   1.090
77689W        W44098  14.867   5.685  14.850
77690W        W44099  35.146  33.980   0.810
77691W        W44100   0.868  42.357   1.728
77692W        W44101  31.025  33.177   1.258
77693W        W44102   1.996   3.301   3.712
77694W        W44103  21.156  32.492   1.235
77695W        W44104  24.658  15.786  10.629
77696W        W44105  16.169   4.286   4.746
77697W        W44106  26.174  21.009   1.451
77698W        W44107  26.955  20.241   2.336
77699W        W44108  13.638  41.822  11.601
77700W        W44109  10.404  33.568  14.260
77701W        W44110  29.135  32.017   2.636
77702W        W44111   7.384  17.131   1.710
77703W        W44112  14.693   0.697   5.121
77704W        W44113  16.739   8.408  11.951
77705W        W44114  31.576  30.881   1.362
77706W        W44115  23.046  13.876   4.136
77707W        W44116  24.173  38.637  11.738
77708W        W44117  33.517  38.494  12.651
77709W        W44118   5.732  10.928   2.322
77710W        W44119  22.924  18.682   4.942
77711W        W44120   4.661   9.775   3.938
77712W        W44121  29.652   1.549   3.286
77713W        W44122   3.883  41.862  14.993
77714W        W44123   3.075   6.305   3.784
77715W        W44124  17.308  14.185  11.165
77716W        W44125   0.914  34.524  13.741
77717W        W44126   0.034  35.075  13.785
77718W        W44127  25.488   9.383  13.256
77719W        W44128  12.185  10.929  13.465
77720W        W44129  28.597  40.288  11.125
77721W        W44130   2.860   9.378   1.985
77722W        W44131  33.139  12.772   2.318
77723W        W44132  25.157   2.636   4.090
77724W        W44133  34.569  44.980   0.491
77725W        W44134  19.832  33.050   1.790
77726W        W44135  40.411  43.685   2.668
77727W        W44136  34.260  30.734  11.105
77728W        W44137   6.247  27.310  10.464
77729W        W44138   7.842  28.079  14.316
77730W        W44139  30.418  32.698   1.859
77731W        W44140  30.656  39.426   4.508
77732W        W44141  15.240   2.995  13.543
77733W        W44142  11.720  25.308  12.078
77734W        W44143   7.858  44.535  11.175
77735W        W44144  27.193  38.964   4.258
77736W        W44145   8.928  23.005   1.931
77737W        W44146   7.674  30.959  11.355
77738W        W44147  31.781  28.538  12.994
77739W        W44148  37.435  36.262  11.512
77740W        W44149   7.564  43.741   2.663
77741W        W44150  36.058  26.888   1.273
77742W        W44151   9.302  11.439   0.820
77743W        W44152  31.786  18.198  13.103
77744W        W44153   7.656   5.748   2.254
77745W        W44154  34.862  21.328  13.500
77746W        W44155  10.521  23.596  12.934
77747W        W44156  41.019  36.643   4.167
77748W        W44157   4.844   3.543  11.951
77749W        W44158  36.407  16.328   2.455
77750W        W44159   0.235  22.645   4.340
77751W        W44160  31.721  26.973  11.133
77752W        W44161  18.683  43.055  14.529
77753W        W44162   8.942  27.377   3.154
77754W        W44163  16.348  27.373  10.482
77755W        W44164  13.252  18.584  12.116
77756W        W44165   1.943  39.868   2.456
77757W        W44166   8.305  28.482   3.105
77758W        W44167  43.385  40.996   1.939
77759W        W44168   5.549  24.810   1.859
77760W        W44169  13.572  39.117  10.343
77761W        W44170  31.033  12.324   2.784
77762W        W44171   9.837  40.349   1.612
77763W        W44172  33.471  34.128   2.897
77764W        W44173   1.295  16.320  10.700
77765W        W44174  16.452   3.773  11.668
77766W        W44175   0.483  39.373   3.926
77767W        W44176   3.531  20.372  11.249
77768W        W44177  15.100  29.111  13.327
77769W        W44178  11.839   0.556  14.758
77770W        W44179  39.575   0.807  14.707
77771W        W44180  24.583  30.207   1.221
77772W        W44181  33.007  23.637  12.939
77773W        W44182  33.979  42.979   4.584
77774W        W44183  25.701  20.900   2.817
77775W        W44184   4.705  27.007   3.740
77776W        W44185  44.794  19.013  10.698
77777W        W44186  28.437  11.673   4.987
77778W        W44187  19.480  40.436   0.020
77779W        W44188  31.988   8.953   1.184
77780W        W44189  36.470  23.231  12.976
77781W        W44190  34.371  37.920  11.806
77782W        W44191  30.368  30.688   3.836
77783W        W44192  22.314  36.909   2.923
77784W        W44193  15.771  22.099   2.876
77785W        W44194   6.489  13.572   1.840
77786W        W44195  28.665  26.650   4.680
77787W        W44196   6.716   5.687  12.914
77788W        W44197  29.184  44.269  13.065
77789W        W44198  34.425  19.124  12.591
77790W        W44199   2.425  38.842   4.096
77791W        W44200  15.729  33.256   5.132
77792W        W44201  41.445  38.340   2.346
77793W        W44202  27.984  37.005  13.109
77794W        W44203  15.911  25.074   3.201
77795W        W44204  13.565   1.961   1.694
77796W        W44205  11.249  30.626  14.120
77797W        W44206   1.996  21.442   2.629
77798W        W44207   3.954  14.910   1.858
77799W        W44208  32.215  38.375   0.735
77800W        W44209  37.215   4.282   4.138
77801W        W44210  19.302  28.162  13.509
77802W        W44211   0.795   7.971  11.435
77803W        W44212  16.872  10.063   0.013
77804W        W44213  18.717  11.998  10.732
77805W        W44214  42.208  31.519   2.098
77806W        W44215  44.758  39.405  12.594
77807W        W44216  24.647  12.299   4.112
77808W        W44217   4.886  10.945  13.126
77809W        W44218  33.040  30.900  10.771
77810W        W44219   0.511   3.899  13.799
77811W        W44220  33.201  29.405  10.883
77812W        W44221  36.498   3.642  13.026
77813W        W44222   9.814  31.601   4.185
77814W        W44223  24.698   3.886   0.816
77815W        W44224  24.078  40.047  14.824
77816W        W44225  34.476  38.154  10.562
77817W        W44226  27.463   8.997  10.811
77818W        W44227  39.006  19.745  12.878
77819W        W44228  41.371  44.852   3.736
77820W        W44229  44.732  38.311  14.288
77821W        W44230  42.266  44.863   3.740
77822W        W44231  35.041  37.028   4.236
77823W        W44232   2.908  21.778   0.209
77824W        W44233   8.869  39.242   1.920
77825W        W44234   8.691  19.175   0.749
77826W        W44235   6.580  39.049  14.523
77827W        W44236  38.674   4.749   0.268
77828W        W44237  41.238   3.567  11.673
77829W        W44238  21.784  24.368   4.036
77830W        W44239  42.779  43.581  11.988
77831W        W44240  17.287  36.593  13.291
77832W        W44241  43.770   8.092   5.044
77833W        W44242  42.909   4.286   2.429
77834W        W44243  26.542  34.942  13.539
77835W        W44244  27.877  22.104  14.866
77836W        W44245  19.028  21.981   3.848
77837W        W44246  30.177  24.535   3.806
77838W        W44247  31.835   8.151  12.724
77839W        W44248  22.633  33.887  12.932
77840W        W44249  36.284  28.607  12.414
77841W        W44250   4.749  12.201  10.641
77842W        W44251  23.633  17.985  13.599
77843W        W44252  22.591  10.867   3.863
77844W        W44253  33.964  44.915   4.635
77845W        W44254  29.025  32.543   1.339
77846W        W44255   7.646   7.766  10.794
77847W        W44256  12.210   8.976   1.840
77848W        W44257  15.219   5.115   4.056
77849W        W44258   0.161   8.384   0.304
77850W        W44259   6.617  27.827   0.957
77851W        W44260   6.527   1.264   4.228
77852W        W44261   4.820  13.812  10.662
77853W        W44262  36.986   0.508  12.960
77854W        W44263  24.330  42.987   1.347
77855W        W44264   6.417  40.018   2.365
77856W        W44265  40.484  19.777  11.411
77857W        W44266  29.679  36.068  13.383
77858W        W44267  40.678   5.376   2.951
77859W        W44268  35.110  15.168   1.989
77860W        W44269   9.025  35.927   2.026
77861W        W44270  21.017  12.533  11.600
77862W        W44271  29.090  40.247   4.354
77863W        W44272  28.986  21.522   0.353
77864W        W44273  43.874  13.480  11.668
77865W        W44274  16.732  18.692   1.442
77866W        W44275  10.474   2.715   3.761
77867W        W44276  20.963   9.500   0.238
77868W        W44277  16.144   8.620   3.235
77869W        W44278  21.577  31.048  13.116
77870W        W44279  31.204  16.811  14.898
77871W        W44280  43.929  21.578   0.396
77872W        W44281  25.086  23.251   1.760
77873W        W44282  38.048  22.231   4.908
77874W        W44283   0.938  22.597  12.934
77875W        W44284   3.513  19.626  12.175
77876W        W44285   1.663  43.941   3.258
77877W        W44286  40.024  25.108   3.116
77878W        W44287  13.309  42.744   0.331
77879W        W44288  11.178  42.465   1.397
77880W        W44289   3.903  24.382  14.536
77881W        W44290  29.676   6.997  12.464
77882W        W44291  35.341   5.954  12.429
77883W        W44292  24.260  38.159   0.027
77884W        W44293  10.751  38.040  11.604
77885W        W44294   7.414  41.949  11.108
77886W        W44295  18.011  43.019   0.317
77887W        W44296  29.933  40.376  11.630
77888W        W44297   7.425  17.382  13.466
77889W        W44298  40.488  15.849  14.898
77890W        W44299   8.684  44.716   2.641
77891W        W44300   1.797   0.264  11.872
77892W        W44301   3.352  23.795  10.197
77893W        W44302  28.101  24.428   2.765
77894W        W44303  20.159  29.645   3.619
77895W        W44304  40.502  22.194  10.240
77896W        W44305  44.474  41.867  13.791
77897W        W44306   2.490  10.089   0.421
77898W        W44307  11.941  37.249   5.491
77899W        W44308  15.447   7.365  12.907
77900W        W44309  30.925  18.825   0.704
77901W        W44310  42.548  28.007   2.296
77902W        W44311  42.787  21.630   1.148
77903W        W44312   8.604  33.049  14.360
77904W        W44313  13.635  27.765   3.067
77905W        W44314  34.797  28.303  12.486
77906W        W44315   6.893   4.678   4.567
77907W        W44316  30.366   2.288   4.531
77908W        W44317  16.770  35.602  11.935
77909W        W44318  15.823  31.620  13.514
77910W        W44319  31.154  44.708  13.998
77911W        W44320  31.075  14.695  12.392
77912W        W44321  23.256  31.183   1.830
77913W        W44322  38.253   3.481   2.294
77914W        W44323  23.991   6.340  12.982
77915W        W44324  33.857  23.015  14.719
77916W        W44325  30.018   6.495  13.006
77917W        W44326  13.382  33.354  11.321
77918W        W44327  26.984  31.143   4.762
77919W        W44328  15.232  15.240  14.557
77920W        W44329  22.041  36.166   1.740
77921W        W44330  20.675  17.650   1.187
77922W        W44331  28.729  14.245   4.059
77923W        W44332  37.922   8.218   2.808
77924W        W44333  23.469  24.502  11.944
77925W        W44334   6.765  38.953   0.577
77926W        W44335  21.002  20.392   0.905
77927W        W44336   3.255  26.026   0.850
77928W        W44337  11.592  34.336   1.737
77929W        W44338  26.973  25.246   4.456
77930W        W44339  15.154  38.307   0.383
77931W        W44340  12.852  38.335   1.824
77932W        W44341  35.585   1.237  11.088
77933W        W44342   5.784  41.444   1.724
77934W        W44343  25.109  19.641   4.992
77935W        W44344  28.621   0.963  10.512
77936W        W44345   0.240  27.760  13.986
77937W        W44346  24.300  27.101   2.415
77938W        W44347   2.388  36.481   0.278
77939W        W44348   7.666  44.523  14.752
77940W        W44349  17.125  39.991  13.645
77941W        W44350  14.477   1.297  11.389
77942W        W44351  30.180  40.449  12.989
77943W        W44352  37.096  29.232   1.790
77944W        W44353   1.105  18.331  11.588
77945W        W44354  43.449  21.007   5.030
77946W        W44355  38.890   2.343  11.975
77947W        W44356  42.577   8.609   0.727
77948W        W44357  31.818  39.285  14.831
77949W        W44358  31.919  33.567  14.041
77950W        W44359  31.319  17.261   3.141
77951W        W44360  36.111  40.997  10.572
77952W        W44361  18.778   2.794   2.357
77953W        W44362  44.275  15.684  14.835
77954W        W44363  11.215  19.558   3.683
77955W        W44364   1.357  20.448   1.026
77956W        W44365  22.214  10.197   4.810
77957W        W44366  42.754   1.232  12.631
77958W        W44367  36.345  11.307   2.165
77959W        W44368  21.700  12.511   2.512
77960W        W44369  34.980  39.754   3.232
77961W        W44370  35.877  36.629   2.855
77962W        W44371   3.721  14.667   2.256
77963W        W44372  37.935   6.638   2.820
77964W        W44373  23.643  18.379  13.164
77965W        W44374  14.861   2.360  13.010
77966W        W44375  12.371  15.260   3.236
77967W        W44376  25.014  42.296  11.596
77968W        W44377  20.570   4.958   4.090
77969W        W44378  34.081  43.571   2.425
77970W        W44379   7.654  11.386   2.791
77971W        W44380  27.454  13.382   0.683
77972W        W44381  27.391  41.293  14.357
77973W        W44382  36.290   7.898  11.519
77974W        W44383  13.744  40.027  12.651
77975W        W44384  39.368   5.003  13.360
77976W        W44385  25.636  14.296  14.796
77977W        W44386  26.942   1.186   0.432
77978W        W44387  44.405  42.097   3.078
77979W        W44388  38.923  11.551   4.649
77980W        W44389  14.618  38.549   2.148
77981W        W44390  19.992  25.371  12.529
77982W        W44391  38.110  32.063   3.636
77983W        W44392  23.242  32.287  11.193
77984W        W44393  32.149  21.219  11.225
77985W        W44394  24.016  23.594  14.557
77986W        W44395   4.171   8.370  11.993
77987W        W44396  24.607   6.447  11.281
77988W        W44397  12.915  39.935   1.321
77989W        W44398  22.241  18.612  11.261
77990W        W44399  15.300  16.555  12.403
77991W        W44400  40.727  36.379   4.536
77992W        W44401  42.452  42.150   3.788
77993W        W44402  12.691  33.830  10.700
77994W        W44403   2.071  44.438  12.087
77995W        W44404  38.783  25.446   3.202
77996W        W44405  11.824   9.577  12.492
77997W        W44406  38.610  25.687  13.909
77998W        W44407  27.753  12.675  13.838
77999W        W44408   8.640  21.138   2.478
78000W        W44409  13.242   2.611  12.918
78001W        W44410  15.083  30.630   0.044
78002W        W44411   9.593  43.998  13.520
78003W        W44412  43.956  44.487  11.086
78004W        W44413  40.510   8.495  13.797
78005W        W44414  29.728  40.643  14.341
78006W        W44415  34.152  13.108   3.117
78007W        W44416  11.818  22.262  14.861
78008W        W44417   6.321  32.797   3.211
78009W        W44418  30.244   4.425  10.598
78010W        W44419   7.411  33.650   3.309
78011W        W44420  21.130  30.930  11.068
78012W        W44421  11.634  33.480  14.819
78013W        W44422  32.335  24.430   0.860
78014W        W44423   6.780  34.048   2.728
78015W        W44424  33.025   2.198   1.676
78016W        W44425  13.807  35.541  13.051
78017W        W44426  38.207   5.079  14.252
78018W        W44427  35.980   3.448   4.387
78019W        W44428   7.294   1.315   2.776
78020W        W44429  16.626  10.168   0.481
78021W        W44430  13.344  21.452  12.571
78022W        W44431  12.276  19.395   4.745
78023W        W44432  31.864  29.143   1.019
78024W        W44433  39.091  37.524   0.192
78025W        W44434  30.067  31.476   1.459
78026W        W44435   7.614  27.828  11.741
78027W        W44436  24.252   3.048   1.244
78028W        W44437  14.272  18.468  11.100
78029W        W44438  13.737  27.682  13.073
78030W        W44439   8.832  39.628  13.645
78031W        W44440  29.572  29.552  11.628
78032W        W44441  43.859   9.401   1.721
78033W        W44442  24.661  31.219   1.253
78034W        W44443  18.123  32.697   4.177
78035W        W44444  37.407  28.972  14.907
78036W        W44445  36.915  33.311   2.294
78037W        W44446  30.160   5.111   1.326
78038W        W44447  26.409  17.581  13.742
78039W        W44448  11.178  32.500   1.495
78040W        W44449  20.865   9.761   0.689
78041W        W44450   0.987  25.257   0.837
78042W        W44451  12.174  18.606  11.522
78043W        W44452  20.682  41.575   3.649
78044W        W44453  30.030  24.022   2.629
78045W        W44454   1.341  25.194   0.288
78046W        W44455  24.755  30.482   2.785
78047W        W44456  43.045  32.388  11.003
78048W        W44457  39.107  41.021  12.386
78049W        W44458  41.911  42.680   3.471
78050W        W44459  16.488   7.211  12.072
78051W        W44460   4.526  38.346   2.607
78052W        W44461   1.364  38.014  11.921
78053W        W44462  44.661  32.205   3.738
78054W        W44463  40.001   1.469   1.753
78055W        W44464  32.847  23.039   0.054
78056W        W44465  28.612  27.176  14.874
78057W        W44466  24.716  37.829   1.271
78058W        W44467  28.149  37.434  11.051
78059W        W44468  14.992   3.243  13.948
78060W        W44469  16.971  10.345  13.885
78061W        W44470   5.784   8.263  11.480
78062W        W44471  32.987  23.548   1.811
78063W        W44472  25.385  44.348  12.466
78064W        W44473  26.688  32.066   1.428
78065W        W44474  20.793  10.843  12.484
78066W        W44475   6.363  32.041   2.562
78067W        W44476  32.846   9.833  13.263
78068W        W44477   4.010  29.041  13.512
78069W        W44478  21.772  22.948   4.424
78070W        W44479  33.157   4.908   1.839
78071W        W44480  22.971   1.917   4.886
78072W        W44481  18.378  13.667   1.242
78073W        W44482  22.977   9.893   0.008
78074W        W44483   7.156  22.838   5.217
78075W        W44484  22.173  19.034  14.007
78076W        W44485  32.615  15.839  12.327
78077W        W44486  17.807   0.445   2.294
78078W        W44487  30.197  29.164  13.578
78079W        W44488  33.383   0.203  11.686
78080W        W44489  29.753  18.394   4.292
78081W        W44490  11.285  26.213   2.818
78082W        W44491  10.816  24.175  13.502
78083W        W44492   9.721  10.432  14.069
78084W        W44493   2.382   8.706   2.953
78085W        W44494   9.221  38.319   3.277
78086W        W44495  30.134  36.483  12.516
78087W        W44496   4.241  20.128   2.873
78088W        W44497  11.679  40.001   0.950
78089W        W44498  14.202  16.785   1.741
78090W        W44499   8.269  36.809   0.742
78091W        W44500  28.946  30.063   1.286
78092W        W44501  38.031  39.813  10.409
78093W        W44502  24.754  26.011  10.448
78094W        W44503  36.892  38.930   2.966
78095W        W44504   2.230  17.325   1.839
78096W        W44505  12.382  13.890   4.063
78097W        W44506  22.055  20.965   5.063
78098W        W44507  40.512  28.192  12.238
78099W        W44508  28.969   1.786   4.473
78100W        W44509  12.080  16.825   0.283
78101W        W44510   5.660  33.621   0.420
78102W        W44511  31.639  17.258   1.773
78103W        W44512  25.641   9.103  11.956
78104W        W44513  12.649  12.097   0.332
78105W        W44514   2.484   1.506   4.612
78106W        W44515  31.885  24.039  14.275
78107W        W44516  33.414  16.173   4.300
78108W        W44517  13.482  35.321   0.308
78109W        W44518   0.061  37.510  12.958
78110W        W44519  32.512  16.650   4.179
78111W        W44520  20.720   6.663  13.732
78112W        W44521   8.475  34.013   4.269
78113W        W44522  37.072  12.534  12.695
78114W        W44523  18.356   7.426   4.560
78115W        W44524  32.321   1.277   9.808
78116W        W44525  41.299  22.970   2.641
78117W        W44526   2.174   9.425  11.098
78118W        W44527   8.839  23.800  11.529
78119W        W44528  39.414   7.820  12.339
78120W        W44529  41.148  37.260  13.478
78121W        W44530  11.783  24.234  12.059
78122W        W44531  13.774   5.643   2.682
78123W        W44532  28.655  36.798   0.690
78124W        W44533   1.711   8.000  14.525
78125W        W44534  37.395  14.572   2.452
78126W        W44535  16.585  12.836   0.649
78127W        W44536  16.064  35.262  11.551
78128W        W44537   0.725  20.600   2.709
78129W        W44538  15.322  29.453   0.472
78130W        W44539  10.924   0.786  12.482
78131W        W44540  18.492  38.323   5.055
78132W        W44541  19.587  12.366  13.540
78133W        W44542  24.590  14.404   2.571
78134W        W44543   7.173  43.909  12.325
78135W        W44544  15.494  16.671  12.937
78136W        W44545  11.369  17.243   2.472
78137W        W44546   7.373  26.647  12.462
78138W        W44547  12.959   1.443  10.192
78139W        W44548   1.544  15.575  13.490
78140W        W44549  30.087  41.753  11.122
78141W        W44550  12.596  12.200   3.401
78142W        W44551   5.684  42.414   1.650
78143W        W44552  28.403  29.466  11.055
78144W        W44553   5.904   7.204  11.643
78145W        W44554  41.803   3.609   0.935
78146W        W44555  11.273   6.295  13.869
78147W        W44556  12.734  43.992   2.168
78148W        W44557  41.282  42.700  12.567
78149W        W44558  44.401   0.164   0.334
78150W        W44559   2.304  15.135   4.673
78151W        W44560   9.659  32.036   3.636
78152W        W44561  22.175  16.629   0.409
78153W        W44562  23.519   1.277   0.846
78154W        W44563  17.406  30.854   3.272
78155W        W44564  22.158  23.775   3.276
78156W        W44565  31.679  35.909   4.586
78157W        W44566  33.811  23.281  11.125
78158W        W44567   1.491   0.931  13.334
78159W        W44568   7.853  16.090  10.082
78160W        W44569  38.648   5.293   2.790
78161W        W44570  37.636  28.500  14.983
78162W        W44571   9.844  28.649   1.499
78163W        W44572  15.004  40.265   3.572
78164W        W44573  44.784  14.238  11.653
78165W        W44574  14.315   3.924  10.556
78166W        W44575   6.919   2.476  13.545
78167W        W44576   1.918   0.233   3.183
78168W        W44577  37.786  16.938   3.496
78169W        W44578  44.893  34.891   4.692
78170W        W44579  27.355   7.895  11.208
78171W        W44580   8.743  33.344  13.770
78172W        W44581  41.403  34.402  13.492
78173W        W44582  31.403   9.421  14.912
78174W        W44583  35.910  44.399  12.132
78175W        W44584  15.053  43.990  14.251
78176W        W44585   9.568  18.052   1.960
78177W        W44586  36.422  16.969   4.168
78178W        W44587  40.531   5.398  14.998
78179W        W44588   2.766   1.358  12.242
78180W        W44589  26.746  39.424  14.372
78181W        W44590  31.284  40.052   4.439
78182W        W44591   5.863  25.883  11.680
78183W        W44592  33.246   7.185   3.206
78184W        W44593  25.687  20.007   1.804
78185W        W44594  36.984   4.644  10.719
78186W        W44595  13.544  24.061  14.387
78187W        W44596  38.778   5.882  11.493
78188W        W44597  26.447  31.443   1.961
78189W        W44598  40.926   0.490   0.274
78190W        W44599  38.049   3.184   0.325
78191W        W44600  16.620  22.147  10.530
78192W        W44601  42.149  15.763  10.327
78193W        W44602  41.371  13.169  10.757
78194W        W44603  14.064  10.762   3.662
78195W        W44604  13.825  10.834  14.371
78196W        W44605   2.686  31.660   4.602
78197W        W44606   2.447  24.616  10.672
78198W        W44607  39.876  18.831  14.108
78199W        W44608  13.615  38.530   1.325
78200W        W44609   5.787  18.404   2.258
78201W        W44610  10.288  36.592  12.883
78202W        W44611   0.163   2.413  11.125
78203W        W44612   1.832  18.271   0.332
78204W        W44613  20.191  31.386   1.704
78205W        W44614  34.933  36.164   1.363
78206W        W44615  26.452  13.587   3.477
78207W        W44616  36.152  34.466  11.181
78208W        W44617   6.066  34.855   3.302
78209W        W44618   5.246  39.662  14.250
78210W        W44619  15.325  30.494  14.338
78211W        W44620  10.901   4.744  14.442
78212W        W44621  20.594  17.052   0.419
78213W        W44622  12.964  23.198  14.295
78214W        W44623  40.747  10.946   4.354
78215W        W44624  26.135   3.231   1.686
78216W        W44625  16.145  38.973   2.228
78217W        W44626  25.550  42.763  13.438
78218W        W44627  40.447  37.114  13.912
78219W        W44628  36.821  32.438  14.838
78220W        W44629   6.279  22.613  13.003
78221W        W44630  20.442  40.628   2.347
78222W        W44631  36.027  31.490   4.492
78223W        W44632   8.899  17.945   1.028
78224W        W44633  17.171   7.859   4.046
78225W        W44634   6.374  20.660  13.420
78226W        W44635  23.959  30.925   3.335
78227W        W44636  32.283  28.945  14.196
78228W        W44637  25.496  24.057  14.860
78229W        W44638  29.101   6.206   4.683
78230W        W44639  15.841  28.693  14.310
78231W        W44640   6.811  38.399  12.100
78232W        W44641  26.730  38.711  13.889
78233W        W44642   8.670  11.610   3.371
78234W        W44643  18.527  13.609   3.638
78235W        W44644  37.442   9.632  14.364
78236W        W44645   3.703  42.089   3.879
78237W        W44646  12.757  38.062   0.398
78238W        W44647  30.649   9.581   4.846
78239W        W44648  41.185  43.772   0.391
78240W        W44649  36.909  18.209  12.554
78241W        W44650  39.999  41.334  11.026
78242W        W44651  43.554  30.143  12.133
78243W        W44652  13.703  22.371   4.509
78244W        W44653  11.018  24.465  12.970
78245W        W44654   1.250   1.386  13.296
78246W        W44655  38.486  27.499   1.813
78247W        W44656  39.326  23.632  14.604
78248W        W44657  19.558  36.747   3.148
78249W        W44658  39.804  34.057  13.417
78250W        W44659  40.369  37.743  10.107
78251W        W44660  16.292  23.752   2.862
78252W        W44661   1.579   1.493  11.169
78253W        W44662  11.811  37.236  11.951
78254W        W44663  38.784  43.790   1.964
78255W        W44664  16.569  16.229  12.403
78256W        W44665  37.238  29.606  10.962
78257W        W44666   4.451  28.475  10.929
78258W        W44667  15.110  17.160   3.773
78259W        W44668   2.264  37.949  13.875
78260W        W44669  39.338  13.604   3.756
78261W        W44670  11.461  18.236   2.231
78262W        W44671   7.829  20.188   3.796
78263W        W44672  42.783  18.719   1.624
78264W        W44673   1.175  39.447  12.543
78265W        W44674  40.072  12.766   0.099
78266W        W44675  15.712  12.137   4.988
78267W        W44676  26.014  26.715   0.969
78268W        W44677  24.809   2.734   1.191
78269W        W44678  18.201  42.694  11.915
78270W        W44679  36.112  19.445   2.046
78271W        W44680   1.814  36.318  12.560
78272W        W44681  13.415   7.535   5.045
78273W        W44682   3.999  11.705  11.570
78274W        W44683  31.859  36.627   3.714
78275W        W44684  12.312  37.699  11.138
78276W        W44685  14.600  14.019  13.440
78277W        W44686  39.334  18.597  13.111
78278W        W44687  19.814  10.693  11.136
78279W        W44688  22.857  31.872  11.345
78280W        W44689   6.446  29.121  11.075
78281W        W44690  42.980  23.033  12.128
78282W        W44691  37.883   1.715  14.404
78283W        W44692  37.271  26.929  14.340
78284W        W44693  36.940   6.243  10.642
78285W        W44694   7.622   5.858   4.148
78286W        W44695  27.914  18.952  13.697
78287W        W44696  26.153  25.711  14.120
78288W        W44697  33.795   5.443  12.961
78289W        W44698  24.636  34.702   3.303
78290W        W44699  10.480  38.902  13.587
78291W        W44700  14.498  17.498   0.916
78292W        W44701   5.734  36.486  11.389
78293W        W44702  30.938  23.052   1.743
78294W        W44703  37.400   1.766   0.744
78295W        W44704  25.238  44.872   3.571
78296W        W44705  33.977  22.218   3.125
78297W        W44706  33.916   4.530  12.082
78298W        W44707  38.343  33.900   4.062
78299W        W44708  43.459  25.328  12.187
78300W        W44709  12.454  20.937   3.876
78301W        W44710  27.331  31.755   2.700
78302W        W44711  41.404   8.940   1.433
78303W        W44712   5.695  26.846   2.110
78304W        W44713  34.978   6.660   3.281
78305W        W44714  39.141  15.459   4.238
78306W        W44715  11.170  28.862  14.737
78307W        W44716  24.484  32.101  10.801
78308W        W44717  20.128  29.462   3.144
78309W        W44718  36.606  31.269   0.265
78310W        W44719  44.537   1.406   0.430
78311W        W44720  24.458   0.463  10.520
78312W        W44721   8.675  41.430   0.737
78313W        W44722  24.476  21.872  11.716
78314W        W44723  15.664  33.094  11.912
78315W        W44724  17.546   1.412  12.631
78316W        W44725  14.269  23.710   1.064
78317W        W44726   5.921  37.855  11.582
78318W        W44727   2.251   1.154  13.444
78319W        W44728  29.642  40.483   4.518
78320W        W44729   9.801   8.901   2.628
78321W        W44730  19.030   2.165   0.022
78322W        W44731  41.118  44.705   2.436
78323W        W44732  17.984  28.208   1.381
78324W        W44733   0.877   9.908  10.651
78325W        W44734  21.623  42.139  12.899
78326W        W44735   8.068   2.350  14.437
78327W        W44736  28.604  30.919  14.418
78328W        W44737  23.098  22.243  13.916
78329W        W44738  36.020  25.269   1.336
78330W        W44739  24.189  44.765   3.252
78331W        W44740  28.979  22.156   1.453
78332W        W44741  23.323  16.849  14.030
78333W        W44742  36.873  33.524  10.486
78334W        W44743  10.992  27.423   3.312
78335W        W44744  15.353  34.508   1.361
78336W        W44745  44.927   3.623   0.961
78337W        W44746  22.516  31.989   3.222
78338W        W44747   8.622  26.431   1.233
78339W        W44748  30.013  10.967  12.490
78340W        W44749   2.706   7.166   3.679
78341W        W44750  15.694   3.025   4.370
78342W        W44751  44.238  37.443  14.092
78343W        W44752  32.659   2.988   1.873
78344W        W44753   4.729  29.302  14.126
78345W        W44754   3.436   0.792  10.463
78346W        W44755  43.436  26.203  13.873
78347W        W44756  20.000  44.267  11.979
78348W        W44757  10.106  14.123  14.413
78349W        W44758  13.412  13.242   1.785
78350W        W44759   8.136  34.004  13.856
78351W        W44760  15.742  18.194  14.099
78352W        W44761   2.934  32.170  12.588
78353W        W44762  36.240  29.571   2.109
78354W        W44763  25.100   7.424  10.702
78355W        W44764  44.418  29.418   1.357
78356W        W44765  36.237  12.316   4.919
78357W        W44766  20.743  38.409  13.959
78358W        W44767  12.355  36.940   4.068
78359W        W44768  31.450   1.230   2.229
78360W        W44769  28.050  22.746  13.950
78361W        W44770   3.165  40.100   0.002
78362W        W44771  24.256  24.174   0.415
78363W        W44772  43.758  30.058  11.673
78364W        W44773  43.498  15.117   3.571
78365W        W44774   0.891  18.731  10.791
78366W        W44775  11.677  37.446   2.084
78367W        W44776  31.435  13.202   0.695
78368W        W44777   8.932  10.696   1.428
78369W        W44778  41.867   9.237  12.073
78370W        W44779  28.954   1.738  12.075
78371W        W44780  39.303   0.375  10.466
78372W        W44781  23.912  10.818   0.910
78373W        W44782   7.300  36.823  11.542
78374W        W44783  34.186  12.322  13.981
78375W        W44784   1.546  44.764   0.778
78376W        W44785  44.715   3.186   0.719
78377W        W44786  44.458  30.610  14.663
78378W        W44787  25.883  15.787  14.511
78379W        W44788  25.888  40.207  13.774
78380W        W44789  15.709  22.498   5.427
78381W        W44790  24.118  26.596  13.088
78382W        W44791  44.036  18.034  13.821
78383W        W44792  14.748  37.999   0.184
78384W        W44793   4.190  36.053   1.789
78385W        W44794  29.195  31.845   1.731
78386W        W44795  24.483  27.677   2.724
78387W        W44796   5.764   0.517   0.766
78388W        W44797  12.434  25.508  10.621
78389W        W44798  23.143  39.830  14.985
78390W        W44799  24.597  25.047  13.795
78391W        W44800  26.483   4.052  10.474
78392W        W44801   9.362  30.661   3.180
78393W        W44802  17.608  36.416   3.349
78394W        W44803  33.325  10.257   3.364
78395W        W44804  34.443  31.056   1.902
78396W        W44805  38.632  16.211  10.181
78397W        W44806  42.722  18.165  14.889
78398W        W44807   1.968   9.349  13.994
78399W        W44808  21.849   1.837  13.823
78400W        W44809  14.106  16.566   2.200
78401W        W44810   4.243  14.603  13.387
78402W        W44811   2.022  24.403  13.478
78403W        W44812   1.837   7.484  14.085
78404W        W44813  33.387  15.781  14.929
78405W        W44814  38.594  16.693  12.399
78406W        W44815   9.139   0.245  14.466
78407W        W44816  43.110  26.326  10.198
78408W        W44817  22.387   3.499   1.319
78409W        W44818  12.250  18.654   2.628
78410W        W44819  15.700  35.218   5.022
78411W        W44820   4.296  17.523  13.803
78412W        W44821  23.939   3.780  13.545
78413W        W44822  31.500  34.776  14.971
78414W        W44823   5.907  17.724  10.960
78415W        W44824  17.203  44.189  11.500
78416W        W44825  37.058   5.833   0.342
78417W        W44826  23.588   0.004  12.630
78418W        W44827  29.923  14.561  14.715
78419W        W44828  20.733   8.448  12.366
78420W        W44829  26.616  34.919  14.433
78421W        W44830  42.851  31.639   0.291
78422W        W44831  12.111  42.266   4.129
78423W        W44832  32.304   7.551   2.610
78424W        W44833  29.168  23.863   2.078
78425W        W44834  37.419  31.325  12.922
78426W        W44835   9.235  30.332   9.609
78427W        W44836  19.338  27.038  14.381
78428W        W44837  12.308  17.704  13.116
78429W        W44838  15.680  28.324  11.158
78430W        W44839   6.776  14.086  12.612
78431W        W44840  33.092  20.138   4.188
78432W        W44841  30.145  18.179   2.987
78433W        W44842   9.169   4.798  12.152
78434W        W44843   0.459   7.156  10.854
78435W        W44844  36.838  36.548   0.261
78436W        W44845  42.292  23.670  11.133
78437W        W44846  36.540  39.272  13.869
78438W        W44847   4.856  39.454   3.563
78439W        W44848  42.454  19.455  12.494
78440W        W44849  18.109  30.050  11.948
78441W        W44850  29.579  17.245   1.291
78442W        W44851  39.876  31.658   2.418
78443W        W44852  17.085   0.384   0.858
78444W        W44853  20.913   1.841  13.006
78445W        W44854  10.674  39.865  12.482
78446W        W44855  41.914   6.835   0.831
78447W        W44856  20.071  11.346   2.300
78448W        W44857  28.959  34.314  14.191
78449W        W44858  31.139   7.160  11.215
78450W        W44859  35.483  16.278  13.799
78451W        W44860  42.003  30.916  14.974
78452W        W44861  36.613  43.950  12.065
78453W        W44862  11.189  40.633   4.131
78454W        W44863  26.302  10.801   4.618
78455W        W44864  41.264   9.243  14.705
78456W        W44865  36.350  22.420  14.406
78457W        W44866  21.585   0.730   3.549
78458W        W44867  42.301  11.424  11.595
78459W        W44868   2.462  32.360  12.848
78460W        W44869  29.602   3.598   5.038
78461W        W44870  39.616  13.994  10.456
78462W        W44871   3.366  19.770  13.926
78463W        W44872  30.046   2.850  10.699
78464W        W44873  19.958  29.027   2.254
78465W        W44874  35.508  39.940   1.252
78466W        W44875   2.693  42.369  11.709
78467W        W44876  33.663  16.065  13.903
78468W        W44877  42.528   7.949  12.019
78469W        W44878   9.695  37.823   2.280
78470W        W44879  27.590  10.363   0.910
78471W        W44880  16.981   1.251   9.645
78472W        W44881  28.516  12.569   2.239
78473W        W44882  10.861   4.919   1.770
78474W        W44883  19.396  11.193  12.574
78475W        W44884  21.945  12.146  14.400
78476W        W44885  24.736  10.676   3.112
78477W        W44886  17.706  22.979  12.506
78478W        W44887  32.862  29.154  13.541
78479W        W44888  18.120  32.863  14.315
78480W        W44889   6.233  35.711  14.697
78481W        W44890  39.025   6.634   0.232
78482W        W44891  17.302  41.837  11.882
78483W        W44892  36.082  23.147  14.160
78484W        W44893  28.378  29.532  13.450
78485W        W44894  16.156  42.058  12.382
78486W        W44895  31.440  41.117   3.062
78487W        W44896   7.422  27.471   4.446
78488W        W44897  27.509  37.931   1.829
78489W        W44898  21.065   7.178  13.317
78490W        W44899  17.888  40.441   5.048
78491W        W44900  11.197  17.184  11.101
78492W        W44901  10.875  24.755  14.407
78493W        W44902  12.696  36.330   0.384
78494W        W44903  11.933  10.122   2.750
78495W        W44904  24.914  36.811  14.518
78496W        W44905   1.447  34.878  12.488
78497W        W44906  33.529   3.904   2.165
78498W        W44907  44.729  43.523  13.309
78499W        W44908   4.661   6.848  14.670
78500W        W44909  36.533  21.100   2.846
78501W        W44910   6.569  40.804  13.020
78502W        W44911  31.702  44.944   4.650
78503W        W44912   9.812  43.697  10.213
78504W        W44913  10.724  30.468   4.298
78505W        W44914  23.972   0.722   5.400
78506W        W44915  29.880   5.256   4.539
78507W        W44916  11.982  15.275  10.569
78508W        W44917  36.100  18.591   1.935
78509W        W44918  39.562  33.256  12.129
78510W        W44919  19.581   1.453   1.880
78511W        W44920  43.595  24.371  11.975
78512W        W44921  32.941  32.192   0.142
78513W        W44922   2.891  35.604   4.620
78514W        W44923  43.541  28.512  14.471
78515W        W44924  32.590   6.748  10.245
78516W        W44925  12.911  34.945   3.745
78517W        W44926  12.298  28.641  14.147
78518W        W44927  19.794  18.188   4.654
78519W        W44928   1.424  10.442  11.116
78520W        W44929  26.082  42.153  10.579
78521W        W44930   0.352   7.805   2.205
78522W        W44931   6.495   8.563   4.144
78523W        W44932   5.753  29.465   1.341
78524W        W44933  44.804  43.206   2.204
78525W        W44934  21.987  23.288  12.827
78526W        W44935   4.878  28.614  11.167
78527W        W44936  38.140  24.044   1.915
78528W        W44937   5.714  14.705  10.651
78529W        W44938   1.547   5.408  12.119
78530W        W44939   8.354  20.031   3.732
78531W        W44940  37.571  35.637   4.048
78532W        W44941  12.610  26.973   3.310
78533W        W44942  27.750  27.657   0.450
78534W        W44943  41.773  16.847  10.260
78535W        W44944   0.683  24.683   1.674
78536W        W44945   2.831  10.856   1.687
78537W        W44946  42.231  28.690   3.794
78538W        W44947  34.455  38.477  10.959
78539W        W44948  34.568  42.343   0.736
78540W        W44949  39.422  26.999  13.802
78541W        W44950   4.808  33.214   3.621
78542W        W44951   5.245  30.197   0.021
78543W        W44952  12.072   1.606   9.892
78544W        W44953  32.985  14.146  12.572
78545W        W44954  30.814  30.484   2.761
78546W        W44955   3.690  39.934  11.947
78547W        W44956   0.201   3.951  14.641
78548W        W44957   2.379   0.416  12.986
78549W        W44958  42.687  34.199  12.009
78550W        W44959   3.488  14.671  11.084
78551W        W44960  28.580  43.844  13.517
78552W        W44961  37.515   3.769   1.797
78553W        W44962  38.523  10.722  11.455
78554W        W44963  21.237  21.167   4.633
78555W        W44964  15.258  21.789  10.673
78556W        W44965  43.013   6.445   1.382
78557W        W44966  10.500   2.267   4.517
78558W        W44967  15.611  41.420   4.841
78559W        W44968  32.301   4.963   5.418
78560W        W44969   4.684  22.045   3.713
78561W        W44970  10.805   0.802   2.243
78562W        W44971  17.486  31.338   4.049
78563W        W44972  40.825  12.691   2.758
78564W        W44973  44.466   3.740  13.774
78565W        W44974  23.657  18.709  14.226
78566W        W44975  28.423  43.132   3.848
78567W        W44976  34.497  28.129  11.161
78568W        W44977  35.661   7.695   4.204
78569W        W44978  17.586  15.235  12.492
78570W        W44979  32.885  22.536  10.913
78571W        W44980   4.096  39.201  11.187
78572W        W44981  25.034  10.787  14.874
78573W        W44982  35.444  36.589  10.727
78574W        W44983  35.874   0.232   2.798
78575W        W44984  42.462  14.375  13.402
78576W        W44985  36.905  44.229  13.825
78577W        W44986   3.942  34.627  11.136
78578W        W44987  30.825  21.628  12.889
78579W        W44988   1.500  44.370   1.771
78580W        W44989   3.343  31.240  12.480
78581W        W44990  42.752   4.359  11.527
78582W        W44991  29.881   9.255   0.234
78583W        W44992  30.078  43.761   1.434
78584W        W44993  20.553  13.236  14.265
78585W        W44994  24.610  27.676   1.797
78586W        W44995  35.787  36.507  13.860
78587W        W44996  33.946  43.120   0.115
78588W        W44997  10.375  43.396  14.417
78589W        W44998   4.063  29.685  11.470
78590W        W44999  41.759   7.909  13.308
78591W        W45000  32.203   3.413  14.310
78592W        W45001  14.338  20.345   1.600
78593W        W45002   5.939  42.465   0.775
78594W        W45003  15.587  19.607   0.730
78595W        W45004  32.310   6.037  13.441
78596W        W45005  15.850  29.024   1.407
78597W        W45006  35.336  39.487   1.447
78598W        W45007  11.216  34.881  14.626
78599W        W45008  31.972  35.277  12.930
78600W        W45009  30.273  22.610  12.389
78601W        W45010  30.564  43.379  12.077
78602W        W45011  17.778   7.408   1.911
78603W        W45012  32.019  28.493  14.381
78604W        W45013  40.816   8.428   0.809
78605W        W45014  23.880  33.128   3.403
78606W        W45015  24.261  21.935  14.863
78607W        W45016  40.238  42.569  14.365
78608W        W45017  13.771  15.614  14.947
78609W        W45018  26.504  18.737   3.686
78610W        W45019  23.213   1.510   4.679
78611W        W45020  42.461  35.193  13.087
78612W        W45021   9.637  27.560   1.486
78613W        W45022  18.343  22.601   2.129
78614W        W45023  22.965  26.937  13.316
78615W        W45024  14.808   7.331   1.454
78616W        W45025   0.828  27.191  12.041
78617W        W45026  16.367  19.040   0.516
78618W        W45027   4.155  20.347   3.800
78619W        W45028  38.907  43.454   0.162
78620W        W45029  36.368   3.255   2.235
78621W        W45030  15.202  16.439   2.096
78622W        W45031   8.266  17.236   1.309
78623W        W45032  10.957  10.414   2.485
78624W        W45033   1.318  14.504   5.236
78625W        W45034  16.048  41.086  12.338
78626W        W45035  42.354  18.241  12.939
78627W        W45036  37.925  16.438  12.902
78628W        W45037  18.634  31.628   4.659
78629W        W45038  38.447  19.439  11.522
78630W        W45039  42.535   2.188   3.762
78631W        W45040  36.983  22.935   4.173
78632W        W45041  14.224  44.502  14.389
78633W        W45042  21.129  17.948  11.974
78634W        W45043  26.350  35.936  12.413
78635W        W45044  27.492  19.954   3.211
78636W        W45045  22.611   1.394  14.378
78637W        W45046  23.004   5.620  13.460
78638W        W45047  33.483  15.011   0.994
78639W        W45048  34.897  34.659  10.903
78640W        W45049  36.473  10.781   3.363
78641W        W45050  33.998  41.604  11.126
78642W        W45051  35.679  41.019   3.362
78643W        W45052   7.447  44.215   2.839
78644W        W45053  26.954   6.403   2.143
78645W        W45054  19.613   6.000  12.554
78646W        W45055  11.287  44.133   0.408
78647W        W45056   7.853  19.478   0.193
78648W        W45057  36.857  40.472   1.326
78649W        W45058  17.493   1.262   0.504
78650W        W45059  16.485  41.707   5.035
78651W        W45060   4.456  18.382  10.929
78652W        W45061  23.562   2.146   0.737
78653W        W45062  14.640   6.738  12.109
78654W        W45063  18.982   0.441   0.528
78655W        W45064  20.389   7.781  14.869
78656W        W45065  16.188  37.018   2.779
78657W        W45066  12.961  31.533   1.327
78658W        W45067  42.331  25.244   3.300
78659W        W45068  42.903  15.517   3.111
78660W        W45069  26.474  20.681  12.611
78661W        W45070  42.784  34.469   0.095
78662W        W45071  14.756  29.088   3.678
78663W        W45072   9.232   7.686  14.501
78664W        W45073   1.686   5.788  11.465
78665W        W45074  17.737  41.604  14.425
78666W        W45075  42.377  39.159   4.169
78667W        W45076  44.493   7.000  14.664
78668W        W45077  43.900  25.236  10.987
78669W        W45078   6.938  34.584  14.923
78670W        W45079   5.058  39.848   3.821
78671W        W45080  12.764  40.933   1.757
78672W        W45081   9.328  23.965  14.850
78673W        W45082  30.586  33.444   1.250
78674W        W45083  28.038   6.226  14.744
78675W        W45084  16.173  34.073  11.446
78676W        W45085  21.473  31.928   1.827
78677W        W45086  16.793  19.560   2.067
78678W        W45087   8.299  32.605  12.933
78679W        W45088  36.446  33.397  14.472
78680W        W45089  29.686  25.050  14.921
78681W        W45090  22.476  14.784   3.187
78682W        W45091  41.976   2.489  12.495
78683W        W45092  12.862  18.608   4.428
78684W        W45093  17.737  18.781   0.889
78685W        W45094  19.341  33.666  13.945
78686W        W45095  18.808  12.079  10.225
78687W        W45096   0.296  17.485  13.004
78688W        W45097  18.305  41.875   1.845
78689W        W45098  44.178  21.231  11.639
78690W        W45099  25.688  23.766   5.327
78691W        W45100  39.019  36.303   0.792
78692W        W45101  33.894  11.131   1.936
78693W        W45102  19.611  15.223   3.186
78694W        W45103   4.719  17.430   4.941
78695W        W45104   8.761  20.631   1.760
78696W        W45105  38.112  16.093   2.256
78697W        W45106  36.285  22.726   4.374
78698W        W45107  36.108  28.669  11.461
78699W        W45108  40.331  19.213   2.132
78700W        W45109   8.274  15.960  11.453
78701W        W45110  30.362   6.191  13.305
78702W        W45111  36.615  19.917  13.925
78703W        W45112  39.910  34.781   2.670
78704W        W45113  17.197   1.423   2.365
78705W        W45114   0.036  37.084   2.043
78706W        W45115  27.663  27.930   3.765
78707W        W45116  19.532  11.229  13.055
78708W        W45117  39.570   7.758   2.908
78709W        W45118  15.626  31.380  13.074
78710W        W45119  21.433  38.811   2.703
78711W        W45120  17.815   1.067  11.696
78712W        W45121  36.273  38.134   1.479
78713W        W45122   8.347  10.834  10.791
78714W        W45123  32.210   1.558   4.522
78715W        W45124  13.999  22.220   3.998
78716W        W45125   7.745   1.962  13.654
78717W        W45126  30.470  15.170   2.238
78718W        W45127  42.323  42.013  13.527
78719W        W45128  16.655  27.875  13.647
78720W        W45129  19.245  32.784  12.296
78721W        W45130  32.472   5.258   1.625
78722W        W45131  39.483   2.064   0.022
78723W        W45132  15.438  41.048   3.789
78724W        W45133  13.773  14.789  14.227
78725W        W45134  36.844  27.294  11.226
78726W        W45135  34.399  36.137  13.933
78727W        W45136  31.448  32.006  14.952
78728W        W45137  19.611  29.214  12.672
78729W        W45138   3.366  44.840  11.948
78730W        W45139  28.491   6.334   0.025
78731W        W45140  27.719  38.740   0.930
78732W        W45141  39.753  40.390  12.077
78733W        W45142  29.678  22.474  14.468
78734W        W45143  11.514  32.537  11.763
78735W        W45144  34.925   0.876   2.450
78736W        W45145  20.081  32.139   2.798
78737W        W45146  24.908  13.432   4.574
78738W        W45147  31.944  37.422   4.184
78739W        W45148   4.965  41.453  10.720
78740W        W45149  44.856   3.681  12.472
78741W        W45150  18.745   8.564   3.667
78742W        W45151  15.186  20.935   3.051
78743W        W45152  41.626  27.709   2.994
78744W        W45153  22.426  34.051  12.060
78745W        W45154  16.102   8.792   1.478
78746W        W45155   7.420  30.535  14.755
78747W        W45156   6.959  13.715   2.587
78748W        W45157  27.215  37.137   4.586
78749W        W45158  44.444  29.560   2.396
78750W        W45159  16.169  16.280  12.714
78751W        W45160  15.366  35.402  10.691
78752W        W45161  26.063  18.086  12.055
78753W        W45162  25.517  21.746   3.018
78754W        W45163  29.068  20.493   2.674
78755W        W45164  19.888  12.724  13.088
78756W        W45165  35.593  30.308  10.610
78757W        W45166  33.876  39.062   3.707
78758W        W45167  15.184  44.488  10.797
78759W        W45168  32.171  26.471  13.397
78760W        W45169  11.698  20.440  13.376
78761W        W45170  12.205  41.983  13.886
78762W        W45171   0.241  32.575   4.284
78763W        W45172  30.444  16.592   2.301
78764W        W45173  24.437  29.936  10.487
78765W        W45174  30.915   6.692   2.730
78766W        W45175   3.428  24.735  13.891
78767W        W45176  43.293   8.617   1.945
78768W        W45177  43.676  12.804  10.268
78769W        W45178  38.016   8.310   4.516
78770W        W45179  19.025   4.625  13.385
78771W        W45180  27.361  14.196   0.343
78772W        W45181  30.078  22.423  13.808
78773W        W45182  40.682  26.483   3.236
78774W        W45183  31.109  24.099   4.236
78775W        W45184   2.257   8.900  11.098
78776W        W45185  23.131  25.152  11.492
78777W        W45186  24.067   1.910   1.453
78778W        W45187  34.047   9.817  11.037
78779W        W45188  27.468  21.782  10.099
78780W        W45189  17.237  15.052   2.452
78781W        W45190  37.465  25.567  14.412
78782W        W45191  22.021  37.542   1.550
78783W        W45192   4.253   3.473   4.594
78784W        W45193  33.046   3.811   2.360
78785W        W45194  20.602  17.763  12.369
78786W        W45195  14.691  31.697   0.370
78787W        W45196   8.465  14.454   3.187
78788W        W45197   1.414  35.833  13.803
78789W        W45198   1.457   0.567  14.504
78790W        W45199  40.837  12.679   3.779
78791W        W45200  18.895  11.956   3.245
78792W        W45201  30.182   6.522  14.912
78793W        W45202  38.572  24.000  11.616
78794W        W45203  31.098  14.926  12.883
78795W        W45204  34.542  39.110   1.932
78796W        W45205  27.957   2.747  14.957
78797W        W45206  10.799  19.782  11.165
78798W        W45207  21.784  17.718   4.727
78799W        W45208  20.151  14.707   2.891
78800W        W45209  19.112  17.204  13.031
78801W        W45210   2.026  44.734  14.474
78802W        W45211  30.390   5.402  10.892
78803W        W45212  42.790   2.688   2.599
78804W        W45213  20.633  42.012   2.732
78805W        W45214   9.676  14.822  12.544
78806W        W45215  20.189  43.154  13.407
78807W        W45216  18.521   4.658   3.146
78808W        W45217  36.122  35.061  10.718
78809W        W45218  28.952  36.662  11.041
78810W        W45219  43.628  42.834  14.522
78811W        W45220   7.857   9.431   1.473
78812W        W45221  13.256  41.772  12.501
78813W        W45222  40.378   2.072  12.119
78814W        W45223  14.656  35.503  13.919
78815W        W45224  18.103  10.576   0.429
78816W        W45225  23.760  28.847   4.936
78817W        W45226  21.162  12.024   3.582
78818W        W45227  44.757  42.073   1.380
78819W        W45228  31.536  43.297   1.690
78820W        W45229  29.602  41.444   0.381
78821W        W45230  16.272  10.101   4.019
78822W        W45231  23.614  44.964   1.758
78823W        W45232   3.249  23.219  14.809
78824W        W45233  18.799  19.776  13.065
78825W        W45234   3.604  27.952  12.038
78826W        W45235  38.804  19.649   4.169
78827W        W45236   0.466  23.530   2.166
78828W        W45237  22.483  40.391   2.668
78829W        W45238   2.688  14.687   2.920
78830W        W45239   0.405  19.666   1.924
78831W        W45240  28.347   8.840   0.209
78832W        W45241  19.778  43.802   0.988
78833W        W45242  35.903  27.110   0.082
78834W        W45243  28.327  26.629  10.343
78835W        W45244   0.425   2.376   3.661
78836W        W45245  37.804  14.553  13.592
78837W        W45246   1.501  39.622   0.815
78838W        W45247  16.175  11.320   3.741
78839W        W45248  34.306  20.631  13.341
78840W        W45249  25.978  38.476  12.976
78841W        W45250   4.811  21.577  12.103
78842W        W45251  19.981   7.202  10.800
78843W        W45252  12.438  33.014   1.319
78844W        W45253   6.727  22.118  10.103
78845W        W45254  16.540   8.612   1.258
78846W        W45255  14.782  13.658  11.555
78847W        W45256  12.371  41.251  14.380
78848W        W45257  21.150  11.969   4.094
78849W        W45258  36.930  37.587   2.429
78850W        W45259  30.051  35.119  12.573
78851W        W45260  24.214  17.359  13.824
78852W        W45261  37.089  21.257   3.711
78853W        W45262  39.767  30.952   4.513
78854W        W45263  34.786   1.306   1.467
78855W        W45264  29.443  15.222   4.609
78856W        W45265  39.546  29.212  12.726
78857W        W45266   6.442  15.756   0.323
78858W        W45267  41.227  18.113  12.482
78859W        W45268  17.685   8.651  12.976
78860W        W45269  38.994  23.375  10.711
78861W        W45270  36.523  26.970   4.521
78862W        W45271   6.648   8.645   5.354
78863W        W45272  26.683  28.143   3.612
78864W        W45273  39.321  43.559  13.317
78865W        W45274  21.463  16.176   3.135
78866W        W45275  19.584  27.571  13.333
78867W        W45276  28.588   2.879   3.258
78868W        W45277  31.669  36.142   2.668
78869W        W45278  12.367  28.690  11.200
78870W        W45279   4.648   1.713   0.413
78871W        W45280   6.089  37.387  12.941
78872W        W45281   1.956  14.016  14.298
78873W        W45282  19.258   8.263  12.805
78874W        W45283  31.209  40.438  10.990
78875W        W45284  43.692   0.337  11.020
78876W        W45285  34.411  25.104   2.993
78877W        W45286  27.666  18.151   3.227
78878W        W45287   5.768  37.860   3.212
78879W        W45288   3.998  34.469  11.618
78880W        W45289  17.759   4.903  12.157
78881W        W45290  40.355  34.379  11.556
78882W        W45291  31.433  25.418   2.814
78883W        W45292  27.758  29.008   2.097
78884W        W45293  21.068  35.997   0.828
78885W        W45294  26.089  43.248  14.245
78886W        W45295  37.771  11.198   3.249
78887W        W45296  31.198  33.606  14.568
78888W        W45297  42.968  30.320   1.622
78889W        W45298  11.509  35.450  14.925
78890W        W45299  42.893  21.928   0.706
78891W        W45300  15.044  12.345  11.172
78892W        W45301   7.551  42.128   4.509
78893W        W45302  11.722  22.615   4.874
78894W        W45303  40.235  17.755   2.678
78895W        W45304  39.017  31.119  14.706
78896W        W45305  29.155  24.049  12.775
78897W        W45306   3.652  26.206  11.034
78898W        W45307   1.311  40.402  14.847
78899W        W45308   2.995  22.907  11.667
78900W        W45309   7.574  11.903   2.813
78901W        W45310  26.649  20.212  13.340
78902W        W45311  43.231   5.970   1.380
78903W        W45312  19.296   8.269   3.671
78904W        W45313  10.745  35.862  13.187
78905W        W45314   4.339   6.344   4.006
78906W        W45315  30.937   4.699  13.762
78907W        W45316  38.107  29.151  12.977
78908W        W45317  28.266  22.507  14.863
78909W        W45318  42.302  22.967   0.638
78910W        W45319   6.746  34.855  11.998
78911W        W45320  28.211  44.600   5.067
78912W        W45321  37.789  26.595   2.770
78913W        W45322  35.265  12.373   2.802
78914W        W45323  30.075   9.659  12.190
78915W        W45324  31.898   1.817   1.032
78916W        W45325  11.769  15.450  13.485
78917W        W45326   2.801   7.394  12.633
78918W        W45327  19.245  10.788   4.247
78919W        W45328   1.480  20.222   2.313
78920W        W45329  40.540  37.939   3.698
78921W        W45330  12.830  21.459   3.137
78922W        W45331   4.754  35.659  14.932
78923W        W45332  39.421   0.850   2.223
78924W        W45333  11.520  25.539   4.402
78925W        W45334   1.992  23.758   0.900
78926W        W45335  42.461   0.286   0.197
78927W        W45336  44.398  27.932  13.551
78928W        W45337  17.209  44.469  11.078
78929W        W45338  22.230  22.486   2.599
78930W        W45339  37.618  12.371   3.668
78931W        W45340  10.872  12.252   0.601
78932W        W45341   9.363  40.725   4.524
78933W        W45342  30.543   0.564  13.865
78934W        W45343  34.406   2.897  11.691
78935W        W45344  19.184  10.239   3.380
78936W        W45345  44.199  29.417  11.044
78937W        W45346  22.425  34.196   2.799
78938W        W45347  12.843  41.892  11.161
78939W        W45348  43.204  42.975  10.682
78940W        W45349  40.078   7.853   4.754
78941W        W45350  18.293  33.584   0.557
78942W        W45351  19.023  24.511  12.206
78943W        W45352  43.310  16.110   2.542
78944W        W45353  16.094   2.257  11.705
78945W        W45354  25.187  11.418   3.169
78946W        W45355   3.291   1.471  13.449
78947W        W45356  14.740   2.176  10.406
78948W        W45357  38.761  24.713  13.988
78949W        W45358  41.318   0.733  12.656
78950W        W45359  37.928   7.761  12.990
78951W        W45360  40.380  17.114  13.354
78952W        W45361  24.280  17.361  12.961
78953W        W45362  22.659   8.473  11.022
78954W        W45363  12.712   8.254  13.094
78955W        W45364  20.362   0.948  13.980
78956W        W45365   9.274  35.542   2.307
78957W        W45366  18.686   0.520  12.608
78958W        W45367  15.664  12.169   4.150
78959W        W45368  19.106  13.949   3.116
78960W        W45369  18.536  10.925   0.531
78961W        W45370  38.529  22.174   2.348
78962W        W45371   8.816  34.633  10.724
78963W        W45372  14.275  32.921  11.110
78964W        W45373  24.091  37.952   0.492
78965W        W45374  36.593  25.933   1.748
78966W        W45375  19.296  40.447   4.110
78967W        W45376  18.578  44.168  11.864
78968W        W45377  24.627  31.501   3.122
78969W        W45378  13.135   2.950  13.323
78970W        W45379   3.927  35.975  13.044
78971W        W45380  18.613  23.266  11.674
78972W        W45381  14.097  11.601  11.350
78973W        W45382  25.493   2.020  10.649
78974W        W45383   4.741  16.766  12.157
78975W        W45384  32.558  10.436  10.915
78976W        W45385   8.602   9.725  13.735
78977W        W45386   6.535  21.658  11.475
78978W        W45387  38.128  17.533   1.641
78979W        W45388  41.965  41.847  13.862
78980W        W45389  18.469  43.708  10.968
78981W        W45390   3.741  34.886   1.797
78982W        W45391   5.667   4.025  10.793
78983W        W45392   0.249  33.652  11.971
78984W        W45393  35.362  25.709   2.316
78985W        W45394  24.286  13.212   3.748
78986W        W45395  13.642  38.819  10.766
78987W        W45396  33.413  23.034  12.394
78988W        W45397  16.139  28.099  13.416
78989W        W45398  37.782  17.023  13.883
78990W        W45399  24.793  22.548   3.298
78991W        W45400   0.855  33.567  13.062
78992W        W45401  17.719  21.796  12.110
78993W        W45402  14.362   0.546   3.722
78994W        W45403  33.919  30.117  14.943
78995W        W45404   6.929  23.146   0.415
78996W        W45405  18.979  32.890   2.829
78997W        W45406   8.084  21.537   0.889
78998W        W45407  25.125   1.244   2.270
78999W        W45408  33.158  34.321  11.167
79000W        W45409  39.451  21.765   1.864
79001W        W45410  15.983  22.187   0.293
79002W        W45411  20.812  21.690  10.625
79003W        W45412  33.653  40.663  10.059
79004W        W45413  10.478  29.865   2.323
79005W        W45414  21.237   1.277   2.449
79006W        W45415  19.204  39.971   3.909
79007W        W45416  26.693  16.114   2.361
79008W        W45417  35.995  31.720  14.846
79009W        W45418  33.039  26.561   1.285
79010W        W45419   6.079  18.551  13.129
79011W        W45420   1.526  14.996   4.279
79012W        W45421  29.129   2.540   4.042
79013W        W45422  14.706  41.471  12.445
79014W        W45423  20.320  16.357   2.366
79015W        W45424  17.545  10.839  11.661
79016W        W45425   1.504   9.280   2.227
79017W        W45426  22.024  38.004   1.782
79018W        W45427  16.730  39.444  13.558
79019W        W45428  24.504   0.266   0.962
79020W        W45429  35.124  34.031   3.256
79021W        W45430  41.802   4.779  12.971
79022W        W45431  26.691  38.883   2.733
79023W        W45432   2.299   4.373   1.298
79024W        W45433  36.133   6.616   3.601
79025W        W45434  23.295   7.668  12.519
79026W        W45435  14.850   2.156  11.493
79027W        W45436  12.158  23.958   4.685
79028W        W45437  36.729  18.135  11.592
79029W        W45438  24.690   9.833  14.592
79030W        W45439  10.417  22.436  14.713
79031W        W45440  38.207  16.575   1.000
79032W        W45441  37.296  15.861  12.292
79033W        W45442  24.316   6.116  13.598
79034W        W45443   0.221  13.562   3.834
79035W        W45444  20.375  44.295   2.354
79036W        W45445  21.881  37.986  11.666
79037W        W45446  19.028  23.128  12.862
79038W        W45447  10.563  40.989  12.091
79039W        W45448  32.163  29.552  11.325
79040W        W45449  40.876   0.299   1.218
79041W        W45450  34.238  42.505   0.370
79042W        W45451  20.237  36.126  11.492
79043W        W45452  27.969  40.625   0.732
79044W        W45453  36.320  17.168  14.514
79045W        W45454   4.469   0.257   0.256
79046W        W45455  25.619   5.109  10.955
79047W        W45456   7.952  26.952   1.597
79048W        W45457  42.509   9.484  11.408
79049W        W45458   1.424   2.410  11.607
79050W        W45459  23.956  13.946   0.386
79051W        W45460   7.456   7.361   0.787
79052W        W45461  31.577  10.161  13.115
79053W        W45462  33.176  18.933   1.654
79054W        W45463  39.409  38.771   4.194
79055W        W45464  26.624  18.388   4.944
79056W        W45465  16.596  22.594  12.249
79057W        W45466  36.706  23.057  13.428
79058W        W45467  33.467  27.902  12.469
79059W        W45468  14.640   3.702  10.172
79060W        W45469   0.766  35.980   1.811
79061W        W45470  19.028   4.907  11.608
79062W        W45471  39.650   8.278   4.578
79063W        W45472  40.614  17.009  12.156
79064W        W45473  28.985  41.823   0.200
79065W        W45474  32.825  39.802   0.674
79066W        W45475  41.019  20.993  11.301
79067W        W45476  36.251  44.327   1.913
79068W        W45477  24.043   2.269   0.903
79069W        W45478  35.085  23.571   2.136
79070W        W45479  36.827   6.798   2.633
79071W        W45480   0.571  14.748   1.337
79072W        W45481  10.728   8.773  13.763
79073W        W45482  17.035  20.772   3.128
79074W        W45483  32.925  10.115  11.655
79075W        W45484  37.941  15.697   4.708
79076W        W45485  29.925  15.564  11.551
79077W        W45486  23.813  38.526  13.344
79078W        W45487  14.344   7.676  12.025
79079W        W45488  32.650   0.453  12.897
79080W        W45489  39.178   5.918   0.807
79081W        W45490  28.433  10.245  14.790
79082W        W45491  37.890  34.360   1.324
79083W        W45492  41.840  27.091   0.200
79084W        W45493  29.339  11.588  12.309
79085W        W45494  20.524  18.587   4.178
79086W        W45495   7.819  33.299   1.477
79087W        W45496   9.486   2.493  12.421
79088W        W45497  12.852  40.775  10.244
79089W        W45498  19.040   8.679  11.122
79090W        W45499   3.997  11.590  14.864
79091W        W45500  36.681  34.036   1.850
79092W        W45501   4.683  33.100   2.713
79093W        W45502  21.790  24.958  11.641
79094W        W45503   4.454  30.733  14.503
79095W        W45504   9.151  38.517  14.901
79096W        W45505  20.846   2.691  11.160
79097W        W45506  16.180  29.607  14.621
79098W        W45507  27.585  11.826   4.165
79099W        W45508   5.657  17.583   0.300
79100W        W45509   1.876   4.877  12.709
79101W        W45510  42.932  31.645  12.656
79102W        W45511  35.053  44.400   3.145
79103W        W45512  36.289  31.577  13.863
79104W        W45513   1.464  15.094   0.341
79105W        W45514  30.017  31.508  12.425
79106W        W45515  14.835  19.140  14.503
79107W        W45516  43.028  23.270  11.647
79108W        W45517  37.687  25.716  12.076
79109W        W45518  29.331  24.880  11.623
79110W        W45519  30.017  26.741  14.428
79111W        W45520  31.662  15.685   5.090
79112W        W45521  32.359  12.785   1.270
79113W        W45522  22.564  21.145   1.205
79114W        W45523  26.030  44.745  12.026
79115W        W45524  42.568  22.209   4.184
79116W        W45525   9.000  29.576  14.637
79117W        W45526  24.459  31.599   4.688
79118W        W45527  33.146  11.104  10.420
79119W        W45528   3.496  28.672   0.443
79120W        W45529  34.632  20.823  11.752
79121W        W45530  39.226  15.729   4.648
79122W        W45531  42.917  39.220   4.126
79123W        W45532  33.866  32.624   1.284
79124W        W45533  18.159  19.831  11.610
79125W        W45534  44.534  38.356   0.308
79126W        W45535  16.205  19.317  12.044
79127W        W45536  35.683  28.962  11.603
79128W        W45537  23.996  35.029   2.863
79129W        W45538  29.533   2.335   4.261
79130W        W45539  30.560   3.605  12.865
79131W        W45540  10.402  33.933  11.623
79132W        W45541  24.267  22.108   1.814
79133W        W45542   5.685   3.214  11.619
79134W        W45543  14.594  12.776   4.546
79135W        W45544  34.364  26.158  13.083
79136W        W45545  19.598  23.437   2.616
79137W        W45546   2.552  25.666   2.679
79138W        W45547  21.316  22.546   3.576
79139W        W45548  34.106  39.922   3.600
79140W        W45549  25.108   1.750  14.525
79141W        W45550  10.209  32.876   0.238
79142W        W45551   3.783  14.426   1.809
79143W        W45552   4.149  16.287   4.546
79144W        W45553  41.850  32.453  13.250
79145W        W45554   7.851   6.659   4.575
79146W        W45555   5.401  44.027   1.936
79147W        W45556  41.257  19.101  11.499
79148W        W45557  34.323  11.663  14.819
79149W        W45558  44.110  27.036   3.335
79150W        W45559  26.275  26.588   1.458
79151W        W45560  28.184  20.814  10.519
79152W        W45561  37.244  17.615  14.725
79153W        W45562   5.029  31.434  11.938
79154W        W45563  18.623  19.329   1.255
79155W        W45564  30.845   1.016  13.208
79156W        W45565  17.802  20.287   2.219
79157W        W45566  16.112  41.407   0.687
79158W        W45567  16.021  33.441   2.720
79159W        W45568  23.713  10.407   3.236
79160W        W45569  10.838  22.245  13.025
79161W        W45570  24.107   2.768   2.645
79162W        W45571  44.155  36.832   1.984
79163W        W45572  44.862   8.577  11.612
79164W        W45573  33.549   9.648   4.570
79165W        W45574  30.155  34.972  12.089
79166W        W45575  33.965   7.842   3.773
79167W        W45576   2.366  40.552   4.197
79168W        W45577  26.060   4.899   2.548
79169W        W45578  16.412  13.306  13.385
79170W        W45579  36.977   0.467  12.046
79171W        W45580  30.351  23.633   4.154
79172W        W45581  14.784  44.816   1.899
79173W        W45582  41.276  37.405  11.050
79174W        W45583  34.206   0.487  10.190
79175W        W45584  12.361  33.968  14.834
79176W        W45585  15.578  39.715   9.834
79177W        W45586  22.273  21.936   1.693
79178W        W45587   5.164  12.719  14.406
79179W        W45588  16.839  25.726  12.205
79180W        W45589  31.272   4.159   0.450
79181W        W45590  39.666  30.060   2.813
79182W        W45591  12.472  32.763   0.465
79183W        W45592   8.408   7.412  11.429
79184W        W45593  11.041  17.663   4.256
79185W        W45594  23.243   1.972   0.334
79186W        W45595  23.220  39.572   2.014
79187W        W45596   0.336   1.691   2.816
79188W        W45597   6.274   5.419   2.473
79189W        W45598   7.426  29.346   2.591
79190W        W45599   0.386  16.720  14.032
79191W        W45600  11.674  44.820  11.743
79192W        W45601  28.571  25.619   1.671
79193W        W45602  36.344   1.908   2.657
79194W        W45603  37.896  15.108   3.082
79195W        W45604   5.377  17.107  13.390
79196W        W45605  34.875   5.750   1.696
79197W        W45606  40.993  38.593   2.251
79198W        W45607  34.408   6.480   4.459
79199W        W45608   5.182  31.257  14.895
79200W        W45609  29.461  23.733  13.980
79201W        W45610  39.366  28.204   2.909
79202W        W45611  30.651  18.683  14.705
79203W        W45612  18.441  26.197  12.930
79204W        W45613  10.194  29.584   1.545
79205W        W45614   3.399  17.466  13.451
79206W        W45615   3.316  40.801  12.185
79207W        W45616  22.090  25.949   0.597
79208W        W45617  38.498  14.642  12.432
79209W        W45618  24.903   1.922  13.099
79210W        W45619  10.688  34.536   5.126
79211W        W45620  43.965  19.537  14.323
79212W        W45621   3.326  22.086   3.150
79213W        W45622  40.790   6.807  13.561
79214W        W45623  27.047  42.241  13.504
79215W        W45624  24.736   1.989  11.204
79216W        W45625  41.065  36.912  11.154
79217W        W45626  29.958   0.306   0.738
79218W        W45627  22.687  26.251  11.121
79219W        W45628  26.729  29.937  14.003
79220W        W45629  31.516  21.738  14.348
79221W        W45630  33.007   0.405  13.339
79222W        W45631  10.066  41.229   1.950
79223W        W45632  28.226  26.590   0.255
79224W        W45633  42.944  35.197   5.063
79225W        W45634  30.737  42.709   5.078
79226W        W45635  30.289  42.620  11.632
79227W        W45636   3.348  33.308   0.193
79228W        W45637  29.824   9.196   9.750
79229W        W45638  16.872  39.934  12.940
79230W        W45639  30.018  35.464  11.001
79231W        W45640   3.726  30.931   2.613
79232W        W45641  35.473   4.975  13.317
79233W        W45642   1.515  25.698  13.340
79234W        W45643  32.891  25.128   1.702
79235W        W45644  15.277   4.010  12.568
79236W        W45645  29.505  39.359  14.936
79237W        W45646  15.725  26.662  12.995
79238W        W45647  16.236   4.291   0.281
79239W        W45648  25.952  32.956   0.188
79240W        W45649  38.004  39.064   3.117
79241W        W45650  34.309   3.952  10.190
79242W        W45651  14.935  12.785   0.252
79243W        W45652  16.299  21.315  11.540
79244W        W45653  10.755  43.634  14.915
79245W        W45654  35.368   7.457   1.683
79246W        W45655  38.797  34.011  13.431
79247W        W45656  43.324  29.593   2.354
79248W        W45657  16.396   9.884  13.010
79249W        W45658   8.428  22.693   2.773
79250W        W45659  34.021   1.024  11.020
79251W        W45660   5.214  28.749  14.484
79252W        W45661  33.521  43.930  11.104
79253W        W45662  37.747  27.219   2.219
79254W        W45663   1.892  10.817  13.998
79255W        W45664  36.759   7.565  13.494
79256W        W45665  36.829  12.107   1.735
79257W        W45666  27.518  13.866  11.587
79258W        W45667   1.021  33.026   4.565
79259W        W45668  39.796  30.047   2.316
79260W        W45669  18.157  22.029  11.884
79261W        W45670  17.107  20.114  10.650
79262W        W45671  25.435  42.695   2.701
79263W        W45672  27.876  27.492  12.372
79264W        W45673  37.436  38.007  12.974
79265W        W45674  40.725  40.462  13.003
79266W        W45675  28.024  40.103   0.821
79267W        W45676  33.963  23.040  12.931
79268W        W45677   9.039  24.479   2.194
79269W        W45678   5.697  28.570  12.088
79270W        W45679  22.201  20.071  13.876
79271W        W45680   9.328   3.011  11.723
79272W        W45681  23.812  22.543  13.039
79273W        W45682  27.654   9.190  14.346
79274W        W45683  26.466  44.268   3.785
79275W        W45684  20.647  33.616  11.942
79276W        W45685  16.545  42.275  10.474
79277W        W45686  14.549  18.982   3.198
79278W        W45687  20.181  24.861  12.541
79279W        W45688  20.146  41.084  13.949
79280W        W45689  10.834  18.787  14.043
79281W        W45690  40.280  41.687  11.664
79282W        W45691  13.906   4.927   1.702
79283W        W45692  43.081  42.313  11.427
79284W        W45693  43.168  30.442   2.223
79285W        W45694   2.738   6.473   0.362
79286W        W45695  29.312  13.199   5.069
79287W        W45696  11.259  11.742  10.902
79288W        W45697  18.704  35.857  12.150
79289W        W45698  39.960  26.189   3.785
79290W        W45699  37.255   4.430   2.245
79291W        W45700  30.389  44.149   4.584
79292W        W45701  26.109  42.034  13.488
79293W        W45702   1.610  23.315   4.102
79294W        W45703  14.740  13.135  14.849
79295W        W45704  42.979  35.471   3.363
79296W        W45705  16.773  35.117  13.550
79297W        W45706   6.938  20.269   4.211
79298W        W45707   6.740  17.905  11.513
79299W        W45708   2.020  40.334  11.196
79300W        W45709  43.079   0.681  10.173
79301W        W45710  33.194  23.877   4.094
79302W        W45711  25.264  36.966   3.282
79303W        W45712  40.844  21.835  13.611
79304W        W45713  42.265  34.095  11.470
79305W        W45714  23.200  20.952   0.539
79306W        W45715  13.342   7.605  14.742
79307W        W45716  16.336  12.268   4.788
79308W        W45717   6.218   6.638  13.318
79309W        W45718   3.376  35.153  12.427
79310W        W45719  18.513  22.082   2.198
79311W        W45720   0.914  16.652  12.384
79312W        W45721  27.972   7.011   2.699
79313W        W45722  11.718  33.401   0.712
79314W        W45723  24.482  14.237   4.120
79315W        W45724  40.993  33.447  14.451
79316W        W45725  19.625  32.160  14.749
79317W        W45726  32.295  17.915  11.124
79318W        W45727  35.911  15.629   1.268
79319W        W45728  27.359  25.586  13.114
79320W        W45729   4.393  40.865   3.268
79321W        W45730  38.792   4.740   0.944
79322W        W45731  21.515  26.706   3.139
79323W        W45732   9.911  25.042  10.731
79324W        W45733  16.807   3.604  12.020
79325W        W45734  13.978  12.794   1.181
79326W        W45735  26.862  15.185  12.885
79327W        W45736  29.464   0.691   3.641
79328W        W45737  17.150  34.952   1.290
79329W        W45738  31.735   6.195   3.704
79330W        W45739   4.300  27.106  11.484
79331W        W45740  44.798   5.513  13.366
79332W        W45741  36.573  26.870  10.902
79333W        W45742  17.254  29.250   4.446
79334W        W45743  29.207  26.089   1.663
79335W        W45744  31.530  31.032   2.798
79336W        W45745  38.687  15.566  14.991
79337W        W45746  17.506  10.206   0.797
79338W        W45747  34.994  29.247   1.223
79339W        W45748   8.831  44.307   0.839
79340W        W45749  33.192  36.928   1.448
79341W        W45750  21.736  43.803  13.537
79342W        W45751  11.784  17.834   2.073
79343W        W45752  11.080  16.784   2.698
79344W        W45753  22.334  14.240   1.268
79345W        W45754  10.354  34.967   0.972
79346W        W45755  26.518   9.416  11.830
79347W        W45756  13.747  35.744   1.408
79348W        W45757  17.067   4.264   4.319
79349W        W45758  30.419  20.631   4.061
79350W        W45759  23.209   7.922   0.746
79351W        W45760   4.610  23.213   1.839
79352W        W45761   5.172   5.318   0.855
79353W        W45762   0.172  37.545  10.619
79354W        W45763   0.516  34.592  14.418
79355W        W45764  34.456  21.104   0.694
79356W        W45765  36.862  14.849  10.562
79357W        W45766   0.827   5.367  14.881
79358W        W45767  17.595  44.243  12.883
79359W        W45768  29.655  19.570  14.704
79360W        W45769  11.644  34.831  13.770
79361W        W45770  36.434   2.791   2.885
79362W        W45771   7.845  10.711   4.917
79363W        W45772  31.285  20.206  13.963
79364W        W45773  35.380  35.355  11.099
79365W        W45774  31.156  18.312  11.727
79366W        W45775  35.005  43.227   1.435
79367W        W45776  33.162  42.442  14.283
79368W        W45777  44.216  38.609  12.300
79369W        W45778  20.780  31.863  12.457
79370W        W45779   7.228  24.633   2.653
79371W        W45780   2.474  40.030  11.658
79372W        W45781  36.357  32.622   3.311
79373W        W45782  20.962  13.190   1.632
79374W        W45783  13.123  41.607   3.636
79375W        W45784   8.268  16.810  13.899
79376W        W45785  37.557  36.708  11.721
79377W        W45786   9.735  43.279   1.170
79378W        W45787  35.404  13.001  11.503
79379W        W45788  41.526  26.165  14.924
79380W        W45789  36.937  14.365   0.255
79381W        W45790  10.861  42.102   4.577
79382W        W45791  40.834  12.432  13.356
79383W        W45792  42.123  22.684  11.048
79384W        W45793  37.361  26.027   3.729
79385W        W45794  23.705   9.948   4.156
79386W        W45795   5.202  15.068  14.079
79387W        W45796  22.072  34.913  12.971
79388W        W45797  40.465  14.116   3.688
79389W        W45798  43.823  20.194  14.007
79390W        W45799  33.740   4.778  13.821
79391W        W45800  24.423  37.405   0.903
79392W        W45801  16.767  30.487  13.096
79393W        W45802  31.811  21.134   2.399
79394W        W45803  22.785  18.450   0.383
79395W        W45804  25.018  44.056  13.459
79396W        W45805   8.466  39.837   3.301
79397W        W45806  43.375  22.647  12.872
79398W        W45807  44.030  22.065  11.075
79399W        W45808  37.604  24.550   4.435
79400W        W45809  28.411  37.391   1.774
79401W        W45810  38.099  19.058  13.070
79402W        W45811  25.188  28.532   0.854
79403W        W45812  32.797  23.665   3.231
79404W        W45813  31.200  36.940   1.809
79405W        W45814  13.375  32.628   4.247
79406W        W45815  39.353   0.488  10.966
79407W        W45816  31.830  10.375   1.215
79408W        W45817  33.095  42.507   0.692
79409W        W45818  21.874   7.772   0.832
79410W        W45819  28.037  35.951  11.671
79411W        W45820  39.030  24.602   4.535
79412W        W45821   5.165  39.674   0.424
79413W        W45822   3.943   0.430   2.624
79414W        W45823  33.585  12.859  13.498
79415W        W45824   4.511  32.912  11.498
79416W        W45825  13.911  36.587   1.864
79417W        W45826   3.817  30.893  12.875
79418W        W45827   1.364  38.452  13.531
79419W        W45828  44.929  25.605  14.281
79420W        W45829   0.484  34.398  12.868
79421W        W45830   5.340  44.466  12.391
79422W        W45831  23.278  10.043   2.294
79423W        W45832  36.168  32.013   4.558
79424W        W45833  44.155  23.230   3.247
79425W        W45834  15.343  33.088   0.590
79426W        W45835  39.447  15.536  14.541
79427W        W45836   3.173  37.090  13.217
79428W        W45837  17.702  32.054   4.557
79429W        W45838  44.730  25.832   2.814
79430W        W45839  11.169  35.181   4.082
79431W        W45840  15.570  39.764   0.780
79432W        W45841  12.666  27.879  10.817
79433W        W45842  30.314  35.477  12.006
79434W        W45843  40.076  22.689   0.818
79435W        W45844   1.238  20.699  14.788
79436W        W45845   2.265  35.628  11.692
79437W        W45846  20.518  34.159  11.948
79438W        W45847  36.378   4.233   3.437
79439W        W45848  21.529  20.703  12.993
79440W        W45849  15.273  20.543   0.845
79441W        W45850  25.189  30.694  12.559
79442W        W45851  21.079  18.314   1.734
79443W        W45852  42.373  44.451  14.276
79444W        W45853  13.545  24.582   4.139
79445W        W45854   2.377  13.854   4.120
79446W        W45855  44.037  35.603  11.112
79447W        W45856  36.054  38.082   3.662
79448W        W45857  10.551  18.080  12.649
79449W        W45858  17.930  14.334  14.162
79450W        W45859   9.943  32.530   3.637
79451W        W45860  39.541  24.661  12.367
79452W        W45861  27.624  20.210   1.715
79453W        W45862   5.416  38.403   1.496
79454W        W45863  37.421  18.655   0.534
79455W        W45864  10.864  37.623  14.349
79456W        W45865  32.536  31.968  14.245
79457W        W45866   1.876  19.160   3.477
79458W        W45867   8.310   2.723  13.614
79459W        W45868  29.108  30.485   1.016
79460W        W45869  34.996  23.881   0.198
79461W        W45870  44.531  36.433   0.022
79462W        W45871  13.967  35.405   0.510
79463W        W45872   0.743  36.741  12.889
79464W        W45873  12.136  10.238  13.922
79465W        W45874   7.573  42.850  11.629
79466W        W45875  27.191  23.015  11.928
79467W        W45876  29.952  14.855  12.036
79468W        W45877  17.481  22.499  12.624
79469W        W45878   4.484   0.541   1.257
79470W        W45879  28.753   4.936   0.041
79471W        W45880  29.504   5.799  12.927
79472W        W45881  40.322  25.002  14.205
79473W        W45882  27.635   7.454  11.221
79474W        W45883  15.271   0.923   0.862
79475W        W45884  27.549  20.056  13.822
79476W        W45885  34.511  33.991  11.488
79477W        W45886  25.118  43.193  10.779
79478W        W45887  22.088   6.181  12.768
79479W        W45888   9.262  23.975  12.535
79480W        W45889  22.776   7.821  13.084
79481W        W45890   1.155  26.988   1.777
79482W        W45891   6.719  21.556   2.243
79483W        W45892  13.690   4.953  14.429
79484W        W45893  15.599  43.957  13.563
79485W        W45894  24.194  16.335  13.885
79486W        W45895  11.266  33.892   0.947
79487W        W45896  42.054  36.430  10.979
79488W        W45897  35.389   5.102   1.598
79489W        W45898  34.525  43.546   0.259
79490W        W45899   1.470   8.623   3.412
79491W        W45900  31.896  41.779  14.606
79492W        W45901   2.381  14.838   1.110
79493W        W45902  24.966  36.152  13.876
79494W        W45903  20.674  24.757  12.497
79495W        W45904   1.804  31.243   4.225
79496W        W45905  30.086  34.923  14.405
79497W        W45906  21.240  11.044  11.196
79498W        W45907  27.808   7.390  13.664
79499W        W45908  28.692  30.343  11.222
79500W        W45909  43.165  17.199   3.789
79501W        W45910  25.137   5.401   3.652
79502W        W45911   9.729  14.383  13.456
79503W        W45912  40.748  15.214  14.506
79504W        W45913   3.325   3.601   4.725
79505W        W45914  22.497  34.582  11.172
79506W        W45915  35.069  21.691  10.615
79507W        W45916  39.004  12.771   0.935
79508W        W45917  38.977  26.974   0.716
79509W        W45918   8.225   8.314   4.459
79510W        W45919  43.142  17.191  12.729
79511W        W45920   2.864  11.977   3.652
79512W        W45921   5.510   9.762  14.260
79513W        W45922  34.454  44.892  12.762
79514W        W45923  44.822  31.628   1.651
79515W        W45924  16.320   3.115   2.170
79516W        W45925  35.650  43.797   4.112
79517W        W45926  17.412  37.127   0.367
79518W        W45927  35.804  41.356  10.805
79519W        W45928  27.430   4.363   0.796
79520W        W45929  28.006  37.458   4.981
79521W        W45930  42.512  26.709   2.328
79522W        W45931  17.694  34.215   2.710
79523W        W45932  10.223   5.680  13.909
79524W        W45933  25.680   4.872   2.196
79525W        W45934  32.963  40.528   1.761
79526W        W45935  15.170  40.000  13.688
79527W        W45936   1.433  30.572   1.083
79528W        W45937   8.283  10.848  12.968
79529W        W45938  41.039  39.528  14.721
79530W        W45939  38.940   7.066  10.427
79531W        W45940   3.956  17.159  11.427
79532W        W45941   8.486   4.091  12.379
79533W        W45942   8.780   8.181  12.631
79534W        W45943  14.667  18.279  14.222
79535W        W45944  30.706  12.941   3.869
79536W        W45945  19.002  33.988   0.794
79537W        W45946  43.768  16.405  11.064
79538W        W45947   9.572   1.646   4.580
79539W        W45948  36.428   0.244  11.125
79540W        W45949  15.127   0.959   0.364
79541W        W45950  35.516  33.487   4.316
79542W        W45951  14.128   3.849   1.016
79543W        W45952   6.325  33.864   1.404
79544W        W45953  40.642  31.909  14.095
79545W        W45954  37.946  18.045   1.583
79546W        W45955  26.872  16.569   4.934
79547W        W45956  29.123  35.047   4.538
79548W        W45957  44.012  39.540  14.883
79549W        W45958  41.556   8.342   3.576
79550W        W45959   6.764  33.916  12.688
79551W        W45960  28.622  35.967  14.741
79552W        W45961  44.584   4.723  12.446
79553W        W45962  24.590  31.877  11.650
79554W        W45963  14.380  22.221   1.234
79555W        W45964   1.812  10.405  14.335
79556W        W45965  26.097  40.511  12.306
79557W        W45966  17.917   1.011   1.268
79558W        W45967  43.449  41.966   2.343
79559W        W45968  40.542  14.774  14.254
79560W        W45969  17.774  27.861  11.424
79561W        W45970  10.171   5.258   2.221
79562W        W45971  37.370  21.187   3.271
79563W        W45972  30.452  22.687   2.897
79564W        W45973  43.181  35.488   0.281
79565W        W45974   4.239  22.745  14.676
79566W        W45975  35.578   6.800   0.403
79567W        W45976  22.260  44.899  14.308
79568W        W45977   7.839  26.930  11.605
79569W        W45978  12.544  43.476   1.357
79570W        W45979  34.853   7.331  13.317
79571W        W45980  13.262  34.827  12.059
79572W        W45981   7.752  40.531  11.994
79573W        W45982  18.171   9.556   1.244
79574W        W45983  20.098  14.562  10.731
79575W        W45984  38.504  21.685   0.090
79576W        W45985   5.319   9.247  10.871
79577W        W45986  34.646   4.445   0.308
79578W        W45987  21.344   4.916  13.885
79579W        W45988  20.203  11.108  13.879
79580W        W45989   0.960   3.902   4.179
79581W        W45990  37.673  20.273  10.931
79582W        W45991  43.838   7.790  11.548
79583W        W45992  43.133   8.103  11.944
79584W        W45993  18.738  26.077   3.341
79585W        W45994  38.913  20.508   2.144
79586W        W45995  16.984  25.148  13.938
79587W        W45996  29.374  17.764  14.041
79588W        W45997  44.402  31.980   3.312
79589W        W45998  19.592  31.672  12.901
79590W        W45999  26.553  32.601   0.852
79591W        W46000  43.406  11.406  11.022
79592W        W46001   5.695  42.492  12.557
79593W        W46002  35.421   7.634  11.949
79594W        W46003   3.796  37.098  12.434
79595W        W46004  13.119  26.840   3.320
79596W        W46005  43.806  15.756   2.698
79597W        W46006  30.449  40.388  11.712
79598W        W46007  11.347  19.265  10.688
79599W        W46008  24.771  13.336   0.765
79600W        W46009  39.440   6.369   1.327
79601W        W46010  42.215  23.453   3.733
79602W        W46011  13.774  15.305  13.353
79603W        W46012  18.025  22.093  10.669
79604W        W46013  24.197   7.671  11.486
79605W        W46014  14.006  20.164  13.269
79606W        W46015   1.412  37.604   3.131
79607W        W46016  39.433  42.335  11.970
79608W        W46017  15.780  43.306   3.521
79609W        W46018   5.407  44.246  11.928
79610W        W46019  20.164  14.387   3.290
79611W        W46020  43.399  15.978  13.035
79612W        W46021  24.915  35.353   1.769
79613W        W46022  35.367  16.283   2.156
79614W        W46023  10.316  28.576  11.095
79615W        W46024  39.019  39.390  14.638
79616W        W46025  26.090  17.253   3.349
79617W        W46026  37.666  43.026  10.845
79618W        W46027  35.594  36.125  11.594
79619W        W46028  14.201   6.947   2.611
79620W        W46029  15.176   1.772   0.924
79621W        W46030  32.572  43.341  12.423
79622W        W46031  18.721  27.465   0.929
79623W        W46032  23.605   2.873   2.339
79624W        W46033  30.520  17.364  12.881
79625W        W46034   0.429  34.965   1.017
79626W        W46035   6.723  10.904   1.113
79627W        W46036   3.925  42.743  12.301
79628W        W46037  23.994  25.975  14.358
79629W        W46038  41.865   2.426   3.560
79630W        W46039   0.806  32.526  11.166
79631W        W46040   2.920  20.274   0.310
79632W        W46041  12.653  41.244  14.865
79633W        W46042   0.887  12.636  12.913
79634W        W46043  41.859  28.855  13.402
79635W        W46044  22.263  26.683  13.280
79636W        W46045  40.460  32.060   3.536
79637W        W46046  42.550  27.545  14.534
79638W        W46047  34.147  42.215   2.348
79639W        W46048   2.944  16.086   4.595
79640W        W46049   0.409  26.452   4.606
79641W        W46050  27.467  16.139   4.086
79642W        W46051  32.363  18.722  11.303
79643W        W46052  26.030  16.924  13.671
79644W        W46053  14.780  43.618   0.016
79645W        W46054  38.196  12.410  11.164
79646W        W46055  43.356   9.404  12.905
79647W        W46056  28.582  43.280  13.759
79648W        W46057  18.849  19.183   2.740
79649W        W46058  26.966  16.752   4.436
79650W        W46059  16.386  24.877   3.303
79651W        W46060  22.584   3.019   1.279
79652W        W46061  24.194  17.123   1.169
79653W        W46062  27.053  28.618   2.744
79654W        W46063   4.211  33.608  13.000
79655W        W46064  29.874   0.791  11.986
79656W        W46065  17.807  14.704   2.328
79657W        W46066  36.497  30.096  12.025
79658W        W46067   3.829  22.532   4.244
79659W        W46068  19.674   7.114  13.565
79660W        W46069  40.050   7.759  14.908
79661W        W46070  12.600  27.393  14.022
79662W        W46071  15.853  27.403   3.230
79663W        W46072  15.153   0.507  11.984
79664W        W46073  23.967  19.573   4.380
79665W        W46074  10.867  16.885  14.779
79666W        W46075  44.265  43.396  14.769
79667W        W46076  30.489   8.791  11.165
79668W        W46077  23.071  42.975   3.562
79669W        W46078  35.980  10.916   2.680
79670W        W46079  39.633   9.276  11.677
79671W        W46080  33.587  41.504   4.584
79672W        W46081  25.095  44.467   4.880
79673W        W46082  23.120  34.517   1.104
79674W        W46083  42.557   0.823   4.548
79675W        W46084  41.336  22.318  10.723
79676W        W46085   8.155  14.877   4.108
79677W        W46086  40.634  18.286   3.602
79678W        W46087  18.681   9.064  12.513
79679W        W46088   1.047  32.542   3.645
79680W        W46089  36.631  15.018  13.023
79681W        W46090  31.891   4.748   3.658
79682W        W46091  10.660  37.509   1.852
79683W        W46092   3.425  32.567   4.152
79684W        W46093  12.345  11.998  12.379
79685W        W46094  16.031   5.316  12.569
79686W        W46095  27.724   6.669   0.828
79687W        W46096  32.352  15.740   4.588
79688W        W46097  34.497  38.193  13.039
79689W        W46098   0.296  24.929   2.771
79690W        W46099   3.876  20.111  10.977
79691W        W46100  14.171  31.010   3.085
79692W        W46101  26.017  30.407  13.080
79693W        W46102  10.054  36.015   2.326
79694W        W46103  36.849   9.390   0.502
79695W        W46104  25.540  36.674  11.593
79696W        W46105  12.803  37.836   1.405
79697W        W46106  39.309  39.390  10.413
79698W        W46107  31.194   9.634   1.929
79699W        W46108  22.731  31.105   0.492
79700W        W46109  42.463  18.624  14.816
79701W        W46110  25.188  40.270  12.010
79702W        W46111  40.145  37.492   1.880
79703W        W46112  30.175  43.862   4.959
79704W        W46113  15.541  13.132  13.070
79705W        W46114   8.734   0.576  14.371
79706W        W46115  21.523  30.629   3.912
79707W        W46116  29.435  11.160  12.082
79708W        W46117   8.230   9.313   3.942
79709W        W46118  20.244  21.485   1.236
79710W        W46119   3.352  15.301   2.362
79711W        W46120  40.951  40.997  12.411
79712W        W46121   7.361  16.107  12.004
79713W        W46122   1.986   9.896  13.893
79714W        W46123  21.191   2.367   4.445
79715W        W46124  41.545  17.579  14.028
79716W        W46125  29.611   1.776   2.830
79717W        W46126   3.831  35.820   4.621
79718W        W46127   5.600   9.225  11.588
79719W        W46128  14.325  19.030   1.836
79720W        W46129  27.215  20.081   2.769
79721W        W46130  17.797  21.051   4.179
79722W        W46131  25.730  20.754   1.389
79723W        W46132  22.169  38.904   0.248
79724W        W46133  24.773   1.028   1.315
79725W        W46134  21.363  38.121   2.579
79726W        W46135   4.633   1.242  14.663
79727W        W46136  36.029  24.409   0.261
79728W        W46137  33.462   5.440  10.754
79729W        W46138   3.048   2.308  13.049
79730W        W46139  19.913  19.052   2.904
79731W        W46140  12.569  41.427   1.782
79732W        W46141  15.662  40.752   1.823
79733W        W46142  16.647  18.147   0.326
79734W        W46143  31.551   4.645  12.050
79735W        W46144  44.892  11.390  10.525
79736W        W46145  16.918   0.963   3.464
79737W        W46146  18.875  21.097   4.133
79738W        W46147   1.787  27.142   4.259
79739W        W46148  43.733  38.644  13.492
79740W        W46149  21.415  22.064  13.364
79741W        W46150  22.199  24.125   0.830
79742W        W46151  40.399  16.399   2.583
79743W        W46152  14.195  25.986  12.331
79744W        W46153  30.074  21.612  13.476
79745W        W46154  39.187  14.818   3.939
79746W        W46155  26.138  19.136   1.279
79747W        W46156   8.801  35.399   0.313
79748W        W46157  41.678  39.682   2.721
79749W        W46158   4.952  32.827  14.413
79750W        W46159  11.223  38.179  13.763
79751W        W46160  33.814  17.253  14.381
79752W        W46161  25.117   2.687  13.529
79753W        W46162  20.230   9.597   3.485
79754W        W46163  20.178   8.831   0.466
79755W        W46164  39.115   1.356  10.234
79756W        W46165   4.739  40.560   1.324
79757W        W46166  18.540  17.808   4.788
79758W        W46167  32.562   8.267  14.779
79759W        W46168  16.096  13.406   0.198
79760W        W46169  33.037  18.610  12.667
79761W        W46170  29.654  25.657  13.877
79762W        W46171  26.501   5.689   2.685
79763W        W46172   2.685   1.825  11.895
79764W        W46173  12.843   6.645   2.396
79765W        W46174  23.543  15.547   3.709
79766W        W46175  17.579  31.203  12.939
79767W        W46176  40.478  33.951   4.010
79768W        W46177  36.955  36.993  12.573
79769W        W46178  16.836   5.308   1.885
79770W        W46179  32.595  38.516  10.637
79771W        W46180  31.200  16.976   4.436
79772W        W46181  14.319  15.173  11.435
79773W        W46182  11.277   6.878   1.260
79774W        W46183  13.836  38.523   3.523
79775W        W46184  19.070  19.587   0.869
79776W        W46185  22.861  24.157   1.741
79777W        W46186  43.945  38.518   2.248
79778W        W46187  22.720  16.363  14.111
79779W        W46188  20.002  32.297  11.118
79780W        W46189  31.693  43.426   0.300
79781W        W46190  37.579  43.921  14.353
79782W        W46191   8.409  17.523  11.174
79783W        W46192  21.096   4.823   2.244
79784W        W46193   1.706   0.726   4.129
79785W        W46194  19.335   8.247  14.538
79786W        W46195   1.522   4.474  12.103
79787W        W46196   3.881  36.604   4.126
79788W        W46197  30.111  31.104   3.608
79789W        W46198  17.794  18.560  11.158
79790W        W46199   4.254   8.807   0.888
79791W        W46200  10.173  26.817  11.940
79792W        W46201  33.763   9.798  12.826
79793W        W46202   7.120  39.910  12.478
79794W        W46203  39.251  36.889  13.602
79795W        W46204  14.023  30.992   0.946
79796W        W46205  37.467  31.411  13.437
79797W        W46206  41.744  38.556   4.126
79798W        W46207  41.319  40.437   0.651
79799W        W46208  15.329   6.458  12.551
79800W        W46209   5.173  20.836   0.893
79801W        W46210  16.676  11.561   0.870
79802W        W46211  36.148  35.753   3.042
79803W        W46212  15.353  39.447  11.681
79804W        W46213  27.099  28.925  11.963
79805W        W46214  19.131  12.147  14.972
79806W        W46215  18.573  43.184   2.156
79807W        W46216  22.005  10.889   0.431
79808W        W46217   1.600  19.433   1.678
79809W        W46218  15.004  11.127   0.240
79810W        W46219  23.784  30.679  12.452
79811W        W46220  35.012   8.367  13.915
79812W        W46221  37.611   2.340   1.254
79813W        W46222  10.879  37.488  10.678
79814W        W46223   1.195   6.834  13.632
79815W        W46224  31.837   3.893  13.305
79816W        W46225   0.447  35.932   3.620
79817W        W46226  38.071  36.794  10.555
79818W        W46227   9.078   0.481  11.129
79819W        W46228  25.255  27.762   0.413
79820W        W46229  44.339  31.641   0.527
79821W        W46230  40.604  31.605   2.661
79822W        W46231  18.524  41.873  13.923
79823W        W46232  38.417  30.027   0.329
79824W        W46233  26.387  14.666   0.257
79825W        W46234  14.722  29.207  14.403
79826W        W46235  26.737  31.988   5.181
79827W        W46236   9.312  44.446  10.488
79828W        W46237  10.870  21.690   3.290
79829W        W46238  40.519  39.170   2.394
79830W        W46239  33.670   9.479  14.764
79831W        W46240   5.896   8.739  14.324
79832W        W46241  19.661   5.869   1.373
79833W        W46242   8.678  19.729  14.940
79834W        W46243  27.379   7.111  10.680
79835W        W46244  44.976   7.206   2.122
79836W        W46245  43.873   2.500  14.965
79837W        W46246  22.819  34.635   2.873
79838W        W46247  21.643  43.281   1.000
79839W        W46248  17.250  32.903  10.733
79840W        W46249   7.556   6.829  11.745
79841W        W46250  15.650  32.841  11.444
79842W        W46251  28.964   0.502   4.296
79843W        W46252   0.549  21.561   2.929
79844W        W46253  15.204  25.062   3.080
79845W        W46254  18.015   5.793   3.203
79846W        W46255  29.161   4.032   3.349
79847W        W46256  14.827  24.511   2.437
79848W        W46257  39.676  15.755   2.265
79849W        W46258  22.898  36.632  12.051
79850W        W46259  24.598  26.175   4.609
79851W        W46260  43.983  39.606   4.680
79852W        W46261  41.803   0.746  14.769
79853W        W46262  35.096   0.826   5.041
79854W        W46263  28.930  43.800  13.900
79855W        W46264   6.279  34.610  11.986
79856W        W46265   0.464  20.979   2.430
79857W        W46266  17.665  19.607   2.904
79858W        W46267  22.933  29.057   9.894
79859W        W46268   1.957  39.717   3.745
79860W        W46269   0.751   6.887   3.670
79861W        W46270  39.257  27.741  11.029
79862W        W46271  43.700  24.670  14.751
79863W        W46272  25.479  41.337  13.370
79864W        W46273  41.030  40.018  14.576
79865W        W46274  12.876   8.316  11.803
79866W        W46275  19.923  40.631  11.172
79867W        W46276  15.216  34.419   9.800
79868W        W46277  31.722  14.920  11.188
79869W        W46278  21.508  16.020   0.657
79870W        W46279  39.394  17.061  12.615
79871W        W46280  31.149   8.484   1.489
79872W        W46281  36.257   9.435  13.434
79873W        W46282   8.314  23.104  13.819
79874W        W46283   2.293   7.664  13.299
79875W        W46284   6.766  23.522  12.462
79876W        W46285  40.388  40.818  11.575
79877W        W46286   5.822   4.762   3.801
79878W        W46287   3.137  31.102  13.882
79879W        W46288   3.261  42.853  10.680
79880W        W46289  35.076  16.926   4.915
79881W        W46290  20.869  40.550   4.202
79882W        W46291  27.577  34.323  13.869
79883W        W46292  19.302  39.504   3.741
79884W        W46293   7.963  23.321   4.917
79885W        W46294   2.756  27.118   4.000
79886W        W46295  29.114  21.104  12.961
79887W        W46296  23.777  43.974  14.824
79888W        W46297  39.395  30.200  12.440
79889W        W46298   8.785  32.919  13.433
79890W        W46299   2.762  32.381   0.450
79891W        W46300  12.376  19.144   2.466
79892W        W46301  35.056  19.441   4.879
79893W        W46302  14.825  40.603  14.717
79894W        W46303  43.272  27.068  12.920
79895W        W46304  43.740  21.155  14.009
79896W        W46305  30.102  41.458  12.781
79897W        W46306  21.481  34.889  11.252
79898W        W46307  32.034  27.135   4.716
79899W        W46308  11.790   3.189   4.298
79900W        W46309  35.565  20.887   1.846
79901W        W46310  32.074  44.028  12.538
79902W        W46311  43.250  25.659  12.566
79903W        W46312  28.194  10.857   4.976
79904W        W46313  24.409  34.586  13.784
79905W        W46314  34.530  12.589  13.362
79906W        W46315  30.479  10.192  13.001
79907W        W46316  10.119   1.247   2.811
79908W        W46317  42.161  16.539  12.719
79909W        W46318  30.135  17.082  12.633
79910W        W46319  40.798  43.365   0.336
79911W        W46320  17.858  42.478  14.369
79912W        W46321  23.215  40.577   2.869
79913W        W46322   2.208   7.771  14.345
79914W        W46323  26.627  30.439   1.228
79915W        W46324   4.160  44.497   3.726
79916W        W46325   2.674   2.694   0.243
79917W        W46326  35.319   4.658   4.178
79918W        W46327  15.099  12.946  12.832
79919W        W46328   9.325  32.324   1.461
79920W        W46329  15.285  34.493   4.613
79921W        W46330  30.468   5.357   0.358
79922W        W46331  27.805  10.565   0.457
79923W        W46332  20.081  24.697   1.389
79924W        W46333  39.357  43.273  14.984
79925W        W46334  25.197  18.655   1.834
79926W        W46335  24.282  41.782  13.434
79927W        W46336   5.000  19.589   3.328
79928W        W46337  21.681  18.610  11.514
79929W        W46338  22.114  24.281   3.227
79930W        W46339  18.095   5.816  14.838
79931W        W46340   4.395   7.241   2.380
79932W        W46341  15.834  24.977  11.663
79933W        W46342  41.952  25.907  12.352
79934W        W46343   0.409  29.642  10.719
79935W        W46344  37.459  18.759   3.232
79936W        W46345   7.889  33.882  13.423
79937W        W46346  30.182  41.713   1.326
79938W        W46347  16.856  13.109   4.476
79939W        W46348  29.362   9.096   0.449
79940W        W46349   6.450  14.515  12.032
79941W        W46350  35.860  20.591  11.284
79942W        W46351  40.516  36.672   2.196
79943W        W46352  23.648  35.394   0.423
79944W        W46353  27.994  36.124   2.775
79945W        W46354  12.338  43.572   0.886
79946W        W46355   9.132   8.727   0.007
79947W        W46356  25.640   8.410  13.476
79948W        W46357  13.923  36.927   2.819
79949W        W46358  40.540  25.706   0.746
79950W        W46359  19.025  28.022   4.147
79951W        W46360  41.765  34.039   4.666
79952W        W46361  23.777   2.319   1.855
79953W        W46362  33.604   0.238  11.221
79954W        W46363  43.287   7.330   4.815
79955W        W46364  31.921   0.009   0.314
79956W        W46365  13.022  22.822  13.935
79957W        W46366   4.887  37.637  12.564
79958W        W46367  13.397  41.882   2.718
79959W        W46368  21.135  44.157  14.298
79960W        W46369  26.974   6.401   0.697
79961W        W46370  40.628  44.316  12.629
79962W        W46371  23.165  10.179   3.749
79963W        W46372  12.688  24.174  14.996
79964W        W46373   3.656  19.221  14.448
79965W        W46374  22.199   5.621  11.045
79966W        W46375  26.242   2.692  14.076
79967W        W46376   6.999  43.394  13.027
79968W        W46377  39.980   8.708  14.939
79969W        W46378  29.607  32.490  13.495
79970W        W46379  10.417  40.225  12.208
79971W        W46380  16.716   4.116  11.951
79972W        W46381  24.627   9.715  14.095
79973W        W46382  29.872  10.839  14.717
79974W        W46383  25.536  34.836  14.865
79975W        W46384  10.342  39.985   4.210
79976W        W46385  29.164   4.587  12.192
79977W        W46386  12.183   5.846  11.024
79978W        W46387  19.864  23.570  12.641
79979W        W46388  25.237   4.341  13.987
79980W        W46389  43.956  27.114  12.428
79981W        W46390  21.915  32.802   2.197
79982W        W46391  20.054  44.921   4.214
79983W        W46392  41.963   1.402  11.602
79984W        W46393  24.494  41.775  14.731
79985W        W46394   6.274   5.375  11.572
79986W        W46395  38.885  12.890   2.701
79987W        W46396  23.130  33.100  11.571
79988W        W46397  34.578  27.236   4.498
79989W        W46398  30.598  30.194  11.625
79990W        W46399  24.425   2.417  13.714
79991W        W46400  12.296  23.849  11.073
79992W        W46401   8.880  26.153  11.674
79993W        W46402   1.747  13.674   2.128
79994W        W46403  12.322  30.417  13.753
79995W        W46404  43.826  18.064   2.600
79996W        W46405   8.534  41.472  11.661
79997W        W46406  17.026  40.324   1.341
79998W        W46407   4.756  42.534  12.418
79999W        W46408  32.824  19.662  10.765
80000W        W46409  33.998  43.694   0.237
80001W        W46410  21.531  19.213   1.833
80002W        W46411  31.076  42.812   9.590
80003W        W46412  13.305  44.332  13.865
80004W        W46413  42.353  20.186   3.609
80005W        W46414  41.168  16.833   1.521
80006W        W46415   1.395   1.298   3.387
80007W        W46416  28.480   2.293  13.739
80008W        W46417  42.398  33.540   3.656
80009W        W46418  40.081   8.270   2.249
80010W        W46419  30.115   3.707   0.822
80011W        W46420  37.666  16.537  13.775
80012W        W46421  43.341   0.341  11.407
80013W        W46422  11.573  21.512  12.237
80014W        W46423  31.890   5.719  13.454
80015W        W46424   6.680  16.561  12.635
80016W        W46425  17.493  25.297  12.067
80017W        W46426  26.820   3.768  13.313
80018W        W46427  15.552  23.994  11.514
80019W        W46428  17.867  29.861  13.291
80020W        W46429   3.820   5.234  13.019
80021W        W46430   3.776  25.953   1.963
80022W        W46431  21.429  19.277   2.758
80023W        W46432  11.188  30.528  10.261
80024W        W46433   3.553  36.637   1.742
80025W        W46434  10.930  22.325   4.248
80026W        W46435  22.063  12.710   4.240
80027W        W46436  37.398   5.467  11.144
80028W        W46437   0.857  19.300   1.261
80029W        W46438  28.657  17.832   3.644
80030W        W46439  21.837  13.696   0.201
80031W        W46440  23.521  22.192   2.524
80032W        W46441  44.834  23.766   4.706
80033W        W46442  30.664  21.086   4.227
80034W        W46443  28.717   7.733  14.574
80035W        W46444   6.419  24.746  14.351
80036W        W46445  36.986   0.101  14.519
80037W        W46446   1.217   9.570  14.281
80038W        W46447   2.719  11.885  11.137
80039W        W46448  24.153  24.649  10.948
80040W        W46449  11.597  37.860   4.015
80041W        W46450  38.551   5.116   0.609
80042W        W46451  25.442  26.044   1.135
80043W        W46452   1.361  29.076  11.159
80044W        W46453   7.167  17.140  13.038
80045W        W46454   2.187  23.204  11.909
80046W        W46455  13.354   1.802  10.268
80047W        W46456  13.795  18.981  14.747
80048W        W46457  15.046  27.453   2.169
80049W        W46458  40.238  43.886  14.166
80050W        W46459   1.017  27.934   0.244
80051W        W46460  29.684   2.451   1.429
80052W        W46461   7.802  33.332  13.403
80053W        W46462  43.124  15.817  12.587
80054W        W46463  30.626  41.553  14.973
80055W        W46464  33.500   3.250  14.842
80056W        W46465   6.687  30.189  11.635
80057W        W46466  13.117  24.521  10.598
80058W        W46467  16.109  17.236   0.427
80059W        W46468  19.780  35.199   1.972
80060W        W46469  40.811  12.278   0.356
80061W        W46470  33.428  31.700   9.961
80062W        W46471  34.141   5.675   1.288
80063W        W46472   2.433   3.934   0.942
80064W        W46473   2.198   6.384   1.286
80065W        W46474  32.077   9.797   3.220
80066W        W46475  23.946  21.694   1.942
80067W        W46476   8.982   5.986  11.566
80068W        W46477  43.332  27.905   3.383
80069W        W46478  26.370   9.487   1.320
80070W        W46479  27.463  40.000   3.570
80071W        W46480  35.800   5.433  13.563
80072W        W46481  18.179   3.488   3.743
80073W        W46482  15.177  40.571  12.460
80074W        W46483  25.661  44.422  10.751
80075W        W46484  41.837  16.021  11.148
80076W        W46485  29.899  12.377  13.497
80077W        W46486   1.696   9.766  10.637
80078W        W46487   6.184  20.346   4.549
80079W        W46488  18.306  24.497  14.844
80080W        W46489  26.831  25.565  13.586
80081W        W46490  23.008  29.400   0.882
80082W        W46491  16.273   3.661   4.009
80083W        W46492  16.652  25.975   4.557
80084W        W46493  34.937   3.542  13.423
80085W        W46494  26.015  36.935  10.707
80086W        W46495   0.336  37.625  13.889
80087W        W46496  22.564  25.037   2.329
80088W        W46497  10.645  44.337   1.777
80089W        W46498   3.030  19.230  10.659
80090W        W46499  37.779  32.852   1.155
80091W        W46500  31.532  20.735   2.238
80092W        W46501   4.461  38.051  14.534
80093W        W46502  27.138  17.904   1.039
80094W        W46503  10.220  13.179   5.051
80095W        W46504   8.656  43.451  12.755
80096W        W46505  33.586  39.351   4.143
80097W        W46506  13.248  16.528  11.239
80098W        W46507  14.817  16.023   1.884
80099W        W46508  42.867  17.131  14.856
80100W        W46509  40.835   3.214  12.909
80101W        W46510  10.896   5.485   0.016
80102W        W46511  27.940   7.333  12.650
80103W        W46512   1.746  17.148  11.470
80104W        W46513  35.103  22.956   0.318
80105W        W46514  26.509  38.115   3.178
80106W        W46515  11.607  25.663   2.150
80107W        W46516  28.024  43.946  13.394
80108W        W46517  26.434  12.653   1.827
80109W        W46518  32.289  29.529  10.808
80110W        W46519  44.567  11.387   3.215
80111W        W46520  18.295  35.647   0.858
80112W        W46521  27.206  31.152  13.094
80113W        W46522   9.152   4.858   0.184
80114W        W46523  33.842  11.642  11.038
80115W        W46524  28.250  27.926   0.398
80116W        W46525  26.927  43.016   4.571
80117W        W46526  12.408  34.310   1.355
80118W        W46527  33.867   8.196  14.375
80119W        W46528  33.556  28.365   0.900
80120W        W46529  10.883   0.946   0.856
80121W        W46530  43.047  17.046   9.961
80122W        W46531  36.264  42.830   4.528
80123W        W46532  29.122  41.376  12.428
80124W        W46533  22.966  18.103  11.051
80125W        W46534   1.434  32.393  13.951
80126W        W46535  39.112  14.795  10.595
80127W        W46536  41.886  25.195   4.607
80128W        W46537  25.974  40.953  14.403
80129W        W46538  35.350  39.343  14.006
80130W        W46539  25.722  10.209  11.174
80131W        W46540   1.025  22.553   5.025
80132W        W46541   5.091  17.079  12.961
80133W        W46542  39.780  16.161   0.279
80134W        W46543   9.855  36.614  10.564
80135W        W46544   5.699  16.902  12.026
80136W        W46545  37.267   3.336  10.596
80137W        W46546  33.576  23.666   3.755
80138W        W46547  10.280  41.420   2.369
80139W        W46548  24.580  26.470  13.311
80140W        W46549  14.818   7.767  14.005
80141W        W46550  21.150  22.119  14.412
80142W        W46551  42.763  15.450  13.635
80143W        W46552  17.769  42.690   3.655
80144W        W46553   5.891  11.788  12.586
80145W        W46554  27.210  15.291  13.275
80146W        W46555  28.757   0.080   4.070
80147W        W46556  16.198  33.491   4.060
80148W        W46557  37.139   7.270   2.721
80149W        W46558   8.454   3.551  12.074
80150W        W46559  29.646  43.064   2.233
80151W        W46560   5.677   6.461   2.595
80152W        W46561  16.251   7.759  14.010
80153W        W46562  41.412  15.717  14.821
80154W        W46563  41.038  17.218  10.147
80155W        W46564   2.771  11.261  13.958
80156W        W46565  17.290   4.967  13.945
80157W        W46566  27.628  38.163   2.368
80158W        W46567  10.692  41.149   1.335
80159W        W46568  44.490  25.710   0.919
80160W        W46569  14.097  39.167  10.304
80161W        W46570  20.783   6.937   3.308
80162W        W46571   0.070   3.291   2.338
80163W        W46572  36.395   1.743   1.126
80164W        W46573   9.496   8.413  10.990
80165W        W46574  40.100   8.254   0.199
80166W        W46575  34.826  39.549  11.551
80167W        W46576  38.257   8.390  12.991
80168W        W46577  25.609  31.605   3.338
80169W        W46578  44.583   0.213  12.121
80170W        W46579  36.076  22.055   2.275
80171W        W46580  18.581  33.473   3.333
80172W        W46581  23.882  30.355   4.899
80173W        W46582  33.034  13.781  14.846
80174W        W46583   5.858  39.282  10.918
80175W        W46584   2.938  20.500  13.535
80176W        W46585  39.550   3.809   4.909
80177W        W46586   9.156  19.064  10.464
80178W        W46587  39.353  10.589   1.281
80179W        W46588  18.576  17.358   5.276
80180W        W46589  22.649  32.855  12.936
80181W        W46590   4.410   9.337  10.839
80182W        W46591  37.875  10.724   4.168
80183W        W46592   3.852  24.471  14.043
80184W        W46593  31.604  35.927  10.579
80185W        W46594  29.214  38.634   1.815
80186W        W46595  19.276   8.395  11.462
80187W        W46596  23.412   5.640   0.949
80188W        W46597  41.540   9.921  13.511
80189W        W46598  32.539  34.201  10.546
80190W        W46599  15.587  42.371  11.413
80191W        W46600  43.417   5.145  13.047
80192W        W46601  44.946   5.653   4.381
80193W        W46602  34.993   3.328  14.843
80194W        W46603  39.409  11.245   2.987
80195W        W46604  18.045   7.148   0.502
80196W        W46605  15.283  36.390   4.093
80197W        W46606  43.588  32.310   3.646
80198W        W46607  16.556  24.354  14.741
80199W        W46608   0.696  12.229   2.825
80200W        W46609  14.315  35.849   5.222
80201W        W46610   0.351  33.186  10.724
80202W        W46611   2.631  38.024   4.945
80203W        W46612  28.806  12.094  12.003
80204W        W46613  16.551   6.485   1.626
80205W        W46614  19.135  23.383  14.405
80206W        W46615  33.221  16.016  11.964
80207W        W46616   6.919  38.459   0.469
80208W        W46617  29.782  37.998  11.971
80209W        W46618  14.170   3.686  14.473
80210W        W46619  43.410  18.184   3.243
80211W        W46620  40.548  16.034  11.602
80212W        W46621   9.848  35.955  11.168
80213W        W46622  17.900  32.922  12.391
80214W        W46623  19.103  42.671   3.763
80215W        W46624  27.090   5.564   4.755
80216W        W46625  12.761  15.355  13.850
80217W        W46626  16.560  34.667   3.242
80218W        W46627  13.316  25.642  14.835
80219W        W46628  40.478  25.492   3.667
80220W        W46629  10.233  43.689   1.760
80221W        W46630  28.471  23.119  11.737
80222W        W46631  25.309   5.128   2.473
80223W        W46632   2.129   9.164   3.141
80224W        W46633  32.440   6.563  12.337
80225W        W46634  43.759  35.235   1.860
80226W        W46635  31.771  18.043  11.149
80227W        W46636  31.165  21.524   4.026
80228W        W46637  10.832   9.489   1.501
80229W        W46638  18.692  23.448   1.267
80230W        W46639  41.062   5.611   2.195
80231W        W46640  27.631  20.336  11.031
80232W        W46641  26.094   6.257   2.419
80233W        W46642  11.657  21.760  14.839
80234W        W46643   6.542  37.912  12.472
80235W        W46644  12.820  42.443   2.269
80236W        W46645  42.270   4.855   4.226
80237W        W46646  28.103  18.661  14.177
80238W        W46647  43.456  23.132  10.966
80239W        W46648  35.025  12.213  13.783
80240W        W46649  23.835   6.603   5.041
80241W        W46650  42.996  25.599  11.619
80242W        W46651   0.969   4.506  12.432
80243W        W46652  16.300  33.021   2.553
80244W        W46653  20.713  29.293  10.546
80245W        W46654   8.967  26.946   3.663
80246W        W46655  11.160  10.140  12.940
80247W        W46656  28.572  34.012  13.130
80248W        W46657   8.861  12.756   3.718
80249W        W46658  18.872  23.087   0.926
80250W        W46659   3.084   3.322  10.952
80251W        W46660  20.530  11.059   0.226
80252W        W46661   8.237  15.090  11.126
80253W        W46662  14.960   3.902   0.528
80254W        W46663  22.173  35.906  11.991
80255W        W46664  35.696   4.443   0.384
80256W        W46665   1.087   9.310  11.543
80257W        W46666  25.447  28.171  11.574
80258W        W46667   9.773  24.133  14.091
80259W        W46668  37.897  35.634  12.011
80260W        W46669  27.909   0.301  12.463
80261W        W46670  25.075  40.220   3.164
80262W        W46671  26.183  40.591   1.320
80263W        W46672  30.973  16.685  11.598
80264W        W46673  27.491  36.571   0.312
80265W        W46674  40.473   3.049   2.152
80266W        W46675  42.522   2.494   4.191
80267W        W46676  20.373  25.695   2.864
80268W        W46677  35.227  32.583  13.965
80269W        W46678  13.634   6.869   4.011
80270W        W46679  12.763   0.424  14.837
80271W        W46680  42.136  24.746  14.818
80272W        W46681  21.818   6.895  12.293
80273W        W46682  30.199  22.991  10.712
80274W        W46683  32.638  41.306  12.961
80275W        W46684  44.091  27.500   3.070
80276W        W46685  42.774  33.374  13.182
80277W        W46686  36.173  43.373  10.732
80278W        W46687  44.728  17.483  14.971
80279W        W46688   3.711  18.692   0.771
80280W        W46689  21.697   9.056  13.382
80281W        W46690  21.590  42.614  13.093
80282W        W46691   0.780  38.540   3.740
80283W        W46692  21.637  10.201  10.121
80284W        W46693  30.090  14.200  11.137
80285W        W46694   2.253   0.074   4.785
80286W        W46695  17.062   7.796  14.485
80287W        W46696  21.062  36.006  12.907
80288W        W46697  26.244  15.671   2.526
80289W        W46698  19.769   3.779   3.490
80290W        W46699  32.433  44.286   1.778
80291W        W46700  11.748  27.465  11.136
80292W        W46701  28.487  43.104   1.711
80293W        W46702   3.816  16.066  14.940
80294W        W46703   6.807  34.956   3.591
80295W        W46704   2.018  15.111   4.220
80296W        W46705  31.677   6.917  14.504
80297W        W46706  31.202  11.891  13.294
80298W        W46707  13.078  41.448  12.888
80299W        W46708  34.228  21.476  12.174
80300W        W46709  21.110  29.454   3.617
80301W        W46710  24.294  22.271   1.310
80302W        W46711   7.867   9.086   1.062
80303W        W46712  36.901  15.689   1.248
80304W        W46713  38.330   7.492   1.017
80305W        W46714  20.083   2.460  11.661
80306W        W46715  39.771  22.901   1.802
80307W        W46716   8.847  12.266   2.807
80308W        W46717  19.134  35.860  12.458
80309W        W46718   8.599  42.525   2.808
80310W        W46719  16.728  28.564   4.224
80311W        W46720  13.626  35.600   3.137
80312W        W46721   7.306  18.268   3.594
80313W        W46722   3.946  33.589   0.634
80314W        W46723  11.082  23.547  12.980
80315W        W46724  22.279  42.948   4.645
80316W        W46725   9.309  16.607  14.701
80317W        W46726  36.307  32.436  14.812
80318W        W46727  22.717  43.849  14.920
80319W        W46728   4.964  28.498  12.848
80320W        W46729  23.283  12.321  11.512
80321W        W46730  32.402  19.922  12.596
80322W        W46731  38.170  29.688  12.675
80323W        W46732  41.258  23.188  11.680
80324W        W46733  26.416  39.466  13.968
80325W        W46734  18.312  40.259  11.858
80326W        W46735  15.091  14.559  12.717
80327W        W46736   1.246  11.283  12.817
80328W        W46737   6.878  16.592   3.705
80329W        W46738  22.728  25.024  11.916
80330W        W46739  28.429  32.885   3.312
80331W        W46740   6.229   5.774  13.038
80332W        W46741  28.561  40.751   1.325
80333W        W46742   6.138  37.821  14.904
80334W        W46743   4.937  40.239  13.086
80335W        W46744  25.056  21.054  10.278
80336W        W46745  36.469  27.374   3.711
80337W        W46746   5.252  14.755  10.917
80338W        W46747  15.231  28.454  12.967
80339W        W46748  29.179  14.328  10.483
80340W        W46749  29.984   7.329  14.506
80341W        W46750   1.194  37.897   2.215
80342W        W46751  44.395  22.230   1.221
80343W        W46752  13.607  14.052  12.161
80344W        W46753  41.636   3.458  12.455
80345W        W46754  22.943   0.010  11.528
80346W        W46755   6.238  42.944   0.422
80347W        W46756  30.912  37.940   2.433
80348W        W46757  44.056  14.611   1.289
80349W        W46758  21.306   8.198  14.070
80350W        W46759  25.019  41.969   1.986
80351W        W46760  33.910  28.957   2.709
80352W        W46761  35.612  33.162  12.492
80353W        W46762   8.684  10.760   0.937
80354W        W46763  29.978  17.620  10.864
80355W        W46764   8.620  34.785  12.049
80356W        W46765   7.554  20.640  11.963
80357W        W46766  33.844   4.199  14.945
80358W        W46767  10.878   5.966  11.390
80359W        W46768  20.787  15.736   3.499
80360W        W46769   0.881  37.611   1.399
80361W        W46770  13.361  32.020   0.237
80362W        W46771  37.791  13.538   1.283
80363W        W46772  34.296   4.893  11.634
80364W        W46773  23.985   6.888   0.839
80365W        W46774  22.679   8.890   2.251
80366W        W46775  20.281   9.126  10.370
80367W        W46776  14.930  24.714  11.813
80368W        W46777  35.955  11.962   1.810
80369W        W46778  17.189   5.951  10.591
80370W        W46779  35.407   6.390   3.421
80371W        W46780  41.160  14.812  11.513
80372W        W46781  30.699  24.995   3.277
80373W        W46782  10.355   9.893  12.545
80374W        W46783   0.956  22.360  11.150
80375W        W46784  14.757  33.580  11.228
80376W        W46785  14.544  26.147  13.460
80377W        W46786   6.749  31.520  12.676
80378W        W46787  39.893  36.809   3.052
80379W        W46788   3.707  12.324  14.861
80380W        W46789  44.873  21.029   0.850
80381W        W46790  38.354  44.282   3.123
80382W        W46791  17.862  17.068   3.570
80383W        W46792  16.474  14.225   0.448
80384W        W46793  32.151  12.164  14.764
80385W        W46794   3.238   8.581  11.282
80386W        W46795  44.545  15.484   0.265
80387W        W46796  36.071  19.445  12.520
80388W        W46797   5.171  22.009   1.923
80389W        W46798   8.818   8.791   4.496
80390W        W46799  27.141  43.142   2.751
80391W        W46800  29.372  13.523  12.841
80392W        W46801  37.988  10.613   0.975
80393W        W46802  15.569  29.888   0.690
80394W        W46803   3.763  10.434   1.882
80395W        W46804  11.958  21.110  13.841
80396W        W46805   1.788   6.961   0.407
80397W        W46806  22.514  24.962  13.288
80398W        W46807   5.861  12.143  11.893
80399W        W46808  25.683   9.114   1.148
80400W        W46809  12.307  44.610   4.189
80401W        W46810  34.625  20.161  10.727
80402W        W46811  19.055  22.548  13.056
80403W        W46812  35.783  28.132   4.344
80404W        W46813  25.100  37.963  12.842
80405W        W46814  38.300   4.072  14.592
80406W        W46815   5.496   5.398   3.151
80407W        W46816  43.137  12.452   4.688
80408W        W46817  19.293  16.704  14.878
80409W        W46818  25.794  27.556  11.207
80410W        W46819   6.754  33.136   0.200
80411W        W46820  18.921  24.495   2.346
80412W        W46821  42.968  35.762   0.684
80413W        W46822  30.581   5.319  14.839
80414W        W46823  23.279   0.128  12.237
80415W        W46824  20.604  29.425   2.859
80416W        W46825  20.994  42.548   3.070
80417W        W46826   0.832   2.680   1.576
80418W        W46827   7.901  26.358  12.359
80419W        W46828  44.582   4.394   3.877
80420W        W46829  30.172  28.839  10.676
80421W        W46830  29.088   0.959  10.256
80422W        W46831  29.374  21.058  13.413
80423W        W46832   8.529  25.808  11.471
80424W        W46833  20.412  41.993   0.339
80425W        W46834  44.799  26.410  12.863
80426W        W46835  34.783  21.514   2.195
80427W        W46836  43.360  37.374  13.876
80428W        W46837  16.032  10.541   4.152
80429W        W46838  26.120  41.481  12.290
80430W        W46839  38.302   2.936   0.682
80431W        W46840  21.711  33.528   3.162
80432W        W46841  36.160  33.481   3.644
80433W        W46842  21.116  13.282  13.312
80434W        W46843  13.041  22.656  10.736
80435W        W46844  35.981   3.461  11.103
80436W        W46845  15.044  39.308  13.039
80437W        W46846   3.214  10.657   2.608
80438W        W46847   2.937  38.430   3.650
80439W        W46848  24.051  26.205  11.471
80440W        W46849  18.223  10.382  13.494
80441W        W46850  30.965  42.611  12.874
80442W        W46851  23.852  21.074  12.616
80443W        W46852  17.749  15.784   0.916
80444W        W46853  29.053  19.273   3.902
80445W        W46854   5.922  32.460   2.919
80446W        W46855  11.590  26.613  13.515
80447W        W46856  31.578  24.909  10.646
80448W        W46857  28.619  20.722   1.729
80449W        W46858  30.592  24.758  14.680
80450W        W46859  24.197  27.301   1.937
80451W        W46860  29.656   2.379  12.773
80452W        W46861  38.361   7.375  11.601
80453W        W46862  42.707  26.734   1.834
80454W        W46863   1.785  43.898   1.271
80455W        W46864   6.556  41.897  11.023
80456W        W46865  37.047  18.840   0.205
80457W        W46866  17.230  12.192   0.348
80458W        W46867  43.489  25.692   0.384
80459W        W46868  25.227  29.653   3.804
80460W        W46869  28.280  41.884   4.809
80461W        W46870  15.526  14.236  12.892
80462W        W46871   4.663  24.861   5.207
80463W        W46872  42.258  39.398  14.568
80464W        W46873  19.780   9.261   2.189
80465W        W46874  10.807   8.277  14.710
80466W        W46875  12.864  12.661  14.748
80467W        W46876  28.614   0.732   3.391
80468W        W46877  25.275  14.584  13.371
80469W        W46878  24.970   7.897   0.356
80470W        W46879  24.421  44.509  12.442
80471W        W46880   0.521  21.544  10.733
80472W        W46881  44.927  22.172   1.347
80473W        W46882  43.060  39.748   2.819
80474W        W46883  34.646   2.121   4.671
80475W        W46884  21.434  29.693   3.978
80476W        W46885   1.138  12.118  10.583
80477W        W46886   2.865  34.907   2.649
80478W        W46887  29.569  36.586  12.570
80479W        W46888  30.570   6.619  11.155
80480W        W46889   1.394  24.117  11.342
80481W        W46890  44.201  39.298  13.601
80482W        W46891   8.165  25.866  13.549
80483W        W46892  44.282  11.687   4.641
80484W        W46893  11.660   8.821   0.817
80485W        W46894  20.190  20.334   0.253
80486W        W46895  12.185  44.108   4.332
80487W        W46896  13.426  34.920   3.859
80488W        W46897  22.729  39.491   0.006
80489W        W46898  41.640  27.580  12.645
80490W        W46899  27.641  29.402   3.743
80491W        W46900   9.451  10.909  12.597
80492W        W46901  44.896   2.852  12.089
80493W        W46902  15.689   2.353   2.436
80494W        W46903  34.432  13.198  13.100
80495W        W46904  21.962   6.449   1.468
80496W        W46905  16.709   7.568   3.755
80497W        W46906  36.057  18.820  10.608
80498W        W46907  43.221  16.769  14.405
80499W        W46908   3.866  34.394   1.662
80500W        W46909  41.815  19.659   4.290
80501W        W46910  44.393   6.287   2.807
80502W        W46911  10.218  24.476   2.841
80503W        W46912   5.818  29.709  12.498
80504W        W46913  38.507  20.462  12.559
80505W        W46914  26.029  15.834  10.566
80506W        W46915   9.902  33.969   3.560
80507W        W46916   1.925  39.933  12.489
80508W        W46917  32.392  22.640  14.811
80509W        W46918  34.913   3.300   3.666
80510W        W46919  15.758  17.728   1.282
80511W        W46920  40.506  37.113  14.427
80512W        W46921  19.793  27.104  13.468
80513W        W46922   5.050   6.226   3.756
80514W        W46923  21.837  33.363   2.706
80515W        W46924   7.656   3.254  14.524
80516W        W46925  38.427  39.361   1.800
80517W        W46926   5.753  24.011  12.865
80518W        W46927  37.959  33.260  11.252
80519W        W46928  36.955  11.231  14.384
80520W        W46929  35.379   1.050   4.677
80521W        W46930  24.060  30.099  11.691
80522W        W46931  25.515  22.932  11.621
80523W        W46932   2.439  44.922   2.374
80524W        W46933   6.676  41.721   4.744
80525W        W46934  25.572  12.901   4.035
80526W        W46935  12.101   1.209  13.547
80527W        W46936  22.857   7.497   0.726
80528W        W46937  20.188  18.689  12.323
80529W        W46938  31.815  39.829   0.768
80530W        W46939  18.419   7.045  11.684
80531W        W46940  37.810   3.244   2.117
80532W        W46941  26.777  11.837  12.423
80533W        W46942  27.519  13.095  12.562
80534W        W46943  44.993  32.101   0.738
80535W        W46944   0.688   0.779   3.105
80536W        W46945  29.137  21.594   4.135
80537W        W46946  33.489  14.716   3.330
80538W        W46947   7.166  16.594  11.576
80539W        W46948  36.657  37.943   3.475
80540W        W46949  28.881   3.287   2.353
80541W        W46950   0.082  11.902  11.200
80542W        W46951  14.009  10.171   2.839
80543W        W46952   6.902  44.386   1.197
80544W        W46953   0.889  44.670  13.879
80545W        W46954   3.296  12.626  14.757
80546W        W46955  13.802  10.886   0.768
80547W        W46956  12.874  14.378   3.657
80548W        W46957  40.286  25.197  10.301
80549W        W46958  13.316   9.871   0.220
80550W        W46959  39.981  25.056  13.814
80551W        W46960   1.894  40.945  12.856
80552W        W46961  33.100   2.808  12.583
80553W        W46962   4.360  16.554   2.844
80554W        W46963  11.053  36.087   4.140
80555W        W46964  11.699   7.702  10.865
80556W        W46965  35.786  32.893  10.759
80557W        W46966  18.456  26.742   3.640
80558W        W46967   7.925   7.829  13.832
80559W        W46968  31.118  42.859   3.356
80560W        W46969   0.412  27.426  12.211
80561W        W46970  12.613   7.720   4.567
80562W        W46971   2.934  37.459   1.367
80563W        W46972  30.504  36.395  11.731
80564W        W46973   4.657   8.608   2.674
80565W        W46974  28.713  10.690  12.487
80566W        W46975  23.072  35.878  13.336
80567W        W46976  14.698  28.362  12.997
80568W        W46977  21.624  39.606  14.264
80569W        W46978  23.655  27.935   0.475
80570W        W46979  32.521  33.071   0.807
80571W        W46980  10.803  31.800   1.098
80572W        W46981  33.186  24.816   4.222
80573W        W46982   8.817  26.509   0.740
80574W        W46983   2.068   5.836   2.716
80575W        W46984   7.856  42.769  10.688
80576W        W46985  11.815  29.419  13.734
80577W        W46986  44.641   4.242  13.978
80578W        W46987   6.346   0.559   4.915
80579W        W46988  19.939  27.616  13.881
80580W        W46989  34.556  16.657   1.754
80581W        W46990  27.209  32.184   1.389
80582W        W46991  15.700  16.070   1.387
80583W        W46992  21.787  21.183  13.589
80584W        W46993  12.110  35.945  11.580
80585W        W46994  33.055  21.562   0.244
80586W        W46995  32.106  13.559  11.264
80587W        W46996  10.076  35.995   1.320
80588W        W46997   7.285  43.578   2.232
80589W        W46998  38.237  30.441  13.978
80590W        W46999  10.261  25.328   2.971
80591W        W47000   1.490  22.761  14.918
80592W        W47001  30.626  11.511   3.723
80593W        W47002  44.877   3.503  10.731
80594W        W47003   5.669  33.542  13.921
80595W        W47004  38.056  28.164  12.871
80596W        W47005  16.711  12.667   1.637
80597W        W47006   3.345   3.199   1.800
80598W        W47007  37.132  14.165  12.069
80599W        W47008  30.637  36.327  13.038
80600W        W47009  23.628  24.240  14.622
80601W        W47010   4.329  27.553  12.425
80602W        W47011  18.297  30.932   4.076
80603W        W47012  43.819  14.685  13.048
80604W        W47013  20.117  40.030   2.679
80605W        W47014  11.319  25.133   1.351
80606W        W47015  28.456  40.891   4.475
80607W        W47016   5.704   8.670   1.946
80608W        W47017  19.865  11.370   4.657
80609W        W47018  36.719  10.296   4.570
80610W        W47019  27.068  43.167   5.106
80611W        W47020  31.136  13.826   3.610
80612W        W47021  41.147  11.300  11.111
80613W        W47022  13.574  28.577  10.735
80614W        W47023  11.026   5.712  12.979
80615W        W47024  16.022   1.507   0.813
80616W        W47025  29.117  36.584   4.627
80617W        W47026  29.525  24.446  11.443
80618W        W47027  12.034  17.821  10.740
80619W        W47028   8.862  43.309  11.014
80620W        W47029  20.970   0.947  12.241
80621W        W47030  23.536  14.105   4.149
80622W        W47031  42.926  29.472   2.667
80623W        W47032  36.077   5.908   0.700
80624W        W47033  34.056  12.279   4.199
80625W        W47034   7.437  37.340   2.826
80626W        W47035  23.986   5.715  13.650
80627W        W47036  39.505  38.366  11.984
80628W        W47037  21.875  41.455   4.256
80629W        W47038  44.490  40.724  11.928
80630W        W47039  23.861  14.689   2.115
80631W        W47040  29.501  34.078  12.394
80632W        W47041   6.860  10.181   0.964
80633W        W47042  33.624  12.334  11.581
80634W        W47043  32.695   1.538   5.345
80635W        W47044  41.882  20.123   4.534
80636W        W47045  14.078  38.760   1.175
80637W        W47046  36.604  29.340  13.642
80638W        W47047  43.442  16.510   4.251
80639W        W47048   0.434   2.260  10.698
80640W        W47049  34.086   5.254   1.577
80641W        W47050  39.746  26.695  10.388
80642W        W47051  17.241  28.724   4.444
80643W        W47052  10.667  37.975   4.718
80644W        W47053  23.597   1.940  10.571
80645W        W47054  13.204  36.120   0.350
80646W        W47055   4.418  13.247  14.459
80647W        W47056  23.946  35.855  11.240
80648W        W47057  22.106   6.414   0.561
80649W        W47058  37.140   1.934  11.422
80650W        W47059  11.095  21.921   1.475
80651W        W47060  42.654  44.031   0.974
80652W        W47061  21.602  40.872  11.884
80653W        W47062   7.006  35.513   4.689
80654W        W47063   0.082  30.539   0.473
80655W        W47064  19.889  26.136  14.897
80656W        W47065  11.421   5.350   4.174
80657W        W47066  13.246   1.261  11.632
80658W        W47067  39.092  23.301  14.985
80659W        W47068  21.351  11.577   3.740
80660W        W47069  27.817  30.703  14.827
80661W        W47070  27.843   9.993   5.733
80662W        W47071  37.965  40.754  13.487
80663W        W47072  38.331  16.162   0.730
80664W        W47073  34.526   1.627   4.556
80665W        W47074   0.896  29.521  14.782
80666W        W47075   1.983  44.809  11.712
80667W        W47076  29.434   1.966   4.590
80668W        W47077  37.051   5.812  10.888
80669W        W47078  40.781  40.989  14.211
80670W        W47079  10.016  23.121   0.467
80671W        W47080  43.038  14.141  12.359
80672W        W47081  43.590  17.528  13.061
80673W        W47082  19.847   8.263  14.508
80674W        W47083  41.060   2.718   3.240
80675W        W47084  14.687  44.876  13.951
80676W        W47085  27.786  27.177  10.734
80677W        W47086   0.136  41.951  12.013
80678W        W47087  18.893  27.128  12.429
80679W        W47088  16.071  29.546  14.114
80680W        W47089   9.238   2.961  10.780
80681W        W47090  12.568  16.769   1.466
80682W        W47091  24.291  29.354  13.248
80683W        W47092  26.305  15.154   4.210
80684W        W47093  44.938  34.651   0.916
80685W        W47094  42.033  35.520   3.190
80686W        W47095   5.412  31.882  13.767
80687W        W47096  30.438  30.173  10.722
80688W        W47097  30.516  14.436   4.558
80689W        W47098  24.428  41.959   2.660
80690W        W47099  10.791  16.333  13.068
80691W        W47100  33.872   8.049   3.278
80692W        W47101  21.803  13.155  13.948
80693W        W47102  28.238  39.926  11.199
80694W        W47103   1.504  23.034   2.814
80695W        W47104  19.799  20.020   4.915
80696W        W47105  24.733  30.740   4.715
80697W        W47106   2.399  25.064  11.577
80698W        W47107  10.806  40.576  12.328
80699W        W47108  23.103  35.322   3.925
80700W        W47109  19.990  30.777   1.808
80701W        W47110  19.093   4.519   2.626
80702W        W47111  36.398  15.813   1.188
80703W        W47112  17.226  17.828  11.251
80704W        W47113   7.449  33.212  11.848
80705W        W47114  32.555  24.933  13.039
80706W        W47115  34.655  35.434   2.469
80707W        W47116  27.228   6.631  10.742
80708W        W47117  31.709  42.870  12.254
80709W        W47118  16.662  25.349   0.744
80710W        W47119  15.132  10.205  12.305
80711W        W47120  11.124  16.495  11.771
80712W        W47121  14.188  30.847   0.021
80713W        W47122  10.160  44.194   1.892
80714W        W47123   7.598  26.062   1.796
80715W        W47124  32.373  20.033   1.017
80716W        W47125  22.085  12.707  13.075
80717W        W47126  44.678  24.858  11.826
80718W        W47127  22.053  10.367  11.314
80719W        W47128  41.984  38.990   2.207
80720W        W47129  15.231  17.995   5.295
80721W        W47130  21.025  27.579  12.539
80722W        W47131  39.076   8.651  11.168
80723W        W47132  34.612  33.988   3.306
80724W        W47133   3.385  16.552  14.127
80725W        W47134  34.921  28.801  12.622
80726W        W47135   6.444  21.674   0.310
80727W        W47136   3.891  31.372   2.850
80728W        W47137   9.519   6.662  13.526
80729W        W47138  23.740   4.267   3.383
80730W        W47139  15.781  12.065  14.871
80731W        W47140  18.705  10.049   2.120
80732W        W47141   0.892   8.913  12.458
80733W        W47142  42.174  21.111   1.209
80734W        W47143  34.445   1.715  13.450
80735W        W47144  14.683   0.111  10.234
80736W        W47145   4.772  11.009  12.136
80737W        W47146  28.550   1.946  14.450
80738W        W47147  41.371   0.501   4.824
80739W        W47148  38.456  40.863   1.602
80740W        W47149   0.969  12.101   0.696
80741W        W47150  31.091  35.736  14.117
80742W        W47151  35.113  41.540  14.915
80743W        W47152  41.526  31.697   4.219
80744W        W47153  20.061  35.227  11.680
80745W        W47154  24.761   6.726   4.331
80746W        W47155  13.301  22.914   3.015
80747W        W47156  35.423  15.887   1.350
80748W        W47157   1.254  35.289  11.087
80749W        W47158  10.381  10.754   4.170
80750W        W47159  27.260   1.402  14.378
80751W        W47160  27.626  37.378  14.440
80752W        W47161  25.431  30.182  10.695
80753W        W47162  43.243  13.731  13.975
80754W        W47163   7.638  28.076  12.669
80755W        W47164  40.777  16.076   1.875
80756W        W47165  25.764  40.227  12.868
80757W        W47166   7.941  12.733  12.767
80758W        W47167   4.876   7.170  11.507
80759W        W47168  37.895  27.005  10.442
80760W        W47169  26.176  13.168   3.548
80761W        W47170   2.415  29.066  13.632
80762W        W47171  11.915   0.125  12.090
80763W        W47172  30.153  10.110  14.378
80764W        W47173  23.946   0.876   4.110
80765W        W47174  18.186  23.180   4.916
80766W        W47175  31.838  35.338  13.771
80767W        W47176  12.829  13.935  11.244
80768W        W47177  35.300  11.008   2.968
80769W        W47178  15.253  38.931   2.728
80770W        W47179  29.437  25.115   5.058
80771W        W47180   0.621  12.254   1.635
80772W        W47181   2.754  11.242   4.188
80773W        W47182  33.456  26.608  10.533
80774W        W47183  34.600  38.582   1.955
80775W        W47184  26.331  11.779  14.232
80776W        W47185   7.621  30.159   4.872
80777W        W47186  25.691  12.322   3.550
80778W        W47187  40.499  44.542   1.214
80779W        W47188  17.203  32.359  14.511
80780W        W47189   1.626   0.415  14.057
80781W        W47190  20.038  15.417  12.370
80782W        W47191   5.715  10.206  12.424
80783W        W47192  33.039  34.880   4.438
80784W        W47193   8.100  20.762  12.934
80785W        W47194  27.927  25.700  11.964
80786W        W47195  18.235   6.620   1.293
80787W        W47196  14.073  43.934   2.125
80788W        W47197  29.064  25.413   3.714
80789W        W47198   1.824  12.339   2.603
80790W        W47199  22.303  44.924  10.893
80791W        W47200   9.861  40.378   2.121
80792W        W47201  12.469  40.479  10.535
80793W        W47202  43.334  22.667   4.801
80794W        W47203  31.737   0.795   2.233
80795W        W47204  17.041  18.312   3.615
80796W        W47205  37.020  23.986  11.684
80797W        W47206  39.996   4.168  13.946
80798W        W47207  27.498  17.710   0.072
80799W        W47208  34.940  21.347  14.510
80800W        W47209  13.636   0.873   3.755
80801W        W47210  14.173  11.187   4.149
80802W        W47211  10.734  28.692  14.539
80803W        W47212   9.248   0.885  11.469
80804W        W47213  27.157   0.251   3.217
80805W        W47214  39.206  35.570  12.790
80806W        W47215  13.747  41.407  13.996
80807W        W47216  10.370   2.173  12.893
80808W        W47217   0.533   6.152   0.039
80809W        W47218   1.734   6.818   1.811
80810W        W47219  42.553  20.088   0.366
80811W        W47220   7.587  34.031  13.826
80812W        W47221  19.920   0.196   3.321
80813W        W47222  43.251  37.784   1.224
80814W        W47223  13.326  33.025  10.480
80815W        W47224  10.091   1.279  13.443
80816W        W47225   4.875  20.959   2.867
80817W        W47226  20.377  37.424  10.268
80818W        W47227  21.185   1.285  11.571
80819W        W47228  24.600  24.773  11.214
80820W        W47229  43.045  21.671  13.866
80821W        W47230  13.828  12.653  14.736
80822W        W47231  44.272  39.574  11.335
80823W        W47232  22.599   9.248  14.420
80824W        W47233  42.908   8.124   0.167
80825W        W47234  42.132   5.597  12.024
80826W        W47235   3.992  15.578  13.049
80827W        W47236   3.863   8.095  14.246
80828W        W47237   5.828   0.480   4.760
80829W        W47238  17.232  43.170   2.412
80830W        W47239  30.959  29.576   3.681
80831W        W47240   6.348  21.526   5.280
80832W        W47241   1.418   0.681   4.574
80833W        W47242  14.005   4.099  10.139
80834W        W47243   2.947  24.208   2.913
80835W        W47244   9.691   6.921   3.656
80836W        W47245  36.910   4.331  12.634
80837W        W47246  38.359  22.679   2.361
80838W        W47247  35.565  30.003  14.414
80839W        W47248  37.069   2.384  12.535
80840W        W47249  37.920   3.288   4.425
80841W        W47250   3.161  12.231   4.353
80842W        W47251  15.842  44.283   2.131
80843W        W47252  27.170  43.242   0.466
80844W        W47253  10.185  22.593  13.407
80845W        W47254  27.538  20.717  12.504
80846W        W47255  26.690  43.507   1.424
80847W        W47256  30.578  19.886  13.089
80848W        W47257  11.328   1.205   2.759
80849W        W47258  17.039  11.307  10.956
80850W        W47259   9.462  15.109   2.133
80851W        W47260  13.918  29.388  12.525
80852W        W47261  15.637  39.364   2.211
80853W        W47262   0.946   5.083   4.974
80854W        W47263   3.971  33.500   1.155
80855W        W47264  31.623   0.137  14.342
80856W        W47265  30.220  40.053   1.753
80857W        W47266  13.794   3.447   1.766
80858W        W47267  10.143  36.690  13.944
80859W        W47268   7.144  42.391  13.611
80860W        W47269  36.932   2.567   3.268
80861W        W47270  37.887  17.669  12.184
80862W        W47271   0.757  43.580  14.819
80863W        W47272  32.361  42.011   2.842
80864W        W47273  43.655   3.718  11.155
80865W        W47274  18.378  25.637  12.317
80866W        W47275  21.555  17.116  12.863
80867W        W47276   9.099  35.539   4.231
80868W        W47277  12.790   7.577  12.468
80869W        W47278  10.180  37.645   1.660
80870W        W47279  15.186  12.248  14.016
80871W        W47280  14.385   0.723   1.177
80872W        W47281  32.630   8.106  13.852
80873W        W47282  44.479  42.006   4.399
80874W        W47283   8.183  23.556   2.901
80875W        W47284  13.347  16.960   4.055
80876W        W47285  23.084  27.803   1.384
80877W        W47286  30.610   3.123  14.274
80878W        W47287  25.873  27.086   2.019
80879W        W47288   5.924  11.245  14.495
80880W        W47289  33.411  22.832  12.921
80881W        W47290   6.395  42.616  14.834
80882W        W47291  32.988   0.249  14.302
80883W        W47292   1.908   4.188   1.618
80884W        W47293  16.128  34.896  14.848
80885W        W47294  16.329   5.813   4.817
80886W        W47295  18.271  38.778   3.383
80887W        W47296  33.166   4.277   3.586
80888W        W47297  20.653  25.141  14.555
80889W        W47298  21.004  16.540   1.971
80890W        W47299  31.432   6.454   3.369
80891W        W47300  11.809   8.692   0.289
80892W        W47301   6.639  41.317  13.008
80893W        W47302  13.357  31.005  14.548
80894W        W47303   7.782  32.414  11.792
80895W        W47304  34.025  13.180   4.418
80896W        W47305  43.475  38.916   2.712
80897W        W47306  16.054  40.409   4.788
80898W        W47307  12.755  16.769  12.577
80899W        W47308  44.320  38.010  14.921
80900W        W47309  26.909  24.738   0.218
80901W        W47310  19.444  26.223  13.553
80902W        W47311  42.776  13.885  13.829
80903W        W47312   3.407  25.435  11.527
80904W        W47313  23.450  23.083   0.379
80905W        W47314  44.068   5.771   3.863
80906W        W47315   0.450  29.209   1.947
80907W        W47316  17.972  31.878  12.673
80908W        W47317  12.904  29.989  11.616
80909W        W47318  24.747  22.802  14.476
80910W        W47319  36.864   7.484   0.638
80911W        W47320  15.543  17.047   4.131
80912W        W47321  16.334  15.762  11.216
80913W        W47322  34.003  44.933  11.055
80914W        W47323   2.624  42.388   4.106
80915W        W47324   0.253  39.062   4.272
80916W        W47325  27.915  41.280   5.092
80917W        W47326  17.619  26.928   4.209
80918W        W47327   8.774  19.205  13.261
80919W        W47328  40.946  34.827   1.251
80920W        W47329  25.534  42.523   1.379
80921W        W47330  42.863  37.621   0.391
80922W        W47331  28.390  16.733   2.739
80923W        W47332  23.394   6.432  13.917
80924W        W47333  18.847  18.628  13.524
80925W        W47334   4.068  38.814   0.298
80926W        W47335   9.499   6.012  11.564
80927W        W47336   7.081  13.753  13.325
80928W        W47337   6.653   4.829   3.360
80929W        W47338  19.500  24.733  12.121
80930W        W47339  44.152  13.602  10.745
80931W        W47340  32.086  22.058   3.821
80932W        W47341  30.006  34.476  13.953
80933W        W47342   5.274  39.065  10.468
80934W        W47343  44.992   9.290  13.785
80935W        W47344  36.344  14.567  12.143
80936W        W47345  17.210  26.405  10.441
80937W        W47346  17.036  39.688   4.021
80938W        W47347  40.364  10.803   4.041
80939W        W47348  41.092  12.605  12.927
80940W        W47349   0.551  42.956   0.463
80941W        W47350   8.410  13.971  14.832
80942W        W47351  18.631  37.816   2.695
80943W        W47352   9.759  32.602   0.290
80944W        W47353  28.616  15.756   4.562
80945W        W47354  28.356  19.070  14.449
80946W        W47355  13.209  43.162  11.449
80947W        W47356  33.490  43.514  10.780
80948W        W47357  10.378  14.166   0.832
80949W        W47358   4.628  12.540   1.712
80950W        W47359  42.436  31.090   0.863
80951W        W47360  10.222  20.444   4.086
80952W        W47361  16.408  13.420  10.614
80953W        W47362  20.209  42.188  14.733
80954W        W47363   4.839  25.250   3.264
80955W        W47364   6.005  19.765  11.254
80956W        W47365  16.245  25.453  14.351
80957W        W47366  31.447  32.012  12.047
80958W        W47367  17.283  22.481   0.322
80959W        W47368  38.832  40.470  10.535
80960W        W47369  24.828  17.043   0.526
80961W        W47370   3.402  16.252   3.270
80962W        W47371  40.621  16.147  10.775
80963W        W47372   4.420  26.530   3.678
80964W        W47373  24.125  39.458  11.074
80965W        W47374  41.259  29.009  12.798
80966W        W47375  23.735   5.220  13.146
80967W        W47376  28.755  13.694  11.576
80968W        W47377  33.943  16.558  13.037
80969W        W47378  18.290   5.101   0.378
80970W        W47379  28.120  30.528   2.184
80971W        W47380  10.605  35.117  12.789
80972W        W47381   5.655  18.762   0.452
80973W        W47382  12.238   9.141  13.116
80974W        W47383  36.504  23.088   4.058
80975W        W47384  40.517  11.767  13.431
80976W        W47385  43.274  31.954  14.458
80977W        W47386  36.452  31.702  13.047
80978W        W47387  22.216   1.539  14.022
80979W        W47388  21.275  18.277   0.561
80980W        W47389  12.816  19.702   1.299
80981W        W47390  15.202  39.887   2.808
80982W        W47391  19.773  11.753   2.115
80983W        W47392   1.951  41.197   2.669
80984W        W47393  18.734  44.015  10.639
80985W        W47394   8.249   9.844  14.542
80986W        W47395  17.504  26.706   3.757
80987W        W47396   3.453  27.578   2.856
80988W        W47397  10.234  31.454  11.594
80989W        W47398  35.493  30.071   1.297
80990W        W47399  37.359  33.460   2.010
80991W        W47400  30.729  35.851  13.148
80992W        W47401   1.290   0.016   2.740
80993W        W47402  24.232  11.605   1.305
80994W        W47403  13.777  36.441  14.371
80995W        W47404  27.026   7.418   4.035
80996W        W47405  11.620  39.268  13.523
80997W        W47406  43.444   2.077   4.941
80998W        W47407  11.154  40.944  11.000
80999W        W47408   1.640  34.147  12.536
81000W        W47409  40.251  25.210  10.807
81001W        W47410   9.213   7.831   1.665
81002W        W47411  12.582  11.144   2.802
81003W        W47412  15.660  11.830   4.570
81004W        W47413  30.571  25.250   3.766
81005W        W47414  33.389  34.694   2.141
81006W        W47415  10.055   2.310   2.084
81007W        W47416  21.151  20.511   4.906
81008W        W47417  41.136  20.850   3.827
81009W        W47418  11.196  42.931  11.568
81010W        W47419   3.891   8.824   4.590
81011W        W47420  31.262  37.853   0.850
81012W        W47421  44.838  18.710  11.450
81013W        W47422  36.848   1.378  13.458
81014W        W47423  28.746  43.779   0.792
81015W        W47424  40.864   1.887   1.370
81016W        W47425   3.535  40.762   0.981
81017W        W47426  34.441   9.630  11.442
81018W        W47427   7.005  38.030   2.163
81019W        W47428  36.983   2.837  13.958
81020W        W47429   2.010  28.839  13.362
81021W        W47430  25.453  37.229  11.441
81022W        W47431  31.501  21.125   1.012
81023W        W47432  19.542  34.460  12.141
81024W        W47433  32.115  30.425  11.721
81025W        W47434  24.664  22.737  12.177
81026W        W47435  16.187   3.043  14.971
81027W        W47436  22.255  26.690   1.670
81028W        W47437  38.526  31.057  14.856
81029W        W47438  14.753  27.540   4.971
81030W        W47439  32.941   9.116  10.646
81031W        W47440  11.318  29.760  10.458
81032W        W47441  26.115  43.694  14.503
81033W        W47442  22.993  32.645   3.569
81034W        W47443  40.406   1.309   0.216
81035W        W47444  13.763  10.155   1.169
81036W        W47445  29.343  34.531   4.566
81037W        W47446  14.351  29.341  10.760
81038W        W47447   2.856   2.852  13.592
81039W        W47448  22.983  21.018   2.460
81040W        W47449  38.987   9.307  13.737
81041W        W47450  34.518  33.183   3.177
81042W        W47451  36.935  43.913   3.243
81043W        W47452   7.486  27.081  10.649
81044W        W47453  11.914  14.399   0.826
81045W        W47454  31.525  28.470  13.468
81046W        W47455  19.395  25.412   5.048
81047W        W47456  23.172   7.978  14.842
81048W        W47457  18.780   4.705  12.934
81049W        W47458   5.685   5.901  10.566
81050W        W47459  23.277  25.780  14.937
81051W        W47460  18.099  13.389   0.303
81052W        W47461  15.348   1.379   1.970
81053W        W47462  43.959  42.486  10.753
81054W        W47463   3.661  38.117   3.181
81055W        W47464  39.685  17.326   3.578
81056W        W47465  23.205  22.527  13.486
81057W        W47466  34.745   0.230  11.954
81058W        W47467  10.114  15.156   2.881
81059W        W47468  22.854  29.674   1.324
81060W        W47469  39.873   4.589   1.273
81061W        W47470  25.461  40.380   1.978
81062W        W47471  42.261  22.655   4.084
81063W        W47472  39.060  27.442  13.633
81064W        W47473  35.091  32.074   1.268
81065W        W47474  29.139  17.450   0.712
81066W        W47475   2.181   1.304   1.942
81067W        W47476  33.279  31.800   4.184
81068W        W47477  23.685  15.224   2.841
81069W        W47478   2.293  44.318   4.126
81070W        W47479  29.915  32.354  10.856
81071W        W47480  19.979  32.809   4.845
81072W        W47481  37.139  15.314   2.620
81073W        W47482  11.626   7.228  12.103
81074W        W47483  19.099   8.748   1.753
81075W        W47484  15.586   4.384   3.138
81076W        W47485   4.001  34.210   4.541
81077W        W47486  22.193  39.851  10.457
81078W        W47487   7.870  41.004   1.606
81079W        W47488  42.907  40.910   3.163
81080W        W47489  40.324  36.060   0.930
81081W        W47490  28.794  29.149  12.041
81082W        W47491  26.548  37.158   2.287
81083W        W47492  40.023  30.874   0.381
81084W        W47493  40.093  37.545   0.460
81085W        W47494   7.229  29.320   1.343
81086W        W47495  41.697  31.684  12.929
81087W        W47496  12.301  27.262   3.600
81088W        W47497   8.216  11.771  14.905
81089W        W47498  17.656  26.561  13.243
81090W        W47499  37.364  36.949   0.852
81091W        W47500  31.716  38.793  11.062
81092W        W47501  41.947  31.894  11.617
81093W        W47502  14.292  28.982  14.577
81094W        W47503  38.425  16.004  10.643
81095W        W47504  31.871   5.227  14.355
81096W        W47505   0.988  14.973   3.148
81097W        W47506   3.564   1.195   2.397
81098W        W47507   5.665  44.909  11.980
81099W        W47508  11.838  39.554  11.614
81100W        W47509  30.448   3.309  12.455
81101W        W47510  30.885  23.525  10.797
81102W        W47511  36.066  33.196   1.728
81103W        W47512  13.143  13.063  10.979
81104W        W47513   1.058  14.546   1.271
81105W        W47514   2.016  31.016   1.508
81106W        W47515   9.589  38.778   2.466
81107W        W47516  21.815  38.384   3.323
81108W        W47517  40.756  25.921  11.895
81109W        W47518   7.678  43.048   4.144
81110W        W47519   4.234  18.818   0.355
81111W        W47520  39.530  37.806   0.903
81112W        W47521   7.356   2.639   1.975
81113W        W47522  28.483   5.058   2.565
81114W        W47523  29.994   1.894  13.260
81115W        W47524   1.248   0.404   2.377
81116W        W47525  29.063   5.344   0.365
81117W        W47526  11.649   1.078  12.093
81118W        W47527  12.857  15.374   3.358
81119W        W47528   6.803  19.332   2.126
81120W        W47529   9.992   2.392   0.048
81121W        W47530  38.266  10.727   0.462
81122W        W47531  35.562  44.226   0.012
81123W        W47532  34.597  40.984  12.878
81124W        W47533  37.966  15.182   2.583
81125W        W47534  32.964  15.186   0.213
81126W        W47535  38.851  11.713  11.288
81127W        W47536  17.741   9.129   2.261
81128W        W47537  13.327  32.579   0.457
81129W        W47538  29.499  19.696   2.703
81130W        W47539  16.102   8.293  10.672
81131W        W47540   4.959   1.315   0.492
81132W        W47541  10.978  22.091  12.535
81133W        W47542   9.767  31.469  14.339
81134W        W47543  24.656  44.232   3.659
81135W        W47544  27.945   0.580   5.091
81136W        W47545  35.398  41.925  14.250
81137W        W47546  37.144   4.834  11.511
81138W        W47547  29.790  24.902   4.607
81139W        W47548  43.343  28.954   0.401
81140W        W47549  33.033  12.526   3.132
81141W        W47550  43.881  35.405   0.764
81142W        W47551   7.148  27.170   0.203
81143W        W47552  13.218  16.140   4.359
81144W        W47553  38.518  29.194   1.350
81145W        W47554  14.331  44.455   2.202
81146W        W47555  37.447   9.686   4.850
81147W        W47556  18.750  24.478   0.243
81148W        W47557  11.206   8.363  13.422
81149W        W47558   7.654  12.686  14.031
81150W        W47559  31.166  23.944  14.978
81151W        W47560  28.581  41.785  14.531
81152W        W47561  22.316  17.463  12.972
81153W        W47562  36.495  19.582   1.307
81154W        W47563  41.123  39.644  14.204
81155W        W47564   7.062   9.050  12.459
81156W        W47565  35.959  22.198   3.153
81157W        W47566  29.236  38.479  13.993
81158W        W47567  16.483  34.153  14.478
81159W        W47568  20.685  16.137  13.819
81160W        W47569  24.002  35.449  10.741
81161W        W47570  30.984  24.161  14.299
81162W        W47571  35.936  32.467   4.336
81163W        W47572   8.970   5.389  13.638
81164W        W47573  20.817  36.053  13.993
81165W        W47574  37.678  41.139   0.332
81166W        W47575   1.021  33.156   0.899
81167W        W47576   1.789  38.151   4.869
81168W        W47577   3.461  28.888  14.950
81169W        W47578  25.440  38.586   0.913
81170W        W47579  16.046  19.159   1.325
81171W        W47580  32.597   1.075   3.270
81172W        W47581   8.243  22.383  12.314
81173W        W47582  18.603  29.672  14.846
81174W        W47583  35.602  23.076   4.200
81175W        W47584  21.288  41.735   2.055
81176W        W47585   4.320  29.127  12.188
81177W        W47586  10.418  18.186   2.102
81178W        W47587  36.420  40.579  14.381
81179W        W47588   4.699  40.587   2.709
81180W        W47589   0.324  12.932  12.702
81181W        W47590   7.339  22.786   3.303
81182W        W47591  38.089  35.618  11.546
81183W        W47592  23.142   1.311  10.672
81184W        W47593  35.532  34.619  12.386
81185W        W47594   0.840  15.033  11.660
81186W        W47595  40.251   6.748  12.366
81187W        W47596  39.322  21.013  14.247
81188W        W47597  13.855   2.697   2.166
81189W        W47598  29.127  23.156   2.125
81190W        W47599  14.263  17.171   1.222
81191W        W47600   6.734   4.933  14.383
81192W        W47601  21.091   8.647   3.821
81193W        W47602  12.898  18.132   3.722
81194W        W47603  12.916   3.471  14.453
81195W        W47604  44.824  43.775  13.758
81196W        W47605   3.468  28.372  14.988
81197W        W47606   7.096  34.898   3.166
81198W        W47607   9.405  27.967  13.606
81199W        W47608   5.041  37.115   3.205
81200W        W47609  29.896   4.330   2.818
81201W        W47610  20.141   0.998   1.707
81202W        W47611  25.308  21.372  10.689
81203W        W47612  21.161  32.376   5.218
81204W        W47613  10.629   4.485   0.943
81205W        W47614  34.550  11.206  11.346
81206W        W47615  21.531  26.526  10.857
81207W        W47616   5.312  17.408  12.533
81208W        W47617  11.155  31.652  11.796
81209W        W47618  10.946  15.701   3.170
81210W        W47619  24.439  37.588   0.287
81211W        W47620   4.259  34.130   1.858
81212W        W47621  11.755  15.869   2.792
81213W        W47622   7.150  37.642   4.365
81214W        W47623   5.924  15.239  12.954
81215W        W47624  14.134  32.560  10.734
81216W        W47625  35.813  32.293   4.819
81217W        W47626  33.481   6.840   1.958
81218W        W47627  13.881  32.536   4.314
81219W        W47628  12.246  22.680   3.579
81220W        W47629  21.415  36.938   0.930
81221W        W47630  41.310   7.197  13.837
81222W        W47631   3.831  34.688  13.585
81223W        W47632   9.549   2.189   4.547
81224W        W47633  22.935  42.216  11.175
81225W        W47634   4.426   0.555   3.897
81226W        W47635  37.086  42.996  12.090
81227W        W47636  33.983  29.617  14.777
81228W        W47637  20.688  24.515   3.200
81229W        W47638  14.391   2.400   2.746
81230W        W47639  14.713  41.249   1.851
81231W        W47640  15.706  19.048  14.263
81232W        W47641  23.151  23.742   1.769
81233W        W47642   8.139  25.156   1.162
81234W        W47643   1.220  20.547   2.779
81235W        W47644  16.844  35.050  11.276
81236W        W47645  42.441   2.702  13.096
81237W        W47646   3.525   8.261   2.716
81238W        W47647   5.221   7.705   3.260
81239W        W47648  33.180  14.868   1.394
81240W        W47649   6.497  28.560   3.760
81241W        W47650  36.441   5.185  12.906
81242W        W47651   2.312  23.492   1.395
81243W        W47652  34.672  26.473   4.178
81244W        W47653  35.264  28.150   4.199
81245W        W47654  43.306  32.868   4.079
81246W        W47655  34.895   7.761   2.497
81247W        W47656   3.446   5.214  13.637
81248W        W47657  38.251  31.228   3.246
81249W        W47658  14.571  34.537  13.507
81250W        W47659  43.647  12.130  11.536
81251W        W47660  11.848  25.940  12.715
81252W        W47661  33.117   0.996  11.722
81253W        W47662  44.444  12.618   4.732
81254W        W47663  11.464  25.187   3.587
81255W        W47664  16.096  14.753  14.988
81256W        W47665  37.258  13.029  11.333
81257W        W47666  43.080  13.666  12.127
81258W        W47667  35.432  38.827   4.244
81259W        W47668  41.310   4.670   0.826
81260W        W47669  21.155  41.346   1.120
81261W        W47670  39.083  41.974  14.839
81262W        W47671  21.411  38.899  11.675
81263W        W47672   2.252  34.857  14.825
81264W        W47673  34.992   1.543   2.040
81265W        W47674  10.544   8.099  14.252
81266W        W47675  33.508  44.806   4.393
81267W        W47676  23.063  18.742   1.234
81268W        W47677  34.178  19.117  13.990
81269W        W47678   7.678  33.709  10.154
81270W        W47679  40.105  24.786  13.399
81271W        W47680   1.416  43.550   3.650
81272W        W47681   0.432  30.986   4.631
81273W        W47682   3.157   1.651  12.018
81274W        W47683  14.264  44.511   1.697
81275W        W47684   8.157  39.370   1.196
81276W        W47685  31.866  26.077  12.397
81277W        W47686  21.181  34.987  10.793
81278W        W47687  18.009  33.776   2.740
81279W        W47688  19.134   1.127   0.909
81280W        W47689  40.772  22.641   4.160
81281W        W47690   8.832   4.406  13.357
81282W        W47691   9.685   7.531   4.320
81283W        W47692  40.101  21.043  11.156
81284W        W47693  16.669  32.957  14.329
81285W        W47694   7.491  34.564   3.123
81286W        W47695  27.247  17.757  13.526
81287W        W47696  23.632  40.908  10.680
81288W        W47697   2.665   8.219   0.349
81289W        W47698  37.522  13.131   3.170
81290W        W47699  19.264  43.082  13.597
81291W        W47700  18.772   9.559  12.633
81292W        W47701  19.277  32.789   3.255
81293W        W47702  40.089  18.810   1.040
81294W        W47703  37.800  43.916   4.568
81295W        W47704  22.473  18.250   1.915
81296W        W47705  14.117  20.503  14.042
81297W        W47706  30.170  13.194   2.286
81298W        W47707  44.992   8.154  13.028
81299W        W47708   4.349  27.794   1.825
81300W        W47709   7.322  29.383   4.664
81301W        W47710  38.114  19.873  11.163
81302W        W47711  42.869  41.387   2.209
81303W        W47712   6.048  18.330  14.798
81304W        W47713  38.686  34.103   0.425
81305W        W47714  27.818  44.276   2.773
81306W        W47715   7.388  13.565  11.198
81307W        W47716   3.789  43.946  10.860
81308W        W47717  12.185  28.140   3.667
81309W        W47718   2.919  36.439   3.139
81310W        W47719   1.966   5.177  14.236
81311W        W47720  13.191  23.694  14.499
81312W        W47721   1.975  11.259  12.117
81313W        W47722  31.968   1.267   2.164
81314W        W47723  25.995  42.437   3.295
81315W        W47724   6.230  11.845   4.942
81316W        W47725   1.036  26.210  12.067
81317W        W47726  16.079   4.500   0.747
81318W        W47727  19.075  41.359   1.236
81319W        W47728   8.136  14.854  14.899
81320W        W47729  43.068  17.206  13.236
81321W        W47730  11.139  26.491   2.405
81322W        W47731  10.803  34.820   4.205
81323W        W47732  24.252  11.407  12.215
81324W        W47733  17.853   3.234  12.628
81325W        W47734  28.650  19.257  13.123
81326W        W47735  20.672  30.658  11.191
81327W        W47736   6.681   3.440   1.014
81328W        W47737   6.769  23.534  11.560
81329W        W47738   1.212  43.868  13.911
81330W        W47739  41.041  12.103  12.995
81331W        W47740  35.938   4.909  10.395
81332W        W47741  16.108  41.047   1.943
81333W        W47742  14.715   7.307   4.569
81334W        W47743  40.579  43.992   3.051
81335W        W47744  27.962  10.395   1.782
81336W        W47745  28.209   4.808   9.957
81337W        W47746  37.525   6.174   0.282
81338W        W47747  17.751  38.136  12.417
81339W        W47748   8.756   1.217  10.449
81340W        W47749   8.654  44.681   3.703
81341W        W47750  25.178   1.365   4.257
81342W        W47751  37.452   0.442   0.397
81343W        W47752   6.682  28.388   1.043
81344W        W47753   6.661  23.200   9.918
81345W        W47754  16.197  25.682   4.714
81346W        W47755  15.788   5.049  10.519
81347W        W47756  17.854  29.375  12.526
81348W        W47757  11.858  37.614   9.974
81349W        W47758  19.560  34.968   0.237
81350W        W47759  26.241  27.675  10.980
81351W        W47760   1.490  15.640   0.256
81352W        W47761  22.420  42.201  13.561
81353W        W47762  30.480  30.955  11.138
81354W        W47763  35.074  11.474   3.534
81355W        W47764  32.374   4.782   4.547
81356W        W47765  39.360  40.143  12.362
81357W        W47766  26.181  32.432   3.634
81358W        W47767  34.645  36.997  10.732
81359W        W47768  37.575  42.443   0.227
81360W        W47769  30.485  30.943  13.294
81361W        W47770  21.777  32.560   4.630
81362W        W47771  11.877  36.902   3.869
81363W        W47772  21.600  15.604   4.555
81364W        W47773   9.550  27.533  13.392
81365W        W47774  16.342  37.478   1.380
81366W        W47775   3.292  28.797  13.085
81367W        W47776  19.191  21.781   4.290
81368W        W47777  13.408  32.507  11.161
81369W        W47778  32.601  16.895  11.068
81370W        W47779  37.163  31.699   0.288
81371W        W47780  38.753   7.294   5.068
81372W        W47781   0.468  18.041  11.317
81373W        W47782   3.223  12.024  11.237
81374W        W47783   4.254   9.957   2.698
81375W        W47784  23.274   9.381  11.925
81376W        W47785  11.730  34.428  11.587
81377W        W47786  38.866  10.891   3.758
81378W        W47787  19.024  32.585  11.290
81379W        W47788   8.549  13.655  11.720
81380W        W47789  34.963   0.922   3.350
81381W        W47790  17.679  12.893  13.958
81382W        W47791  23.038   8.861  14.494
81383W        W47792  20.688   5.152   4.590
81384W        W47793  22.600  25.986  13.856
81385W        W47794   6.675   0.457   4.193
81386W        W47795  30.448  21.048  14.496
81387W        W47796  18.044  24.921  14.632
81388W        W47797  30.582  22.643  11.179
81389W        W47798   0.138  20.293  13.131
81390W        W47799   4.780  33.107  14.853
81391W        W47800  11.479  12.352  12.065
81392W        W47801  28.485  39.106   3.811
81393W        W47802  37.302  35.810   4.601
81394W        W47803   8.315   3.928  14.833
81395W        W47804  21.658  22.508   0.896
81396W        W47805   7.431  13.347   3.210
81397W        W47806   6.418  26.766   4.970
81398W        W47807  29.420  13.314  11.154
81399W        W47808  27.074  41.492  12.151
81400W        W47809  35.622   7.389  10.657
81401W        W47810  35.457  27.726  11.192
81402W        W47811  11.132  22.941  11.055
81403W        W47812   3.816  16.282  12.635
81404W        W47813  11.753   1.114  13.916
81405W        W47814  36.898  39.101   0.868
81406W        W47815  15.595  42.854   3.648
81407W        W47816  40.060  26.891   1.416
81408W        W47817  15.145  43.811  14.712
81409W        W47818  23.951  37.380  13.787
81410W        W47819   3.810  25.527  13.791
81411W        W47820  32.436   1.431  14.943
81412W        W47821  11.653  38.324   0.505
81413W        W47822  34.692  26.624   0.388
81414W        W47823  35.145   0.970  11.081
81415W        W47824  28.724  11.772  11.545
81416W        W47825  17.077  32.590   1.476
81417W        W47826  25.883  29.511   3.066
81418W        W47827  16.425  17.085   3.183
81419W        W47828  43.821   4.746   0.361
81420W        W47829  26.385  35.846   5.144
81421W        W47830  11.933  23.027  14.410
81422W        W47831  38.393  16.012   2.701
81423W        W47832  26.022   6.398   2.916
81424W        W47833  28.298  33.483  13.671
81425W        W47834  42.428   7.857   3.202
81426W        W47835   8.000  32.958   3.642
81427W        W47836  23.697   8.329  10.470
81428W        W47837  11.175  19.819  13.628
81429W        W47838  11.520  32.944  12.062
81430W        W47839  27.126  12.178  13.616
81431W        W47840  30.539  13.184  12.023
81432W        W47841  39.309  42.884   1.802
81433W        W47842  16.334  31.022   4.551
81434W        W47843   2.704  31.976   2.660
81435W        W47844  39.004   0.363   0.217
81436W        W47845  24.185   3.222   2.389
81437W        W47846  35.326  36.035   4.181
81438W        W47847  13.251   7.966  11.091
81439W        W47848   1.705  18.655   4.709
81440W        W47849  35.371  15.600   1.791
81441W        W47850  22.116  33.493  13.972
81442W        W47851  21.041  44.851   0.382
81443W        W47852   8.429  22.456   4.340
81444W        W47853  43.917   5.330   3.645
81445W        W47854  10.256   6.311  13.041
81446W        W47855   8.629  23.446  14.446
81447W        W47856  20.712  35.207  12.032
81448W        W47857  44.835   3.245  13.959
81449W        W47858   7.462  15.065   3.265
81450W        W47859   9.377  33.883   3.384
81451W        W47860  26.990  28.246   0.889
81452W        W47861  29.421  20.480   0.543
81453W        W47862  25.519  24.076   2.948
81454W        W47863  43.995  40.958  13.565
81455W        W47864  18.616  22.945   1.392
81456W        W47865  20.568   0.734  13.548
81457W        W47866  42.446  33.507   0.421
81458W        W47867  22.613   2.029   1.469
81459W        W47868  17.171  19.330   4.575
81460W        W47869  12.333   1.203   2.695
81461W        W47870  14.444  43.180   2.646
81462W        W47871   9.821  15.667  14.697
81463W        W47872   7.648  18.644  13.373
81464W        W47873  39.392  33.295   2.910
81465W        W47874  24.676  24.616  14.052
81466W        W47875  25.146  43.348   4.127
81467W        W47876  26.450  42.797   4.594
81468W        W47877  39.466  34.553  13.925
81469W        W47878  26.943  44.786   1.868
81470W        W47879  34.140  34.240   0.806
81471W        W47880   4.737   4.434  14.280
81472W        W47881   0.474  23.575   3.073
81473W        W47882  33.761  43.895  11.565
81474W        W47883  17.340  42.813  10.849
81475W        W47884  40.505  22.247  10.755
81476W        W47885  41.197  13.116   1.446
81477W        W47886  13.309   8.927  12.588
81478W        W47887  33.331  34.494   1.199
81479W        W47888  30.943  10.171  14.864
81480W        W47889  37.846   4.021  14.978
81481W        W47890   3.003  33.797   3.916
81482W        W47891  17.377  34.502  14.052
81483W        W47892  30.883  21.252  13.336
81484W        W47893  18.518   6.858  14.387
81485W        W47894  25.407  10.265   4.826
81486W        W47895  35.816   7.778  11.646
81487W        W47896   4.178  41.332   3.226
81488W        W47897   9.768  41.216   4.296
81489W        W47898   7.954  21.260   4.076
81490W        W47899  19.976  29.885  10.994
81491W        W47900  13.137  17.911  14.411
81492W        W47901  36.623  13.635   2.737
81493W        W47902  38.080   8.681  12.067
81494W        W47903  27.247  21.169   0.453
81495W        W47904  35.510   7.129  11.092
81496W        W47905   1.168  21.101  13.598
81497W        W47906  16.082  10.355  10.840
81498W        W47907  30.987  36.324  13.419
81499W        W47908  41.738  37.435  12.367
81500W        W47909  29.072   6.948  14.145
81501W        W47910   1.856  30.881  13.519
81502W        W47911   1.784  31.942  13.551
81503W        W47912  21.073  22.580   4.031
81504W        W47913  36.836   5.227   3.288
81505W        W47914  31.712   0.813  14.358
81506W        W47915  25.369  24.527   2.384
81507W        W47916   2.021  22.830  11.049
81508W        W47917   0.803  25.045   1.306
81509W        W47918   8.285  13.264   1.113
81510W        W47919  23.024  24.259   2.216
81511W        W47920   8.566  36.065  12.522
81512W        W47921  44.881  19.248   3.176
81513W        W47922   7.869  41.723   4.459
81514W        W47923  17.742  18.008  11.416
81515W        W47924  29.979  36.566   3.295
81516W        W47925   4.621  27.166   2.885
81517W        W47926  23.989  21.983   3.717
81518W        W47927  27.506  36.374   3.479
81519W        W47928  28.873  39.478  11.583
81520W        W47929  22.620  23.749  14.797
81521W        W47930   6.383  36.530   3.473
81522W        W47931  23.660  24.447   3.657
81523W        W47932  38.953  43.132  10.167
81524W        W47933  21.231  39.947  14.240
81525W        W47934  12.801  11.730   3.247
81526W        W47935  35.377   2.078  14.345
81527W        W47936  16.650   5.277  11.383
81528W        W47937  15.227  23.542   4.031
81529W        W47938  24.013  27.623   4.842
81530W        W47939  41.869  44.228  11.955
81531W        W47940  30.045   5.690  14.511
81532W        W47941   6.820  36.655  11.612
81533W        W47942  19.755  24.623  14.749
81534W        W47943  33.349  27.065   1.358
81535W        W47944   9.671  16.385   0.030
81536W        W47945  25.467   2.134  14.388
81537W        W47946  37.520  14.506  14.033
81538W        W47947  42.675  15.626  10.129
81539W        W47948  21.302  14.330  14.342
81540W        W47949  17.435   0.981   1.727
81541W        W47950  29.932  44.866   2.687
81542W        W47951  28.102  44.207   1.225
81543W        W47952   0.158   2.485   3.237
81544W        W47953  21.743  31.412   0.589
81545W        W47954  15.463  12.038  11.160
81546W        W47955  18.266   0.790  12.742
81547W        W47956  21.154  37.748  13.253
81548W        W47957  44.394  23.973  12.917
81549W        W47958  38.423   8.706   2.351
81550W        W47959  20.394  23.418   0.786
81551W        W47960  29.905   6.018   1.269
81552W        W47961   9.087  10.380  13.259
81553W        W47962  11.319  18.762  11.565
81554W        W47963  30.597  15.391  13.950
81555W        W47964   9.906   6.154   3.799
81556W        W47965   6.085  41.809   3.470
81557W        W47966  31.432  43.748  14.373
81558W        W47967  18.787  33.589  11.938
81559W        W47968  26.633  12.906   0.935
81560W        W47969  16.132  22.716   1.916
81561W        W47970  18.109  21.175  10.585
81562W        W47971  33.060  16.671  13.459
81563W        W47972  28.583  13.607  14.381
81564W        W47973  39.404  23.598  13.627
81565W        W47974  36.447  34.325  14.531
81566W        W47975   5.722  43.045   0.898
81567W        W47976  38.964   7.211  10.935
81568W        W47977  18.166  29.967   1.940
81569W        W47978  24.392  25.111   1.613
81570W        W47979  12.018  13.692  14.276
81571W        W47980  20.000  11.016  12.919
81572W        W47981  29.924  15.322   4.739
81573W        W47982  28.952  27.007   4.389
81574W        W47983  18.738  32.880  11.623
81575W        W47984  23.094  37.702   4.158
81576W        W47985  31.327  33.871   3.704
81577W        W47986  37.176   9.196  11.170
81578W        W47987  33.460  28.672   2.848
81579W        W47988   6.609   3.796  12.061
81580W        W47989  14.751  28.996  10.745
81581W        W47990  26.674  20.677  13.620
81582W        W47991  31.638   9.807   2.837
81583W        W47992  24.060  17.568  14.345
81584W        W47993  43.460  23.493  14.784
81585W        W47994  28.893   6.139   3.176
81586W        W47995   3.255  25.725  14.357
81587W        W47996  11.238  12.948  13.363
81588W        W47997  38.546  30.017  13.841
81589W        W47998  34.592   1.976  12.966
81590W        W47999  17.081   3.746   4.177
81591W        W48000  44.517  25.099  13.722
81592W        W48001  12.417  31.175  14.979
81593W        W48002  16.529  28.105   0.770
81594W        W48003   5.148  20.457   4.222
81595W        W48004   2.697  26.547   3.274
81596W        W48005  35.157  34.044   2.068
81597W        W48006  18.028  11.903  11.891
81598W        W48007  38.046   6.376   2.287
81599W        W48008  24.219   7.766  12.878
81600W        W48009  12.954  32.465  13.526
81601W        W48010  27.607  20.748   1.797
81602W        W48011   3.692   1.862  11.291
81603W        W48012  28.643  37.029   2.342
81604W        W48013   1.722  22.402   3.803
81605W        W48014  26.576   5.302  14.363
81606W        W48015   5.215  28.016   1.815
81607W        W48016  20.728  13.632  13.377
81608W        W48017  25.044  36.530  12.514
81609W        W48018  11.766  31.476   3.782
81610W        W48019  25.911  27.355  10.702
81611W        W48020  18.647   6.173   1.241
81612W        W48021   0.915  30.534   0.887
81613W        W48022   0.352  34.052  10.560
81614W        W48023  16.795  33.607   0.328
81615W        W48024   6.495  39.386   1.872
81616W        W48025   9.206  24.389  12.910
81617W        W48026  39.117  27.923   3.276
81618W        W48027  36.990   8.902  14.708
81619W        W48028  27.625  20.661  11.443
81620W        W48029  43.908   0.849   0.271
81621W        W48030  39.152   6.215   2.703
81622W        W48031   5.389  30.908   2.576
81623W        W48032  11.117  14.620   0.381
81624W        W48033  21.119   7.290  12.030
81625W        W48034  13.614   8.444   3.872
81626W        W48035  37.955  15.562  11.205
81627W        W48036  21.534  12.593  13.284
81628W        W48037   4.456  19.752   0.350
81629W        W48038  35.133  43.814   2.172
81630W        W48039  26.657   6.348   4.566
81631W        W48040  15.319   1.851  11.514
81632W        W48041   5.130  27.767   4.210
81633W        W48042  12.771   0.213  11.876
81634W        W48043  32.233   6.070   4.014
81635W        W48044   4.448  27.609   2.690
81636W        W48045  18.722  35.016   1.640
81637W        W48046  31.607   9.801  14.602
81638W        W48047   8.135  11.569   0.372
81639W        W48048  21.840   0.106  11.110
81640W        W48049  43.888  10.463   1.022
81641W        W48050  18.181  37.088  10.336
81642W        W48051  30.074  35.656  12.522
81643W        W48052  20.763  17.374  11.427
81644W        W48053  29.256  43.388  12.034
81645W        W48054  36.902  11.823   2.769
81646W        W48055   6.685  26.086   1.809
81647W        W48056  42.524  24.228   4.153
81648W        W48057   3.318  18.338  11.497
81649W        W48058  33.660  27.677  13.564
81650W        W48059  11.315  37.433  10.960
81651W        W48060  41.513   8.654   0.524
81652W        W48061  24.812   5.678   3.388
81653W        W48062  44.010   1.182  13.419
81654W        W48063   1.125  44.718  11.159
81655W        W48064  27.421  13.230  11.929
81656W        W48065  18.712  32.995   1.056
81657W        W48066  34.405  41.458  12.777
81658W        W48067  18.087  37.924   2.673
81659W        W48068  15.167  28.689   1.133
81660W        W48069  14.200  42.540   0.669
81661W        W48070  19.286  31.818   1.478
81662W        W48071  30.978  32.069   3.206
81663W        W48072  31.924  40.783  12.557
81664W        W48073   7.013  39.071  12.102
81665W        W48074  12.658  27.575  12.531
81666W        W48075  31.428  19.645  13.148
81667W        W48076  34.233  22.531  11.356
81668W        W48077  21.763  25.479   3.569
81669W        W48078  24.333   3.523   1.562
81670W        W48079  20.013  22.620   4.096
81671W        W48080  14.513  42.616  12.094
81672W        W48081   1.402   4.784  12.533
81673W        W48082  36.924  35.598  12.063
81674W        W48083  37.488  34.591  13.950
81675W        W48084  13.268  36.795  13.514
81676W        W48085  11.596  25.936  14.694
81677W        W48086  26.452  19.564   5.219
81678W        W48087  20.525  27.027   2.655
81679W        W48088  38.912  37.103  11.539
81680W        W48089  20.935  44.957  14.651
81681W        W48090  37.437  22.131   4.179
81682W        W48091  23.425   4.903  10.927
81683W        W48092   2.868   6.917  10.781
81684W        W48093  42.114  14.633  11.605
81685W        W48094  26.000  41.392   4.475
81686W        W48095  12.238  36.533   4.392
81687W        W48096  31.228  32.378   4.195
81688W        W48097  43.912  28.117  13.360
81689W        W48098  33.475  43.218  12.179
81690W        W48099  10.924  11.752   2.175
81691W        W48100  11.096  32.074  10.076
81692W        W48101  41.012  23.241   3.903
81693W        W48102  29.070  21.965   1.920
81694W        W48103  12.312  39.865  13.388
81695W        W48104  37.273  25.149  10.915
81696W        W48105   8.829  34.661   0.732
81697W        W48106  32.586  42.549   4.576
81698W        W48107  34.122  34.157  11.804
81699W        W48108   3.958  14.610  11.316
81700W        W48109  17.656   7.556  10.998
81701W        W48110  17.274  17.669   4.161
81702W        W48111   9.514   5.489   1.817
81703W        W48112   5.978  24.189   0.246
81704W        W48113  34.143   9.694   0.990
81705W        W48114  25.071  28.497  10.764
81706W        W48115  27.627  18.018  12.382
81707W        W48116  29.119   3.850   4.368
81708W        W48117  33.561  24.554   1.234
81709W        W48118   6.886  16.846   3.227
81710W        W48119   8.664   4.910  13.857
81711W        W48120   5.199  36.880  11.089
81712W        W48121  15.612  42.557  11.884
81713W        W48122  13.962  28.582   3.315
81714W        W48123  19.202  14.642   4.559
81715W        W48124   4.233   0.079   3.794
81716W        W48125   5.925  19.415   2.387
81717W        W48126  21.246  15.852   1.313
81718W        W48127  39.613  16.840  14.180
81719W        W48128  15.224  40.812  12.004
81720W        W48129  36.647  34.884   3.145
81721W        W48130   8.883  14.879  11.988
81722W        W48131  13.587  24.130  12.439
81723W        W48132  32.070  33.817   0.387
81724W        W48133   5.328  15.593   4.130
81725W        W48134  29.912  42.862   1.366
81726W        W48135  32.222   3.186   3.019
81727W        W48136  14.048  17.265   0.746
81728W        W48137  18.559  10.312  11.266
81729W        W48138  12.647  20.209   0.558
81730W        W48139  30.613   6.214   4.889
81731W        W48140  24.172  19.622   1.022
81732W        W48141  18.624  29.391   3.275
81733W        W48142  13.766  27.407   4.505
81734W        W48143  30.056  42.418   1.105
81735W        W48144  24.480  36.017   3.011
81736W        W48145   3.672  36.957  13.454
81737W        W48146  40.729   5.926  14.472
81738W        W48147  44.313  27.096  10.431
81739W        W48148  20.075  14.420   0.926
81740W        W48149  11.349  29.578   4.365
81741W        W48150  43.470  23.606  11.256
81742W        W48151   0.550  32.998  11.156
81743W        W48152  36.468  41.637  10.331
81744W        W48153   3.413  14.359   0.878
81745W        W48154  37.050  31.585   4.827
81746W        W48155  22.924   1.890   4.380
81747W        W48156  38.560  41.955  11.070
81748W        W48157  42.441  25.209   2.409
81749W        W48158   3.928  31.918   4.536
81750W        W48159  18.654   3.525  11.159
81751W        W48160  16.363   8.630  12.608
81752W        W48161  21.247  10.173   0.011
81753W        W48162  15.808  44.839   3.245
81754W        W48163  33.011   8.831  11.097
81755W        W48164   1.946  18.005  10.991
81756W        W48165   9.667  31.171   3.690
81757W        W48166  27.755  40.590  13.071
81758W        W48167  20.457  32.572  14.610
81759W        W48168   9.881  19.763   4.566
81760W        W48169  16.071  40.523   0.662
81761W        W48170  36.859   9.670   2.734
81762W        W48171  29.607  38.567   1.493
81763W        W48172  23.461   0.301  13.039
81764W        W48173   8.661  25.768  14.239
81765W        W48174   1.461   1.732   4.541
81766W        W48175  20.928  24.439   4.221
81767W        W48176  33.343  32.939  11.176
81768W        W48177  20.264  24.055  14.375
81769W        W48178  11.552  11.920   2.753
81770W        W48179  39.884  20.705   9.862
81771W        W48180  33.567  13.561   0.350
81772W        W48181  35.929  23.796   4.932
81773W        W48182   5.788   6.720  11.521
81774W        W48183  11.041  33.925   2.806
81775W        W48184   1.890  27.157   1.372
81776W        W48185  32.084  42.397   4.711
81777W        W48186  23.111  42.732   1.705
81778W        W48187   5.830   5.680  13.576
81779W        W48188  14.767  23.482   3.756
81780W        W48189  14.667  36.015  13.420
81781W        W48190  15.507   7.964  14.273
81782W        W48191   3.742  13.179  10.652
81783W        W48192  17.976  32.553   1.266
81784W        W48193   2.986  18.303   2.280
81785W        W48194  35.120  21.535  12.008
81786W        W48195  19.316  12.567   0.514
81787W        W48196  39.923  42.424  12.575
81788W        W48197   9.871   8.117   4.296
81789W        W48198  41.734  40.442   1.700
81790W        W48199  12.452  27.634   4.233
81791W        W48200   0.547  15.599   4.101
81792W        W48201   4.724   9.147   2.709
81793W        W48202  15.134  43.094   4.580
81794W        W48203  10.424  41.912   0.169
81795W        W48204  11.571   0.098   4.580
81796W        W48205  18.914  42.437   0.324
81797W        W48206  36.654  44.000   2.823
81798W        W48207  25.464  35.480   4.084
81799W        W48208  29.679  41.124   0.829
81800W        W48209  19.723  24.026   4.607
81801W        W48210   7.212   5.837  14.343
81802W        W48211   5.285  38.365  12.415
81803W        W48212  40.091  16.991  11.997
81804W        W48213  35.372   1.731   2.859
81805W        W48214  22.775  24.183  11.356
81806W        W48215   2.215   6.465  11.471
81807W        W48216  20.203  37.423   2.148
81808W        W48217  24.569  21.020  14.008
81809W        W48218  23.958  38.623  11.264
81810W        W48219  37.400   7.792  14.319
81811W        W48220  44.544  11.683   1.296
81812W        W48221   5.965  27.092  14.015
81813W        W48222   4.729  21.186   3.713
81814W        W48223  32.079   1.489  13.382
81815W        W48224  43.552  44.167   3.913
81816W        W48225  28.616  39.542  13.176
81817W        W48226  40.032  23.096   4.140
81818W        W48227  39.965  14.052   3.291
81819W        W48228  17.707  34.840   3.705
81820W        W48229  17.745  35.309   0.039
81821W        W48230  13.756   7.094  12.597
81822W        W48231  25.158  30.463  14.033
81823W        W48232  29.206  43.589  11.131
81824W        W48233  32.764  37.715  14.935
81825W        W48234  31.993  18.800  13.773
81826W        W48235  27.942  13.334   0.293
81827W        W48236  31.554  24.319   0.045
81828W        W48237  31.582  25.425  11.609
81829W        W48238  26.483  29.022   0.739
81830W        W48239  35.023  21.618   0.394
81831W        W48240  44.374   6.497  14.488
81832W        W48241  24.533   9.824  12.034
81833W        W48242  17.420  10.954   2.193
81834W        W48243  33.459  24.709  13.129
81835W        W48244   3.758  22.826  13.922
81836W        W48245  20.508  40.999   4.084
81837W        W48246  13.153   3.913   3.626
81838W        W48247  20.301   8.804   1.522
81839W        W48248  16.039  41.876   0.884
81840W        W48249  13.224  26.071   1.813
81841W        W48250  42.463  15.308   1.881
81842W        W48251  33.499  31.682   5.081
81843W        W48252   7.197  37.867  14.866
81844W        W48253  19.680  16.990  13.876
81845W        W48254  20.740  21.092  12.400
81846W        W48255  28.951  15.092  12.496
81847W        W48256   3.535   0.541   3.426
81848W        W48257  25.279  32.563   2.336
81849W        W48258  19.038  15.653  14.838
81850W        W48259   1.008  38.997   2.894
81851W        W48260  43.399   4.680  10.991
81852W        W48261   9.550  28.897   2.374
81853W        W48262   3.356  21.109   2.409
81854W        W48263   6.179  11.794  12.143
81855W        W48264  26.328   2.840   4.710
81856W        W48265  21.500  27.669  14.836
81857W        W48266  21.998  41.889  12.352
81858W        W48267   5.247  42.805  11.725
81859W        W48268  44.197  22.759   1.217
81860W        W48269  24.151  17.419   4.021
81861W        W48270   8.368   8.941  10.775
81862W        W48271   6.813  31.015  12.910
81863W        W48272  39.574  19.501  13.043
81864W        W48273  39.066  38.897   0.412
81865W        W48274  30.621  29.144   3.747
81866W        W48275  29.519   9.241  11.852
81867W        W48276  19.776  19.120   1.241
81868W        W48277  26.055  14.131  13.938
81869W        W48278  16.126  43.719   0.681
81870W        W48279  18.703   6.673   4.495
81871W        W48280  12.330  36.465  12.401
81872W        W48281  13.744  22.663   4.066
81873W        W48282  24.976  14.945  14.250
81874W        W48283  41.281   2.204  14.810
81875W        W48284  16.733  35.926   1.806
81876W        W48285  18.175  18.604   0.672
81877W        W48286  13.589  20.920  12.232
81878W        W48287  17.981   6.773  11.594
81879W        W48288  44.419  16.126  10.889
81880W        W48289  10.261  25.908  13.558
81881W        W48290   0.038  17.049  12.785
81882W        W48291   9.021  44.994  12.980
81883W        W48292   2.220   3.280  14.575
81884W        W48293  24.065  44.326  12.882
81885W        W48294  14.012  41.771   0.268
81886W        W48295  28.123   5.579   5.256
81887W        W48296   9.697  23.628   4.626
81888W        W48297  10.412  40.932  10.747
81889W        W48298  14.193   6.797  14.902
81890W        W48299  12.052  10.119   0.783
81891W        W48300  31.562  13.109   4.426
81892W        W48301  44.964  28.430   0.720
81893W        W48302  27.723  17.333  14.796
81894W        W48303  41.000  23.611  12.650
81895W        W48304  27.418  11.178   2.957
81896W        W48305   6.857  13.273  14.764
81897W        W48306   8.168   2.363  11.491
81898W        W48307   1.736  35.824  12.428
81899W        W48308   7.714  21.592  12.327
81900W        W48309   8.586  15.239   4.094
81901W        W48310   8.272   2.792   2.740
81902W        W48311  25.011   2.777   2.723
81903W        W48312   0.291   2.354   0.828
81904W        W48313  39.095  24.636  14.418
81905W        W48314   2.928  36.599   1.058
81906W        W48315  17.516  44.343   0.919
81907W        W48316  15.996  36.949  12.028
81908W        W48317   7.317  16.979   2.222
81909W        W48318  11.105  42.820  12.403
81910W        W48319  25.767  20.245   0.495
81911W        W48320  32.753  39.001  14.140
81912W        W48321  27.227   7.792  12.262
81913W        W48322  28.427  28.920  14.279
81914W        W48323   3.166   2.521   2.346
81915W        W48324  11.982  27.467   1.926
81916W        W48325  28.231  44.886   0.003
81917W        W48326  12.278  17.288   2.837
81918W        W48327  29.957  40.005  12.071
81919W        W48328  12.287  37.441   3.903
81920W        W48329   3.956  36.143  11.188
81921W        W48330  13.723   7.321  14.546
81922W        W48331  33.735  23.580  10.663
81923W        W48332  35.320  10.590  13.617
81924W        W48333  18.756  44.754   4.505
81925W        W48334  32.123   3.723  14.735
81926W        W48335   9.219  14.995   3.934
81927W        W48336  17.148  43.654   4.880
81928W        W48337  35.060  21.579   2.618
81929W        W48338  39.915   3.274   0.100
81930W        W48339   6.760   2.940   0.857
81931W        W48340  38.562  36.436  14.511
81932W        W48341  40.114  28.857   1.299
81933W        W48342   9.221  12.923   3.336
81934W        W48343  31.458  11.148   2.755
81935W        W48344  14.407   8.660  13.331
81936W        W48345  39.003  12.623  10.358
81937W        W48346  20.591   9.405  12.130
81938W        W48347  26.456  21.124  11.726
81939W        W48348  38.242  38.307   2.148
81940W        W48349   3.953   6.942  13.180
81941W        W48350  17.098   6.286  12.586
81942W        W48351  40.505   5.979  10.670
81943W        W48352  24.893   1.400  13.018
81944W        W48353  18.053  19.315   3.150
81945W        W48354  33.057   6.522   2.392
81946W        W48355  35.671  13.316  13.995
81947W        W48356  13.122  28.096   2.235
81948W        W48357  14.664  15.819   1.427
81949W        W48358  25.214  42.192   2.872
81950W        W48359   8.974  29.901  13.867
81951W        W48360   3.060  19.777  12.004
81952W        W48361  21.648   4.097   4.698
81953W        W48362   1.681  35.793  14.340
81954W        W48363  38.126  30.977  13.006
81955W        W48364  35.997   8.758  12.435
81956W        W48365  20.114  11.238  12.022
81957W        W48366   8.167   7.331  10.363
81958W        W48367  20.426  32.936  13.766
81959W        W48368   8.245  15.645   4.702
81960W        W48369  19.153  18.808   0.167
81961W        W48370  37.318  32.305  13.097
81962W        W48371  41.998  23.773   3.313
81963W        W48372   6.216  11.106  12.600
81964W        W48373   0.910  39.973  11.558
81965W        W48374  33.130  25.549  12.133
81966W        W48375  20.253  44.936  12.618
81967W        W48376  25.156  36.316  10.716
81968W        W48377  18.822  24.888   3.073
81969W        W48378  38.171  36.212   0.348
81970W        W48379  10.415  35.635   3.812
81971W        W48380  36.579  23.713   1.140
81972W        W48381  17.228   1.592  14.745
81973W        W48382  27.720  17.500  12.379
81974W        W48383  16.540  20.295  14.461
81975W        W48384   7.976  23.455   5.426
81976W        W48385   2.871  33.352   4.211
81977W        W48386  14.177   2.047   4.179
81978W        W48387  19.946  10.103   4.797
81979W        W48388  23.744  32.573  11.084
81980W        W48389  11.514   6.699   3.382
81981W        W48390   3.268  30.993   1.760
81982W        W48391  20.342   2.490   1.845
81983W        W48392  14.300  16.733   3.813
81984W        W48393  16.751   9.090  11.563
81985W        W48394   9.628  22.197   4.495
81986W        W48395  22.967  39.954   1.768
81987W        W48396  25.560   8.646  11.657
81988W        W48397   9.079  14.677   0.338
81989W        W48398  30.486  30.886   2.669
81990W        W48399  29.503  41.587  13.407
81991W        W48400   7.424  24.650   1.353
81992W        W48401  37.648  23.658   0.298
81993W        W48402  31.368  23.718   4.459
81994W        W48403  32.310  22.718   4.629
81995W        W48404  22.103  22.793   3.596
81996W        W48405   8.554  20.559  11.986
81997W        W48406  35.402  32.160  10.701
81998W        W48407  31.682  19.096   1.804
81999W        W48408  32.652  34.304   0.898
82000W        W48409   4.332  35.351  13.706
82001W        W48410  35.450  10.638   3.351
82002W        W48411  37.008  32.664  10.632
82003W        W48412  25.840   7.448   4.195
82004W        W48413   6.685  20.206  14.844
82005W        W48414  32.854  41.556  12.568
82006W        W48415  41.017  29.590  10.549
82007W        W48416  29.197   3.470   3.406
82008W        W48417  35.864  31.441   3.120
82009W        W48418  36.555  27.035   1.419
82010W        W48419  34.374   2.675  12.150
82011W        W48420  24.468  20.009   3.083
82012W        W48421  35.741   2.906  11.571
82013W        W48422  11.882  41.088   3.154
82014W        W48423  16.109  43.906   4.918
82015W        W48424   8.672  15.122  12.422
82016W        W48425  26.159  29.864   0.271
82017W        W48426   4.219   0.563   1.706
82018W        W48427  14.349  41.713   4.161
82019W        W48428  42.327  25.757   3.346
82020W        W48429  38.890  35.338   4.960
82021W        W48430  19.684  42.443   2.796
82022W        W48431   9.814  30.537   1.383
82023W        W48432  41.398  43.463  13.057
82024W        W48433  18.502  13.190  11.201
82025W        W48434  25.043   4.681  10.668
82026W        W48435  35.510  15.173   3.844
82027W        W48436   2.650   7.203   2.751
82028W        W48437  16.773  35.069  10.768
82029W        W48438   7.396  42.717   0.932
82030W        W48439  19.761  23.211   5.191
82031W        W48440  33.506  44.971   0.227
82032W        W48441   0.722  24.080  12.905
82033W        W48442  36.919  24.427  10.806
82034W        W48443  10.126  29.966   4.291
82035W        W48444  14.214  14.346   1.236
82036W        W48445  41.677  14.152  11.221
82037W        W48446  40.929  43.316  13.257
82038W        W48447  33.423  44.317   2.224
82039W        W48448  18.470  41.478  11.563
82040W        W48449   9.874  30.868  11.576
82041W        W48450   3.495   9.259  10.841
82042W        W48451   8.075  31.626  12.927
82043W        W48452  33.021  13.928   3.295
82044W        W48453   5.839  32.054   1.969
82045W        W48454  16.990  33.618   4.916
82046W        W48455  15.778  43.780   1.827
82047W        W48456  21.481  43.563  13.152
82048W        W48457  34.961   8.201  10.555
82049W        W48458  18.420   6.756   4.062
82050W        W48459   9.890  27.618  11.971
82051W        W48460  13.374  24.956   3.770
82052W        W48461   4.310  29.871  12.669
82053W        W48462  27.857  25.698  13.018
82054W        W48463  21.824   8.376  10.632
82055W        W48464   1.345  13.643   2.885
82056W        W48465   8.977  12.413  12.046
82057W        W48466  24.445  20.270   0.276
82058W        W48467   1.509  30.195   4.717
82059W        W48468  17.694   0.814  14.939
82060W        W48469  32.441  44.334   3.223
82061W        W48470  40.546   8.026   4.897
82062W        W48471  41.557  24.405   0.424
82063W        W48472  32.272   5.517   9.957
82064W        W48473  24.608  33.323   2.385
82065W        W48474  43.047  43.299   1.871
82066W        W48475  38.176  21.146   3.769
82067W        W48476  33.066   2.735   1.649
82068W        W48477  10.396   9.176   0.647
82069W        W48478  41.022  16.528   1.922
82070W        W48479  44.976   0.179  12.566
82071W        W48480  41.730  38.352  13.479
82072W        W48481  20.338  38.070  13.945
82073W        W48482  40.415   3.929  12.523
82074W        W48483  25.314  24.957   0.728
82075W        W48484  29.467  27.850  14.905
82076W        W48485  31.972  22.437  10.808
82077W        W48486  32.978   8.432   4.579
82078W        W48487  27.989  38.843  12.399
82079W        W48488   7.602  15.326   2.835
82080W        W48489  16.845   1.464   4.528
82081W        W48490  30.363  23.495  13.085
82082W        W48491  39.724  35.921   3.303
82083W        W48492   3.416   2.976  10.639
82084W        W48493  16.479   3.401  12.887
82085W        W48494  21.559  27.653   3.222
82086W        W48495  17.571   8.740   1.923
82087W        W48496  35.615  10.175  13.552
82088W        W48497  11.399  40.520  13.920
82089W        W48498  26.941  26.081   0.280
82090W        W48499   9.103  23.143  12.067
82091W        W48500  36.841  37.598  11.198
82092W        W48501  23.573  27.626   1.240
82093W        W48502  39.809  37.394   2.269
82094W        W48503   3.919   2.390  10.573
82095W        W48504  39.493   5.768   4.201
82096W        W48505   9.167  35.931   3.577
82097W        W48506   4.201  31.898   1.900
82098W        W48507  15.766  44.920  13.083
82099W        W48508  37.895   6.703   0.995
82100W        W48509  34.886  36.829   2.377
82101W        W48510  29.548  29.225   4.637
82102W        W48511   7.390  10.657   3.023
82103W        W48512  16.220   4.050   2.552
82104W        W48513  43.363  41.890  14.955
82105W        W48514  13.474   2.996   4.511
82106W        W48515   8.752  15.254   0.493
82107W        W48516  35.023  29.504   0.763
82108W        W48517  19.853  12.191  13.951
82109W        W48518  42.111  33.938   1.943
82110W        W48519  40.441  17.734   1.616
82111W        W48520  21.573  23.398  13.397
82112W        W48521   8.668  37.962  12.505
82113W        W48522  17.580  15.473   1.719
82114W        W48523   0.919   7.972  13.508
82115W        W48524  35.025  41.069   3.630
82116W        W48525   4.686   7.571  10.464
82117W        W48526  26.950  41.309  11.144
82118W        W48527  14.709  26.946   0.675
82119W        W48528   8.173   6.366  11.600
82120W        W48529  16.775  21.661  11.755
82121W        W48530  21.081  32.125   3.130
82122W        W48531  41.310  13.194   3.211
82123W        W48532  12.334  31.908   4.701
82124W        W48533   6.024  16.399  13.395
82125W        W48534  24.206  28.432  13.418
82126W        W48535  44.398  19.640   2.495
82127W        W48536  43.513  27.663  14.001
82128W        W48537  22.212  30.719   3.445
82129W        W48538   3.804  19.756  13.492
82130W        W48539  43.467  32.670  11.044
82131W        W48540  40.061  18.264   3.581
82132W        W48541  14.157  36.581  11.187
82133W        W48542  37.965  17.365   0.985
82134W        W48543  42.394  17.856   2.817
82135W        W48544   6.584   0.763  11.574
82136W        W48545  25.236  12.233   3.290
82137W        W48546  14.263  39.695  13.319
82138W        W48547  34.575  29.557   0.487
82139W        W48548  31.009  41.664  11.608
82140W        W48549  23.756  10.908   3.273
82141W        W48550  14.623  24.953   1.876
82142W        W48551  12.520  18.785   1.958
82143W        W48552  19.503  16.612  10.638
82144W        W48553  18.752  44.512  12.782
82145W        W48554  20.667  23.583   0.355
82146W        W48555  18.829   1.379  14.640
82147W        W48556  20.310   5.876  13.109
82148W        W48557  28.424  24.967  10.836
82149W        W48558  15.376  31.963  14.339
82150W        W48559  42.401  16.935   3.209
82151W        W48560  42.057  31.093   2.756
82152W        W48561  42.768   2.165  12.106
82153W        W48562   6.685  35.878  11.150
82154W        W48563  43.842  26.160   0.772
82155W        W48564  43.850   5.710  11.366
82156W        W48565  12.452  22.399   3.156
82157W        W48566  19.633  13.378   1.794
82158W        W48567  31.567  11.810   0.067
82159W        W48568   7.614   3.940   2.978
82160W        W48569  26.557  44.255   2.456
82161W        W48570  34.318  20.565  12.053
82162W        W48571  26.778  36.009  13.437
82163W        W48572  26.270  34.846  14.003
82164W        W48573  43.086  44.462  10.720
82165W        W48574  38.369  10.667   2.916
82166W        W48575  28.046  19.550  12.040
82167W        W48576   6.919  24.134   4.063
82168W        W48577  44.019  12.501  12.577
82169W        W48578  38.814  16.138   1.270
82170W        W48579   6.149   8.744  13.379
82171W        W48580  17.084   0.046   3.727
82172W        W48581  35.071  29.756   1.334
82173W        W48582  30.939  16.563  13.156
82174W        W48583   2.015  18.483  12.941
82175W        W48584  29.137  39.448  11.133
82176W        W48585  33.454  10.455   4.222
82177W        W48586  36.673  41.016  14.268
82178W        W48587   6.863  15.428  13.289
82179W        W48588   3.857  17.645  14.479
82180W        W48589   9.332  38.580   4.593
82181W        W48590  30.986   8.009   3.270
82182W        W48591  19.312  31.283   1.631
82183W        W48592  41.571  15.657   4.069
82184W        W48593  13.014   8.246   0.124
82185W        W48594  18.295  34.993  12.886
82186W        W48595  29.297  19.552  11.586
82187W        W48596  34.384  11.238  14.030
82188W        W48597   2.176   2.182  13.406
82189W        W48598  41.185  11.105  12.976
82190W        W48599  24.426   0.034  12.449
82191W        W48600  34.409  27.484  12.895
82192W        W48601  37.555  40.284   2.760
82193W        W48602   5.267  23.518   0.319
82194W        W48603  21.791  11.278   4.073
82195W        W48604  25.573  13.580   1.329
82196W        W48605  37.763  37.708   0.289
82197W        W48606   2.438  34.401   3.313
82198W        W48607  32.435  44.770  11.491
82199W        W48608  23.290  29.587  11.262
82200W        W48609  36.074  26.918  12.166
82201W        W48610  42.777  21.629  13.427
82202W        W48611  13.689   0.296   0.830
82203W        W48612  21.515  30.919   1.859
82204W        W48613  42.340  16.013   2.820
82205W        W48614  19.577  37.004  14.394
82206W        W48615   0.750  31.588  11.109
82207W        W48616  28.552  21.238   3.003
82208W        W48617  11.318   4.176   0.492
82209W        W48618  41.296  29.404   1.144
82210W        W48619  19.602  26.756   3.296
82211W        W48620   1.938  14.624  13.113
82212W        W48621  40.407  15.157  11.851
82213W        W48622  26.729   9.424   3.578
82214W        W48623  36.336  15.559   5.072
82215W        W48624  34.583   4.291   2.899
82216W        W48625  16.714  26.752   3.290
82217W        W48626  35.578  10.116   0.560
82218W        W48627  20.799   2.975   4.773
82219W        W48628  15.159  12.872  11.116
82220W        W48629  41.785  14.677  11.224
82221W        W48630  18.513   3.956   1.707
82222W        W48631  22.276  17.982   4.661
82223W        W48632  43.711  29.676  11.126
82224W        W48633  31.632  16.377  14.910
82225W        W48634  19.074  18.240  14.053
82226W        W48635  34.336  25.121  13.537
82227W        W48636  37.705  26.313  11.587
82228W        W48637  20.122  29.250   4.134
82229W        W48638   8.242  20.098  11.349
82230W        W48639   2.976  23.908  10.550
82231W        W48640  30.538  44.322  13.395
82232W        W48641  37.501  27.105  11.827
82233W        W48642  33.721  12.151  14.154
82234W        W48643  20.953  26.993   4.835
82235W        W48644  14.834  41.646  11.960
82236W        W48645  38.885   7.777  12.220
82237W        W48646  16.067  31.299   4.921
82238W        W48647  42.643  17.565  14.175
82239W        W48648  10.792   6.214   0.481
82240W        W48649  42.374  17.316   3.544
82241W        W48650  16.282  15.019  12.864
82242W        W48651  13.274   4.498   2.741
82243W        W48652   3.301  19.365   0.828
82244W        W48653  32.079  28.185   4.613
82245W        W48654   8.241   0.011   3.403
82246W        W48655  36.349  35.593  11.320
82247W        W48656  35.754  20.975   3.645
82248W        W48657  13.816  32.342   0.366
82249W        W48658  20.769  19.696   0.451
82250W        W48659   1.482   5.118   0.370
82251W        W48660   1.466   1.074   1.176
82252W        W48661  31.034  28.619   3.732
82253W        W48662  36.264   1.830   5.005
82254W        W48663   0.449   8.718  14.931
82255W        W48664  22.836   3.354   3.891
82256W        W48665  16.668  13.667   0.311
82257W        W48666  20.773  21.070   0.459
82258W        W48667  16.850  37.443   1.251
82259W        W48668  16.694  43.373   4.904
82260W        W48669  35.859  29.725  14.920
82261W        W48670  18.008   8.143  11.975
82262W        W48671   8.331  13.886   2.367
82263W        W48672   2.358  18.063  13.992
82264W        W48673  10.808  26.115   3.124
82265W        W48674  44.916  41.475  11.901
82266W        W48675   3.850  35.165  13.784
82267W        W48676  29.662  44.361   2.842
82268W        W48677  39.035   9.643   1.985
82269W        W48678  32.341  38.512  14.997
82270W        W48679  42.024  41.986   2.827
82271W        W48680  44.930  30.124   1.296
82272W        W48681  19.188  33.826  12.336
82273W        W48682  28.050  33.193   3.139
82274W        W48683  41.895  41.957  11.596
82275W        W48684  44.860  23.554  11.911
82276W        W48685  26.209  26.653  11.190
82277W        W48686  41.765  10.930   4.148
82278W        W48687  36.027   7.428  13.792
82279W        W48688  32.481  31.852   4.006
82280W        W48689  35.480  40.873  11.700
82281W        W48690  39.876  41.429  14.565
82282W        W48691  18.241  25.673  13.096
82283W        W48692   7.918   1.529   3.632
82284W        W48693   4.054   4.582  13.830
82285W        W48694  40.352  37.315   1.400
82286W        W48695  21.033   3.399   4.533
82287W        W48696  33.901  37.630   1.243
82288W        W48697  41.934  24.544  10.661
82289W        W48698   4.844  30.037   4.793
82290W        W48699   0.415  40.033  11.855
82291W        W48700  10.561  13.233  12.481
82292W        W48701  40.030  42.965   0.186
82293W        W48702  13.695  30.455   0.198
82294W        W48703  43.064   2.023   0.712
82295W        W48704  17.800  27.804  10.884
82296W        W48705  23.430  13.224   2.260
82297W        W48706   7.837  25.886   4.991
82298W        W48707   4.907   0.005  14.979
82299W        W48708  18.028   0.185   3.642
82300W        W48709  40.273   5.111   4.055
82301W        W48710   7.408  10.387  14.032
82302W        W48711  27.231  35.417   1.689
82303W        W48712   4.644  29.871   1.630
82304W        W48713  35.390  40.398  12.495
82305W        W48714  40.074  10.822  14.900
82306W        W48715   1.446  13.763  14.119
82307W        W48716  23.740   9.377  14.500
82308W        W48717   2.970  33.709  13.386
82309W        W48718  41.666  15.202   4.287
82310W        W48719  27.270  34.853  14.715
82311W        W48720   4.385  26.273  11.767
82312W        W48721  40.609  41.273  11.603
82313W        W48722  41.472  37.151  13.994
82314W        W48723  12.375  30.984  14.468
82315W        W48724   8.192  32.708  11.617
82316W        W48725   1.060  11.779   1.132
82317W        W48726   3.923  41.453   1.140
82318W        W48727  11.453  34.939  12.757
82319W        W48728   5.746  11.411   4.591
82320W        W48729   0.769  22.783  13.441
82321W        W48730  25.142   1.783   2.311
82322W        W48731   3.801  15.665   2.309
82323W        W48732   6.679  37.613   2.012
82324W        W48733  18.562  38.486  14.938
82325W        W48734  41.597   5.471  11.643
82326W        W48735   2.828  43.883  14.335
82327W        W48736  33.843  27.201  14.444
82328W        W48737  10.826  42.810  12.838
82329W        W48738  42.438  15.206  13.964
82330W        W48739   8.330  12.491   4.736
82331W        W48740  44.347  21.536   1.711
82332W        W48741  16.743  31.987  12.500
82333W        W48742   8.562   8.534   3.676
82334W        W48743   4.273  41.421   2.253
82335W        W48744  18.087  16.198   2.751
82336W        W48745  39.446   9.315  13.954
82337W        W48746  13.081  39.489  12.087
82338W        W48747  16.852  17.098  12.852
82339W        W48748  23.172  32.121  11.693
82340W        W48749   7.746  36.939   0.840
82341W        W48750   0.684   2.295  12.072
82342W        W48751  39.510  18.573   3.972
82343W        W48752  39.957  20.071  11.152
82344W        W48753  44.000  10.775   2.324
82345W        W48754  23.103  14.812  11.181
82346W        W48755  14.082  27.200   3.609
82347W        W48756  28.966  32.369  12.922
82348W        W48757  11.941  24.170   0.901
82349W        W48758  43.800   6.703  11.540
82350W        W48759  29.155  36.574  14.845
82351W        W48760  12.773   0.979   3.698
82352W        W48761  32.115  22.127  11.232
82353W        W48762  15.662  24.320   5.017
82354W        W48763  37.519   7.387   1.320
82355W        W48764  10.148  23.993   3.824
82356W        W48765  11.107   5.274  13.968
82357W        W48766  26.182  15.868   0.951
82358W        W48767  21.917  20.559   3.243
82359W        W48768  11.140  17.827  10.459
82360W        W48769  31.642  17.261  12.377
82361W        W48770  30.521  13.773  13.857
82362W        W48771  21.109   9.406  13.302
82363W        W48772  42.534  25.350  11.203
82364W        W48773  38.340   9.301   1.849
82365W        W48774   0.022   3.108   1.169
82366W        W48775  31.869   6.577  14.893
82367W        W48776   7.740  35.094  11.192
82368W        W48777  14.757   7.252  11.449
82369W        W48778  12.320   1.478  13.062
82370W        W48779  37.581  44.587  11.007
82371W        W48780  21.878  38.061  12.606
82372W        W48781   4.938  24.975  11.686
82373W        W48782   4.978  40.509   4.166
82374W        W48783  13.905  15.270   4.197
82375W        W48784  37.494  27.007   3.684
82376W        W48785  19.834  10.500  12.528
82377W        W48786  31.618  28.305   3.291
82378W        W48787  14.516  39.714   4.608
82379W        W48788  35.500   0.718   4.313
82380W        W48789  33.027  12.762   3.591
82381W        W48790  18.671  29.355  11.307
82382W        W48791  27.162  22.433  11.971
82383W        W48792  23.314  14.591   3.429
82384W        W48793   8.183  11.428   3.776
82385W        W48794  12.799  23.970   3.817
82386W        W48795  19.479  44.440   1.366
82387W        W48796  24.161   7.033   1.909
82388W        W48797  30.934  12.240   0.515
82389W        W48798  15.363  44.383  14.134
82390W        W48799  23.747   9.622  14.047
82391W        W48800  13.419  31.517  11.561
82392W        W48801   8.228  19.843   0.154
82393W        W48802  11.258  26.984   1.419
82394W        W48803  13.734  28.969   2.307
82395W        W48804  26.933  27.255   4.099
82396W        W48805  16.271  18.988  11.621
82397W        W48806  13.146  25.885  12.955
82398W        W48807  44.800  21.287   1.753
82399W        W48808   5.993  31.351  12.860
82400W        W48809  25.569  37.427   2.225
82401W        W48810  20.849   2.496   4.071
82402W        W48811  26.599  22.210  14.309
82403W        W48812  31.522   9.272   1.194
82404W        W48813  30.100   5.962   2.290
82405W        W48814   9.580   6.196  14.787
82406W        W48815  12.086   0.588   0.248
82407W        W48816  18.063  29.128   2.345
82408W        W48817  22.312  36.773  14.147
82409W        W48818  23.383  17.528   2.178
82410W        W48819   9.080  40.734  14.094
82411W        W48820  41.415   2.971  13.038
82412W        W48821  16.194   4.816   0.351
82413W        W48822  19.303  17.286   1.166
82414W        W48823  35.008  44.485   2.189
82415W        W48824  13.609  38.494   4.727
82416W        W48825  26.612  13.423  11.750
82417W        W48826  30.836  40.006   4.181
82418W        W48827  25.479  44.001   3.820
82419W        W48828   1.010   9.730  12.188
82420W        W48829  17.867   5.797  14.347
82421W        W48830   9.997  37.190  13.981
82422W        W48831  33.712   5.531  14.926
82423W        W48832  10.060  40.013  11.723
82424W        W48833  28.488  42.998  12.185
82425W        W48834  42.021  12.094  10.535
82426W        W48835   7.467  30.060   1.998
82427W        W48836  30.103  13.034  12.213
82428W        W48837  43.774  15.242  14.844
82429W        W48838  32.583  18.048   1.398
82430W        W48839  24.987  17.987   4.135
82431W        W48840  32.352  13.621   4.322
82432W        W48841  44.758   9.502   3.493
82433W        W48842  19.653  33.682  11.027
82434W        W48843  23.316  37.113   4.533
82435W        W48844  16.813   4.737  13.904
82436W        W48845  32.661   5.939   3.268
82437W        W48846  43.064  38.309  11.682
82438W        W48847  40.597   5.906  14.971
82439W        W48848  25.061  18.133  10.609
82440W        W48849  12.147  15.355  11.413
82441W        W48850  18.703  16.392   3.840
82442W        W48851  15.693  32.831   0.272
82443W        W48852  43.414  26.052   3.656
82444W        W48853  26.998  17.601  14.446
82445W        W48854  27.287   2.273   5.015
82446W        W48855   5.168  19.337  10.721
82447W        W48856  28.644  26.766   3.785
82448W        W48857  17.487   5.601   4.103
82449W        W48858  41.955  18.096   0.816
82450W        W48859   5.134  43.839   0.536
82451W        W48860  15.281  37.402   1.673
82452W        W48861  34.032   0.844   0.395
82453W        W48862   0.542   6.038   0.561
82454W        W48863  32.430  29.612   1.164
82455W        W48864   2.444   6.394   4.582
82456W        W48865  34.393  35.044   0.205
82457W        W48866  24.463   7.238   0.782
82458W        W48867  13.205  33.966   1.125
82459W        W48868  17.233  39.285  11.865
82460W        W48869  10.913   2.813   4.042
82461W        W48870  43.905  23.467  11.491
82462W        W48871  35.558  32.417  14.393
82463W        W48872   7.721  38.386   1.000
82464W        W48873  20.561   4.549  12.422
82465W        W48874  30.886   3.811  13.668
82466W        W48875  12.352  42.794   2.898
82467W        W48876  38.534  21.779  11.918
82468W        W48877   3.800  17.314   2.676
82469W        W48878  29.043  31.798  13.605
82470W        W48879  38.888  44.243  12.973
82471W        W48880   4.910  32.588  13.576
82472W        W48881  15.703  17.506   1.739
82473W        W48882  29.230  25.143  12.052
82474W        W48883  14.539  15.857  14.578
82475W        W48884  38.078   2.923  10.599
82476W        W48885  38.331  25.106   0.327
82477W        W48886  16.338  44.025   0.279
82478W        W48887   7.276  37.842   2.807
82479W        W48888  44.779  19.768   2.129
82480W        W48889  17.158  32.073  14.072
82481W        W48890   0.495  18.315  10.834
82482W        W48891  17.788  42.785  13.949
82483W        W48892  11.658  39.441  13.049
82484W        W48893  15.230   5.846  10.947
82485W        W48894  21.845  12.187  11.107
82486W        W48895   7.014  21.839   1.333
82487W        W48896  14.755  12.569  14.810
82488W        W48897   0.563   2.927   0.294
82489W        W48898  15.158  19.782   0.466
82490W        W48899  32.918  33.863  11.248
82491W        W48900  19.170  30.938   3.636
82492W        W48901  10.112  23.629   0.533
82493W        W48902   5.910   7.937  11.102
82494W        W48903  32.390  11.351  12.562
82495W        W48904  38.112   3.268  14.611
82496W        W48905  23.256  39.198   2.834
82497W        W48906   3.715  27.421   2.402
82498W        W48907  35.945  10.564   3.639
82499W        W48908   8.257  23.558   2.382
82500W        W48909  21.091  12.932   4.260
82501W        W48910  28.688   3.783   2.341
82502W        W48911   7.214  33.208   0.403
82503W        W48912  26.396  23.162  10.804
82504W        W48913  19.514   2.155   3.089
82505W        W48914  37.631   1.384  12.921
82506W        W48915  15.607  25.801  13.367
82507W        W48916  13.172  43.478   3.441
82508W        W48917  41.941  27.347   2.689
82509W        W48918  21.076  43.537   1.914
82510W        W48919  17.690  37.597  14.495
82511W        W48920   4.306  17.941   0.747
82512W        W48921  27.369   6.087   0.822
82513W        W48922  42.359  42.392  11.977
82514W        W48923   6.510   1.363  13.663
82515W        W48924  42.738  35.295   1.975
82516W        W48925  27.310  24.021   2.687
82517W        W48926  10.249  10.152   2.363
82518W        W48927  38.068   2.000  12.685
82519W        W48928  18.655  38.505  13.567
82520W        W48929  13.276  37.442  14.737
82521W        W48930  16.828  44.688   1.261
82522W        W48931  16.186   3.570  14.961
82523W        W48932   1.395  14.896   1.454
82524W        W48933   4.518  20.161   1.894
82525W        W48934  29.768  31.411   2.305
82526W        W48935  29.420  40.820  13.075
82527W        W48936   5.146  29.920   1.776
82528W        W48937   0.249  34.078  12.528
82529W        W48938  21.950  44.328  12.008
82530W        W48939  34.491  37.136   3.758
82531W        W48940  33.160   0.863   2.045
82532W        W48941  21.079  37.659  12.560
82533W        W48942  36.534   0.805   1.192
82534W        W48943   9.643  18.031   4.840
82535W        W48944  44.621  32.004   4.633
82536W        W48945  26.251  27.904   3.860
82537W        W48946   7.644   7.830   1.890
82538W        W48947  23.770   7.651  12.338
82539W        W48948  18.292  28.199   0.342
82540W        W48949  10.805   7.313  12.087
82541W        W48950   9.088  44.882   3.186
82542W        W48951  34.558  23.891  10.773
82543W        W48952   7.732  21.116   4.506
82544W        W48953  15.388  37.322  13.977
82545W        W48954   2.897  26.650   3.815
82546W        W48955  18.141  17.714  13.049
82547W        W48956   1.917  10.499   1.997
82548W        W48957  32.832   5.446  12.090
82549W        W48958   5.021  39.960   4.315
82550W        W48959   4.493  16.113  11.888
82551W        W48960   0.984  39.954   1.863
82552W        W48961  44.202  41.589  12.611
82553W        W48962  31.079  36.477   0.547
82554W        W48963   0.486   5.010  13.049
82555W        W48964   0.604   1.642   4.191
82556W        W48965  16.467  42.568  11.823
82557W        W48966  44.955  24.136   1.487
82558W        W48967   1.844   8.345  14.882
82559W        W48968  36.031  24.216   2.709
82560W        W48969  26.544  35.990   0.760
82561W        W48970  12.947  17.735   3.157
82562W        W48971  37.514  27.220  13.966
82563W        W48972   0.779  20.223   0.319
82564W        W48973  37.080  23.438  12.191
82565W        W48974  31.487  25.087   0.003
82566W        W48975  39.443   9.155   3.371
82567W        W48976  14.127   5.124   1.252
82568W        W48977  21.725  27.982   3.588
82569W        W48978  28.611  41.580  13.502
82570W        W48979  36.157  17.927  10.998
82571W        W48980  21.524   9.607  12.505
82572W        W48981   5.955   3.747   3.845
82573W        W48982  16.779  15.072   0.405
82574W        W48983  42.522  39.418   3.768
82575W        W48984  16.460  10.276  14.067
82576W        W48985  18.305   1.010  11.626
82577W        W48986  14.395  37.852  13.419
82578W        W48987   1.643  43.551   4.131
82579W        W48988  28.112  36.951   0.747
82580W        W48989   0.002  20.255   2.202
82581W        W48990   5.931   1.530  14.753
82582W        W48991  20.861  21.301  11.935
82583W        W48992   9.330  39.047   0.833
82584W        W48993  22.500  26.188   0.398
82585W        W48994  43.446   6.288   4.479
82586W        W48995  40.527  20.083   1.878
82587W        W48996   7.593  18.667   0.366
82588W        W48997  18.844   4.740   0.888
82589W        W48998   9.281  26.906  12.869
82590W        W48999  12.778  30.749  12.535
82591W        W49000  11.264   5.650  11.455
82592W        W49001  22.206   4.502   4.400
82593W        W49002  26.679  25.489   2.210
82594W        W49003  40.598  13.431  14.785
82595W        W49004  10.242  18.484   1.660
82596W        W49005  37.646  34.940   4.757
82597W        W49006   7.139  19.719   0.912
82598W        W49007   9.900  36.930  13.523
82599W        W49008  16.740  11.613   2.197
82600W        W49009  35.399  30.194   4.231
82601W        W49010  12.059  31.463   4.751
82602W        W49011  12.126   8.837  13.528
82603W        W49012   2.855  29.989  11.760
82604W        W49013  15.404  40.015   3.782
82605W        W49014  17.776  38.884   0.869
82606W        W49015   7.104  12.012  11.035
82607W        W49016  38.798   3.784   0.667
82608W        W49017  42.564  36.363  10.997
82609W        W49018   3.409   4.580  12.625
82610W        W49019  23.593  38.274   1.209
82611W        W49020  28.732  14.629  12.505
82612W        W49021   7.422   0.353   0.887
82613W        W49022  24.015   8.180   2.859
82614W        W49023  40.567   4.255   0.825
82615W        W49024  36.551  40.439  14.864
82616W        W49025   3.500  22.569  12.793
82617W        W49026  13.473   0.179  12.974
82618W        W49027  10.299  32.925   2.095
82619W        W49028   1.240  34.767  12.000
82620W        W49029   7.339  44.463  11.209
82621W        W49030   3.258  20.019  14.382
82622W        W49031  38.905  27.997  13.586
82623W        W49032  37.103  37.424  13.857
82624W        W49033   7.536  12.628   3.156
82625W        W49034  26.983  11.083   4.083
82626W        W49035   0.305  22.508  11.083
82627W        W49036  10.908  42.407   1.876
82628W        W49037  22.986  20.011   0.220
82629W        W49038  35.755   1.991  13.690
82630W        W49039  21.045  26.444  10.649
82631W        W49040  43.926  42.993   1.451
82632W        W49041  23.776  40.379   0.652
82633W        W49042  11.715  12.445  12.984
82634W        W49043  44.325  34.613   4.612
82635W        W49044  23.311  20.087  13.293
82636W        W49045  43.768  29.101  12.546
82637W        W49046  37.276  12.842   2.827
82638W        W49047  13.534  38.551   3.105
82639W        W49048  19.309  40.845   1.150
82640W        W49049  16.319  14.231  11.212
82641W        W49050  43.487   3.430  12.895
82642W        W49051  44.863  23.664   0.744
82643W        W49052  37.784  40.808   4.706
82644W        W49053  36.512  41.075   1.808
82645W        W49054   8.180  39.284   0.202
82646W        W49055  33.619  25.089   3.425
82647W        W49056   9.459  14.541   2.362
82648W        W49057  12.753  15.983   4.994
82649W        W49058  21.601  34.100   1.446
82650W        W49059  20.728  33.391   1.490
82651W        W49060  28.110   1.308   4.672
82652W        W49061  28.118  31.535   3.180
82653W        W49062  37.217  13.197   3.636
82654W        W49063  41.296  20.727   2.136
82655W        W49064  41.456  17.647  12.444
82656W        W49065  40.380  12.751  13.407
82657W        W49066  29.097  41.706   3.260
82658W        W49067  21.271   0.344  13.106
82659W        W49068   4.636  38.434  12.930
82660W        W49069   9.299  39.575  12.761
82661W        W49070   3.566   9.225   3.039
82662W        W49071  13.067  31.693   1.829
82663W        W49072  44.966  34.163  12.952
82664W        W49073  27.889  23.153   1.000
82665W        W49074   4.413  14.436  13.845
82666W        W49075   6.719  11.197  10.476
82667W        W49076   2.436  39.041   1.093
82668W        W49077   7.399  10.517   9.815
82669W        W49078  35.791   0.225   4.956
82670W        W49079  43.917  20.066   3.661
82671W        W49080  10.428  42.758   1.648
82672W        W49081  22.090  25.239  13.412
82673W        W49082  29.645   8.907  11.073
82674W        W49083  13.899  33.659  10.879
82675W        W49084  22.473  32.093   1.335
82676W        W49085  21.667   5.774  12.962
82677W        W49086   3.179  38.326   3.201
82678W        W49087  34.889  15.812   3.610
82679W        W49088  31.468   8.393   0.657
82680W        W49089  23.838  17.166  12.782
82681W        W49090  42.336   1.940  14.027
82682W        W49091  10.365   6.677  11.496
82683W        W49092  12.138  23.658  10.617
82684W        W49093  40.291   3.742   1.127
82685W        W49094  42.831   1.373   1.897
82686W        W49095  26.016   8.349   2.509
82687W        W49096  10.845  20.100   0.358
82688W        W49097   5.704  38.372  11.489
82689W        W49098   3.745  23.651   2.659
82690W        W49099  34.539  31.539   1.692
82691W        W49100  21.745   6.140  11.504
82692W        W49101  40.369  32.725   4.275
82693W        W49102  13.527  15.625  12.175
82694W        W49103   7.348   5.184   3.352
82695W        W49104  43.272  21.160   3.152
82696W        W49105  28.644  33.464  10.571
82697W        W49106  40.746  23.666  14.121
82698W        W49107  31.442  40.609   3.162
82699W        W49108  12.393  12.870  14.800
82700W        W49109  39.551   2.677   1.907
82701W        W49110   1.075  39.831   3.237
82702W        W49111  30.492   6.719  11.947
82703W        W49112  22.072  25.064  10.653
82704W        W49113  27.916  22.315  13.091
82705W        W49114  33.113   3.350  12.121
82706W        W49115  10.641  24.299   2.621
82707W        W49116  20.243  35.844  13.324
82708W        W49117  21.097  37.556  11.618
82709W        W49118  17.108  34.166   4.200
82710W        W49119   3.344  39.417  10.758
82711W        W49120  20.944  18.205   2.276
82712W        W49121  13.604  27.439   0.371
82713W        W49122  21.744  10.004   1.790
82714W        W49123  33.556  29.704  11.752
82715W        W49124  22.613  37.231  13.471
82716W        W49125   2.239  22.282  10.626
82717W        W49126   6.845   2.538   1.192
82718W        W49127   9.212  14.258  14.364
82719W        W49128  20.747  19.642  11.674
82720W        W49129   2.170  36.585   4.183
82721W        W49130  23.632  26.850  10.699
82722W        W49131   8.226  23.198  12.031
82723W        W49132  21.678  42.307  11.574
82724W        W49133  26.758  15.070  12.038
82725W        W49134  20.283  34.816   0.878
82726W        W49135  43.845  24.660  12.336
82727W        W49136   7.847  20.976  11.661
82728W        W49137  17.424  17.242   5.598
82729W        W49138   5.737  21.944  14.612
82730W        W49139  10.481  24.957   3.676
82731W        W49140  34.800   2.156   0.356
82732W        W49141  15.370   0.299   2.397
82733W        W49142  42.820  11.191   3.207
82734W        W49143  41.303  41.630   2.895
82735W        W49144  16.219  37.665  14.818
82736W        W49145   3.685  14.198  10.583
82737W        W49146  35.560   5.877  13.418
82738W        W49147   9.591  24.994  10.313
82739W        W49148  31.457  23.479   3.164
82740W        W49149  38.452  44.315   4.230
82741W        W49150  23.442   7.826   0.283
82742W        W49151  35.441   4.201   1.848
82743W        W49152  39.395   7.943  10.844
82744W        W49153   2.971  43.737  11.404
82745W        W49154  17.255  44.803   3.306
82746W        W49155  39.382   4.473   2.283
82747W        W49156  20.102  18.876   4.296
82748W        W49157  22.333  44.810  10.370
82749W        W49158  35.968  34.151  14.429
82750W        W49159  43.208  21.101  14.055
82751W        W49160   1.416  16.745  11.870
82752W        W49161  41.355   8.718  12.589
82753W        W49162  38.714   9.480   2.769
82754W        W49163   2.995  40.065   3.275
82755W        W49164  39.924  35.450   2.364
82756W        W49165  43.047   6.904   4.954
82757W        W49166  42.652  42.374  10.208
82758W        W49167   5.700  14.165   0.181
82759W        W49168  29.171  28.431   4.683
82760W        W49169  34.662  42.956  14.547
82761W        W49170  18.021  24.533  12.575
82762W        W49171   9.935  28.549  13.344
82763W        W49172  37.976  44.939   3.771
82764W        W49173  44.527  32.342  12.235
82765W        W49174  38.104  40.470   0.874
82766W        W49175   2.514  20.101   2.239
82767W        W49176  27.524  24.472  10.782
82768W        W49177  42.269  28.548  12.116
82769W        W49178   0.321   6.451  11.787
82770W        W49179   1.514  12.612   0.407
82771W        W49180   6.886  14.189  10.620
82772W        W49181  14.236   2.543   4.081
82773W        W49182  12.365   8.615   3.615
82774W        W49183  11.813   9.369  12.955
82775W        W49184   9.311  34.018   0.311
82776W        W49185   5.191  41.223   2.185
82777W        W49186   4.207  28.580  13.251
82778W        W49187   1.534  25.156  14.812
82779W        W49188   6.699  14.292   0.418
82780W        W49189   5.989   1.001  14.891
82781W        W49190   3.931  10.617  14.182
82782W        W49191   9.177  44.876  12.486
82783W        W49192  20.050  38.109   3.297
82784W        W49193   3.452  41.302   0.950
82785W        W49194  37.524  31.068   1.395
82786W        W49195  42.808   0.114  13.882
82787W        W49196  34.560  25.884   0.042
82788W        W49197  41.538  29.901   2.730
82789W        W49198  18.513  17.008   0.053
82790W        W49199  28.358  29.389   0.602
82791W        W49200  44.983   1.035  11.666
82792W        W49201   4.760  38.747   4.610
82793W        W49202  12.287   6.070   2.336
82794W        W49203  22.255  29.043   2.872
82795W        W49204  27.385  35.516   0.739
82796W        W49205   5.378  21.401   1.989
82797W        W49206   8.161  10.804   4.056
82798W        W49207  38.130  34.124  12.889
82799W        W49208  14.576  20.124  12.393
82800W        W49209  19.948  36.585   5.074
82801W        W49210  40.205   8.674   4.172
82802W        W49211  39.494  10.302   4.222
82803W        W49212  16.179  13.146   4.279
82804W        W49213  18.026  39.528   4.090
82805W        W49214  33.447  36.635   3.614
82806W        W49215  25.996  33.078  13.395
82807W        W49216  36.966  29.654   0.451
82808W        W49217   6.919   9.809  11.207
82809W        W49218  31.555   3.864   2.768
82810W        W49219  24.604   1.803  14.367
82811W        W49220  42.369  11.837   1.260
82812W        W49221  25.821  12.868   4.494
82813W        W49222  40.768  20.649  14.503
82814W        W49223  11.839   7.702  12.145
82815W        W49224   9.892  17.291   2.333
82816W        W49225  31.041   4.017  12.517
82817W        W49226  28.500  35.917  10.541
82818W        W49227  15.248   8.054  13.455
82819W        W49228  26.104  12.812   0.378
82820W        W49229  11.827   2.308   5.013
82821W        W49230  33.787  35.808   3.707
82822W        W49231  16.275  41.867   1.381
82823W        W49232   5.224  17.592   4.176
82824W        W49233  32.919  12.588   1.870
82825W        W49234  10.346  16.409  13.861
82826W        W49235  10.723  13.606  12.095
82827W        W49236  16.807   7.607   4.278
82828W        W49237  33.646   1.261  13.522
82829W        W49238  12.385  41.284   0.602
82830W        W49239  27.002   4.439  11.549
82831W        W49240  15.760  28.981  12.586
82832W        W49241   0.566  39.864   3.172
82833W        W49242  18.681  39.674   3.253
82834W        W49243  33.571   1.784   4.564
82835W        W49244  28.269  31.208   0.313
82836W        W49245  40.142  31.546  12.625
82837W        W49246   2.239  11.229  11.642
82838W        W49247  41.658  33.612   1.261
82839W        W49248   8.661  43.435   2.867
82840W        W49249  34.578  11.637  13.756
82841W        W49250  37.002  18.516   3.251
82842W        W49251   1.345  15.771  11.635
82843W        W49252  11.667   6.768  10.470
82844W        W49253  16.947  29.463   0.709
82845W        W49254   9.272  22.775   1.614
82846W        W49255  22.231   4.162  10.921
82847W        W49256  41.142  10.977   2.981
82848W        W49257  36.842  16.097   4.061
82849W        W49258  22.114  25.741  11.279
82850W        W49259  13.841  24.701  11.317
82851W        W49260  24.249  35.074   4.184
82852W        W49261  19.153  34.792   0.535
82853W        W49262  13.308  44.145   0.355
82854W        W49263  31.494  11.779  10.740
82855W        W49264  23.114  29.206   3.197
82856W        W49265  16.991  21.601   1.514
82857W        W49266   5.367  19.247   4.464
82858W        W49267  34.027  13.311   0.370
82859W        W49268   3.999  25.942  11.892
82860W        W49269  27.653  18.534  12.421
82861W        W49270  42.343  11.233  10.704
82862W        W49271   1.968  29.207   1.219
82863W        W49272  17.148  43.690   2.311
82864W        W49273  38.893  30.157   3.822
82865W        W49274  10.884  43.870   4.580
82866W        W49275  23.390   7.313   2.922
82867W        W49276  11.098  16.112   1.486
82868W        W49277  13.290   1.841  11.607
82869W        W49278  18.550  13.461  13.446
82870W        W49279  21.229  30.669  14.486
82871W        W49280  38.570  30.376  10.976
82872W        W49281  37.603  14.892  12.421
82873W        W49282   9.474  21.218   2.277
82874W        W49283  20.333  38.474  13.623
82875W        W49284  22.500  10.345   3.323
82876W        W49285   3.246   2.934   3.333
82877W        W49286  21.064  26.571  10.094
82878W        W49287  42.050  16.267   4.688
82879W        W49288   9.155  28.855   3.291
82880W        W49289  23.718  43.784  12.342
82881W        W49290  41.258  33.133   3.182
82882W        W49291  13.921  35.032   3.983
82883W        W49292  30.276  40.965  12.005
82884W        W49293  12.778   3.469   9.735
82885W        W49294  40.946   4.137   4.531
82886W        W49295  12.908  36.295  10.717
82887W        W49296  38.324  44.528   0.814
82888W        W49297  35.950  11.734   5.372
82889W        W49298  41.848  25.758  14.758
82890W        W49299  27.091  13.039  10.573
82891W        W49300  42.866  41.860  12.642
82892W        W49301  40.520   6.645  13.138
82893W        W49302  34.455  36.142  13.134
82894W        W49303  33.972  10.410  13.027
82895W        W49304   2.227  21.628  11.558
82896W        W49305   3.881   4.310  12.414
82897W        W49306  44.708  11.295  12.892
82898W        W49307   8.098  32.557   2.096
82899W        W49308   8.713  38.985  14.357
82900W        W49309   6.824   7.134  12.124
82901W        W49310  28.136  27.871  14.405
82902W        W49311   0.788  26.052  13.078
82903W        W49312  29.213   0.158  12.086
82904W        W49313  40.880  39.366   0.201
82905W        W49314  16.134   3.401   3.594
82906W        W49315  24.720  44.746  12.800
82907W        W49316  26.108  30.145  13.535
82908W        W49317  44.417   2.900   1.725
82909W        W49318  10.179  18.419  13.629
82910W        W49319  22.451  38.361  11.999
82911W        W49320  35.966  29.002  12.507
82912W        W49321  19.564  33.493   4.370
82913W        W49322  34.128   7.370  13.754
82914W        W49323  11.709  26.010   4.530
82915W        W49324  11.048  43.532  12.955
82916W        W49325  35.136   2.258   4.031
82917W        W49326  31.958  14.190   0.041
82918W        W49327  40.296  18.801  14.471
82919W        W49328  16.643  20.189   4.513
82920W        W49329  28.803  17.121  11.445
82921W        W49330   9.671  27.075  13.148
82922W        W49331  19.725  13.346  12.025
82923W        W49332  34.445  22.300   2.848
82924W        W49333  22.399   7.768   3.504
82925W        W49334  15.799  20.937   0.064
82926W        W49335  37.056  16.682  12.486
82927W        W49336  22.646  14.418  10.726
82928W        W49337   4.759  39.899  14.660
82929W        W49338  13.467  35.582  13.436
82930W        W49339   9.113  13.150   2.287
82931W        W49340  42.073   4.781  12.559
82932W        W49341  15.358  10.707  12.968
82933W        W49342   5.145   4.873   4.079
82934W        W49343  32.104  24.620  13.517
82935W        W49344  37.095   1.302  12.513
82936W        W49345  44.039  14.650   2.184
82937W        W49346  17.209  20.000  11.970
82938W        W49347  27.256  18.180  12.911
82939W        W49348  31.667   0.878  13.402
82940W        W49349  15.101  27.462  13.099
82941W        W49350  35.363  35.621  12.521
82942W        W49351  44.318   1.783   3.815
82943W        W49352   3.625  15.404   1.046
82944W        W49353  20.573  21.470   3.671
82945W        W49354  25.053   9.862   4.727
82946W        W49355  14.997  42.806   5.182
82947W        W49356  40.872  25.722   3.927
82948W        W49357  32.922   9.828   1.448
82949W        W49358  14.467  34.649   5.297
82950W        W49359  11.960   1.947   4.209
82951W        W49360   5.752  12.266  10.860
82952W        W49361  31.260   9.416  13.000
82953W        W49362  10.370  13.917   4.519
82954W        W49363  41.553  24.181  13.018
82955W        W49364  16.211   8.915   2.376
82956W        W49365  24.726   3.859   3.173
82957W        W49366  34.624  40.520   2.739
82958W        W49367   6.198  28.645   0.975
82959W        W49368  33.786   3.942  11.097
82960W        W49369  16.283  19.820  11.907
82961W        W49370   1.162   9.710  13.594
82962W        W49371  25.779  34.332  13.465
82963W        W49372   9.636  10.901   1.916
82964W        W49373  30.779  30.782   3.486
82965W        W49374   7.358  43.771   3.146
82966W        W49375  41.694   2.946  11.267
82967W        W49376   4.567   0.512  10.834
82968W        W49377  14.100  23.128  12.596
82969W        W49378  36.893  32.094   3.453
82970W        W49379  38.326  42.589   0.908
82971W        W49380  30.677   5.850  13.069
82972W        W49381  11.575   5.468  13.266
82973W        W49382  42.926  19.783   5.062
82974W        W49383  35.469  13.176   2.237
82975W        W49384   6.656  36.558   0.027
82976W        W49385  34.576   1.703   0.293
82977W        W49386  43.270   5.981   4.074
82978W        W49387  44.423  18.485   3.830
82979W        W49388   2.437   8.317   3.304
82980W        W49389   4.262  44.088   2.901
82981W        W49390  20.467  30.520   4.242
82982W        W49391   0.925   1.681  12.626
82983W        W49392  20.321  39.846   3.098
82984W        W49393  32.446  18.774   0.159
82985W        W49394  17.335   9.137  14.592
82986W        W49395  24.458   8.849  13.933
82987W        W49396  14.039  13.799   0.397
82988W        W49397  34.597   4.240  10.822
82989W        W49398  16.578   6.633   2.643
82990W        W49399  17.645  44.869   4.467
82991W        W49400  20.282  28.214  11.992
82992W        W49401   6.409  21.529  14.814
82993W        W49402  15.737  22.044  11.219
82994W        W49403  30.841  19.815  10.774
82995W        W49404  28.455  19.738  10.895
82996W        W49405  35.982  43.751   1.697
82997W        W49406  42.250  18.269   0.435
82998W        W49407  11.673  19.971   1.003
82999W        W49408   5.813  33.544   4.617
83000W        W49409  34.929  18.388  12.500
83001W        W49410  29.352  44.213  11.944
83002W        W49411   0.326  19.773   3.739
83003W        W49412   5.849  18.205   1.759
83004W        W49413  33.559  43.219  13.059
83005W        W49414  24.246  14.581  13.403
83006W        W49415   0.456  22.946   2.707
83007W        W49416  26.267  12.342  10.988
83008W        W49417  21.833  34.126   2.481
83009W        W49418  41.061  37.800   1.784
83010W        W49419  28.020  42.799  10.822
83011W        W49420  39.525  43.957   1.248
83012W        W49421  28.689   6.326   2.358
83013W        W49422  15.707  22.534   4.627
83014W        W49423  16.781   8.149   2.768
83015W        W49424  39.168  29.928   2.984
83016W        W49425  12.647  30.314   4.799
83017W        W49426  29.464  28.034   3.580
83018W        W49427  15.312  36.119  11.011
83019W        W49428  13.087  27.419   0.331
83020W        W49429  29.602  10.687   2.396
83021W        W49430  21.551  19.166  12.394
83022W        W49431  30.853  26.627   4.596
83023W        W49432   5.306  20.940   4.235
83024W        W49433  42.244  10.848  14.307
83025W        W49434  24.422  15.667  13.588
83026W        W49435  14.145  40.589   0.856
83027W        W49436   9.130  21.219  12.542
83028W        W49437  29.807  22.953  11.056
83029W        W49438  12.210  35.884  13.580
83030W        W49439  31.054  19.337  13.381
83031W        W49440  39.491  23.394  10.560
83032W        W49441  43.210   0.842  11.479
83033W        W49442  23.166  14.135  12.926
83034W        W49443  29.380   8.827   3.175
83035W        W49444  23.777  36.754  13.086
83036W        W49445  29.582  20.825  11.008
83037W        W49446  12.985  23.686   3.215
83038W        W49447  10.795   4.001   4.170
83039W        W49448  43.131  21.826   1.519
83040W        W49449  38.448  41.805   1.524
83041W        W49450  25.781  14.358  13.266
83042W        W49451  40.974   3.006   3.695
83043W        W49452  42.294  22.589   0.258
83044W        W49453  30.115  28.442  11.533
83045W        W49454  16.067  20.442   3.403
83046W        W49455  14.062  39.304  13.557
83047W        W49456  11.451  32.688   0.229
83048W        W49457   1.476  23.420  12.516
83049W        W49458  15.719  13.107  14.743
83050W        W49459  24.626  42.060  12.059
83051W        W49460   5.329  34.031  12.538
83052W        W49461  26.949  19.429   0.872
83053W        W49462   4.445  32.035  13.451
83054W        W49463  16.135  24.203  10.231
83055W        W49464   5.661  18.238  13.060
83056W        W49465   2.959  25.208   1.838
83057W        W49466  19.050  29.021   1.414
83058W        W49467  34.388  40.540   1.809
83059W        W49468  18.318  16.649   2.824
83060W        W49469   9.713  40.871   3.928
83061W        W49470   7.163  40.432   3.556
83062W        W49471  10.094  40.110  10.141
83063W        W49472   8.782  32.450  13.118
83064W        W49473  37.478  13.592   4.278
83065W        W49474  39.898  14.648  12.257
83066W        W49475  36.349  43.609   1.237
83067W        W49476  29.365  29.016  14.322
83068W        W49477  31.626  18.106  11.649
83069W        W49478  35.011  25.676  14.833
83070W        W49479  11.183  36.514  12.371
83071W        W49480  25.536  19.462  11.544
83072W        W49481  42.783  35.120  11.954
83073W        W49482   0.023  23.974  15.000
83074W        W49483   7.873   7.665   0.917
83075W        W49484  37.868  33.961   2.813
83076W        W49485  11.643  43.934   0.071
83077W        W49486  27.962  20.735  11.003
83078W        W49487   2.889   2.311   4.729
83079W        W49488  21.552  33.152   2.333
83080W        W49489  43.351  17.732  10.864
83081W        W49490  17.752  40.740   1.551
83082W        W49491  43.437  10.888  11.104
83083W        W49492  34.939  24.240   2.408
83084W        W49493  35.986  33.388  14.180
83085W        W49494  33.678  11.159  12.755
83086W        W49495  30.927  36.441   2.525
83087W        W49496  29.689  43.375   4.236
83088W        W49497  42.437   2.889   1.892
83089W        W49498  32.002   4.783   0.168
83090W        W49499  23.099  25.733  12.800
83091W        W49500  14.899  27.059  13.347
83092W        W49501  18.147  21.464   3.313
83093W        W49502  10.895  23.430  11.098
83094W        W49503   3.012  32.537   3.842
83095W        W49504   2.832  36.530  11.601
83096W        W49505  28.385  29.916   5.003
83097W        W49506   2.307  36.676   2.310
83098W        W49507  40.062  41.899  12.774
83099W        W49508  14.212   0.136   5.453
83100W        W49509  21.692  17.262   0.080
83101W        W49510  29.830   3.766  11.113
83102W        W49511   5.816  11.235   2.776
83103W        W49512  19.579  43.325   4.979
83104W        W49513  37.627  33.380   4.492
83105W        W49514  13.809  18.925   4.007
83106W        W49515  25.182  26.560  11.404
83107W        W49516   0.226   0.904  13.826
83108W        W49517  25.202  17.936   1.207
83109W        W49518  31.069  29.539   2.701
83110W        W49519   7.455  27.454  14.876
83111W        W49520  12.738  35.097  14.526
83112W        W49521   8.724  33.619   3.425
83113W        W49522  32.066  30.892  10.734
83114W        W49523  14.026  33.073  14.449
83115W        W49524  27.170  32.295  13.449
83116W        W49525  40.389   7.754   3.562
83117W        W49526   0.819  24.511   1.195
83118W        W49527  35.437  28.962  14.748
83119W        W49528  25.446  34.463  14.493
83120W        W49529  18.662  22.662  10.855
83121W        W49530   2.057  32.963   4.768
83122W        W49531   5.253  16.656  12.154
83123W        W49532   7.719  32.823  10.572
83124W        W49533   8.536  15.289  11.956
83125W        W49534  16.720  15.257  10.693
83126W        W49535  22.624  14.794   0.060
83127W        W49536  24.978  17.042   0.011
83128W        W49537  22.211   4.966   0.489
83129W        W49538  23.115  10.222   3.158
83130W        W49539  17.004  39.447  12.817
83131W        W49540  13.411  14.807  13.545
83132W        W49541   7.706  36.664  13.363
83133W        W49542   5.431   1.540   1.794
83134W        W49543  38.536  37.301   0.273
83135W        W49544  30.155  34.980   1.417
83136W        W49545  31.548  26.883  13.058
83137W        W49546   1.697   0.350  13.567
83138W        W49547  20.646   0.485   4.665
83139W        W49548  27.641   5.449  11.031
83140W        W49549   7.039  28.525   0.716
83141W        W49550  13.170  22.526  11.611
83142W        W49551  19.557  11.686  11.225
83143W        W49552  10.525   2.028  11.557
83144W        W49553  12.883  28.651   3.272
83145W        W49554  11.279  44.635   0.484
83146W        W49555   7.944  13.605  12.585
83147W        W49556  37.823  32.072   3.184
83148W        W49557  31.106  23.487   1.935
83149W        W49558   0.172   5.825   2.377
83150W        W49559  30.989  19.633  12.897
83151W        W49560  44.472  32.915   4.555
83152W        W49561  28.225  27.480   1.726
83153W        W49562  10.552  37.530   3.197
83154W        W49563  31.070   6.376  10.137
83155W        W49564  39.812  40.526  10.765
83156W        W49565  25.248   1.282   3.753
83157W        W49566   0.739   9.625   0.411
83158W        W49567  13.778  31.132  14.847
83159W        W49568   6.667  27.662   0.343
83160W        W49569  30.161  42.697   1.810
83161W        W49570  31.174  16.816  13.538
83162W        W49571  35.962  44.244   3.356
83163W        W49572  14.269   7.741  12.894
83164W        W49573  40.285  40.541   4.685
83165W        W49574  36.821   3.941  11.280
83166W        W49575  33.504  39.060   0.567
83167W        W49576  24.085   5.448  11.486
83168W        W49577   7.343  29.340   0.418
83169W        W49578   1.197  43.239  14.773
83170W        W49579  33.430  22.938   2.206
83171W        W49580  26.167  17.421  10.554
83172W        W49581   8.135   1.835  14.972
83173W        W49582  27.185  31.353  12.624
83174W        W49583  32.893  32.443  11.936
83175W        W49584  19.268   7.755  13.940
83176W        W49585  38.375  41.497   1.938
83177W        W49586   2.733  14.658   3.437
83178W        W49587   6.618  24.553   0.282
83179W        W49588  27.604  15.643   2.630
83180W        W49589  13.110   7.619   1.020
83181W        W49590  26.200  39.605   4.069
83182W        W49591  17.292   1.715   4.744
83183W        W49592  13.170   9.584   2.944
83184W        W49593  35.817  19.499   5.455
83185W        W49594  13.981   9.089  11.009
83186W        W49595   6.371  21.639  11.003
83187W        W49596  10.315   8.864   2.743
83188W        W49597  34.525  18.473   0.054
83189W        W49598  29.865  41.007   4.659
83190W        W49599  33.934  15.680   2.888
83191W        W49600  29.183  37.507  11.933
83192W        W49601   5.781  12.203   1.123
83193W        W49602  14.515  11.154  13.031
83194W        W49603  37.771  40.426   1.305
83195W        W49604  29.103   7.798  12.549
83196W        W49605   0.822  22.088  12.892
83197W        W49606  20.954   4.368  11.550
83198W        W49607  40.931  26.532  14.699
83199W        W49608   3.269  25.644  13.820
83200W        W49609  41.928  11.764  13.995
83201W        W49610  22.774  18.834   2.611
83202W        W49611  11.017  22.079   2.428
83203W        W49612   2.279   0.410  14.861
83204W        W49613  13.410  23.119   1.467
83205W        W49614  37.922  31.186  11.842
83206W        W49615  31.118  38.654  10.769
83207W        W49616  21.611  27.165   0.701
83208W        W49617  27.120  44.911  12.552
83209W        W49618  29.526  33.032  11.496
83210W        W49619  14.162  44.366   3.082
83211W        W49620  27.007  29.245  11.569
83212W        W49621  21.852  31.402  12.857
83213W        W49622  10.168  10.403  14.327
83214W        W49623  20.961  15.591  12.632
83215W        W49624  16.953  29.073  12.454
83216W        W49625   9.166  30.313  10.913
83217W        W49626  39.980  23.948   1.798
83218W        W49627  28.204  12.297  13.013
83219W        W49628   6.999  41.608   3.542
83220W        W49629   0.145   7.579  10.879
83221W        W49630  25.519  30.541   1.197
83222W        W49631   5.785  29.449  13.854
83223W        W49632  23.551  34.037   1.873
83224W        W49633  17.104  41.900   2.793
83225W        W49634   3.788   0.982  10.829
83226W        W49635  14.680  28.965   0.401
83227W        W49636  38.106   8.861   3.840
83228W        W49637  23.018  18.112   3.141
83229W        W49638  32.906  16.724   0.653
83230W        W49639   2.388   3.308  12.084
83231W        W49640  30.052  13.155  14.475
83232W        W49641   4.397  28.457  14.181
83233W        W49642  25.425  26.745  13.406
83234W        W49643   0.348   7.905   0.290
83235W        W49644  21.135  21.763   0.829
83236W        W49645  22.700  18.648  14.006
83237W        W49646   3.904  16.459  11.090
83238W        W49647   2.009  15.269  14.302
83239W        W49648  16.350  27.412   1.173
83240W        W49649  41.569   6.497  11.530
83241W        W49650   5.681  33.012   1.863
83242W        W49651  12.217  25.448  11.979
83243W        W49652  15.259  38.587  11.240
83244W        W49653  27.642  15.674  12.393
83245W        W49654  16.389  43.412  12.121
83246W        W49655  14.059   0.677  14.986
83247W        W49656  16.216  13.346  13.875
83248W        W49657  40.452  39.946   0.932
83249W        W49658  32.451  27.558   0.238
83250W        W49659  26.324  14.252   1.183
83251W        W49660  33.867  10.308   5.042
83252W        W49661  27.174  23.403  14.439
83253W        W49662  24.602  20.787  13.538
83254W        W49663  29.297  12.085  12.172
83255W        W49664   3.743  21.603  14.467
83256W        W49665  37.467  22.177   3.234
83257W        W49666  18.634  40.257  14.736
83258W        W49667  21.747  22.310   4.341
83259W        W49668  25.626  23.843   1.956
83260W        W49669  38.765  35.857   4.947
83261W        W49670  34.916  44.584  12.815
83262W        W49671  42.688  18.973   4.562
83263W        W49672  28.078  20.115  11.627
83264W        W49673  22.013  35.143  12.518
83265W        W49674  20.672   2.348   2.208
83266W        W49675   8.829  18.446  11.504
83267W        W49676  30.070  28.853  13.204
83268W        W49677  30.658  27.200  12.891
83269W        W49678  37.549  27.092   2.755
83270W        W49679  10.664  44.844   2.504
83271W        W49680   3.397  35.908  13.053
83272W        W49681  34.785   6.324   0.388
83273W        W49682  40.687  44.291  11.244
83274W        W49683   6.903  31.571  11.668
83275W        W49684  37.198   2.003  11.969
83276W        W49685  25.500   6.415  12.954
83277W        W49686  12.179  37.187   1.198
83278W        W49687   4.060  37.900  12.332
83279W        W49688  12.644  29.511   0.569
83280W        W49689  44.567  28.412  14.840
83281W        W49690  17.378   1.146  13.981
83282W        W49691  21.193  37.559   1.416
83283W        W49692  20.704  18.800   4.630
83284W        W49693  42.359  39.819  11.984
83285W        W49694   5.307  42.555   1.953
83286W        W49695  27.431  33.482  12.941
83287W        W49696  17.307  37.728  13.147
83288W        W49697  43.530  39.302   1.288
83289W        W49698  14.323  13.646   1.384
83290W        W49699  11.834  10.970  11.407
83291W        W49700  40.888   4.808   2.562
83292W        W49701   9.682  31.585   2.098
83293W        W49702   3.461  17.844  14.764
83294W        W49703  31.061  17.182   2.663
83295W        W49704  24.584  30.416  11.749
83296W        W49705  16.235  37.843  13.604
83297W        W49706  35.584  40.718   0.917
83298W        W49707  35.006  38.556  14.374
83299W        W49708  34.587  36.407   2.334
83300W        W49709  25.263   9.133   3.452
83301W        W49710  17.888  27.877  11.943
83302W        W49711  11.748  42.961   0.491
83303W        W49712  28.729   4.695   9.986
83304W        W49713   5.829   7.403  13.346
83305W        W49714  28.900  33.231  13.426
83306W        W49715  41.009   8.188   1.256
83307W        W49716   3.446  38.891  10.654
83308W        W49717  27.437  31.715   1.304
83309W        W49718  28.410  40.454   0.937
83310W        W49719  32.041  30.180  12.155
83311W        W49720  21.612  30.159   4.132
83312W        W49721   6.754  29.487   1.267
83313W        W49722  39.854   0.661  12.035
83314W        W49723  38.491  37.868   3.317
83315W        W49724  34.975  38.310   0.951
83316W        W49725  38.616  21.487   9.917
83317W        W49726   2.837  42.697   1.002
83318W        W49727   3.840  42.959  10.727
83319W        W49728   8.866  31.406   1.488
83320W        W49729   4.663  32.814   1.709
83321W        W49730  14.160   2.220   0.841
83322W        W49731  40.842  15.097  13.983
83323W        W49732   0.471  28.248  13.967
83324W        W49733  44.579  24.307  13.762
83325W        W49734   0.929  26.458  11.622
83326W        W49735  39.303  28.353  14.417
83327W        W49736   2.884  17.741   3.058
83328W        W49737   3.220   5.958  13.327
83329W        W49738  28.947  44.004   0.361
83330W        W49739  14.297  12.875  14.733
83331W        W49740  22.156   4.671  11.512
83332W        W49741  19.206  16.077   3.035
83333W        W49742  23.225  23.532  10.691
83334W        W49743  17.289  38.780  13.087
83335W        W49744  32.021  14.178   3.493
83336W        W49745  29.114  20.163   4.408
83337W        W49746  36.353   9.433  12.143
83338W        W49747   1.552  24.621  13.505
83339W        W49748  11.322  11.174  12.820
83340W        W49749   6.894   9.723   0.708
83341W        W49750  33.267   6.766   4.151
83342W        W49751  10.921  16.331  13.911
83343W        W49752  11.942   5.250   0.681
83344W        W49753  26.070  17.715   1.710
83345W        W49754  31.970   3.708  12.445
83346W        W49755  24.797  30.970  12.834
83347W        W49756  20.543   5.334   2.829
83348W        W49757  28.529   1.232  14.733
83349W        W49758   4.816  23.677   0.572
83350W        W49759  35.762  27.207  14.075
83351W        W49760   7.945  19.468  11.101
83352W        W49761  29.086   7.821  13.062
83353W        W49762  16.345  20.905  12.337
83354W        W49763  29.428  41.357  11.625
83355W        W49764  15.606  26.610   2.358
83356W        W49765  32.997  37.314   2.678
83357W        W49766   4.262  25.144   2.792
83358W        W49767  14.839  31.412  13.624
83359W        W49768   0.308  14.442   3.410
83360W        W49769   9.476  37.431   1.349
83361W        W49770  37.415   6.358   0.952
83362W        W49771  25.770   5.279  14.867
83363W        W49772  10.777  12.537  14.383
83364W        W49773   1.788  33.917  13.716
83365W        W49774  33.859   4.819  12.518
83366W        W49775   7.951   2.876   3.252
83367W        W49776  34.621  32.119  13.397
83368W        W49777  16.093  35.857  13.427
83369W        W49778  36.053  32.243   3.494
83370W        W49779  27.888   1.409   0.362
83371W        W49780  30.017   2.396   1.020
83372W        W49781  21.085  13.717   2.362
83373W        W49782  43.533  13.348  13.409
83374W        W49783  29.488  41.835   0.039
83375W        W49784  37.492   5.387  14.771
83376W        W49785   4.766  25.439   1.785
83377W        W49786   3.706  27.039   9.879
83378W        W49787  20.021   4.761   2.324
83379W        W49788  35.504  22.964   3.709
83380W        W49789  25.203  19.784   2.673
83381W        W49790   3.442  19.605   5.132
83382W        W49791  24.945  36.475   4.135
83383W        W49792   9.848   0.796   3.207
83384W        W49793  32.310  41.876   2.344
83385W        W49794  16.102  12.340  13.311
83386W        W49795  18.358  22.591  14.782
83387W        W49796  38.269  16.153   3.649
83388W        W49797  11.496   8.880  11.450
83389W        W49798  44.442  11.741   0.399
83390W        W49799  22.573  15.047  14.340
83391W        W49800  37.067  38.412  12.890
83392W        W49801  40.586  32.687  12.561
83393W        W49802   8.723  39.834   2.835
83394W        W49803   8.241  43.548   1.412
83395W        W49804  28.203  41.514  11.104
83396W        W49805  17.589  31.933   1.825
83397W        W49806  13.468   5.170  10.696
83398W        W49807   4.699  23.319   3.788
83399W        W49808  26.855  42.481   4.546
83400W        W49809  24.803  23.741  12.405
83401W        W49810  20.641  15.217  13.081
83402W        W49811  12.030  44.533  11.497
83403W        W49812  27.990  15.258   4.168
83404W        W49813  29.621  34.067   3.739
83405W        W49814  24.820  43.806   3.348
83406W        W49815  21.290  21.186   4.118
83407W        W49816   7.743  23.627  13.310
83408W        W49817  31.530  25.970  14.745
83409W        W49818  15.443  37.157  12.393
83410W        W49819  37.324  21.836   1.472
83411W        W49820  16.798  32.135  10.825
83412W        W49821  11.933  37.674   1.212
83413W        W49822  12.743  43.288   1.818
83414W        W49823  44.412  10.337  12.955
83415W        W49824  43.264   2.800  11.204
83416W        W49825  23.688  10.207   3.712
83417W        W49826  21.562   8.831   4.008
83418W        W49827  18.993  15.588  10.386
83419W        W49828   5.918  18.775   0.957
83420W        W49829  35.568   1.894  10.592
83421W        W49830  41.215  11.982   0.498
83422W        W49831   2.864  23.167   0.929
83423W        W49832  20.626   0.208   1.837
83424W        W49833  17.429  13.373   3.185
83425W        W49834  15.168  21.633  12.495
83426W        W49835  37.149  11.663   0.963
83427W        W49836  20.432  28.617  11.708
83428W        W49837   3.194  40.533   4.524
83429W        W49838   1.449  24.760  14.002
83430W        W49839  38.742  42.316   0.679
83431W        W49840  40.054  37.847  14.981
83432W        W49841  37.084  27.578  14.926
83433W        W49842  22.662  15.224  13.024
83434W        W49843  26.869  15.309   1.480
83435W        W49844   8.243  31.303  12.483
83436W        W49845  22.087   1.929  14.854
83437W        W49846  23.721  12.245   4.288
83438W        W49847  28.888  15.657  10.819
83439W        W49848   9.398  21.257   4.131
83440W        W49849  41.854   8.855  12.591
83441W        W49850  31.551  41.243   2.480
83442W        W49851  35.829  14.029  10.972
83443W        W49852  10.220  31.287   5.440
83444W        W49853  44.152  26.416   5.007
83445W        W49854  40.873  23.021  11.987
83446W        W49855  30.623   5.819  14.095
83447W        W49856  34.054  11.870  11.920
83448W        W49857  11.241  14.746   1.894
83449W        W49858   7.399  30.994  14.537
83450W        W49859  35.405  21.003   0.199
83451W        W49860  40.829  44.954  14.009
83452W        W49861  36.485  27.977   1.792
83453W        W49862  37.922  32.362   1.013
83454W        W49863   0.171   1.545  11.236
83455W        W49864  43.775  11.473  12.480
83456W        W49865   4.246  12.332  11.086
83457W        W49866  28.266  31.928  14.600
83458W        W49867   8.154  14.619   2.717
83459W        W49868  17.793  17.733   0.912
83460W        W49869   8.821  43.789   3.236
83461W        W49870   8.288  10.248   0.213
83462W        W49871  27.071   1.958  11.298
83463W        W49872   8.977  27.190  10.244
83464W        W49873  10.577  36.860  11.211
83465W        W49874  18.914  28.176  13.122
83466W        W49875  27.003  22.997   0.866
83467W        W49876  43.031   6.562  11.948
83468W        W49877  38.997  43.474   4.650
83469W        W49878  21.277  19.312  13.437
83470W        W49879  19.678  30.959  13.374
83471W        W49880  16.621  10.645  11.556
83472W        W49881  38.670   9.355   4.367
83473W        W49882  41.923   0.497  11.597
83474W        W49883  44.018  36.959  14.027
83475W        W49884  30.611  12.618   2.837
83476W        W49885   7.951   1.744   1.435
83477W        W49886  16.179  38.542   3.149
83478W        W49887   0.461  24.071   4.537
83479W        W49888   7.701  19.306  10.657
83480W        W49889  21.664  20.135   3.401
83481W        W49890  31.349  25.482  12.923
83482W        W49891  28.895  38.807   2.237
83483W        W49892   1.382   4.150   1.429
83484W        W49893  13.059  12.847   2.733
83485W        W49894  34.492   4.761   2.236
83486W        W49895  16.242  19.600  14.957
83487W        W49896  34.001  13.357  12.353
83488W        W49897  10.147   9.878  14.420
83489W        W49898  10.152  42.831  11.297
83490W        W49899  27.658   2.725   2.153
83491W        W49900  40.909  12.952  10.778
83492W        W49901  37.993  42.691   1.349
83493W        W49902  28.972  25.672  11.452
83494W        W49903  19.344  17.314   2.327
83495W        W49904  28.275  39.070  13.843
83496W        W49905  22.662  17.435   0.495
83497W        W49906  30.476  28.095   4.129
83498W        W49907   2.460   3.575   1.399
83499W        W49908  42.939  27.459  13.245
83500W        W49909  25.731  11.172  13.626
83501W        W49910  36.984  39.333   2.207
83502W        W49911   8.154  29.662   3.515
83503W        W49912  30.112  19.415  11.123
83504W        W49913  36.971  39.279   0.004
83505W        W49914  25.234  12.665  12.692
83506W        W49915  20.211  12.930   1.396
83507W        W49916  32.848  35.085   1.848
83508W        W49917  26.982  44.266   1.892
83509W        W49918  22.225  36.462   4.055
83510W        W49919  32.587  33.041  14.379
83511W        W49920  18.615  23.591   4.571
83512W        W49921  44.640  13.829   5.068
83513W        W49922   8.733  39.160  12.182
83514W        W49923  42.452  16.250   4.378
83515W        W49924  16.037  25.019  14.466
83516W        W49925  23.612  32.354  11.562
83517W        W49926  13.209  43.746  11.405
83518W        W49927   9.386  43.315  14.008
83519W        W49928  13.111   1.488   0.359
83520W        W49929  19.470   0.414  11.626
83521W        W49930  23.754  29.045   0.948
83522W        W49931  43.032  43.422  12.456
83523W        W49932  17.311   1.386   4.319
83524W        W49933  31.726   2.270   0.751
83525W        W49934  29.056   4.988   5.026
83526W        W49935   6.368  41.348   5.132
83527W        W49936  18.632  24.671  11.899
83528W        W49937  41.286   4.282   3.680
83529W        W49938  18.003   0.942   4.421
83530W        W49939   0.397   2.880   0.809
83531W        W49940  12.682  17.179   4.656
83532W        W49941  24.953  28.267  11.744
83533W        W49942  34.787  20.808  13.417
83534W        W49943   9.267   9.476  13.371
83535W        W49944   3.018   6.337  14.048
83536W        W49945  39.414  15.248  13.339
83537W        W49946  43.779  13.710  14.562
83538W        W49947  35.244  26.572   4.260
83539W        W49948  15.503   9.652   4.283
83540W        W49949  38.512  36.584  10.737
83541W        W49950  33.861  18.500   0.783
83542W        W49951  38.487  38.749  12.666
83543W        W49952  27.685  24.671  11.225
83544W        W49953  21.047  33.161   2.247
83545W        W49954   9.057  29.507   2.694
83546W        W49955  26.559  30.303  13.693
83547W        W49956   1.904  16.344   0.416
83548W        W49957  12.682  10.640  12.479
83549W        W49958  21.058  43.749   3.566
83550W        W49959  33.472  23.031  11.443
83551W        W49960  26.736  21.196   0.559
83552W        W49961  12.836  10.737  14.363
83553W        W49962  44.969  22.163   4.960
83554W        W49963  34.419  30.849  13.084
83555W        W49964  11.166  35.358  12.456
83556W        W49965  21.166  39.078  10.705
83557W        W49966  25.067  30.573  10.749
83558W        W49967   7.299  32.144  12.966
83559W        W49968  33.869  16.255  14.343
83560W        W49969  19.521   6.373  13.061
83561W        W49970  10.699  39.767  11.242
83562W        W49971  16.319  36.785  13.531
83563W        W49972  34.800  25.495   1.493
83564W        W49973  30.298  26.511   2.866
83565W        W49974  16.005  26.751  14.068
83566W        W49975  14.004   7.336  10.710
83567W        W49976   7.826  33.131  14.629
83568W        W49977  25.162  41.803  10.907
83569W        W49978  24.535   9.508  13.373
83570W        W49979   7.897  43.366   0.841
83571W        W49980  41.387  21.317  10.818
83572W        W49981   8.426   2.368  10.213
83573W        W49982   0.796  36.414  11.526
83574W        W49983  25.287   9.342   0.021
83575W        W49984  34.042  40.450  13.484
83576W        W49985   2.211  43.845   1.978
83577W        W49986  34.874  18.569   0.945
83578W        W49987  10.867  26.139   1.320
83579W        W49988   0.994   5.874  13.736
83580W        W49989  42.081  23.105  12.903
83581W        W49990  24.167  27.229  11.666
83582W        W49991  37.385  25.781   3.230
83583W        W49992   4.921  31.345   0.755
83584W        W49993  13.365   3.324   0.453
83585W        W49994  33.800  44.438  11.128
83586W        W49995   0.982   8.687   4.583
83587W        W49996  23.588  17.312  10.484
83588W        W49997  15.730  19.224  12.276
83589W        W49998  16.231  41.768   2.359
83590W        W49999  21.750   1.261   1.427
83591W        W50000   8.101   5.384  13.292
83592W        W50001   4.823   5.673  10.049
83593W        W50002  14.115  44.519   0.790
83594W        W50003  16.171  35.057   4.002
83595W        W50004  21.727  40.033   2.306
83596W        W50005  24.041   2.375  12.243
83597W        W50006  31.332  41.015   1.130
83598W        W50007  36.530  19.887   3.634
83599W        W50008  30.969  13.325  11.757
83600W        W50009  17.755  26.897   2.573
83601W        W50010  10.123  23.410   0.058
83602W        W50011   2.354  30.970  11.908
83603W        W50012  32.150  26.919   0.861
83604W        W50013  41.410  43.214  12.597
83605W        W50014  23.246  14.141   3.146
83606W        W50015   0.291   8.316   3.972
83607W        W50016  31.115  44.807   4.131
83608W        W50017   6.984  19.118   1.704
83609W        W50018  18.576  31.647  12.077
83610W        W50019  18.507  17.223   1.743
83611W        W50020  32.081   1.754   2.325
83612W        W50021  26.158  39.627  11.177
83613W        W50022  19.815  35.280   1.464
83614W        W50023  13.831   7.149   3.600
83615W        W50024  27.683  37.940   0.201
83616W        W50025   7.842   6.401   3.628
83617W        W50026  28.622   0.340  12.882
83618W        W50027  39.113  22.759   0.674
83619W        W50028  11.855  32.446  12.610
83620W        W50029   9.348  28.871   5.082
83621W        W50030  31.361   0.724  14.855
83622W        W50031  14.480  22.324  12.953
83623W        W50032  30.885  28.510   1.607
83624W        W50033  38.901  30.639   2.503
83625W        W50034  43.849  41.255  12.879
83626W        W50035  37.010   7.179  10.819
83627W        W50036   4.843   6.982   4.165
83628W        W50037   2.228  24.607  14.884
83629W        W50038   2.765  18.215  14.442
83630W        W50039  23.155  21.210   0.994
83631W        W50040  37.304   9.306   3.925
83632W        W50041  23.100   6.278   3.211
83633W        W50042  43.030  43.677   1.230
83634W        W50043   9.694   3.513  12.964
83635W        W50044   5.671  20.579  12.295
83636W        W50045  32.023  18.621  14.781
83637W        W50046  37.277  18.968   2.787
83638W        W50047  25.460   6.605   0.017
83639W        W50048  43.356  36.604  11.255
83640W        W50049  26.483  16.695  13.728
83641W        W50050  37.524  18.505  12.101
83642W        W50051  42.927  25.390   2.467
83643W        W50052  25.095  36.089   1.261
83644W        W50053  26.982  29.055   2.452
83645W        W50054  17.368   9.492   0.787
83646W        W50055   9.653  35.607   3.335
83647W        W50056   2.300   0.931  12.966
83648W        W50057  32.117  39.365  14.417
83649W        W50058  41.233  15.289  14.249
83650W        W50059  32.630  16.170   3.840
83651W        W50060   3.347  28.202   3.249
83652W        W50061  36.976  25.935   2.885
83653W        W50062   6.176   8.469  10.427
83654W        W50063  15.511   1.288  13.527
83655W        W50064  37.904   5.437  14.463
83656W        W50065  10.218   1.895   0.131
83657W        W50066  33.333  30.654  12.648
83658W        W50067  37.576   8.615  11.944
83659W        W50068  21.401  30.484  11.903
83660W        W50069  16.248  11.305   1.983
83661W        W50070  32.397  14.311  10.679
83662W        W50071  22.760  10.714  10.988
83663W        W50072   2.185  38.626  11.617
83664W        W50073  21.915  38.128  14.805
83665W        W50074  11.450   2.791  14.038
83666W        W50075  39.999  32.550   3.358
83667W        W50076   6.187  16.475  10.850
83668W        W50077  42.683  16.554  11.547
83669W        W50078  42.801  15.221  13.170
83670W        W50079  32.047  25.164   2.912
83671W        W50080  20.166  11.042   0.779
83672W        W50081  36.598  31.648  11.158
83673W        W50082  22.523   5.813   0.368
83674W        W50083  28.624  11.812   1.676
83675W        W50084  34.954  27.603   4.700
83676W        W50085  11.740  23.370   3.797
83677W        W50086  24.096  26.567  14.133
83678W        W50087  20.672  11.245   4.151
83679W        W50088  25.516  11.418  14.066
83680W        W50089  30.550  17.387   2.730
83681W        W50090  40.218  44.886  14.799
83682W        W50091   5.244  27.652   0.467
83683W        W50092  33.036  43.146  12.903
83684W        W50093  13.635  31.207   1.849
83685W        W50094  11.330  12.714   4.159
83686W        W50095  16.987  38.958   1.228
83687W        W50096  39.277  11.772   2.855
83688W        W50097   2.134  42.052  14.931
83689W        W50098  33.304  24.090  13.720
83690W        W50099  15.681   6.222  12.287
83691W        W50100  10.172  30.264   3.215
83692W        W50101  32.414  31.020   1.716
83693W        W50102  37.285   8.426   4.191
83694W        W50103  40.305  44.168   0.880
83695W        W50104  11.585  29.059  10.989
83696W        W50105   7.437   4.790   4.560
83697W        W50106  16.781   8.240  14.563
83698W        W50107  22.998  25.563   1.946
83699W        W50108  39.366  26.738   1.788
83700W        W50109  20.678  37.667  14.542
83701W        W50110   9.684  18.534  13.500
83702W        W50111  11.641  18.750   3.750
83703W        W50112  33.156  15.723   5.131
83704W        W50113   6.120  31.609   4.159
83705W        W50114  33.794  23.018   2.559
83706W        W50115  16.165  20.733   1.863
83707W        W50116   5.445  36.555   0.657
83708W        W50117  39.897   8.552  12.824
83709W        W50118  29.633  27.644   0.399
83710W        W50119  40.930  10.056  14.508
83711W        W50120  26.591  12.610   2.315
83712W        W50121   8.147  27.933  13.910
83713W        W50122  34.481  12.138   3.917
83714W        W50123  43.575  19.714   1.169
83715W        W50124  22.544   4.506  10.693
83716W        W50125   3.936   9.380  11.103
83717W        W50126  34.505  16.403   1.187
83718W        W50127  12.899  26.774   1.716
83719W        W50128  13.669  36.032  13.234
83720W        W50129  32.593  23.992  10.693
83721W        W50130  40.451  10.239   3.146
83722W        W50131   2.283  42.307   2.140
83723W        W50132  19.941  22.292   3.688
83724W        W50133  26.981  12.888   0.274
83725W        W50134  30.553  24.704  12.619
83726W        W50135  34.595  42.353  12.889
83727W        W50136  37.815  14.272   2.489
83728W        W50137   3.949   6.075  14.792
83729W        W50138  28.152  32.109  13.135
83730W        W50139  37.076  28.707   1.725
83731W        W50140  17.111   4.146   0.875
83732W        W50141  23.500   1.783  14.313
83733W        W50142   8.356  18.254  11.543
83734W        W50143  21.146  29.967  13.998
83735W        W50144  17.100  18.220  10.305
83736W        W50145  36.568  14.283  11.225
83737W        W50146  38.433  18.059   2.339
83738W        W50147  33.661   3.521  12.095
83739W        W50148  19.566  16.789   3.352
83740W        W50149  18.588  44.496  11.486
83741W        W50150  32.596  35.474  14.257
83742W        W50151   0.023  17.117  14.033
83743W        W50152  40.563  10.478  11.437
83744W        W50153  16.835  39.841   3.572
83745W        W50154  17.062  25.268  14.648
83746W        W50155  23.128   9.458   0.262
83747W        W50156  38.192  39.184   0.361
83748W        W50157  16.674  25.644  14.559
83749W        W50158  14.020  35.095   4.653
83750W        W50159   0.256  18.090  12.087
83751W        W50160  22.596  38.417   2.631
83752W        W50161  37.521  31.914   2.348
83753W        W50162   5.834  34.536   4.256
83754W        W50163  44.780  43.592   3.073
83755W        W50164  14.594  39.540  12.956
83756W        W50165  33.172  21.560   5.147
83757W        W50166   6.874  44.273  12.588
83758W        W50167  40.452   7.211  12.268
83759W        W50168  32.580  36.173   4.264
83760W        W50169  40.998  19.525  11.263
83761W        W50170  43.817  15.156  12.827
83762W        W50171  11.709  13.276  14.875
83763W        W50172  40.842  14.008   3.139
83764W        W50173   2.098  29.301  11.666
83765W        W50174  23.488   4.088   3.820
83766W        W50175   9.347  15.668   0.415
83767W        W50176   6.971   0.442   2.450
83768W        W50177  16.830  36.895   3.340
83769W        W50178   9.720  39.022  10.896
83770W        W50179  22.185  31.914   2.347
83771W        W50180  19.961  33.874   4.643
83772W        W50181  34.484  39.639   1.942
83773W        W50182  39.049  28.941  10.148
83774W        W50183  44.208  19.796  12.119
83775W        W50184   9.578   3.923  13.952
83776W        W50185  42.235  10.666   0.654
83777W        W50186   7.770  27.575  14.091
83778W        W50187  18.569  10.571   2.753
83779W        W50188  40.533   0.368  11.584
83780W        W50189  42.950   0.040  13.041
83781W        W50190  14.680  32.081  12.148
83782W        W50191  39.762  22.636   4.079
83783W        W50192  10.900  44.531   2.184
83784W        W50193  35.916  36.939  14.783
83785W        W50194   8.829  28.687  14.521
83786W        W50195  16.147  26.079   3.215
83787W        W50196   3.790  20.587  13.071
83788W        W50197  17.092  10.259   4.317
83789W        W50198   5.046  15.592   3.680
83790W        W50199  36.146   8.374  10.633
83791W        W50200   9.540  12.658  13.718
83792W        W50201  37.880   5.875   4.734
83793W        W50202  19.289  13.368   1.251
83794W        W50203  40.134   9.435  11.645
83795W        W50204  22.439  22.396   1.252
83796W        W50205   4.236  14.070   1.805
83797W        W50206  42.408  30.865  10.808
83798W        W50207  44.183   0.811  14.800
83799W        W50208  32.578  23.744  11.496
83800W        W50209  16.677  38.407   1.741
83801W        W50210   6.062   6.355  12.459
83802W        W50211  20.082  17.800  12.446
83803W        W50212  16.125  28.535  11.571
83804W        W50213   0.383  34.401  10.923
83805W        W50214  41.031  14.342   4.468
83806W        W50215  40.644  31.697  12.692
83807W        W50216  38.379   0.672   3.694
83808W        W50217  26.715  36.110  12.033
83809W        W50218  12.757  37.441  14.852
83810W        W50219  29.203  43.045   4.151
83811W        W50220  23.728  24.223   1.403
83812W        W50221  14.261  16.064  13.753
83813W        W50222  37.925   9.568   1.679
83814W        W50223   8.421  17.700  12.049
83815W        W50224  25.544   6.677   3.064
83816W        W50225  19.184  33.468  11.046
83817W        W50226  34.978   7.857   0.540
83818W        W50227  13.468   7.463  10.461
83819W        W50228  32.930   5.414  10.740
83820W        W50229  13.996  11.549   3.782
83821W        W50230  20.007   6.829  14.356
83822W        W50231  19.834   9.147   0.763
83823W        W50232  36.227  26.573   3.846
83824W        W50233  23.148  10.378  11.589
83825W        W50234   1.382  26.708  10.961
83826W        W50235  42.571  22.703  12.263
83827W        W50236  34.455  31.507   4.708
83828W        W50237  21.645  30.944  12.069
83829W        W50238  26.753   1.751  10.969
83830W        W50239   9.104   7.673  11.993
83831W        W50240  33.281  25.493   1.631
83832W        W50241  12.117   0.973   1.346
83833W        W50242  20.024  30.338  12.880
83834W        W50243   3.196  14.711   2.305
83835W        W50244  40.947  13.815  11.284
83836W        W50245   0.538   8.362   2.763
83837W        W50246  17.592  37.799   3.817
83838W        W50247  34.795  32.836  14.622
83839W        W50248  12.870  30.197   4.326
83840W        W50249  15.209   2.039  13.188
83841W        W50250  14.339  25.076   4.094
83842W        W50251  43.805  26.772  11.373
83843W        W50252   3.512   0.854   0.268
83844W        W50253   8.198  25.955  14.523
83845W        W50254  17.771  19.201  10.352
83846W        W50255  21.781  36.005  14.465
83847W        W50256  28.484  35.859   2.881
83848W        W50257  24.584  37.738  14.377
83849W        W50258   4.303  40.051   1.931
83850W        W50259   1.723  33.462  14.575
83851W        W50260  16.718  10.612  14.345
83852W        W50261  24.093   6.936   3.630
83853W        W50262  13.268  20.368  11.100
83854W        W50263  32.435  26.062   0.223
83855W        W50264  14.143  39.882  13.993
83856W        W50265  36.938  37.338  10.772
83857W        W50266  11.427  18.190  12.945
83858W        W50267  31.973   5.190  13.517
83859W        W50268  43.205  42.950  14.911
83860W        W50269  33.506  24.046   1.307
83861W        W50270  25.693  29.627  14.487
83862W        W50271  13.285  31.175  11.931
83863W        W50272  28.628  22.600  10.460
83864W        W50273  12.937  37.558  14.365
83865W        W50274  20.976  17.107  12.892
83866W        W50275  28.744  31.030   3.125
83867W        W50276  39.743  36.432  11.123
83868W        W50277  25.262   0.548   4.649
83869W        W50278  13.497   0.936   0.832
83870W        W50279  12.146  16.590   3.712
83871W        W50280   5.737  23.574  11.570
83872W        W50281   2.048  40.057  10.782
83873W        W50282  31.790   3.791  11.948
83874W        W50283   9.442  19.960   1.962
83875W        W50284  41.174  17.130  12.980
83876W        W50285  17.664  21.526   0.388
83877W        W50286  21.891  35.506   2.333
83878W        W50287   9.372  31.119  14.349
83879W        W50288  39.910  34.142  14.734
83880W        W50289  13.229  15.534   2.150
83881W        W50290  26.599   7.218  12.576
83882W        W50291  14.278  19.953  11.947
83883W        W50292   3.963  43.056   0.656
83884W        W50293   9.197   4.223  13.013
83885W        W50294  25.244  10.722   1.493
83886W        W50295  20.285  22.144   4.053
83887W        W50296   6.891  24.484  14.797
83888W        W50297  32.355  14.304   0.481
83889W        W50298  21.261  18.800   1.713
83890W        W50299  12.365  23.232   2.684
83891W        W50300  28.091   7.782  12.865
83892W        W50301  30.453  10.556  10.616
83893W        W50302  24.199  44.402  14.736
83894W        W50303  40.086  32.829  11.118
83895W        W50304  41.546  39.304  11.133
83896W        W50305  37.012   4.140   1.759
83897W        W50306   5.252  40.103  14.550
83898W        W50307  12.302  19.781  12.442
83899W        W50308  23.582  14.149   2.688
83900W        W50309  19.260  33.746  14.790
83901W        W50310  17.549  29.503  10.931
83902W        W50311   0.479  30.366  11.852
83903W        W50312  32.597  42.070  13.970
83904W        W50313  15.378  29.977   2.168
83905W        W50314  12.844  36.862   5.516
83906W        W50315  10.754   5.273  12.603
83907W        W50316  15.958  13.058   1.706
83908W        W50317  28.596  41.779   1.496
83909W        W50318   4.765  37.193   2.332
83910W        W50319  39.423  16.117  13.342
83911W        W50320  20.140  42.148  12.973
83912W        W50321  40.354  32.662  13.306
83913W        W50322  24.642  21.880   1.235
83914W        W50323   8.858  42.019  10.630
83915W        W50324  19.538  15.300  13.199
83916W        W50325  37.994  32.430   2.044
83917W        W50326  30.597   1.420  14.905
83918W        W50327   2.895  28.933   4.274
83919W        W50328  24.188  29.593  14.289
83920W        W50329   9.232  20.641  13.753
83921W        W50330  32.610  34.623   2.703
83922W        W50331  33.909   1.877   1.310
83923W        W50332  34.607  28.200   1.897
83924W        W50333  34.945  31.114   2.762
83925W        W50334  26.806  38.213  14.841
83926W        W50335  14.669  12.903  12.385
83927W        W50336  33.567  11.265  13.252
83928W        W50337  15.375  19.650   9.680
83929W        W50338  42.192   6.476   1.830
83930W        W50339  27.632  27.313  13.313
83931W        W50340  13.481  33.902  12.070
83932W        W50341  42.960  43.796   1.775
83933W        W50342  16.766   4.988   4.734
83934W        W50343   9.124  23.501  14.602
83935W        W50344   3.350  30.036  11.903
83936W        W50345   7.591  37.426   0.975
83937W        W50346  38.766  18.705   0.039
83938W        W50347  34.860  26.402   1.722
83939W        W50348  42.689  43.321   4.719
83940W        W50349  31.069  41.167  11.668
83941W        W50350  40.949  14.256  13.025
83942W        W50351  27.977  25.100   0.806
83943W        W50352   4.708   0.902   3.209
83944W        W50353   9.904  20.352   0.709
83945W        W50354  13.614  18.609   1.759
83946W        W50355  44.482  36.282   3.607
83947W        W50356  10.600  28.579   3.270
83948W        W50357  31.800  21.624  13.059
83949W        W50358   6.728  14.688   1.737
83950W        W50359  22.602  18.501  14.504
83951W        W50360  20.963  40.050  12.803
83952W        W50361  43.078   6.698  13.662
83953W        W50362  15.010  32.728  10.626
83954W        W50363  44.369  44.477  12.925
83955W        W50364  17.266   8.489   0.962
83956W        W50365  23.484  43.307   3.440
83957W        W50366   6.252  39.348  10.571
83958W        W50367  20.748  25.328  12.045
83959W        W50368  38.945  39.436  12.554
83960W        W50369  30.837  19.566   3.198
83961W        W50370  26.987  44.576  11.137
83962W        W50371  31.192   2.893   1.834
83963W        W50372  40.809  22.803   2.442
83964W        W50373  36.320  32.451   2.194
83965W        W50374  39.651  12.012  14.994
83966W        W50375  37.905  42.864   2.196
83967W        W50376  24.804  15.812  10.097
83968W        W50377  29.810  23.435   1.441
83969W        W50378  16.259  15.808   0.563
83970W        W50379  44.750   1.331  13.067
83971W        W50380  38.362  37.522  13.589
83972W        W50381  14.633   5.195   0.777
83973W        W50382  10.411  29.665  10.434
83974W        W50383  14.274  37.309  11.560
83975W        W50384  32.839   5.355  13.464
83976W        W50385  13.573  26.681   4.277
83977W        W50386  25.251  30.512   3.723
83978W        W50387   0.643   7.721   2.660
83979W        W50388  23.977  26.889   1.676
83980W        W50389  44.886  11.700  11.635
83981W        W50390  18.557   4.184   4.132
83982W        W50391  22.949  19.724   4.545
83983W        W50392  20.099  36.379   0.867
83984W        W50393  19.269  41.414  14.285
83985W        W50394  43.748  23.818  13.864
83986W        W50395  40.406  10.141   2.219
83987W        W50396  39.665  32.168  13.909
83988W        W50397  35.093  36.865   1.916
83989W        W50398  22.035  15.208  11.633
83990W        W50399   4.890  31.180  13.634
83991W        W50400   4.229   4.183   0.700
83992W        W50401   9.876  26.650   4.575
83993W        W50402  38.095  43.955   4.080
83994W        W50403  33.377  28.113   0.468
83995W        W50404  31.097   5.903   1.835
83996W        W50405  37.548  27.704  13.856
83997W        W50406   8.612   9.333   3.548
83998W        W50407  24.678  25.139   3.640
83999W        W50408   6.293  15.602   1.693
84000W        W50409  19.590  27.246  13.966
84001W        W50410  23.176  26.356  11.915
84002W        W50411  30.874  29.148   4.601
84003W        W50412  21.555  35.016  12.935
84004W        W50413   4.463   7.997  13.928
84005W        W50414  30.548  35.570  11.056
84006W        W50415  32.970  37.402   0.298
84007W        W50416  43.434  26.644  13.172
84008W        W50417  16.860  11.523  11.659
84009W        W50418  38.480  22.278   3.293
84010W        W50419   1.777  21.277   3.179
84011W        W50420  35.525  44.607  11.910
84012W        W50421   8.921   8.330   0.400
84013W        W50422  28.277   2.450  11.324
84014W        W50423  10.955  19.217   0.013
84015W        W50424  26.641  12.084   0.536
84016W        W50425  43.586   3.975   2.724
84017W        W50426  31.642  10.963   1.752
84018W        W50427   2.950  11.755  14.014
84019W        W50428  18.686  29.089   4.915
84020W        W50429   6.396  39.137   3.206
84021W        W50430  30.609  23.772  13.483
84022W        W50431  22.181  10.979  14.961
84023W        W50432  30.005   0.835   2.635
84024W        W50433  29.446  31.393  12.520
84025W        W50434  22.673   2.975  13.455
84026W        W50435  44.801   1.970  11.992
84027W        W50436   6.715  24.038   4.547
84028W        W50437  32.532  24.018  10.111
84029W        W50438   2.380   9.160   0.241
84030W        W50439  37.538   8.079  14.740
84031W        W50440   1.902  24.169  14.402
84032W        W50441  26.375  18.016  14.018
84033W        W50442   0.588  23.281  13.480
84034W        W50443  41.727  30.705   9.709
84035W        W50444  33.960  32.407   3.257
84036W        W50445  37.869   4.362   3.097
84037W        W50446   1.785   8.125   4.604
84038W        W50447   5.861   0.002   4.089
84039W        W50448   9.786  26.448   0.854
84040W        W50449  19.188  32.898  12.803
84041W        W50450  38.080  10.566  13.663
84042W        W50451  11.682  22.469  11.895
84043W        W50452   2.938  37.096  14.369
84044W        W50453  23.212  11.691   1.262
84045W        W50454   4.498   3.634   2.859
84046W        W50455  17.360  43.272  11.678
84047W        W50456   5.664  11.122   4.169
84048W        W50457  33.315  44.802  11.366
84049W        W50458  27.467   8.371   1.361
84050W        W50459  22.604   0.979   1.555
84051W        W50460  37.443  17.345   1.003
84052W        W50461  29.487   7.144  13.342
84053W        W50462  12.444   7.810   2.828
84054W        W50463   6.717   5.779  14.498
84055W        W50464   0.226  32.861   1.150
84056W        W50465  41.539  21.201   2.410
84057W        W50466  22.686  22.138  14.911
84058W        W50467  15.183  30.408  11.442
84059W        W50468  33.641   2.444  13.894
84060W        W50469  37.426  29.489  14.748
84061W        W50470   3.733  31.526   2.395
84062W        W50471  20.688  11.958   2.181
84063W        W50472  18.769   2.246  14.470
84064W        W50473  39.813  21.449   4.994
84065W        W50474  11.045  19.042   2.427
84066W        W50475  25.355  35.388  11.725
84067W        W50476  19.324  20.147   0.009
84068W        W50477  13.226  10.781   0.834
84069W        W50478   1.770  39.048  10.843
84070W        W50479   1.435  18.093  11.210
84071W        W50480   7.475  23.743   0.818
84072W        W50481  33.634   9.825  10.665
84073W        W50482  33.664  40.866  11.924
84074W        W50483  42.602  30.660   1.419
84075W        W50484   7.945  34.925   3.729
84076W        W50485   7.848  23.785  12.414
84077W        W50486  10.290   7.786   3.691
84078W        W50487  40.801  11.636   0.404
84079W        W50488  40.891  13.977  10.780
84080W        W50489  37.392  41.409  11.509
84081W        W50490  25.021  11.324   2.238
84082W        W50491  23.611  40.005  14.031
84083W        W50492  44.791  37.946  14.696
84084W        W50493   4.923   7.278  14.870
84085W        W50494  28.554  41.561   2.333
84086W        W50495  29.102   4.826   2.837
84087W        W50496  18.572  29.570  14.344
84088W        W50497   0.951   3.603   3.730
84089W        W50498  39.037  11.346   2.668
84090W        W50499  31.947   0.856   4.585
84091W        W50500  43.767  10.771  11.484
84092W        W50501  34.893  38.026   2.783
84093W        W50502  33.011  14.938   3.251
84094W        W50503   3.472   3.809   3.720
84095W        W50504  39.380  23.432  14.120
84096W        W50505  17.662  28.719   3.651
84097W        W50506  44.120  34.403  11.505
84098W        W50507   4.838  14.421  12.578
84099W        W50508  39.155  14.920   1.696
84100W        W50509   6.680  27.361  10.754
84101W        W50510   2.057  22.023  11.935
84102W        W50511   6.958  26.721   0.444
84103W        W50512  35.446  24.526  11.269
84104W        W50513  12.372   7.153   0.875
84105W        W50514   0.380  42.404   4.512
84106W        W50515  44.314  17.171  11.168
84107W        W50516  18.669   6.931   1.827
84108W        W50517   4.195  19.303  13.649
84109W        W50518  21.647   4.692  13.035
84110W        W50519  15.565  35.572   1.419
84111W        W50520  26.077  25.070   9.827
84112W        W50521  22.183  30.894   3.982
84113W        W50522   4.296  35.632   1.496
84114W        W50523   2.939   9.169   4.207
84115W        W50524  26.706   9.423  14.269
84116W        W50525  41.778   7.769  11.380
84117W        W50526  34.092  25.969  14.793
84118W        W50527  35.981  11.563   4.608
84119W        W50528   5.156   2.717  11.437
84120W        W50529  25.940   1.821   3.689
84121W        W50530  15.678  20.152   2.120
84122W        W50531  30.540  43.069  11.532
84123W        W50532  13.461  29.598   0.023
84124W        W50533  38.906  40.306   0.505
84125W        W50534  36.257   7.189   3.796
84126W        W50535  10.264  36.366   1.676
84127W        W50536   0.200  40.235  10.730
84128W        W50537  10.770  29.036   3.564
84129W        W50538   8.692  28.081  10.689
84130W        W50539  13.680  22.603   3.156
84131W        W50540  15.098  19.787  11.580
84132W        W50541   9.700  26.896   4.987
84133W        W50542  34.498  27.840   4.595
84134W        W50543  10.784  28.538  11.982
84135W        W50544  18.257  19.553  11.132
84136W        W50545   2.037   8.514  14.007
84137W        W50546   0.041   4.372   3.085
84138W        W50547  18.762   6.774  14.848
84139W        W50548  27.603  18.018  10.698
84140W        W50549  22.799   6.259  14.367
84141W        W50550  27.123  38.319  11.094
84142W        W50551  19.558  17.831  13.420
84143W        W50552  13.239   4.513  11.873
84144W        W50553  21.995   7.380  10.545
84145W        W50554  39.246  32.133   2.807
84146W        W50555  43.029  30.995  12.238
84147W        W50556  19.043  30.636  13.059
84148W        W50557   6.883  10.871   4.106
84149W        W50558  15.143   4.787   1.407
84150W        W50559  44.789  29.869  12.610
84151W        W50560  28.692  40.350  12.886
84152W        W50561   8.332  41.750  13.594
84153W        W50562  38.002  44.241  14.383
84154W        W50563  18.782  37.170   5.001
84155W        W50564  12.846  31.963   4.816
84156W        W50565  11.287  43.092  12.826
84157W        W50566  10.817  25.624   1.314
84158W        W50567   5.394  36.562   2.167
84159W        W50568   9.967   3.827   3.210
84160W        W50569  14.354  28.011   3.075
84161W        W50570  28.189  14.734   1.325
84162W        W50571  14.089  10.283  14.956
84163W        W50572   5.856  32.016  14.082
84164W        W50573  15.440  43.987  11.887
84165W        W50574  10.254  40.101   0.907
84166W        W50575   0.576  35.160   2.418
84167W        W50576  22.717  16.227   2.601
84168W        W50577  44.718  23.271   4.823
84169W        W50578  11.566  10.330  12.025
84170W        W50579  44.718   5.748  11.893
84171W        W50580  32.833  16.914  12.826
84172W        W50581   9.446   3.256   2.268
84173W        W50582   2.722  26.918  13.834
84174W        W50583  37.291   6.842   2.445
84175W        W50584  29.201  25.171   2.819
84176W        W50585  23.520  16.103  14.983
84177W        W50586   5.925  21.713   4.577
84178W        W50587  13.576  19.465  10.667
84179W        W50588  38.716  44.538  13.445
84180W        W50589  33.500  10.354   0.769
84181W        W50590  42.196   9.390   3.132
84182W        W50591  44.015   6.387  11.901
84183W        W50592  14.234  33.116  14.929
84184W        W50593  36.801  23.314  12.600
84185W        W50594  18.551  17.278   2.599
84186W        W50595  27.057   3.182  10.785
84187W        W50596   6.959  41.783  11.296
84188W        W50597  39.913   3.651  11.881
84189W        W50598  27.739   5.851   0.515
84190W        W50599  23.880  30.432  11.190
84191W        W50600   3.497   9.872   0.352
84192W        W50601  21.815   4.039   2.848
84193W        W50602  25.203   1.551   1.823
84194W        W50603  30.944   4.841  10.920
84195W        W50604  11.682  21.491  13.580
84196W        W50605   7.134   2.211  11.661
84197W        W50606  18.681  35.331  12.095
84198W        W50607  22.554  27.633   2.137
84199W        W50608   6.175  31.703  11.174
84200W        W50609  27.084  27.979  13.463
84201W        W50610  24.972  30.028   0.653
84202W        W50611  40.678  34.353   2.413
84203W        W50612  43.410   0.054  13.905
84204W        W50613  21.472  12.249   0.528
84205W        W50614  16.555  19.105   4.633
84206W        W50615   4.896  14.573   0.020
84207W        W50616   0.426  16.238  10.695
84208W        W50617  41.423  42.769  13.791
84209W        W50618   6.738  18.997   0.701
84210W        W50619   7.699  18.691   2.951
84211W        W50620  40.878  24.109  14.369
84212W        W50621  21.682  13.797   1.664
84213W        W50622  29.522  27.589   3.343
84214W        W50623  38.559  25.689   1.732
84215W        W50624  42.268  42.779  10.278
84216W        W50625   7.740  12.855  10.995
84217W        W50626   7.779   9.779  12.391
84218W        W50627  24.445  19.243   0.794
84219W        W50628  27.186  36.771  11.063
84220W        W50629  34.149  20.521   2.945
84221W        W50630  35.318   8.708   0.785
84222W        W50631  25.965  29.735   0.777
84223W        W50632  35.437  42.161   2.431
84224W        W50633  18.068  39.315  11.112
84225W        W50634   6.217  40.371   4.609
84226W        W50635  16.154  44.269  12.417
84227W        W50636  30.349   9.686   0.498
84228W        W50637  30.252   7.384  12.050
84229W        W50638  14.910   7.842   3.712
84230W        W50639  31.895  41.588  12.906
84231W        W50640  20.500  38.312   4.123
84232W        W50641  38.193   6.887   3.279
84233W        W50642  37.692  32.659  13.097
84234W        W50643  40.244   5.846   0.761
84235W        W50644  36.290  24.562   0.757
84236W        W50645  10.248  16.794   3.189
84237W        W50646  12.235  43.490   2.656
84238W        W50647  14.282  31.359  13.907
84239W        W50648  18.837  42.048   4.289
84240W        W50649  15.328   4.684   0.568
84241W        W50650  32.665  38.552  12.012
84242W        W50651  29.653  29.084  13.434
84243W        W50652  17.491  18.407  13.116
84244W        W50653  10.296  40.954  13.422
84245W        W50654   6.771  19.112  12.047
84246W        W50655  10.812   9.202  10.753
84247W        W50656  25.955  32.016   3.332
84248W        W50657  36.869  33.026   3.866
84249W        W50658  12.611  15.884  13.054
84250W        W50659   4.353  32.370  12.946
84251W        W50660  34.723  21.858   2.894
84252W        W50661   2.755  25.680   3.716
84253W        W50662   7.248  14.334   0.306
84254W        W50663  24.230  28.860   0.830
84255W        W50664  13.584  22.882   3.620
84256W        W50665  40.455  29.572  12.499
84257W        W50666  11.771   3.501  11.257
84258W        W50667  12.905   2.176  12.978
84259W        W50668   0.962  36.551   1.049
84260W        W50669   5.066   7.206  14.013
84261W        W50670   3.451  41.135  13.094
84262W        W50671  25.206  15.355  12.694
84263W        W50672  11.182  25.619  13.360
84264W        W50673  36.307   8.783  11.443
84265W        W50674  21.160   5.361   1.458
84266W        W50675  28.814  30.586  10.794
84267W        W50676  30.032  23.069   2.179
84268W        W50677  13.226  35.463   4.300
84269W        W50678  21.519  28.454   3.575
84270W        W50679  15.174  27.503   0.479
84271W        W50680  37.007  13.362   4.102
84272W        W50681  25.244  33.330  10.419
84273W        W50682  30.379  21.905  14.993
84274W        W50683  29.125  13.366  10.733
84275W        W50684  15.736  33.120   2.417
84276W        W50685  25.986  26.593   1.889
84277W        W50686   0.428  29.128  10.785
84278W        W50687  36.314  39.257   9.833
84279W        W50688  40.741  35.930  11.639
84280W        W50689  13.254  23.054   0.105
84281W        W50690  27.191   2.401   2.545
84282W        W50691  37.787  43.323  13.467
84283W        W50692  17.729  18.781  14.346
84284W        W50693  26.582  25.561  11.470
84285W        W50694   6.888   3.500  13.539
84286W        W50695  26.689   9.191   2.271
84287W        W50696  41.581  13.797   0.961
84288W        W50697   9.913  36.119  11.669
84289W        W50698  19.338  22.957   3.774
84290W        W50699  39.141  34.560   4.213
84291W        W50700  32.364  22.512   0.958
84292W        W50701  13.817  22.622  14.234
84293W        W50702  24.298  28.945  11.144
84294W        W50703  32.942  24.057  12.204
84295W        W50704   2.453   1.725   5.062
84296W        W50705   9.684   0.910   0.808
84297W        W50706   6.520   8.272  14.221
84298W        W50707  40.906  38.051  11.578
84299W        W50708  20.873  27.081   3.043
84300W        W50709  27.980  31.920   4.624
84301W        W50710   4.242  11.329  13.502
84302W        W50711  40.784  17.720   1.225
84303W        W50712  23.561  38.982   4.797
84304W        W50713  21.067  16.947  11.188
84305W        W50714  39.288  42.708  11.614
84306W        W50715  20.685  30.272  10.854
84307W        W50716  14.539  36.047  12.914
84308W        W50717  14.060   2.888   0.194
84309W        W50718  14.844   4.872  12.851
84310W        W50719  44.977  18.183   2.189
84311W        W50720  37.186  38.016  12.499
84312W        W50721   7.477  17.916   1.300
84313W        W50722  33.365  25.664  13.026
84314W        W50723  35.102  32.145   2.655
84315W        W50724  44.863  37.506   2.416
84316W        W50725  34.330  12.200   2.874
84317W        W50726   0.736  43.758  13.751
84318W        W50727  27.139  24.259  13.789
84319W        W50728  26.561  14.721   1.166
84320W        W50729   5.431  37.845  11.798
84321W        W50730   0.062  26.243  13.287
84322W        W50731  38.720  41.040  14.128
84323W        W50732  19.111  29.829   4.456
84324W        W50733  19.554  35.362  11.791
84325W        W50734   3.759  18.706  12.118
84326W        W50735  21.728  42.569  14.037
84327W        W50736  33.911  13.679   4.254
84328W        W50737  19.638   4.852   1.308
84329W        W50738   9.274  43.062   0.774
84330W        W50739   1.285  29.237   3.734
84331W        W50740  28.714  10.441  11.413
84332W        W50741  26.698  23.821  12.097
84333W        W50742  34.599   7.161  13.725
84334W        W50743  32.968   7.348  10.986
84335W        W50744   9.212  26.649  14.784
84336W        W50745  25.689  11.325   1.823
84337W        W50746   0.954   3.380   1.293
84338W        W50747  21.848  21.030  14.482
84339W        W50748  36.750  36.082  14.152
84340W        W50749  24.517  19.843  10.204
84341W        W50750  26.449  16.510   3.243
84342W        W50751   4.876  34.213   3.572
84343W        W50752  17.283   0.536  14.823
84344W        W50753   0.820  31.019  10.186
84345W        W50754  30.654  41.663   5.118
84346W        W50755  23.166  19.524   2.406
84347W        W50756  35.938  16.539   2.379
84348W        W50757  42.963  10.318  11.594
84349W        W50758   9.362  17.073  11.176
84350W        W50759   9.678  30.342  12.395
84351W        W50760  40.372  44.606   2.949
84352W        W50761   5.793  40.569  12.404
84353W        W50762  41.451  25.506  11.679
84354W        W50763  25.963  11.232   1.380
84355W        W50764  27.766  26.873  12.411
84356W        W50765   9.329   0.189   0.354
84357W        W50766   0.956  43.949   0.126
84358W        W50767  10.737  25.254  13.911
84359W        W50768  31.351   3.457   3.649
84360W        W50769  39.540  19.667   1.265
84361W        W50770  20.270  16.650  13.364
84362W        W50771   0.741   5.158   2.835
84363W        W50772  31.799   8.625   1.996
84364W        W50773  27.187  23.436   3.970
84365W        W50774  18.475  15.810   3.244
84366W        W50775  33.487  30.876   4.416
84367W        W50776   0.603  25.105   3.553
84368W        W50777  14.296  37.507  12.960
84369W        W50778   9.243  42.583  12.577
84370W        W50779  42.506  17.506  11.038
84371W        W50780  31.917  37.964   1.551
84372W        W50781   8.697  28.032   1.331
84373W        W50782  22.002  30.978  14.940
84374W        W50783  21.144   6.430  10.849
84375W        W50784  25.156   7.679  13.916
84376W        W50785  34.681   4.768   2.721
84377W        W50786  11.377   6.822   2.871
84378W        W50787   2.690  39.366   3.764
84379W        W50788  13.549   6.204  14.996
84380W        W50789  15.087  36.930  14.961
84381W        W50790  13.580  26.539   0.206
84382W        W50791  29.066  11.209  14.423
84383W        W50792  32.374   3.255  11.596
84384W        W50793  29.786  12.885   3.735
84385W        W50794  14.777  35.869   4.868
84386W        W50795   4.945  18.468  10.252
84387W        W50796   0.358  27.250   3.319
84388W        W50797   4.395  43.999   1.511
84389W        W50798  36.511  30.363   3.815
84390W        W50799   4.837  27.194  11.604
84391W        W50800  15.102   8.130  10.806
84392W        W50801  43.658  42.875  10.939
84393W        W50802  31.107  19.368   4.238
84394W        W50803  37.683  25.515   2.860
84395W        W50804  40.895  30.874  11.148
84396W        W50805  23.582   0.622  12.061
84397W        W50806   6.769  40.787  11.168
84398W        W50807  39.302  25.123  14.326
84399W        W50808   3.684   2.705   2.224
84400W        W50809  25.348   5.970  13.184
84401W        W50810  10.677   5.323  13.117
84402W        W50811   5.943  40.494   0.027
84403W        W50812   6.531  12.676  13.169
84404W        W50813   6.955   8.338   4.006
84405W        W50814  19.710   6.572  13.509
84406W        W50815  10.377  43.278   0.797
84407W        W50816  35.296   4.709  11.977
84408W        W50817  33.639   8.114   1.313
84409W        W50818   5.477  28.114   4.474
84410W        W50819  38.902  25.460  12.561
84411W        W50820  37.594  27.959   1.605
84412W        W50821   2.072   8.308  11.656
84413W        W50822  20.414  23.141  12.917
84414W        W50823  36.773  40.018   2.696
84415W        W50824   2.732  15.586   4.584
84416W        W50825  34.474   0.873   0.660
84417W        W50826  18.843  41.777   3.839
84418W        W50827  21.614   6.227   0.495
84419W        W50828  27.175   9.353   2.160
84420W        W50829  14.693   8.251  13.831
84421W        W50830  27.730  37.033  12.640
84422W        W50831  26.493  39.370   2.809
84423W        W50832  12.732  16.171   4.476
84424W        W50833  36.511  21.717  12.447
84425W        W50834  14.984  40.422  10.810
84426W        W50835  35.866   1.098   2.164
84427W        W50836  28.243  11.866   2.868
84428W        W50837  22.005  37.480   0.551
84429W        W50838   3.260  41.375  12.627
84430W        W50839  21.021  10.424   4.159
84431W        W50840  35.553  29.513  14.578
84432W        W50841   3.814  21.666   4.695
84433W        W50842   0.999   7.458   1.337
84434W        W50843  39.031   6.748  13.085
84435W        W50844  39.001  32.576  11.632
84436W        W50845  14.740  11.321   1.013
84437W        W50846  21.754  21.774   5.638
84438W        W50847  21.751  44.183  13.202
84439W        W50848  21.228  31.712  14.229
84440W        W50849  10.232  16.298  12.057
84441W        W50850  13.157  24.974   1.234
84442W        W50851   4.646  28.054  11.599
84443W        W50852  38.398  31.877   0.024
84444W        W50853  12.494  27.014   4.866
84445W        W50854  14.606  14.307  12.528
84446W        W50855  24.696  40.836  14.820
84447W        W50856  10.358  25.871   3.249
84448W        W50857   7.632  12.390   2.705
84449W        W50858  25.664   7.673  14.006
84450W        W50859   6.305  43.566  14.191
84451W        W50860   4.771  22.972   4.181
84452W        W50861  41.581  12.226   4.116
84453W        W50862  16.914  18.222  11.432
84454W        W50863  31.083  22.496  12.763
84455W        W50864   6.764  33.477  11.875
84456W        W50865  14.034  42.287  12.157
84457W        W50866  25.069  25.712  12.536
84458W        W50867  17.168  12.780   3.770
84459W        W50868  20.369  43.057   0.754
84460W        W50869  17.572  12.732   2.108
84461W        W50870  43.811  26.230  11.328
84462W        W50871   6.277  23.045  11.233
84463W        W50872  29.614  31.581  12.991
84464W        W50873   3.750  14.602  13.120
84465W        W50874  27.941  34.997  11.391
84466W        W50875  15.173  41.498   1.871
84467W        W50876   2.651  16.995   1.965
84468W        W50877  18.285  31.518  12.504
84469W        W50878  30.956  33.064  14.470
84470W        W50879  43.758  26.702   3.595
84471W        W50880  16.904  19.875   3.302
84472W        W50881  14.860  12.326   4.714
84473W        W50882  25.089   9.340   4.905
84474W        W50883  39.433  15.222  12.834
84475W        W50884  20.247  25.513  14.544
84476W        W50885   8.618   0.080  14.408
84477W        W50886   1.852  23.904  13.528
84478W        W50887   0.219  22.586   1.147
84479W        W50888  29.120   0.910  12.462
84480W        W50889  33.124  35.480  14.404
84481W        W50890  21.829  35.506   4.243
84482W        W50891  19.043  13.884   2.189
84483W        W50892  42.782  38.097   4.562
84484W        W50893  24.703  17.479  14.984
84485W        W50894  21.014   9.460  11.537
84486W        W50895   4.449  24.413   5.445
84487W        W50896  37.839  33.499   0.325
84488W        W50897  22.370  23.239  11.916
84489W        W50898   9.117   1.538  10.203
84490W        W50899   0.047  34.608  14.681
84491W        W50900  42.850  12.853   0.794
84492W        W50901  25.639   1.086   2.141
84493W        W50902  18.601  36.606  13.991
84494W        W50903  39.279  19.460   4.023
84495W        W50904  39.782   9.718  13.896
84496W        W50905  13.814  43.282   4.049
84497W        W50906  26.174  20.326   0.197
84498W        W50907  14.810  33.541   3.302
84499W        W50908   6.782  32.624  13.915
84500W        W50909  30.448  21.840  13.799
84501W        W50910  29.645  19.562  14.175
84502W        W50911  38.061   0.490  10.404
84503W        W50912  22.088  23.110  14.681
84504W        W50913  40.527  41.456   4.497
84505W        W50914  22.562  22.760   4.706
84506W        W50915  44.916  33.606   3.725
84507W        W50916  39.338  36.884  13.072
84508W        W50917   4.501   4.433  12.924
84509W        W50918  20.483   9.099  13.115
84510W        W50919  11.165  20.251   1.728
84511W        W50920  11.861  25.543   0.137
84512W        W50921  31.626  18.090   2.841
84513W        W50922  15.711  19.322  10.864
84514W        W50923  27.514  27.481   4.644
84515W        W50924   6.326  40.000  10.923
84516W        W50925  13.118  23.439  11.420
84517W        W50926  28.990  18.100  13.154
84518W        W50927  42.735  21.532  11.579
84519W        W50928   5.928  19.186   1.831
84520W        W50929   1.543  26.012   3.020
84521W        W50930  18.005  34.656   3.280
84522W        W50931  11.089  20.373   4.024
84523W        W50932  31.917   1.941  12.392
84524W        W50933  41.201  30.029  14.407
84525W        W50934  32.683  44.814   4.987
84526W        W50935  16.143   7.626   3.258
84527W        W50936  24.476  29.342   0.096
84528W        W50937   9.711  32.590  13.028
84529W        W50938  21.222   7.271  14.505
84530W        W50939  11.345  36.902   3.259
84531W        W50940  35.470  28.700  14.225
84532W        W50941  34.481   6.120   1.604
84533W        W50942  42.839   6.669   0.900
84534W        W50943  16.639  16.265  10.748
84535W        W50944  20.854   6.153  12.080
84536W        W50945   9.119   2.307  14.514
84537W        W50946   9.820   7.306  11.881
84538W        W50947  31.184  28.453  11.983
84539W        W50948  21.807   6.890   4.179
84540W        W50949  10.383  30.847   4.115
84541W        W50950  37.425  40.528   3.200
84542W        W50951  13.771  44.505  14.072
84543W        W50952  43.297  27.564   3.768
84544W        W50953   0.885   9.687  11.157
84545W        W50954   2.781  30.973  13.064
84546W        W50955  24.522  26.917   1.730
84547W        W50956  30.662  35.342   2.311
84548W        W50957   9.335  12.797  10.622
84549W        W50958  43.195  42.694  11.108
84550W        W50959   0.291  14.223  11.568
84551W        W50960  14.562  35.209   3.247
84552W        W50961  15.129  36.743   1.157
84553W        W50962  12.727   9.172  14.809
84554W        W50963  10.041  14.329   1.829
84555W        W50964  15.033  43.495  14.110
84556W        W50965  15.156  35.568  11.158
84557W        W50966  11.258  24.484  13.420
84558W        W50967   7.023  35.940  14.122
84559W        W50968  11.741  27.065  11.456
84560W        W50969  29.922  30.620   3.553
84561W        W50970  12.382   6.866  12.003
84562W        W50971  36.541  25.216   1.262
84563W        W50972  40.238  16.355   1.749
84564W        W50973   0.874  41.804  10.496
84565W        W50974  23.158  26.844   1.264
84566W        W50975  10.914  14.234  10.980
84567W        W50976  37.772   5.954   4.232
84568W        W50977  16.522  33.477  14.884
84569W        W50978   1.954  38.272   2.540
84570W        W50979  14.230  20.980   0.316
84571W        W50980  26.006   7.879   4.642
84572W        W50981  43.478   3.757   4.152
84573W        W50982  38.910  44.723   1.960
84574W        W50983   3.709  43.253   0.178
84575W        W50984  19.383  18.826  11.706
84576W        W50985   6.337  22.515  13.514
84577W        W50986  31.709  39.034   1.170
84578W        W50987  42.270  11.674   2.642
84579W        W50988  19.035  12.783   3.630
84580W        W50989  31.730  19.243  13.026
84581W        W50990  35.013  43.576  13.037
84582W        W50991  37.454  21.536  10.393
84583W        W50992  36.977  41.019  13.469
84584W        W50993  30.979  38.929   5.494
84585W        W50994   0.884  11.196   4.550
84586W        W50995  34.004   4.293  14.354
84587W        W50996  33.563  36.655   1.702
84588W        W50997  42.967  28.994  10.708
84589W        W50998  10.817  15.190   3.166
84590W        W50999  18.468  39.062  12.370
84591W        W51000  30.700  44.301   2.806
84592W        W51001  44.922  32.184   4.216
84593W        W51002  11.217  38.352  13.213
84594W        W51003  42.247  15.350  14.449
84595W        W51004   1.954  43.398   2.426
84596W        W51005  31.654   0.627  10.305
84597W        W51006  17.907  22.909   2.237
84598W        W51007  31.536  25.330   1.893
84599W        W51008   2.747  22.492  11.511
84600W        W51009   4.381  39.778  12.480
84601W        W51010  18.766  40.791   1.815
84602W        W51011   2.031   1.250  13.891
84603W        W51012  24.125  44.564   4.696
84604W        W51013   9.185   6.398   1.945
84605W        W51014  17.486  11.198   0.462
84606W        W51015  17.802   0.953  12.546
84607W        W51016  17.717  17.825  14.361
84608W        W51017  31.418  36.321   3.690
84609W        W51018  13.499  38.897   4.420
84610W        W51019  13.766  32.897  13.091
84611W        W51020  16.575  20.255   2.693
84612W        W51021  44.835  21.220  12.509
84613W        W51022  10.088  11.581  13.293
84614W        W51023   9.926  43.745   1.337
84615W        W51024  18.455   8.324   1.921
84616W        W51025  25.806  12.224   0.804
84617W        W51026   0.561  18.350  11.722
84618W        W51027  39.811  12.652  12.070
84619W        W51028  34.106  41.094  12.994
84620W        W51029  28.874  25.183  11.679
84621W        W51030  23.615  10.634  13.947
84622W        W51031   9.808  14.003  11.921
84623W        W51032   1.823  12.462  14.163
84624W        W51033  32.176  22.100  14.055
84625W        W51034  19.744  12.823   2.687
84626W        W51035  29.304   8.206   4.704
84627W        W51036  12.680   1.321  10.653
84628W        W51037  44.583  33.707  10.464
84629W        W51038  31.102  40.506  12.980
84630W        W51039  24.438  20.162  10.998
84631W        W51040  37.512  11.137  14.366
84632W        W51041  22.000  14.231   2.742
84633W        W51042  40.479  44.672   0.697
84634W        W51043  11.419  34.871  11.744
84635W        W51044  20.339  34.277  10.212
84636W        W51045  10.384  26.656   4.609
84637W        W51046  38.122  13.744  10.718
84638W        W51047  43.676   7.940   0.881
84639W        W51048  32.844  11.660  11.581
84640W        W51049  13.260  13.679  11.970
84641W        W51050   8.687  20.260   4.855
84642W        W51051   6.358  20.197   0.334
84643W        W51052  15.702  40.659  12.856
84644W        W51053  23.035   3.900   1.028
84645W        W51054  41.954   3.256  12.049
84646W        W51055  30.001  27.217  13.585
84647W        W51056   7.297  10.539   4.230
84648W        W51057  22.195  32.904   1.352
84649W        W51058  34.367  26.967   1.388
84650W        W51059  32.551   3.412   4.512
84651W        W51060  29.436  33.610  10.067
84652W        W51061  16.529   7.780  14.484
84653W        W51062  33.688  40.559   2.890
84654W        W51063   4.561  37.165  13.453
84655W        W51064  29.957  17.295  12.202
84656W        W51065   2.185  25.556   1.416
84657W        W51066  40.813   2.278  14.010
84658W        W51067  41.882   9.989  11.232
84659W        W51068   4.523  29.388   1.179
84660W        W51069  13.348  33.644   4.148
84661W        W51070  34.743  17.134   4.104
84662W        W51071  39.540   3.983   2.270
84663W        W51072   3.699  34.464   4.153
84664W        W51073  20.162  30.393  12.395
84665W        W51074  34.067  26.857   3.704
84666W        W51075  41.525  11.899   1.876
84667W        W51076  38.024  36.516  13.065
84668W        W51077   5.993  29.316  14.337
84669W        W51078   6.780  42.570   1.232
84670W        W51079   2.190   5.332   4.753
84671W        W51080   9.845  17.224  12.344
84672W        W51081  29.476  23.303  11.211
84673W        W51082  32.934   5.327  11.605
84674W        W51083   5.379  10.111   2.475
84675W        W51084  41.362  28.223  10.992
84676W        W51085  38.338  19.440  13.831
84677W        W51086  26.696  42.006   4.398
84678W        W51087  23.285  15.115  12.474
84679W        W51088   0.494  13.793   0.346
84680W        W51089  16.298  39.718   1.297
84681W        W51090   1.248  11.226   4.101
84682W        W51091   5.193  14.745  13.113
84683W        W51092  26.294  30.080   4.169
84684W        W51093  24.936  26.243   4.997
84685W        W51094  19.609   7.530  12.476
84686W        W51095  10.449   5.910  11.146
84687W        W51096   3.651  24.517   2.599
84688W        W51097  38.096  35.300   3.345
84689W        W51098   2.983   3.206  12.651
84690W        W51099   7.500   5.465  14.604
84691W        W51100   0.456  15.285   2.356
84692W        W51101   9.383  20.071   2.841
84693W        W51102  35.443  12.120  13.474
84694W        W51103  41.267  18.553   2.873
84695W        W51104  13.089  26.252  13.894
84696W        W51105  25.402  30.219  12.438
84697W        W51106  20.040  35.971   0.011
84698W        W51107   6.317  44.693   2.210
84699W        W51108  34.713  32.077   2.341
84700W        W51109  23.097  11.961  13.918
84701W        W51110  34.039   0.834   1.361
84702W        W51111  14.137  18.814   2.934
84703W        W51112   6.512  11.287  12.190
84704W        W51113  34.357   7.903   3.153
84705W        W51114  31.023   2.671  12.129
84706W        W51115   2.851  44.317   3.483
84707W        W51116  40.227  40.477   0.234
84708W        W51117   2.992  39.794   3.715
84709W        W51118  11.228  16.263   2.386
84710W        W51119  24.634  25.411   1.959
84711W        W51120  27.977   1.788   0.011
84712W        W51121  17.030  40.421   5.049
84713W        W51122  25.593  18.272  12.174
84714W        W51123  29.801  31.102   1.184
84715W        W51124  40.607  38.524  11.606
84716W        W51125  27.469  10.305  10.513
84717W        W51126  11.705  30.819  12.029
84718W        W51127  27.087   0.520  10.925
84719W        W51128  22.150  15.189  13.002
84720W        W51129   1.916  40.816  11.062
84721W        W51130  10.528  40.219   4.879
84722W        W51131  40.909   5.055  14.785
84723W        W51132  16.672  16.985   1.731
84724W        W51133  32.265   0.750   4.964
84725W        W51134  38.426  19.575   4.526
84726W        W51135   5.418  13.969   3.362
84727W        W51136  32.237  13.687  12.236
84728W        W51137   4.380  32.823   2.365
84729W        W51138   0.323   0.264  14.993
84730W        W51139   5.380  23.063   0.554
84731W        W51140   3.996   9.340  14.166
84732W        W51141  19.841  35.055   3.559
84733W        W51142   5.416  40.554  11.166
84734W        W51143  32.055  34.872  13.853
84735W        W51144  22.016  15.013   1.831
84736W        W51145  43.832  39.824  11.310
84737W        W51146  19.782  26.976  12.526
84738W        W51147  30.202   8.907   1.519
84739W        W51148  26.490   7.651  11.537
84740W        W51149  21.573   2.957  11.639
84741W        W51150  27.027  41.531   3.199
84742W        W51151  40.545  13.198  13.604
84743W        W51152  36.604  27.378  13.071
84744W        W51153  30.860  22.169  10.651
84745W        W51154  17.341  31.455  13.318
84746W        W51155  31.838  42.808  14.556
84747W        W51156  12.806   4.401  10.548
84748W        W51157  24.729  27.695  13.359
84749W        W51158  34.916   2.369   0.851
84750W        W51159  18.816  19.644  14.510
84751W        W51160  23.573   3.113  13.479
84752W        W51161   1.304  16.779   4.382
84753W        W51162  25.123  38.852  13.540
84754W        W51163  12.255   9.133  13.941
84755W        W51164   2.242  17.734   0.750
84756W        W51165   0.435  32.451   1.431
84757W        W51166   6.410  20.166   1.903
84758W        W51167  27.060  40.044  11.987
84759W        W51168  15.303  13.605  11.521
84760W        W51169  31.162  39.418  13.038
84761W        W51170  24.122  18.358  12.894
84762W        W51171   9.191  20.176   0.996
84763W        W51172  10.753  25.668  11.389
84764W        W51173  44.808  25.599   1.920
84765W        W51174  29.528  25.997   4.529
84766W        W51175   5.546  15.083  13.294
84767W        W51176   9.615  24.857  14.772
84768W        W51177  32.753  26.023   1.923
84769W        W51178  37.470  25.538   4.388
84770W        W51179  25.147  22.859   5.010
84771W        W51180   2.422  18.215   3.626
84772W        W51181  30.308  31.620  12.821
84773W        W51182   6.441  35.541   1.955
84774W        W51183  28.603   6.959   1.764
84775W        W51184  28.250  22.277  13.493
84776W        W51185   7.158  10.269   2.298
84777W        W51186  28.371  17.942  11.058
84778W        W51187   1.494   7.278   1.797
84779W        W51188  43.420   6.175  11.982
84780W        W51189   1.410  10.200   3.389
84781W        W51190  37.289  43.844   4.512
84782W        W51191   9.611   0.870  13.057
84783W        W51192  40.962  31.320  14.864
84784W        W51193  37.344   1.636  14.942
84785W        W51194  24.472  32.424   2.658
84786W        W51195  29.710  37.886   1.832
84787W        W51196  18.227  18.597  10.885
84788W        W51197  38.012   0.335   4.633
84789W        W51198  12.716  37.443   2.164
84790W        W51199  42.299   5.225  14.978
84791W        W51200  44.765   3.741  11.161
84792W        W51201  21.817  24.040  11.625
84793W        W51202  28.978  23.263   3.752
84794W        W51203  16.851   8.666  13.343
84795W        W51204  33.511  13.603  12.128
84796W        W51205   8.116   9.855  12.803
84797W        W51206  16.774  29.722   0.302
84798W        W51207  11.372   3.669  12.017
84799W        W51208  43.027  12.641  11.033
84800W        W51209   2.546  18.757  11.372
84801W        W51210  18.089  13.179  13.564
84802W        W51211  19.025  30.364  11.606
84803W        W51212   8.436  12.579   2.272
84804W        W51213   2.232   7.931  14.859
84805W        W51214  43.797  36.047   0.787
84806W        W51215   6.826  31.425   2.349
84807W        W51216   2.390   3.353   3.388
84808W        W51217  38.401  30.048   3.647
84809W        W51218  33.445  38.921  12.907
84810W        W51219  15.310   9.208   4.485
84811W        W51220  42.469  33.869  10.491
84812W        W51221  39.728  18.256  11.459
84813W        W51222  27.152  36.810   1.095
84814W        W51223  32.946  44.168  12.936
84815W        W51224  33.361   0.256   4.180
84816W        W51225  22.203  10.239  14.657
84817W        W51226  38.431   1.731   3.709
84818W        W51227  15.497  22.717  11.518
84819W        W51228  35.311  16.923   1.375
84820W        W51229   3.191   9.456   0.357
84821W        W51230   3.772  27.236  14.441
84822W        W51231  43.555   4.248   3.172
84823W        W51232  28.686   5.767   4.384
84824W        W51233   3.088   9.366   2.919
84825W        W51234  42.560  23.189   4.836
84826W        W51235   6.278  24.989  11.389
84827W        W51236   4.762  34.771   2.691
84828W        W51237  21.192  29.973   4.411
84829W        W51238  41.728   8.373  12.822
84830W        W51239  18.282  24.185  11.936
84831W        W51240   3.685  27.521  10.861
84832W        W51241  20.536  21.861  14.220
84833W        W51242  16.149  25.792   2.765
84834W        W51243   4.233  20.195   0.023
84835W        W51244  25.001  10.645  11.393
84836W        W51245  14.047   4.357  14.679
84837W        W51246  17.101  16.011  11.597
84838W        W51247   5.187  10.295   1.003
84839W        W51248  20.043   4.391  13.899
84840W        W51249  10.182  37.498  12.323
84841W        W51250  29.043  37.368  14.597
84842W        W51251  42.491   7.389  12.652
84843W        W51252  17.595  27.498  13.797
84844W        W51253   6.841   9.550   3.643
84845W        W51254   2.599  13.129  10.690
84846W        W51255  16.069  16.259   0.338
84847W        W51256  11.393  31.538   0.744
84848W        W51257   3.296  27.099  10.217
84849W        W51258  10.426  21.585   4.755
84850W        W51259  22.477  37.001  10.929
84851W        W51260  14.311   3.357  11.697
84852W        W51261   2.248  14.778  12.237
84853W        W51262   6.753   7.283   3.774
84854W        W51263  19.902  40.315   5.044
84855W        W51264  30.421  21.488   4.510
84856W        W51265  20.309  16.070  14.505
84857W        W51266   9.436  37.905  14.314
84858W        W51267  20.916   1.756  14.238
84859W        W51268   4.694  10.635  11.751
84860W        W51269  34.942   3.392  11.758
84861W        W51270  13.281  26.564  11.171
84862W        W51271   2.276  40.400  14.357
84863W        W51272  31.923  40.495   2.369
84864W        W51273  22.514  21.662   0.077
84865W        W51274  25.522  15.276   3.654
84866W        W51275  39.337  13.768   4.251
84867W        W51276   8.085  38.329  14.968
84868W        W51277  31.609   1.341  13.617
84869W        W51278  17.755  36.339   4.647
84870W        W51279   2.814  24.943   1.386
84871W        W51280  18.521  39.467   4.155
84872W        W51281  41.572  38.624  13.900
84873W        W51282   0.980  40.792   2.219
84874W        W51283  20.808   1.393  12.519
84875W        W51284  10.633   7.688   4.429
84876W        W51285  41.373  30.962   0.981
84877W        W51286  12.088  23.661   2.725
84878W        W51287  35.455  27.965   1.317
84879W        W51288   4.428  16.443  12.636
84880W        W51289  13.273  40.745   3.308
84881W        W51290  42.480  39.572  13.530
84882W        W51291  17.719  30.683  12.976
84883W        W51292   2.467  19.435   5.031
84884W        W51293  28.470  11.434   9.788
84885W        W51294  33.384  11.335   1.891
84886W        W51295  18.574  39.256  11.002
84887W        W51296   2.148  31.086  11.449
84888W        W51297  42.531  27.490   0.549
84889W        W51298  39.934   4.670  13.988
84890W        W51299  12.229   0.248  12.515
84891W        W51300  20.065  29.446  12.520
84892W        W51301  19.600  18.751   4.578
84893W        W51302  28.457  20.998   1.311
84894W        W51303  42.726   8.710   1.217
84895W        W51304  18.912  18.241   3.680
84896W        W51305   0.236  40.562   0.802
84897W        W51306  10.567  17.550  13.468
84898W        W51307  31.974  43.309   4.323
84899W        W51308  21.954  27.018  14.476
84900W        W51309   9.810  10.896  14.265
84901W        W51310  28.070  43.519  12.765
84902W        W51311  17.350  21.226  14.776
84903W        W51312   5.697  27.913   0.306
84904W        W51313   5.770  19.354  11.467
84905W        W51314  33.536   4.091   5.462
84906W        W51315  13.151   5.724  13.376
84907W        W51316  39.307  26.058  11.616
84908W        W51317  11.301   7.117  11.329
84909W        W51318  39.814  29.107   2.729
84910W        W51319   4.367  33.059  13.426
84911W        W51320  22.638  35.851  14.051
84912W        W51321  29.625  11.702  11.378
84913W        W51322  38.642  31.573  11.627
84914W        W51323  41.028  26.617  13.287
84915W        W51324   9.372   5.104  13.518
84916W        W51325   7.519  11.497   4.128
84917W        W51326  35.040   5.610   2.226
84918W        W51327  33.998  14.213   3.732
84919W        W51328   3.019  40.809   3.801
84920W        W51329  15.122  39.556   5.440
84921W        W51330   0.512  21.604   1.287
84922W        W51331  17.214   9.219   4.479
84923W        W51332  29.617  37.934   4.504
84924W        W51333  11.644  41.821  12.390
84925W        W51334  34.797   1.169   2.856
84926W        W51335  21.174  31.664   2.238
84927W        W51336  15.613  43.455   0.403
84928W        W51337  42.290  24.695  13.953
84929W        W51338   2.251   7.731  13.810
84930W        W51339  42.830  20.548  11.005
84931W        W51340  37.980  18.246   1.091
84932W        W51341  11.880  39.936   1.442
84933W        W51342  24.032  36.786   0.361
84934W        W51343  44.281  18.313  12.940
84935W        W51344   8.312  42.858  12.034
84936W        W51345   3.804  24.801   0.743
84937W        W51346   1.836  20.683   4.592
84938W        W51347  15.875   2.706  11.696
84939W        W51348  25.958  21.552   2.782
84940W        W51349   8.061  27.574  11.747
84941W        W51350  37.546   2.888  12.348
84942W        W51351  44.761  29.920  11.726
84943W        W51352  31.942  25.431   3.668
84944W        W51353  24.816  29.828   0.172
84945W        W51354  21.608  14.986  14.236
84946W        W51355  35.800  27.234   4.056
84947W        W51356  11.912  23.304  14.859
84948W        W51357   6.876  10.679  11.673
84949W        W51358   0.494  28.538   3.744
84950W        W51359  19.501   3.592   2.604
84951W        W51360   1.132   7.724  11.049
84952W        W51361  41.659  30.690  12.063
84953W        W51362  44.911  27.707  13.516
84954W        W51363   0.725  44.875   1.724
84955W        W51364  19.422  39.871  13.802
84956W        W51365   3.953  35.120   2.223
84957W        W51366  34.157  12.498   2.375
84958W        W51367  43.414   1.897   2.388
84959W        W51368  41.498  21.417  12.488
84960W        W51369  26.967   7.307  12.967
84961W        W51370  36.374   2.220   3.678
84962W        W51371  22.307  38.844  12.044
84963W        W51372  25.725   5.623   1.299
84964W        W51373  37.321  34.540   2.936
84965W        W51374  17.475  17.181   1.710
84966W        W51375  27.879  29.134  12.594
84967W        W51376   7.440  38.257   1.924
84968W        W51377  36.890   5.410  11.652
84969W        W51378  24.360  32.111  12.088
84970W        W51379  36.558  35.086   2.683
84971W        W51380  44.374  18.695  11.220
84972W        W51381  44.937  20.782  13.069
84973W        W51382  11.888  30.306  10.702
84974W        W51383   4.963  13.524  12.083
84975W        W51384  32.512  31.064  13.433
84976W        W51385  17.804   9.151   1.237
84977W        W51386  38.345  38.966  14.913
84978W        W51387  44.823   1.735   1.193
84979W        W51388  30.075  19.159  10.678
84980W        W51389  39.538  28.613   1.808
84981W        W51390   8.358  21.923   2.549
84982W        W51391  36.997  14.908  14.377
84983W        W51392  13.322  18.811   4.222
84984W        W51393  40.557   2.485  14.440
84985W        W51394  12.561  43.917  12.151
84986W        W51395  10.729  39.477   3.121
84987W        W51396   9.452  35.350   0.933
84988W        W51397  26.518  29.136  14.368
84989W        W51398  40.313  44.252   1.682
84990W        W51399  19.677  18.771  10.954
84991W        W51400  34.896  21.825  13.343
84992W        W51401  29.025   0.456   4.879
84993W        W51402   6.935  27.460  12.522
84994W        W51403  13.561  20.725   1.675
84995W        W51404  42.627   6.216   1.850
84996W        W51405  12.836  24.268   2.486
84997W        W51406  31.603  14.731   2.196
84998W        W51407  24.068   2.765  10.436
84999W        W51408  17.483  26.133  14.478
85000W        W51409   0.289  18.496  14.877
85001W        W51410  39.456   5.573   1.708
85002W        W51411  30.652  26.487   3.227
85003W        W51412   2.489  11.653  10.718
85004W        W51413  35.926  27.581  11.040
85005W        W51414  13.584  32.597  11.780
85006W        W51415  10.281  33.873  10.313
85007W        W51416  39.045  31.983   2.350
85008W        W51417  28.700  17.699   0.544
85009W        W51418   2.465  17.741  13.603
85010W        W51419  14.118  25.065   1.257
85011W        W51420  39.996   3.742   2.367
85012W        W51421   3.313  34.414   0.042
85013W        W51422  38.442   7.907  10.820
85014W        W51423  34.381  24.915   2.096
85015W        W51424  28.618  31.804  12.364
85016W        W51425   5.779  29.772  10.582
85017W        W51426  27.457  33.867  14.746
85018W        W51427  32.971  20.612  13.138
85019W        W51428  10.801  20.659   1.255
85020W        W51429  16.346  35.406  12.154
85021W        W51430  34.291   5.178  13.411
85022W        W51431  38.046  34.868   0.424
85023W        W51432  37.007  41.258  12.899
85024W        W51433  17.793  27.377  13.019
85025W        W51434  23.576  44.011  14.331
85026W        W51435  26.498   5.182   2.688
85027W        W51436  40.524  43.074  12.052
85028W        W51437  32.488  37.672   4.088
85029W        W51438  34.904  20.536  13.857
85030W        W51439  38.298   6.422   3.119
85031W        W51440  31.344  31.621  12.684
85032W        W51441  32.439  18.860   2.106
85033W        W51442  17.198  14.283   0.714
85034W        W51443   9.523  32.104  13.616
85035W        W51444   7.962  18.707  13.957
85036W        W51445  18.642  16.058   1.006
85037W        W51446   0.263  23.009  14.824
85038W        W51447   7.139  13.893  11.527
85039W        W51448  21.620  25.492  13.406
85040W        W51449   4.588  22.110   4.959
85041W        W51450   5.290   8.673   1.192
85042W        W51451  12.115   2.858   3.575
85043W        W51452  33.859  32.936  14.471
85044W        W51453  35.459   9.663   2.992
85045W        W51454  26.578  17.986   3.014
85046W        W51455  21.978  35.933  12.929
85047W        W51456  27.694   0.944   0.829
85048W        W51457  12.584  30.547   2.173
85049W        W51458  11.295  31.922  12.975
85050W        W51459   2.061  30.426  14.393
85051W        W51460  11.287   5.840   4.909
85052W        W51461   0.903  28.265   5.121
85053W        W51462  23.559   2.890   1.809
85054W        W51463  29.960  39.524   0.958
85055W        W51464  39.928  32.562  11.569
85056W        W51465  15.168  40.282   2.505
85057W        W51466  33.445   7.350   2.751
85058W        W51467   6.120   1.719   4.098
85059W        W51468  22.442  32.826   3.448
85060W        W51469  28.381   8.592  13.425
85061W        W51470  23.141   7.442  12.955
85062W        W51471  41.430  25.274   0.006
85063W        W51472   8.766  18.561   4.526
85064W        W51473  37.941  34.175  14.744
85065W        W51474  27.621  29.939   3.157
85066W        W51475  15.909  14.272   4.552
85067W        W51476   2.694  15.164   1.670
85068W        W51477  35.540  17.564  12.248
85069W        W51478  19.959  30.580  11.501
85070W        W51479  16.829   4.263   1.863
85071W        W51480  26.911  35.244  14.734
85072W        W51481  43.394  20.660   3.039
85073W        W51482  43.192  24.647   3.691
85074W        W51483  43.550  40.458  14.226
85075W        W51484  34.918   0.811   0.922
85076W        W51485  12.656  27.140  13.548
85077W        W51486  27.546  21.315  12.580
85078W        W51487  26.062   6.793   0.185
85079W        W51488  32.261  42.514   3.774
85080W        W51489  29.119  22.556  10.641
85081W        W51490  12.572  23.050  13.973
85082W        W51491  13.065  43.042   3.701
85083W        W51492  39.887  27.795  14.050
85084W        W51493   4.350  39.504   3.687
85085W        W51494  28.406   8.128  14.395
85086W        W51495  13.939  31.433  13.525
85087W        W51496  28.669  12.173  10.650
85088W        W51497  42.746   7.555   2.862
85089W        W51498  40.732  32.180  11.515
85090W        W51499  24.562  38.466   2.905
85091W        W51500  22.026   9.864   3.226
85092W        W51501   5.638  26.673  13.943
85093W        W51502  18.888  33.409  13.883
85094W        W51503   8.625  35.961   1.228
85095W        W51504  11.789  39.214   1.573
85096W        W51505  17.605  14.097   1.300
85097W        W51506  22.435  40.466   4.921
85098W        W51507   9.374  33.427   2.112
85099W        W51508   4.779  37.423   5.404
85100W        W51509  27.504  24.128  14.533
85101W        W51510  18.776   5.852  13.024
85102W        W51511  32.162  15.847   5.054
85103W        W51512   2.419  39.779  13.234
85104W        W51513  15.833  22.203   1.390
85105W        W51514  26.105  34.693   1.270
85106W        W51515  43.946  36.932  10.762
85107W        W51516  38.910   2.952   1.881
85108W        W51517  31.826   7.702  13.815
85109W        W51518  11.283   2.318  13.882
85110W        W51519  36.885  15.873   1.789
85111W        W51520  14.251  25.653   4.554
85112W        W51521   4.660  11.616  12.821
85113W        W51522  15.180  20.427  11.759
85114W        W51523  32.945   5.717  12.533
85115W        W51524  21.328  35.168  11.680
85116W        W51525  36.105  34.372   0.862
85117W        W51526  33.500  25.104   1.296
85118W        W51527  26.685  42.313   3.697
85119W        W51528   2.880  10.293  11.510
85120W        W51529  27.605   3.687  11.304
85121W        W51530  24.107  37.648  11.505
85122W        W51531  38.996  18.964   1.447
85123W        W51532  18.704  30.168   1.751
85124W        W51533  29.514   0.983   0.448
85125W        W51534  26.553  31.754   2.352
85126W        W51535  22.019  25.004  14.848
85127W        W51536   0.310  37.025  13.019
85128W        W51537  18.076  31.099  11.917
85129W        W51538   8.398  38.138   0.344
85130W        W51539  41.624  44.959   4.234
85131W        W51540   2.284  30.689  14.830
85132W        W51541   9.939  39.812   4.484
85133W        W51542  37.971  21.138   4.743
85134W        W51543  36.582  13.799   0.780
85135W        W51544  11.489  21.966  12.468
85136W        W51545  17.262  21.294  12.620
85137W        W51546  36.369  34.392  10.684
85138W        W51547  19.241  27.436   0.917
85139W        W51548   0.479  31.993   1.194
85140W        W51549  43.039  39.716  11.183
85141W        W51550  10.484   9.245  11.145
85142W        W51551  38.082  12.690  12.602
85143W        W51552   9.360  27.461  10.456
85144W        W51553   7.765  39.099  14.434
85145W        W51554   5.968  43.331  12.972
85146W        W51555   5.634  43.211  10.820
85147W        W51556  19.716   8.772   1.213
85148W        W51557  39.236  16.194  11.104
85149W        W51558  16.581   8.834   1.725
85150W        W51559  15.828  34.394   5.019
85151W        W51560  18.557  10.285   4.700
85152W        W51561  22.642  25.976  12.747
85153W        W51562  23.721  17.666  12.062
85154W        W51563  33.397  25.120  14.479
85155W        W51564  37.164  39.972   4.492
85156W        W51565   0.890  17.181  12.356
85157W        W51566  16.691   9.890  13.797
85158W        W51567  37.596  44.114   4.131
85159W        W51568  21.480  34.362  11.169
85160W        W51569  21.772  27.454  13.521
85161W        W51570  20.865  37.957   0.833
85162W        W51571   8.114  42.980   2.313
85163W        W51572  33.670  25.015   3.922
85164W        W51573  30.005  30.328   0.479
85165W        W51574  34.666  14.671  12.149
85166W        W51575  24.100   7.652  10.974
85167W        W51576   0.397  31.314   0.907
85168W        W51577  44.297  19.137   2.406
85169W        W51578  13.182   5.701  12.850
85170W        W51579  15.155   0.515  14.125
85171W        W51580   3.952  35.670  13.895
85172W        W51581   2.954  14.190   0.669
85173W        W51582  32.154  20.470  12.520
85174W        W51583  29.226   3.338   2.870
85175W        W51584  15.540  14.559   3.590
85176W        W51585  37.927  12.899   0.198
85177W        W51586  21.850  44.824   4.512
85178W        W51587  14.179  38.099   2.721
85179W        W51588  19.024  12.534  12.702
85180W        W51589  37.070  44.353   1.692
85181W        W51590  19.690   7.016  10.424
85182W        W51591  41.863  20.801   0.424
85183W        W51592   4.391   5.874   2.678
85184W        W51593   9.197  34.381   2.659
85185W        W51594  43.401  23.587  10.754
85186W        W51595  41.878   4.132   2.331
85187W        W51596  24.079  30.163   2.344
85188W        W51597  29.327  30.623   5.029
85189W        W51598  17.210  39.783  11.009
85190W        W51599   9.874   2.864   3.151
85191W        W51600  25.538  29.201   2.169
85192W        W51601   3.435   5.227   2.412
85193W        W51602   6.307  33.803   4.132
85194W        W51603  13.969  25.524   3.918
85195W        W51604  44.050  42.486   0.269
85196W        W51605  31.677  24.019   2.350
85197W        W51606  36.340   3.648  14.948
85198W        W51607  10.768  21.128  10.519
85199W        W51608  37.522   2.063  11.067
85200W        W51609  40.000  29.338  12.513
85201W        W51610  17.255   7.776  14.008
85202W        W51611  26.986   5.677   1.818
85203W        W51612  18.762  13.304   1.356
85204W        W51613  14.397   3.007   1.282
85205W        W51614   3.926   3.218  12.562
85206W        W51615  37.863  25.470  12.516
85207W        W51616  16.012  10.175  12.851
85208W        W51617  14.184  31.160   3.695
85209W        W51618   5.403  41.978  11.131
85210W        W51619  30.612   9.876   4.435
85211W        W51620  20.944  30.526  11.694
85212W        W51621   2.528  26.161   2.837
85213W        W51622  27.650  32.415   1.234
85214W        W51623  25.132   6.664   0.753
85215W        W51624  23.679  43.771   2.670
85216W        W51625  16.143  43.447  10.642
85217W        W51626   6.975   4.374  11.871
85218W        W51627  12.564  27.989  14.918
85219W        W51628  16.873   9.656  13.348
85220W        W51629  31.697  14.569  13.740
85221W        W51630   9.339  11.345   4.708
85222W        W51631  29.419  22.121   1.167
85223W        W51632  23.092  31.194  12.510
85224W        W51633  34.955  16.591   0.382
85225W        W51634  25.596  42.049   4.196
85226W        W51635  16.617   0.984   2.461
85227W        W51636  12.645  29.238   5.026
85228W        W51637  39.830  26.439   1.276
85229W        W51638  29.542   3.324  11.643
85230W        W51639  35.699  28.692  13.333
85231W        W51640  24.013   0.748  14.050
85232W        W51641  33.127  17.291   3.225
85233W        W51642  16.202  23.044   1.182
85234W        W51643  41.371   0.467  13.979
85235W        W51644  23.468  32.981  10.672
85236W        W51645  19.433  38.509  13.927
85237W        W51646  34.950  42.060  14.898
85238W        W51647  40.282  20.194   2.328
85239W        W51648   3.210  39.612   4.656
85240W        W51649   4.319  31.843  13.903
85241W        W51650  41.878  37.801  13.973
85242W        W51651  44.692  17.768   2.366
85243W        W51652   0.338  24.742   1.279
85244W        W51653  27.144  35.588  13.402
85245W        W51654  23.918   6.966  10.927
85246W        W51655  42.421  11.390   0.301
85247W        W51656   3.256  28.508  13.568
85248W        W51657   0.331  11.418  11.671
85249W        W51658   3.969  17.620   0.960
85250W        W51659   8.534  44.818  13.115
85251W        W51660  19.801  44.103  13.471
85252W        W51661  11.289  13.350  13.704
85253W        W51662  14.099  18.802  10.136
85254W        W51663   7.776  25.231  14.301
85255W        W51664  34.768  17.986   3.698
85256W        W51665  25.515  35.854  14.777
85257W        W51666  34.894  13.852   4.103
85258W        W51667  18.271   2.001   2.750
85259W        W51668  37.858  26.537   4.976
85260W        W51669  28.488  43.279  14.900
85261W        W51670   4.730  11.261   1.895
85262W        W51671  25.089  13.289  12.395
85263W        W51672  36.664  35.965   0.890
85264W        W51673  16.860  28.439   4.714
85265W        W51674  21.217   0.770  12.653
85266W        W51675  38.534   9.825   4.043
85267W        W51676   4.266  18.356  14.472
85268W        W51677  42.980   7.782   4.109
85269W        W51678   4.906  33.343  14.404
85270W        W51679  17.242   4.695  12.124
85271W        W51680  27.645  23.547  10.455
85272W        W51681  11.375  27.637   2.572
85273W        W51682  30.840   6.479  11.634
85274W        W51683  38.373  24.724  13.613
85275W        W51684  16.521   7.945   0.795
85276W        W51685  29.695  28.995  10.545
85277W        W51686  14.133   4.484   3.184
85278W        W51687   2.310   5.053  12.961
85279W        W51688  38.555  18.725   3.996
85280W        W51689   5.343   3.281  14.258
85281W        W51690  38.528  14.087  12.011
85282W        W51691  33.873  31.810  12.491
85283W        W51692  35.627  34.946   3.204
85284W        W51693  43.572  24.011  14.885
85285W        W51694  11.589  40.934   0.765
85286W        W51695   0.145  12.331  11.529
85287W        W51696  38.165  31.403  13.355
85288W        W51697  10.113  32.408   0.595
85289W        W51698  11.763  11.853   1.887
85290W        W51699  17.374  34.584   0.434
85291W        W51700  31.399  23.528   1.427
85292W        W51701  44.056   8.155   1.432
85293W        W51702  33.395   8.728   4.466
85294W        W51703   4.185   6.181  12.597
85295W        W51704  26.442  32.928   1.247
85296W        W51705  28.176  29.546   1.049
85297W        W51706   9.248  24.693  14.402
85298W        W51707  40.409  20.445   4.489
85299W        W51708  12.152   7.872   0.142
85300W        W51709  33.889  12.628   4.560
85301W        W51710   4.876   2.913  10.528
85302W        W51711  22.123  21.291   0.868
85303W        W51712  26.551   8.779  13.734
85304W        W51713   2.470  10.208   3.451
85305W        W51714  42.045  31.159   4.692
85306W        W51715  40.559   7.545   4.006
85307W        W51716   1.204  22.831  14.061
85308W        W51717  30.362  34.006  11.161
85309W        W51718   9.853  36.467   1.168
85310W        W51719  13.660  19.278   0.857
85311W        W51720  17.988   4.395  14.863
85312W        W51721  21.144  44.863  12.918
85313W        W51722  38.251  18.148   3.613
85314W        W51723  16.492  41.439  10.077
85315W        W51724  15.153  36.427   2.281
85316W        W51725   2.946  18.325   4.773
85317W        W51726  12.055   1.975  13.017
85318W        W51727  30.214   4.981   0.007
85319W        W51728   8.880  21.325  14.374
85320W        W51729  37.791  27.966  10.416
85321W        W51730  31.639  14.926  12.893
85322W        W51731  30.618  24.690  13.650
85323W        W51732  28.372  30.713  12.650
85324W        W51733  38.619   3.946   4.509
85325W        W51734  25.245  20.125  10.721
85326W        W51735   0.156   7.709   1.721
85327W        W51736  21.130   1.615   0.054
85328W        W51737  35.406  32.295   0.416
85329W        W51738  24.431  11.633   1.800
85330W        W51739   7.593  15.664  14.845
85331W        W51740  35.854   2.762   2.397
85332W        W51741  27.047  34.552  11.580
85333W        W51742  44.754   7.964  14.436
85334W        W51743  12.218  31.241   3.700
85335W        W51744  23.048  25.933   4.177
85336W        W51745   2.754   1.957   1.940
85337W        W51746  11.828  29.655   0.887
85338W        W51747  11.698  22.506   3.668
85339W        W51748  13.223   8.721   3.159
85340W        W51749  35.629  10.373  12.440
85341W        W51750  38.151  12.812  13.512
85342W        W51751  18.552  30.682   3.461
85343W        W51752  26.699  20.303   1.012
85344W        W51753  31.570  19.096   0.865
85345W        W51754  15.679   1.116   2.770
85346W        W51755  18.567  15.726   0.086
85347W        W51756  43.257   7.940  10.747
85348W        W51757   7.089  30.136  14.655
85349W        W51758  12.248   5.545   3.607
85350W        W51759   2.376  16.785  12.590
85351W        W51760  35.067  23.611  10.677
85352W        W51761   6.297  15.870  13.948
85353W        W51762  27.585  28.214   0.811
85354W        W51763   9.597  11.279   0.426
85355W        W51764  14.244  19.800  13.001
85356W        W51765  41.901  24.676   4.358
85357W        W51766  35.553  15.768  10.382
85358W        W51767   9.138   0.874  13.340
85359W        W51768   1.117  26.481   1.368
85360W        W51769  21.963  13.276   1.402
85361W        W51770  18.519  12.297   3.251
85362W        W51771  40.890  32.335   2.156
85363W        W51772  10.108  36.432  13.512
85364W        W51773  35.338   8.874  14.786
85365W        W51774   7.717  13.429  13.850
85366W        W51775  27.922   9.314  14.856
85367W        W51776  22.897  43.583   0.414
85368W        W51777  11.903  11.459   3.695
85369W        W51778  43.952   9.894   3.279
85370W        W51779  27.407  36.922  14.368
85371W        W51780   4.762  20.082  10.864
85372W        W51781  33.083   2.950   1.141
85373W        W51782  24.307   0.689  14.483
85374W        W51783  23.245  41.728   1.513
85375W        W51784  24.210  38.816  13.507
85376W        W51785  37.924  35.939  10.809
85377W        W51786  40.144  36.571  12.818
85378W        W51787  12.385  16.775  10.713
85379W        W51788   3.936   2.809   0.878
85380W        W51789  43.522  32.123  10.306
85381W        W51790  23.583  42.494   4.219
85382W        W51791   7.725  38.045   3.113
85383W        W51792  34.854   1.827   3.377
85384W        W51793  11.407  21.528  14.440
85385W        W51794  35.784  36.952   0.947
85386W        W51795  41.108  39.952   4.554
85387W        W51796  23.129   1.468   4.178
85388W        W51797  17.214  24.667   3.395
85389W        W51798  15.046  24.694  13.651
85390W        W51799  35.403  25.032   1.723
85391W        W51800  20.614   6.685   0.191
85392W        W51801  28.947  13.036   3.153
85393W        W51802  13.389   4.868   1.753
85394W        W51803  13.178  17.852   1.011
85395W        W51804  33.154   6.861   2.774
85396W        W51805  14.578   2.566   4.453
85397W        W51806   8.119  16.311   3.888
85398W        W51807  10.312  13.218  13.629
85399W        W51808  22.601  27.141  10.995
85400W        W51809  33.900  26.121  14.335
85401W        W51810  19.994  22.782  12.887
85402W        W51811  11.709  44.068   3.205
85403W        W51812  30.405   1.804   0.954
85404W        W51813   0.829  43.095  13.082
85405W        W51814  20.492  24.084  13.914
85406W        W51815  19.497  35.367   3.834
85407W        W51816  30.811  26.654  13.784
85408W        W51817  23.553   3.493  10.733
85409W        W51818   6.574   3.528   1.496
85410W        W51819  42.880  12.094  14.513
85411W        W51820  33.429  22.355   0.097
85412W        W51821   1.367  43.022  10.654
85413W        W51822  28.973  15.223   4.396
85414W        W51823   4.177  19.748   1.790
85415W        W51824  14.563   1.302  11.896
85416W        W51825   8.707   0.227   3.382
85417W        W51826  20.972   0.298  12.664
85418W        W51827  18.641   5.762  11.704
85419W        W51828  37.815  20.095   1.833
85420W        W51829  44.915  36.089   0.470
85421W        W51830   2.550  36.494  11.183
85422W        W51831  20.059  41.348  13.410
85423W        W51832  27.458  40.511   3.586
85424W        W51833   4.729  23.006  12.103
85425W        W51834  23.271   5.521   4.180
85426W        W51835  35.484  16.665   4.082
85427W        W51836  40.323  29.022   4.875
85428W        W51837   1.388  37.505  13.526
85429W        W51838  42.004  21.657   0.550
85430W        W51839  15.611  21.160  14.169
85431W        W51840  18.889  25.452  14.205
85432W        W51841  35.284  15.237   3.373
85433W        W51842  28.535   7.794   2.704
85434W        W51843   5.745   6.753  12.503
85435W        W51844  26.733   6.862   9.918
85436W        W51845   9.170  30.826  12.054
85437W        W51846   0.709  33.078   2.817
85438W        W51847  10.625   8.669  11.979
85439W        W51848  31.693   3.270   0.283
85440W        W51849   8.278   0.114  10.456
85441W        W51850  36.299  20.813  13.886
85442W        W51851  25.892   7.999   3.326
85443W        W51852  26.646   5.840   3.181
85444W        W51853  26.159  43.123   2.788
85445W        W51854  10.452  43.217  14.909
85446W        W51855  44.297  10.374   2.061
85447W        W51856  41.043   7.423   0.979
85448W        W51857  21.942  37.552   2.065
85449W        W51858  18.834   8.733  10.667
85450W        W51859  22.876   1.689  12.056
85451W        W51860  36.214  30.505  14.345
85452W        W51861  37.399  41.428   4.080
85453W        W51862  36.557   5.859   1.972
85454W        W51863  40.724  32.159   2.625
85455W        W51864  32.376  32.717   0.410
85456W        W51865  17.376  20.804   3.528
85457W        W51866  25.084   7.471   2.991
85458W        W51867  39.958  29.266  13.041
85459W        W51868   0.553  41.990  11.271
85460W        W51869  34.359  40.566  13.891
85461W        W51870  43.111  41.911   0.425
85462W        W51871  38.308  35.351  11.155
85463W        W51872  40.418  39.171   4.764
85464W        W51873  41.085  12.769  12.052
85465W        W51874  25.008   4.904   3.606
85466W        W51875  16.767  23.039  12.041
85467W        W51876  29.459  30.399   3.679
85468W        W51877   2.451  38.836   4.595
85469W        W51878   1.727  17.006   0.918
85470W        W51879  21.274  19.665  11.659
85471W        W51880  16.223  12.190  10.751
85472W        W51881   5.727   0.821  12.615
85473W        W51882  36.138  27.154  13.043
85474W        W51883  35.403  18.268  14.874
85475W        W51884   8.107  25.573  14.924
85476W        W51885  22.046  15.814   2.432
85477W        W51886  18.088  14.284  12.454
85478W        W51887  40.208   1.473   3.200
85479W        W51888   7.269  35.141  10.025
85480W        W51889  28.702  31.611   3.808
85481W        W51890  37.651  36.288  14.290
85482W        W51891  33.727   7.458  10.604
85483W        W51892  16.518  18.255   3.606
85484W        W51893  43.750  19.942   3.184
85485W        W51894  33.158  41.362  12.957
85486W        W51895   5.230  38.004   0.619
85487W        W51896  31.369  44.110  12.913
85488W        W51897  22.647   3.961  11.169
85489W        W51898  41.721  10.742   0.644
85490W        W51899  42.787  23.532   2.975
85491W        W51900  37.410  18.777   1.444
85492W        W51901  24.865  26.862  10.680
85493W        W51902   4.638  43.319   2.830
85494W        W51903  17.101  15.302  12.614
85495W        W51904  43.666  20.250  13.071
85496W        W51905   3.435  38.615   0.197
85497W        W51906  16.328  30.840  12.008
85498W        W51907   8.363  26.225   0.773
85499W        W51908  42.310  34.578  14.919
85500W        W51909  29.487  27.244   1.334
85501W        W51910  35.538  27.462  10.720
85502W        W51911  30.098  31.259   2.679
85503W        W51912   7.031   8.394  10.748
85504W        W51913  15.872  26.265   4.327
85505W        W51914  12.614  36.984  12.847
85506W        W51915  19.206  28.949  10.531
85507W        W51916  12.217  40.443   9.693
85508W        W51917  40.343   7.881  11.924
85509W        W51918   7.405  19.689   4.791
85510W        W51919  31.924  42.544   1.921
85511W        W51920  28.062   5.748  11.408
85512W        W51921  25.016  30.496   3.263
85513W        W51922  25.576  31.138   4.877
85514W        W51923  10.580  12.851  13.947
85515W        W51924  20.660  27.458   0.436
85516W        W51925  18.786  26.582   3.293
85517W        W51926  39.012  33.512   4.488
85518W        W51927  38.274  14.770   1.913
85519W        W51928   0.958  41.724  12.068
85520W        W51929  10.784  35.597   2.891
85521W        W51930  35.666  30.420  13.758
85522W        W51931  17.020  28.216   1.271
85523W        W51932   0.238  40.713  11.504
85524W        W51933   2.327  13.650  14.297
85525W        W51934  39.480   2.699   1.398
85526W        W51935   6.337  30.920   2.343
85527W        W51936  24.924   6.262   4.126
85528W        W51937  11.846  41.089  14.422
85529W        W51938  43.527   5.232   4.547
85530W        W51939  24.612   2.949   2.201
85531W        W51940  28.677  28.251   0.433
85532W        W51941  15.788  37.433   1.797
85533W        W51942   4.910  40.799   3.141
85534W        W51943   0.930  41.771  14.560
85535W        W51944  16.878  38.637   5.279
85536W        W51945  38.901  32.907  13.555
85537W        W51946  36.125   9.308  11.508
85538W        W51947  19.815  42.809  10.669
85539W        W51948  38.621  43.366  11.473
85540W        W51949  38.922  38.709   1.775
85541W        W51950   7.212  10.719  13.482
85542W        W51951  34.426  26.446  14.113
85543W        W51952  10.952  30.921   4.136
85544W        W51953  18.803  17.367   0.345
85545W        W51954  15.741  16.232  10.750
85546W        W51955  32.464  16.234   2.918
85547W        W51956  43.643   5.405  14.033
85548W        W51957  36.176   8.762  14.411
85549W        W51958  25.727  34.001   3.056
85550W        W51959  24.220   9.672  11.087
85551W        W51960   6.947  42.239  11.073
85552W        W51961  29.112  13.613  13.278
85553W        W51962   2.110  25.092  12.780
85554W        W51963  36.987  35.082  14.491
85555W        W51964  36.034  39.008  10.715
85556W        W51965   9.306  14.552  11.196
85557W        W51966   4.184  42.394  14.518
85558W        W51967  44.367  38.397  13.856
85559W        W51968  28.939  16.945  13.665
85560W        W51969  23.639  35.407   4.850
85561W        W51970   8.971  14.704  14.082
85562W        W51971  19.191  38.007  10.898
85563W        W51972  20.156   0.433   1.760
85564W        W51973  23.515  29.942  14.383
85565W        W51974   7.878  43.729  13.062
85566W        W51975  41.226  42.799  11.091
85567W        W51976  30.943  32.817  13.976
85568W        W51977  39.823  16.427  14.455
85569W        W51978   7.691   4.909   4.068
85570W        W51979  25.425   0.930   3.153
85571W        W51980  37.037  22.573  13.269
85572W        W51981   8.873  37.118  13.426
85573W        W51982  27.608  38.698  11.077
85574W        W51983  44.865  14.158   0.493
85575W        W51984  20.824  18.260   4.673
85576W        W51985  15.671  44.801  12.054
85577W        W51986  31.096  17.561  14.247
85578W        W51987  20.448  28.642  14.815
85579W        W51988  31.116  19.573  14.722
85580W        W51989  28.432  33.099   0.780
85581W        W51990  38.088  20.224  13.891
85582W        W51991   5.928  17.265  10.740
85583W        W51992   7.168  32.043  13.650
85584W        W51993  10.890  39.992   4.463
85585W        W51994  44.517   2.445  14.338
85586W        W51995  27.483  24.984   0.662
85587W        W51996   7.963  20.948   3.212
85588W        W51997   8.795  30.347  14.099
85589W        W51998  32.907  17.366  11.086
85590W        W51999  27.910  42.882  14.500
85591W        W52000   2.810  18.984  13.021
85592W        W52001  39.915  34.752   3.898
85593W        W52002  28.975  17.251  10.635
85594W        W52003  31.931  22.726  11.230
85595W        W52004   5.006  39.826  11.509
85596W        W52005  38.619  27.014   1.668
85597W        W52006  17.966  15.978   3.253
85598W        W52007  19.069  18.477  14.780
85599W        W52008  11.585   8.725  13.497
85600W        W52009  17.533  29.606   0.450
85601W        W52010  19.219  30.362  13.859
85602W        W52011  39.044  21.283  10.858
85603W        W52012   4.795  30.443  12.939
85604W        W52013  16.207   8.124   3.354
85605W        W52014   1.958  21.047  10.746
85606W        W52015  14.320  23.118  13.940
85607W        W52016   2.450  25.762   0.446
85608W        W52017   7.385  12.938   3.525
85609W        W52018   1.036   4.904  10.629
85610W        W52019   4.488  27.563  14.790
85611W        W52020   3.961  26.633  12.527
85612W        W52021  25.378  26.593   0.065
85613W        W52022  20.985  11.894   1.311
85614W        W52023  13.466  35.536  10.555
85615W        W52024  40.818  30.513  13.411
85616W        W52025  37.110  34.578  12.556
85617W        W52026  35.396  38.063   2.777
85618W        W52027  18.306  20.313   2.286
85619W        W52028  12.421   4.180  12.447
85620W        W52029  25.073   5.703  14.169
85621W        W52030   4.732   9.219  12.623
85622W        W52031   6.713  17.295   5.187
85623W        W52032  22.996  38.813  11.538
85624W        W52033  38.587  35.845  12.904
85625W        W52034  41.643  20.069  10.738
85626W        W52035  27.314   7.248  13.865
85627W        W52036  34.468  33.225   4.234
85628W        W52037   2.384  35.178  11.872
85629W        W52038  11.430  19.634   0.489
85630W        W52039   7.774  21.424   3.161
85631W        W52040  32.919  10.723  10.683
85632W        W52041  37.496  43.434  14.459
85633W        W52042  25.268   5.375   0.933
85634W        W52043  33.529  32.422  13.839
85635W        W52044  11.155  41.078  12.755
85636W        W52045  35.520   3.760  11.664
85637W        W52046  12.102  38.154   0.334
85638W        W52047  39.516  23.476   2.838
85639W        W52048  44.977  34.392  11.238
85640W        W52049  24.936  25.974   2.253
85641W        W52050   6.372  32.011  10.250
85642W        W52051  12.053  12.988  12.312
85643W        W52052  12.498  27.281  10.770
85644W        W52053  14.137  42.939   1.698
85645W        W52054  12.313  36.365  14.416
85646W        W52055   6.252   2.804   0.953
85647W        W52056  42.878  11.405   3.675
85648W        W52057   0.237  11.271  14.360
85649W        W52058   2.774  40.121   0.449
85650W        W52059  11.351   7.323   1.734
85651W        W52060   7.913  31.621  14.995
85652W        W52061  44.872  16.864  10.534
85653W        W52062  32.442  25.084  12.542
85654W        W52063   8.375   1.226   1.950
85655W        W52064  15.343  18.642   5.009
85656W        W52065  37.096   6.083  14.343
85657W        W52066  19.132  37.478  14.781
85658W        W52067   4.447   8.855  10.640
85659W        W52068  35.465   5.096   0.962
85660W        W52069  44.986  37.845  14.232
85661W        W52070  33.295  36.907   4.670
85662W        W52071  25.635  44.044  11.680
85663W        W52072   2.202  21.085  11.997
85664W        W52073   5.404  41.871   0.526
85665W        W52074  40.548  42.365  10.731
85666W        W52075  21.678  40.065  13.982
85667W        W52076  30.418  38.957  14.877
85668W        W52077  35.970  23.583   1.913
85669W        W52078  34.825  28.323   3.186
85670W        W52079  12.446  12.732   0.312
85671W        W52080  29.282  30.007  14.243
85672W        W52081  16.247  34.707   3.649
85673W        W52082  19.422  26.509  10.616
85674W        W52083  26.646   9.805   1.637
85675W        W52084   7.495  10.722  14.421
85676W        W52085  34.400   9.158  14.325
85677W        W52086  36.874   8.405   0.258
85678W        W52087  43.239  17.080   3.280
85679W        W52088  12.663  15.470  13.363
85680W        W52089  16.326  20.263  11.150
85681W        W52090  31.616  27.736   2.831
85682W        W52091  14.894   3.899   1.408
85683W        W52092  36.343   7.656   2.757
85684W        W52093  32.781  36.099  11.631
85685W        W52094  12.118   4.391   2.672
85686W        W52095  37.095  25.731  13.895
85687W        W52096  37.360   0.698   4.559
85688W        W52097  15.161  15.370   3.416
85689W        W52098   3.223  11.884  12.770
85690W        W52099   3.430   6.667  14.053
85691W        W52100  30.428  21.453  11.996
85692W        W52101  26.935   3.580   3.563
85693W        W52102   3.238  42.782  10.158
85694W        W52103  11.610   4.171   1.809
85695W        W52104  11.224  10.259  11.677
85696W        W52105  37.075  26.308   4.064
85697W        W52106  27.772   7.423   0.363
85698W        W52107  16.944   1.897  10.773
85699W        W52108  15.342  23.347  10.743
85700W        W52109  39.869  41.519   0.078
85701W        W52110  22.741   9.206   4.520
85702W        W52111  21.004  37.977   4.769
85703W        W52112  11.294  43.325  11.897
85704W        W52113  38.607  23.755  12.069
85705W        W52114  30.685  13.187   2.114
85706W        W52115  20.056   0.755  12.121
85707W        W52116   0.781  36.573   3.738
85708W        W52117  38.785  29.617  14.901
85709W        W52118  15.125  21.738   1.272
85710W        W52119   6.748  25.175  13.965
85711W        W52120  10.569  22.123  13.972
85712W        W52121  14.375   6.559   1.245
85713W        W52122  40.968  21.314  13.521
85714W        W52123  11.347  21.302  11.427
85715W        W52124  41.953  21.148  12.518
85716W        W52125  18.502   3.782  10.739
85717W        W52126   6.162   2.500  11.411
85718W        W52127  25.201  24.118   2.102
85719W        W52128  37.501  21.415   0.237
85720W        W52129  36.960  28.750  13.018
85721W        W52130  39.811  40.201  11.563
85722W        W52131  28.944   8.366   0.355
85723W        W52132  28.172  22.786   0.544
85724W        W52133  21.960   8.449  13.542
85725W        W52134  27.895  17.714  14.243
85726W        W52135  19.834  37.854   0.719
85727W        W52136  22.450   8.799  13.014
85728W        W52137  12.822  37.363   1.672
85729W        W52138  17.323  20.374   1.021
85730W        W52139   5.441  37.091  14.141
85731W        W52140  15.140  40.401  11.338
85732W        W52141  40.991  21.976  11.959
85733W        W52142  10.191  25.109  13.883
85734W        W52143  40.110  43.795   3.355
85735W        W52144  34.206  39.487  13.645
85736W        W52145  21.480  10.182   2.716
85737W        W52146  34.356  20.053  12.061
85738W        W52147   7.232  22.669   0.163
85739W        W52148  28.592  20.716   0.878
85740W        W52149   7.753  32.685  11.303
85741W        W52150  16.667  19.300  13.318
85742W        W52151  26.594  38.166   2.288
85743W        W52152   9.164  25.529   3.656
85744W        W52153  17.153  13.287   3.602
85745W        W52154   9.541  20.508  14.603
85746W        W52155  22.802   2.694  12.136
85747W        W52156  14.316  12.847  10.816
85748W        W52157  35.646  15.617  11.876
85749W        W52158  44.539   7.744  10.706
85750W        W52159  12.416   1.827   5.424
85751W        W52160   0.685   0.973  10.929
85752W        W52161  16.082  14.876   3.895
85753W        W52162  14.302  34.972   0.421
85754W        W52163  18.537  40.170   3.057
85755W        W52164  26.055   9.098  12.624
85756W        W52165  18.039  13.098  14.420
85757W        W52166  19.677  33.626  13.569
85758W        W52167  25.740  21.123  13.023
85759W        W52168  42.460   7.072  11.560
85760W        W52169   3.308  35.601  10.722
85761W        W52170   6.167  29.589  12.123
85762W        W52171   4.665   4.871  13.177
85763W        W52172  33.858  40.844   0.885
85764W        W52173  41.365  22.292  12.162
85765W        W52174  27.985  44.653  12.080
85766W        W52175  31.585  22.591   1.435
85767W        W52176  32.352  30.125  14.983
85768W        W52177   8.774  38.510  14.539
85769W        W52178   7.820  42.086   4.067
85770W        W52179  21.801  38.591   0.024
85771W        W52180  32.508  12.724   3.677
85772W        W52181  11.319  37.472   9.917
85773W        W52182  34.965  25.391   4.214
85774W        W52183  35.886  31.700   2.648
85775W        W52184   4.652  41.453  14.411
85776W        W52185   4.678   1.643   0.949
85777W        W52186   2.217  42.032  10.842
85778W        W52187  14.144  37.110   3.274
85779W        W52188  27.390  43.773  14.386
85780W        W52189  30.611  22.524  14.562
85781W        W52190  43.300  30.714   0.744
85782W        W52191  10.344  42.246  14.775
85783W        W52192  15.320   7.209  14.738
85784W        W52193  32.567  13.042  14.388
85785W        W52194  17.689  34.106  13.362
85786W        W52195  11.939  30.923  12.488
85787W        W52196  27.770  10.958   2.332
85788W        W52197   9.197  15.840  10.605
85789W        W52198  17.379   3.353  12.447
85790W        W52199  13.583  39.476  13.599
85791W        W52200  42.127  36.427  11.882
85792W        W52201  44.121  27.505  10.720
85793W        W52202  30.460  28.066   1.282
85794W        W52203  32.373  40.435   0.206
85795W        W52204   2.342  13.599   0.717
85796W        W52205  34.051  42.331   0.845
85797W        W52206   1.279   8.849  10.248
85798W        W52207  16.727   2.136   1.819
85799W        W52208   0.008  10.852  14.600
85800W        W52209  16.774  18.557   4.549
85801W        W52210  25.202   1.234  14.400
85802W        W52211  30.635  17.790  12.541
85803W        W52212  34.285   2.277   5.556
85804W        W52213  28.197  38.746   4.501
85805W        W52214  15.801  14.780   4.544
85806W        W52215   5.213  43.300  11.628
85807W        W52216  31.408  16.270   3.073
85808W        W52217  40.278  11.374  10.536
85809W        W52218   2.047  22.093  11.427
85810W        W52219   8.585   4.873  12.838
85811W        W52220  11.450  40.986   0.269
85812W        W52221  11.889  18.395  12.799
85813W        W52222  38.183   8.879  14.003
85814W        W52223   3.833   8.836  14.323
85815W        W52224  40.942  28.400  14.891
85816W        W52225   4.196   1.444  12.416
85817W        W52226  35.854  11.177   2.268
85818W        W52227   5.223  34.358  10.803
85819W        W52228  37.390  12.732   1.185
85820W        W52229  44.819  10.501   3.517
85821W        W52230   8.721  22.703   3.192
85822W        W52231   1.218  27.957   2.114
85823W        W52232  18.240  36.552  10.704
85824W        W52233   2.125  42.320   4.193
85825W        W52234  17.280  40.855  11.987
85826W        W52235   0.786  20.080  13.841
85827W        W52236  35.963  16.798  13.387
85828W        W52237   6.507  33.815   3.150
85829W        W52238  41.330  27.741   3.838
85830W        W52239  23.259  34.134   1.446
85831W        W52240  42.796  10.179   1.454
85832W        W52241  20.052  36.435  10.431
85833W        W52242  29.418   7.626   4.141
85834W        W52243  24.302  14.652   1.817
85835W        W52244  43.892   3.327   4.902
85836W        W52245   8.577  16.643  13.097
85837W        W52246  30.074  10.179   1.813
85838W        W52247  20.255   8.949   4.360
85839W        W52248  27.292  35.278   1.183
85840W        W52249  31.414  29.702   3.071
85841W        W52250   4.478   4.352   2.203
85842W        W52251   8.718  40.268  14.479
85843W        W52252  30.868  25.631  14.362
85844W        W52253   9.140  12.427  13.000
85845W        W52254  18.202  32.526  11.602
85846W        W52255  18.584  44.193   1.402
85847W        W52256  18.107  17.178  11.237
85848W        W52257   0.231  19.244   0.883
85849W        W52258  15.893  34.906   1.763
85850W        W52259  27.963  13.504   0.789
85851W        W52260  36.633  14.610   2.978
85852W        W52261  37.480  25.029   4.229
85853W        W52262  31.624  20.720  14.733
85854W        W52263  23.208  21.281   2.841
85855W        W52264   3.564  33.080   4.686
85856W        W52265   4.407  37.925  11.049
85857W        W52266   3.212  26.264   3.627
85858W        W52267  34.498  39.265   0.160
85859W        W52268  10.618  26.584   2.425
85860W        W52269  43.453  10.614   3.554
85861W        W52270   9.660   0.418  14.521
85862W        W52271   5.220   9.973   0.169
85863W        W52272   8.294  31.650   2.634
85864W        W52273   7.730   1.263   1.408
85865W        W52274  18.035  27.566   2.727
85866W        W52275  25.479  21.848  13.439
85867W        W52276  23.634   9.733  12.555
85868W        W52277  44.942  13.219   3.096
85869W        W52278  15.619  44.069  14.460
85870W        W52279  24.546  15.637   3.903
85871W        W52280   6.514  42.370  10.815
85872W        W52281   9.005  30.107   1.335
85873W        W52282  20.285  30.965   2.242
85874W        W52283  33.009  25.985  14.764
85875W        W52284  11.389  26.436   4.595
85876W        W52285  30.845   7.011   3.138
85877W        W52286  29.883  38.021   2.349
85878W        W52287  38.746  34.914  13.319
85879W        W52288  34.342  10.694  13.260
85880W        W52289  12.516  10.719  13.871
85881W        W52290  23.745  32.858  14.356
85882W        W52291  22.165  44.156  14.858
85883W        W52292   3.204  31.062  13.365
85884W        W52293   6.439  20.152   4.126
85885W        W52294  43.497  22.173  12.053
85886W        W52295   8.913   8.172   1.397
85887W        W52296  32.011  21.609   3.584
85888W        W52297  44.920  19.589  11.103
85889W        W52298   7.993   4.815  11.309
85890W        W52299  21.464  31.398   2.650
85891W        W52300  28.666  43.404   1.284
85892W        W52301  14.369  13.469   1.893
85893W        W52302  11.772  19.120   3.155
85894W        W52303  38.096   4.915   2.265
85895W        W52304  20.726  31.062   1.321
85896W        W52305  16.140   0.464  13.157
85897W        W52306  30.898  20.173  11.168
85898W        W52307  21.198  13.900   1.066
85899W        W52308  44.194  20.015   1.833
85900W        W52309   6.338  19.718   1.283
85901W        W52310  40.131   2.807   0.264
85902W        W52311  40.861  31.836   2.252
85903W        W52312  39.240  11.415  12.350
85904W        W52313  18.098   4.721   1.348
85905W        W52314  36.491   6.559   2.299
85906W        W52315   8.341  37.883  14.864
85907W        W52316   3.276   3.958   0.357
85908W        W52317  17.314  31.878   0.951
85909W        W52318  43.140  10.532   2.773
85910W        W52319  31.153   7.566  12.010
85911W        W52320  17.715  39.096  11.913
85912W        W52321   2.302  29.082  14.123
85913W        W52322  20.953  11.745  11.042
85914W        W52323  25.115  23.524   0.319
85915W        W52324  34.608  37.449  13.552
85916W        W52325  24.489  25.561  11.668
85917W        W52326  32.505  30.434  12.087
85918W        W52327  20.076  36.432   2.596
85919W        W52328  34.077  28.767   1.274
85920W        W52329  24.719  11.148  11.149
85921W        W52330  14.631  19.594  12.051
85922W        W52331  36.422   7.626  11.917
85923W        W52332  33.452  26.020  13.396
85924W        W52333  32.777  12.281  13.889
85925W        W52334  37.546  15.340  14.286
85926W        W52335   2.301  38.403   4.812
85927W        W52336  31.519  36.563  11.077
85928W        W52337  24.508  13.901   2.705
85929W        W52338  12.808  13.924  12.136
85930W        W52339   0.967   5.862   0.235
85931W        W52340  40.895  24.551   3.270
85932W        W52341  41.450  20.657   3.203
85933W        W52342  14.802  23.729   3.306
85934W        W52343  37.377  14.808   1.992
85935W        W52344  28.913  18.241   0.451
85936W        W52345  31.109  27.390   4.167
85937W        W52346  18.745  42.410  12.500
85938W        W52347  10.665  37.781   1.406
85939W        W52348   3.716  43.004  11.915
85940W        W52349  32.611  36.765  13.956
85941W        W52350   3.362  30.445   3.636
85942W        W52351  37.961  15.416   0.463
85943W        W52352  26.748  38.385  13.473
85944W        W52353  14.204  36.355  13.541
85945W        W52354  22.484  40.400   3.191
85946W        W52355  36.040  27.992   2.041
85947W        W52356  33.956  20.143   3.261
85948W        W52357  28.788  20.549   2.220
85949W        W52358  12.766  20.920   1.836
85950W        W52359  14.453  12.018  11.370
85951W        W52360  44.290  16.546  12.463
85952W        W52361  21.270  27.725   0.363
85953W        W52362  43.513  32.394  11.891
85954W        W52363  25.103  12.437   2.823
85955W        W52364   3.483  27.476  12.696
85956W        W52365  33.973  26.587   2.706
85957W        W52366   0.980  24.008   4.592
85958W        W52367  33.342  24.470  14.889
85959W        W52368  16.127  28.830   2.299
85960W        W52369   2.701  20.144   4.603
85961W        W52370   3.873   9.954  13.073
85962W        W52371  36.024  25.639  10.752
85963W        W52372  14.167  37.639   3.344
85964W        W52373   2.245  25.660  12.844
85965W        W52374   7.689  13.579   3.625
85966W        W52375  41.232  39.554   1.976
85967W        W52376  29.604   5.151  10.259
85968W        W52377   1.760  29.652  11.170
85969W        W52378  22.829  32.585  11.158
85970W        W52379  30.769   7.593  14.993
85971W        W52380   5.998  24.023  12.426
85972W        W52381   2.785  10.513   0.121
85973W        W52382  23.929  33.860  13.439
85974W        W52383  23.551  29.957   4.833
85975W        W52384   1.497  24.548  10.678
85976W        W52385  10.236  29.577  11.965
85977W        W52386   4.193  35.181   1.743
85978W        W52387  38.183  27.573  13.403
85979W        W52388  32.434   7.403   1.393
85980W        W52389  32.071  40.380  10.723
85981W        W52390  26.097  43.159   4.708
85982W        W52391   5.343   5.491   3.628
85983W        W52392  14.292  27.552  12.552
85984W        W52393  43.472  27.128  14.976
85985W        W52394   4.733   2.248  14.546
85986W        W52395  22.686   6.874  12.136
85987W        W52396  30.556  27.623   0.642
85988W        W52397  21.662  36.225   3.725
85989W        W52398  31.973  38.348   1.212
85990W        W52399   0.860  14.168  10.859
85991W        W52400  18.313  11.453   2.771
85992W        W52401  17.297  17.587  14.587
85993W        W52402  30.348  16.178  11.105
85994W        W52403  21.095  23.408   1.944
85995W        W52404  29.741   2.202   4.965
85996W        W52405   5.414  40.085  13.542
85997W        W52406  10.912  37.294  12.996
85998W        W52407  26.360  39.856  12.412
85999W        W52408   7.036  25.355   0.242
86000W        W52409  30.921  15.720   4.074
86001W        W52410   4.290  34.428  13.525
86002W        W52411   5.587   1.321  12.716
86003W        W52412  42.001  37.408   3.077
86004W        W52413  18.373   5.698   1.247
86005W        W52414  34.980  41.574   3.723
86006W        W52415  37.349  16.645   3.246
86007W        W52416  26.229  15.316   4.755
86008W        W52417  27.133  23.946   3.920
86009W        W52418  10.627  20.399   1.725
86010W        W52419  35.974  34.347   4.690
86011W        W52420  39.890  15.143  12.031
86012W        W52421  20.266  32.584  14.108
86013W        W52422  37.567  24.750  11.056
86014W        W52423   3.671  25.054   1.179
86015W        W52424  14.652  35.599  14.986
86016W        W52425   2.714   7.745   1.940
86017W        W52426  33.061  13.911  12.115
86018W        W52427  15.768  37.026  11.559
86019W        W52428  27.076  12.650   0.735
86020W        W52429   0.728  30.632   2.279
86021W        W52430  22.669  12.353  10.998
86022W        W52431  13.229  40.996   1.464
86023W        W52432  18.959  31.967  12.515
86024W        W52433  41.246  37.835   3.220
86025W        W52434   9.189  27.893  10.667
86026W        W52435  31.134  13.337   1.838
86027W        W52436  18.026  17.632  11.617
86028W        W52437  35.809  19.788   4.258
86029W        W52438  40.061  32.105  11.976
86030W        W52439  18.906  10.045  12.484
86031W        W52440  35.021  11.625   1.805
86032W        W52441  38.263  30.143  13.110
86033W        W52442  26.018   5.736  14.923
86034W        W52443  38.056  20.489   0.682
86035W        W52444  21.011  24.472  11.572
86036W        W52445   2.596  24.534   3.623
86037W        W52446  37.894  25.699  14.720
86038W        W52447  17.053  35.497   1.242
86039W        W52448  11.241  24.546   4.174
86040W        W52449   0.382   7.804  13.072
86041W        W52450  35.193  42.934  13.505
86042W        W52451   4.833   0.525  12.816
86043W        W52452  23.656  25.061  14.047
86044W        W52453  11.868   5.734   3.961
86045W        W52454  13.653   0.907  13.359
86046W        W52455  25.416   1.767   3.644
86047W        W52456  36.442   8.593  10.990
86048W        W52457  15.064  15.762   4.177
86049W        W52458  23.630  30.456  10.730
86050W        W52459   1.891  43.073   1.312
86051W        W52460  26.998  26.788   4.333
86052W        W52461  11.912  26.068   4.049
86053W        W52462  34.418   9.870  13.619
86054W        W52463  42.059  23.448  11.555
86055W        W52464  16.875  35.048   3.422
86056W        W52465  27.198  20.561  14.974
86057W        W52466  18.760  14.068   0.235
86058W        W52467   7.945   2.315  10.509
86059W        W52468  19.030  39.174  10.248
86060W        W52469  11.603   6.694   0.477
86061W        W52470  41.525  35.653  13.970
86062W        W52471  16.573  12.260   1.951
86063W        W52472   6.914  44.106   0.259
86064W        W52473  43.402  13.304   1.727
86065W        W52474   4.777  34.011  11.486
86066W        W52475  16.739  17.041   3.967
86067W        W52476   0.803  15.845  10.009
86068W        W52477  17.913  28.500  13.605
86069W        W52478  33.116  40.912   4.226
86070W        W52479  14.082  34.461   2.378
86071W        W52480  35.259   3.842  14.046
86072W        W52481   9.168  18.005   2.264
86073W        W52482  22.487   8.101  14.379
86074W        W52483   4.039  29.148  10.633
86075W        W52484  11.860  35.347   1.759
86076W        W52485  10.780   3.513  11.474
86077W        W52486  28.749  13.705  13.878
86078W        W52487   9.743  32.449   3.152
86079W        W52488  19.781  35.361  12.753
86080W        W52489  12.367  25.228   2.305
86081W        W52490  17.033  10.511   0.769
86082W        W52491  23.562  19.628   4.041
86083W        W52492  16.784  41.881  11.714
86084W        W52493  43.189   8.968  11.720
86085W        W52494  13.176   6.199   1.563
86086W        W52495  23.507  10.214  12.784
86087W        W52496  21.464  19.564  13.859
86088W        W52497   2.902  20.624   4.622
86089W        W52498  21.753  41.533  12.048
86090W        W52499  44.386  12.097   3.794
86091W        W52500  23.178  18.007   2.282
86092W        W52501  14.118  23.098   4.197
86093W        W52502   1.001  18.061  13.811
86094W        W52503   5.665  38.012   4.576
86095W        W52504  38.214  27.029   1.362
86096W        W52505  35.422   4.005   0.390
86097W        W52506  20.661  31.426   4.575
86098W        W52507  39.851  31.398  14.335
86099W        W52508  32.191  34.562   3.805
86100W        W52509   6.012  20.282  13.661
86101W        W52510  11.063  13.366  10.639
86102W        W52511   0.400  36.899   1.723
86103W        W52512  18.625  33.331   1.444
86104W        W52513  35.423  25.607  14.506
86105W        W52514  34.891  25.865   4.461
86106W        W52515  40.895  15.136   1.394
86107W        W52516  29.630  40.982   3.302
86108W        W52517  13.757  10.564   4.717
86109W        W52518  34.098  37.358   1.664
86110W        W52519  35.123   8.248   1.860
86111W        W52520  29.793  40.626   5.004
86112W        W52521  14.180  18.464  11.994
86113W        W52522  11.299  44.414  10.361
86114W        W52523  15.114  40.351   3.030
86115W        W52524  14.325  33.029   3.493
86116W        W52525   8.691  38.099   0.788
86117W        W52526  34.884  31.106  12.089
86118W        W52527   0.490  36.454  14.738
86119W        W52528  24.916  11.696  11.434
86120W        W52529  11.418  13.898  13.254
86121W        W52530   7.881  39.324   2.600
86122W        W52531   5.558  27.767  13.306
86123W        W52532   4.353   4.121  12.551
86124W        W52533   3.560  39.580   4.292
86125W        W52534  38.981  16.270  14.385
86126W        W52535  37.359  22.146  12.166
86127W        W52536  27.502  16.380   0.976
86128W        W52537  29.287  19.668   3.683
86129W        W52538  12.622  29.096   1.332
86130W        W52539  44.266   4.610  10.149
86131W        W52540   4.648   6.858   3.279
86132W        W52541  32.333  22.389   2.898
86133W        W52542  29.459  33.904   1.918
86134W        W52543  44.103   4.000   2.687
86135W        W52544  13.088  29.601   3.849
86136W        W52545  43.686  38.424  14.816
86137W        W52546  10.203   3.782  13.469
86138W        W52547  42.331  22.277  14.318
86139W        W52548  35.411  12.566   0.454
86140W        W52549  25.500  20.090  12.014
86141W        W52550  13.021  21.037   2.274
86142W        W52551  31.977  20.634   2.491
86143W        W52552  10.322  10.858  14.513
86144W        W52553  32.842  26.063  14.298
86145W        W52554  31.914  19.648   4.226
86146W        W52555  40.394  24.759   0.803
86147W        W52556   9.192  32.158  14.585
86148W        W52557  18.555  19.602  14.059
86149W        W52558  44.678  11.761  14.921
86150W        W52559  17.237  22.832   4.448
86151W        W52560  14.901  34.155   0.498
86152W        W52561   0.071  28.856  11.030
86153W        W52562   5.273   3.885   0.070
86154W        W52563  35.745  32.042   1.309
86155W        W52564  29.362  15.808   1.487
86156W        W52565  23.942  23.864   0.003
86157W        W52566  19.443   8.835  14.851
86158W        W52567   6.284  36.083  13.357
86159W        W52568   4.656   3.952  11.151
86160W        W52569  15.419   8.808  12.475
86161W        W52570  32.016  39.737  11.672
86162W        W52571  34.951  28.029   0.405
86163W        W52572   9.339   4.547   4.544
86164W        W52573   5.374   5.839  12.786
86165W        W52574  18.668  30.167  14.716
86166W        W52575  23.728  39.489  10.744
86167W        W52576  43.939  26.220   2.278
86168W        W52577  44.317   5.930   0.696
86169W        W52578   4.904  19.748  10.175
86170W        W52579  30.010  15.311   0.901
86171W        W52580  10.642   9.748   0.332
86172W        W52581  28.017  21.837   3.696
86173W        W52582  38.951  23.445  12.302
86174W        W52583  12.168   3.374  13.979
86175W        W52584  36.153   7.868   3.192
86176W        W52585  21.664  15.327  12.062
86177W        W52586  12.638  26.556   4.093
86178W        W52587   8.872  18.342   4.076
86179W        W52588  22.784  38.154   2.224
86180W        W52589   0.523   7.282   1.430
86181W        W52590  15.578   2.656  10.991
86182W        W52591   5.240   6.466  11.063
86183W        W52592  33.166  10.784   1.503
86184W        W52593   3.438  18.265   3.161
86185W        W52594  16.965  22.418   4.588
86186W        W52595  36.975   8.165   1.684
86187W        W52596  10.132  42.263  11.031
86188W        W52597   3.378  35.710   2.775
86189W        W52598  32.985  35.539  12.479
86190W        W52599  38.276  37.535   1.555
86191W        W52600  14.152   3.211   3.309
86192W        W52601  30.402  12.404  13.412
86193W        W52602   6.628  30.505   2.224
86194W        W52603   2.087  44.942  12.212
86195W        W52604  27.515  41.776  12.127
86196W        W52605  44.046   4.400   1.487
86197W        W52606  40.450  38.499  13.815
86198W        W52607  42.023   0.996   4.458
86199W        W52608   5.335  16.207   0.502
86200W        W52609  17.011  30.464  11.086
86201W        W52610  23.532  16.148   4.751
86202W        W52611  20.618  40.773   4.590
86203W        W52612  19.187  18.254   2.437
86204W        W52613  24.297  15.724  10.223
86205W        W52614   3.677  27.852   4.227
86206W        W52615  29.527   8.474  12.533
86207W        W52616   9.382  27.128   2.368
86208W        W52617  17.794  37.332   3.665
86209W        W52618  20.110   8.398   1.252
86210W        W52619  34.001   7.322   3.782
86211W        W52620  21.295   4.765   3.633
86212W        W52621  43.922  42.524   3.269
86213W        W52622   8.671   1.373  12.533
86214W        W52623  21.486  17.728   2.812
86215W        W52624  10.939   5.392   0.845
86216W        W52625  12.819  42.561   4.980
86217W        W52626  12.692  13.985   2.911
86218W        W52627  39.764  20.148   2.301
86219W        W52628  43.965  25.913   4.963
86220W        W52629   6.666   9.866  14.831
86221W        W52630  17.069  11.376  14.781
86222W        W52631  43.912  17.127   1.695
86223W        W52632  18.066  41.109   0.833
86224W        W52633  42.584  32.540  12.691
86225W        W52634  14.549  25.353  11.172
86226W        W52635   9.753  19.835   1.569
86227W        W52636  25.081  13.662  10.730
86228W        W52637  42.743  15.661  12.893
86229W        W52638  17.508  11.930  11.838
86230W        W52639  15.594  41.014  14.555
86231W        W52640  39.563   7.751   3.891
86232W        W52641   9.560  35.803  14.821
86233W        W52642  31.052  19.412   0.210
86234W        W52643  20.736   5.233  12.056
86235W        W52644  25.948  43.883  14.962
86236W        W52645  23.733  37.655  11.146
86237W        W52646  30.132  34.021   2.788
86238W        W52647  13.130   9.332  10.648
86239W        W52648  38.155  43.580  11.633
86240W        W52649  18.503  30.763  12.957
86241W        W52650   3.898  20.793   3.692
86242W        W52651  17.812  16.238   4.874
86243W        W52652  29.436  28.485  14.351
86244W        W52653  35.046  29.858   3.117
86245W        W52654  25.459   5.161   3.325
86246W        W52655  20.401  12.697  12.402
86247W        W52656  39.109   1.353   4.805
86248W        W52657  13.745   0.263  11.934
86249W        W52658  19.037  29.853   1.519
86250W        W52659  22.856  32.135   2.792
86251W        W52660  21.573  15.672   2.160
86252W        W52661  11.741  20.342   3.730
86253W        W52662  43.544  10.981   4.472
86254W        W52663   5.152  35.603   0.863
86255W        W52664  33.488  24.775   2.842
86256W        W52665  12.176  34.334   2.289
86257W        W52666  20.025  16.195  13.569
86258W        W52667  20.508  38.799   0.401
86259W        W52668  36.081  22.467  13.555
86260W        W52669  34.967  32.599  10.878
86261W        W52670   0.176  37.666   4.213
86262W        W52671  20.996  33.839   2.693
86263W        W52672  11.456  32.116   3.291
86264W        W52673  20.146   1.694   4.652
86265W        W52674  40.003  31.940   3.725
86266W        W52675  26.211  21.109   0.562
86267W        W52676   2.229   3.995   4.712
86268W        W52677  34.344  18.328  11.701
86269W        W52678  36.357  17.610   0.227
86270W        W52679  16.758   7.997   2.202
86271W        W52680   5.300  27.108   2.321
86272W        W52681  13.156  14.747  11.252
86273W        W52682   5.757  25.088   3.585
86274W        W52683  40.941  43.489   3.586
86275W        W52684  15.976  30.014  14.397
86276W        W52685  39.605  34.065  13.898
86277W        W52686   0.374  37.358  11.060
86278W        W52687  44.869   8.223   4.992
86279W        W52688   6.538  14.712  13.385
86280W        W52689   7.770  34.398   4.579
86281W        W52690  29.994  44.229  13.555
86282W        W52691  42.371  11.941   2.193
86283W        W52692  38.862  21.039  11.943
86284W        W52693  13.291  28.903   0.792
86285W        W52694  38.635  29.872  12.857
86286W        W52695  14.691   3.439   1.280
86287W        W52696   7.694  25.652  13.634
86288W        W52697  30.180  17.161  10.707
86289W        W52698  39.285  13.549  14.858
86290W        W52699  17.213  34.424   1.216
86291W        W52700  14.625  18.731  14.740
86292W        W52701  31.485  25.150   3.791
86293W        W52702  36.921   8.921   0.723
86294W        W52703  44.021  16.772  12.053
86295W        W52704   8.862  23.184   4.274
86296W        W52705  19.275   2.218  14.539
86297W        W52706  35.089  31.767  10.870
86298W        W52707  10.638   4.611   3.281
86299W        W52708   6.084   6.722   3.747
86300W        W52709  27.442  25.150  11.856
86301W        W52710   6.662  20.033   4.593
86302W        W52711   1.738  17.356  12.387
86303W        W52712  35.699   6.684  13.533
86304W        W52713   7.862   9.744   3.230
86305W        W52714  31.258  22.553   2.342
86306W        W52715  13.233   0.738  11.626
86307W        W52716  13.522  14.197   4.761
86308W        W52717  29.489  42.874  12.014
86309W        W52718  31.441  37.969   1.760
86310W        W52719  25.063  33.192  13.545
86311W        W52720  15.077  26.427  11.153
86312W        W52721  25.840  27.431   0.435
86313W        W52722  38.944   5.794  12.829
86314W        W52723  26.637  37.868  13.534
86315W        W52724   2.953  13.847   0.268
86316W        W52725  12.185  18.114   0.779
86317W        W52726  44.850   0.987   2.539
86318W        W52727   8.785  12.140  11.000
86319W        W52728  33.885  13.184  13.877
86320W        W52729  13.326  24.981   0.619
86321W        W52730   8.258  31.969  10.737
86322W        W52731  15.232   3.954   1.003
86323W        W52732  30.179   6.520  10.595
86324W        W52733  15.728  21.215   3.374
86325W        W52734  28.597  21.002  12.979
86326W        W52735  23.133   6.487   0.690
86327W        W52736  28.728  27.467   1.679
86328W        W52737  34.388  41.595  10.730
86329W        W52738  26.167  34.488  14.756
86330W        W52739  16.269  33.372   1.252
86331W        W52740  10.791  23.950   0.824
86332W        W52741   1.900  41.580   1.734
86333W        W52742   8.149  31.114  11.033
86334W        W52743  13.949  37.731   0.034
86335W        W52744  40.666  22.139   4.647
86336W        W52745  31.004  12.964  12.132
86337W        W52746   0.787  44.328  11.262
86338W        W52747  26.213  19.772  10.671
86339W        W52748  20.161  30.163  13.992
86340W        W52749  34.495  42.933  12.726
86341W        W52750   1.240  17.629   4.831
86342W        W52751  34.082  42.439  14.086
86343W        W52752  40.112  35.473   4.717
86344W        W52753  28.509  22.076   1.229
86345W        W52754  19.681  17.078   3.817
86346W        W52755   6.874  23.968  10.285
86347W        W52756  23.763   6.968   3.218
86348W        W52757  17.045  37.945   2.960
86349W        W52758  44.745  17.100  13.579
86350W        W52759  40.988  33.027   1.880
86351W        W52760  11.595  32.784   1.604
86352W        W52761  17.269   4.802  10.318
86353W        W52762  35.763  18.977   2.092
86354W        W52763  42.877  30.829   3.613
86355W        W52764  21.282  17.546  12.922
86356W        W52765  17.690  35.701   2.622
86357W        W52766  18.312  23.194   4.413
86358W        W52767  25.766  43.546   1.135
86359W        W52768  32.879  20.400   1.506
86360W        W52769   7.685   3.951  12.677
86361W        W52770   5.743  12.697  12.935
86362W        W52771  20.690  34.906  12.441
86363W        W52772  35.286  27.458   0.304
86364W        W52773  43.955  31.362   3.659
86365W        W52774  20.547   4.217   3.712
86366W        W52775   0.927  11.989  11.417
86367W        W52776  14.215  19.179  12.563
86368W        W52777  27.184   4.775   4.232
86369W        W52778  44.942  33.674  13.069
86370W        W52779  12.923   1.984   0.321
86371W        W52780  12.934  35.167   0.006
86372W        W52781  43.891  10.700   3.779
86373W        W52782   0.080  38.537   0.264
86374W        W52783   1.941  42.465  13.785
86375W        W52784  12.535  25.676   4.175
86376W        W52785  37.132  43.295  11.653
86377W        W52786  15.002  18.039  12.163
86378W        W52787  18.631   3.515   2.646
86379W        W52788   8.320  29.424  13.515
86380W        W52789  41.040  33.362  11.448
86381W        W52790  23.058  35.530   3.443
86382W        W52791  40.817  44.342  10.773
86383W        W52792  28.432  19.659   0.726
86384W        W52793   9.541   1.851   3.307
86385W        W52794  39.408   4.224   1.767
86386W        W52795  24.490  43.754   3.774
86387W        W52796  36.849  39.777  14.294
86388W        W52797   2.457  44.526   3.201
86389W        W52798  15.240   7.443  11.613
86390W        W52799   4.363  23.675  12.066
86391W        W52800  19.770  44.836  12.404
86392W        W52801   4.230  42.860   2.210
86393W        W52802   6.322   0.814  13.460
86394W        W52803  11.699  20.786  12.986
86395W        W52804  18.077  17.400   2.328
86396W        W52805  34.965  34.365  12.963
86397W        W52806  24.278  27.523  11.066
86398W        W52807  33.404  10.091   0.327
86399W        W52808  17.063  22.681  12.395
86400W        W52809  27.992   4.014  11.545
86401W        W52810   8.620  13.194  14.786
86402W        W52811  36.885   3.288   2.164
86403W        W52812   5.336  15.519   3.244
86404W        W52813   9.253  43.344  12.009
86405W        W52814   2.430   0.461   3.104
86406W        W52815  18.361   2.100  14.035
86407W        W52816  36.396  35.969  13.164
86408W        W52817   5.289  24.584  13.408
86409W        W52818  34.097  18.975   0.834
86410W        W52819  11.166  43.661  10.970
86411W        W52820  22.729   5.869   1.796
86412W        W52821   1.827   2.842   0.422
86413W        W52822   3.034  40.546   0.258
86414W        W52823  43.262  11.616  14.840
86415W        W52824  38.355  26.930  12.856
86416W        W52825  43.407  18.572  13.926
86417W        W52826  35.553  36.573  12.497
86418W        W52827   8.105  27.611   4.570
86419W        W52828   9.181  23.552   0.658
86420W        W52829  23.500  11.676  11.571
86421W        W52830  22.220  15.600   0.332
86422W        W52831  15.688  12.764   3.827
86423W        W52832  29.420   7.718   4.972
86424W        W52833   2.455  34.622  13.407
86425W        W52834   3.888  32.624  12.903
86426W        W52835   0.584  19.117  14.522
86427W        W52836   4.325  31.582   4.445
86428W        W52837   6.195  42.254   3.712
86429W        W52838  22.280  29.217   2.012
86430W        W52839  10.440  41.439   0.979
86431W        W52840   0.341  33.388  12.935
86432W        W52841   8.735  22.792  13.798
86433W        W52842  28.378   7.320  12.407
86434W        W52843  21.764  16.750   2.412
86435W        W52844  43.029  22.692   1.723
86436W        W52845  38.969  24.475   3.197
86437W        W52846   5.747   6.451  14.870
86438W        W52847  37.666  40.703  12.877
86439W        W52848  41.945  35.887  13.734
86440W        W52849  11.403  43.889   2.572
86441W        W52850  38.774  34.955  14.333
86442W        W52851  18.864   3.195  14.816
86443W        W52852  39.816  19.816  13.869
86444W        W52853   5.293  39.861   3.105
86445W        W52854  27.521  44.473   0.486
86446W        W52855  28.696  28.476  11.061
86447W        W52856   0.261  28.047  12.468
86448W        W52857  17.117  25.900  13.369
86449W        W52858  30.320   8.665   2.014
86450W        W52859   9.756  21.892  14.924
86451W        W52860   6.474  25.448   0.262
86452W        W52861   9.932  25.560  13.729
86453W        W52862  25.645  15.177   2.652
86454W        W52863  29.537   5.915   4.633
86455W        W52864  38.566   5.702   0.018
86456W        W52865  14.640  25.101   1.368
86457W        W52866  21.698  12.778  12.328
86458W        W52867  36.363  42.461  14.758
86459W        W52868  19.217   5.965   0.172
86460W        W52869   8.785   0.428  14.858
86461W        W52870   4.466  25.251   4.114
86462W        W52871  19.567   0.894  13.479
86463W        W52872  42.474  38.348   2.883
86464W        W52873  41.981  14.239  13.009
86465W        W52874  16.002  21.915  10.373
86466W        W52875   6.303   9.113  12.065
86467W        W52876  12.859  21.517  14.301
86468W        W52877  16.191  23.271   3.127
86469W        W52878  26.153  34.621   3.821
86470W        W52879  20.269  10.750   4.101
86471W        W52880  43.385  31.260   1.156
86472W        W52881  43.880   2.434  11.879
86473W        W52882   7.556   4.952  13.904
86474W        W52883   2.335   9.651   2.665
86475W        W52884  37.561  19.767   3.171
86476W        W52885  37.378   4.371   9.940
86477W        W52886   0.460  15.735  10.386
86478W        W52887  13.552  24.063   4.380
86479W        W52888   6.943  22.213  12.578
86480W        W52889  13.227  15.156   1.760
86481W        W52890  21.376   4.741  14.381
86482W        W52891   5.470   7.740   2.273
86483W        W52892  30.026  22.882  11.859
86484W        W52893  36.890   4.421  13.173
86485W        W52894  11.194  23.681  14.488
86486W        W52895  44.967  40.573  11.913
86487W        W52896   0.737  11.866  14.850
86488W        W52897  43.316  10.053   1.164
86489W        W52898  23.204  22.013  13.433
86490W        W52899  44.850  37.905  11.481
86491W        W52900  44.871  20.987  12.042
86492W        W52901  38.910  14.193  13.904
86493W        W52902  41.991  43.574  10.564
86494W        W52903  21.031  15.804   0.724
86495W        W52904  17.738  24.202  14.005
86496W        W52905  14.202  13.662   4.383
86497W        W52906  38.691  23.651   4.690
86498W        W52907  18.920  35.409  12.573
86499W        W52908  36.469   9.850   4.595
86500W        W52909   3.730  37.087   3.188
86501W        W52910  26.084  30.202  14.881
86502W        W52911   3.694   3.223  11.614
86503W        W52912  36.323  37.518  14.311
86504W        W52913  33.729   9.325  12.590
86505W        W52914   3.876  28.298   3.182
86506W        W52915  10.856   4.275  10.517
86507W        W52916  21.582  31.717   4.835
86508W        W52917  15.143  25.135   1.850
86509W        W52918  33.588  39.843  11.854
86510W        W52919  16.017  32.372  10.618
86511W        W52920  42.315   4.432   1.821
86512W        W52921  13.202  18.910  13.522
86513W        W52922  14.573  21.969   0.820
86514W        W52923  40.207  10.785   0.392
86515W        W52924  21.477  42.528  12.002
86516W        W52925   8.910  29.711   3.172
86517W        W52926   7.832  19.955  13.045
86518W        W52927  35.500  16.104   3.983
86519W        W52928  15.133  43.349  11.977
86520W        W52929  37.880  26.345   4.425
86521W        W52930  28.535  26.236   2.373
86522W        W52931  18.732  40.540  11.878
86523W        W52932   4.780  41.497   2.401
86524W        W52933  38.864  35.285   1.889
86525W        W52934  21.527   1.336   1.929
86526W        W52935  19.244  41.465   2.670
86527W        W52936  40.998  10.133   0.921
86528W        W52937  13.769  11.915  10.719
86529W        W52938  42.852  17.667   4.024
86530W        W52939  43.323  15.974   4.712
86531W        W52940  23.199  18.052   0.777
86532W        W52941   8.956  14.429  13.028
86533W        W52942  20.948  23.882  13.798
86534W        W52943  17.255   4.163  11.206
86535W        W52944  27.399  17.686  14.037
86536W        W52945  29.564   5.107  13.318
86537W        W52946  26.184  33.878   1.694
86538W        W52947  21.243  42.726   2.301
86539W        W52948  26.326  26.971   4.932
86540W        W52949  40.796  38.319  14.583
86541W        W52950  31.603   1.930   2.460
86542W        W52951  32.268   0.832   2.207
86543W        W52952  10.375  27.655  11.621
86544W        W52953  22.540  23.095  12.524
86545W        W52954  43.435  33.668  13.949
86546W        W52955  23.169   8.584  10.978
86547W        W52956  24.958  20.647   5.091
86548W        W52957  25.890  13.641  13.595
86549W        W52958  13.201   4.421  13.290
86550W        W52959  35.387   1.067  10.471
86551W        W52960  19.237   9.309  11.844
86552W        W52961  14.700   4.229  11.140
86553W        W52962  28.942   5.306  12.371
86554W        W52963  15.114  20.113   3.226
86555W        W52964  17.442   3.315   5.144
86556W        W52965  34.930  38.911   4.108
86557W        W52966  28.050   8.335   1.321
86558W        W52967  35.253  11.087  13.473
86559W        W52968  30.960  19.326  14.275
86560W        W52969   0.714   5.985  12.552
86561W        W52970   4.051   2.108  12.996
86562W        W52971  36.123   5.901   1.701
86563W        W52972  22.136  36.498   0.595
86564W        W52973  42.122  22.059   1.322
86565W        W52974   7.115  13.869   3.854
86566W        W52975  34.513  32.576  11.154
86567W        W52976  14.850   0.387  11.053
86568W        W52977  18.109  44.708  11.478
86569W        W52978  23.734  21.952  14.879
86570W        W52979  29.276   4.305   5.345
86571W        W52980  18.725   0.506   0.069
86572W        W52981   7.919  34.285  14.796
86573W        W52982  19.954  27.780  10.837
86574W        W52983  29.443   4.932  14.478
86575W        W52984  37.695  25.358  10.668
86576W        W52985  37.894  28.029  13.338
86577W        W52986  31.867  41.825  13.364
86578W        W52987  14.704  28.934  14.880
86579W        W52988   6.188  32.164   1.583
86580W        W52989  17.266  42.930   2.863
86581W        W52990  25.626  35.653   0.261
86582W        W52991  23.049  14.317  11.981
86583W        W52992  28.044   6.185  14.217
86584W        W52993   2.303  26.880   2.366
86585W        W52994  23.497  14.969   4.919
86586W        W52995  38.244   4.392  12.741
86587W        W52996  18.809  13.298  13.874
86588W        W52997   0.830  33.587   3.710
86589W        W52998  13.306  34.227  13.302
86590W        W52999  20.728  27.633  14.434
86591W        W53000  41.926  41.993  14.776
86592W        W53001   6.880  27.666  11.707
86593W        W53002  44.491  20.637  14.315
86594W        W53003   4.047  19.610  12.175
86595W        W53004  21.086   3.324  14.095
86596W        W53005  37.254   3.655   1.354
86597W        W53006  24.792  26.808  11.608
86598W        W53007  21.169  17.912   3.216
86599W        W53008  33.868  28.689  12.640
86600W        W53009  44.743   4.500  10.463
86601W        W53010  44.036  15.657  12.481
86602W        W53011   7.089  37.058   1.524
86603W        W53012  16.096   2.826  13.600
86604W        W53013  28.544  15.692   3.640
86605W        W53014   1.954   8.697  13.535
86606W        W53015   8.748   7.667  12.889
86607W        W53016  14.638  30.975  13.799
86608W        W53017   3.303  20.058   4.921
86609W        W53018  27.928  34.886  11.882
86610W        W53019  41.276  19.656   4.190
86611W        W53020  14.641   8.111  14.358
86612W        W53021  11.102  11.148   0.411
86613W        W53022  38.467  15.184  10.226
86614W        W53023  29.176  13.725   2.643
86615W        W53024  14.716   2.727  10.721
86616W        W53025   3.063  15.368  11.275
86617W        W53026   6.835   8.632  10.345
86618W        W53027  34.941   2.879  11.622
86619W        W53028  40.915  38.239   3.173
86620W        W53029   1.945  25.925  12.509
86621W        W53030  18.628  10.055   2.637
86622W        W53031  13.750  31.496  13.054
86623W        W53032  41.009  20.156  12.064
86624W        W53033   1.201  37.033   4.651
86625W        W53034  19.824  19.553   0.399
86626W        W53035  36.303  29.430  14.981
86627W        W53036  38.757  29.339  11.164
86628W        W53037   7.787  36.349  12.138
86629W        W53038  29.034  25.499   1.400
86630W        W53039  42.359  23.592   1.306
86631W        W53040   4.410  11.328  14.371
86632W        W53041  16.215  27.136   0.755
86633W        W53042  13.181  39.881   0.828
86634W        W53043  11.513   0.864   0.007
86635W        W53044  30.508  23.736   2.779
86636W        W53045  15.768  36.775   2.958
86637W        W53046   0.472   5.749  13.763
86638W        W53047   9.890  22.129   4.025
86639W        W53048   3.810  24.581   9.749
86640W        W53049  31.420  42.093  13.481
86641W        W53050   6.380  25.386  11.801
86642W        W53051  24.708  29.042  12.008
86643W        W53052   0.388  33.168   0.227
86644W        W53053  29.098  22.513  11.157
86645W        W53054  11.137  29.056   3.111
86646W        W53055  28.583  11.726   3.248
86647W        W53056  10.329  37.129   1.730
86648W        W53057  44.524  13.580   4.606
86649W        W53058  23.467  44.896  14.991
86650W        W53059  38.789  16.755  11.904
86651W        W53060   1.788  15.490  11.577
86652W        W53061  38.971   2.204  14.932
86653W        W53062  44.369  13.428  11.536
86654W        W53063  26.676   4.829   4.466
86655W        W53064  30.978   0.982   1.831
86656W        W53065  19.337  14.948   4.161
86657W        W53066   6.322  20.052  13.046
86658W        W53067  20.236  29.475   2.200
86659W        W53068  20.211  21.700  13.840
86660W        W53069  41.445  22.241  11.221
86661W        W53070  19.567  34.972  13.707
86662W        W53071  12.261  15.096  13.374
86663W        W53072   6.128  19.505   4.124
86664W        W53073  14.469   4.079   9.834
86665W        W53074  34.874  38.346   3.219
86666W        W53075  17.600   4.422  14.509
86667W        W53076  32.898  44.748  14.430
86668W        W53077   7.843  35.058  14.310
86669W        W53078  25.682  22.710  11.179
86670W        W53079   2.990   0.847   3.641
86671W        W53080   5.674   9.928  11.988
86672W        W53081  35.988  27.006   4.496
86673W        W53082  33.910  26.619  10.260
86674W        W53083  25.044  13.833   4.866
86675W        W53084  43.503  17.080  11.608
86676W        W53085  21.797  29.066  13.899
86677W        W53086  14.280  20.553  13.534
86678W        W53087  20.611  39.330   0.247
86679W        W53088  16.098  20.238   1.854
86680W        W53089  27.218  21.264   5.075
86681W        W53090  20.174   2.401  12.386
86682W        W53091  41.498  16.710  10.649
86683W        W53092  12.218  36.903  13.203
86684W        W53093   6.812  17.225   0.003
86685W        W53094  13.949  31.493  10.277
86686W        W53095  22.499   1.375  14.901
86687W        W53096  24.785  25.635  11.243
86688W        W53097  43.610  17.347   3.555
86689W        W53098   7.663   0.066   1.775
86690W        W53099  12.210  20.818   9.809
86691W        W53100  16.627  28.569  11.501
86692W        W53101  15.880  10.666  12.920
86693W        W53102   2.758   4.210   3.153
86694W        W53103  41.064   8.325   3.780
86695W        W53104   8.772  43.993  12.079
86696W        W53105  19.255   1.782   2.749
86697W        W53106  16.383  35.684  13.043
86698W        W53107  21.543  15.601  14.816
86699W        W53108  28.712  19.369   2.363
86700W        W53109  31.723   7.389  10.971
86701W        W53110  21.762  28.420   1.644
86702W        W53111  33.570   0.758  10.977
86703W        W53112  27.992  22.959   3.715
86704W        W53113   5.521  31.561  12.899
86705W        W53114  34.086   1.147  13.771
86706W        W53115  25.608   6.193   2.652
86707W        W53116   9.612   2.429  14.539
86708W        W53117  12.716  16.741  13.560
86709W        W53118  41.310  22.085  13.732
86710W        W53119  34.414  11.200   1.866
86711W        W53120   6.276  19.882  12.131
86712W        W53121   5.312   2.740  12.970
86713W        W53122   6.820  36.132  11.613
86714W        W53123   4.982  11.931  12.562
86715W        W53124  20.470  30.955   1.761
86716W        W53125  43.865  30.459   3.736
86717W        W53126   4.763  38.456  10.250
86718W        W53127  37.619   5.012  11.303
86719W        W53128  44.572  22.151   0.271
86720W        W53129   6.174  19.099  11.757
86721W        W53130  17.288  32.450   3.787
86722W        W53131  41.273  16.617  12.526
86723W        W53132  29.403  16.564   0.711
86724W        W53133   9.142  28.333   3.277
86725W        W53134   1.289  22.041   2.819
86726W        W53135   4.704  43.787   1.164
86727W        W53136  21.090  35.020   1.420
86728W        W53137  16.314  11.485  13.467
86729W        W53138  33.598  20.318   2.078
86730W        W53139   5.848  22.106   9.668
86731W        W53140  28.097  33.384  11.429
86732W        W53141  25.442   4.595  13.590
86733W        W53142  18.205   0.343   4.464
86734W        W53143  38.672  13.344   0.737
86735W        W53144  32.089   1.239  10.692
86736W        W53145   8.911   3.252   2.246
86737W        W53146   8.308  41.703  11.163
86738W        W53147   6.223  25.836  13.521
86739W        W53148  27.103   7.631  14.534
86740W        W53149  38.972   1.457   2.694
86741W        W53150  13.676  24.140   3.892
86742W        W53151   1.531  25.531  12.577
86743W        W53152   7.267  29.909   4.569
86744W        W53153  33.632  18.294  11.496
86745W        W53154  25.193   7.898  12.831
86746W        W53155  42.241  12.306  10.977
86747W        W53156  14.062  11.321   3.283
86748W        W53157   6.447   5.252  12.981
86749W        W53158  28.410  36.937  11.905
86750W        W53159  36.120  26.949   3.065
86751W        W53160  38.894   4.365   3.640
86752W        W53161  17.709  13.874  13.968
86753W        W53162  40.981  16.719   2.396
86754W        W53163  15.025  38.380   1.236
86755W        W53164  21.461  33.995   4.585
86756W        W53165  13.668   8.189   1.299
86757W        W53166  21.065   0.668  13.550
86758W        W53167   8.881   2.287  14.032
86759W        W53168  27.034  16.590   0.919
86760W        W53169  35.824   7.628  14.980
86761W        W53170   7.331   2.430   0.982
86762W        W53171   7.356  36.101  12.011
86763W        W53172  30.864  36.895  14.458
86764W        W53173  16.290   8.391   0.680
86765W        W53174  23.212  24.464   2.665
86766W        W53175   6.807  30.491  13.059
86767W        W53176  13.116  17.104  12.380
86768W        W53177  42.380  30.671   2.742
86769W        W53178   0.843  34.082  11.636
86770W        W53179   9.669  40.331  11.918
86771W        W53180  36.584  15.152   4.823
86772W        W53181  14.615  41.332   3.607
86773W        W53182  29.699  32.628   2.303
86774W        W53183   2.537  43.994  14.810
86775W        W53184  36.305  36.866   0.894
86776W        W53185   9.759  36.421   2.122
86777W        W53186  34.017  10.743   0.702
86778W        W53187  16.625   8.205   0.305
86779W        W53188  11.108  41.564  10.912
86780W        W53189  28.682  26.309   0.952
86781W        W53190  23.013  13.825   0.942
86782W        W53191  23.744  43.596   1.887
86783W        W53192   3.423  23.705  10.691
86784W        W53193  33.054  22.979   4.274
86785W        W53194  36.521  15.149  14.300
86786W        W53195  36.642  18.818  10.703
86787W        W53196   9.914  15.107   3.371
86788W        W53197  20.780  32.328  10.852
86789W        W53198  25.288  18.700  12.259
86790W        W53199   4.572  30.627  12.500
86791W        W53200  37.429  25.655  14.936
86792W        W53201  25.212  20.653  14.786
86793W        W53202   4.902  29.531   4.641
86794W        W53203   0.668  17.656  12.209
86795W        W53204  22.107  25.283   2.322
86796W        W53205  13.010  10.357   1.061
86797W        W53206  40.177  20.522  10.950
86798W        W53207  32.342  30.074   4.845
86799W        W53208  43.731   4.620  10.088
86800W        W53209  19.834  39.542  14.496
86801W        W53210  12.236  32.654   9.519
86802W        W53211  37.325  35.953   2.273
86803W        W53212  17.550   4.375   4.521
86804W        W53213   2.916  33.595  12.574
86805W        W53214  39.414  18.627   0.509
86806W        W53215  39.593  32.837  11.281
86807W        W53216   9.614  34.120  14.452
86808W        W53217  38.421  40.434  12.541
86809W        W53218  15.203  26.076   3.187
86810W        W53219  21.833  23.145   3.943
86811W        W53220  30.036  40.744  12.556
86812W        W53221  11.336  20.762   3.087
86813W        W53222  29.721  30.948  14.900
86814W        W53223  25.698   0.864  13.574
86815W        W53224  16.174  27.445  14.027
86816W        W53225  18.042  41.791   2.651
86817W        W53226  31.124  38.477   3.099
86818W        W53227   0.769   1.423   2.788
86819W        W53228  11.890  41.860   2.964
86820W        W53229  11.215  32.125   4.109
86821W        W53230  34.436   9.799   1.966
86822W        W53231   8.229  12.670  10.939
86823W        W53232  30.181   5.738  13.043
86824W        W53233  13.237  13.329   3.430
86825W        W53234  25.950  23.668  12.404
86826W        W53235   0.795   2.334  13.454
86827W        W53236   8.444  27.079   0.011
86828W        W53237  14.779  31.372   2.359
86829W        W53238   4.377  28.950   1.439
86830W        W53239   0.463  39.918  12.447
86831W        W53240  37.843  10.483   4.629
86832W        W53241  19.022  24.983  12.983
86833W        W53242  29.230   0.101   3.147
86834W        W53243  37.603   4.790   1.660
86835W        W53244   8.150  28.917   2.121
86836W        W53245  16.063  18.341   9.829
86837W        W53246  18.731   0.884   1.805
86838W        W53247   0.493  14.269  14.154
86839W        W53248  18.079  39.445  12.077
86840W        W53249  37.023  42.492  13.006
86841W        W53250  41.029  14.559   1.278
86842W        W53251   2.994  24.758  11.541
86843W        W53252  42.004  20.417   3.225
86844W        W53253  36.219  39.411   1.224
86845W        W53254  44.023  10.266   2.480
86846W        W53255   6.234   7.882  12.858
86847W        W53256  21.226  40.886   0.153
86848W        W53257  27.934  19.065  10.176
86849W        W53258  35.149  28.403   2.784
86850W        W53259   5.857  34.043   1.335
86851W        W53260  41.563  11.759   0.811
86852W        W53261   8.410   1.971  14.464
86853W        W53262  11.266  19.776  11.450
86854W        W53263   9.404   0.282   4.567
86855W        W53264  33.469  39.966   0.911
86856W        W53265  13.429  16.542   0.555
86857W        W53266  29.949   5.337  11.140
86858W        W53267  30.790  22.500   4.203
86859W        W53268   2.352   0.741   0.241
86860W        W53269  31.736   9.411   3.145
86861W        W53270  14.231   9.444  11.570
86862W        W53271  20.081   3.236   2.267
86863W        W53272   2.099  32.380  13.590
86864W        W53273  37.882   0.767   4.354
86865W        W53274   7.398   6.864  12.610
86866W        W53275  37.288  15.810   4.765
86867W        W53276  28.935   6.297   0.336
86868W        W53277  42.212  38.966   4.648
86869W        W53278   0.770  24.672   2.773
86870W        W53279  24.283  30.864   0.822
86871W        W53280  25.702  21.484  12.505
86872W        W53281  26.051  30.032   3.687
86873W        W53282  30.641   5.295   1.441
86874W        W53283  42.233  38.778   2.641
86875W        W53284  12.685  43.478   0.433
86876W        W53285  10.336  38.399  10.604
86877W        W53286  13.570  19.096  13.861
86878W        W53287   9.205  26.077  12.148
86879W        W53288  14.823   5.966   2.055
86880W        W53289  26.502   0.672  13.091
86881W        W53290  41.275   7.938   3.407
86882W        W53291   9.654  10.809   4.705
86883W        W53292  26.467  43.029  11.633
86884W        W53293  31.875  19.849  11.865
86885W        W53294  13.973   0.023  12.828
86886W        W53295  18.230  23.775   0.401
86887W        W53296  11.861  36.739  13.566
86888W        W53297  32.863   3.010   3.997
86889W        W53298  35.352   4.913  12.820
86890W        W53299   2.918  18.662  14.738
86891W        W53300  29.169  10.528   0.383
86892W        W53301  36.920  39.429  10.771
86893W        W53302  22.099  11.161  13.458
86894W        W53303  38.552  29.931   4.124
86895W        W53304   2.961  30.368   0.362
86896W        W53305  32.094  24.145   1.241
86897W        W53306  40.383   9.284   1.830
86898W        W53307   5.324  25.526  14.342
86899W        W53308   3.015  16.306   3.599
86900W        W53309  41.980  11.561   1.031
86901W        W53310  34.097  10.888  12.863
86902W        W53311  33.309  16.894  11.017
86903W        W53312  18.185  25.723   2.442
86904W        W53313  14.616  36.295  12.003
86905W        W53314   4.899  40.618  11.191
86906W        W53315  26.541   6.404  12.067
86907W        W53316   6.704   5.126   4.755
86908W        W53317  26.983   8.896   2.845
86909W        W53318  43.552  42.200   4.535
86910W        W53319  24.740  13.227   4.077
86911W        W53320  42.835  37.549   1.915
86912W        W53321  38.830  21.680   1.319
86913W        W53322   9.709  42.019  10.928
86914W        W53323   9.849  20.286   3.741
86915W        W53324  19.358   0.814  14.203
86916W        W53325  21.970  19.576  13.915
86917W        W53326  15.190  28.928  14.257
86918W        W53327  44.973  41.452   2.746
86919W        W53328  32.067  26.612   1.377
86920W        W53329  13.443  44.558  12.621
86921W        W53330  15.056   4.931  11.541
86922W        W53331   6.165  20.209  14.823
86923W        W53332  28.527  15.192   3.840
86924W        W53333   5.822  42.604  11.580
86925W        W53334  40.652   7.967  12.342
86926W        W53335  44.212  41.955  14.659
86927W        W53336   5.951  11.249   3.741
86928W        W53337  28.036  11.680   0.978
86929W        W53338  23.508  42.946   2.627
86930W        W53339  36.874  14.247  11.637
86931W        W53340  30.580  18.163   3.274
86932W        W53341  33.665  27.437  12.554
86933W        W53342  14.110  26.176  11.107
86934W        W53343   9.369  34.123  13.708
86935W        W53344   7.163  26.965   4.053
86936W        W53345  24.465  35.483  12.936
86937W        W53346  39.999   2.927   1.993
86938W        W53347  16.328   3.217   3.163
86939W        W53348  31.138  41.472   2.730
86940W        W53349  34.852   4.350  11.994
86941W        W53350  23.249  19.652   4.996
86942W        W53351   7.959  38.992  10.164
86943W        W53352  44.887   0.541   4.748
86944W        W53353  33.912  25.141  10.465
86945W        W53354  40.897  42.997  11.444
86946W        W53355  25.728  41.366  10.435
86947W        W53356  40.517   4.633  11.280
86948W        W53357   2.750  22.186   3.298
86949W        W53358  19.305  10.838  11.137
86950W        W53359   0.752  32.584  13.028
86951W        W53360  34.413  43.486  13.394
86952W        W53361  26.071  32.677   2.704
86953W        W53362  30.407  14.678  14.499
86954W        W53363  35.828  23.765   2.827
86955W        W53364  38.937   7.771  11.002
86956W        W53365  34.778  44.359  10.960
86957W        W53366  21.087  38.818   3.755
86958W        W53367   8.467  10.406   4.100
86959W        W53368  14.537  17.975   0.721
86960W        W53369  26.062   4.719  10.386
86961W        W53370  27.492  38.934   3.828
86962W        W53371  15.378  37.292   0.348
86963W        W53372  16.588  30.670   2.625
86964W        W53373  19.748  27.508   0.943
86965W        W53374  42.226  28.533  11.232
86966W        W53375  36.928   2.997  14.473
86967W        W53376  25.924  35.104   0.908
86968W        W53377   6.115  21.680  13.819
86969W        W53378  26.082   6.475  14.218
86970W        W53379   0.333   0.944   1.657
86971W        W53380  14.664  12.748   0.701
86972W        W53381  35.310   7.486  14.866
86973W        W53382  13.571  10.398  14.298
86974W        W53383  30.133  28.487  14.921
86975W        W53384  34.853  34.761  10.399
86976W        W53385  21.086   2.980  14.849
86977W        W53386  40.299  14.950  12.881
86978W        W53387  34.092  16.569   3.892
86979W        W53388   5.926  11.384   0.901
86980W        W53389  14.717  21.806  13.860
86981W        W53390  43.044  30.232   0.691
86982W        W53391  14.574   2.908   3.485
86983W        W53392  39.070  29.203  11.613
86984W        W53393   9.582  35.748   2.668
86985W        W53394  19.685  32.613  14.979
86986W        W53395  25.287  12.556  13.461
86987W        W53396  23.714  35.099  12.915
86988W        W53397  14.631  42.007   3.311
86989W        W53398  17.118  25.721   4.481
86990W        W53399  32.904  22.279   3.138
86991W        W53400  27.962  44.391  10.527
86992W        W53401  19.176   4.696  11.120
86993W        W53402  39.089  19.583  10.915
86994W        W53403   2.916   7.936  10.615
86995W        W53404  22.470  28.359  14.021
86996W        W53405   2.758  21.689  14.681
86997W        W53406  13.604   3.448   4.235
86998W        W53407   4.844  29.417   3.240
86999W        W53408  12.291  44.938   4.577
87000W        W53409   9.621  12.279  14.890
87001W        W53410   2.100   5.265  11.296
87002W        W53411  44.474  39.882  10.382
87003W        W53412  26.761  21.069   4.073
87004W        W53413  39.502  38.856   3.260
87005W        W53414   0.726  18.681  12.590
87006W        W53415   9.090  14.141  12.379
87007W        W53416  29.607  28.884   9.981
87008W        W53417  18.570  13.615   2.168
87009W        W53418  32.065  26.238  13.873
87010W        W53419  35.894   0.744   3.637
87011W        W53420  30.849   9.869  12.485
87012W        W53421  10.995  44.527  13.916
87013W        W53422   9.738  39.300   4.062
87014W        W53423  12.737  11.149  14.674
87015W        W53424  40.523  14.171  10.224
87016W        W53425   6.237  23.389   0.797
87017W        W53426  26.844  37.785  11.544
87018W        W53427  26.251  23.120   3.128
87019W        W53428  13.291  20.264  13.737
87020W        W53429  30.071  23.478   1.873
87021W        W53430  34.431  28.078   2.855
87022W        W53431  32.972  25.297   4.123
87023W        W53432  11.629  10.202  13.227
87024W        W53433  38.289  25.069  14.427
87025W        W53434  17.067  21.924  11.330
87026W        W53435  30.888  27.933   9.933
87027W        W53436   1.242  30.629   3.257
87028W        W53437   5.783  18.089  12.594
87029W        W53438  25.254   2.825  12.533
87030W        W53439   4.931  42.924  12.132
87031W        W53440   9.656  44.497   4.562
87032W        W53441   1.099  32.045   5.065
87033W        W53442  19.692  34.978  10.958
87034W        W53443  28.558  44.734   2.812
87035W        W53444  28.632  10.051   3.988
87036W        W53445  25.211  26.742   0.537
87037W        W53446  42.985  23.421   4.579
87038W        W53447  43.308  43.454   0.369
87039W        W53448  10.154  28.112  14.545
87040W        W53449   3.793  26.121   3.436
87041W        W53450  26.433  16.027  10.829
87042W        W53451  20.951  26.161  13.515
87043W        W53452  13.620  39.883  11.592
87044W        W53453   5.521  10.359  12.888
87045W        W53454  39.454  43.733   4.762
87046W        W53455  13.960  13.284   0.956
87047W        W53456  25.621  14.905  12.057
87048W        W53457  21.820  26.408  13.291
87049W        W53458   1.529   5.865  13.722
87050W        W53459  18.186  22.342  14.292
87051W        W53460  10.419  13.593   1.278
87052W        W53461  11.855  42.928   5.002
87053W        W53462  40.486  43.376  13.008
87054W        W53463  24.233  39.519  11.656
87055W        W53464   5.421  32.066  12.763
87056W        W53465  39.612  12.585  14.523
87057W        W53466  37.606  28.922   1.480
87058W        W53467  33.413  26.742  12.138
87059W        W53468  37.593  14.256  11.132
87060W        W53469   1.327  31.160   1.750
87061W        W53470  42.834  17.655  14.921
87062W        W53471  19.201  21.312   4.478
87063W        W53472  16.065   0.006  14.050
87064W        W53473  29.542  14.018   3.249
87065W        W53474   7.840  15.876   2.670
87066W        W53475  15.233  24.789   2.600
87067W        W53476  11.245  37.923   0.758
87068W        W53477  23.679  40.924  14.313
87069W        W53478  29.993   3.009   2.689
87070W        W53479  44.682  12.179   4.536
87071W        W53480   7.092  34.892   1.634
87072W        W53481  30.498   7.144   3.923
87073W        W53482  29.756  29.184   0.228
87074W        W53483  28.533  34.455  13.498
87075W        W53484   1.192  15.185  13.452
87076W        W53485  10.626  20.684  14.017
87077W        W53486  39.334  18.585  11.996
87078W        W53487   2.433   7.114   3.224
87079W        W53488   4.732   3.515   2.397
87080W        W53489  36.516  10.002  10.429
87081W        W53490  17.104  28.251  13.031
87082W        W53491  41.141  43.017   2.859
87083W        W53492  39.852  32.704   1.465
87084W        W53493   3.069  41.695  11.870
87085W        W53494  38.023  24.985   1.481
87086W        W53495  44.980  12.292   0.742
87087W        W53496  31.574  15.836  14.035
87088W        W53497   0.942  23.436   4.493
87089W        W53498  15.195   0.391  14.985
87090W        W53499   0.071  44.560  12.393
87091W        W53500   2.819  33.981  12.942
87092W        W53501  24.136  20.543  13.368
87093W        W53502  31.463  19.756   0.063
87094W        W53503  10.149  41.753  14.769
87095W        W53504   2.341   9.331   3.582
87096W        W53505   9.571   9.067   2.184
87097W        W53506  17.744  22.809   3.310
87098W        W53507  41.273  28.064  13.396
87099W        W53508  37.055   5.604  10.429
87100W        W53509   6.146  29.827   2.718
87101W        W53510  39.920  27.751   0.941
87102W        W53511  29.167  11.183   0.900
87103W        W53512  13.699   4.649   0.738
87104W        W53513  22.497  34.470   0.064
87105W        W53514  40.094   1.983   0.856
87106W        W53515   8.106  20.034  10.349
87107W        W53516  17.049   1.485   0.694
87108W        W53517  13.568  16.353   1.903
87109W        W53518  24.902  41.432  14.769
87110W        W53519  43.073  41.626   5.154
87111W        W53520   0.144  24.943  11.579
87112W        W53521  30.284   3.495   4.475
87113W        W53522  27.937   2.275   0.271
87114W        W53523   1.774  28.506   4.922
87115W        W53524   2.153  27.168  11.266
87116W        W53525  17.845  12.349  13.086
87117W        W53526  35.052  28.718   0.061
87118W        W53527  40.377  43.947   2.127
87119W        W53528  41.921  42.495  14.965
87120W        W53529  17.653  39.851  10.719
87121W        W53530  15.275  13.864  10.678
87122W        W53531   8.775   5.466   2.240
87123W        W53532  21.796   9.620  11.186
87124W        W53533   4.957  30.420   0.832
87125W        W53534  16.062  40.562  13.838
87126W        W53535   8.855  19.435  12.383
87127W        W53536  32.159  10.446   4.573
87128W        W53537   5.608  20.283  13.300
87129W        W53538  10.093   3.966  12.604
87130W        W53539  12.239  38.045  14.464
87131W        W53540  33.117  23.660  13.450
87132W        W53541  11.905  31.534   0.811
87133W        W53542   5.583   1.510  12.238
87134W        W53543   9.409   2.224  14.076
87135W        W53544  27.210  20.116   4.527
87136W        W53545   6.017   9.508  11.926
87137W        W53546  40.399  33.648  10.727
87138W        W53547  18.831  26.133   2.037
87139W        W53548  25.256  34.058   4.215
87140W        W53549  27.624  26.990   1.238
87141W        W53550   4.377  39.930  13.820
87142W        W53551  30.597  29.669  11.599
87143W        W53552  39.008   1.976   2.741
87144W        W53553  43.462   7.124   0.793
87145W        W53554  32.664   6.769   0.909
87146W        W53555  33.946  22.766  13.861
87147W        W53556  39.865  28.504   2.204
87148W        W53557  39.806  11.678   2.875
87149W        W53558  39.814  18.838   1.485
87150W        W53559  19.374  16.608   0.848
87151W        W53560   8.129   4.192   1.755
87152W        W53561   1.317  15.539  11.182
87153W        W53562  23.618  29.739   1.722
87154W        W53563   7.226  13.678   1.394
87155W        W53564  33.941  39.029   0.182
87156W        W53565  30.352  19.603  10.695
87157W        W53566  35.063  25.972   0.242
87158W        W53567   5.086   8.968   3.893
87159W        W53568  19.612  18.195  11.773
87160W        W53569  37.551  24.134   0.498
87161W        W53570  26.494  14.184  12.370
87162W        W53571  30.950  29.416   1.715
87163W        W53572   2.785  17.958  11.080
87164W        W53573  38.344   0.787   1.333
87165W        W53574  37.309  38.117   3.205
87166W        W53575  15.956  21.906  12.104
87167W        W53576  30.397  11.096  13.883
87168W        W53577  29.026   0.029   3.627
87169W        W53578  33.552  30.448  13.678
87170W        W53579  32.585  18.005   4.726
87171W        W53580   9.787  26.686  10.960
87172W        W53581  43.773  12.585  11.748
87173W        W53582  31.989   1.418   0.244
87174W        W53583  31.958  16.922  11.810
87175W        W53584  38.717  44.947   2.400
87176W        W53585  11.612  10.663  11.071
87177W        W53586  34.396  34.786  11.127
87178W        W53587  14.373   9.473   3.199
87179W        W53588   5.395   9.153   2.317
87180W        W53589  14.225  17.955   5.012
87181W        W53590  29.026   3.497  11.546
87182W        W53591  21.419  16.847   4.259
87183W        W53592   2.642   8.106  14.493
87184W        W53593  34.208  10.779  14.258
87185W        W53594  42.902  34.788  12.439
87186W        W53595  20.606  37.605   3.430
87187W        W53596  29.654   4.432  12.197
87188W        W53597   6.352  17.196   4.822
87189W        W53598  26.241  21.105   2.795
87190W        W53599  29.103  40.221  13.215
87191W        W53600  35.066  24.772  13.485
87192W        W53601   1.694   4.159   0.620
87193W        W53602  37.103  36.427  14.387
87194W        W53603  24.556  13.147  11.529
87195W        W53604  18.325  17.251   4.498
87196W        W53605  30.241   2.498   1.483
87197W        W53606  17.130  30.905  12.888
87198W        W53607   1.734  12.751   0.848
87199W        W53608  43.522  39.339  14.924
87200W        W53609  35.517   3.251   3.035
87201W        W53610   3.553  13.731   3.467
87202W        W53611  30.579  33.829   0.897
87203W        W53612  11.687  25.693   0.614
87204W        W53613   3.855  24.031  13.755
87205W        W53614  34.521  27.484   1.412
87206W        W53615  26.784  42.721   5.000
87207W        W53616  37.740  43.973   0.250
87208W        W53617  42.162  32.616   4.698
87209W        W53618  12.210  37.231  10.940
87210W        W53619   4.373   3.467  14.333
87211W        W53620  22.462  36.698  11.709
87212W        W53621  35.901   6.391  14.354
87213W        W53622  18.256   3.466   1.881
87214W        W53623  39.336  38.904  12.978
87215W        W53624  19.559  16.789  14.419
87216W        W53625  21.556   7.883   4.189
87217W        W53626  21.211  43.056  11.475
87218W        W53627   9.071  12.991  11.016
87219W        W53628  40.494  30.163   1.839
87220W        W53629  36.295   7.293  14.237
87221W        W53630  20.707  38.753   1.794
87222W        W53631  10.192   3.316  11.528
87223W        W53632  29.397  42.456   4.972
87224W        W53633  18.185  38.718  13.479
87225W        W53634  11.276   0.376  12.477
87226W        W53635  40.031  42.060   0.253
87227W        W53636  24.436  18.611  12.429
87228W        W53637  13.201  25.222  13.781
87229W        W53638  35.079  39.770  13.868
87230W        W53639  31.461  24.148  13.030
87231W        W53640  40.850  10.556   2.797
87232W        W53641  26.680   4.329  11.937
87233W        W53642   0.416  24.221   1.286
87234W        W53643  13.639  29.002  13.792
87235W        W53644  17.292  37.195   5.071
87236W        W53645   2.713  27.168  13.356
87237W        W53646  11.694  10.964   3.755
87238W        W53647   5.873  14.000   2.792
87239W        W53648  28.609  32.486  11.980
87240W        W53649  33.402  35.616   1.895
87241W        W53650  36.746  39.804  11.109
87242W        W53651  38.348   1.902  10.706
87243W        W53652  44.978  28.038   3.266
87244W        W53653   6.290  20.850   4.581
87245W        W53654  33.938  44.718  10.589
87246W        W53655  16.292  38.828   0.938
87247W        W53656  44.193   3.307  12.432
87248W        W53657  35.449  23.744   4.678
87249W        W53658  43.491  17.050   4.164
87250W        W53659   4.383  41.016   2.763
87251W        W53660  13.383   9.443  12.554
87252W        W53661  35.492  40.881   2.186
87253W        W53662  24.112  16.710   3.549
87254W        W53663   9.700  42.242   4.240
87255W        W53664  37.530  21.049   2.754
87256W        W53665  40.944   9.395  12.727
87257W        W53666  19.581  33.184  13.133
87258W        W53667  21.511  25.381  11.583
87259W        W53668   8.605  44.741   3.164
87260W        W53669  30.104   9.570  14.279
87261W        W53670  31.480  20.030  11.150
87262W        W53671  35.129  19.420   1.789
87263W        W53672  38.906  16.241  10.632
87264W        W53673  26.268  26.182  12.486
87265W        W53674  15.643  29.138  14.139
87266W        W53675  36.317  44.462  12.674
87267W        W53676  31.967  28.002  14.577
87268W        W53677  36.997  19.803  14.854
87269W        W53678   7.417  26.810  11.109
87270W        W53679   6.900  42.706  12.293
87271W        W53680  12.735  21.504   5.028
87272W        W53681  13.479  33.530  14.406
87273W        W53682  42.694  10.861  10.603
87274W        W53683  26.097  44.008   2.450
87275W        W53684  22.298   3.883   2.674
87276W        W53685  30.087  22.577  11.444
87277W        W53686  20.590  25.699   0.795
87278W        W53687  23.257  13.125   0.915
87279W        W53688  29.451   7.205  11.506
87280W        W53689  39.205  39.911  11.003
87281W        W53690  14.800  19.115  11.971
87282W        W53691  39.742  10.614  11.995
87283W        W53692  14.796  42.986  11.835
87284W        W53693  26.919  27.325  12.622
87285W        W53694  37.677   2.256   4.475
87286W        W53695  16.366  17.389  11.126
87287W        W53696   9.428  26.086  13.950
87288W        W53697  39.962  29.778  11.573
87289W        W53698  20.175  41.835   2.285
87290W        W53699  13.209  30.139  12.884
87291W        W53700  42.419  41.102  12.538
87292W        W53701   7.788  11.753  14.544
87293W        W53702  28.990  22.179   2.386
87294W        W53703  16.664  28.648  12.430
87295W        W53704  23.021   2.376   3.520
87296W        W53705  20.519   5.700   2.284
87297W        W53706  17.757  18.020  11.943
87298W        W53707  19.049  39.256   1.961
87299W        W53708  25.024  20.252   0.244
87300W        W53709   7.151  21.050   0.868
87301W        W53710  18.809  23.292   1.764
87302W        W53711  21.710  32.734   1.196
87303W        W53712  31.689  21.721   2.694
87304W        W53713  44.508  27.628   2.265
87305W        W53714  32.835   1.242   3.753
87306W        W53715   4.422  19.168  10.508
87307W        W53716  13.443  18.998  10.209
87308W        W53717   4.396  28.482   2.796
87309W        W53718  22.429  32.464   2.761
87310W        W53719  43.440  28.155   2.954
87311W        W53720  39.215  38.262   0.894
87312W        W53721  23.184  41.962   3.253
87313W        W53722  24.984   7.215  12.598
87314W        W53723   5.012  38.648   0.191
87315W        W53724  11.162  34.618  13.982
87316W        W53725  31.867  32.750  11.122
87317W        W53726  23.675   1.362   4.309
87318W        W53727  26.970  30.014  13.510
87319W        W53728  26.238  42.784   2.402
87320W        W53729   7.431  42.418  11.957
87321W        W53730  33.609   7.870  13.901
87322W        W53731  30.408  26.027   3.126
87323W        W53732   8.174   0.366  14.321
87324W        W53733  18.032  32.948   0.802
87325W        W53734  19.504  32.233  14.261
87326W        W53735   0.325  20.888  10.013
87327W        W53736   4.661  25.919   2.510
87328W        W53737   5.283  15.965  11.691
87329W        W53738  35.463  40.339   4.425
87330W        W53739  20.158  31.317  11.093
87331W        W53740  33.835  30.988  13.792
87332W        W53741  27.636  27.587  14.620
87333W        W53742  40.800   5.711   4.347
87334W        W53743  30.610  20.202   4.349
87335W        W53744   3.731  29.730  13.976
87336W        W53745  32.332  32.933  12.487
87337W        W53746  20.970  17.031   3.385
87338W        W53747  38.472  24.298   3.315
87339W        W53748  32.304  27.443   3.615
87340W        W53749  24.742  39.514   0.003
87341W        W53750  27.607   4.834   3.288
87342W        W53751   8.999  39.398   0.390
87343W        W53752  33.172  35.653  11.443
87344W        W53753  26.543   2.370   4.719
87345W        W53754  37.514   8.957   1.937
87346W        W53755  17.214  29.952  11.683
87347W        W53756  10.871   7.291  13.972
87348W        W53757   8.034  24.669  12.084
87349W        W53758   7.710  32.587   9.756
87350W        W53759  38.458  18.168  14.406
87351W        W53760  29.562  18.543   1.279
87352W        W53761  18.737  38.772  11.028
87353W        W53762   1.267  38.505  11.630
87354W        W53763  22.962  44.998   0.066
87355W        W53764  17.925  15.526   1.329
87356W        W53765   0.478  10.986  13.278
87357W        W53766  28.507  11.343  11.777
87358W        W53767  19.010  40.628   0.117
87359W        W53768  10.123  30.668   0.997
87360W        W53769   6.961  31.629   3.242
87361W        W53770  32.149  26.523  11.068
87362W        W53771   5.914  30.612  14.607
87363W        W53772  19.365  36.510   1.393
87364W        W53773  38.829  15.795  14.242
87365W        W53774  22.261   4.956  13.775
87366W        W53775  26.756  15.020  11.209
87367W        W53776   4.506   5.314   3.481
87368W        W53777  24.005  36.904  13.515
87369W        W53778  29.577  33.997   2.884
87370W        W53779  10.641  15.588  12.374
87371W        W53780   5.282  15.998  13.961
87372W        W53781  20.746  10.783   3.931
87373W        W53782   7.970  28.454  12.530
87374W        W53783  25.676  31.183   0.210
87375W        W53784   1.625  42.797  14.022
87376W        W53785  13.312  25.234   4.195
87377W        W53786  34.870   9.272  10.749
87378W        W53787  16.736  20.589  12.432
87379W        W53788  35.274  26.784   3.382
87380W        W53789  31.283  34.668  13.199
87381W        W53790   6.700  16.340   2.319
87382W        W53791   7.920  29.166  13.701
87383W        W53792  14.062  17.451   5.066
87384W        W53793   9.275  38.839   4.146
87385W        W53794  23.060  41.826  11.558
87386W        W53795  25.962  12.462   2.221
87387W        W53796  36.005  43.171  14.088
87388W        W53797  28.013  13.836  14.956
87389W        W53798  15.598  13.940   0.221
87390W        W53799  21.295  22.712  11.704
87391W        W53800  37.416   0.248   2.670
87392W        W53801  44.373   9.729  13.854
87393W        W53802  18.169  22.184   1.097
87394W        W53803  10.679  31.529  13.184
87395W        W53804  34.575  40.786  11.258
87396W        W53805  27.240  11.759  13.914
87397W        W53806  44.507  15.536  12.670
87398W        W53807   0.485  16.923  13.078
87399W        W53808  44.256  20.309  11.987
87400W        W53809   3.745  44.412  14.183
87401W        W53810  35.889  41.175  11.626
87402W        W53811  29.893  35.805   2.801
87403W        W53812  34.978  29.185   0.342
87404W        W53813  28.102   0.785   4.638
87405W        W53814  41.434  38.885   3.820
87406W        W53815  43.314  33.112   0.848
87407W        W53816  36.380  26.380  14.140
87408W        W53817  40.999  28.553   2.365
87409W        W53818  15.590   2.560  12.515
87410W        W53819  20.980  18.698   2.122
87411W        W53820  25.138  38.363   4.618
87412W        W53821  36.625   1.960  12.428
87413W        W53822   7.815  44.590   2.692
87414W        W53823   1.074  20.180  12.981
87415W        W53824   1.522  44.427   3.213
87416W        W53825  36.251   7.354  14.811
87417W        W53826   0.813  33.911   2.227
87418W        W53827  21.602  39.656  13.232
87419W        W53828  21.997  17.078  13.099
87420W        W53829  42.759  14.432  14.580
87421W        W53830  11.385  27.532  14.852
87422W        W53831  31.519   3.064  13.012
87423W        W53832  35.039  34.796  11.550
87424W        W53833   5.309   6.438   1.706
87425W        W53834   7.945   7.176  11.594
87426W        W53835  29.176   7.071   3.064
87427W        W53836   8.873  37.809   3.704
87428W        W53837  13.167  12.581   4.150
87429W        W53838   1.583  44.215  12.039
87430W        W53839   9.360  24.980   0.213
87431W        W53840  27.211  20.574   4.293
87432W        W53841  24.815   5.251   2.324
87433W        W53842  31.532  24.925  11.634
87434W        W53843   9.825  42.751  12.942
87435W        W53844  33.169  29.574  13.517
87436W        W53845  40.849   3.348   0.575
87437W        W53846  24.493  12.248  14.297
87438W        W53847  32.154   9.234  12.489
87439W        W53848  12.773  43.463   3.834
87440W        W53849  43.885  23.952  13.364
87441W        W53850  25.766  15.017  11.191
87442W        W53851  43.849  34.434  13.624
87443W        W53852  31.505  11.811  11.816
87444W        W53853  44.347  14.087   0.302
87445W        W53854   7.355  43.254   3.201
87446W        W53855  22.958  38.446  11.116
87447W        W53856  21.026  31.513  10.855
87448W        W53857  10.843  37.005   1.880
87449W        W53858  44.045  24.224  14.751
87450W        W53859  31.893  41.851  12.459
87451W        W53860   4.909  38.603   2.899
87452W        W53861  32.820  43.818   4.485
87453W        W53862  41.528  25.101  13.084
87454W        W53863   4.782  25.820   1.438
87455W        W53864  44.066  10.479   5.076
87456W        W53865  33.407  18.264  10.560
87457W        W53866   0.796  13.872   0.881
87458W        W53867  31.561  17.067   2.715
87459W        W53868  34.346  19.981   0.897
87460W        W53869  29.101   7.381  11.997
87461W        W53870  16.223  27.488   0.398
87462W        W53871   3.438   4.870  11.715
87463W        W53872  37.840   1.511  14.996
87464W        W53873   5.099  19.852   0.768
87465W        W53874  33.097  11.163  14.616
87466W        W53875  43.014  25.246  10.712
87467W        W53876  33.335  43.095   2.641
87468W        W53877  13.547  15.724  13.106
87469W        W53878  31.555  35.303   1.836
87470W        W53879  44.391  34.961  10.932
87471W        W53880   1.571  42.969   0.896
87472W        W53881  11.736  40.369  12.543
87473W        W53882  23.765   8.278   1.972
87474W        W53883  39.787  41.311   2.415
87475W        W53884  29.989  32.535   4.549
87476W        W53885  13.636  31.394  14.365
87477W        W53886  29.687  39.444   0.444
87478W        W53887   3.193  31.980   1.709
87479W        W53888   2.532  20.156   2.759
87480W        W53889  24.982  41.964  14.846
87481W        W53890  34.403   9.433  10.964
87482W        W53891   9.711  20.382  13.677
87483W        W53892  13.460  10.293   1.963
87484W        W53893  14.570  11.065  11.039
87485W        W53894  40.810   5.053  12.127
87486W        W53895  16.495   3.432  14.089
87487W        W53896  28.008  15.858  12.068
87488W        W53897  34.579   7.646  13.892
87489W        W53898   2.294   4.923  12.415
87490W        W53899   5.971  20.728   0.347
87491W        W53900  43.409  26.461  11.536
87492W        W53901  18.276   0.257  12.822
87493W        W53902  40.193  36.961   0.971
87494W        W53903   7.309  27.457  11.976
87495W        W53904   5.242  40.257   9.947
87496W        W53905   3.207  24.178  11.951
87497W        W53906  37.871  30.060  10.484
87498W        W53907  29.925  21.676   3.793
87499W        W53908  40.543  35.549  13.939
87500W        W53909  40.810  44.226  14.920
87501W        W53910  11.512  19.066  13.360
87502W        W53911  23.985  18.572   4.781
87503W        W53912  40.052  22.873   3.662
87504W        W53913  36.101   4.672   2.108
87505W        W53914  21.689  10.176  14.750
87506W        W53915   2.889   3.176  12.148
87507W        W53916  22.592  21.072   4.353
87508W        W53917  13.477  31.378  11.083
87509W        W53918  10.169  18.257  10.849
87510W        W53919   4.348  29.124  13.125
87511W        W53920   8.239   0.813  11.157
87512W        W53921   9.125   0.502   1.827
87513W        W53922  12.172  16.352   4.227
87514W        W53923  31.424  36.109   0.630
87515W        W53924  30.197  23.628   0.314
87516W        W53925  10.188  20.176  13.564
87517W        W53926  18.213  22.059   3.353
87518W        W53927  42.299  32.133   3.850
87519W        W53928  30.946   1.342   2.252
87520W        W53929   5.818  18.136  10.654
87521W        W53930  20.999  18.599  10.749
87522W        W53931  26.201  21.593   2.320
87523W        W53932  24.180   9.948   2.357
87524W        W53933  22.664   5.432  11.237
87525W        W53934   6.155   9.926   0.393
87526W        W53935  34.171  44.967   2.418
87527W        W53936   6.327  10.865   1.542
87528W        W53937   6.361  10.899   0.264
87529W        W53938   5.199  26.597   2.421
87530W        W53939  41.360   8.891  13.440
87531W        W53940   4.844  36.866  11.466
87532W        W53941  11.091   9.236   2.775
87533W        W53942  28.743   4.397   4.087
87534W        W53943  11.930  41.633   5.053
87535W        W53944  14.055  10.344  14.454
87536W        W53945  33.908  33.284  11.648
87537W        W53946  17.635  17.345   4.391
87538W        W53947  22.501  17.636   2.665
87539W        W53948  39.914  28.226  10.694
87540W        W53949  29.222  20.777   3.624
87541W        W53950   4.799  26.705  10.732
87542W        W53951  32.905  27.582  14.846
87543W        W53952  32.848   9.057   0.930
87544W        W53953  31.973  15.696  13.520
87545W        W53954  24.251   6.215  14.525
87546W        W53955   7.970  31.256   0.459
87547W        W53956  31.908  34.160   1.173
87548W        W53957   1.374   9.265   5.194
87549W        W53958  34.458  35.580  13.997
87550W        W53959   9.369  40.114  14.840
87551W        W53960  19.829   5.878   2.831
87552W        W53961  14.556   1.798   1.940
87553W        W53962  44.512  10.723  14.481
87554W        W53963  31.367  30.984  14.450
87555W        W53964  27.540   7.389  10.297
87556W        W53965  13.168  36.387   3.942
87557W        W53966   8.147  13.605   4.547
87558W        W53967  41.058  23.678  11.699
87559W        W53968  44.379   7.889  10.243
87560W        W53969  25.195  10.388   3.308
87561W        W53970  28.511  18.416  11.291
87562W        W53971   6.434   6.645   1.033
87563W        W53972  38.099  37.923   2.533
87564W        W53973   3.796  16.214  12.111
87565W        W53974  31.625  25.855   0.646
87566W        W53975  15.210  39.476   1.432
87567W        W53976  42.357  35.884  10.817
87568W        W53977  10.365  23.390  11.089
87569W        W53978  29.116  25.673   4.431
87570W        W53979  15.554  17.114   9.999
87571W        W53980  38.353  17.348   2.720
87572W        W53981  42.146   3.456  12.490
87573W        W53982   8.127  40.784  11.095
87574W        W53983  20.692  35.328   1.235
87575W        W53984  19.266  44.793  12.319
87576W        W53985   0.487  25.929   1.656
87577W        W53986  36.649  40.065   1.806
87578W        W53987   2.433   3.010   3.789
87579W        W53988  15.221  18.802   1.764
87580W        W53989   1.455   9.367  13.875
87581W        W53990  33.186  25.048   3.734
87582W        W53991  17.416  28.055   2.229
87583W        W53992  24.671   9.453   4.019
87584W        W53993  37.843  37.655   4.197
87585W        W53994   8.206   5.067   1.469
87586W        W53995   4.261  22.633  13.480
87587W        W53996  35.093  23.191  10.362
87588W        W53997   8.562  33.164   2.172
87589W        W53998  20.933  23.486   3.644
87590W        W53999  12.792  27.472   3.562
87591W        W54000  16.275  43.776  12.464
87592W        W54001   7.123  26.232   0.471
87593W        W54002   0.259  34.097   1.271
87594W        W54003  24.501   2.963  13.365
87595W        W54004  36.188  20.972   1.205
87596W        W54005  44.678  19.888  13.854
87597W        W54006  36.928   9.234   3.270
87598W        W54007  20.440  30.520  11.617
87599W        W54008  39.296  13.229   4.168
87600W        W54009  21.222  19.078  11.094
87601W        W54010  42.045   4.856  14.721
87602W        W54011  36.956  14.691  13.919
87603W        W54012  33.820  41.543  11.626
87604W        W54013   2.953  44.011   3.080
87605W        W54014  44.330  32.413  10.452
87606W        W54015  19.290  37.390   0.279
87607W        W54016  17.732  29.860  11.666
87608W        W54017  36.886  16.061   2.544
87609W        W54018  14.362  17.340  10.701
87610W        W54019  11.588  10.195   4.374
87611W        W54020  22.143  10.246   0.532
87612W        W54021  26.538  42.647  11.982
87613W        W54022  39.926  44.975   1.447
87614W        W54023  35.310   8.713   4.046
87615W        W54024  33.707  23.841  11.107
87616W        W54025  42.429  21.608   3.767
87617W        W54026  19.766  13.378   3.723
87618W        W54027   7.339   8.064   0.215
87619W        W54028  12.231  37.774   2.772
87620W        W54029  23.035  28.647  11.220
87621W        W54030  39.507   3.584  14.964
87622W        W54031   5.453  12.123  12.505
87623W        W54032  34.637  35.456   0.419
87624W        W54033  38.362  22.586  12.889
87625W        W54034  14.556   9.304   2.726
87626W        W54035  31.458  14.319   0.194
87627W        W54036  31.083  41.675  14.755
87628W        W54037  23.226  37.154  10.652
87629W        W54038  41.231  23.692   2.243
87630W        W54039  23.198  42.753   0.751
87631W        W54040  17.331  15.756  11.227
87632W        W54041  37.038  29.733   2.783
87633W        W54042  38.238   7.924   1.290
87634W        W54043  40.773  37.347  11.115
87635W        W54044  33.577   3.504   0.363
87636W        W54045  14.751   7.864  13.496
87637W        W54046  13.189  16.586  13.462
87638W        W54047   1.668  41.245   1.374
87639W        W54048  13.735  11.876   4.148
87640W        W54049  12.605  28.465  10.695
87641W        W54050   9.673  17.552  13.285
87642W        W54051   3.413  23.233  12.023
87643W        W54052  13.536  18.027   4.376
87644W        W54053  10.242   6.174  12.539
87645W        W54054  39.702  34.223   2.774
87646W        W54055  37.094  22.175  14.665
87647W        W54056   7.008   4.860  14.796
87648W        W54057  27.094   5.706   0.045
87649W        W54058  21.422  42.989  13.940
87650W        W54059  32.596  24.093   4.895
87651W        W54060  24.051  34.654   0.778
87652W        W54061  26.691  34.570  14.816
87653W        W54062   9.271  28.636  12.323
87654W        W54063  15.720   6.162  12.790
87655W        W54064   3.406  35.867  13.907
87656W        W54065   3.281  42.487  13.518
87657W        W54066  42.368  21.976   0.843
87658W        W54067  37.370  41.223   3.580
87659W        W54068  17.407  13.724  10.911
87660W        W54069  44.153   4.062  14.048
87661W        W54070  29.669   5.618  13.385
87662W        W54071  16.766  41.091   0.909
87663W        W54072  36.197  24.837  13.699
87664W        W54073   2.298   7.316  10.765
87665W        W54074   1.894  26.595   4.432
87666W        W54075   3.083  33.508  14.382
87667W        W54076  17.644  20.291  12.058
87668W        W54077  35.967  37.323  12.356
87669W        W54078  17.520   1.118  13.081
87670W        W54079   8.212  11.090   2.228
87671W        W54080  30.028  10.439   2.244
87672W        W54081  11.514  36.444  13.867
87673W        W54082   8.159  15.708   3.399
87674W        W54083  35.640  39.086  14.385
87675W        W54084  11.382  29.337  14.026
87676W        W54085  17.641   5.306  10.913
87677W        W54086  39.840  30.475   4.726
87678W        W54087  18.027  18.199   4.098
87679W        W54088  34.630  21.491  10.780
87680W        W54089   4.851  25.014  11.183
87681W        W54090  30.639  27.535   0.139
87682W        W54091   7.270   5.744  13.402
87683W        W54092  39.490   8.003  13.675
87684W        W54093  26.956   3.937  11.643
87685W        W54094   9.397  13.134   0.403
87686W        W54095   0.750  39.492   1.045
87687W        W54096  18.515  24.572   1.262
87688W        W54097  28.002  14.745  11.277
87689W        W54098  34.430  20.628   1.486
87690W        W54099  13.351   6.931  11.978
87691W        W54100  37.721  21.684  13.862
87692W        W54101  14.815  35.781   3.357
87693W        W54102  18.676   7.058   3.702
87694W        W54103  32.797  39.800   4.348
87695W        W54104  25.140   4.993  11.109
87696W        W54105   1.807  36.831  10.855
87697W        W54106   8.235  41.207   1.913
87698W        W54107  13.368  17.049  10.383
87699W        W54108  18.092  19.544  12.700
87700W        W54109  13.648  42.199  14.383
87701W        W54110  42.370  11.868   4.911
87702W        W54111   7.771  10.437  11.236
87703W        W54112  32.157  12.619  11.574
87704W        W54113   6.221  34.875   1.491
87705W        W54114   0.207   6.653  13.435
87706W        W54115  35.675  19.661   0.048
87707W        W54116  22.336  36.007   3.177
87708W        W54117  10.774   6.094  13.907
87709W        W54118  24.667  18.588   2.705
87710W        W54119  35.848  27.572  14.429
87711W        W54120   9.066   8.494   3.753
87712W        W54121  19.082  12.698  13.576
87713W        W54122   6.834  11.362   3.198
87714W        W54123  17.111   6.465  10.146
87715W        W54124  16.125  43.532   0.185
87716W        W54125  10.915  38.963  12.500
87717W        W54126  10.785  42.371   4.131
87718W        W54127  17.261  35.380   3.275
87719W        W54128  25.717  17.367  14.884
87720W        W54129  22.216   4.811   1.568
87721W        W54130  30.593   0.028   0.209
87722W        W54131  37.409  42.119   2.354
87723W        W54132   3.599  17.635   1.341
87724W        W54133  32.778  35.370  14.958
87725W        W54134   0.512  41.925  13.998
87726W        W54135  44.397  32.114  12.736
87727W        W54136  24.084  36.273   0.455
87728W        W54137   6.868  20.608  12.438
87729W        W54138  39.040   7.876   1.710
87730W        W54139  41.352  27.121   0.378
87731W        W54140   5.008   4.423  12.938
87732W        W54141  14.886   8.359   1.840
87733W        W54142  11.664  20.493   0.215
87734W        W54143   9.660  19.869  13.764
87735W        W54144   1.798  16.797   2.275
87736W        W54145  37.646   9.325  13.427
87737W        W54146  17.331   8.138  12.734
87738W        W54147  25.681  40.722  12.040
87739W        W54148  38.814   0.369   3.433
87740W        W54149   2.941  16.320  14.264
87741W        W54150  18.726  21.782  10.209
87742W        W54151  41.409  34.123  11.185
87743W        W54152  39.512  31.226   3.634
87744W        W54153  37.419   1.449  14.350
87745W        W54154   0.978  39.342  11.103
87746W        W54155  25.182  29.039   0.795
87747W        W54156  42.489  20.711   1.513
87748W        W54157  21.304  39.888  10.977
87749W        W54158  39.944   5.410   1.750
87750W        W54159  17.138  41.750  14.318
87751W        W54160   3.755   2.301  14.986
87752W        W54161  27.889  23.581   3.387
87753W        W54162   7.403  31.559  11.619
87754W        W54163  27.541   4.330  13.973
87755W        W54164   3.466  29.169  11.401
87756W        W54165  20.478  29.869   3.120
87757W        W54166  22.068  12.658   2.186
87758W        W54167   3.864  43.202   4.961
87759W        W54168  26.043  42.565  13.550
87760W        W54169   5.410  23.136  13.463
87761W        W54170  18.133   0.420  10.945
87762W        W54171  41.718   7.724   3.553
87763W        W54172  17.517  33.766  10.389
87764W        W54173  10.696   0.499   1.837
87765W        W54174  15.676  31.955   1.843
87766W        W54175   3.376   4.682  14.776
87767W        W54176  19.811  23.092   4.223
87768W        W54177  28.423  21.704   0.380
87769W        W54178  38.061  26.895  12.438
87770W        W54179   3.219   0.438   3.839
87771W        W54180  29.832  10.415   1.071
87772W        W54181  18.145  21.537  11.934
87773W        W54182  34.644  13.584  11.537
87774W        W54183  26.736  27.056  12.226
87775W        W54184  26.169  20.167   2.709
87776W        W54185  40.024  44.013  11.694
87777W        W54186  19.625  40.562  12.054
87778W        W54187  27.237  24.914  10.409
87779W        W54188  25.771  36.924   3.129
87780W        W54189  23.937  24.482  14.272
87781W        W54190  29.238  33.465   1.789
87782W        W54191  12.777  23.757  12.211
87783W        W54192  29.570   6.357   1.446
87784W        W54193   9.919  25.059   4.992
87785W        W54194   1.351  43.218   3.215
87786W        W54195  42.711  31.628   2.143
87787W        W54196  36.449  26.511  11.763
87788W        W54197  31.557  36.059  14.977
87789W        W54198   9.825  41.448  13.873
87790W        W54199  18.250  26.205   1.455
87791W        W54200  18.008  42.350  11.552
87792W        W54201  31.871  14.529  11.614
87793W        W54202  35.464  43.339  12.898
87794W        W54203  27.785  28.160   0.344
87795W        W54204   0.577  26.729  13.611
87796W        W54205  17.250   2.032  12.980
87797W        W54206  31.992   1.698  12.919
87798W        W54207  43.389  10.646   1.940
87799W        W54208   6.151   0.278  13.362
87800W        W54209  38.816  17.779   2.084
87801W        W54210  35.364  13.124  13.624
87802W        W54211   2.976  23.540  10.955
87803W        W54212   8.876  19.373   3.270
87804W        W54213  16.754  33.103   3.549
87805W        W54214  21.503  33.113   1.470
87806W        W54215  10.406  23.228  14.565
87807W        W54216  18.281  20.960   3.413
87808W        W54217  22.504  20.053   4.617
87809W        W54218  30.006  43.978   0.434
87810W        W54219  10.861  16.042   4.704
87811W        W54220  33.089  26.798   3.889
87812W        W54221  33.704  15.560  14.001
87813W        W54222  43.801  36.991   1.035
87814W        W54223  42.198  28.968  12.418
87815W        W54224  31.841  15.837   3.734
87816W        W54225   4.980   6.318  14.869
87817W        W54226  31.958  41.205   0.768
87818W        W54227  36.135  31.704   1.360
87819W        W54228  12.114  33.542   0.020
87820W        W54229   9.711   7.322   3.326
87821W        W54230  42.727  30.621   0.890
87822W        W54231  17.255  22.616   3.371
87823W        W54232   9.571  26.975  10.213
87824W        W54233  13.308  13.681  10.966
87825W        W54234  23.031  34.181  13.152
87826W        W54235   8.341  12.263   0.070
87827W        W54236  28.076  14.174  12.669
87828W        W54237  31.999  15.853   3.188
87829W        W54238  39.879   3.377  11.413
87830W        W54239  18.235   2.954  13.929
87831W        W54240  20.973   2.460  14.820
87832W        W54241  30.024  18.258  13.554
87833W        W54242   5.902  33.044  13.736
87834W        W54243   9.594   8.283  14.474
87835W        W54244   0.630   6.313  10.535
87836W        W54245  29.689   2.397  13.318
87837W        W54246  41.010  24.076  11.391
87838W        W54247  17.268  42.917  11.337
87839W        W54248  22.150   7.377   1.229
87840W        W54249  39.902  21.065   4.122
87841W        W54250  34.919  36.115   0.748
87842W        W54251  11.764  39.169   0.183
87843W        W54252   2.388  17.903  11.479
87844W        W54253   4.977  26.102  13.425
87845W        W54254  37.417  23.561   1.871
87846W        W54255  35.116   8.703  13.500
87847W        W54256  11.777  40.218  14.985
87848W        W54257  18.721   1.372   0.645
87849W        W54258   6.385  26.386  14.787
87850W        W54259  39.762   1.344   3.641
87851W        W54260  32.708  28.738   1.067
87852W        W54261  22.574   6.725   0.404
87853W        W54262  14.692  21.731  12.296
87854W        W54263  18.243  29.194  10.400
87855W        W54264  28.483  31.561   2.821
87856W        W54265  30.937  21.331  12.016
87857W        W54266  40.067  21.097   2.340
87858W        W54267  16.015   6.313  14.943
87859W        W54268  25.490   5.286  10.498
87860W        W54269  43.951  25.996   3.311
87861W        W54270  36.846  15.165   1.354
87862W        W54271   2.900  37.424  12.367
87863W        W54272  33.630  39.385  13.267
87864W        W54273   3.711  28.626  13.357
87865W        W54274  33.182  13.859   4.987
87866W        W54275   7.614  43.479  14.460
87867W        W54276   9.407   7.072  10.260
87868W        W54277   3.735   6.565  10.974
87869W        W54278   4.794   5.910   2.269
87870W        W54279  37.058  21.399   2.364
87871W        W54280   7.459   1.809  11.710
87872W        W54281  44.857  15.053   0.505
87873W        W54282  41.818  37.980   2.215
87874W        W54283  31.014   7.946   2.729
87875W        W54284   0.017  36.144  13.805
87876W        W54285   2.233  42.755  14.154
87877W        W54286  36.800   0.042   0.414
87878W        W54287  43.462  30.017  12.979
87879W        W54288  15.611   5.398   4.246
87880W        W54289  18.075   3.913   3.443
87881W        W54290  35.315  31.827   4.072
87882W        W54291  23.567   1.026   3.102
87883W        W54292  13.168  27.756   5.089
87884W        W54293  26.757  23.064   3.138
87885W        W54294  27.202   3.095  14.384
87886W        W54295  22.830  23.323   3.711
87887W        W54296  12.581  34.539   0.770
87888W        W54297  21.718  10.887   4.880
87889W        W54298  11.680   9.685  14.352
87890W        W54299  25.199  20.882   2.603
87891W        W54300  33.104  10.401  14.897
87892W        W54301  42.774  16.173  10.852
87893W        W54302  12.774  18.583  13.559
87894W        W54303  32.392  37.158   3.075
87895W        W54304  19.489  22.133  10.780
87896W        W54305  24.213  31.141   2.920
87897W        W54306  23.304  32.576   0.310
87898W        W54307  21.910   3.867  11.709
87899W        W54308  28.908  15.109   1.386
87900W        W54309   8.685  18.705   2.651
87901W        W54310  28.495  21.215   4.137
87902W        W54311  12.413   8.942  14.384
87903W        W54312  24.140  29.127   2.333
87904W        W54313  29.532  32.190  12.084
87905W        W54314   8.782  27.504  14.945
87906W        W54315  41.908  23.999  10.805
87907W        W54316  37.490  44.991   2.205
87908W        W54317   5.476  35.072  13.104
87909W        W54318   0.732  22.322   1.875
87910W        W54319  13.663  26.102   3.246
87911W        W54320  15.032   4.905   3.610
87912W        W54321  25.121  12.890  13.868
87913W        W54322   3.674  31.913   4.079
87914W        W54323   1.924  25.416   1.840
87915W        W54324  15.594  21.645   2.665
87916W        W54325  32.844  34.623   0.331
87917W        W54326  34.402  40.334  11.435
87918W        W54327  32.658  32.679  10.692
87919W        W54328   2.469  37.056   4.200
87920W        W54329  17.248  36.296   4.617
87921W        W54330  17.364   6.748   1.460
87922W        W54331  24.965   4.451  13.383
87923W        W54332  26.041  16.808   4.605
87924W        W54333  13.688  17.885  13.153
87925W        W54334  37.705  11.762   4.159
87926W        W54335   5.909  41.789  12.127
87927W        W54336  11.380  11.690  12.844
87928W        W54337   3.925  14.634  13.913
87929W        W54338  31.038   0.033  14.379
87930W        W54339   5.949  35.426   1.933
87931W        W54340  29.378  32.073  10.343
87932W        W54341   4.739  20.594  10.741
87933W        W54342  22.003  43.195  12.496
87934W        W54343  18.494  30.446  11.612
87935W        W54344   0.212  16.879  13.541
87936W        W54345   5.070  23.084   2.854
87937W        W54346   0.949   5.008  12.418
87938W        W54347   1.960  33.096   0.861
87939W        W54348  17.760  23.149   1.802
87940W        W54349  30.003  31.177  11.125
87941W        W54350  21.941  38.401  11.977
87942W        W54351  21.270  15.240   2.210
87943W        W54352  27.528  16.862  14.613
87944W        W54353  10.689  39.085   0.983
87945W        W54354  37.250  21.741  13.586
87946W        W54355  35.348  26.089   1.901
87947W        W54356  26.518  35.527   0.490
87948W        W54357  16.727  34.781  12.547
87949W        W54358  29.195   7.905   2.142
87950W        W54359  18.643  21.765  13.088
87951W        W54360  38.443  32.808  13.832
87952W        W54361  16.456  19.669  12.367
87953W        W54362  36.971  20.323  10.415
87954W        W54363   6.976  25.913   5.019
87955W        W54364  18.751   9.761   3.990
87956W        W54365  26.223  19.411  12.916
87957W        W54366  41.323   4.875  12.056
87958W        W54367  25.668   8.189   5.789
87959W        W54368  11.384   6.793   2.355
87960W        W54369  10.209  32.129   1.420
87961W        W54370  14.716  44.149  13.405
87962W        W54371   3.533  40.820  13.856
87963W        W54372  29.464  37.409  10.637
87964W        W54373  10.262  14.590  14.571
87965W        W54374  44.338  14.077  10.699
87966W        W54375   3.863  26.040   2.464
87967W        W54376  36.260  14.359  13.574
87968W        W54377  34.274  11.381   0.945
87969W        W54378  36.138  41.754  10.819
87970W        W54379  33.401   7.037   4.970
87971W        W54380  30.478  29.622   2.944
87972W        W54381  44.529  17.835   2.881
87973W        W54382  34.930   6.345   1.346
87974W        W54383   7.166  17.767   0.376
87975W        W54384  13.153  20.984  12.543
87976W        W54385   2.659  20.090   1.274
87977W        W54386  41.032  36.475   3.667
87978W        W54387  44.529  27.763   3.327
87979W        W54388  25.423  12.617  10.895
87980W        W54389  12.681   4.999  14.408
87981W        W54390  39.058  29.786   0.334
87982W        W54391  30.979  29.926  12.566
87983W        W54392  17.871  44.844   1.194
87984W        W54393  30.184  43.061  11.916
87985W        W54394   9.762  11.429   3.311
87986W        W54395  14.709   3.602  14.290
87987W        W54396  25.440  14.766   3.761
87988W        W54397  38.972  24.422  12.487
87989W        W54398  40.413   0.872   2.351
87990W        W54399  18.277  31.256   4.497
87991W        W54400  17.367   2.571   5.040
87992W        W54401  22.773  28.953  11.958
87993W        W54402  17.151  12.398   0.842
87994W        W54403   5.366  43.878  14.518
87995W        W54404  29.331  27.718   2.658
87996W        W54405  42.520  44.409   5.198
87997W        W54406  22.496  25.998  12.261
87998W        W54407   3.668  40.019   0.036
87999W        W54408  37.057   9.672  10.990
88000W        W54409  36.663   8.967   2.936
88001W        W54410  23.571  28.942  10.619
88002W        W54411  13.734   4.865   3.139
88003W        W54412  29.909  23.615  13.329
88004W        W54413   8.090   2.229   0.350
88005W        W54414  34.571  29.937  10.687
88006W        W54415   7.319   4.688   1.643
88007W        W54416  30.081   3.330  13.438
88008W        W54417  32.856  27.640   2.285
88009W        W54418  22.324  26.308   3.196
88010W        W54419  19.688   1.223   0.280
88011W        W54420  18.842  11.285  11.674
88012W        W54421  36.898  24.771  11.976
88013W        W54422  21.733  44.954  14.861
88014W        W54423  13.327  31.049   4.781
88015W        W54424  41.187  14.684   0.658
88016W        W54425  20.810  11.311  12.706
88017W        W54426  26.665  33.922   1.078
88018W        W54427  18.835  34.210   2.611
88019W        W54428   2.834  11.019  14.940
88020W        W54429  10.433  27.486   1.664
88021W        W54430  24.223  36.745  10.729
88022W        W54431  12.010  23.384   2.262
88023W        W54432  37.278  37.517   5.162
88024W        W54433  36.349  10.882   1.862
88025W        W54434  31.103  23.105   0.730
88026W        W54435   6.121   1.752   5.109
88027W        W54436  39.051   0.949  13.466
88028W        W54437  35.454  32.083   0.889
88029W        W54438  26.461  33.636   3.668
88030W        W54439   3.898  18.026   3.183
88031W        W54440  14.899  14.163   1.777
88032W        W54441  35.172  35.906   3.311
88033W        W54442  28.852  30.509  12.562
88034W        W54443  23.171   0.859  10.971
88035W        W54444   8.046  17.476  14.287
88036W        W54445   3.451  35.344  11.152
88037W        W54446  30.980  44.400   2.370
88038W        W54447  12.418  23.184  14.445
88039W        W54448  28.763  11.804   2.755
88040W        W54449  40.526  33.055  12.991
88041W        W54450  44.944   3.415  14.477
88042W        W54451   6.138  28.580  10.274
88043W        W54452  26.583   3.574   4.236
88044W        W54453   3.987  26.655   0.858
88045W        W54454  20.729   9.899  12.039
88046W        W54455  12.766  31.666  13.850
88047W        W54456  25.541  25.133   2.301
88048W        W54457   8.840  16.051   2.251
88049W        W54458  32.646  39.302  11.080
88050W        W54459  27.870  26.277  11.044
88051W        W54460  17.463  32.548   1.129
88052W        W54461  25.540  19.702   4.608
88053W        W54462  27.481  40.256  12.187
88054W        W54463  21.092  43.540  12.394
88055W        W54464  26.540  42.811   3.619
88056W        W54465  18.505  16.346   2.001
88057W        W54466   4.803   5.254  11.867
88058W        W54467  21.755  38.357   0.911
88059W        W54468  14.042  42.242  14.053
88060W        W54469  24.505   1.705   4.562
88061W        W54470  38.756   6.863  14.861
88062W        W54471  18.595  27.069   3.248
88063W        W54472   5.294  22.722  12.764
88064W        W54473  14.206   3.356  11.195
88065W        W54474  41.539   9.651   1.015
88066W        W54475  37.294  10.366  10.935
88067W        W54476  20.686  26.001  11.021
88068W        W54477  11.553  16.465   1.335
88069W        W54478  35.138  27.465  12.464
88070W        W54479   0.870   7.911  10.650
88071W        W54480  36.362  27.569  12.003
88072W        W54481   9.256  34.470  10.156
88073W        W54482  15.870  27.265  13.665
88074W        W54483  24.120  38.810   4.998
88075W        W54484  22.235  10.845  13.831
88076W        W54485  36.067  19.221  13.762
88077W        W54486  22.675  14.463   2.242
88078W        W54487   1.846  20.571   2.150
88079W        W54488   5.191  13.129   4.391
88080W        W54489  44.741  26.180  10.945
88081W        W54490  39.785  22.983  11.601
88082W        W54491  44.944  22.462  14.062
88083W        W54492  16.292  15.744   0.036
88084W        W54493   7.810  16.843   0.905
88085W        W54494   2.799  36.511  10.680
88086W        W54495  40.932  27.923  11.210
88087W        W54496  21.108  14.410   4.154
88088W        W54497   8.209   3.925  12.832
88089W        W54498   5.016  16.315   2.406
88090W        W54499  15.095  31.146   0.027
88091W        W54500  23.433  20.234  10.816
88092W        W54501  10.458  15.694   2.925
88093W        W54502  27.890  18.112  11.943
88094W        W54503  42.899  12.672  11.520
88095W        W54504  30.474   8.086   2.747
88096W        W54505  40.896  33.579  13.545
88097W        W54506   6.321  20.690  14.463
88098W        W54507  32.482  27.194  12.995
88099W        W54508  39.908  26.642   4.020
88100W        W54509   5.363  23.061   4.965
88101W        W54510  17.387  19.363   0.316
88102W        W54511  32.825  30.064   4.564
88103W        W54512   3.717  39.090  13.594
88104W        W54513  34.596  41.992  12.129
88105W        W54514  17.252  24.723   4.736
88106W        W54515  15.006  16.118  12.341
88107W        W54516   4.210  31.085   4.571
88108W        W54517  41.700  25.749   0.268
88109W        W54518  38.938  11.292   5.128
88110W        W54519  13.780  41.983   3.688
88111W        W54520  33.842  11.305  11.602
88112W        W54521  38.567  33.854   1.899
88113W        W54522   7.925  30.127  13.884
88114W        W54523  42.884  20.993   4.627
88115W        W54524  10.272  25.200  12.964
88116W        W54525  13.841   1.365  12.442
88117W        W54526  12.790  11.053   3.772
88118W        W54527  16.843  43.353  12.386
88119W        W54528  14.231  17.069   2.178
88120W        W54529   0.880  40.221  12.025
88121W        W54530  10.540  22.176   2.191
88122W        W54531  28.041  17.286  13.030
88123W        W54532   7.616  26.582   2.365
88124W        W54533   0.445  44.234  14.944
88125W        W54534  32.513   7.992  12.202
88126W        W54535  14.580  11.907   2.667
88127W        W54536  15.865  10.639  11.953
88128W        W54537   9.325  28.446  13.771
88129W        W54538  44.282  21.359  10.339
88130W        W54539   4.217  27.965   3.543
88131W        W54540  21.774  34.531  11.541
88132W        W54541   6.251   8.234  13.242
88133W        W54542  41.294  17.027  11.946
88134W        W54543  23.705   0.372   4.469
88135W        W54544  16.646  38.357   0.426
88136W        W54545  25.540  15.608   4.638
88137W        W54546  38.353  21.092  13.292
88138W        W54547  30.162  44.712  13.494
88139W        W54548  25.130  18.807   3.073
88140W        W54549  30.424   8.323  10.935
88141W        W54550  44.467  38.285   1.911
88142W        W54551  15.110  27.470   4.591
88143W        W54552   3.697  26.724   0.364
88144W        W54553  30.050  28.835   3.919
88145W        W54554  18.137   7.802  14.116
88146W        W54555  38.615  43.893   2.823
88147W        W54556  10.471   1.323  13.093
88148W        W54557  39.475  13.637  11.797
88149W        W54558  12.653  31.401  14.298
88150W        W54559  18.740  15.622   4.551
88151W        W54560  26.678  15.353   4.485
88152W        W54561  10.857  23.675   4.219
88153W        W54562   2.328   7.272  12.479
88154W        W54563  21.717  21.809  13.812
88155W        W54564  33.422  15.221   3.490
88156W        W54565  23.431  39.804   4.451
88157W        W54566  41.356  26.784   4.056
88158W        W54567  17.254   0.702   4.916
88159W        W54568  43.036  15.290   1.339
88160W        W54569  16.403  40.126   0.821
88161W        W54570  14.141  16.850   2.644
88162W        W54571  24.491  14.083   1.739
88163W        W54572  40.471  35.340   4.347
88164W        W54573   7.106  16.392  14.277
88165W        W54574   0.521  18.013   2.381
88166W        W54575  43.965  43.844  14.352
88167W        W54576  10.446  29.104   4.299
88168W        W54577  26.640  20.120   4.504
88169W        W54578  26.464  19.760   0.445
88170W        W54579   7.155  20.479   1.398
88171W        W54580  23.236  37.943   0.919
88172W        W54581  19.058  27.958  14.812
88173W        W54582  21.807  22.606  14.521
88174W        W54583  15.764  14.089   3.536
88175W        W54584  39.063  28.620  14.794
88176W        W54585  24.298  22.698   3.257
88177W        W54586  33.825  24.638   0.771
88178W        W54587  33.151  16.007   3.022
88179W        W54588  37.925  30.099   4.719
88180W        W54589  14.228  20.441   9.897
88181W        W54590   5.255  41.032  14.026
88182W        W54591  32.147  19.970  14.751
88183W        W54592  32.019  34.573  11.634
88184W        W54593  18.640  16.523   4.348
88185W        W54594   7.592  20.719  12.885
88186W        W54595  10.575  15.747  11.504
88187W        W54596  35.403  19.337  11.061
88188W        W54597  19.727  12.271  12.889
88189W        W54598  10.774  25.569   4.587
88190W        W54599  44.060   1.784  12.531
88191W        W54600  21.976  19.049   0.469
88192W        W54601   9.742  12.983  11.929
88193W        W54602   6.243  16.827  12.535
88194W        W54603  18.344  35.063   3.228
88195W        W54604   0.344  26.191  12.828
88196W        W54605  11.308  31.760  11.327
88197W        W54606  28.187   7.381   1.432
88198W        W54607   0.880   8.331  14.806
88199W        W54608  14.414  26.609   3.319
88200W        W54609  18.067   3.548   1.128
88201W        W54610  12.210  10.173  13.038
88202W        W54611  25.506  40.392   3.383
88203W        W54612  41.816  24.486  13.952
88204W        W54613   7.369  41.185  14.443
88205W        W54614  38.231  27.159  14.390
88206W        W54615  21.992   5.921   1.287
88207W        W54616  44.499  22.859   0.772
88208W        W54617  38.505  36.281   4.141
88209W        W54618  29.853  20.653  13.178
88210W        W54619  16.716   4.339  14.219
88211W        W54620  17.783  11.130  14.307
88212W        W54621  22.240  15.874   1.230
88213W        W54622  17.183  44.745   2.221
88214W        W54623  14.178   6.938  10.227
88215W        W54624  40.935  30.598   4.486
88216W        W54625   3.818  25.411  11.909
88217W        W54626  28.510  35.893   1.780
88218W        W54627   7.216  23.153   4.562
88219W        W54628  18.254  19.442   1.745
88220W        W54629  15.529  35.437   0.504
88221W        W54630  30.643  18.063   4.764
88222W        W54631  23.583  15.742   2.837
88223W        W54632  23.060   1.040   4.468
88224W        W54633  25.096   1.875   1.406
88225W        W54634  20.813  15.864   2.671
88226W        W54635  39.048  36.559  14.425
88227W        W54636  24.692   8.517  13.574
88228W        W54637  12.610  12.808   1.753
88229W        W54638   1.698   3.927  12.411
88230W        W54639  38.940   0.040  10.717
88231W        W54640  17.636  41.890   0.769
88232W        W54641  16.050   0.547   1.950
88233W        W54642  30.153  44.474  13.978
88234W        W54643  35.529   2.829   3.357
88235W        W54644  42.280  37.833  11.939
88236W        W54645  12.948  26.570   4.510
88237W        W54646  42.748   2.254  12.923
88238W        W54647  10.749  41.889   1.889
88239W        W54648  14.549  24.964   5.036
88240W        W54649   1.512  18.145   4.125
88241W        W54650  44.265  33.076   0.982
88242W        W54651   9.129  33.623  12.388
88243W        W54652  14.293  40.826   2.336
88244W        W54653   0.807  13.286   3.076
88245W        W54654  43.116  12.921   4.910
88246W        W54655  44.785  26.055   2.281
88247W        W54656   3.331  29.322  13.154
88248W        W54657  21.533  22.257  12.867
88249W        W54658  44.271  36.854  11.159
88250W        W54659   3.498  17.328  14.709
88251W        W54660  33.607   0.453  14.434
88252W        W54661  22.237  36.283  14.256
88253W        W54662  34.649   0.438  13.937
88254W        W54663  16.588  27.825   0.277
88255W        W54664  19.205   0.096   4.538
88256W        W54665  13.481  25.465   3.754
88257W        W54666  37.090  35.448  13.498
88258W        W54667  22.548   8.820  13.891
88259W        W54668  38.467  18.510  11.995
88260W        W54669  38.784   6.135  10.219
88261W        W54670  12.243  37.507  14.789
88262W        W54671  25.212  28.520   1.781
88263W        W54672  31.570   7.868   3.758
88264W        W54673  10.435  18.756  11.460
88265W        W54674  21.108  25.430   0.828
88266W        W54675  18.870   6.659   0.780
88267W        W54676  18.329  42.372  11.148
88268W        W54677  20.109  32.678  10.771
88269W        W54678   8.899  38.727  11.952
88270W        W54679   2.844  41.384  13.905
88271W        W54680  23.983  26.283   2.318
88272W        W54681  25.722   3.969  14.362
88273W        W54682  44.490  37.879  13.362
88274W        W54683  34.273   6.980  11.780
88275W        W54684  44.478  42.259   0.423
88276W        W54685  44.466  25.288  10.070
88277W        W54686   3.395  40.051   1.649
88278W        W54687  44.679  31.083  10.766
88279W        W54688  32.035  40.557  11.212
88280W        W54689  29.440  15.182  12.387
88281W        W54690  41.471  21.482   1.254
88282W        W54691   5.198   9.767  10.795
88283W        W54692  36.913  34.941  11.341
88284W        W54693  27.397  32.462  13.898
88285W        W54694  14.070   8.737   2.096
88286W        W54695  35.614  18.598   1.744
88287W        W54696  26.007  35.285  14.047
88288W        W54697  41.331  28.400  10.512
88289W        W54698   1.546  43.467  14.011
88290W        W54699  14.244  44.904  14.753
88291W        W54700   6.748  43.814   2.356
88292W        W54701   9.619   3.950   0.232
88293W        W54702  12.329   1.248   3.574
88294W        W54703  22.772  32.359  13.084
88295W        W54704   8.369  37.584  14.376
88296W        W54705  31.170  30.947  14.965
88297W        W54706  28.716   0.766  14.805
88298W        W54707  27.232  43.131  11.114
88299W        W54708  23.151   2.711  10.851
88300W        W54709  19.777  27.614  11.282
88301W        W54710   1.643  22.731  12.372
88302W        W54711  33.421  38.950  12.382
88303W        W54712   7.224  33.930  10.296
88304W        W54713  20.210  14.738   4.674
88305W        W54714  28.848  12.934   4.561
88306W        W54715   7.629   0.814   5.094
88307W        W54716  23.262  33.156   2.740
88308W        W54717  37.325  38.970  14.787
88309W        W54718  20.484  16.532   1.596
88310W        W54719  30.550   7.803  10.872
88311W        W54720   4.753   2.252   4.602
88312W        W54721  23.203  21.180  13.802
88313W        W54722  12.234  35.520   2.781
88314W        W54723   6.764  18.298   1.267
88315W        W54724  27.203   0.808  14.843
88316W        W54725  33.527  12.640   0.602
88317W        W54726  42.935  20.939   2.345
88318W        W54727   7.080  43.592   4.470
88319W        W54728  28.942  14.625   4.976
88320W        W54729  25.192  33.108  12.076
88321W        W54730  27.565  35.828   1.665
88322W        W54731   1.220  33.943   3.853
88323W        W54732  40.423  40.450   0.782
88324W        W54733  35.501   1.450   2.053
88325W        W54734  18.850  34.650  11.025
88326W        W54735  19.767  11.831   0.803
88327W        W54736  11.037  29.637  11.593
88328W        W54737  24.565   7.831   3.531
88329W        W54738  42.950  27.647   2.255
88330W        W54739  39.980  32.103   1.221
88331W        W54740  29.622  29.924  10.961
88332W        W54741   7.472  20.186  14.010
88333W        W54742  32.006   0.251   5.223
88334W        W54743   9.691   3.366  11.627
88335W        W54744  33.014   1.749  10.422
88336W        W54745  23.622  14.263  12.679
88337W        W54746   7.841  16.966   1.466
88338W        W54747  18.088   3.917   4.005
88339W        W54748   9.701   3.714   2.381
88340W        W54749  28.362  26.222  11.130
88341W        W54750   4.265  12.363  10.570
88342W        W54751  36.346  11.826   4.861
88343W        W54752  27.946   8.186  14.600
88344W        W54753  44.451  16.539  10.581
88345W        W54754  24.109  10.606  14.274
88346W        W54755  12.133  21.551   4.318
88347W        W54756  14.275  10.313  11.549
88348W        W54757  17.703  10.916   2.630
88349W        W54758  35.094  39.084  11.589
88350W        W54759  38.547  36.497   2.382
88351W        W54760  24.272  18.848  12.004
88352W        W54761  10.227  10.936  13.987
88353W        W54762  28.488  40.426  14.510
88354W        W54763  41.567  31.320   2.810
88355W        W54764  14.306  34.952  12.105
88356W        W54765   6.541  26.150  10.269
88357W        W54766  44.552  28.140   4.590
88358W        W54767  22.676  13.010   0.048
88359W        W54768   8.635   0.561  10.350
88360W        W54769  20.259  31.004  11.503
88361W        W54770  42.253  12.861   0.514
88362W        W54771   0.803  21.144   0.412
88363W        W54772   1.718  36.787  12.747
88364W        W54773  23.911  16.380  12.029
88365W        W54774  34.907  42.825   3.159
88366W        W54775  13.509  13.227   4.633
88367W        W54776  15.657  22.079   4.357
88368W        W54777  36.779   1.851   1.452
88369W        W54778  32.208  11.254  13.361
88370W        W54779  19.570  27.106   4.907
88371W        W54780  32.168  14.732  14.304
88372W        W54781  28.257  30.240   4.366
88373W        W54782  41.690   8.698  10.334
88374W        W54783  30.919  34.259   3.755
88375W        W54784   2.072  12.888  13.413
88376W        W54785  43.374  43.690  13.541
88377W        W54786   0.469  30.948   2.800
88378W        W54787  11.611  40.380   1.376
88379W        W54788  37.205   7.690  14.823
88380W        W54789  38.843  24.480   1.307
88381W        W54790  29.966  14.959  10.696
88382W        W54791  25.211  13.785  12.437
88383W        W54792  29.479   7.187  14.775
88384W        W54793  27.382   1.430   0.218
88385W        W54794   9.563   9.828   1.593
88386W        W54795   0.032  16.549   2.960
88387W        W54796  24.664   6.866  13.932
88388W        W54797   5.412  38.981  13.051
88389W        W54798  22.683  35.307   0.586
88390W        W54799  17.237  44.236  14.399
88391W        W54800  29.012  28.044   3.865
88392W        W54801  35.912   0.669   1.769
88393W        W54802  35.069   8.271  13.250
88394W        W54803  23.048  25.802   2.436
88395W        W54804  13.636  32.666   2.762
88396W        W54805   6.188  29.724  14.021
88397W        W54806  26.195  28.087   2.465
88398W        W54807   8.177   2.619   4.579
88399W        W54808  38.839  23.084   0.390
88400W        W54809  12.035   2.598   2.671
88401W        W54810  32.096  23.145   1.782
88402W        W54811  43.230  11.926   0.262
88403W        W54812   0.455  20.469  13.771
88404W        W54813  13.696  38.325  11.142
88405W        W54814  34.588  41.441   0.955
88406W        W54815  38.301  43.342  13.465
88407W        W54816  28.594  19.803   4.894
88408W        W54817   8.576  13.246   3.718
88409W        W54818  21.890  25.051   0.570
88410W        W54819  23.209  21.715  13.854
88411W        W54820  19.789  43.755  12.667
88412W        W54821  32.006  14.613   4.332
88413W        W54822  13.790   7.981   0.476
88414W        W54823  16.012  44.767  12.428
88415W        W54824  18.817  31.348  11.538
88416W        W54825  30.988   4.610  11.378
88417W        W54826  41.439  28.276  11.899
88418W        W54827  23.530   9.931   3.280
88419W        W54828  22.177  16.114   0.341
88420W        W54829  38.789  13.594   1.931
88421W        W54830   9.633   2.389  13.416
88422W        W54831   9.773  42.365  11.438
88423W        W54832  38.989  38.890   1.294
88424W        W54833  11.789  19.730   4.322
88425W        W54834  44.535  10.299  11.547
88426W        W54835  39.467   8.398  10.584
88427W        W54836  22.030  27.206   4.440
88428W        W54837  41.321  13.879  13.316
88429W        W54838   9.739   7.091   1.684
88430W        W54839  13.545  13.660   3.166
88431W        W54840  10.662  17.837   0.086
88432W        W54841  44.279  33.510  13.537
88433W        W54842  30.390  18.065   1.352
88434W        W54843  29.792  19.883   1.477
88435W        W54844  36.374  22.011   0.276
88436W        W54845  18.124   2.869   1.741
88437W        W54846   8.596  17.075   3.667
88438W        W54847   4.681  13.430  12.535
88439W        W54848  25.643  42.822   1.817
88440W        W54849  18.127  34.366  13.430
88441W        W54850   4.303   2.537   1.783
88442W        W54851   3.994   3.894   3.709
88443W        W54852  16.250  32.691  14.472
88444W        W54853  35.358  29.071  13.386
88445W        W54854  12.883  22.621   1.828
88446W        W54855  36.605  16.010   0.760
88447W        W54856  22.634  21.493  12.410
88448W        W54857  21.718  37.870   2.846
88449W        W54858   1.223   0.827  13.753
88450W        W54859   1.633  14.618   2.223
88451W        W54860  27.074  22.927  14.285
88452W        W54861  18.663   9.898   0.343
88453W        W54862  18.325  19.284   0.364
88454W        W54863  28.718   6.735  11.754
88455W        W54864  31.044  27.427  12.634
88456W        W54865  30.745  43.844  13.391
88457W        W54866  22.271  34.939   0.477
88458W        W54867  44.416  14.652  12.359
88459W        W54868  17.269  38.522  10.247
88460W        W54869  18.751  34.456  12.379
88461W        W54870  13.831  23.554  13.847
88462W        W54871   1.314   6.692   4.069
88463W        W54872  25.314  11.395  11.479
88464W        W54873   1.994  21.966   3.857
88465W        W54874  18.675  36.259  12.868
88466W        W54875  17.706  24.711  14.079
88467W        W54876   5.677  37.373   2.113
88468W        W54877  29.078  12.872  11.861
88469W        W54878  21.947  26.050   3.660
88470W        W54879   6.416  12.504   3.209
88471W        W54880   3.557  17.327   0.907
88472W        W54881   7.745  32.192   3.231
88473W        W54882   5.335  13.687  13.608
88474W        W54883  28.947  44.398  11.672
88475W        W54884  24.489  31.907   0.649
88476W        W54885   9.083  15.634  11.536
88477W        W54886  38.767  37.507   4.039
88478W        W54887   3.505  16.936  13.358
88479W        W54888  11.891  21.663   2.383
88480W        W54889  12.456  19.093   3.887
88481W        W54890  24.600  38.577   0.781
88482W        W54891  30.151  12.893  11.682
88483W        W54892   4.453   4.012  11.634
88484W        W54893  25.168  16.832   4.737
88485W        W54894  31.615  17.065  10.481
88486W        W54895  12.493  25.204   3.611
88487W        W54896   1.314  15.546   3.741
88488W        W54897   2.161  22.223   2.830
88489W        W54898  30.061  20.235   0.924
88490W        W54899  35.696  31.990   4.381
88491W        W54900  10.407  23.619  10.236
88492W        W54901  14.174  31.557   4.062
88493W        W54902   9.380   2.993  12.457
88494W        W54903   2.709  24.404   0.584
88495W        W54904  16.233   9.447   2.239
88496W        W54905  10.531  14.345   1.656
88497W        W54906   6.860  34.008  13.206
88498W        W54907  29.541  20.104   3.612
88499W        W54908   0.221  31.580   3.398
88500W        W54909  20.496  35.525   2.483
88501W        W54910   5.697  28.738  13.460
88502W        W54911  19.775  12.178  11.185
88503W        W54912  27.987  31.366  10.903
88504W        W54913  16.833  26.364   0.864
88505W        W54914  12.225  43.793   0.427
88506W        W54915   6.600  14.915   2.186
88507W        W54916   4.168  23.478  14.310
88508W        W54917  12.319  22.213  10.814
88509W        W54918  21.351  16.594  14.896
88510W        W54919  22.385  30.437   4.112
88511W        W54920  44.013  19.040  14.653
88512W        W54921  23.193  44.967  11.071
88513W        W54922  22.411   9.968   0.122
88514W        W54923  29.055  38.592   0.885
88515W        W54924  32.428  40.024  10.653
88516W        W54925  42.823  13.161  14.409
88517W        W54926  12.794  33.220   2.713
88518W        W54927  15.653  32.374  12.878
88519W        W54928  38.322  19.799  10.644
88520W        W54929  28.289  26.385   1.308
88521W        W54930  13.614  29.591  10.502
88522W        W54931  38.414  32.784  12.870
88523W        W54932  32.516  17.087   4.470
88524W        W54933   3.738  40.510   4.816
88525W        W54934  13.378  33.448   1.945
88526W        W54935  18.278   9.826   4.847
88527W        W54936  10.462  28.938  11.884
88528W        W54937  32.420  10.730   4.201
88529W        W54938   0.860  36.376   4.210
88530W        W54939  18.642   3.910  12.136
88531W        W54940   9.698  44.973   2.850
88532W        W54941   2.382   3.851  14.052
88533W        W54942  13.554   9.342   4.205
88534W        W54943   3.859  41.139   0.705
88535W        W54944  23.988   8.424   0.747
88536W        W54945  25.118  31.521   1.371
88537W        W54946  36.528  13.286  11.964
88538W        W54947  26.864  43.039   1.299
88539W        W54948   4.719  16.990  11.053
88540W        W54949  17.131   2.016   0.695
88541W        W54950   8.610  17.070  12.835
88542W        W54951   6.869  28.177  10.534
88543W        W54952  23.769   0.061   3.126
88544W        W54953  38.228  36.600   0.745
88545W        W54954  10.370   6.001   0.710
88546W        W54955  27.734  27.271   0.814
88547W        W54956  36.557  14.679  14.519
88548W        W54957  34.114  23.838   0.705
88549W        W54958  10.607  41.348   4.161
88550W        W54959  18.255  40.055   2.644
88551W        W54960  39.972  35.041  14.877
88552W        W54961  32.164  25.538  13.303
88553W        W54962  12.081  31.434  14.353
88554W        W54963  37.276  32.193   3.831
88555W        W54964  36.014  18.660   1.403
88556W        W54965  37.362  37.400  12.160
88557W        W54966   1.745   2.355   2.083
88558W        W54967  33.689  37.864   2.679
88559W        W54968  13.149  33.162   3.329
88560W        W54969  36.055  38.606  12.970
88561W        W54970  10.094  34.711   5.098
88562W        W54971  42.735  27.694  12.362
88563W        W54972  15.807  22.982   3.302
88564W        W54973   4.868   6.134   4.592
88565W        W54974  42.334  19.600   1.329
88566W        W54975  24.580  42.843   0.554
88567W        W54976  16.608  24.975   2.862
88568W        W54977  33.459  41.279   3.347
88569W        W54978   0.245  15.165  14.798
88570W        W54979   1.738  21.772   0.749
88571W        W54980  10.239   9.005   4.480
88572W        W54981  38.361   4.433   2.395
88573W        W54982  23.427   3.595   0.938
88574W        W54983  39.623  29.728  12.560
88575W        W54984  24.535   1.418   0.654
88576W        W54985   0.385  28.051  10.686
88577W        W54986  28.017   1.924   4.435
88578W        W54987  19.017   8.292  11.876
88579W        W54988  20.336  43.020  12.918
88580W        W54989  14.802   4.891   4.199
88581W        W54990   6.395  31.424  10.777
88582W        W54991  31.718  12.122   0.899
88583W        W54992  16.364  40.255   4.001
88584W        W54993  24.436  10.869  10.820
88585W        W54994   0.007  32.465  12.144
88586W        W54995   1.771  28.576   0.424
88587W        W54996  35.770   2.721   0.911
88588W        W54997  13.646   1.792   0.988
88589W        W54998  12.779   1.780   1.248
88590W        W54999  39.271  16.870   0.005
88591W        W55000   0.813  29.990   2.762
88592W        W55001  19.585  17.688   4.635
88593W        W55002   4.634  38.781   0.939
88594W        W55003  38.721  11.773   2.732
88595W        W55004   6.866  39.744  12.918
88596W        W55005  30.348  39.771   3.555
88597W        W55006  40.863  31.870   0.701
88598W        W55007  44.997  40.045   3.797
88599W        W55008  43.158   6.758  14.917
88600W        W55009  26.427   1.029  14.371
88601W        W55010  41.267  38.531   0.779
88602W        W55011   2.807  36.434  12.499
88603W        W55012  38.424  27.483   0.212
88604W        W55013  11.949  20.035  10.952
88605W        W55014   2.172  26.125   0.145
88606W        W55015  32.531   3.726  13.847
88607W        W55016   0.894  44.875   4.797
88608W        W55017   8.291  18.043   0.339
88609W        W55018  26.128   3.746   1.659
88610W        W55019  28.862  23.593  14.791
88611W        W55020  24.528  44.989  10.774
88612W        W55021  40.100  24.944  14.681
88613W        W55022  32.924  11.857   2.362
88614W        W55023  20.625  42.877   0.035
88615W        W55024  44.119  32.701   1.303
88616W        W55025   8.664  32.971   0.900
88617W        W55026  25.075  12.781  14.395
88618W        W55027   7.778  18.671   1.305
88619W        W55028  21.669  17.261  11.458
88620W        W55029  44.167  12.168   0.364
88621W        W55030  20.012  33.088   1.293
88622W        W55031  21.711  31.726   2.256
88623W        W55032   3.364  38.923   4.970
88624W        W55033  25.038   9.798   2.265
88625W        W55034  14.202  25.796  14.804
88626W        W55035  18.805  41.546  11.174
88627W        W55036  25.239  33.438   0.077
88628W        W55037   6.932  11.132  11.435
88629W        W55038  39.955   0.266   4.704
88630W        W55039  29.064  17.139   4.698
88631W        W55040  15.337  12.476   1.739
88632W        W55041  18.622  41.213  14.924
88633W        W55042  13.792  24.360  14.757
88634W        W55043  12.404   3.975   1.750
88635W        W55044   1.062  13.450   1.947
88636W        W55045   7.303  24.785   0.865
88637W        W55046   7.686   2.011   4.182
88638W        W55047  42.380  33.978   1.501
88639W        W55048  42.168  32.495  12.306
88640W        W55049  12.283   6.908  11.059
88641W        W55050  16.624   8.431   3.209
88642W        W55051   6.137  15.171   2.359
88643W        W55052  32.038  28.471   3.610
88644W        W55053  28.431  39.328   1.716
88645W        W55054  17.357  16.087   4.586
88646W        W55055  17.737  19.618   2.401
88647W        W55056   5.015  44.243  10.274
88648W        W55057  14.910  19.492   1.383
88649W        W55058   7.274  23.416  11.542
88650W        W55059  29.950  15.307   0.392
88651W        W55060  41.097  39.610   1.490
88652W        W55061   6.168  35.731  11.110
88653W        W55062  16.039  33.556  12.013
88654W        W55063   1.364  39.954   2.215
88655W        W55064  27.578  18.286  14.330
88656W        W55065  10.843  33.826  13.318
88657W        W55066  35.105   0.840   0.430
88658W        W55067  15.710  16.583   2.839
88659W        W55068  40.742  44.424   3.284
88660W        W55069  22.055  14.119  11.913
88661W        W55070  40.495  21.798  12.341
88662W        W55071  38.568   3.242  14.351
88663W        W55072  20.048  38.578   4.196
88664W        W55073  20.527  26.684  13.913
88665W        W55074  41.985  44.438   0.343
88666W        W55075  33.587  18.188   5.103
88667W        W55076  37.864  11.768   2.385
88668W        W55077  28.741   7.009  12.863
88669W        W55078  33.957  12.186   1.387
88670W        W55079  23.837  26.102  11.000
88671W        W55080  14.615  16.811  14.505
88672W        W55081  26.839   4.802  12.678
88673W        W55082  13.332   1.459   2.788
88674W        W55083  40.790  26.885  11.924
88675W        W55084  25.672  27.542  13.637
88676W        W55085  13.757  25.186   0.417
88677W        W55086  21.653  11.777   2.323
88678W        W55087  29.550  29.080   4.143
88679W        W55088  31.042  12.241   4.491
88680W        W55089  39.353  36.357  10.758
88681W        W55090  25.894   0.921   0.798
88682W        W55091  24.473  41.954   1.636
88683W        W55092  11.683  26.570   3.221
88684W        W55093  38.738   0.542  14.260
88685W        W55094  14.305  42.989   3.110
88686W        W55095  44.244  15.416  14.366
88687W        W55096  41.259  11.577  11.557
88688W        W55097  25.523   9.632   2.269
88689W        W55098   6.203  13.778   1.454
88690W        W55099  17.133  10.188  10.580
88691W        W55100  10.245   1.782   2.793
88692W        W55101  30.668  22.276  13.510
88693W        W55102  28.264   4.808  14.823
88694W        W55103  15.896  13.221   3.736
88695W        W55104  13.599   1.736  14.292
88696W        W55105   1.993   4.271   2.118
88697W        W55106   6.998  22.994  11.683
88698W        W55107  35.052  16.212   3.060
88699W        W55108  36.600  13.582  12.752
88700W        W55109  10.754  31.175  14.034
88701W        W55110   1.393   2.941  11.589
88702W        W55111   0.899  35.580  13.863
88703W        W55112  23.702  17.904   3.082
88704W        W55113  29.992   4.565   0.284
88705W        W55114  15.795  25.983  11.660
88706W        W55115  25.605   8.134   2.719
88707W        W55116  33.235  37.716   2.858
88708W        W55117  40.254  27.387   0.786
88709W        W55118  12.702   2.485   2.794
88710W        W55119  35.359  26.134   4.572
88711W        W55120  42.347   9.421   1.661
88712W        W55121  25.178  15.761   1.740
88713W        W55122  25.516  15.178  11.644
88714W        W55123   8.861   8.105  12.082
88715W        W55124  28.675  10.950  11.507
88716W        W55125   0.685   8.023   3.102
88717W        W55126  34.512  37.659  13.084
88718W        W55127  19.690   8.114  11.544
88719W        W55128  43.332  19.582   4.066
88720W        W55129  36.664  43.249   3.664
88721W        W55130  18.462  28.401  11.002
88722W        W55131  42.894  29.511  10.789
88723W        W55132  29.266  14.211   4.970
88724W        W55133  29.408   0.778  12.872
88725W        W55134  31.467   3.340   1.876
88726W        W55135   5.898   2.621  11.842
88727W        W55136   4.780  18.189  13.088
88728W        W55137  19.003  38.784  11.472
88729W        W55138  20.212  42.873   2.173
88730W        W55139  42.901  37.536   3.964
88731W        W55140  25.503   4.602  14.929
88732W        W55141   9.832   9.732  11.420
88733W        W55142   7.166  23.058  13.829
88734W        W55143  22.618  28.543  10.708
88735W        W55144  31.604  29.701   0.511
88736W        W55145  25.982  21.186  14.785
88737W        W55146  30.641  29.399  12.016
88738W        W55147  44.899  42.559   1.187
88739W        W55148  42.032  38.826  14.102
88740W        W55149   6.331   8.709   1.854
88741W        W55150  41.411  14.356   4.108
88742W        W55151  12.320   3.301   0.541
88743W        W55152  19.244  12.346   1.387
88744W        W55153   0.695  35.592   2.176
88745W        W55154  42.450  30.952  13.994
88746W        W55155  23.618  16.805  12.090
88747W        W55156  37.272  38.593   4.684
88748W        W55157  43.320  16.048   3.679
88749W        W55158  22.551   4.698   5.341
88750W        W55159   8.243  17.312  13.841
88751W        W55160   5.703  36.861  13.506
88752W        W55161  18.581  28.998   1.198
88753W        W55162  16.327   6.385   0.363
88754W        W55163  24.103  31.133  14.015
88755W        W55164  11.138   8.728  12.057
88756W        W55165   4.506   4.798  13.705
88757W        W55166  33.599   7.716  14.403
88758W        W55167  23.694  13.885  14.902
88759W        W55168  21.956  43.823  14.369
88760W        W55169  38.976  38.305   4.662
88761W        W55170  28.471  26.106  14.479
88762W        W55171  13.788  26.484  13.576
88763W        W55172  37.482   5.157  14.305
88764W        W55173   9.410  30.437   5.003
88765W        W55174  43.466  43.497   4.792
88766W        W55175  16.235  36.873   2.248
88767W        W55176  34.140  29.298   1.402
88768W        W55177  35.441   4.032  11.235
88769W        W55178  18.189  17.154  11.741
88770W        W55179   3.629  44.963  12.919
88771W        W55180  17.327  43.375   1.383
88772W        W55181  33.465  23.351   1.890
88773W        W55182   2.289  32.758   1.159
88774W        W55183  20.726  34.969  11.550
88775W        W55184  39.344  40.781  11.119
88776W        W55185  13.735  25.752   0.468
88777W        W55186  36.124  22.934  10.585
88778W        W55187   3.004   6.316  14.940
88779W        W55188   5.198  21.007  14.841
88780W        W55189  30.367  14.807   0.537
88781W        W55190  10.834  43.487   0.826
88782W        W55191  37.018  24.573   3.137
88783W        W55192  10.761   2.026  13.420
88784W        W55193   7.082  23.915  12.377
88785W        W55194  42.432  30.124  14.783
88786W        W55195  17.364  39.610  11.492
88787W        W55196   5.501   4.218  14.733
88788W        W55197  40.261  42.673   0.953
88789W        W55198   4.812   5.738  11.607
88790W        W55199  20.706   5.698  10.391
88791W        W55200  41.246  20.660   1.230
88792W        W55201   0.376   2.605   4.118
88793W        W55202  28.547   1.192   2.782
88794W        W55203  23.417  44.361   2.450
88795W        W55204  23.821  43.759   3.186
88796W        W55205  20.608  13.330   3.548
88797W        W55206  35.082  29.354   2.360
88798W        W55207  37.859  42.469   2.521
88799W        W55208   4.781  24.506   3.903
88800W        W55209   1.331  18.108   4.631
88801W        W55210  24.599  15.587  12.637
88802W        W55211  20.530  28.478   1.166
88803W        W55212  16.411  29.577  13.683
88804W        W55213  12.298  31.442  13.873
88805W        W55214  26.127  18.760   2.578
88806W        W55215  34.553  17.195   3.100
88807W        W55216  21.960  20.405  12.929
88808W        W55217  40.279  19.803   4.353
88809W        W55218  43.715  38.776   0.401
88810W        W55219  40.438  36.964  10.623
88811W        W55220  40.426  18.779  11.667
88812W        W55221  38.992  13.997   1.213
88813W        W55222  23.632  44.734   2.762
88814W        W55223  23.574  29.836   2.694
88815W        W55224   4.506  15.198  12.347
88816W        W55225  14.529  10.562  14.798
88817W        W55226  25.010  43.422  14.994
88818W        W55227  38.402   6.311  14.773
88819W        W55228  26.944  38.544   2.236
88820W        W55229  42.828  24.665   4.218
88821W        W55230  36.371  34.064  13.247
88822W        W55231  19.589  29.268   4.864
88823W        W55232  26.023  20.123   4.770
88824W        W55233  32.595  18.065  14.615
88825W        W55234  29.954  21.203  14.402
88826W        W55235  17.770  23.925   0.549
88827W        W55236  30.616  26.171   4.536
88828W        W55237   7.414  10.205   0.941
88829W        W55238  40.670  10.449   4.252
88830W        W55239   6.678  15.389   1.982
88831W        W55240  15.851  11.136   1.188
88832W        W55241  22.196  39.360  14.968
88833W        W55242  24.150   8.561   9.872
88834W        W55243  41.809   8.339   0.926
88835W        W55244   8.675  28.129   3.166
88836W        W55245   6.279   4.902   1.552
88837W        W55246  27.531  12.901  11.131
88838W        W55247  40.614  18.957   1.262
88839W        W55248   0.886  43.457  12.231
88840W        W55249   7.461  26.727   3.698
88841W        W55250  31.083   6.021   3.328
88842W        W55251  14.681  38.550   0.329
88843W        W55252  26.564  16.005  12.967
88844W        W55253  40.518  43.912  11.565
88845W        W55254   2.674  39.148  13.238
88846W        W55255   5.248  30.546   0.424
88847W        W55256  36.880   8.213  14.040
88848W        W55257  27.658  34.762   4.653
88849W        W55258  27.419   0.391   4.138
88850W        W55259  35.822  44.404  13.561
88851W        W55260   8.170  15.056  12.545
88852W        W55261  31.671  39.317  11.926
88853W        W55262  42.388  37.348   9.958
88854W        W55263  32.424  43.044   4.557
88855W        W55264  42.111  21.310  10.696
88856W        W55265   7.639  22.515  12.914
88857W        W55266   0.814  25.544   1.742
88858W        W55267  35.924  25.471  14.411
88859W        W55268  28.468   4.346   1.742
88860W        W55269  15.861   8.251   2.952
88861W        W55270  42.769   5.268  13.637
88862W        W55271   2.622  38.311   0.457
88863W        W55272  17.290  26.442  12.653
88864W        W55273  35.514  18.147   2.571
88865W        W55274  35.427   8.651  11.134
88866W        W55275  32.032   8.775   3.296
88867W        W55276  10.184  18.014  14.912
88868W        W55277  26.362  20.632  14.031
88869W        W55278   8.687  17.201   1.659
88870W        W55279  33.826  16.210   2.169
88871W        W55280  11.927  35.851   1.287
88872W        W55281   3.714  27.823   3.242
88873W        W55282  21.665   2.288   5.047
88874W        W55283  21.513  35.536   4.642
88875W        W55284  34.703  31.196  13.381
88876W        W55285  36.811  18.740   2.784
88877W        W55286  30.866  38.623  14.877
88878W        W55287   0.632  44.852  11.092
88879W        W55288  30.462  28.731  14.380
88880W        W55289  20.682  12.376  14.027
88881W        W55290   6.370  15.068  12.064
88882W        W55291  31.028  19.156  11.315
88883W        W55292   8.870  43.218  14.899
88884W        W55293  22.256   2.230  10.674
88885W        W55294  42.715  38.986   2.530
88886W        W55295  37.345  42.450   3.281
88887W        W55296  38.924  17.552  14.795
88888W        W55297  30.411  17.425  14.768
88889W        W55298  38.082   0.367   4.062
88890W        W55299  17.557  16.243  11.583
88891W        W55300  30.175  13.240   0.051
88892W        W55301  28.455  18.893  12.352
88893W        W55302  37.491  11.078   4.122
88894W        W55303  19.649  20.650   4.882
88895W        W55304  32.052   3.979   2.702
88896W        W55305  26.714  21.188  11.236
88897W        W55306  32.705   2.267   0.451
88898W        W55307   0.305  20.667   1.838
88899W        W55308  18.245  16.749   1.778
88900W        W55309  37.920  42.576  10.737
88901W        W55310   5.713  18.948  14.326
88902W        W55311  40.397  16.273   4.017
88903W        W55312   2.069  42.300  12.391
88904W        W55313  29.962   8.954  11.695
88905W        W55314  19.709  18.399   1.789
88906W        W55315   7.473  36.445   0.786
88907W        W55316   6.807  39.750   1.707
88908W        W55317   4.774  14.788  13.978
88909W        W55318   3.859  23.009  13.419
88910W        W55319   3.800   2.781   4.508
88911W        W55320  44.495   2.688  12.357
88912W        W55321  24.634   9.931  13.631
88913W        W55322  25.618   2.016   2.312
88914W        W55323  20.239  13.172  11.945
88915W        W55324  31.589   7.353   1.347
88916W        W55325  29.971   3.021   3.633
88917W        W55326  44.400  35.707  14.407
88918W        W55327  37.307  38.052  14.006
88919W        W55328  43.243   2.734   3.874
88920W        W55329  12.901   5.238   2.960
88921W        W55330  25.983  31.129  11.161
88922W        W55331  29.983   2.502  11.536
88923W        W55332   9.750  41.318  12.836
88924W        W55333   1.994  31.875  10.472
88925W        W55334  39.984  24.978   1.660
88926W        W55335  10.901  33.457  11.735
88927W        W55336  41.880   1.962   3.308
88928W        W55337   8.221  32.127   2.394
88929W        W55338  20.580  23.214  14.373
88930W        W55339  38.915  32.059  11.586
88931W        W55340   3.773  43.287   1.491
88932W        W55341  44.028  12.422   5.075
88933W        W55342  43.844  25.270  11.507
88934W        W55343  32.651  20.411   4.131
88935W        W55344   7.601   9.269   3.271
88936W        W55345   8.115   8.626   2.357
88937W        W55346   5.476  22.747  11.906
88938W        W55347  30.763   8.243   4.665
88939W        W55348  40.147  22.193  11.151
88940W        W55349  16.076  21.597  13.507
88941W        W55350  24.004  34.086  14.408
88942W        W55351  31.394  14.364   0.820
88943W        W55352  26.001  28.906   1.407
88944W        W55353  42.964  28.600   1.546
88945W        W55354  15.707  34.874  11.535
88946W        W55355  16.345  44.527   1.041
88947W        W55356  39.824  34.632   1.240
88948W        W55357  28.894  26.710  10.419
88949W        W55358  14.361  30.870   4.125
88950W        W55359  13.852   5.144   2.712
88951W        W55360  43.367   1.203   0.912
88952W        W55361  26.348   5.446  11.973
88953W        W55362   1.279  32.174  13.481
88954W        W55363  20.643  42.692   4.716
88955W        W55364   9.813  10.383  12.025
88956W        W55365  10.601  20.371  12.022
88957W        W55366   2.200  44.338  10.387
88958W        W55367  36.976   6.429   1.229
88959W        W55368  19.690  37.659   2.849
88960W        W55369  40.222  44.512  13.566
88961W        W55370  43.380   5.912  11.534
88962W        W55371  21.400  33.205  10.245
88963W        W55372   7.256  38.477  13.386
88964W        W55373  28.188  34.522  14.658
88965W        W55374  10.852  17.323  13.857
88966W        W55375  29.508  38.953  13.037
88967W        W55376   4.412   2.440  13.319
88968W        W55377  18.054  41.446   2.020
88969W        W55378  43.616  19.993   4.260
88970W        W55379  19.048   9.148  13.363
88971W        W55380   5.232   0.870   3.108
88972W        W55381  39.026  43.219   4.191
88973W        W55382   0.241  18.761  10.804
88974W        W55383  36.430  15.910  13.139
88975W        W55384  22.063  29.348  10.501
88976W        W55385   8.816  23.709  12.449
88977W        W55386  42.296  35.344   1.679
88978W        W55387  28.279  25.074   0.373
88979W        W55388  36.577  12.632   4.646
88980W        W55389  17.715   2.164   3.903
88981W        W55390  37.012  27.698  12.976
88982W        W55391  43.661  11.380  10.186
88983W        W55392  26.501  42.438   3.218
88984W        W55393   2.452  23.290   2.779
88985W        W55394  35.377  17.044   1.867
88986W        W55395  39.798  36.381  12.431
88987W        W55396  42.669  16.875   4.465
88988W        W55397   5.713   7.449  11.161
88989W        W55398  25.072   2.826   1.657
88990W        W55399  27.078  32.733  11.052
88991W        W55400  11.970  42.551  13.361
88992W        W55401  31.384  36.957  14.474
88993W        W55402  35.189  26.638  14.493
88994W        W55403  33.890  43.700   3.653
88995W        W55404  36.791   6.100   3.224
88996W        W55405  36.559  34.803   3.986
88997W        W55406  27.117  34.098   1.248
88998W        W55407  33.484  35.289  11.267
88999W        W55408  31.872  37.146   3.718
89000W        W55409  32.441  16.323  12.473
89001W        W55410   0.341   7.094  14.098
89002W        W55411   6.769  11.569   3.704
89003W        W55412  40.594   8.354   0.347
89004W        W55413  13.647  36.183  11.942
89005W        W55414  19.629  25.675   2.304
89006W        W55415  30.763   4.869   0.034
89007W        W55416   2.438   6.368  13.388
89008W        W55417  44.576  38.572   2.783
89009W        W55418  12.275  36.843  14.204
89010W        W55419  18.261  24.824  12.904
89011W        W55420  22.589  40.858   1.930
89012W        W55421  29.861   7.495  14.984
89013W        W55422  20.349  37.371  12.087
89014W        W55423  33.992  11.284  14.984
89015W        W55424  26.200  35.811   3.379
89016W        W55425  36.870  37.871   4.268
89017W        W55426  29.921  27.237  14.470
89018W        W55427   8.706  20.048  11.100
89019W        W55428  10.914  22.649  12.725
89020W        W55429   4.884  13.226   0.377
89021W        W55430  13.960  12.134  11.457
89022W        W55431  36.493  39.133  14.860
89023W        W55432  21.173  14.158   2.081
89024W        W55433   6.284   7.804   4.767
89025W        W55434   4.834   1.766   2.597
89026W        W55435  44.028  40.074  13.470
89027W        W55436  34.326  21.784  14.956
89028W        W55437   7.323   8.801   4.628
89029W        W55438   8.103  16.857  13.020
89030W        W55439  40.453  35.877   0.110
89031W        W55440  36.885  11.798   0.458
89032W        W55441   6.448  33.290   3.129
89033W        W55442   1.548   9.164   0.407
89034W        W55443  25.852  13.943  14.413
89035W        W55444  34.193  34.180  13.698
89036W        W55445   1.807   9.753   1.932
89037W        W55446  28.308  34.013  13.597
89038W        W55447  25.599  23.833   4.794
89039W        W55448  16.150  33.922  14.852
89040W        W55449  30.474  26.420  13.423
89041W        W55450   8.721  43.858  14.116
89042W        W55451  11.851   3.284   3.811
89043W        W55452  29.614  40.429  12.497
89044W        W55453  30.751  12.971  13.440
89045W        W55454   3.513  29.120  10.571
89046W        W55455   2.458  18.355   1.770
89047W        W55456  27.181  25.409   1.330
89048W        W55457  25.568  13.418  11.640
89049W        W55458   5.227  13.954  14.979
89050W        W55459  20.871  10.925   2.929
89051W        W55460   2.982  29.342  12.203
89052W        W55461  20.032  30.200   4.332
89053W        W55462  38.602  38.346   3.205
89054W        W55463  17.592   9.329   4.829
89055W        W55464  35.556   7.120  13.753
89056W        W55465  36.882  44.186   4.495
89057W        W55466  37.723  27.223  14.450
89058W        W55467  25.243  32.949  13.111
89059W        W55468  26.557  13.405  14.039
89060W        W55469  39.592  26.464  14.368
89061W        W55470  41.609  10.913  13.348
89062W        W55471  34.927  21.084   2.475
89063W        W55472  14.713  24.636  14.314
89064W        W55473  28.210  24.389   1.384
89065W        W55474  11.229  13.730   2.246
89066W        W55475  21.159  39.068  10.094
89067W        W55476   2.497  14.294   4.405
89068W        W55477  43.848  29.111   0.442
89069W        W55478   6.898  37.519   0.083
89070W        W55479  27.088  18.611  14.923
89071W        W55480  10.778  35.019   5.381
89072W        W55481  37.814  27.706   2.031
89073W        W55482  27.484  15.203   4.279
89074W        W55483  29.134  41.077  14.061
89075W        W55484  26.993  36.655   4.765
89076W        W55485  16.698   6.695  11.089
89077W        W55486   3.399  28.725   2.366
89078W        W55487  28.125  18.075  12.498
89079W        W55488   9.871  32.117   4.108
89080W        W55489  20.018  29.027  11.658
89081W        W55490  40.477  42.772  11.611
89082W        W55491  36.649  41.316   3.077
89083W        W55492   6.114   1.336  10.799
89084W        W55493   7.915   6.144   4.590
89085W        W55494   0.930  22.224   0.647
89086W        W55495  23.876   6.403  13.744
89087W        W55496  17.124  23.220  14.690
89088W        W55497  16.713  12.899   3.599
89089W        W55498   9.020  23.930   0.988
89090W        W55499  36.465  34.514   4.842
89091W        W55500   4.647  27.700  10.824
89092W        W55501  35.027   5.208   4.487
89093W        W55502  44.292  36.233   2.900
89094W        W55503  23.838  29.386   1.393
89095W        W55504  15.199  39.943  11.581
89096W        W55505  22.168  31.490  14.318
89097W        W55506  34.279  43.344  14.373
89098W        W55507  43.388  38.782   1.253
89099W        W55508  29.652  32.468   0.627
89100W        W55509  42.982  43.678  11.111
89101W        W55510  33.129  12.333   0.667
89102W        W55511  25.204  36.555   1.455
89103W        W55512  44.880  41.945   1.864
89104W        W55513   5.768  44.074   3.618
89105W        W55514  12.037  41.543   0.913
89106W        W55515  16.895  37.300   0.383
89107W        W55516  21.078   3.429   3.191
89108W        W55517  10.251  24.086  14.309
89109W        W55518   7.305  13.144  14.026
89110W        W55519   1.775   1.347  13.404
89111W        W55520   4.406  35.744  13.360
89112W        W55521  11.007  31.808   3.291
89113W        W55522  27.008  37.034   2.437
89114W        W55523  40.600  18.312   5.556
89115W        W55524  29.163  23.495   1.117
89116W        W55525  15.508  21.290   4.370
89117W        W55526  22.492  26.698   0.424
89118W        W55527  33.570  36.304   1.301
89119W        W55528  44.339  21.286   1.222
89120W        W55529  34.312  38.577  13.344
89121W        W55530  14.301  21.181  12.539
89122W        W55531  13.611  10.876   2.608
89123W        W55532  14.700  41.025   3.219
89124W        W55533  22.003   3.435  13.911
89125W        W55534  29.009  15.062   2.946
89126W        W55535  39.093  20.065   2.828
89127W        W55536  35.158   4.613   1.659
89128W        W55537  16.734   4.129   3.672
89129W        W55538   5.354  32.087  14.232
89130W        W55539  41.020  44.408  10.305
89131W        W55540  32.302  39.990   4.372
89132W        W55541  26.232  27.640  11.502
89133W        W55542  40.437  31.556  10.776
89134W        W55543  14.159  38.302  13.371
89135W        W55544  27.523  26.104   1.310
89136W        W55545  14.010  37.472  13.457
89137W        W55546  40.907   2.811  13.205
89138W        W55547  10.611  17.996   0.722
89139W        W55548  22.827  37.137  12.968
89140W        W55549  35.751  12.947   4.569
89141W        W55550  30.796   0.111  13.926
89142W        W55551  11.924   2.517  13.095
89143W        W55552  12.240  40.120  11.061
89144W        W55553  24.418  40.276  11.617
89145W        W55554  27.658   9.634  14.049
89146W        W55555  25.018  32.940  10.719
89147W        W55556  34.028  43.314  12.619
89148W        W55557  22.490  16.266   3.064
89149W        W55558  10.393  28.061  14.067
89150W        W55559   8.835   8.006  14.597
89151W        W55560  37.545  30.790   3.574
89152W        W55561  34.957  13.296  13.220
89153W        W55562  11.089   8.211  12.901
89154W        W55563  20.811   8.044  14.997
89155W        W55564  39.985  25.584  11.577
89156W        W55565  21.372  24.159  12.527
89157W        W55566  26.883   2.799  12.038
89158W        W55567  27.653   0.369  14.444
89159W        W55568  32.838  19.659  14.793
89160W        W55569  15.310   4.903   2.750
89161W        W55570  17.481  11.392   2.468
89162W        W55571  28.661  27.253   3.601
89163W        W55572  11.121  22.129  13.436
89164W        W55573  14.517  39.961  10.732
89165W        W55574  17.188   0.102  10.505
89166W        W55575   0.241  16.381   3.689
89167W        W55576  25.562  38.998   1.206
89168W        W55577  30.939  42.762   0.780
89169W        W55578  12.775   9.067  12.533
89170W        W55579  33.188  42.407   2.258
89171W        W55580  15.557  31.787  14.791
89172W        W55581  11.639  23.438   2.719
89173W        W55582  10.645   0.871  12.915
89174W        W55583  41.368  30.107  11.704
89175W        W55584  38.547  35.106  11.585
89176W        W55585  16.862  35.032  10.262
89177W        W55586  26.799  17.728   2.439
89178W        W55587  18.267  34.293  11.474
89179W        W55588  30.665  23.235   0.993
89180W        W55589  32.604   3.720   0.047
89181W        W55590  36.010  44.446  13.091
89182W        W55591  21.143  14.406   2.569
89183W        W55592  32.236  14.124   4.350
89184W        W55593  26.920   4.518  13.910
89185W        W55594  31.366  15.260  13.188
89186W        W55595  29.863  40.610   2.344
89187W        W55596  22.484  13.195  12.764
89188W        W55597  17.350   0.595  10.470
89189W        W55598  44.282  16.099   3.561
89190W        W55599  44.579  38.273  12.044
89191W        W55600  19.985  28.624  11.956
89192W        W55601   9.455  14.890   1.633
89193W        W55602  38.554  11.149   2.779
89194W        W55603  17.110  21.944   4.238
89195W        W55604  36.016  32.517   1.276
89196W        W55605   0.046  40.218  11.525
89197W        W55606  24.452  10.396  10.634
89198W        W55607   0.479   9.492   5.271
89199W        W55608  35.603  35.686   1.859
89200W        W55609  43.280  14.101   1.412
89201W        W55610   2.227  13.274   3.706
89202W        W55611  28.906  33.932  10.565
89203W        W55612   5.197  40.304   1.222
89204W        W55613  31.373  34.570  14.409
89205W        W55614  44.163  22.221  14.470
89206W        W55615  31.879  11.242   2.450
89207W        W55616  21.742  19.594  13.437
89208W        W55617   1.775  34.730   1.344
89209W        W55618  39.845  37.377   0.927
89210W        W55619  26.674   2.119  10.224
89211W        W55620   5.868   7.198   0.499
89212W        W55621  16.762   2.310  13.376
89213W        W55622  10.162  38.823   3.195
89214W        W55623  38.908  29.187   1.003
89215W        W55624  32.736  31.877   1.465
89216W        W55625  42.371   1.777   3.249
89217W        W55626  35.196  38.224   1.447
89218W        W55627  29.967  28.157   2.372
89219W        W55628  11.512   1.906  11.645
89220W        W55629   8.738   9.647  11.920
89221W        W55630   2.603  39.272   4.283
89222W        W55631  25.547  15.055   3.144
89223W        W55632  15.210  22.617   3.706
89224W        W55633   6.432   5.879   3.715
89225W        W55634  12.315   1.911   1.494
89226W        W55635  32.581  36.343   3.735
89227W        W55636  10.555   5.414  12.075
89228W        W55637  16.218  23.641   0.236
89229W        W55638   2.655   5.361  14.811
89230W        W55639  15.274  13.062  12.377
89231W        W55640  26.048   5.081   3.932
89232W        W55641   6.610   7.152   2.805
89233W        W55642  11.172  14.772  14.882
89234W        W55643  33.065  36.509  13.972
89235W        W55644   2.450  42.013  14.520
89236W        W55645  12.364  17.288   3.709
89237W        W55646  30.017   3.862   1.707
89238W        W55647  35.015  10.174   0.200
89239W        W55648  18.530  38.601  13.041
89240W        W55649   2.665  15.026   0.716
89241W        W55650  29.816   2.516   3.078
89242W        W55651  43.785  11.474  13.331
89243W        W55652   3.724  22.586  12.332
89244W        W55653  34.574  20.629   3.267
89245W        W55654   7.935  18.642  11.708
89246W        W55655  10.624  29.119   0.934
89247W        W55656  36.154  24.659  14.238
89248W        W55657  17.848  28.902  12.883
89249W        W55658   7.946  43.981  12.212
89250W        W55659  21.706  22.183   0.500
89251W        W55660  27.839  36.114  13.668
89252W        W55661  12.169  44.723  14.936
89253W        W55662  23.502   6.653  14.401
89254W        W55663  11.524  42.770   4.620
89255W        W55664  31.852  40.914   3.346
89256W        W55665  19.149   0.638  13.326
89257W        W55666  14.235  16.209  10.566
89258W        W55667  18.659  30.626  13.428
89259W        W55668  16.513  15.062   4.122
89260W        W55669  23.541  17.090  13.186
89261W        W55670  13.154   7.274   1.456
89262W        W55671  43.223   0.005   2.251
89263W        W55672   0.820  26.824  10.668
89264W        W55673  33.370  24.571   3.799
89265W        W55674  42.311   0.354   1.228
89266W        W55675  39.206  42.409   3.316
89267W        W55676  44.941  42.578  12.852
89268W        W55677  16.848  10.813  11.138
89269W        W55678  36.021  44.910   4.585
89270W        W55679   2.878  21.375  14.276
89271W        W55680  32.846  24.151  11.673
89272W        W55681  17.793  18.260   0.862
89273W        W55682  35.933  44.711   3.596
89274W        W55683  42.428   8.898   2.366
89275W        W55684  19.228   8.577   1.270
89276W        W55685   5.908  20.674   4.857
89277W        W55686  42.842  40.750   0.823
89278W        W55687  30.563  39.749   2.878
89279W        W55688  33.006   2.521  11.452
89280W        W55689   9.703  11.235   3.812
89281W        W55690  43.283  12.786  11.833
89282W        W55691  41.679  30.951  14.159
89283W        W55692  34.942  17.343  13.342
89284W        W55693  43.698   1.007  14.821
89285W        W55694  44.376  37.612  11.437
89286W        W55695  14.073  10.655   2.682
89287W        W55696  36.269  16.759  12.021
89288W        W55697  22.792  20.903  13.009
89289W        W55698   2.277   3.990  14.974
89290W        W55699  42.344   9.901   0.274
89291W        W55700   2.896  15.557  13.977
89292W        W55701  16.308   3.358  10.621
89293W        W55702  18.228  35.602  11.998
89294W        W55703  17.152  11.263   1.298
89295W        W55704  34.642  27.391   4.009
89296W        W55705  31.092   0.477   1.674
89297W        W55706  32.883   0.080   4.167
89298W        W55707  12.161  22.321   4.863
89299W        W55708   6.832  35.168   1.298
89300W        W55709  33.607   8.672  14.427
89301W        W55710   7.483   7.761  12.161
89302W        W55711  11.233  14.297  14.032
89303W        W55712  41.008  21.229   2.667
89304W        W55713  26.589  34.384  10.385
89305W        W55714  23.409  31.587  13.075
89306W        W55715  28.452  27.161   4.602
89307W        W55716   5.557  36.387   4.169
89308W        W55717  30.208  44.868   0.541
89309W        W55718  22.714  23.183  11.463
89310W        W55719  33.104  28.097   2.331
89311W        W55720  21.593  10.726   0.701
89312W        W55721  11.311  12.175  11.161
89313W        W55722  41.478   5.698  14.852
89314W        W55723  23.825  41.378   0.217
89315W        W55724  29.189  25.917  13.846
89316W        W55725  38.417   2.787  14.622
89317W        W55726  31.302  32.877   0.948
89318W        W55727  14.154  38.296   2.225
89319W        W55728  20.378   6.709  14.709
89320W        W55729  16.626  31.574   1.663
89321W        W55730  40.939  31.384  11.243
89322W        W55731  10.532  24.430  13.114
89323W        W55732   5.884  41.940   2.552
89324W        W55733   3.166  11.330   3.326
89325W        W55734  26.680  17.065  11.361
89326W        W55735  16.888  42.413  13.559
89327W        W55736   1.207  40.941   0.589
89328W        W55737  35.990  10.815   4.107
89329W        W55738  28.577  18.321  10.766
89330W        W55739  15.331  32.087   2.783
89331W        W55740  25.286  19.188  12.981
89332W        W55741  32.117   5.300   5.039
89333W        W55742  17.998  10.510   1.463
89334W        W55743  30.574   7.132   1.819
89335W        W55744  15.727  17.122  14.856
89336W        W55745   6.439  43.023  11.064
89337W        W55746  37.349  28.029   3.951
89338W        W55747  29.368  22.216  14.839
89339W        W55748  31.879  30.462  12.599
89340W        W55749  44.708  14.230  14.954
89341W        W55750   6.977  22.652  12.262
89342W        W55751  27.917  30.984  13.573
89343W        W55752   6.862  41.690   1.829
89344W        W55753   9.211  28.762  11.326
89345W        W55754  17.121   0.921   0.725
89346W        W55755  35.626  12.816  14.015
89347W        W55756  10.211  11.358   3.604
89348W        W55757   4.878   5.878  13.540
89349W        W55758  25.744  44.756  13.337
89350W        W55759  26.730  11.875   4.479
89351W        W55760   1.894   3.350  14.963
89352W        W55761   7.296   3.945   4.851
89353W        W55762  30.143  25.703   0.406
89354W        W55763  16.316  39.051  12.994
89355W        W55764   5.938  44.241   0.353
89356W        W55765  10.459  33.697  12.052
89357W        W55766  43.237  38.930  10.559
89358W        W55767  23.517  38.349   4.266
89359W        W55768  33.647  12.425  10.751
89360W        W55769  31.143  33.451   2.633
89361W        W55770  16.306  40.850   5.046
89362W        W55771  26.708  10.400   4.173
89363W        W55772  13.842  15.086  14.765
89364W        W55773  18.234  26.069  11.274
89365W        W55774   5.216   8.858   1.847
89366W        W55775  20.098  33.900  12.107
89367W        W55776   0.324  20.141   1.017
89368W        W55777  44.559   9.886  11.200
89369W        W55778  41.255   2.728  11.177
89370W        W55779  39.528  29.525  11.520
89371W        W55780  18.616  44.986  11.554
89372W        W55781  27.049  22.994   2.724
89373W        W55782  21.122  35.154  12.578
89374W        W55783  17.409  27.924   4.094
89375W        W55784  38.705  33.253   0.846
89376W        W55785  35.504   0.952   3.338
89377W        W55786  38.848  44.918  12.522
89378W        W55787  15.156  12.824   3.662
89379W        W55788   1.818  40.285  13.526
89380W        W55789  31.387  24.195   4.661
89381W        W55790   1.214  15.419   3.263
89382W        W55791   5.899  32.978  14.761
89383W        W55792  41.041  31.994  13.482
89384W        W55793  24.462  24.740  13.318
89385W        W55794   8.738  17.103  13.823
89386W        W55795  35.034  33.859  12.159
89387W        W55796   9.278  42.218  11.652
89388W        W55797  23.251  28.525   1.263
89389W        W55798   9.721  22.542   2.480
89390W        W55799  24.627  12.530   1.804
89391W        W55800  21.745  10.717   2.350
89392W        W55801  24.332  33.101   0.834
89393W        W55802  17.247  13.681  10.428
89394W        W55803  20.463   6.382   4.218
89395W        W55804  20.146   2.015   1.823
89396W        W55805  10.899  13.417   3.522
89397W        W55806  30.138  16.120  14.734
89398W        W55807  18.839  27.575   2.330
89399W        W55808  34.619   5.826   3.079
89400W        W55809  18.244  34.036   0.060
89401W        W55810   9.374  21.808  11.299
89402W        W55811   7.274  12.410   3.600
89403W        W55812  25.225  17.670   1.652
89404W        W55813  29.375  29.633   0.299
89405W        W55814  37.433  27.366  12.979
89406W        W55815  27.633  32.534   0.738
89407W        W55816   9.905  24.888  11.994
89408W        W55817  15.098  20.021  14.072
89409W        W55818  31.358   4.076   3.207
89410W        W55819  19.893  18.188   3.788
89411W        W55820  10.548  35.446   1.198
89412W        W55821  28.243   5.964   3.098
89413W        W55822  31.577  30.924  12.346
89414W        W55823  25.608  36.965  12.028
89415W        W55824  23.327   5.633  11.975
89416W        W55825  31.757  26.310   1.875
89417W        W55826  11.375  34.067   2.434
89418W        W55827  32.366  44.540   1.305
89419W        W55828  30.012  24.944   1.358
89420W        W55829  41.439   5.870  10.911
89421W        W55830   1.923  17.692  11.661
89422W        W55831   1.307  10.050   1.443
89423W        W55832   0.950   4.755  12.897
89424W        W55833  10.852   6.664   1.433
89425W        W55834  21.022  43.200   2.301
89426W        W55835   7.127  18.651  13.372
89427W        W55836  14.308   2.251  12.366
89428W        W55837  39.227  40.981  14.182
89429W        W55838  35.980  22.051  11.174
89430W        W55839  20.802   3.283  14.531
89431W        W55840  31.979  33.662   3.660
89432W        W55841  10.672  40.935  11.202
89433W        W55842  36.082  14.368   2.782
89434W        W55843  26.121  43.225   1.298
89435W        W55844  44.441  16.845   0.784
89436W        W55845  26.895   6.310   3.189
89437W        W55846  13.768  28.478   1.611
89438W        W55847   7.305   8.571   0.046
89439W        W55848   6.872  42.753  10.952
89440W        W55849  41.935   2.800   1.764
89441W        W55850  38.733  33.024  10.704
89442W        W55851  33.571  11.053  10.121
89443W        W55852   4.132  16.102   2.784
89444W        W55853  29.597   0.133  10.462
89445W        W55854  32.941   4.099   4.963
89446W        W55855   6.893  30.678   0.699
89447W        W55856  41.989  37.067   1.514
89448W        W55857  17.549  14.512   1.863
89449W        W55858  19.738  10.024  10.268
89450W        W55859  16.877  39.533  14.515
89451W        W55860   6.673  16.182   1.043
89452W        W55861  33.600  41.384  12.096
89453W        W55862  29.407  33.973  10.457
89454W        W55863   1.668  32.072   2.725
89455W        W55864   0.785  20.783  12.501
89456W        W55865  16.789  10.598  10.687
89457W        W55866  18.115  27.484  11.610
89458W        W55867  24.758  31.838   2.410
89459W        W55868  25.187  40.853  11.962
89460W        W55869   8.715  30.293   0.929
89461W        W55870   7.672   3.929  12.079
89462W        W55871  19.994  34.936  14.019
89463W        W55872   1.460  42.289   1.162
89464W        W55873  15.020  22.114  12.441
89465W        W55874  28.650  16.208   3.783
89466W        W55875  24.469  32.625  12.041
89467W        W55876  26.649  11.298  14.431
89468W        W55877  13.565  14.271   2.744
89469W        W55878   4.186  30.033  10.760
89470W        W55879  10.274  37.350   2.571
89471W        W55880   3.799  26.067   0.027
89472W        W55881  26.101  22.670   2.215
89473W        W55882  14.843   6.326   1.271
89474W        W55883  30.514   8.612   3.759
89475W        W55884  24.544  15.792  11.629
89476W        W55885  14.956  25.599   0.490
89477W        W55886  40.321   3.715  14.384
89478W        W55887   8.722   1.856  11.140
89479W        W55888  21.674   3.854  10.833
89480W        W55889   0.534   4.176   1.334
89481W        W55890   3.362  27.991   1.844
89482W        W55891   7.192   0.384   4.304
89483W        W55892  32.607  28.063   2.115
89484W        W55893  20.159   3.751   2.199
89485W        W55894   4.485  23.454   1.339
89486W        W55895   6.964  39.029   1.054
89487W        W55896  42.361   2.524   2.837
89488W        W55897  29.661  28.063  11.180
89489W        W55898  40.238   9.439  10.835
89490W        W55899  14.113  12.232   4.184
89491W        W55900  14.317  17.070  13.190
89492W        W55901  13.276   5.164  11.590
89493W        W55902  36.651   6.309   2.735
89494W        W55903   2.874  22.783   2.144
89495W        W55904  11.762  18.259   4.507
89496W        W55905   9.230  16.781  13.869
89497W        W55906   3.299   3.489  11.388
89498W        W55907  28.035  31.111  12.692
89499W        W55908   0.932   3.344  14.866
89500W        W55909  28.981  40.342  10.703
89501W        W55910  43.381   0.661  12.111
89502W        W55911  14.493  28.848   3.280
89503W        W55912   5.879   8.443   4.099
89504W        W55913  30.180  13.161  12.690
89505W        W55914   4.419   0.979   3.619
89506W        W55915  27.074  29.438   3.693
89507W        W55916   9.127  20.425   4.632
89508W        W55917   6.173  10.737  13.579
89509W        W55918   7.373  36.620  12.006
89510W        W55919  18.620   4.804   1.358
89511W        W55920  25.760  36.609   1.768
89512W        W55921  27.712  22.011   3.297
89513W        W55922  44.832  43.708   2.175
89514W        W55923   3.262   9.119   1.773
89515W        W55924  21.305  25.549  12.511
89516W        W55925  21.826  15.662   3.748
89517W        W55926   9.446  21.733   2.318
89518W        W55927  44.271  39.354   4.159
89519W        W55928  11.085   4.143   3.759
89520W        W55929  20.985  21.568  14.356
89521W        W55930   1.357  39.507   4.424
89522W        W55931  17.318  31.929  14.968
89523W        W55932   1.875   3.546  12.073
89524W        W55933  25.918   0.376  12.536
89525W        W55934  37.919  31.700  14.889
89526W        W55935  14.591  43.123  14.960
89527W        W55936  26.228  29.896  13.974
89528W        W55937   5.669  11.622  13.601
89529W        W55938  29.017  24.601   3.288
89530W        W55939   4.440  11.824  10.466
89531W        W55940  24.424  23.356   2.887
89532W        W55941  36.868  44.850   0.884
89533W        W55942  21.025  22.660   3.158
89534W        W55943  33.373  19.647  13.389
89535W        W55944  31.122   1.460  12.795
89536W        W55945  12.579  37.867  12.298
89537W        W55946  20.281  21.621  10.647
89538W        W55947  29.012  37.436  12.397
89539W        W55948   4.949  42.893   0.161
89540W        W55949  34.559  31.388   3.767
89541W        W55950  15.555  40.600   2.816
89542W        W55951  43.362  28.519  10.754
89543W        W55952  13.846  32.123   3.630
89544W        W55953  12.574  37.875  10.336
89545W        W55954  31.628   8.310  11.134
89546W        W55955  20.264   3.478  12.997
89547W        W55956  39.579  12.805   3.257
89548W        W55957  20.626   0.050  12.970
89549W        W55958  34.516  16.326   0.232
89550W        W55959  16.318  27.048   4.227
89551W        W55960  23.254  41.837  13.454
89552W        W55961  21.192  18.413   3.265
89553W        W55962  31.005  40.371   4.792
89554W        W55963   2.242  29.548  13.885
89555W        W55964  25.597  41.873  11.165
89556W        W55965  34.670  41.002   1.849
89557W        W55966  32.324   1.469  14.423
89558W        W55967  19.638  21.586   3.672
89559W        W55968  14.744   6.217  12.162
89560W        W55969  33.135  36.921   3.296
89561W        W55970  36.269  37.577   3.626
89562W        W55971  25.512   2.264  11.386
89563W        W55972   3.786  37.248  13.896
89564W        W55973  20.876   5.712   2.670
89565W        W55974   9.436  30.100  13.008
89566W        W55975  14.664   1.960   3.262
89567W        W55976  10.059   0.713   2.728
89568W        W55977  11.635  34.011  14.359
89569W        W55978  27.183  26.629   0.360
89570W        W55979  42.844  23.523   2.254
89571W        W55980  30.014  29.438   4.573
89572W        W55981  12.166  22.404  11.708
89573W        W55982   6.040  15.614   0.030
89574W        W55983  23.600  44.510  12.803
89575W        W55984  10.634  18.079  13.404
89576W        W55985  11.362   6.296   2.189
89577W        W55986  11.805  21.325   1.113
89578W        W55987  32.490  41.751   3.312
89579W        W55988  38.931  22.232   4.687
89580W        W55989  32.919   9.724  12.457
89581W        W55990  43.778  37.591   4.328
89582W        W55991   3.864  39.958  12.445
89583W        W55992   3.522  44.308  11.996
89584W        W55993  17.527  10.200   4.600
89585W        W55994  32.026   4.352  13.519
89586W        W55995   9.678  26.932   4.185
89587W        W55996   3.884  29.564   9.924
89588W        W55997  26.238  26.622   3.226
89589W        W55998  38.398  23.571  12.499
89590W        W55999  12.200  44.222   3.316
89591W        W56000   5.449  28.475  11.635
89592W        W56001  35.392   7.868  13.440
89593W        W56002  33.716   2.743   3.236
89594W        W56003  10.137  31.980  12.307
89595W        W56004  43.373  20.154   4.707
89596W        W56005  22.106  37.922  11.213
89597W        W56006  26.711   2.218  12.943
89598W        W56007   4.452   3.254  13.824
89599W        W56008   3.771  10.448  10.757
89600W        W56009  23.933  20.155  10.886
89601W        W56010  16.684  33.329   3.995
89602W        W56011  15.766  38.415  14.126
89603W        W56012  11.608  38.326   3.174
89604W        W56013   8.642  29.912  11.687
89605W        W56014  29.449  21.622  12.229
89606W        W56015   8.725  22.796   4.579
89607W        W56016  43.234  13.224   1.229
89608W        W56017  25.501  15.739  13.792
89609W        W56018  33.625  37.467   1.906
89610W        W56019  11.724  29.479  12.244
89611W        W56020  31.641  15.280   1.801
89612W        W56021  22.951  28.598  13.987
89613W        W56022  11.263   9.247  14.854
89614W        W56023  16.757  10.173  13.367
89615W        W56024  44.023  29.764   1.251
89616W        W56025  32.537  30.609  14.933
89617W        W56026  44.307  31.194  11.671
89618W        W56027  18.188  15.736  11.375
89619W        W56028  41.435  43.051   2.431
89620W        W56029   8.135  44.723   3.824
89621W        W56030  34.966  41.984  13.963
89622W        W56031  42.787  16.630  13.418
89623W        W56032  16.374   0.960  14.749
89624W        W56033   5.507  21.077  13.905
89625W        W56034  19.770  26.187  13.966
89626W        W56035   1.828  18.970  13.055
89627W        W56036  28.201  11.826   1.976
89628W        W56037  37.571  23.531   4.538
89629W        W56038   6.827   3.912   1.212
89630W        W56039  23.755  19.271  12.865
89631W        W56040   2.997   0.038  13.818
89632W        W56041  30.582   2.237  11.154
89633W        W56042  17.226  32.829   0.298
89634W        W56043  44.212  32.597   4.115
89635W        W56044  13.757  25.617  10.951
89636W        W56045  31.623  41.509  10.747
89637W        W56046  33.880  23.219  10.307
89638W        W56047  41.012  19.341   1.345
89639W        W56048  39.302  36.457   4.504
89640W        W56049  30.551  36.037   3.517
89641W        W56050  28.136  38.749  10.742
89642W        W56051  31.436   9.319   2.730
89643W        W56052  20.140  14.626  13.484
89644W        W56053  20.631  17.571   3.285
89645W        W56054  18.311  24.515   1.746
89646W        W56055  18.883   9.832  11.259
89647W        W56056  43.014  10.753  13.255
89648W        W56057  14.517   3.749  11.101
89649W        W56058  15.834  36.286   1.682
89650W        W56059   3.354  26.744  12.079
89651W        W56060   1.067  21.111  14.099
89652W        W56061  36.429  33.930   3.562
89653W        W56062  21.750  12.065   2.802
89654W        W56063  12.842   9.831  10.798
89655W        W56064  23.203  28.193   3.538
89656W        W56065   3.948  44.971   0.038
89657W        W56066  34.856  10.251  10.701
89658W        W56067  43.497  11.229  11.508
89659W        W56068   2.988  34.316   1.255
89660W        W56069  22.795  39.911  11.162
89661W        W56070  23.288  31.281   2.821
89662W        W56071   1.493  10.926   3.747
89663W        W56072   2.370   0.484   4.484
89664W        W56073  25.183  38.380  12.535
89665W        W56074  38.975  12.515  12.465
89666W        W56075  22.789   9.314  11.101
89667W        W56076  11.806  14.717   4.296
89668W        W56077  28.188   4.617  13.950
89669W        W56078  15.550   4.813   1.015
89670W        W56079  12.363  21.611   0.519
89671W        W56080  38.000   7.207  13.817
89672W        W56081  33.947  27.019   2.408
89673W        W56082  43.408  32.037   2.124
89674W        W56083  22.534  20.240   3.197
89675W        W56084  12.305  15.320   1.475
89676W        W56085  31.856  18.666  10.534
89677W        W56086  39.613  38.995  13.425
89678W        W56087  43.733  39.648  11.920
89679W        W56088  34.493  20.000  12.560
89680W        W56089  21.315  41.367   2.480
89681W        W56090   6.536  23.549   2.333
89682W        W56091  36.189   0.747  11.996
89683W        W56092  35.600  19.483   1.984
89684W        W56093  43.336  38.171  13.889
89685W        W56094  15.445  21.744   0.819
89686W        W56095  11.292  10.160   1.293
89687W        W56096  14.387   6.029   1.280
89688W        W56097  16.061  24.436   4.057
89689W        W56098   5.470  39.562  11.716
89690W        W56099   6.134  21.725  12.790
89691W        W56100   4.322  40.247   1.447
89692W        W56101  17.297  12.234  10.725
89693W        W56102   2.547   8.226   2.790
89694W        W56103  31.130  22.991  12.963
89695W        W56104  24.262  15.028   3.368
89696W        W56105   9.988   8.233  14.102
89697W        W56106   8.767  37.337   0.283
89698W        W56107  37.143  41.416   3.168
89699W        W56108  35.284   1.490  10.727
89700W        W56109   9.673  29.879  12.613
89701W        W56110  12.779  23.905  12.751
89702W        W56111  20.728  19.978  12.063
89703W        W56112  20.476   1.539   4.178
89704W        W56113  41.913  33.075   1.922
89705W        W56114  21.150  26.533   4.153
89706W        W56115  12.390  23.741   2.326
89707W        W56116  15.888  42.387   3.626
89708W        W56117  38.343  36.789   4.139
89709W        W56118  14.310  31.546  11.616
89710W        W56119   4.113  10.948   2.697
89711W        W56120  29.095   4.075  12.212
89712W        W56121  20.949  14.081   0.628
89713W        W56122  31.966  33.535  10.729
89714W        W56123  42.418  39.875  14.702
89715W        W56124  15.235  23.497   3.526
89716W        W56125  34.635   5.910   2.144
89717W        W56126   5.583  27.926   2.174
89718W        W56127   4.728  25.474  10.996
89719W        W56128  24.600  35.850   2.530
89720W        W56129  21.959  23.800  11.192
89721W        W56130  32.108   7.624   3.720
89722W        W56131   3.667  17.762   3.620
89723W        W56132  40.430  26.781  14.768
89724W        W56133   8.710  36.820   0.314
89725W        W56134  28.042  44.161  10.040
89726W        W56135  18.782  44.079  14.845
89727W        W56136  27.273  22.270   3.459
89728W        W56137  18.691   9.990  11.685
89729W        W56138  14.365  14.704  11.626
89730W        W56139  16.549  34.399  11.473
89731W        W56140  29.529   2.991   2.405
89732W        W56141   6.250  40.841   4.373
89733W        W56142  17.238  13.205  10.733
89734W        W56143  25.516  34.669  10.694
89735W        W56144  19.015  13.095  12.588
89736W        W56145   8.317  20.697   2.436
89737W        W56146   3.823  32.368   3.900
89738W        W56147  11.748  15.670   0.996
89739W        W56148  29.409   5.291  12.676
89740W        W56149  14.323  16.843   0.788
89741W        W56150   2.886  37.429  10.887
89742W        W56151  42.747  42.349  13.885
89743W        W56152  26.004   3.370   1.207
89744W        W56153  29.424  43.742   1.698
89745W        W56154  31.180  37.579  12.867
89746W        W56155  40.914  21.213   3.209
89747W        W56156  39.446  15.133  12.325
89748W        W56157  44.659  16.100   2.307
89749W        W56158  41.894  44.931  12.448
89750W        W56159   2.315  26.387   1.807
89751W        W56160   8.343  23.721   3.384
89752W        W56161  10.087   8.868  13.123
89753W        W56162  32.218  12.057   0.763
89754W        W56163  25.094   8.148  11.532
89755W        W56164   4.669   4.521  11.965
89756W        W56165  41.583  26.098   3.392
89757W        W56166  33.337   1.389  12.060
89758W        W56167  13.797   4.945  11.095
89759W        W56168   9.684  32.095  12.119
89760W        W56169  24.026  26.036   2.833
89761W        W56170   4.866  14.591   1.542
89762W        W56171  43.497   2.147  14.869
89763W        W56172  24.564  20.246   1.741
89764W        W56173  27.671  31.868  12.514
89765W        W56174  22.232  23.494   0.020
89766W        W56175  42.044  43.817   1.622
89767W        W56176  19.259  17.718  11.202
89768W        W56177  43.566   8.756   0.963
89769W        W56178  33.479   1.227   4.618
89770W        W56179   0.782   0.179  13.803
89771W        W56180  17.694   1.732  13.004
89772W        W56181  10.793  10.156  14.978
89773W        W56182  25.727  40.841   1.251
89774W        W56183  11.522  20.549   1.928
89775W        W56184  31.881  10.719  10.701
89776W        W56185  41.408   2.210   0.703
89777W        W56186  28.476  39.937  14.356
89778W        W56187  16.401   0.697   0.222
89779W        W56188  43.388   3.487   2.675
89780W        W56189  16.898   9.917  12.906
89781W        W56190  43.384  30.451  12.554
89782W        W56191   0.259  17.970  14.917
89783W        W56192  35.279   8.646   2.411
89784W        W56193  21.295  11.632   1.681
89785W        W56194   0.722   5.727  11.165
89786W        W56195  18.637  30.015   2.640
89787W        W56196   2.390  34.885   3.560
89788W        W56197   5.402  16.533  14.870
89789W        W56198  40.565  39.288  12.039
89790W        W56199  26.193  39.821   0.791
89791W        W56200   1.796  23.457   3.630
89792W        W56201  28.725   7.553   4.817
89793W        W56202  30.795  36.365   3.023
89794W        W56203  17.305  34.940  11.486
89795W        W56204  18.770  35.491   4.324
89796W        W56205   6.926  14.805  14.481
89797W        W56206  29.582  11.352  13.543
89798W        W56207   0.933  38.764  14.614
89799W        W56208  11.955  14.725  10.579
89800W        W56209  25.680  20.479  11.560
89801W        W56210  16.233  13.938  10.440
89802W        W56211  30.068  17.659   2.863
89803W        W56212   4.405  37.628   3.537
89804W        W56213  42.266  28.069  11.434
89805W        W56214  16.939   5.690  13.504
89806W        W56215   7.296  25.257  13.953
89807W        W56216   7.329  10.897  13.007
89808W        W56217  14.628  42.128   4.188
89809W        W56218   3.866  36.874  11.458
89810W        W56219  17.077   5.383   1.433
89811W        W56220  43.824   4.093   4.359
89812W        W56221  39.397   1.791   1.225
89813W        W56222   1.088  42.938   0.467
89814W        W56223   2.200  13.253   3.199
89815W        W56224   1.740   9.858  13.021
89816W        W56225  37.456  19.147   0.297
89817W        W56226   0.137   6.823   0.657
89818W        W56227  38.912  31.401  10.236
89819W        W56228   7.896  29.459  14.466
89820W        W56229   1.982  41.424   0.430
89821W        W56230  11.858   3.028  13.313
89822W        W56231   7.428  11.324   1.266
89823W        W56232  11.888  17.230  11.907
89824W        W56233   0.443  29.702  13.359
89825W        W56234  11.788  16.690   4.085
89826W        W56235   9.620  22.705   4.685
89827W        W56236  15.056  12.576  12.486
89828W        W56237  34.350  40.795  11.711
89829W        W56238  28.281  36.191   3.623
89830W        W56239  40.322  36.128  14.514
89831W        W56240  36.805  23.595  11.436
89832W        W56241  31.951   4.271   0.046
89833W        W56242  30.574  20.019   3.208
89834W        W56243  11.627  36.107   5.000
89835W        W56244  14.039  36.048   4.304
89836W        W56245   5.655  31.570  14.220
89837W        W56246  34.086  27.917   3.686
89838W        W56247   4.546   9.223  14.977
89839W        W56248  23.546   4.889   2.389
89840W        W56249  31.175   8.257   1.955
89841W        W56250  36.314  34.804  13.911
89842W        W56251   3.378  21.438   0.947
89843W        W56252  17.566   1.600   3.085
89844W        W56253  28.754   3.896  12.626
89845W        W56254  18.206  30.178  12.436
89846W        W56255  44.028  27.375  13.804
89847W        W56256   9.555  32.079   4.737
89848W        W56257  23.069  26.532  10.690
89849W        W56258  15.585  41.816   1.805
89850W        W56259  38.460   7.150   1.929
89851W        W56260  28.900  19.576  14.022
89852W        W56261  23.022  35.069   3.131
89853W        W56262   7.839   3.470  13.427
89854W        W56263  16.522  16.644  12.922
89855W        W56264  13.263  21.031   1.308
89856W        W56265  13.637  41.481   0.008
89857W        W56266  36.983  41.370  11.985
89858W        W56267  13.760  17.322   2.197
89859W        W56268   1.315  30.849   0.687
89860W        W56269  10.463  16.166   0.235
89861W        W56270  18.999  14.248  10.711
89862W        W56271  29.987  39.402   2.681
89863W        W56272  38.997  28.248   5.006
89864W        W56273  28.587  25.254   1.283
89865W        W56274  20.095  33.122   2.308
89866W        W56275  26.900   9.102  10.803
89867W        W56276  11.409  42.441  10.440
89868W        W56277  22.990  26.356   1.239
89869W        W56278  38.122   0.833  10.784
89870W        W56279  44.046  33.494   3.320
89871W        W56280  14.715  43.892   0.448
89872W        W56281  34.106  12.906  12.102
89873W        W56282  28.440  27.699   1.283
89874W        W56283  21.483  19.827   3.782
89875W        W56284  22.602  39.466   3.162
89876W        W56285  22.319  34.233   4.119
89877W        W56286  11.313  31.285   3.599
89878W        W56287  11.069  10.939   4.606
89879W        W56288  25.513   0.198  14.754
89880W        W56289  29.699   7.884   2.233
89881W        W56290  36.402  32.496   2.788
89882W        W56291  37.917  13.176  10.758
89883W        W56292  43.961  42.930   1.961
89884W        W56293  16.696  43.003   0.695
89885W        W56294  20.252  20.354   4.100
89886W        W56295  31.039  18.092   3.059
89887W        W56296   1.943  35.373  14.445
89888W        W56297  30.295   8.188   2.218
89889W        W56298  27.158  39.155   3.464
89890W        W56299  31.427  40.560  14.354
89891W        W56300   7.326  13.157   1.459
89892W        W56301  19.736  23.115   1.529
89893W        W56302   2.646   5.242  12.157
89894W        W56303  10.690  19.877   0.818
89895W        W56304  23.249  29.853  13.546
89896W        W56305  18.184   0.013  11.889
89897W        W56306  13.790  10.840   4.078
89898W        W56307   3.950  35.501  13.386
89899W        W56308  36.446  17.227   3.467
89900W        W56309  29.364  11.318  11.058
89901W        W56310  38.549  29.553   5.045
89902W        W56311   9.440   2.305   3.651
89903W        W56312  29.244  30.619   2.384
89904W        W56313  43.289  42.310  12.240
89905W        W56314  10.584  12.798   4.874
89906W        W56315   9.780  42.882   4.617
89907W        W56316   1.989  21.160   4.467
89908W        W56317  44.346   9.517   1.854
89909W        W56318  26.155  14.774   1.999
89910W        W56319  15.488  42.989   1.323
89911W        W56320  25.384  39.259  12.807
89912W        W56321  28.665  12.037   2.174
89913W        W56322  42.461   6.833   4.058
89914W        W56323  18.156  17.091   0.421
89915W        W56324  29.526  20.760   2.665
89916W        W56325  41.760  40.458   4.879
89917W        W56326  10.630  31.815  12.402
89918W        W56327  34.563  10.699  14.656
89919W        W56328  40.844  26.157  11.455
89920W        W56329  33.342  18.499   0.874
89921W        W56330  26.573  14.641   1.681
89922W        W56331   4.973  11.094  13.605
89923W        W56332  10.204  24.206  14.792
89924W        W56333  10.642  35.373  13.235
89925W        W56334  35.125  26.042   2.629
89926W        W56335  15.679   8.693   1.784
89927W        W56336   6.897  42.773  13.950
89928W        W56337  25.066   6.348  14.484
89929W        W56338  31.034  11.304   3.458
89930W        W56339  16.561  42.145  12.101
89931W        W56340  19.626  24.241  10.782
89932W        W56341  21.585  20.779   4.195
89933W        W56342  21.699  13.574  13.672
89934W        W56343  22.585  29.831  11.013
89935W        W56344  12.491  20.345   9.848
89936W        W56345   8.622  22.945  11.114
89937W        W56346  20.027  42.067   2.708
89938W        W56347   3.114  34.394   3.276
89939W        W56348  32.608  36.333   4.774
89940W        W56349  30.540  32.716   4.595
89941W        W56350  40.419  43.417   2.232
89942W        W56351   6.734   6.319   0.767
89943W        W56352   1.540  21.909  11.987
89944W        W56353  18.798  20.668  11.618
89945W        W56354   3.565  40.502   3.193
89946W        W56355  41.065  23.062  11.211
89947W        W56356   5.396  34.594   4.568
89948W        W56357   7.339  10.258   5.129
89949W        W56358  20.284   8.032   5.061
89950W        W56359   9.680  31.380   5.475
89951W        W56360  31.895  11.690  11.509
89952W        W56361   3.342  31.560   3.330
89953W        W56362   2.850  41.619  11.253
89954W        W56363  13.775  11.594  14.742
89955W        W56364   5.277   6.370   2.920
89956W        W56365  12.570  24.897   4.336
89957W        W56366  15.577  14.235   1.212
89958W        W56367  37.274  13.641  14.514
89959W        W56368  19.054  19.693  14.983
89960W        W56369  26.922  23.146  10.748
89961W        W56370  19.524  19.836   1.665
89962W        W56371  15.347  39.053   4.591
89963W        W56372   8.731   1.425   0.706
89964W        W56373  15.500  10.322   1.439
89965W        W56374  42.049   8.677   0.544
89966W        W56375   3.388   0.237  10.447
89967W        W56376  36.947  22.044   4.322
89968W        W56377   9.733  26.182   3.594
89969W        W56378  14.821   9.926  14.329
89970W        W56379  41.731   8.005  14.676
89971W        W56380  25.026  23.312  14.003
89972W        W56381  10.622  39.089  14.468
89973W        W56382  38.518  17.066  14.306
89974W        W56383  22.210   5.949   0.796
89975W        W56384  20.064  14.404  14.986
89976W        W56385  21.691  17.008  12.272
89977W        W56386   5.136  43.358  12.483
89978W        W56387  15.240  32.152  10.353
89979W        W56388  28.222  42.422   0.970
89980W        W56389  11.271   9.856  11.171
89981W        W56390  44.656  11.238  12.371
89982W        W56391  24.738  11.802  10.961
89983W        W56392  36.768  26.568  13.531
89984W        W56393  32.922  14.950  11.317
89985W        W56394  29.523  34.928   1.909
89986W        W56395  22.009  34.554   2.719
89987W        W56396  16.705  13.559  13.935
89988W        W56397   8.700  44.811  13.961
89989W        W56398  33.748  35.038   2.296
89990W        W56399  10.721  31.383  12.687
89991W        W56400  29.730  24.573  11.889
89992W        W56401  26.668  40.393   4.590
89993W        W56402   0.188   8.832   1.367
89994W        W56403  41.413  33.872   3.625
89995W        W56404  30.893  14.788   3.370
89996W        W56405  27.057  42.905  12.683
89997W        W56406  18.122  40.243  13.440
89998W        W56407  40.388  16.571  12.026
89999W        W56408  13.065  35.933   2.752
90000W        W56409  34.199  27.024  11.618
90001W        W56410  21.252  11.732   4.615
90002W        W56411  42.476   2.251  13.359
90003W        W56412   2.768  32.598   4.707
90004W        W56413  19.859  15.346   0.279
90005W        W56414  30.741  39.503  12.051
90006W        W56415  16.575  43.586   0.462
90007W        W56416  22.108  11.518  11.195
90008W        W56417  19.748  26.987   3.765
90009W        W56418   9.326  43.027   4.895
90010W        W56419   9.714  19.007   4.209
90011W        W56420  27.296   2.366  11.082
90012W        W56421  25.994  13.279   1.301
90013W        W56422  30.068  32.113   0.861
90014W        W56423  32.215  23.675  12.519
90015W        W56424  21.115  30.999   3.413
90016W        W56425  27.193  29.183  14.057
90017W        W56426  37.511   4.827  13.296
90018W        W56427  11.223  44.850  12.512
90019W        W56428  37.392  33.339  11.989
90020W        W56429   3.541  14.289  14.013
90021W        W56430  24.749  37.501   4.534
90022W        W56431  22.698  22.123  13.511
90023W        W56432  43.311  10.311  11.964
90024W        W56433   0.962  10.105   0.492
90025W        W56434   3.991   8.320   2.498
90026W        W56435  10.672  21.444   0.807
90027W        W56436  14.987  14.574  12.216
90028W        W56437  12.302  12.685  11.987
90029W        W56438  19.322  12.863  11.260
90030W        W56439  23.650  40.451   3.120
90031W        W56440  38.292  20.561   1.152
90032W        W56441  31.625   8.314  14.262
90033W        W56442   4.928  32.364   1.650
90034W        W56443  44.262   7.203   1.878
90035W        W56444  21.085  24.339  12.093
90036W        W56445  27.608  15.160   2.816
90037W        W56446  28.514  40.725  12.012
90038W        W56447  16.272  14.572  10.427
90039W        W56448  33.412  37.141   3.721
90040W        W56449  10.841  44.635  10.247
90041W        W56450  19.103   1.239   1.816
90042W        W56451   0.307  10.479  13.324
90043W        W56452  19.715   0.429   3.741
90044W        W56453   9.700  20.804  12.181
90045W        W56454  18.136   0.544  14.008
90046W        W56455   2.492  19.815  10.299
90047W        W56456  36.497  16.294  11.942
90048W        W56457  11.316  15.612  11.208
90049W        W56458  23.671   9.340  13.043
90050W        W56459  26.319  30.588   0.778
90051W        W56460  15.517  15.826  12.127
90052W        W56461   8.365  34.854   2.894
90053W        W56462  25.090  26.075   4.526
90054W        W56463  26.762  21.028   2.732
90055W        W56464  20.556  10.945  10.647
90056W        W56465  11.723  25.960   1.734
90057W        W56466   5.355  43.716   3.183
90058W        W56467  19.697  38.577  14.466
90059W        W56468  19.080  21.908  14.341
90060W        W56469  24.326  37.209   4.455
90061W        W56470  15.429  23.667   4.942
90062W        W56471  21.011  34.354   2.781
90063W        W56472  31.598  32.051   5.013
90064W        W56473   3.843   0.783   2.254
90065W        W56474  34.455  30.954   0.150
90066W        W56475  10.344  35.873  11.475
90067W        W56476  19.101   3.404  13.982
90068W        W56477   2.017  34.347   1.672
90069W        W56478  34.066  31.627   2.719
90070W        W56479  38.585   8.350  10.556
90071W        W56480   4.275  43.999   3.663
90072W        W56481  44.612  21.209  12.996
90073W        W56482  23.091   4.927   3.202
90074W        W56483   5.852   2.401   0.224
90075W        W56484  16.279  44.349   2.499
90076W        W56485  10.894  32.697  14.950
90077W        W56486  34.455  26.871   2.356
90078W        W56487   8.681  10.299   1.206
90079W        W56488   1.044  25.903   3.140
90080W        W56489   3.428  27.480   3.500
90081W        W56490  19.162  20.092   0.994
90082W        W56491  11.369  43.743   4.486
90083W        W56492  36.873  29.140   0.352
90084W        W56493  29.554   2.771   3.446
90085W        W56494  12.300  10.638  10.765
90086W        W56495  15.286   8.656   3.600
90087W        W56496  38.076  19.423   1.482
90088W        W56497  28.411  37.812   2.221
90089W        W56498  39.282  27.002  10.650
90090W        W56499  29.762  25.413  10.811
90091W        W56500   7.732  11.793  13.988
90092W        W56501  30.404  41.960  10.792
90093W        W56502  11.934   3.403   1.319
90094W        W56503  44.911  39.882  12.476
90095W        W56504   1.729  23.541  12.056
90096W        W56505  30.332  23.487   1.368
90097W        W56506  21.596  42.060  14.052
90098W        W56507   5.005  33.573  10.507
90099W        W56508  35.265  36.905   0.963
90100W        W56509   6.224  16.900   2.558
90101W        W56510  19.019   3.887   0.916
90102W        W56511  28.957  13.677   4.124
90103W        W56512  32.679   0.918   4.116
90104W        W56513  34.532   0.289   2.194
90105W        W56514  27.443  38.499   4.151
90106W        W56515  29.842  13.518  14.795
90107W        W56516  19.211  24.604   2.789
90108W        W56517   5.574  24.807   2.680
90109W        W56518  44.436  20.479  14.913
90110W        W56519  44.682  34.297  13.355
90111W        W56520  16.918  32.607  14.002
90112W        W56521  25.950   9.681  14.754
90113W        W56522  33.219   5.415  11.193
90114W        W56523  25.232  44.861  14.457
90115W        W56524  19.085  32.244   3.977
90116W        W56525  29.065  31.843  13.098
90117W        W56526  27.481  21.793   1.711
90118W        W56527  40.325  27.249  11.965
90119W        W56528  13.338  10.299   1.463
90120W        W56529  42.473  38.876   2.108
90121W        W56530  30.150  33.943   4.971
90122W        W56531  36.584   1.939  10.775
90123W        W56532   3.921   8.741   2.200
90124W        W56533  18.374   1.400  10.704
90125W        W56534   2.320  44.165  13.897
90126W        W56535   9.986  27.157   3.862
90127W        W56536  32.406  10.931   2.752
90128W        W56537   4.899  42.353  14.960
90129W        W56538  23.881  17.733   4.383
90130W        W56539   6.337  16.927   3.851
90131W        W56540  27.496  17.306  13.693
90132W        W56541  15.732  23.639  14.063
90133W        W56542  27.887   6.441  11.917
90134W        W56543  41.980  35.644  12.436
90135W        W56544  43.768   8.443   1.788
90136W        W56545  44.692  12.688  14.924
90137W        W56546  37.559  16.648  14.853
90138W        W56547  39.346  39.296  13.828
90139W        W56548   3.354   7.157  13.877
90140W        W56549   9.726  12.289   3.655
90141W        W56550  42.744   2.203  10.812
90142W        W56551   1.778  28.213   1.289
90143W        W56552  28.052   4.312  10.823
90144W        W56553  27.594   4.891   3.964
90145W        W56554  32.802  22.702  11.395
90146W        W56555  43.297  11.767   2.975
90147W        W56556  36.332  32.198   1.637
90148W        W56557  38.437  10.378   0.793
90149W        W56558  11.663  25.141   3.115
90150W        W56559  41.892   1.484   4.079
90151W        W56560  31.252   4.738  14.804
90152W        W56561  15.221  37.587   3.491
90153W        W56562  44.486  10.841  12.882
90154W        W56563  21.384  20.986  11.159
90155W        W56564  15.410  23.232  14.934
90156W        W56565  30.547   3.075  12.942
90157W        W56566  19.932  42.760   0.762
90158W        W56567  25.229   3.735  12.669
90159W        W56568  12.671  43.260   5.053
90160W        W56569   3.804  14.308  13.542
90161W        W56570   0.224  36.542   2.331
90162W        W56571   9.221  27.281  11.554
90163W        W56572   0.333  21.238   4.224
90164W        W56573  25.914  17.764  14.059
90165W        W56574  27.107  43.944  12.504
90166W        W56575  10.402  11.748   2.199
90167W        W56576  36.680   4.180  12.140
90168W        W56577  30.038  29.563   1.635
90169W        W56578  34.393  16.844  13.030
90170W        W56579  15.999  41.420  10.197
90171W        W56580  41.461  13.844  14.259
90172W        W56581  31.539  11.584   4.601
90173W        W56582  43.135  34.842  10.361
90174W        W56583  30.554  29.068   1.624
90175W        W56584  25.877  18.622  12.993
90176W        W56585  32.643  36.702   4.115
90177W        W56586  35.675  40.422   2.896
90178W        W56587  42.540   6.336   4.171
90179W        W56588  26.542  19.379  14.503
90180W        W56589  16.185  15.283  13.810
90181W        W56590  14.091  11.588   1.498
90182W        W56591  26.733   7.672  13.893
90183W        W56592   4.950  33.975   2.308
90184W        W56593  40.921  12.187  11.236
90185W        W56594  26.704  36.960   0.889
90186W        W56595  41.033   2.308  13.444
90187W        W56596   9.787   2.046   2.829
90188W        W56597  32.426   7.091   1.879
90189W        W56598  25.338  17.876  11.954
90190W        W56599  44.005  41.598  10.598
90191W        W56600  31.635  22.281  11.267
90192W        W56601  38.459  40.933  14.570
90193W        W56602  33.915  30.024  12.523
90194W        W56603  37.569   2.945   0.237
90195W        W56604  26.339  30.547   1.665
90196W        W56605  20.132  27.100  13.915
90197W        W56606   1.943  27.456   1.780
90198W        W56607  21.267  43.242   3.632
90199W        W56608   6.615  34.338   3.126
90200W        W56609  13.898  40.124   1.229
90201W        W56610  15.917  26.560  10.045
90202W        W56611  40.256   9.748   0.527
90203W        W56612  10.133  32.902  13.295
90204W        W56613  35.598   3.687  12.553
90205W        W56614  17.997   7.708   4.189
90206W        W56615  34.876   6.735  13.779
90207W        W56616   1.969  38.165  12.582
90208W        W56617  44.978  37.489  14.891
90209W        W56618  36.174  36.774   3.242
90210W        W56619  30.667  34.982   1.333
90211W        W56620   3.269   4.731   2.477
90212W        W56621  40.130  39.551  12.118
90213W        W56622  20.737  16.101   0.356
90214W        W56623  23.774  33.360  14.333
90215W        W56624  22.983  36.157   5.106
90216W        W56625  10.734   1.309   2.203
90217W        W56626  15.082  34.482   1.804
90218W        W56627  37.396  39.507   4.570
90219W        W56628  27.999   6.002   4.919
90220W        W56629  35.365  38.431  12.518
90221W        W56630   5.290  18.601   3.614
90222W        W56631  20.365  14.917  11.520
90223W        W56632  31.410  34.062   1.220
90224W        W56633  40.801   7.685  14.230
90225W        W56634  13.715  18.756  11.972
90226W        W56635  24.843  19.002  13.176
90227W        W56636  18.634  36.168  13.395
90228W        W56637   9.886  26.636  13.340
90229W        W56638  25.598  17.533  11.020
90230W        W56639  29.563  21.220  13.862
90231W        W56640  26.577  31.960  12.910
90232W        W56641  24.489  36.759  12.403
90233W        W56642   7.752  11.744   4.522
90234W        W56643   7.151  10.258   0.513
90235W        W56644  33.157   4.462   5.433
90236W        W56645   8.823  34.807  12.978
90237W        W56646  32.027  39.411   0.287
90238W        W56647  35.763  26.427   2.842
90239W        W56648  41.754  35.305   3.655
90240W        W56649  32.170  35.133  10.763
90241W        W56650  36.878  21.106   0.519
90242W        W56651   1.356   4.466  13.057
90243W        W56652  18.332  12.391  11.390
90244W        W56653  34.579  12.517  14.987
90245W        W56654  31.529   0.069   1.044
90246W        W56655  35.909  24.483   4.114
90247W        W56656  41.756  30.804   2.277
90248W        W56657  19.640  27.746   3.127
90249W        W56658  20.277  15.873   3.626
90250W        W56659  22.189  36.387  12.907
90251W        W56660   4.004   7.376   1.811
90252W        W56661   6.234  22.699   4.165
90253W        W56662  18.324   6.036  14.423
90254W        W56663  16.670   5.723   2.648
90255W        W56664  16.784  14.597   4.157
90256W        W56665  43.043   2.242   3.876
90257W        W56666  30.811   4.820   4.559
90258W        W56667  12.703  41.441  11.921
90259W        W56668  34.611  31.802   0.660
90260W        W56669  32.049  29.189   0.513
90261W        W56670   5.939  12.839  14.860
90262W        W56671  11.642  43.340  11.043
90263W        W56672  37.441  16.710   0.900
90264W        W56673  12.233  29.512   4.218
90265W        W56674  13.109  33.554   3.681
90266W        W56675  24.957   9.142  13.366
90267W        W56676  28.605  27.676  10.681
90268W        W56677  35.511  22.008   4.635
90269W        W56678  15.173  26.952  12.348
90270W        W56679  17.609  42.044  11.095
90271W        W56680  39.524  24.064   1.221
90272W        W56681  13.840  34.608   2.830
90273W        W56682  39.829   9.064  12.834
90274W        W56683  36.580  21.255  13.955
90275W        W56684  11.808  10.954   2.372
90276W        W56685  13.998   5.686   1.254
90277W        W56686  39.609  22.722  13.429
90278W        W56687   7.431   5.490  12.502
90279W        W56688  42.188  20.268  13.053
90280W        W56689  22.415  42.648  14.948
90281W        W56690  11.629  14.343  14.561
90282W        W56691  33.285   0.762   4.898
90283W        W56692  12.441  11.153  10.750
90284W        W56693  27.763  21.291  12.091
90285W        W56694  13.296  26.174  14.809
90286W        W56695  24.948  10.186  11.610
90287W        W56696  20.025  29.407   0.794
90288W        W56697   3.802  13.541   1.138
90289W        W56698  30.511  34.664  10.714
90290W        W56699  44.053   1.231  14.505
90291W        W56700  21.791  25.786   2.720
90292W        W56701  26.481  27.538  12.903
90293W        W56702  38.579  29.394  13.047
90294W        W56703  31.937  21.510  11.730
90295W        W56704  21.804  31.145   1.407
90296W        W56705  27.146  28.663   1.291
90297W        W56706  11.879  22.910   1.293
90298W        W56707  35.624  23.718   1.395
90299W        W56708  34.620  41.284   3.956
90300W        W56709   9.279  15.685  12.452
90301W        W56710   1.495  24.039  14.725
90302W        W56711  22.463  13.875  13.524
90303W        W56712   5.716  11.189  14.989
90304W        W56713   9.896   2.193  13.860
90305W        W56714  32.933  13.399  11.200
90306W        W56715  12.159   8.682  12.199
90307W        W56716  20.071   4.430   2.776
90308W        W56717  44.967  11.789   0.358
90309W        W56718   6.427  29.392   0.313
90310W        W56719  24.708   6.138  11.682
90311W        W56720  23.820  29.520   2.158
90312W        W56721  43.779  40.383  12.514
90313W        W56722  36.363  33.055   0.637
90314W        W56723  33.148  16.221  11.508
90315W        W56724  11.784  35.745  12.797
90316W        W56725  36.584  39.929  12.907
90317W        W56726  12.880  30.919  14.349
90318W        W56727  29.689  14.695  13.534
90319W        W56728  21.533  36.269   0.819
90320W        W56729  39.442  24.213  14.419
90321W        W56730  13.435  42.493   1.422
90322W        W56731  27.242   0.025  14.569
90323W        W56732  29.078  33.884   0.301
90324W        W56733  28.709  16.226   4.817
90325W        W56734  15.406   6.906   3.120
90326W        W56735  41.255  44.922  11.640
90327W        W56736   7.924   1.800  14.493
90328W        W56737   1.520  11.053   1.341
90329W        W56738   5.669  14.625   0.887
90330W        W56739   6.314  39.942  13.594
90331W        W56740  32.242  10.613  14.816
90332W        W56741  39.080   7.437   3.335
90333W        W56742  20.607  36.506  11.170
90334W        W56743  25.436   8.166   3.199
90335W        W56744   1.316  24.310   1.119
90336W        W56745  18.530  18.043   4.221
90337W        W56746  12.863  37.971  11.860
90338W        W56747  34.632   0.206  14.569
90339W        W56748  28.653   0.790   0.681
90340W        W56749  40.855   1.251  10.431
90341W        W56750   6.748  15.240   0.462
90342W        W56751   7.896  18.241  13.584
90343W        W56752   7.645   1.299  10.608
90344W        W56753  38.705  15.553  13.288
90345W        W56754  10.451  22.298  11.629
90346W        W56755  34.617  15.181  13.991
90347W        W56756  41.101  29.177   0.518
90348W        W56757  43.791  29.751   2.199
90349W        W56758  10.215  29.961  13.503
90350W        W56759  34.390  15.516  13.244
90351W        W56760   1.970  12.512  10.853
90352W        W56761  31.455  15.028  13.671
90353W        W56762  40.891  24.567  12.604
90354W        W56763  13.680  42.459   2.345
90355W        W56764  18.674  23.104   4.796
90356W        W56765  20.587  32.940   2.383
90357W        W56766  32.076  10.090   1.841
90358W        W56767  42.750  42.404  11.064
90359W        W56768  30.717   1.969  13.934
90360W        W56769  24.064   9.624  10.595
90361W        W56770  13.191   1.955   0.852
90362W        W56771  31.413  37.923  10.786
90363W        W56772  10.385  24.270  11.912
90364W        W56773   3.161  43.589   2.809
90365W        W56774  33.959  33.116  10.649
90366W        W56775  12.105  10.189  10.965
90367W        W56776  19.297   2.758   2.383
90368W        W56777  34.638  16.154   1.647
90369W        W56778  13.180   7.461  11.107
90370W        W56779  43.956  38.078   0.899
90371W        W56780   7.629  36.317  14.920
90372W        W56781   1.039  32.425   2.337
90373W        W56782   3.823  19.522  13.957
90374W        W56783  22.220  28.799  14.009
90375W        W56784  13.699   5.657   0.808
90376W        W56785  38.887  30.588  11.601
90377W        W56786  16.437  21.735  12.170
90378W        W56787  26.724   6.841  13.102
90379W        W56788  34.478  20.710  11.293
90380W        W56789  20.164  34.513  10.863
90381W        W56790  19.845  20.654   3.102
90382W        W56791   3.317   4.927   4.175
90383W        W56792  34.060  19.210   0.001
90384W        W56793  32.971   7.118  10.125
90385W        W56794  28.548   3.738  10.830
90386W        W56795  43.028  18.595   4.437
90387W        W56796  23.849  42.945  14.974
90388W        W56797  21.259  41.935  10.801
90389W        W56798   7.169  35.911   2.750
90390W        W56799  18.528  13.998  12.480
90391W        W56800  20.967   4.356   0.216
90392W        W56801  42.523  15.490   4.886
90393W        W56802  23.025  19.996  10.973
90394W        W56803   6.413   9.130   4.293
90395W        W56804  17.219  26.100  10.862
90396W        W56805  44.074   1.866  10.669
90397W        W56806   0.966  11.435  13.659
90398W        W56807   9.704  20.517   4.181
90399W        W56808  13.384  24.619  12.358
90400W        W56809  12.028  24.652  12.951
90401W        W56810  40.943  33.851  11.292
90402W        W56811  27.921  40.277   1.750
90403W        W56812  26.036  38.370   0.061
90404W        W56813  39.594  29.070  10.950
90405W        W56814  20.621  25.777  11.865
90406W        W56815  27.839   4.453   9.889
90407W        W56816  14.877   6.146   4.944
90408W        W56817  16.853  15.652  14.388
90409W        W56818   3.715   6.314   4.562
90410W        W56819   0.488  24.376  10.691
90411W        W56820   0.268  41.502   3.990
90412W        W56821  38.346  25.177  12.897
90413W        W56822  13.139  44.457   3.718
90414W        W56823  21.668  33.229  14.287
90415W        W56824  37.856  26.521  10.192
90416W        W56825  33.499  13.129   2.225
90417W        W56826  30.054  43.757   4.360
90418W        W56827  12.324  44.854  13.604
90419W        W56828  19.196  29.034  11.887
90420W        W56829   9.693   7.174   4.740
90421W        W56830   7.769   8.548   4.649
90422W        W56831  21.098  36.519   0.696
90423W        W56832  35.458   8.169  12.909
90424W        W56833   0.462  27.508   4.611
90425W        W56834  30.828  14.613  14.146
90426W        W56835  34.559  23.715  12.100
90427W        W56836   0.228  19.737  13.311
90428W        W56837  22.758   1.822   1.002
90429W        W56838   7.752  35.841  14.734
90430W        W56839  29.141   9.984   4.518
90431W        W56840  29.467   9.458   1.407
90432W        W56841   4.766   0.770  14.471
90433W        W56842   9.534  17.355  11.571
90434W        W56843   4.711  31.181   2.819
90435W        W56844  35.219  30.785   2.178
90436W        W56845  11.244   2.104   2.404
90437W        W56846  15.886  15.318   2.411
90438W        W56847   8.465   7.252   2.771
90439W        W56848  14.146  11.074   0.395
90440W        W56849  14.052  15.756  10.287
90441W        W56850   1.288  11.558  13.262
90442W        W56851  32.504  28.782   2.809
90443W        W56852  28.084  14.628  14.442
90444W        W56853   1.472  32.058   4.256
90445W        W56854  10.804  27.184  14.331
90446W        W56855  29.451  15.759   2.776
90447W        W56856  29.139  32.559  14.974
90448W        W56857  11.683  24.244  14.983
90449W        W56858  37.012  25.490  11.665
90450W        W56859   0.611  10.854   1.428
90451W        W56860   4.398   6.429   3.064
90452W        W56861   7.852   3.793   1.540
90453W        W56862  21.109  39.079   1.824
90454W        W56863  31.119  33.902   2.968
90455W        W56864  31.562  11.329   4.164
90456W        W56865   3.479  19.625   3.612
90457W        W56866  29.182  17.809   0.331
90458W        W56867  22.551  23.595  12.624
90459W        W56868  20.555  44.553   1.942
90460W        W56869  40.800   1.868  12.967
90461W        W56870  39.022  11.951   5.032
90462W        W56871  29.620  19.297   0.987
90463W        W56872  38.499  29.311  11.609
90464W        W56873  29.953  12.122  14.452
90465W        W56874  42.739   9.873  12.543
90466W        W56875  20.762   9.217   1.935
90467W        W56876  36.009  41.529  11.273
90468W        W56877  24.044  40.875   4.292
90469W        W56878  42.473   9.825  14.383
90470W        W56879  11.728  22.550  14.372
90471W        W56880  39.582   8.872   0.774
90472W        W56881  44.516  44.267  14.977
90473W        W56882  27.241  35.097  12.628
90474W        W56883  10.814  35.545   2.197
90475W        W56884  43.380  18.865   0.873
90476W        W56885  17.011  11.212   2.386
90477W        W56886  28.955   5.193  13.529
90478W        W56887  29.763   0.266   1.662
90479W        W56888  19.715   9.666  12.963
90480W        W56889   4.283  18.858  10.896
90481W        W56890   4.965   1.397  13.626
90482W        W56891  30.788  23.557   0.026
90483W        W56892  16.726   1.786  14.795
90484W        W56893  25.264  34.408   2.778
90485W        W56894  34.937  30.940   1.771
90486W        W56895   4.969  12.634   2.128
90487W        W56896  39.783   6.907  11.007
90488W        W56897  30.454  27.069   1.329
90489W        W56898  32.962  36.387  14.535
90490W        W56899  44.105  17.717  11.081
90491W        W56900  13.440  17.735  11.611
90492W        W56901  11.646  11.293   4.152
90493W        W56902  42.897   4.924  11.025
90494W        W56903  32.020  14.851   2.680
90495W        W56904  19.300  13.136   4.185
90496W        W56905  38.293  11.313   3.206
90497W        W56906  44.944   1.549  11.697
90498W        W56907  16.390  33.469  13.891
90499W        W56908  29.580   1.678  10.179
90500W        W56909  17.857  10.643   2.222
90501W        W56910  24.561   6.676  12.030
90502W        W56911   3.268  17.814  13.823
90503W        W56912  25.870   8.164  14.875
90504W        W56913  41.352  15.222   3.320
90505W        W56914  11.876  34.768  11.953
90506W        W56915  37.149  23.771   0.265
90507W        W56916  29.060  35.490   0.074
90508W        W56917  44.186  28.138   2.996
90509W        W56918  43.726  24.993  13.116
90510W        W56919  18.071  38.655   4.157
90511W        W56920  42.699  12.243  11.188
90512W        W56921  12.070  40.501   3.784
90513W        W56922   9.678  12.701   4.805
90514W        W56923  39.273  14.035  11.534
90515W        W56924  13.464  33.832  11.112
90516W        W56925  42.422  34.879   0.356
90517W        W56926   5.329  28.434  13.983
90518W        W56927  39.095  18.308  12.461
90519W        W56928  25.032   2.494  12.168
90520W        W56929  42.553  15.985  14.393
90521W        W56930  39.536   9.938  12.801
90522W        W56931   2.787  39.796   2.310
90523W        W56932   8.848   5.445   3.636
90524W        W56933  20.989   7.770  12.936
90525W        W56934  23.639  29.930  11.956
90526W        W56935  23.919  11.772   1.721
90527W        W56936  41.979  23.875   0.925
90528W        W56937  26.581  40.382  13.567
90529W        W56938  14.189  32.933  13.791
90530W        W56939  27.912  30.618   4.136
90531W        W56940   9.271  12.074  11.156
90532W        W56941  10.183  26.834   3.289
90533W        W56942  14.960  39.507  13.758
90534W        W56943  37.429  18.167   0.333
90535W        W56944  10.735  32.069   2.721
90536W        W56945  32.399   9.194   1.673
90537W        W56946  11.158  33.991   3.349
90538W        W56947  35.220  40.261  14.014
90539W        W56948  10.928  14.806   3.549
90540W        W56949  28.340  25.639  12.815
90541W        W56950  14.202  23.518   1.525
90542W        W56951  14.766  30.346  13.017
90543W        W56952  24.797  42.486   2.873
90544W        W56953  26.684  39.680  10.416
90545W        W56954  17.778  17.009  12.043
90546W        W56955   3.209  21.442   0.456
90547W        W56956  14.157  30.116   4.830
90548W        W56957   5.981  42.384  10.775
90549W        W56958  40.760  19.708   4.219
90550W        W56959  35.080   9.760  11.617
90551W        W56960   1.680  28.405  13.319
90552W        W56961   7.702   1.001   2.831
90553W        W56962  32.866  35.330  12.031
90554W        W56963  15.153  15.985   1.262
90555W        W56964  10.292  38.442   4.365
90556W        W56965  15.619  39.545  10.329
90557W        W56966  34.980  35.412   3.445
90558W        W56967  43.717  19.641  10.410
90559W        W56968   8.888  34.311   4.428
90560W        W56969   7.616  28.064   2.270
90561W        W56970  41.046  37.648  10.646
90562W        W56971  41.104  38.346   1.638
90563W        W56972  32.823  12.777  14.814
90564W        W56973  35.295  38.281  13.412
90565W        W56974  17.538  30.082  14.228
90566W        W56975  23.488  35.039   2.938
90567W        W56976   8.692   9.496   4.051
90568W        W56977  40.549  37.271   3.101
90569W        W56978  44.053  25.143  13.973
90570W        W56979   4.737  33.715  12.956
90571W        W56980   3.340  20.252  12.196
90572W        W56981   3.641  22.445  10.575
90573W        W56982  10.424  43.474   2.198
90574W        W56983  18.124  19.034  11.149
90575W        W56984   4.875  29.006   1.272
90576W        W56985   7.548  41.720   2.357
90577W        W56986   5.668  40.385   0.921
90578W        W56987  40.076  24.063  10.844
90579W        W56988  43.342  30.389   0.305
90580W        W56989  20.288  11.219  12.545
90581W        W56990  44.053  39.832   1.702
90582W        W56991  27.861  28.579  13.525
90583W        W56992  30.175  28.875   0.318
90584W        W56993  41.774   5.633  11.188
90585W        W56994  27.151  36.639   2.124
90586W        W56995  32.669   5.299  14.797
90587W        W56996  24.236  27.236   2.925
90588W        W56997  40.997  38.429  13.890
90589W        W56998  42.490  37.072   0.803
90590W        W56999   3.757  12.639  13.009
90591W        W57000  30.123  41.996  12.879
90592W        W57001  28.904  20.591   1.281
90593W        W57002  19.086  20.902  11.139
90594W        W57003  26.402   4.407   4.557
90595W        W57004   0.916  22.653  11.903
90596W        W57005   2.593  27.191   2.050
90597W        W57006  31.002  33.936   2.464
90598W        W57007  19.539  30.554   0.068
90599W        W57008  13.080  14.147   1.850
90600W        W57009  26.543  10.747  14.660
90601W        W57010   7.671  23.691  10.867
90602W        W57011  27.419  14.317   2.157
90603W        W57012  14.816  18.275   4.485
90604W        W57013  39.507  32.835   4.883
90605W        W57014  30.221  41.724  11.602
90606W        W57015  23.585  37.781  12.840
90607W        W57016  21.296  13.853  14.553
90608W        W57017  44.428  15.876  12.193
90609W        W57018   1.916   4.749   1.216
90610W        W57019  43.284   8.284   3.208
90611W        W57020   2.812  34.622   3.641
90612W        W57021  12.489  29.534  14.645
90613W        W57022  30.028  24.748   1.960
90614W        W57023   3.837  19.035   3.134
90615W        W57024  18.551  18.737   4.635
90616W        W57025  32.634  23.531   0.013
90617W        W57026  27.167  19.106  12.894
90618W        W57027  33.892  44.225   2.403
90619W        W57028  38.284   8.824  11.598
90620W        W57029  24.183  37.950   4.049
90621W        W57030  13.053  38.967   4.646
90622W        W57031  16.159  41.148  11.048
90623W        W57032  20.087  32.360  12.139
90624W        W57033  29.193   7.638  11.572
90625W        W57034  16.590   8.967   3.318
90626W        W57035  21.727   1.853   0.218
90627W        W57036  34.976   0.587   4.417
90628W        W57037   3.218  42.822  11.178
90629W        W57038  28.069  33.859  14.507
90630W        W57039   7.070  27.736  10.912
90631W        W57040  43.403  23.175  12.912
90632W        W57041   3.503   2.454   0.414
90633W        W57042   0.463  40.343   1.957
90634W        W57043  40.960  43.493   0.854
90635W        W57044  19.364  26.699  11.081
90636W        W57045  33.464   6.278  14.070
90637W        W57046  20.761  43.501   4.173
90638W        W57047   9.120  12.142   1.858
90639W        W57048  30.635  21.117  12.902
90640W        W57049   8.477   5.025  13.362
90641W        W57050   8.940   8.930   3.500
90642W        W57051  35.993   0.607   4.145
90643W        W57052  34.474   1.474  12.979
90644W        W57053  26.186  13.289  11.519
90645W        W57054  40.209  40.487  12.846
90646W        W57055  16.050   8.831   4.997
90647W        W57056  35.457   8.624  13.963
90648W        W57057  27.582  11.366   4.652
90649W        W57058  42.682  43.035   0.019
90650W        W57059  27.795  22.794  12.917
90651W        W57060  38.558  16.400  12.836
90652W        W57061   8.196  40.263  13.138
90653W        W57062  20.111  11.277   3.275
90654W        W57063  11.357   9.117   1.299
90655W        W57064  34.237  43.242   1.059
90656W        W57065  41.003   4.189  12.917
90657W        W57066  38.651  12.256   1.850
90658W        W57067  21.018  11.565   3.346
90659W        W57068  44.917   4.845   4.885
90660W        W57069   7.935  26.151   2.186
90661W        W57070  14.837  25.214   4.172
90662W        W57071   6.398   6.247  12.087
90663W        W57072  31.636  37.564  13.184
90664W        W57073  30.876   8.862   9.948
90665W        W57074  37.949  40.891  14.938
90666W        W57075   6.423  30.152   1.892
90667W        W57076  10.818  17.101  13.366
90668W        W57077  15.429  12.724   0.322
90669W        W57078  41.435  18.181  14.269
90670W        W57079   6.849  22.052   1.791
90671W        W57080   4.909  28.661  10.662
90672W        W57081  20.561  26.137  12.720
90673W        W57082  14.577  23.116  14.379
90674W        W57083   5.707   6.983   1.374
90675W        W57084  15.372  21.065  10.132
90676W        W57085  10.555  44.791   2.997
90677W        W57086  10.391  25.410  13.499
90678W        W57087  21.220  16.143   3.618
90679W        W57088  41.925  20.072  11.171
90680W        W57089  39.415  38.456  10.377
90681W        W57090  41.481   7.703  13.889
90682W        W57091  20.399  24.533   2.773
90683W        W57092  39.537  37.757  14.989
90684W        W57093  16.286  34.003  12.508
90685W        W57094  23.833  41.850  11.211
90686W        W57095  32.725  42.459   0.265
90687W        W57096  27.761   1.827  13.461
90688W        W57097  18.234  38.886  10.904
90689W        W57098  39.295  31.956  11.241
90690W        W57099  16.699   6.714  10.570
90691W        W57100  27.123  20.168  12.065
90692W        W57101  20.122   2.506   1.327
90693W        W57102  19.036  15.387   2.577
90694W        W57103   0.916  39.606   3.720
90695W        W57104  25.880  25.391  13.000
90696W        W57105   6.167  27.718   0.433
90697W        W57106  27.535  29.061  14.889
90698W        W57107  19.451  39.715  12.830
90699W        W57108  24.514   7.505  13.334
90700W        W57109   5.736  10.473  13.545
90701W        W57110  10.855  24.731   0.380
90702W        W57111  41.348  28.697  14.745
90703W        W57112  27.623  24.004   3.501
90704W        W57113   9.912  11.106  13.353
90705W        W57114  27.403  12.217  14.914
90706W        W57115   0.316  22.033   0.998
90707W        W57116  16.546  19.471  14.233
90708W        W57117  28.884   8.755  14.001
90709W        W57118  24.997  42.840   1.756
90710W        W57119  14.255  13.544  13.943
90711W        W57120   6.429   1.085   4.993
90712W        W57121   9.402  35.058  14.363
90713W        W57122  11.654  14.755  11.367
90714W        W57123  23.579  25.378  11.961
90715W        W57124  17.720   4.397   2.460
90716W        W57125   9.771   0.776  11.599
90717W        W57126  15.428  31.013   0.390
90718W        W57127   8.810   7.141   1.819
90719W        W57128   5.619  20.050  10.719
90720W        W57129   5.380  26.235   3.722
90721W        W57130  12.156   4.251   3.526
90722W        W57131  13.119  16.495   2.179
90723W        W57132  44.900  31.557  10.744
90724W        W57133   3.234  28.490  12.619
90725W        W57134  42.088  26.003   4.171
90726W        W57135  34.106  38.487   4.407
90727W        W57136  34.385  10.294  13.957
90728W        W57137  31.154   8.894  11.949
90729W        W57138  33.916  19.148  12.040
90730W        W57139   9.121  17.654   1.410
90731W        W57140  26.401   8.246  14.857
90732W        W57141  27.954  43.503   3.111
90733W        W57142  13.131  15.787   0.689
90734W        W57143   0.289  26.119   2.130
90735W        W57144  22.943  30.515  12.113
90736W        W57145  42.715  31.380  13.075
90737W        W57146  24.009  24.353   0.926
90738W        W57147  35.895  11.713   2.268
90739W        W57148  10.261  14.746   4.289
90740W        W57149  39.869   2.474   3.230
90741W        W57150  40.662  11.214  12.849
90742W        W57151  35.597  22.309   1.403
90743W        W57152   6.181  30.462   4.063
90744W        W57153  20.135  32.848  14.895
90745W        W57154  18.097  14.208   3.070
90746W        W57155   7.649  21.279   2.251
90747W        W57156   5.864  20.177  12.019
90748W        W57157  34.420  29.819   0.002
90749W        W57158  11.550  18.919   0.951
90750W        W57159   3.886  23.106  14.852
90751W        W57160  21.422  26.144  12.007
90752W        W57161  17.616   2.999   4.232
90753W        W57162  36.427   3.845   3.073
90754W        W57163  16.651  27.837   1.209
90755W        W57164   4.450  31.536   0.727
90756W        W57165  40.952   2.010   1.881
90757W        W57166  18.239   4.371   3.756
90758W        W57167   8.171  35.761   2.444
90759W        W57168   4.131  12.737   0.457
90760W        W57169  32.905  18.809   0.859
90761W        W57170  42.870   7.053   2.788
90762W        W57171  11.394  22.928   1.497
90763W        W57172   8.663  20.823  14.303
90764W        W57173  21.071  22.548   1.543
90765W        W57174  34.057  28.637   4.852
90766W        W57175   5.087  36.906   3.681
90767W        W57176   6.929   4.336  13.364
90768W        W57177  30.989  42.074   3.989
90769W        W57178  20.197  16.373   3.682
90770W        W57179  41.339  43.336   4.861
90771W        W57180   5.363  19.607  13.950
90772W        W57181  15.085   3.265   3.356
90773W        W57182  35.960   4.783   2.591
90774W        W57183  20.005  27.643  14.767
90775W        W57184   0.727  34.387   1.326
90776W        W57185  11.664   8.698  14.769
90777W        W57186  36.935   3.612   2.626
90778W        W57187  22.233   3.914  13.015
90779W        W57188  41.752  28.099   4.601
90780W        W57189  26.624  34.041   4.084
90781W        W57190   7.815  30.684  10.293
90782W        W57191  31.579  14.722   0.474
90783W        W57192  36.400   8.039  13.393
90784W        W57193  35.398  36.906   2.350
90785W        W57194  25.458  11.982   4.983
90786W        W57195  17.310  26.559   3.301
90787W        W57196  38.148  24.074  13.364
90788W        W57197  42.923  21.265   2.748
90789W        W57198  37.046  40.915   2.993
90790W        W57199  14.606  28.474  10.768
90791W        W57200  17.240  34.053   2.913
90792W        W57201  24.776  41.544  11.175
90793W        W57202  16.613  24.976  10.655
90794W        W57203  22.155  21.491  13.824
90795W        W57204  31.587  31.602  13.988
90796W        W57205  35.568  29.465  11.635
90797W        W57206  28.459  20.729   3.247
90798W        W57207  17.106  17.097   2.964
90799W        W57208   5.783   6.622   1.721
90800W        W57209  37.064  38.786  13.563
90801W        W57210  19.872  36.791   1.187
90802W        W57211  28.047  37.570  13.984
90803W        W57212  17.730   8.442  14.323
90804W        W57213  36.781  12.328   0.486
90805W        W57214  19.041   2.790  11.542
90806W        W57215   7.392   1.366  12.968
90807W        W57216  21.919  17.636   4.219
90808W        W57217  17.780  38.925   1.723
90809W        W57218  34.036  13.659   4.810
90810W        W57219  33.418  39.503  11.525
90811W        W57220   8.753  27.025   0.536
90812W        W57221   1.953  32.386  10.557
90813W        W57222  20.123  19.728  13.968
90814W        W57223  10.879   8.728   3.667
90815W        W57224  44.248  34.931   4.152
90816W        W57225  38.902  20.356  10.745
90817W        W57226  13.256  10.705   2.225
90818W        W57227  28.579  43.460  12.804
90819W        W57228  24.493   7.423   4.824
90820W        W57229  28.035  34.164   1.635
90821W        W57230   9.741  15.717   3.675
90822W        W57231   7.712  11.870   0.444
90823W        W57232  25.980  33.879  14.832
90824W        W57233   5.240   9.705  14.708
90825W        W57234  38.585  37.101  10.689
90826W        W57235  33.978  32.198  10.639
90827W        W57236  41.309  33.901  13.533
90828W        W57237   6.934  22.306   2.727
90829W        W57238  12.613   9.052  13.453
90830W        W57239  21.476  32.496   0.814
90831W        W57240  22.249  26.208  13.552
90832W        W57241  17.761  11.260   0.977
90833W        W57242  27.127   3.933   0.877
90834W        W57243  12.592  12.298  13.572
90835W        W57244  35.997  42.738   0.918
90836W        W57245  27.825  11.713   3.743
90837W        W57246  15.070   4.629  11.995
90838W        W57247  39.051  22.108  10.439
90839W        W57248  40.054  27.092   4.705
90840W        W57249   5.856  36.815   4.258
90841W        W57250  14.499  27.472  10.330
90842W        W57251  28.505  22.978  13.970
90843W        W57252  29.466  18.792   4.563
90844W        W57253  21.065  37.323   0.970
90845W        W57254  35.638  15.104  13.068
90846W        W57255  22.038  35.660   1.833
90847W        W57256  13.620   2.680   1.089
90848W        W57257  11.993  20.187  12.373
90849W        W57258  22.637  26.534  13.980
90850W        W57259  21.769   1.779  10.887
90851W        W57260  40.385  35.919   4.266
90852W        W57261  30.601  10.085  11.617
90853W        W57262  42.999  39.347  14.890
90854W        W57263  16.841  25.994   1.309
90855W        W57264  19.778  14.789   4.984
90856W        W57265  33.417  26.354   0.959
90857W        W57266  13.973  18.141   4.602
90858W        W57267  20.196  16.109  12.193
90859W        W57268  10.973  22.771   4.573
90860W        W57269  13.578  35.464   4.695
90861W        W57270  34.462   4.397  11.629
90862W        W57271  16.842  12.129  12.362
90863W        W57272  31.395  37.467  11.539
90864W        W57273   1.341   9.190   2.726
90865W        W57274  28.051  24.564   0.917
90866W        W57275   5.680  17.284  11.204
90867W        W57276   1.649   1.750   3.191
90868W        W57277  21.192  29.166   0.024
90869W        W57278  10.373   1.939  13.770
90870W        W57279  30.375  13.297  13.639
90871W        W57280  33.014  36.352  12.957
90872W        W57281  30.720  19.057   3.113
90873W        W57282  26.486  25.184   4.213
90874W        W57283  24.629  36.715   1.426
90875W        W57284   7.475  43.050   2.163
90876W        W57285  36.885  16.579   2.397
90877W        W57286  29.847  44.737   0.914
90878W        W57287  40.890   9.220   0.653
90879W        W57288  27.782  23.095   3.244
90880W        W57289  37.768   0.761   4.844
90881W        W57290  40.786  27.365  14.108
90882W        W57291  38.151  23.593   0.269
90883W        W57292  44.176  35.425   2.105
90884W        W57293  18.349  37.408   2.793
90885W        W57294   1.724  41.168  10.749
90886W        W57295  39.410  29.371  14.565
90887W        W57296  16.969  36.183  10.264
90888W        W57297  33.542  22.274  14.597
90889W        W57298  17.085  35.430  11.517
90890W        W57299  22.780  25.648   5.027
90891W        W57300  38.848   6.768   3.818
90892W        W57301  20.449  12.253   0.217
90893W        W57302  43.720  13.202  13.873
90894W        W57303  42.835  43.196   1.006
90895W        W57304  42.754  21.901   4.633
90896W        W57305   8.413   0.654   4.126
90897W        W57306  10.617  31.158  14.788
90898W        W57307   0.900  42.912  11.553
90899W        W57308  14.682  22.704   1.875
90900W        W57309  26.449   6.028  14.478
90901W        W57310  18.119  31.472   3.419
90902W        W57311  25.134  16.341   4.855
90903W        W57312  22.249  14.741  11.703
90904W        W57313  25.035   9.646  13.361
90905W        W57314   5.759   8.216  10.632
90906W        W57315   8.222  13.892  13.010
90907W        W57316  31.134  39.777   1.296
90908W        W57317  16.294   9.121   4.225
90909W        W57318  30.515  20.750  12.521
90910W        W57319   9.429  25.488   2.382
90911W        W57320  15.625  38.924  11.845
90912W        W57321  42.108  43.838   0.730
90913W        W57322  38.281  31.157   4.037
90914W        W57323  35.766  34.681   0.251
90915W        W57324  14.813  24.978  10.952
90916W        W57325   7.257  34.086   2.469
90917W        W57326  44.948  27.614  11.095
90918W        W57327  42.890  13.366   5.027
90919W        W57328  39.989  21.603  13.322
90920W        W57329  18.300  38.435   3.764
90921W        W57330   7.624  28.135  12.166
90922W        W57331   6.220  27.428   2.797
90923W        W57332   4.985  31.001   0.371
90924W        W57333  31.401  23.549  10.909
90925W        W57334  23.853  22.508   3.062
90926W        W57335  19.267   3.194  14.450
90927W        W57336  11.135  36.539   1.979
90928W        W57337  34.429  30.465   2.600
90929W        W57338  12.159  44.045  10.279
90930W        W57339   1.472  40.841  12.562
90931W        W57340   7.917   8.066  11.123
90932W        W57341  31.052  25.474  13.898
90933W        W57342  31.493  27.192  12.655
90934W        W57343  44.451  43.229   1.711
90935W        W57344  38.371  35.318  13.999
90936W        W57345  42.714  37.654  10.719
90937W        W57346  17.338   2.983  12.828
90938W        W57347  10.238  23.064   2.545
90939W        W57348  40.893  27.516   2.311
90940W        W57349  40.926  43.287   4.554
90941W        W57350  40.466  30.925   3.152
90942W        W57351   5.933  15.043   3.667
90943W        W57352   6.517  37.959  11.455
90944W        W57353  23.256  36.038   0.351
90945W        W57354  22.322  32.945   4.197
90946W        W57355  24.601   8.459   1.407
90947W        W57356  25.668   6.414   0.876
90948W        W57357  17.802  40.869  13.191
90949W        W57358  33.028  18.145  12.442
90950W        W57359  26.414  16.633  12.081
90951W        W57360  38.940  31.343  11.992
90952W        W57361   7.156  20.239   0.922
90953W        W57362  42.815  29.720   0.689
90954W        W57363   0.281  44.859   2.618
90955W        W57364  15.608  26.572   0.342
90956W        W57365  14.403  15.630  14.074
90957W        W57366  33.391  36.392  10.427
90958W        W57367   9.967   3.257   2.333
90959W        W57368  16.364  33.834  13.506
90960W        W57369  42.042  33.254   1.375
90961W        W57370  20.790  11.700   1.756
90962W        W57371  40.640  37.245  13.439
90963W        W57372  35.058  10.451   3.722
90964W        W57373  11.990  14.719  14.428
90965W        W57374  25.064   8.669   2.132
90966W        W57375   6.923   3.966  14.833
90967W        W57376  19.847   4.332   4.180
90968W        W57377  18.135  41.259  11.926
90969W        W57378  31.606  22.781   3.620
90970W        W57379  44.783  20.973  13.976
90971W        W57380  27.785  17.779  13.716
90972W        W57381  41.347  15.192   3.877
90973W        W57382   0.456  31.115   1.653
90974W        W57383  29.642  32.714  12.176
90975W        W57384  40.800  15.165  11.528
90976W        W57385  30.598  41.027  13.512
90977W        W57386  41.694  30.549   0.923
90978W        W57387  31.279  15.692  14.441
90979W        W57388  26.208  44.724   1.179
90980W        W57389  15.539  39.131   0.320
90981W        W57390  21.143  39.523   2.906
90982W        W57391   0.958  36.271   3.358
90983W        W57392   4.637   6.785   1.271
90984W        W57393  19.645  28.474   3.840
90985W        W57394  17.304  35.606  11.969
90986W        W57395  28.612  38.240   3.238
90987W        W57396  37.035   2.921  12.550
90988W        W57397  37.870  18.805   0.296
90989W        W57398  24.031  32.638  12.999
90990W        W57399   2.574  12.902  13.333
90991W        W57400  23.116  32.463   0.779
90992W        W57401  22.064  21.964  14.215
90993W        W57402  10.862  10.993  12.648
90994W        W57403  40.806  26.969   3.321
90995W        W57404  44.870  24.544  14.141
90996W        W57405  37.016   9.892   4.649
90997W        W57406  13.283  18.193  12.448
90998W        W57407  31.132   6.649  11.247
90999W        W57408  30.623  24.487  11.168
91000W        W57409  19.555  10.715  12.915
91001W        W57410  18.809   4.573   4.464
91002W        W57411  10.881  41.624   0.152
91003W        W57412  30.100  11.399  10.663
91004W        W57413  17.666   4.428  11.936
91005W        W57414  36.547  42.100   2.703
91006W        W57415  21.675  14.638   0.077
91007W        W57416  10.107   6.237   2.559
91008W        W57417  21.677  24.187   0.893
91009W        W57418  19.635  16.819  12.000
91010W        W57419  40.248  26.592  10.285
91011W        W57420  11.629  34.519  11.094
91012W        W57421  21.550   7.509   2.724
91013W        W57422  35.895   0.598   2.312
91014W        W57423   7.228  31.283  11.176
91015W        W57424  36.452  25.459  12.417
91016W        W57425  16.446   7.432  14.853
91017W        W57426  39.209   1.766  14.012
91018W        W57427  44.738  31.863   0.298
91019W        W57428  27.180  28.694  13.891
91020W        W57429  24.385  21.666   0.335
91021W        W57430  38.623  44.701  14.944
91022W        W57431  26.987  22.078   2.143
91023W        W57432  20.290   2.880   3.173
91024W        W57433  34.475   0.334  13.270
91025W        W57434  12.121  29.400   0.155
91026W        W57435  21.194  43.575  11.399
91027W        W57436  34.486   6.105  11.047
91028W        W57437  40.247  27.273  14.705
91029W        W57438   5.909   1.606  10.417
91030W        W57439  22.240  20.418   0.576
91031W        W57440  16.203   2.897   1.721
91032W        W57441  13.235  29.006  11.507
91033W        W57442  14.916  39.027  10.646
91034W        W57443  43.273  41.234   4.602
91035W        W57444  22.915  16.692  13.762
91036W        W57445  21.610   7.706  11.232
91037W        W57446  24.939   1.542  14.060
91038W        W57447  17.966  38.536  12.114
91039W        W57448  32.053   9.174   2.783
91040W        W57449  44.705   7.899   2.830
91041W        W57450  30.994  41.267  12.492
91042W        W57451  44.964  32.131   2.307
91043W        W57452  34.564  43.931  11.143
91044W        W57453  26.293   5.264  14.828
91045W        W57454  24.533   2.628   4.594
91046W        W57455  32.860  23.408  10.745
91047W        W57456  18.811  14.410  11.251
91048W        W57457  20.436  13.199   0.288
91049W        W57458  20.047  11.591  13.772
91050W        W57459  35.490  33.613  13.995
91051W        W57460  30.923  34.364  10.605
91052W        W57461  40.109  26.680  13.023
91053W        W57462  30.721  34.882  13.457
91054W        W57463  18.571   9.192  14.086
91055W        W57464  10.879  20.783   2.383
91056W        W57465  44.063  15.638   0.418
91057W        W57466  36.847  24.271  12.121
91058W        W57467  22.118  29.610   1.726
91059W        W57468   3.291  22.487  11.555
91060W        W57469  40.981  29.960   3.858
91061W        W57470  18.857   5.655   4.673
91062W        W57471   9.394  22.744  12.176
91063W        W57472  34.735   2.856   0.770
91064W        W57473  19.597  27.435   2.702
91065W        W57474  37.173  15.740  13.853
91066W        W57475  37.343  34.644  12.102
91067W        W57476  10.278  22.639   0.372
91068W        W57477  16.432  29.006  11.710
91069W        W57478   8.621  17.466  12.492
91070W        W57479  43.926  10.065  11.255
91071W        W57480  17.632  34.287   1.861
91072W        W57481  10.926  40.036   2.181
91073W        W57482   6.962   2.118   2.629
91074W        W57483  36.099   3.950   4.361
91075W        W57484  41.839  40.852  14.284
91076W        W57485  25.890  37.090  14.276
91077W        W57486   7.796  10.695  13.048
91078W        W57487  41.853   8.582   3.176
91079W        W57488   9.216   2.975   1.457
91080W        W57489  19.516  29.172   1.621
91081W        W57490  14.165  30.491  11.255
91082W        W57491  27.924  27.486  11.543
91083W        W57492  38.410  30.373   2.806
91084W        W57493  27.682   0.759   3.863
91085W        W57494  24.156   4.449   3.676
91086W        W57495  39.014  20.928  11.460
91087W        W57496   6.289   7.231   3.540
91088W        W57497  37.496  19.568  14.987
91089W        W57498  14.249   0.003  14.248
91090W        W57499  19.114  10.772  14.546
91091W        W57500  30.632  44.896  11.953
91092W        W57501   8.770  31.068  13.046
91093W        W57502  19.141  21.593  10.457
91094W        W57503  41.767   6.716   3.525
91095W        W57504   7.654  42.624  12.372
91096W        W57505   0.458  41.377  12.834
91097W        W57506   8.130  25.233  13.331
91098W        W57507   2.029  34.137   1.174
91099W        W57508  10.297  34.251   5.282
91100W        W57509   0.352  37.717  12.555
91101W        W57510  21.273  19.451   5.193
91102W        W57511  42.606  20.028   2.188
91103W        W57512  30.440  37.929   4.151
91104W        W57513  23.197  31.629  11.648
91105W        W57514  42.476  43.021   0.506
91106W        W57515   1.258  30.489  11.139
91107W        W57516   1.927  18.715   3.198
91108W        W57517  29.335  34.453   2.715
91109W        W57518  18.650   1.457   1.143
91110W        W57519   8.011  30.435   5.084
91111W        W57520  44.234  41.476   4.499
91112W        W57521  35.480  27.366  12.944
91113W        W57522   2.445  15.079   3.366
91114W        W57523  26.486  35.135  13.036
91115W        W57524   9.134  22.629  14.674
91116W        W57525  20.152  27.292   4.281
91117W        W57526   7.936   6.416   1.361
91118W        W57527  39.522  44.036   3.786
91119W        W57528  34.251  17.735  14.331
91120W        W57529  44.767  26.601   3.951
91121W        W57530  22.000  39.361  13.386
91122W        W57531  35.934  25.860   0.451
91123W        W57532  22.630  31.440  12.559
91124W        W57533  31.553   7.826   4.607
91125W        W57534  10.197  28.138   3.988
91126W        W57535  33.698   2.914   0.999
91127W        W57536  31.869  17.803   2.486
91128W        W57537   7.858  27.488   4.139
91129W        W57538   7.826   8.301   2.708
91130W        W57539  43.674  22.441   0.399
91131W        W57540  18.248  44.322   0.441
91132W        W57541  38.804   8.083   0.395
91133W        W57542  32.987  20.607  12.201
91134W        W57543  12.684  23.634  14.394
91135W        W57544  33.566  19.218  11.078
91136W        W57545  35.104   0.655  13.080
91137W        W57546  37.277  10.091  12.198
91138W        W57547  16.522  33.281  11.343
91139W        W57548  18.580  16.360  13.868
91140W        W57549   5.316  11.325   2.638
91141W        W57550  15.980  15.636   2.823
91142W        W57551  10.534  40.361   9.973
91143W        W57552  40.488  31.116   3.657
91144W        W57553  41.914  30.130   1.165
91145W        W57554   5.994  13.376   1.191
91146W        W57555  16.751  41.995   1.179
91147W        W57556  11.272   7.946  11.022
91148W        W57557  20.123  18.190  11.576
91149W        W57558  10.317  22.944   3.074
91150W        W57559  15.457  42.950  14.710
91151W        W57560  42.950  16.150  11.341
91152W        W57561  20.714  25.312  11.000
91153W        W57562   8.841  13.072  10.549
91154W        W57563  10.248  10.985   0.947
91155W        W57564  29.669  25.127   0.421
91156W        W57565   5.973  10.117   1.832
91157W        W57566   6.887   1.220   0.703
91158W        W57567  42.065  25.210  11.018
91159W        W57568  16.334  21.734   2.130
91160W        W57569  14.134  37.257   1.278
91161W        W57570  42.006   4.905   0.256
91162W        W57571  11.343  13.769  10.475
91163W        W57572  19.245  10.123   1.340
91164W        W57573  38.911   5.220   4.167
91165W        W57574  41.874  25.100   1.109
91166W        W57575  14.929  31.914  13.479
91167W        W57576  29.099   4.037   3.900
91168W        W57577  27.678  38.915  13.148
91169W        W57578  31.038  19.361   2.770
91170W        W57579   9.498  26.811  12.407
91171W        W57580  17.254  42.693   2.214
91172W        W57581  17.689  23.107  11.586
91173W        W57582  17.103  37.803   2.312
91174W        W57583  26.072  43.096   1.980
91175W        W57584  19.924  33.268  11.751
91176W        W57585  23.347   9.840  11.560
91177W        W57586  37.887   0.390   5.152
91178W        W57587  36.594  23.147   0.769
91179W        W57588   2.451  34.840   2.220
91180W        W57589  28.038   8.255  13.625
91181W        W57590  34.418   1.538  11.543
91182W        W57591  28.176  38.842  14.287
91183W        W57592  17.252  15.163  12.077
91184W        W57593  27.680  42.896  11.185
91185W        W57594  27.381  30.527  12.386
91186W        W57595  44.182  25.446   3.722
91187W        W57596  14.682  26.205   4.888
91188W        W57597   2.213  36.904  13.833
91189W        W57598  41.146  18.469   0.578
91190W        W57599  28.998  12.606  14.325
91191W        W57600   0.508  12.171  11.134
91192W        W57601  25.722  40.409  11.165
91193W        W57602   6.546   1.706  12.943
91194W        W57603  27.118  23.892  14.251
91195W        W57604  23.110  27.451   1.018
91196W        W57605  39.639  37.970  10.602
91197W        W57606  15.912  39.439  14.024
91198W        W57607  36.046  15.132  10.904
91199W        W57608  38.013  35.385   0.312
91200W        W57609  12.163   8.108  14.608
91201W        W57610  21.566   2.875   4.127
91202W        W57611  37.569  39.991   2.331
91203W        W57612  44.274  17.762   1.984
91204W        W57613  24.956  29.656  13.779
91205W        W57614  17.056  13.861  14.812
91206W        W57615  15.260  14.307  10.362
91207W        W57616   5.860  33.901  10.773
91208W        W57617   3.199   2.643  13.955
91209W        W57618   5.281   3.368  13.758
91210W        W57619   9.689  28.372  14.564
91211W        W57620  42.405  44.911  14.610
91212W        W57621  21.713  29.144  14.807
91213W        W57622   9.496  29.577  11.435
91214W        W57623  26.412  37.333   1.391
91215W        W57624  38.743  14.087   2.192
91216W        W57625   5.373   2.497   1.797
91217W        W57626  36.550  35.287   2.212
91218W        W57627  26.388  21.208   0.085
91219W        W57628   8.665  43.768   3.720
91220W        W57629   2.900  22.232   0.443
91221W        W57630  37.287  26.225  13.842
91222W        W57631   1.719  37.544  14.356
91223W        W57632  44.316   9.415   2.359
91224W        W57633  19.468  15.698  10.108
91225W        W57634  16.118  26.242  14.018
91226W        W57635  23.948  30.382  12.083
91227W        W57636  25.163  15.939   4.489
91228W        W57637  22.203  33.211   3.714
91229W        W57638  10.690  41.100   3.616
91230W        W57639  41.546  14.588   1.345
91231W        W57640  37.112  36.359  13.356
91232W        W57641  44.473   9.755   0.826
91233W        W57642   4.959  30.554  10.637
91234W        W57643  28.672  27.129   2.593
91235W        W57644  14.100  16.254   4.389
91236W        W57645  10.756  36.303  12.948
91237W        W57646  21.008  44.546  12.106
91238W        W57647  16.814  37.015  10.130
91239W        W57648  13.130  22.930  11.189
91240W        W57649  14.320  38.451  13.855
91241W        W57650   9.791  41.490  13.337
91242W        W57651  33.428   0.237   4.685
91243W        W57652   1.316  26.179   2.100
91244W        W57653  35.504  25.820  14.969
91245W        W57654  10.322  44.780   4.527
91246W        W57655   3.117  41.277   2.957
91247W        W57656  44.393  15.768  11.685
91248W        W57657  13.545   6.949   3.159
91249W        W57658  20.742   1.947  14.911
91250W        W57659   5.771  23.884   1.657
91251W        W57660  22.550  38.972   2.424
91252W        W57661  33.246  21.533   2.550
91253W        W57662   2.333  18.332  11.184
91254W        W57663  25.021  37.471  12.652
91255W        W57664   3.926  19.253  10.689
91256W        W57665  33.962   8.088  14.905
91257W        W57666  13.661  30.458  11.988
91258W        W57667  41.085  25.573  14.318
91259W        W57668  19.256  33.238  10.601
91260W        W57669  36.971  41.356   0.796
91261W        W57670  37.499   4.692   0.259
91262W        W57671  33.355  27.665  10.855
91263W        W57672  35.521   7.871  12.437
91264W        W57673   4.535  34.827   1.342
91265W        W57674  23.029  34.810   3.936
91266W        W57675   1.983  12.284   0.802
91267W        W57676  39.919  41.497  11.991
91268W        W57677  12.295  17.276   0.614
91269W        W57678  25.690  16.076   2.721
91270W        W57679  39.990  33.162   1.663
91271W        W57680  38.896  38.113  11.571
91272W        W57681  24.235  32.354  11.176
91273W        W57682  42.388  10.309   1.175
91274W        W57683  11.963  13.540   1.079
91275W        W57684  28.984   1.398  13.915
91276W        W57685  11.243  34.671   3.987
91277W        W57686   2.648  20.478   4.195
91278W        W57687  36.878  41.409  11.500
91279W        W57688  21.673  16.678   1.268
91280W        W57689  40.046   7.111   3.242
91281W        W57690  36.089  41.815  14.070
91282W        W57691  28.176  10.791  13.911
91283W        W57692  41.569  31.356   4.596
91284W        W57693  23.877  35.403   4.101
91285W        W57694  42.552  38.454  10.785
91286W        W57695  21.136   9.103  10.565
91287W        W57696   7.178  39.986   0.795
91288W        W57697  29.408  14.058   0.801
91289W        W57698  43.150   2.885  13.427
91290W        W57699  13.169   0.793   4.002
91291W        W57700   7.741  15.604   4.531
91292W        W57701  28.971   4.500   1.624
91293W        W57702  17.479  39.110  11.430
91294W        W57703   2.282  39.399   3.418
91295W        W57704  20.108  41.978  11.528
91296W        W57705  13.208   0.119  12.496
91297W        W57706  21.974   5.376   1.208
91298W        W57707   4.832  37.621  12.039
91299W        W57708  13.895  29.567  10.923
91300W        W57709  41.327  39.299   3.361
91301W        W57710  24.817   9.643   0.478
91302W        W57711  18.231  37.100   0.720
91303W        W57712   5.752  35.994   4.466
91304W        W57713  22.949  18.425   3.580
91305W        W57714  19.216  41.717  11.964
91306W        W57715   3.896   2.817  10.883
91307W        W57716  19.130  29.491  13.195
91308W        W57717   0.300  24.804  13.331
91309W        W57718  37.791   6.330   4.987
91310W        W57719  18.268   0.922   3.137
91311W        W57720  43.490  40.021   4.150
91312W        W57721  30.175   3.284  12.004
91313W        W57722   9.820  39.614  12.941
91314W        W57723  36.015  37.344   0.709
91315W        W57724  23.279   8.729   2.214
91316W        W57725  26.021  44.416   4.852
91317W        W57726  29.141  44.550   4.519
91318W        W57727  25.817  18.020   3.852
91319W        W57728  32.350  25.894  14.252
91320W        W57729  32.404  22.498   1.818
91321W        W57730   0.832  26.706  11.160
91322W        W57731   9.888  39.570  14.328
91323W        W57732  11.755   7.743   1.974
91324W        W57733  20.675  37.058   1.471
91325W        W57734  11.337  18.884  13.974
91326W        W57735   6.034  40.928  13.511
91327W        W57736   0.983  33.364   1.383
91328W        W57737  17.521  41.821  13.987
91329W        W57738   2.821  43.054   1.398
91330W        W57739  25.873  40.263   1.650
91331W        W57740  20.189   7.103   0.932
91332W        W57741   1.468  13.179  14.615
91333W        W57742  20.617  16.413  14.735
91334W        W57743  32.455  33.716  11.424
91335W        W57744  25.195  34.458  14.962
91336W        W57745   4.209  12.785  12.190
91337W        W57746   5.315  27.159   0.267
91338W        W57747  39.433  27.215   2.039
91339W        W57748  29.327  29.161   1.651
91340W        W57749  14.855   1.373   1.802
91341W        W57750  32.307  41.379  14.339
91342W        W57751  24.093  43.238  11.017
91343W        W57752  26.925  11.668  12.905
91344W        W57753  41.495  40.991   4.594
91345W        W57754  23.262  15.593   0.793
91346W        W57755  30.817   1.854   1.723
91347W        W57756  32.663  10.137  12.261
91348W        W57757  22.962   8.095   2.746
91349W        W57758   2.456  32.948   2.206
91350W        W57759  39.350  33.838   2.889
91351W        W57760  40.805  11.264  10.710
91352W        W57761  31.801   2.050   3.305
91353W        W57762  16.008   5.409  13.184
91354W        W57763  26.258  25.947   3.552
91355W        W57764  37.602  28.954  14.418
91356W        W57765  12.393   6.704   4.535
91357W        W57766  19.723  29.448  14.029
91358W        W57767   6.637   4.770  12.877
91359W        W57768  39.234  13.246   9.751
91360W        W57769  32.474  24.018  14.965
91361W        W57770  35.073  43.576  13.963
91362W        W57771  35.842   4.392  11.142
91363W        W57772  43.409  36.442   4.613
91364W        W57773  35.116   0.357  14.372
91365W        W57774  40.051   8.618   2.838
91366W        W57775   0.775   4.883  11.071
91367W        W57776  14.322   1.734   1.478
91368W        W57777  10.210   2.246   4.938
91369W        W57778  10.390  33.888   0.960
91370W        W57779  31.365   3.625   0.470
91371W        W57780  39.324   1.451   0.796
91372W        W57781  28.750  41.256   2.690
91373W        W57782  11.102  39.562   2.360
91374W        W57783   6.901   3.288  11.117
91375W        W57784   2.978  27.123   4.636
91376W        W57785  12.344  19.909  10.181
91377W        W57786  16.960  38.886  10.052
91378W        W57787   3.404   7.318   3.208
91379W        W57788  10.124  44.681  13.295
91380W        W57789   8.263  19.211  13.356
91381W        W57790  34.918   7.469  11.208
91382W        W57791  30.807  26.260   4.048
91383W        W57792  39.321  22.906  10.670
91384W        W57793  26.101  29.711  11.088
91385W        W57794  44.481   2.381   4.045
91386W        W57795   5.372   0.187   1.271
91387W        W57796  17.046   4.975   2.255
91388W        W57797   1.002  12.690   3.708
91389W        W57798  41.993  36.510  12.697
91390W        W57799  29.924  35.222  11.684
91391W        W57800   8.585  40.471   3.656
91392W        W57801   9.297   5.219  14.023
91393W        W57802  24.051  13.089  11.229
91394W        W57803  18.998  40.862  10.802
91395W        W57804  43.868  37.799   0.050
91396W        W57805   0.923  24.735   2.156
91397W        W57806   7.884  17.989  14.917
91398W        W57807   7.356  34.449  14.009
91399W        W57808  37.641   4.831   3.172
91400W        W57809  34.441  21.863  13.970
91401W        W57810  36.177  21.114  14.855
91402W        W57811  37.537  32.405  11.766
91403W        W57812  35.515  10.677   3.893
91404W        W57813  38.988  34.934   2.785
91405W        W57814   4.219  37.408   1.758
91406W        W57815  34.104  39.812   2.258
91407W        W57816  43.689   0.075   2.518
91408W        W57817  11.740  36.131   3.123
91409W        W57818  24.052  32.978   0.334
91410W        W57819  15.858   3.212   0.885
91411W        W57820  12.490  21.062  13.138
91412W        W57821  24.558   1.067   2.355
91413W        W57822  26.010   2.343  11.959
91414W        W57823  14.104  19.315  11.600
91415W        W57824  40.722   1.286   3.198
91416W        W57825  19.206  40.045   4.416
91417W        W57826  26.387  33.735   2.246
91418W        W57827  35.591   8.848   3.645
91419W        W57828  20.753  36.945  10.919
91420W        W57829  11.871  41.293   4.175
91421W        W57830  10.325   6.097   2.107
91422W        W57831  44.227  29.145   3.642
91423W        W57832  37.962   7.551   4.103
91424W        W57833  17.344   5.930  11.427
91425W        W57834  28.745  37.788  11.974
91426W        W57835   0.954  27.466  11.476
91427W        W57836  27.529  41.938  10.757
91428W        W57837  23.272  27.207   2.031
91429W        W57838  20.530  14.305  13.045
91430W        W57839  37.231  26.730   1.794
91431W        W57840   8.789   9.630   4.577
91432W        W57841   7.876  13.367   1.901
91433W        W57842   0.693  40.122   2.747
91434W        W57843  17.404  23.050   0.761
91435W        W57844  37.631  34.475  12.519
91436W        W57845  37.576  28.482  12.120
91437W        W57846  12.629  25.700   2.317
91438W        W57847  15.797  27.873  10.631
91439W        W57848  13.671  34.527  11.060
91440W        W57849  12.185   8.152  14.079
91441W        W57850  36.793  35.413  11.147
91442W        W57851  26.063  38.909   1.700
91443W        W57852  21.454  38.528  11.019
91444W        W57853  18.923  22.259   0.570
91445W        W57854  36.501  15.123   3.743
91446W        W57855   5.835   2.184   1.910
91447W        W57856  12.775  38.544  12.442
91448W        W57857  17.870   5.350   0.202
91449W        W57858  36.984  41.833   2.102
91450W        W57859  40.208   3.908   4.158
91451W        W57860   6.967  37.692  11.417
91452W        W57861  16.598  30.094   0.961
91453W        W57862   1.232  23.210   0.015
91454W        W57863   9.693   1.341   4.127
91455W        W57864  44.460  16.962   4.565
91456W        W57865  35.330  28.315   3.309
91457W        W57866  40.654  35.486  12.136
91458W        W57867   0.407  33.516   2.924
91459W        W57868  33.947  26.374   3.683
91460W        W57869  17.292  43.371  12.673
91461W        W57870  31.117   1.433  11.512
91462W        W57871  28.924  21.179  10.451
91463W        W57872  24.137   1.972   0.500
91464W        W57873  32.484  44.255  11.441
91465W        W57874  19.314   0.895   4.050
91466W        W57875  36.540   7.267   4.225
91467W        W57876  36.052  25.235  11.459
91468W        W57877  18.589  15.685   0.595
91469W        W57878  14.585  38.024   2.130
91470W        W57879   9.596  10.389  11.181
91471W        W57880  22.378  41.094   3.692
91472W        W57881  42.043   1.066   3.765
91473W        W57882  44.911  10.911   4.717
91474W        W57883  36.322  40.911   4.325
91475W        W57884  30.576   7.346   1.342
91476W        W57885  25.802  29.668   2.269
91477W        W57886  29.633  17.994  12.360
91478W        W57887   5.878  41.939   0.763
91479W        W57888  33.840   9.649  14.162
91480W        W57889  43.822  31.538   0.377
91481W        W57890  27.031  24.045  14.738
91482W        W57891   5.653  36.416   1.176
91483W        W57892  22.453  39.387  10.531
91484W        W57893  26.525  21.303   3.667
91485W        W57894  34.450  19.247   1.386
91486W        W57895   8.615  22.282  13.790
91487W        W57896  28.718   4.012  14.944
91488W        W57897  44.771   2.216  13.172
91489W        W57898  27.719  26.521  12.888
91490W        W57899   6.320  10.846  13.081
91491W        W57900  33.654  24.125  14.651
91492W        W57901   2.160  39.574  11.634
91493W        W57902  16.251  25.199   2.051
91494W        W57903  43.305  11.714   0.733
91495W        W57904  32.011  12.695  10.686
91496W        W57905   2.577  15.446  12.600
91497W        W57906  24.893  23.264   2.612
91498W        W57907  37.608  23.462  10.816
91499W        W57908  42.077  22.411  10.067
91500W        W57909   9.773  18.797   2.411
91501W        W57910  27.509   6.466  12.977
91502W        W57911  28.491  31.908  10.746
91503W        W57912  15.773  16.386  11.868
91504W        W57913   7.152  37.022  10.682
91505W        W57914  20.337  35.745   0.372
91506W        W57915  19.322  36.009   2.433
91507W        W57916  13.196  21.028  14.268
91508W        W57917  37.376  19.137  11.055
91509W        W57918   4.486   4.282  13.861
91510W        W57919  40.478  17.866   0.221
91511W        W57920  30.320  13.848  12.972
91512W        W57921  31.310  31.708   0.394
91513W        W57922  13.869   2.121  10.673
91514W        W57923  11.203  13.082  14.539
91515W        W57924  13.110   3.990   1.044
91516W        W57925  32.480  33.563  11.899
91517W        W57926  18.680  30.228  13.753
91518W        W57927  42.026   6.283   4.241
91519W        W57928  16.871  34.174   2.009
91520W        W57929  37.237  43.992   0.367
91521W        W57930  44.799  28.385   1.926
91522W        W57931   2.720  43.553   3.115
91523W        W57932  10.256   9.644   0.856
91524W        W57933  24.157  41.018   4.956
91525W        W57934  13.443   1.924   0.376
91526W        W57935  29.263  33.673   0.939
91527W        W57936   5.781  35.060  11.671
91528W        W57937  24.228  40.371   2.598
91529W        W57938  36.874   0.424   2.729
91530W        W57939  42.298  32.934   0.371
91531W        W57940  19.792  37.520   0.324
91532W        W57941  42.707  20.481   2.423
91533W        W57942  27.066   1.264  13.013
91534W        W57943  38.311  13.405   1.167
91535W        W57944  16.354  21.626  13.044
91536W        W57945  24.033  10.349  13.814
91537W        W57946  30.683  29.167   2.705
91538W        W57947  36.678  21.346  13.074
91539W        W57948  29.151  42.100   2.297
91540W        W57949  10.374   8.301  11.014
91541W        W57950  19.011  38.404  12.018
91542W        W57951  37.808  12.254  12.540
91543W        W57952  10.986   2.386  12.036
91544W        W57953  44.428  37.430  10.026
91545W        W57954  43.299   7.692  14.467
91546W        W57955  30.653  19.192   4.063
91547W        W57956   8.207   0.856   2.819
91548W        W57957  38.875  24.238   2.748
91549W        W57958  33.242  29.101   4.340
91550W        W57959  29.960  43.240  14.952
91551W        W57960  26.831  20.774  10.938
91552W        W57961  40.689  35.033  14.294
91553W        W57962  32.894  33.829   4.731
91554W        W57963  21.602  44.858  12.639
91555W        W57964  44.952   5.970   1.623
91556W        W57965  19.276  30.915  11.884
91557W        W57966  25.376  13.606  13.495
91558W        W57967  43.217  24.387  14.856
91559W        W57968  21.419   7.522   0.878
91560W        W57969   7.196   0.238  13.501
91561W        W57970  43.768  32.016  12.107
91562W        W57971  37.445  39.516  14.974
91563W        W57972  41.282  22.569   2.335
91564W        W57973  29.692  10.722  12.833
91565W        W57974  15.039  32.970  14.514
91566W        W57975   7.218  15.720   2.854
91567W        W57976  25.147  34.566   1.407
91568W        W57977   3.895  44.483   0.983
91569W        W57978  27.586   5.519   2.226
91570W        W57979   1.584  30.256   4.178
91571W        W57980  15.503  13.717  12.006
91572W        W57981  40.559  10.515   1.302
91573W        W57982   8.669  13.817  14.402
91574W        W57983  35.108  15.247  14.478
91575W        W57984   1.742   3.841   4.878
91576W        W57985  33.154   1.698   1.751
91577W        W57986   1.381   6.126   0.432
91578W        W57987  14.577  14.339  13.044
91579W        W57988  44.025  37.480   0.471
91580W        W57989  31.094  14.717  10.540
91581W        W57990  20.828   2.883   3.281
91582W        W57991  39.353  15.703  11.040
91583W        W57992  35.491  33.634  12.064
91584W        W57993   9.368  39.128   1.805
91585W        W57994  26.770  37.397   2.721
91586W        W57995  44.162  43.536  13.114
91587W        W57996  25.126  19.976  14.261
91588W        W57997   5.320  26.632  10.913
91589W        W57998  35.581  27.984  13.960
91590W        W57999  40.856  25.154   4.758
91591W        W58000  30.328  14.740  11.092
91592W        W58001  32.866  30.468  14.334
91593W        W58002   9.823  37.282  14.939
91594W        W58003  29.119  28.004   1.082
91595W        W58004  26.578  20.210  11.853
91596W        W58005  10.640  41.312   2.732
91597W        W58006  11.109  43.200  11.148
91598W        W58007  34.611   9.228  13.841
91599W        W58008  36.018  30.415   1.624
91600W        W58009  22.062  39.921  13.587
91601W        W58010  11.092  44.827   2.930
91602W        W58011  36.124  37.787  12.208
91603W        W58012  21.672  42.283  13.596
91604W        W58013  15.715  37.844  10.782
91605W        W58014   1.189  33.863   0.576
91606W        W58015   5.955  18.134   4.066
91607W        W58016  42.646  21.050  11.651
91608W        W58017  30.881  33.872   3.417
91609W        W58018   1.052  44.792   0.753
91610W        W58019  33.473  35.851   4.135
91611W        W58020  30.954   0.939   4.748
91612W        W58021  41.115  25.703  13.449
91613W        W58022  26.559  33.231  12.333
91614W        W58023  38.868   8.625   2.659
91615W        W58024  44.256  35.713   2.954
91616W        W58025   2.396   4.867  14.969
91617W        W58026   6.338  17.111   3.348
91618W        W58027  33.010  13.211  12.582
91619W        W58028   2.099  34.894   4.494
91620W        W58029   7.434  21.500   1.349
91621W        W58030  40.152  26.202   4.719
91622W        W58031  29.843  28.967  11.084
91623W        W58032  20.074  22.299   1.382
91624W        W58033  19.544   2.436   0.825
91625W        W58034  44.796   0.513  13.569
91626W        W58035  43.848  10.889   1.844
91627W        W58036  25.124   7.640  14.921
91628W        W58037  22.473  38.996   2.930
91629W        W58038  23.029  27.610  13.991
91630W        W58039  30.850  23.420  12.906
91631W        W58040   1.134  20.188   1.411
91632W        W58041  44.692  20.953   2.711
91633W        W58042  26.620  41.225  13.885
91634W        W58043  31.505  17.390   4.554
91635W        W58044  39.311  11.560  10.648
91636W        W58045  40.067  43.574  13.812
91637W        W58046   9.707  15.664  13.266
91638W        W58047  25.826  33.806   1.293
91639W        W58048  30.260  10.325   1.337
91640W        W58049   4.331  23.559   0.835
91641W        W58050  10.739   7.920   2.988
91642W        W58051  41.995  18.128  10.755
91643W        W58052  37.045  13.929   2.961
91644W        W58053  44.268  44.012   3.104
91645W        W58054   6.288  42.122  13.997
91646W        W58055  41.330  25.001  11.620
91647W        W58056  26.032  27.040   1.518
91648W        W58057  31.387  27.365  11.059
91649W        W58058   6.674   4.410  10.756
91650W        W58059  23.967  13.690   0.948
91651W        W58060  30.480  37.221  13.449
91652W        W58061  21.541   4.328  10.127
91653W        W58062  11.423  13.424   1.760
91654W        W58063  24.145  28.665   2.629
91655W        W58064  25.924  42.052   0.602
91656W        W58065  30.157  43.754  12.765
91657W        W58066  38.514  31.836   0.525
91658W        W58067   5.292  10.741   1.302
91659W        W58068  10.490  26.097  13.991
91660W        W58069  42.322  34.128   2.369
91661W        W58070  33.951  32.485   0.301
91662W        W58071  42.408   6.930   0.698
91663W        W58072  29.956  38.500   0.668
91664W        W58073  24.708  34.566   1.782
91665W        W58074  36.169  39.845   1.851
91666W        W58075  36.548  16.742   1.694
91667W        W58076  32.913   0.033  10.685
91668W        W58077  41.898   4.395   0.256
91669W        W58078   9.752  20.023  14.688
91670W        W58079  25.970  20.206  11.111
91671W        W58080  21.859   1.565   3.124
91672W        W58081  39.091  19.182  11.945
91673W        W58082  19.987  44.223   1.374
91674W        W58083  19.510  25.163   0.833
91675W        W58084  35.912  35.338  11.203
91676W        W58085  28.621  37.672  13.898
91677W        W58086   4.845  25.606  14.109
91678W        W58087  12.249   9.218   1.053
91679W        W58088  30.548   8.711  12.979
91680W        W58089  36.463  42.921  14.149
91681W        W58090   9.614  19.741   0.175
91682W        W58091  25.113  22.554   4.574
91683W        W58092  30.699  44.838   2.254
91684W        W58093  10.633  23.154  13.616
91685W        W58094  14.464  18.268   4.108
91686W        W58095  27.230  10.645   4.119
91687W        W58096  41.205  16.659  11.605
91688W        W58097  18.516   5.232  11.620
91689W        W58098  28.570  22.297   1.732
91690W        W58099   3.451   8.326   4.169
91691W        W58100  24.186   4.693   0.402
91692W        W58101  37.325   9.145   4.835
91693W        W58102  32.749  32.281  10.201
91694W        W58103  25.611  29.893  14.932
91695W        W58104  16.779   4.419   2.409
91696W        W58105  42.951   0.073  11.939
91697W        W58106  44.705  29.967  13.460
91698W        W58107  43.207  23.763   3.884
91699W        W58108  16.531  37.026   3.731
91700W        W58109  36.843  17.174  10.304
91701W        W58110  22.996  43.332   4.331
91702W        W58111  24.759  16.022   2.579
91703W        W58112  11.656  35.301  13.066
91704W        W58113  15.159  36.065   2.696
91705W        W58114  28.513   9.244  12.036
91706W        W58115  37.809  26.730  11.248
91707W        W58116  42.828  21.989  11.085
91708W        W58117  15.281  13.729  13.829
91709W        W58118  11.590  26.905   4.520
91710W        W58119  31.393   6.454  12.980
91711W        W58120   1.315   0.253   0.969
91712W        W58121   1.361  10.603  14.801
91713W        W58122  29.126   4.205   1.223
91714W        W58123  37.384   0.780   3.044
91715W        W58124  21.909  35.577  11.653
91716W        W58125   0.335  25.576   1.988
91717W        W58126   9.100  15.962   9.834
91718W        W58127  44.220  30.083   0.327
91719W        W58128  14.683  24.923   0.835
91720W        W58129  35.502   3.300   4.518
91721W        W58130  37.503  26.286   3.150
91722W        W58131  26.091  25.408  14.587
91723W        W58132  27.964   7.954   3.974
91724W        W58133   1.000  35.544  11.983
91725W        W58134  14.576  21.666   2.761
91726W        W58135   1.246  28.008  11.570
91727W        W58136  43.481  40.334  10.714
91728W        W58137  33.931  28.005   2.602
91729W        W58138   8.759  25.489   1.730
91730W        W58139   0.254  36.017   1.785
91731W        W58140  13.808  20.727   2.148
91732W        W58141  10.087  35.226  12.028
91733W        W58142  14.102  15.229   0.181
91734W        W58143   2.935  38.510  13.854
91735W        W58144  29.427   8.436  11.007
91736W        W58145  38.754  23.022  12.489
91737W        W58146  41.234  30.362   3.649
91738W        W58147  40.476  12.425  14.973
91739W        W58148  37.368  32.462   4.744
91740W        W58149  11.207  33.392  13.448
91741W        W58150  21.945  16.313   0.768
91742W        W58151  30.491  10.596  13.905
91743W        W58152  42.612   1.349  12.171
91744W        W58153  36.622  33.662  11.418
91745W        W58154  23.644   8.852  13.285
91746W        W58155   6.378  15.309  12.512
91747W        W58156  42.032  11.213  13.157
91748W        W58157  32.726   9.276   3.346
91749W        W58158  37.584   7.698   3.779
91750W        W58159   0.231  30.111  14.472
91751W        W58160   5.358   4.006  13.035
91752W        W58161  36.639  26.098   1.262
91753W        W58162  14.399  37.314   3.705
91754W        W58163  33.889  22.227  10.626
91755W        W58164   3.821  10.928   1.778
91756W        W58165   2.869  34.565  12.188
91757W        W58166  14.419  31.620   1.426
91758W        W58167   0.801  11.814  10.846
91759W        W58168  18.936   3.677  13.076
91760W        W58169  25.533  38.544  14.271
91761W        W58170   8.666  38.472  13.143
91762W        W58171  43.500  16.846  12.071
91763W        W58172  13.251   8.711   4.129
91764W        W58173  28.088  17.471   4.536
91765W        W58174   0.434  22.092   1.494
91766W        W58175   4.523  23.114  14.478
91767W        W58176  31.601   1.248   3.126
91768W        W58177   8.321   8.440  12.710
91769W        W58178  22.457  14.256  11.568
91770W        W58179  38.309  32.060   1.860
91771W        W58180  44.555  11.274   4.759
91772W        W58181  41.069  18.285  13.354
91773W        W58182  42.008  23.194  13.474
91774W        W58183   8.775  38.570   1.008
91775W        W58184  17.868  20.732  10.748
91776W        W58185  17.157  23.275   2.606
91777W        W58186  19.658  14.061   5.136
91778W        W58187  23.993  10.826  14.957
91779W        W58188  23.425  30.973   3.229
91780W        W58189  27.110  22.304  14.055
91781W        W58190   7.658  19.730   2.592
91782W        W58191  19.233  41.582   0.477
91783W        W58192  25.258  42.586   3.719
91784W        W58193  29.187  12.114  14.815
91785W        W58194   7.429  29.868   3.841
91786W        W58195  18.905  28.453  14.918
91787W        W58196  27.193  13.846   2.194
91788W        W58197  25.580  30.677  10.770
91789W        W58198  39.606   4.273   0.795
91790W        W58199  26.188  20.634  11.705
91791W        W58200  36.786  19.642  12.947
91792W        W58201   4.426  10.640   3.873
91793W        W58202  23.469  41.418  14.821
91794W        W58203  20.176  43.418   3.812
91795W        W58204   7.209  24.528   0.212
91796W        W58205  25.577  28.035  13.801
91797W        W58206  35.360  13.102   4.263
91798W        W58207   6.318   3.956   2.554
91799W        W58208   1.624  44.731  12.082
91800W        W58209  41.341  25.705  11.224
91801W        W58210  41.006  43.268  11.880
91802W        W58211  21.563  16.301  10.616
91803W        W58212  12.168  32.358   5.627
91804W        W58213  30.155  27.403   2.823
91805W        W58214  21.540  26.727  12.965
91806W        W58215  19.725   0.241  14.973
91807W        W58216   4.757  19.091  10.906
91808W        W58217  28.825   5.906  13.879
91809W        W58218  27.506  27.838  11.467
91810W        W58219  44.727  26.198  14.274
91811W        W58220  20.973   5.162   3.754
91812W        W58221   8.853  25.677   0.166
91813W        W58222  36.565  24.554  13.448
91814W        W58223  38.320  11.779  12.466
91815W        W58224   9.421  10.565   3.282
91816W        W58225  41.009   1.442   4.017
91817W        W58226  38.281  18.421   1.780
91818W        W58227  43.394  27.563  12.989
91819W        W58228  26.095  12.347   3.227
91820W        W58229   1.814  42.580   1.448
91821W        W58230   5.637  30.143  13.442
91822W        W58231  15.644  36.240  12.632
91823W        W58232   8.965  16.567   2.246
91824W        W58233   8.181  39.311  13.460
91825W        W58234   3.920   1.731   1.508
91826W        W58235  38.859   9.243   1.721
91827W        W58236   9.460  30.160  11.323
91828W        W58237   5.325  30.415   2.696
91829W        W58238  38.527  38.283  12.966
91830W        W58239  36.135  30.418  10.671
91831W        W58240  19.557  10.087   0.333
91832W        W58241   4.273  27.871  11.993
91833W        W58242  28.638  13.139  11.634
91834W        W58243  36.345  16.278  11.460
91835W        W58244   8.159  36.396  13.399
91836W        W58245  42.250   4.332  12.412
91837W        W58246  26.497  26.126  12.943
91838W        W58247  18.816   1.553  13.345
91839W        W58248  28.362   7.619   0.358
91840W        W58249  44.439  31.317   3.830
91841W        W58250  12.573  34.869  11.467
91842W        W58251  15.213  29.679  10.771
91843W        W58252  19.430  29.394  11.112
91844W        W58253  40.792  37.060  12.986
91845W        W58254  36.900  12.549  14.028
91846W        W58255  44.365  44.632   0.322
91847W        W58256  18.697  17.135  11.859
91848W        W58257  15.841  35.437   2.704
91849W        W58258  15.445  38.187   4.092
91850W        W58259  31.140  44.749  10.658
91851W        W58260  28.349  10.638  14.443
91852W        W58261  12.925  12.275   2.493
91853W        W58262  19.212  34.058   2.213
91854W        W58263  16.612  32.367   3.189
91855W        W58264  38.608   8.875  11.187
91856W        W58265  36.129  17.823  14.357
91857W        W58266   5.307  19.789   2.167
91858W        W58267  20.183  29.070  10.715
91859W        W58268  10.215  16.622   0.701
91860W        W58269  10.900  25.195  11.681
91861W        W58270  26.699  24.716  14.309
91862W        W58271   5.996  34.154  11.761
91863W        W58272  25.746  30.974  14.514
91864W        W58273  42.570   2.429  11.673
91865W        W58274  31.905  12.745   2.972
91866W        W58275   1.884   3.317  10.736
91867W        W58276  44.236  24.821   0.944
91868W        W58277  20.521   9.676  14.918
91869W        W58278  10.766   9.678  14.788
91870W        W58279  13.010  28.046  14.267
91871W        W58280  20.623   6.815   0.810
91872W        W58281   1.374  30.612  13.550
91873W        W58282  27.432  18.690   4.092
91874W        W58283  28.108  18.209   0.020
91875W        W58284   5.045  35.304  11.855
91876W        W58285  29.897  13.313  13.442
91877W        W58286  42.298  24.672   4.013
91878W        W58287   7.254  23.251   0.823
91879W        W58288  32.172  40.620   2.789
91880W        W58289  28.525   9.099  12.552
91881W        W58290  43.109  29.336  10.336
91882W        W58291   2.965   3.395   2.083
91883W        W58292  19.335  18.730  14.426
91884W        W58293  32.028   1.839  10.575
91885W        W58294  10.009  13.838   2.067
91886W        W58295  28.058  19.930  13.907
91887W        W58296  21.658  20.747   3.698
91888W        W58297  34.448  10.362   4.947
91889W        W58298   2.335  41.868  12.661
91890W        W58299  18.298  42.937  14.886
91891W        W58300  17.213   3.930  13.779
91892W        W58301  33.518  33.987   0.356
91893W        W58302   2.004   9.990   1.093
91894W        W58303  26.952   5.662   0.947
91895W        W58304  17.686  41.065  11.214
91896W        W58305  39.744  16.721   3.127
91897W        W58306  33.149  23.949   0.867
91898W        W58307  24.036  18.692  13.316
91899W        W58308  12.194  17.043  14.628
91900W        W58309   9.350  26.138   0.863
91901W        W58310   6.962   4.770  13.921
91902W        W58311  14.338   6.181   0.395
91903W        W58312  34.023  13.183  10.566
91904W        W58313  12.108  20.501  11.985
91905W        W58314  19.861  41.449   0.770
91906W        W58315  14.235  11.846  10.933
91907W        W58316   3.087   1.992   2.344
91908W        W58317  37.946  24.050   4.491
91909W        W58318  37.541  10.677  10.606
91910W        W58319  30.588  41.381  11.633
91911W        W58320   6.150  11.257   4.253
91912W        W58321  39.472  18.220   3.587
91913W        W58322  37.300  29.108   3.458
91914W        W58323  12.215  32.082  14.888
91915W        W58324  13.820  32.252  11.012
91916W        W58325  17.224  19.059   4.129
91917W        W58326  25.993  16.333   3.431
91918W        W58327  41.763  13.723  11.945
91919W        W58328  10.636   8.769   0.365
91920W        W58329  10.162  27.960   2.691
91921W        W58330  15.128  40.492   4.609
91922W        W58331  25.784   8.652  12.660
91923W        W58332  41.274  36.913  12.089
91924W        W58333  16.404  23.056  14.045
91925W        W58334  34.344  43.974   4.525
91926W        W58335  15.023  42.516  14.223
91927W        W58336  24.251  12.154   1.829
91928W        W58337  33.333  24.350   1.701
91929W        W58338  26.895  31.456   2.673
91930W        W58339  39.232  12.303  12.043
91931W        W58340  25.474  42.462   4.525
91932W        W58341  35.124   3.805  10.442
91933W        W58342  43.309  24.551  13.327
91934W        W58343  11.398  27.373   4.404
91935W        W58344  35.857   7.871  10.759
91936W        W58345   0.886  20.574   1.718
91937W        W58346  30.913   0.081  13.000
91938W        W58347  24.118  15.642  12.541
91939W        W58348  13.968  18.087   4.092
91940W        W58349  25.131  22.161   0.292
91941W        W58350  21.485  14.427  11.627
91942W        W58351  18.178  15.576  10.874
91943W        W58352  20.790   5.261   2.386
91944W        W58353  10.809   3.934  11.178
91945W        W58354  37.639  23.081   1.846
91946W        W58355  18.557  31.223   0.943
91947W        W58356   2.264  44.465  13.467
91948W        W58357  19.129  12.618   4.122
91949W        W58358  37.608  27.685   4.226
91950W        W58359  14.141  32.031   3.205
91951W        W58360  41.514  36.092  12.095
91952W        W58361  14.032  34.067  12.114
91953W        W58362  24.005  26.720   2.577
91954W        W58363  44.039  21.001   2.313
91955W        W58364   5.815  33.319  12.383
91956W        W58365  27.241  24.219  11.185
91957W        W58366   9.237  38.000   0.005
91958W        W58367  24.231   7.225  11.219
91959W        W58368  23.585  23.909   3.204
91960W        W58369  10.085   8.045  11.565
91961W        W58370  38.761  11.562  12.611
91962W        W58371   8.637  37.560   0.740
91963W        W58372  31.814  21.676   5.011
91964W        W58373  19.038   2.842  10.700
91965W        W58374  12.193  33.422   3.518
91966W        W58375  11.484  36.579   3.782
91967W        W58376  18.281  40.532   1.858
91968W        W58377  42.567  30.577  11.276
91969W        W58378  29.868  30.911   2.090
91970W        W58379  41.224  23.627   3.531
91971W        W58380  14.542  36.428  11.515
91972W        W58381   1.655  37.362  11.579
91973W        W58382  36.128  39.983   4.634
91974W        W58383   8.116  21.527   2.768
91975W        W58384  35.052  13.401  11.309
91976W        W58385   9.354  37.772   0.971
91977W        W58386  21.080  23.691   4.098
91978W        W58387  27.662  28.657  14.572
91979W        W58388  39.877  26.016  14.504
91980W        W58389  27.976  39.473  13.741
91981W        W58390   3.968   6.864   2.368
91982W        W58391  13.749  38.380   0.027
91983W        W58392   5.190   4.854  11.202
91984W        W58393  19.565   2.689  11.562
91985W        W58394  39.255  35.009  14.018
91986W        W58395  15.239  43.438   4.216
91987W        W58396  33.559  14.502  11.615
91988W        W58397  38.427  21.267   4.550
91989W        W58398  34.858  29.971  11.107
91990W        W58399  25.964   2.484  11.432
91991W        W58400  21.619  37.546  11.568
91992W        W58401  28.123  17.150   1.928
91993W        W58402  13.743  20.302   3.726
91994W        W58403   8.898  28.426   1.079
91995W        W58404  29.518  25.926  13.434
91996W        W58405  18.457  29.760  11.126
91997W        W58406   4.580  24.593   2.320
91998W        W58407  34.948  40.563   1.788
91999W        W58408   4.759  44.154   0.808
92000W        W58409  26.045  13.117   4.061
92001W        W58410  16.396   7.272  12.940
92002W        W58411  38.062  14.286   2.047
92003W        W58412   3.255  24.228  13.142
92004W        W58413  31.192  26.695  11.531
92005W        W58414   8.735   0.189   2.883
92006W        W58415  34.078   3.433  13.243
92007W        W58416  32.995  15.346   1.625
92008W        W58417  30.140   7.092   1.221
92009W        W58418   2.837  21.534   4.023
92010W        W58419  15.003  22.320  12.903
92011W        W58420  36.306  30.422  14.862
92012W        W58421  14.759  37.597   1.520
92013W        W58422   7.800  23.864  10.045
92014W        W58423  21.099  25.485   4.338
92015W        W58424  34.900  23.257   2.738
92016W        W58425  30.390  44.844   1.776
92017W        W58426  32.291  10.078   9.834
92018W        W58427   4.611  19.597  13.494
92019W        W58428  24.342   1.060   3.831
92020W        W58429  12.082   5.795  12.040
92021W        W58430  39.114  32.994   1.050
92022W        W58431  38.642  16.077   2.217
92023W        W58432  32.173  43.618  10.661
92024W        W58433  44.424  41.746   1.626
92025W        W58434  23.521  20.812   0.963
92026W        W58435   7.506  21.981   2.206
92027W        W58436  44.036  20.479   2.311
92028W        W58437  18.618  30.568   0.029
92029W        W58438  32.026  10.004  14.360
92030W        W58439  38.505  35.177   2.706
92031W        W58440  38.580   1.869   1.839
92032W        W58441   9.612  39.555   3.627
92033W        W58442  37.111  43.076  14.459
92034W        W58443  14.260  27.767  13.032
92035W        W58444  36.199  15.854  12.018
92036W        W58445   5.261  30.211  13.006
92037W        W58446   3.941  25.376  14.272
92038W        W58447  13.794   4.853  13.911
92039W        W58448   4.926  40.277  14.187
92040W        W58449  44.677  10.668   2.234
92041W        W58450  23.622   4.366  14.923
92042W        W58451  19.853  42.936  11.662
92043W        W58452  25.834  27.071  12.455
92044W        W58453  11.635  39.489   2.343
92045W        W58454   3.214  19.881  12.504
92046W        W58455   1.325  28.045  14.834
92047W        W58456  10.813  30.399  14.976
92048W        W58457  14.317  36.262   5.519
92049W        W58458  28.103  15.313  13.256
92050W        W58459   4.850  40.543  12.693
92051W        W58460  13.642   7.840  14.394
92052W        W58461  21.268  16.378   1.490
92053W        W58462   3.291  12.932  14.343
92054W        W58463  33.795  25.135   0.857
92055W        W58464  17.603  16.731  13.754
92056W        W58465  10.810  13.876   3.751
92057W        W58466  16.301  25.908   1.298
92058W        W58467  44.035  39.066  12.118
92059W        W58468   3.731   9.720  10.776
92060W        W58469  43.880  12.810  13.005
92061W        W58470  37.440   2.461  12.048
92062W        W58471   2.873  23.083  14.465
92063W        W58472  16.217  13.618  14.339
92064W        W58473  35.033  43.098   4.005
92065W        W58474  38.078  20.748  12.509
92066W        W58475   0.813   4.725  11.985
92067W        W58476  41.306   9.618  12.984
92068W        W58477   3.799  23.890   4.618
92069W        W58478  19.542  28.964  14.888
92070W        W58479  18.778  40.346   4.228
92071W        W58480  27.449   5.076  11.421
92072W        W58481  32.485   0.293   5.019
92073W        W58482  26.151  24.594   1.749
92074W        W58483   8.972  37.367  13.895
92075W        W58484   3.026  18.464   4.104
92076W        W58485  15.304  30.216  13.857
92077W        W58486  10.140   5.813   0.265
92078W        W58487  42.881   8.318   2.347
92079W        W58488  40.478   4.690   1.415
92080W        W58489  43.701  25.474   1.208
92081W        W58490  44.060  28.627  12.516
92082W        W58491   6.250  10.405   0.243
92083W        W58492  33.971  36.435  14.042
92084W        W58493   2.793  31.174   1.655
92085W        W58494  28.151   9.881   1.745
92086W        W58495  43.762   1.875   3.768
92087W        W58496  15.073  20.762  14.792
92088W        W58497  19.276  20.168  12.041
92089W        W58498  21.177  41.491   3.728
92090W        W58499  16.992  42.567  10.521
92091W        W58500   8.224   8.245  14.896
92092W        W58501  41.510  20.147  14.171
92093W        W58502  37.865  42.893  13.798
92094W        W58503  41.157  33.433  12.584
92095W        W58504  30.725  31.709  10.684
92096W        W58505  40.952  28.473  13.460
92097W        W58506  26.428  14.606  12.673
92098W        W58507   8.070  11.682   2.739
92099W        W58508  42.456   4.702   2.867
92100W        W58509   0.876  16.136   2.798
92101W        W58510  36.381   4.077   3.936
92102W        W58511  18.135  20.101   1.263
92103W        W58512  25.136  11.808  10.603
92104W        W58513   4.016  24.586   0.329
92105W        W58514  20.364   2.927  12.980
92106W        W58515  11.130   3.406  12.897
92107W        W58516   7.647  30.142   3.335
92108W        W58517  17.807   6.342  12.699
92109W        W58518   6.068  21.934   5.491
92110W        W58519   5.895  20.365   2.744
92111W        W58520  25.255  37.416  14.904
92112W        W58521  18.613  34.036   3.312
92113W        W58522  30.622  10.461   5.092
92114W        W58523   2.263  41.008   0.527
92115W        W58524  22.749  23.741   4.589
92116W        W58525   6.814  15.603  12.420
92117W        W58526  39.953  40.804  11.190
92118W        W58527  20.804  15.588   0.309
92119W        W58528  15.798  40.045  10.187
92120W        W58529  18.603  28.010   3.172
92121W        W58530  30.463  20.542   3.516
92122W        W58531  19.167  13.097   4.702
92123W        W58532  44.271  24.303   2.235
92124W        W58533   2.685  20.310  14.831
92125W        W58534  36.392  40.413  13.102
92126W        W58535  44.792  17.382   3.222
92127W        W58536  38.527  42.250  13.859
92128W        W58537  27.122   8.404   1.777
92129W        W58538  12.852  28.682  13.359
92130W        W58539   7.792  18.198   3.722
92131W        W58540  21.664  17.236   4.017
92132W        W58541  16.287  44.926   4.079
92133W        W58542  27.710  17.636   1.051
92134W        W58543   1.350  27.350   1.464
92135W        W58544  12.574  40.545   2.787
92136W        W58545  21.730  43.937   2.340
92137W        W58546  32.142  32.415   1.406
92138W        W58547   4.309  14.710  14.251
92139W        W58548  28.437  24.472  10.663
92140W        W58549  12.459  43.155   4.154
92141W        W58550  42.029   5.197  14.252
92142W        W58551  30.037  19.091  12.058
92143W        W58552   9.179   3.805  14.307
92144W        W58553  25.666   1.017  12.598
92145W        W58554   5.244  12.833  12.993
92146W        W58555   2.331   8.147  13.115
92147W        W58556  30.467   7.969   4.140
92148W        W58557   0.795  18.836   1.472
92149W        W58558  28.399  11.348   1.899
92150W        W58559  28.473  16.661   4.594
92151W        W58560  31.116  13.807  11.910
92152W        W58561  21.780   7.216   4.994
92153W        W58562   8.775  21.079   2.971
92154W        W58563  38.878   1.984   3.817
92155W        W58564   0.033   7.818  14.878
92156W        W58565  30.143   6.511  14.112
92157W        W58566  35.586  21.257  11.279
92158W        W58567  22.602  10.665   1.975
92159W        W58568  37.876  16.064   1.553
92160W        W58569  30.351  36.885   4.890
92161W        W58570  12.310   8.386  11.814
92162W        W58571  14.192  15.841   2.525
92163W        W58572  42.338  19.570   2.831
92164W        W58573  34.149   1.952   4.713
92165W        W58574   8.408  26.936   1.356
92166W        W58575  37.324  38.522  12.452
92167W        W58576  21.034   3.818   1.727
92168W        W58577  27.066  36.723   1.609
92169W        W58578  33.101  27.421  14.388
92170W        W58579  23.494  35.957  14.868
92171W        W58580  19.777  25.124  11.313
92172W        W58581  16.601  39.283   1.250
92173W        W58582  16.537  11.313   3.297
92174W        W58583  15.526  37.891   1.700
92175W        W58584  43.062  22.077  13.507
92176W        W58585  20.114  17.097   0.645
92177W        W58586  32.852  17.714  14.305
92178W        W58587  28.182  26.741  12.803
92179W        W58588   7.146  22.630  12.835
92180W        W58589  35.027  14.518   4.847
92181W        W58590  17.660  32.688  14.454
92182W        W58591  13.719  30.170   1.232
92183W        W58592  33.365  13.101  13.059
92184W        W58593  22.863  12.197  12.943
92185W        W58594  36.841  20.038  11.218
92186W        W58595  37.945  43.405  12.088
92187W        W58596   9.808  21.395  12.211
92188W        W58597  15.112   9.306  13.168
92189W        W58598  42.117  22.128   0.389
92190W        W58599  10.288  36.108  13.128
92191W        W58600  18.474  41.036   3.557
92192W        W58601   8.396   8.214  12.255
92193W        W58602  31.027  22.487  13.875
92194W        W58603  33.507  24.264  10.870
92195W        W58604  42.708  30.112   0.277
92196W        W58605  18.257  29.008   0.409
92197W        W58606  35.375  12.031   0.425
92198W        W58607  27.739   2.055   3.175
92199W        W58608  16.324  24.274  11.103
92200W        W58609  20.907  25.228   2.376
92201W        W58610  43.044  20.543  14.107
92202W        W58611   5.374  11.328  13.283
92203W        W58612   3.850  22.535  14.371
92204W        W58613  25.096  20.574  10.915
92205W        W58614  24.531  37.571   1.876
92206W        W58615   2.000   7.831  12.486
92207W        W58616  39.249  25.091  11.673
92208W        W58617  36.156  22.628  11.712
92209W        W58618  38.173   1.852  12.214
92210W        W58619  39.975  20.610  10.356
92211W        W58620  24.200  31.010   2.345
92212W        W58621  15.056  15.321   0.492
92213W        W58622   5.884  26.195  13.317
92214W        W58623  36.375  41.461  14.683
92215W        W58624  23.028  20.523  10.941
92216W        W58625  18.226  39.005  12.883
92217W        W58626   1.774  29.859  13.320
92218W        W58627   0.349  28.740   3.246
92219W        W58628  27.452  19.162  13.761
92220W        W58629  20.156   9.290  11.878
92221W        W58630  11.793  19.906  13.190
92222W        W58631   8.103  18.838   2.224
92223W        W58632   5.265  19.889   5.105
92224W        W58633  27.218  30.128  12.091
92225W        W58634  31.931  43.663  14.397
92226W        W58635  38.544  34.288  14.090
92227W        W58636   8.793  21.971   3.786
92228W        W58637  24.752  34.084   4.113
92229W        W58638  10.127  30.027   0.327
92230W        W58639  44.001   7.353  12.392
92231W        W58640   7.259  38.725  14.289
92232W        W58641  19.104  16.664  12.921
92233W        W58642  21.671  28.720   2.662
92234W        W58643  36.848  23.532  14.879
92235W        W58644  27.174  17.303   0.357
92236W        W58645  11.974  41.286  10.906
92237W        W58646  22.735  41.809  13.475
92238W        W58647   6.202  28.686  12.124
92239W        W58648  23.998  29.890   0.672
92240W        W58649  26.608  10.904  12.004
92241W        W58650  43.903  11.836   2.338
92242W        W58651  12.234   5.033   3.476
92243W        W58652  11.662   2.886   2.158
92244W        W58653  18.646  11.387  12.991
92245W        W58654  42.378   4.519  14.469
92246W        W58655  12.606  10.309   4.140
92247W        W58656  35.395  41.359  11.595
92248W        W58657  37.328   8.142   0.233
92249W        W58658  18.582  26.722  10.412
92250W        W58659  20.032  22.998  11.617
92251W        W58660  26.224  17.597  12.281
92252W        W58661   4.864  24.737   9.904
92253W        W58662   1.680  21.335  14.824
92254W        W58663  17.071  43.230   3.245
92255W        W58664  14.763  40.869  10.727
92256W        W58665  28.507  17.525  13.052
92257W        W58666  22.599  10.397  12.453
92258W        W58667  23.565  44.677  12.204
92259W        W58668  25.133  32.382   1.814
92260W        W58669  38.409  27.102  13.906
92261W        W58670  30.996  17.826  11.605
92262W        W58671  15.269  29.913   1.308
92263W        W58672  23.414  28.089  13.940
92264W        W58673  21.673  35.205  12.059
92265W        W58674  13.593  41.460   4.880
92266W        W58675  32.721  12.803  13.388
92267W        W58676  18.709  44.327  12.314
92268W        W58677  35.958  34.050  11.429
92269W        W58678  11.283  41.008   2.778
92270W        W58679  31.017  33.568   4.575
92271W        W58680  42.861  20.114  14.916
92272W        W58681  28.250   6.701   0.781
92273W        W58682   7.890  40.022   4.995
92274W        W58683   5.337  22.256  12.495
92275W        W58684   7.704   0.215   0.459
92276W        W58685  20.591   0.950   3.346
92277W        W58686  30.386  43.509  13.607
92278W        W58687  26.492  31.255   4.567
92279W        W58688   4.847  40.877   1.756
92280W        W58689  35.068   1.941  10.904
92281W        W58690   4.675  40.273   0.012
92282W        W58691   6.168  29.092   0.647
92283W        W58692  44.134  10.440   0.557
92284W        W58693  30.458  37.785   4.997
92285W        W58694  24.162  18.065   3.225
92286W        W58695   7.914   1.599  10.925
92287W        W58696  25.707  40.225  11.997
92288W        W58697   9.875  30.937  12.956
92289W        W58698  28.377   9.570  12.405
92290W        W58699  32.914  35.957   3.930
92291W        W58700  20.447  38.041  12.615
92292W        W58701  20.161  40.277   0.784
92293W        W58702  23.674  27.515   2.150
92294W        W58703  27.642  30.918   2.964
92295W        W58704  16.663   0.282   3.905
92296W        W58705  36.740  15.549   2.400
92297W        W58706  18.610  34.187  11.083
92298W        W58707   7.000   4.666  12.484
92299W        W58708  19.181  24.071  12.835
92300W        W58709   5.466  29.174  11.086
92301W        W58710   2.369   2.498   3.789
92302W        W58711  19.213  26.219   3.978
92303W        W58712  26.899   1.795  12.014
92304W        W58713  37.846  11.021   4.601
92305W        W58714  44.006  22.964  13.565
92306W        W58715  26.490  33.054   3.615
92307W        W58716  39.364   2.973   4.577
92308W        W58717  31.882  26.175  11.377
92309W        W58718   2.638   7.018   0.265
92310W        W58719  21.056   3.360   5.020
92311W        W58720   6.222   1.929  13.888
92312W        W58721  23.293   0.134   0.434
92313W        W58722  25.566  32.096  12.904
92314W        W58723  39.923  27.378   1.908
92315W        W58724  41.954  28.591   4.657
92316W        W58725  34.958  40.399  11.224
92317W        W58726  21.039  34.810  14.927
92318W        W58727  41.412  12.067  11.611
92319W        W58728  30.186   0.822  11.543
92320W        W58729  33.157  31.129   1.417
92321W        W58730  23.573  36.066   3.657
92322W        W58731  10.714  26.960  11.692
92323W        W58732  22.590   0.308  13.555
92324W        W58733  40.754  17.902   3.129
92325W        W58734  32.478   2.236   1.472
92326W        W58735  38.958  42.434  12.703
92327W        W58736  37.097  44.256   4.048
92328W        W58737   4.418   3.761  13.845
92329W        W58738  11.653  30.618  12.814
92330W        W58739   7.469  12.710  14.961
92331W        W58740  12.316  34.500  14.067
92332W        W58741  33.723   7.721  12.137
92333W        W58742  14.101  30.905  12.536
92334W        W58743   6.925  17.805   1.268
92335W        W58744  35.424   6.859   4.131
92336W        W58745  34.663  24.299   3.351
92337W        W58746   6.756  21.974  13.000
92338W        W58747  37.835  23.399   3.123
92339W        W58748  38.887  30.463  12.095
92340W        W58749   6.961  43.781  13.359
92341W        W58750   8.819  31.170  14.357
92342W        W58751  41.568  11.230   4.587
92343W        W58752  37.408  11.587  12.989
92344W        W58753  40.139   0.852   0.878
92345W        W58754   8.429  33.972  13.394
92346W        W58755  38.144   2.291   4.722
92347W        W58756   4.380  17.830   3.193
92348W        W58757  37.494  22.737  13.485
92349W        W58758  20.280  29.047   1.856
92350W        W58759  13.977   8.938  14.443
92351W        W58760  42.591  17.792  12.826
92352W        W58761  11.886  42.032   4.715
92353W        W58762  40.295   3.697   2.907
92354W        W58763  32.518  31.582  13.004
92355W        W58764  18.203  19.991   1.808
92356W        W58765  44.367  25.992   2.011
92357W        W58766  33.050   9.403   0.569
92358W        W58767  43.626  19.570  13.918
92359W        W58768  38.395  30.763   4.904
92360W        W58769  43.860  31.148  12.064
92361W        W58770  37.495  37.532   3.113
92362W        W58771  39.355  30.247   4.861
92363W        W58772  34.951  24.464   4.262
92364W        W58773  23.421   4.372  11.218
92365W        W58774   0.931   2.849   2.967
92366W        W58775  18.357  24.122   4.625
92367W        W58776  38.522  42.782   1.347
92368W        W58777  22.498  13.189  14.598
92369W        W58778  37.923  39.067  13.450
92370W        W58779  20.661  31.307  14.290
92371W        W58780  28.228  13.990  14.511
92372W        W58781  12.441  14.599   3.831
92373W        W58782  32.280  34.421   3.255
92374W        W58783   8.681   2.790   4.580
92375W        W58784  41.823  11.444  13.576
92376W        W58785  36.126   8.906  10.736
92377W        W58786  13.172  13.816  10.504
92378W        W58787  38.423  32.375  14.794
92379W        W58788  16.191  38.360  10.167
92380W        W58789  10.919  27.407  10.914
92381W        W58790  25.082  16.791   2.216
92382W        W58791  25.977   6.605  11.455
92383W        W58792   4.832  42.386   1.867
92384W        W58793   6.041  30.907   1.498
92385W        W58794  23.841  34.406   2.338
92386W        W58795  29.955  39.074  11.986
92387W        W58796  23.122  11.125  13.494
92388W        W58797  26.683  40.284  11.693
92389W        W58798  17.527   5.090   4.050
92390W        W58799   7.807  35.107   1.289
92391W        W58800  44.621  33.197  10.701
92392W        W58801   4.751   3.419   1.551
92393W        W58802  38.280  43.708   1.304
92394W        W58803  14.165  32.102  14.781
92395W        W58804  20.294   4.257   4.549
92396W        W58805  17.070  38.395   3.327
92397W        W58806   5.686  12.424   4.597
92398W        W58807  22.153   2.923  12.915
92399W        W58808  17.384  35.080  14.722
92400W        W58809  32.688   6.879   9.748
92401W        W58810  43.342  21.309  11.130
92402W        W58811  19.644  38.134   3.642
92403W        W58812  40.999  43.062   1.283
92404W        W58813  30.950  31.342   4.120
92405W        W58814  43.816  42.243  11.631
92406W        W58815  30.985  42.144  11.487
92407W        W58816  15.091  26.608   2.331
92408W        W58817  11.979   5.658  13.553
92409W        W58818   7.777   7.001  13.532
92410W        W58819  17.948  41.127  14.413
92411W        W58820  33.201  17.779   3.062
92412W        W58821  26.871  38.991  11.505
92413W        W58822  21.980  25.332   4.017
92414W        W58823  25.547  26.632  11.728
92415W        W58824   6.028   8.287  14.075
92416W        W58825  43.869  36.562   0.736
92417W        W58826  23.225  12.252   0.734
92418W        W58827  31.119  30.858   0.917
92419W        W58828  43.898  15.233   3.854
92420W        W58829  31.374  16.562  14.456
92421W        W58830   2.412  44.964  11.340
92422W        W58831  28.441   4.718  10.438
92423W        W58832   4.789  42.332  12.915
92424W        W58833  17.990  19.790   0.849
92425W        W58834  44.594  30.370   0.578
92426W        W58835  37.387   6.989  13.053
92427W        W58836  35.332  32.839  14.575
92428W        W58837   7.463  25.062  12.520
92429W        W58838  25.689  34.976  12.517
92430W        W58839  13.715   7.048   2.682
92431W        W58840  26.854   3.841   0.056
92432W        W58841  17.656  11.056   4.755
92433W        W58842   3.170   8.144   4.650
92434W        W58843  14.930  36.483  10.211
92435W        W58844  23.539   2.332  13.932
92436W        W58845  29.417  15.187   2.154
92437W        W58846  37.804  31.932   4.076
92438W        W58847  23.757   3.731  11.965
92439W        W58848   9.728   5.934  13.971
92440W        W58849  14.998  25.276   4.930
92441W        W58850  19.293  15.265  11.623
92442W        W58851  39.923  26.113  12.529
92443W        W58852   6.856   8.613   2.693
92444W        W58853  24.970   8.381  14.586
92445W        W58854   9.978  23.948  11.835
92446W        W58855  37.704   7.742   3.291
92447W        W58856   2.317  19.157  13.189
92448W        W58857  16.617  29.808   1.581
92449W        W58858  30.863  30.225  10.431
92450W        W58859  18.167  21.242  12.522
92451W        W58860   4.870  28.029   1.386
92452W        W58861  43.777  28.260   3.990
92453W        W58862  23.661  24.339  11.512
92454W        W58863  39.863  31.474   4.583
92455W        W58864   7.356  10.322   3.747
92456W        W58865  10.105  30.981   1.398
92457W        W58866  32.553   3.862   2.720
92458W        W58867   7.820  19.193   1.376
92459W        W58868  13.261  37.946   0.549
92460W        W58869  43.936   3.963  14.979
92461W        W58870   5.363  10.704  10.544
92462W        W58871   2.868  18.047   3.830
92463W        W58872  22.610  12.702  12.966
92464W        W58873  13.166  16.695   2.674
92465W        W58874  38.859   1.769   4.568
92466W        W58875  37.196   0.316   1.742
92467W        W58876  35.369  41.569   4.777
92468W        W58877  11.378  39.412   2.781
92469W        W58878  28.960  35.107  14.493
92470W        W58879  13.124   7.934   4.512
92471W        W58880   9.863  40.679   4.377
92472W        W58881  42.712  12.678   0.322
92473W        W58882  11.256  33.077  11.635
92474W        W58883  35.331  33.111   3.671
92475W        W58884   2.755  12.494   3.657
92476W        W58885  36.361  30.920  14.952
92477W        W58886   9.583   4.769   1.176
92478W        W58887  25.732  44.993   3.663
92479W        W58888  19.286  37.256   1.644
92480W        W58889  14.836   3.731  13.372
92481W        W58890  36.423  31.430  14.799
92482W        W58891  16.409  10.065  12.508
92483W        W58892   4.907  18.103  12.415
92484W        W58893  16.019  38.493  12.392
92485W        W58894   3.289  15.566   0.288
92486W        W58895  14.693  20.019  14.378
92487W        W58896  30.139  19.095   2.285
92488W        W58897   4.711  38.441  14.799
92489W        W58898   1.940  23.660  14.539
92490W        W58899  35.558  39.901  13.001
92491W        W58900   0.701  32.032  13.483
92492W        W58901  17.062   3.319   1.365
92493W        W58902  41.742   0.301   0.017
92494W        W58903  43.916   8.664   1.340
92495W        W58904   9.159  20.504  11.573
92496W        W58905  26.466  12.222   2.884
92497W        W58906   5.822  17.241   4.703
92498W        W58907  41.774  26.162   4.554
92499W        W58908  11.663   0.095  13.864
92500W        W58909   5.113  39.940  10.588
92501W        W58910  28.711  18.360   0.902
92502W        W58911  31.872  43.707   4.630
92503W        W58912  18.071   8.814   2.501
92504W        W58913  29.013  10.263  14.857
92505W        W58914  18.196  27.657  10.601
92506W        W58915  12.620  42.318  10.456
92507W        W58916  17.362  43.981   4.550
92508W        W58917   1.208  27.843   1.560
92509W        W58918   6.890  25.423   4.922
92510W        W58919  18.178  32.032   3.291
92511W        W58920  19.273   5.775   1.700
92512W        W58921   1.975  21.761   3.021
92513W        W58922  15.287  20.990   0.199
92514W        W58923   8.021  16.390  11.408
92515W        W58924   1.357  37.465  11.113
92516W        W58925  13.741  22.361  10.794
92517W        W58926  42.103   2.318   4.590
92518W        W58927  31.637   7.782  11.997
92519W        W58928  17.980  32.441  13.182
92520W        W58929   2.057  23.873   3.782
92521W        W58930  11.042  39.587   0.456
92522W        W58931  31.355  26.591  13.881
92523W        W58932  36.215  30.209   2.662
92524W        W58933  33.640  41.449   3.781
92525W        W58934  31.190   7.890  14.983
92526W        W58935  11.237   2.972   2.487
92527W        W58936  35.871  31.645   4.032
92528W        W58937  35.508   2.680   0.315
92529W        W58938  13.605  39.807   3.099
92530W        W58939  34.309  36.049   3.833
92531W        W58940  31.563  40.073   1.354
92532W        W58941  37.123  37.142   3.365
92533W        W58942  10.149  35.612  13.910
92534W        W58943  27.687  18.580   0.872
92535W        W58944   7.404   0.083  10.417
92536W        W58945  37.445  36.009   1.560
92537W        W58946  35.345   1.652  11.968
92538W        W58947   8.620  32.086   0.416
92539W        W58948  27.034  13.687   0.841
92540W        W58949  25.328  36.858   0.885
92541W        W58950  20.448  32.615  11.154
92542W        W58951  39.496  37.032   3.838
92543W        W58952   5.423  37.864   2.816
92544W        W58953   0.395  35.835  11.230
92545W        W58954   3.514  19.546   0.389
92546W        W58955   6.654  17.788  12.017
92547W        W58956   5.431  20.835   4.732
92548W        W58957  33.460  41.386   1.461
92549W        W58958  31.590   6.844   4.320
92550W        W58959  40.269  10.864  12.989
92551W        W58960   5.281  18.483  11.055
92552W        W58961  36.861  34.066  14.351
92553W        W58962  41.144  10.727  14.904
92554W        W58963   6.199  14.075  11.157
92555W        W58964   9.217  39.640   2.835
92556W        W58965  15.637  11.562  14.843
92557W        W58966  22.069  24.125  13.612
92558W        W58967   1.472   0.473  13.122
92559W        W58968  17.682  42.726  12.088
92560W        W58969  44.287  27.690   4.614
92561W        W58970   3.864  25.688  11.473
92562W        W58971  26.525  24.646   0.577
92563W        W58972  37.080  11.084  13.857
92564W        W58973  44.228  40.595   2.775
92565W        W58974  35.638   3.769   4.077
92566W        W58975   4.645  31.835  11.092
92567W        W58976  39.947  21.712  11.046
92568W        W58977  39.875  30.648  11.246
92569W        W58978  43.942  41.634   1.810
92570W        W58979  27.118  12.661   2.391
92571W        W58980  12.181  28.145  13.576
92572W        W58981  20.476  38.030  14.858
92573W        W58982   4.391  19.586   1.345
92574W        W58983   3.014  10.184  14.805
92575W        W58984  39.938  17.836   1.428
92576W        W58985   0.918  36.831   1.733
92577W        W58986  19.415  37.191   2.868
92578W        W58987  18.608  19.701  10.745
92579W        W58988  17.252  40.166  13.180
92580W        W58989   4.966  39.465   3.067
92581W        W58990  18.679  11.042  13.776
92582W        W58991   2.355  39.496  14.834
92583W        W58992  41.141  26.376  12.819
92584W        W58993  26.737  17.574   1.054
92585W        W58994  40.188  30.664   3.543
92586W        W58995  13.689  34.617   4.183
92587W        W58996  28.724  36.418  12.545
92588W        W58997   7.627   1.924  14.943
92589W        W58998   3.984  41.277  14.732
92590W        W58999  40.385  20.630  11.629
92591W        W59000  41.902  17.221   0.807
92592W        W59001  16.657  31.192   2.506
92593W        W59002  12.197   2.101  12.515
92594W        W59003  28.737  13.121  14.406
92595W        W59004  18.133  34.893  13.368
92596W        W59005  19.235  30.443  12.095
92597W        W59006  35.092  13.327  14.600
92598W        W59007  28.542  10.910   1.629
92599W        W59008  16.233  22.938  14.933
92600W        W59009  32.817  40.988   2.387
92601W        W59010  14.541  31.001   1.819
92602W        W59011  16.490  30.929  14.390
92603W        W59012  41.766  36.584  14.326
92604W        W59013  17.175  27.970  12.530
92605W        W59014  27.585  36.407  11.595
92606W        W59015  15.235  36.287  13.960
92607W        W59016  21.689  13.683   1.166
92608W        W59017   0.500  22.749  12.181
92609W        W59018  12.850   4.699  13.037
92610W        W59019   2.194  20.562  10.776
92611W        W59020  41.507  19.744   0.690
92612W        W59021  42.373  28.200  13.404
92613W        W59022  29.488  35.188   0.195
92614W        W59023  34.568   5.315   0.505
92615W        W59024  17.076  22.356  10.373
92616W        W59025  34.882  33.452  12.441
92617W        W59026   2.372  31.565  13.311
92618W        W59027  40.310  10.787  14.419
92619W        W59028  33.957  14.205   4.332
92620W        W59029   9.401  44.032   2.768
92621W        W59030  10.310   1.163  12.642
92622W        W59031  24.689  16.221   1.101
92623W        W59032  27.178   4.795   1.293
92624W        W59033  26.650  16.145   1.472
92625W        W59034   0.154  42.251  11.512
92626W        W59035  18.995  41.398  11.636
92627W        W59036  14.781  22.130   2.698
92628W        W59037  36.111   2.264  13.962
92629W        W59038  13.570  32.711   5.483
92630W        W59039   1.489  41.297   4.874
92631W        W59040  19.342  36.370   0.493
92632W        W59041  10.587  39.939   1.778
92633W        W59042   1.385   6.907  14.956
92634W        W59043  33.067  28.636  14.636
92635W        W59044   2.737  12.710   0.964
92636W        W59045  41.252  41.769  12.686
92637W        W59046   1.681  17.625  11.224
92638W        W59047  16.043  18.891   2.667
92639W        W59048  25.224  28.945  14.897
92640W        W59049  22.261  38.815   4.334
92641W        W59050  32.743  35.354   2.293
92642W        W59051  26.224  40.887   0.880
92643W        W59052  20.281  33.045  14.421
92644W        W59053  17.474  37.074  13.303
92645W        W59054  34.394   1.846   3.138
92646W        W59055  18.106  14.040  14.544
92647W        W59056  17.161  15.959   2.228
92648W        W59057  24.271  43.923  14.939
92649W        W59058   0.517  40.341   1.441
92650W        W59059   2.549  38.936   9.731
92651W        W59060   0.741  33.545   1.837
92652W        W59061  29.309  19.582   3.175
92653W        W59062  21.101  32.092  10.267
92654W        W59063  42.215  33.417  10.527
92655W        W59064  19.160  26.952  13.887
92656W        W59065  41.822  42.839   2.733
92657W        W59066  37.150  40.934   3.955
92658W        W59067  35.962  22.556   2.168
92659W        W59068   2.966   5.880  10.664
92660W        W59069  24.051  30.403   3.284
92661W        W59070  26.646   5.334  12.863
92662W        W59071   2.214  32.922   2.963
92663W        W59072  12.357  41.902   1.827
92664W        W59073  27.501  16.009   1.344
92665W        W59074  31.445  35.039   0.859
92666W        W59075   9.495  12.282  11.988
92667W        W59076  27.739  19.276   1.378
92668W        W59077  43.828  27.895   3.276
92669W        W59078  34.585  20.710   1.003
92670W        W59079  31.597  21.986  12.129
92671W        W59080  19.056  17.334   4.038
92672W        W59081   8.428  44.885  11.260
92673W        W59082  21.592  15.294   1.748
92674W        W59083  31.473  31.572   4.881
92675W        W59084  38.323  18.976   0.000
92676W        W59085  35.849   3.481  10.088
92677W        W59086  42.532  10.858  13.437
92678W        W59087  42.908   6.033  14.231
92679W        W59088  41.047  38.894  12.781
92680W        W59089  21.901   0.781  13.828
92681W        W59090  23.231  18.516   2.210
92682W        W59091  16.279  35.542  10.740
92683W        W59092  33.410   5.419   2.907
92684W        W59093  29.180  34.653  13.247
92685W        W59094   7.547   8.172  14.394
92686W        W59095  41.749  29.165  12.114
92687W        W59096   7.976  23.962   3.995
92688W        W59097  11.348  10.266   3.451
92689W        W59098  16.231  37.499   3.674
92690W        W59099  29.006  24.055   4.057
92691W        W59100   4.133  29.408   4.538
92692W        W59101  10.873  25.503   0.808
92693W        W59102  38.062  17.312  14.369
92694W        W59103  39.453  22.131   3.435
92695W        W59104  11.330   0.598  13.414
92696W        W59105  15.795  14.674  14.081
92697W        W59106  44.382  13.910   4.208
92698W        W59107   7.948  10.711  12.553
92699W        W59108   1.574   5.389  13.954
92700W        W59109  36.838   8.946   4.638
92701W        W59110   2.773  35.932  13.599
92702W        W59111  15.186  23.249   2.206
92703W        W59112  20.971  32.370   2.673
92704W        W59113  22.040   4.374   4.878
92705W        W59114  23.271  44.337   4.613
92706W        W59115  16.250   2.848   4.638
92707W        W59116  15.529  38.224  10.450
92708W        W59117  20.628  26.586   2.389
92709W        W59118   7.842  43.969  14.482
92710W        W59119  40.731  24.573   4.144
92711W        W59120  23.977   6.865  10.431
92712W        W59121  36.794  38.417  13.341
92713W        W59122  34.866  41.258   3.177
92714W        W59123   5.192  10.848   3.797
92715W        W59124  23.520   4.394   0.459
92716W        W59125  33.215  34.993   1.046
92717W        W59126  36.880  33.553   1.808
92718W        W59127  24.742   7.984   4.420
92719W        W59128  28.183  10.615   2.414
92720W        W59129   7.684  38.835  14.005
92721W        W59130  27.840   6.576  12.425
92722W        W59131  18.125  26.076  12.224
92723W        W59132  44.803  43.683  11.077
92724W        W59133   6.440  11.183  13.457
92725W        W59134  14.619  32.436   3.847
92726W        W59135  37.461  44.473   1.324
92727W        W59136   9.607  41.818  12.914
92728W        W59137  26.830  11.793  14.344
92729W        W59138  20.544  12.510  13.557
92730W        W59139  15.353  21.104   1.557
92731W        W59140  34.850  11.193  13.785
92732W        W59141  37.382  14.728   0.524
92733W        W59142  17.484  40.252  13.912
92734W        W59143  12.248  13.651   3.621
92735W        W59144  28.469  17.535   1.882
92736W        W59145  33.605  19.050   4.023
92737W        W59146  37.555  18.096   0.835
92738W        W59147  44.972  10.201  11.141
92739W        W59148  12.631  22.502  13.892
92740W        W59149  27.124  17.801  10.664
92741W        W59150  32.051  19.094  14.967
92742W        W59151  42.356  21.972  12.606
92743W        W59152  14.985   1.658   2.256
92744W        W59153   1.392  31.398  10.844
92745W        W59154   3.720   8.516  13.918
92746W        W59155  11.054  19.979  12.422
92747W        W59156  42.337  24.961   1.947
92748W        W59157  37.814   1.891   3.310
92749W        W59158  19.663  13.212   4.620
92750W        W59159   7.127   0.973  12.280
92751W        W59160  21.261  40.843   3.303
92752W        W59161   8.391  37.104  13.061
92753W        W59162  24.547  39.099   0.798
92754W        W59163   5.870   5.617   4.945
92755W        W59164  29.721  27.360  14.970
92756W        W59165  33.756  41.896   2.211
92757W        W59166  22.201   4.241  10.408
92758W        W59167  31.119  25.391  11.866
92759W        W59168  31.933   5.535  14.832
92760W        W59169   3.328   5.919  14.207
92761W        W59170  13.173   0.804  14.942
92762W        W59171  36.830  23.140  11.669
92763W        W59172   3.837   5.976   0.642
92764W        W59173   4.381  41.843  11.932
92765W        W59174   7.960   5.890  11.531
92766W        W59175  27.004  42.312   1.874
92767W        W59176  19.513   8.791   3.695
92768W        W59177  38.853  43.982   4.598
92769W        W59178  30.013  14.202  12.603
92770W        W59179  44.848  39.012  10.465
92771W        W59180  44.912  29.618   1.390
92772W        W59181  42.288  30.217  12.531
92773W        W59182   0.468  31.130  12.546
92774W        W59183  32.475  39.408   2.758
92775W        W59184  28.761  19.901  14.952
92776W        W59185  31.103   9.784   2.768
92777W        W59186  43.748   4.896  11.379
92778W        W59187   1.719  40.471  10.755
92779W        W59188   1.228  33.435  14.871
92780W        W59189  30.699  15.255   4.049
92781W        W59190  14.732  17.796  14.394
92782W        W59191  41.779  28.460  10.770
92783W        W59192  25.111  44.379   3.838
92784W        W59193   7.156  16.185   4.128
92785W        W59194  18.559   0.676   4.696
92786W        W59195   9.201  13.095   1.764
92787W        W59196  34.010  29.134  12.414
92788W        W59197  39.065  14.425   2.864
92789W        W59198  35.475  29.854  12.943
92790W        W59199  30.488   9.581   1.003
92791W        W59200  29.246  33.469  14.933
92792W        W59201  14.142  26.017   4.147
92793W        W59202  24.995  31.947   4.657
92794W        W59203  14.829   8.925   2.451
92795W        W59204   7.606   9.620  14.953
92796W        W59205  29.772  31.849   1.250
92797W        W59206  31.813  29.566  14.742
92798W        W59207   1.180   4.222  14.387
92799W        W59208  11.772  41.529  13.196
92800W        W59209   6.942  30.183   0.518
92801W        W59210  10.352  36.498   4.623
92802W        W59211  25.164  35.101   1.380
92803W        W59212  25.186  20.079  11.585
92804W        W59213   1.547  34.579  12.917
92805W        W59214  12.277   4.204  14.266
92806W        W59215  36.625  24.298   3.348
92807W        W59216  43.451   7.656   2.217
92808W        W59217  19.773  20.571   1.218
92809W        W59218   8.352  28.565  12.198
92810W        W59219  10.328  13.304   3.117
92811W        W59220  32.495  19.192   2.739
92812W        W59221  10.821  33.595   0.855
92813W        W59222   5.587  18.311  14.090
92814W        W59223  28.574  21.886  12.656
92815W        W59224  11.893  33.666   2.479
92816W        W59225   6.023  20.793  13.800
92817W        W59226  25.363  24.778  11.078
92818W        W59227  39.510  33.540   2.439
92819W        W59228  22.183  18.031   2.413
92820W        W59229  28.162   6.321   3.791
92821W        W59230  24.575  26.620   4.963
92822W        W59231   6.021  25.138   0.254
92823W        W59232  33.150  28.003  14.015
92824W        W59233  35.370  21.134   4.445
92825W        W59234  14.647  26.561   1.024
92826W        W59235   1.485  10.258   0.534
92827W        W59236  44.596   6.390   0.832
92828W        W59237  30.942   8.283   0.506
92829W        W59238   4.836  29.506  11.457
92830W        W59239  36.234  29.450  10.667
92831W        W59240  24.180  37.050   2.243
92832W        W59241   0.035  34.732   1.786
92833W        W59242  43.933  43.011  13.846
92834W        W59243  14.743   8.472  11.686
92835W        W59244  23.183  10.929  13.978
92836W        W59245  33.080  29.373   3.480
92837W        W59246  32.456  36.023  13.289
92838W        W59247  40.534   1.442  12.919
92839W        W59248  28.139  20.135  13.078
92840W        W59249   9.711  29.721   1.628
92841W        W59250  41.227  24.666  12.150
92842W        W59251   1.198   3.766  11.166
92843W        W59252  14.247  33.906  12.593
92844W        W59253  41.061  14.872  13.549
92845W        W59254  24.627  22.071   3.170
92846W        W59255  20.648  23.760  13.390
92847W        W59256  23.897  23.125   1.736
92848W        W59257  25.276  20.639   4.666
92849W        W59258   3.356   2.698   1.719
92850W        W59259  10.208   4.765   0.061
92851W        W59260  37.536  26.697  14.741
92852W        W59261   3.198  26.230   4.667
92853W        W59262  16.098  28.461  13.900
92854W        W59263  20.139  37.203  13.438
92855W        W59264  42.086  17.153  13.436
92856W        W59265  10.896  13.451   1.938
92857W        W59266  31.043  19.559  12.377
92858W        W59267   0.372  35.074   1.544
92859W        W59268  11.325  21.675  13.277
92860W        W59269   9.571  23.392  12.023
92861W        W59270  26.125  21.710   0.858
92862W        W59271  33.889  22.632   0.789
92863W        W59272  13.257  28.631   1.570
92864W        W59273   2.935   3.809   1.649
92865W        W59274  12.183  28.532   2.489
92866W        W59275  31.944  37.307   5.082
92867W        W59276  10.204  29.514   4.535
92868W        W59277  12.078  25.936  14.868
92869W        W59278  21.771  42.053   1.383
92870W        W59279  42.097  43.518   2.879
92871W        W59280  23.234   1.002  12.652
92872W        W59281  26.460  36.161  10.231
92873W        W59282  22.603   3.249  12.994
92874W        W59283   3.288  18.088  12.458
92875W        W59284  11.261  23.945   3.305
92876W        W59285  11.257  36.560  11.859
92877W        W59286  32.985  23.179  12.675
92878W        W59287   3.692  33.016   3.180
92879W        W59288   5.280  15.471  11.570
92880W        W59289  31.054   8.340  10.551
92881W        W59290  41.492  34.474   1.856
92882W        W59291   7.901  40.037  13.521
92883W        W59292  35.818  44.802  11.532
92884W        W59293  29.815  17.701   4.773
92885W        W59294  32.628  32.530  14.842
92886W        W59295  21.858  23.972   4.344
92887W        W59296  10.672   5.061   3.536
92888W        W59297   4.103   1.384  10.983
92889W        W59298   6.061  18.549   0.246
92890W        W59299  38.592  44.450  13.990
92891W        W59300  44.983  11.346  14.806
92892W        W59301  41.512  24.198   2.208
92893W        W59302  20.048  42.102  13.842
92894W        W59303   6.489  33.117  11.647
92895W        W59304   9.150   8.472  11.845
92896W        W59305  43.031  24.230   4.034
92897W        W59306  10.297   3.017  12.402
92898W        W59307  31.460   3.536   3.160
92899W        W59308  23.603  34.887  12.456
92900W        W59309  27.835   3.880  14.759
92901W        W59310  36.924  21.185   1.904
92902W        W59311  29.669  33.007   1.572
92903W        W59312  35.952  13.262   1.970
92904W        W59313  19.028  31.164   0.754
92905W        W59314  11.635  38.860   3.213
92906W        W59315  19.971  38.032  14.859
92907W        W59316  43.494   0.943   1.353
92908W        W59317  10.304  24.842   3.197
92909W        W59318  16.355  22.345   3.186
92910W        W59319  26.542  24.417  10.666
92911W        W59320  17.792  21.076   3.331
92912W        W59321   6.481  16.660  13.530
92913W        W59322  31.893  11.394   4.997
92914W        W59323  29.824   3.272   1.703
92915W        W59324   6.680  23.118   4.514
92916W        W59325  30.606  26.917   0.829
92917W        W59326  11.688  43.079  11.631
92918W        W59327  44.576  44.550  14.043
92919W        W59328  44.105  18.152   1.648
92920W        W59329   6.454  22.141  11.687
92921W        W59330  12.538   5.048   4.364
92922W        W59331   6.652  22.623  12.656
92923W        W59332  13.399  35.481  11.520
92924W        W59333  39.787  36.326  13.764
92925W        W59334  17.283   0.986  12.425
92926W        W59335  28.117  32.619   4.153
92927W        W59336  13.560  39.533  11.979
92928W        W59337  37.427  29.429   4.267
92929W        W59338   3.540  33.627  11.670
92930W        W59339  43.503  22.795   2.472
92931W        W59340   2.244   0.321  13.517
92932W        W59341   2.372  30.527   5.041
92933W        W59342  39.086  39.122   4.969
92934W        W59343  18.035  38.536  13.013
92935W        W59344  43.692   6.177  10.974
92936W        W59345  14.569  37.606  12.511
92937W        W59346   4.033  23.133  10.286
92938W        W59347   7.887   5.633   4.540
92939W        W59348  17.860  19.723   3.377
92940W        W59349  30.760  26.244   2.754
92941W        W59350  29.802  36.074   3.217
92942W        W59351   1.947  25.460  13.520
92943W        W59352  15.570  44.308   1.681
92944W        W59353   1.997   0.829  11.996
92945W        W59354  33.270  24.094   3.620
92946W        W59355  36.829  42.580   3.324
92947W        W59356  11.247   7.641  13.942
92948W        W59357  12.409  15.100  11.868
92949W        W59358   8.629   0.969   3.756
92950W        W59359  39.940   5.776  12.936
92951W        W59360  14.583  13.850  14.220
92952W        W59361   3.370  17.181   0.423
92953W        W59362   7.652  21.597   4.687
92954W        W59363  41.991  12.079  14.474
92955W        W59364  38.741  10.884  11.013
92956W        W59365  21.811  21.437   9.906
92957W        W59366  37.344  30.935   2.285
92958W        W59367  29.614  32.180  13.882
92959W        W59368  31.886  24.424  12.867
92960W        W59369  16.573  41.701   3.675
92961W        W59370  35.795  33.978  10.960
92962W        W59371  32.628  21.477   4.221
92963W        W59372   3.611   8.284  12.575
92964W        W59373  44.058  13.513   2.188
92965W        W59374  43.260  38.209  12.153
92966W        W59375  36.589  42.798   1.285
92967W        W59376  22.202  14.226  12.913
92968W        W59377  43.501  42.748  13.613
92969W        W59378   8.768   2.157  12.024
92970W        W59379  38.801  34.844  12.828
92971W        W59380  12.593   8.824   1.047
92972W        W59381  23.919   9.840   1.373
92973W        W59382  43.999   0.946   4.164
92974W        W59383  34.377  30.475  13.435
92975W        W59384  25.709  18.178  11.686
92976W        W59385  31.200  26.905  11.072
92977W        W59386  37.919  18.733  14.780
92978W        W59387   8.178  24.222   1.063
92979W        W59388  14.460  32.629  12.876
92980W        W59389  13.769  38.309   1.769
92981W        W59390  29.968  10.368  10.641
92982W        W59391   5.821  28.627  10.699
92983W        W59392  25.371   3.482  13.613
92984W        W59393  22.486  35.897  12.887
92985W        W59394   2.533  39.412  11.151
92986W        W59395  36.588  10.361   2.088
92987W        W59396  36.316  13.760   3.142
92988W        W59397  33.948   2.758   2.767
92989W        W59398  14.262   2.019  11.017
92990W        W59399  10.744  39.961   3.588
92991W        W59400  44.248  24.948  11.484
92992W        W59401  35.248  38.970  11.102
92993W        W59402  12.437  26.564   4.580
92994W        W59403  20.167   0.573  14.299
92995W        W59404   6.590  26.538   2.389
92996W        W59405  34.519   8.173  13.988
92997W        W59406  22.090  30.019  14.522
92998W        W59407  22.006  23.642   5.523
92999W        W59408  20.494   1.620  11.894
93000W        W59409  10.181  11.437  13.769
93001W        W59410   6.548  37.599   1.068
93002W        W59411  11.889   4.680   3.656
93003W        W59412  12.976  17.054   5.067
93004W        W59413  44.663  30.863   3.771
93005W        W59414  19.952  24.190   3.773
93006W        W59415   0.600  29.706  14.384
93007W        W59416  36.749   7.498   2.440
93008W        W59417  25.691   6.412  13.870
93009W        W59418  39.858   3.452   2.776
93010W        W59419  37.358  21.210  13.556
93011W        W59420  43.011  20.834   1.444
93012W        W59421  12.599   5.632  11.318
93013W        W59422  42.414   4.444  11.007
93014W        W59423  17.755   6.835   4.631
93015W        W59424  24.925  10.223  10.766
93016W        W59425   3.455  30.573  14.509
93017W        W59426  15.217  22.769   0.065
93018W        W59427  15.672   5.431   2.273
93019W        W59428  15.263   6.855   2.640
93020W        W59429  35.943   6.122  14.781
93021W        W59430  32.608  39.281  14.536
93022W        W59431  36.502  42.139  11.994
93023W        W59432  40.826   3.398  11.199
93024W        W59433  15.657  20.582   1.791
93025W        W59434   3.327  34.082  11.626
93026W        W59435  43.453  27.663   0.016
93027W        W59436  27.544  25.697   2.321
93028W        W59437   0.288  11.832  12.548
93029W        W59438  10.335  20.966   3.230
93030W        W59439  13.520  34.557   3.247
93031W        W59440  13.421  17.484   3.149
93032W        W59441   0.007  10.840  10.306
93033W        W59442   5.452  41.124  12.116
93034W        W59443   7.649  27.910  13.148
93035W        W59444  10.089  21.104   0.214
93036W        W59445  23.577  32.015  13.378
93037W        W59446  36.828  29.403  12.222
93038W        W59447  18.267   9.662  11.781
93039W        W59448  10.035  33.378   3.946
93040W        W59449  15.642  39.797  12.424
93041W        W59450  38.600  44.090   0.884
93042W        W59451  29.210  22.103  11.980
93043W        W59452  22.067  35.894  11.253
93044W        W59453  22.801  17.602  13.082
93045W        W59454  18.528  24.433  12.347
93046W        W59455   2.964  20.631  12.206
93047W        W59456   5.920  43.861  12.341
93048W        W59457   8.759   0.591   2.211
93049W        W59458   0.009  20.547   0.968
93050W        W59459  17.590  26.546   4.546
93051W        W59460  32.255  33.775  12.329
93052W        W59461  36.681   7.313   1.911
93053W        W59462  40.747  44.561   1.699
93054W        W59463  41.004  33.926  12.593
93055W        W59464  17.420  24.170   4.200
93056W        W59465  15.724  28.091   0.138
93057W        W59466  39.092   5.777  14.944
93058W        W59467  32.869  26.015  12.121
93059W        W59468  14.554  34.438   3.683
93060W        W59469  40.494  35.493  11.592
93061W        W59470  11.812  20.579  11.566
93062W        W59471  35.591   6.069   2.422
93063W        W59472  39.217  44.491  13.424
93064W        W59473  14.750  18.371  12.499
93065W        W59474  24.215   9.343  14.787
93066W        W59475  18.668  34.674  14.435
93067W        W59476  39.430   0.377  12.950
93068W        W59477  23.269  44.391   1.222
93069W        W59478  19.114  17.088   3.164
93070W        W59479  44.895  31.586   0.716
93071W        W59480   1.685   6.567   5.004
93072W        W59481  37.094  41.958   3.940
93073W        W59482  35.916   4.820   5.045
93074W        W59483  21.610  23.728   1.218
93075W        W59484  42.893  13.753  12.685
93076W        W59485  27.472  35.000   3.377
93077W        W59486  31.658  43.691  11.506
93078W        W59487  36.619  33.827   2.316
93079W        W59488  42.999   7.445  12.638
93080W        W59489  11.781  16.714  14.518
93081W        W59490  13.357  19.773   2.211
93082W        W59491   4.902   0.711  11.168
93083W        W59492  16.366  17.350   0.853
93084W        W59493   2.991  29.503  14.442
93085W        W59494   0.851  25.128   4.674
93086W        W59495  31.561  18.513  10.965
93087W        W59496  35.322  28.461   1.565
93088W        W59497  43.842  14.590  11.091
93089W        W59498  15.103  36.900   1.647
93090W        W59499  34.033  31.379  12.167
93091W        W59500  29.254  15.069  11.897
93092W        W59501   0.308  13.700  11.560
93093W        W59502  20.508  23.964   1.438
93094W        W59503  21.052  18.082  13.597
93095W        W59504  41.268  21.063  13.920
93096W        W59505  44.539  35.513   3.337
93097W        W59506  20.530   9.300   1.466
93098W        W59507  43.005  22.055  12.070
93099W        W59508   4.107  24.167   9.812
93100W        W59509  19.500   3.763  13.097
93101W        W59510  27.539  26.316  13.563
93102W        W59511  30.389   3.705   1.379
93103W        W59512  12.101  15.858   4.085
93104W        W59513   3.785  33.576   0.142
93105W        W59514  10.604  16.804  12.955
93106W        W59515   4.974   7.239  12.403
93107W        W59516  15.288   1.760  13.624
93108W        W59517  44.567   8.282   4.579
93109W        W59518  39.399  12.716   2.765
93110W        W59519  41.380   7.412   3.765
93111W        W59520  11.207  35.598   0.305
93112W        W59521   0.968  18.341   1.345
93113W        W59522  10.539  44.187  12.526
93114W        W59523  34.680  24.643   2.950
93115W        W59524   1.314  37.902   3.542
93116W        W59525  12.759  12.143  14.459
93117W        W59526  20.699  40.732  11.502
93118W        W59527  14.999  13.921  11.174
93119W        W59528  35.140  39.563  13.396
93120W        W59529  27.778  21.554  11.624
93121W        W59530  18.137  29.357  12.975
93122W        W59531  40.413  35.611  14.451
93123W        W59532  26.666  18.419  14.122
93124W        W59533  10.913  16.597  14.355
93125W        W59534  23.808  34.974   0.138
93126W        W59535  13.195  36.312   2.214
93127W        W59536  32.459  18.029  14.095
93128W        W59537  20.240  40.054  14.314
93129W        W59538  22.707  13.730   1.344
93130W        W59539  25.222   4.828   4.099
93131W        W59540  30.571  28.882  11.975
93132W        W59541  10.331  20.518   0.958
93133W        W59542  24.720  32.290  13.439
93134W        W59543  11.904   1.680   0.776
93135W        W59544  31.847  14.287   0.555
93136W        W59545  18.644  33.565   4.254
93137W        W59546  21.761  37.037  13.491
93138W        W59547   1.178  34.029  13.458
93139W        W59548  23.657  21.328   0.870
93140W        W59549   4.117  31.314  11.166
93141W        W59550  26.092  17.887   4.642
93142W        W59551  26.418  41.245   4.737
93143W        W59552   5.806  33.368  14.404
93144W        W59553  25.026   9.097   9.820
93145W        W59554  24.416  31.872  13.464
93146W        W59555  38.376  17.203  12.539
93147W        W59556  33.744  12.675   1.441
93148W        W59557  37.258  40.209   3.615
93149W        W59558  41.457  15.143  10.753
93150W        W59559  10.089  37.411   3.055
93151W        W59560  30.781  25.063   2.242
93152W        W59561  17.436  21.279   2.581
93153W        W59562  24.090  26.510  11.891
93154W        W59563  43.766  31.398  13.056
93155W        W59564  14.177  42.753   1.219
93156W        W59565  22.121   6.903  14.109
93157W        W59566  13.825  33.579   1.700
93158W        W59567   4.134  27.670  10.634
93159W        W59568   2.906  17.371   2.720
93160W        W59569  12.260   2.968   4.064
93161W        W59570   3.354  19.684   2.716
93162W        W59571   3.819  19.332   4.140
93163W        W59572  35.171  26.955  13.059
93164W        W59573  29.228  28.676  11.648
93165W        W59574  37.481  18.240   1.337
93166W        W59575  19.117  43.455  13.195
93167W        W59576  17.643  23.580   4.248
93168W        W59577  32.871  39.322   4.539
93169W        W59578  24.276   3.025   4.354
93170W        W59579  11.670  26.326   5.026
93171W        W59580  12.070  38.604   0.704
93172W        W59581   1.444  16.194  14.391
93173W        W59582   5.278  11.154   2.140
93174W        W59583  24.866   4.275   1.445
93175W        W59584  40.378   3.424   2.478
93176W        W59585  23.762  35.283   3.322
93177W        W59586  44.593  27.587   3.837
93178W        W59587  20.318  36.801   2.310
93179W        W59588   7.893   1.526  13.053
93180W        W59589   6.132   2.992   2.271
93181W        W59590  28.593  28.011  12.737
93182W        W59591  15.610  36.468  13.651
93183W        W59592  13.806  11.747   3.325
93184W        W59593  27.708  43.746  13.026
93185W        W59594   0.046  40.787  12.589
93186W        W59595  11.732  29.895   0.206
93187W        W59596   2.109  15.706   1.514
93188W        W59597  38.886  15.538  11.147
93189W        W59598  19.976  41.863  10.943
93190W        W59599   2.055  18.657   1.637
93191W        W59600   6.513  30.073  11.177
93192W        W59601  14.017  30.770  10.853
93193W        W59602   9.819  18.097  13.234
93194W        W59603  38.805  36.323  14.045
93195W        W59604   8.683  18.708  13.479
93196W        W59605  16.086  25.595  13.418
93197W        W59606  43.423  29.405  10.763
93198W        W59607  19.672  26.042  12.561
93199W        W59608  30.090  18.395  14.071
93200W        W59609  19.588  23.026   4.728
93201W        W59610   0.215  35.171   2.034
93202W        W59611   8.341  21.122  13.814
93203W        W59612   5.411  12.639  12.534
93204W        W59613  35.427  32.998  11.172
93205W        W59614  32.137   1.140   1.206
93206W        W59615  42.069  23.523  10.666
93207W        W59616  26.162  20.113  11.582
93208W        W59617   8.314  30.363  13.242
93209W        W59618   2.153  39.797   1.646
93210W        W59619  41.763   4.450  11.608
93211W        W59620   1.525  12.788   3.758
93212W        W59621  11.903  31.922   1.637
93213W        W59622  14.829  44.375  11.166
93214W        W59623   9.085  12.327  13.889
93215W        W59624  34.250  40.590   1.166
93216W        W59625  23.877  11.124  11.985
93217W        W59626   0.878  34.464  11.069
93218W        W59627  18.976  29.705  11.079
93219W        W59628   4.750  33.020  11.048
93220W        W59629  16.093  13.875   0.386
93221W        W59630  16.416   5.682  13.828
93222W        W59631   2.479  26.705  13.396
93223W        W59632  29.041  15.154   4.914
93224W        W59633  25.228   7.083  11.642
93225W        W59634  43.987  29.861  13.037
93226W        W59635  12.228  26.917  13.325
93227W        W59636   1.540  44.542   2.696
93228W        W59637  17.774   5.301  13.452
93229W        W59638   7.972  37.625  12.368
93230W        W59639  34.010  21.140   4.259
93231W        W59640  44.767  32.077   2.794
93232W        W59641  16.480  12.894  11.767
93233W        W59642  42.635  36.568  11.892
93234W        W59643  18.230  32.959   4.631
93235W        W59644  40.030  20.979  11.654
93236W        W59645  25.673  21.978   0.752
93237W        W59646   6.751  14.792  10.945
93238W        W59647  16.166  26.172  14.939
93239W        W59648  28.063  19.126   2.393
93240W        W59649  13.984  16.629  11.714
93241W        W59650  32.333  13.137  13.182
93242W        W59651  30.220  25.023   4.351
93243W        W59652  19.949   8.339   2.297
93244W        W59653   2.700  36.913   0.247
93245W        W59654  33.080  25.637   5.045
93246W        W59655   9.199  39.632   1.883
93247W        W59656   7.671   4.765   3.194
93248W        W59657  21.663   4.906  10.878
93249W        W59658  39.309   3.364  13.882
93250W        W59659  43.049  26.843  10.326
93251W        W59660  39.979   6.485  11.242
93252W        W59661  30.401  42.485  10.782
93253W        W59662  38.909  35.539   0.383
93254W        W59663   8.961  23.063   2.890
93255W        W59664  31.460   4.250  14.863
93256W        W59665  23.106   5.092   4.477
93257W        W59666  38.331  41.740   3.071
93258W        W59667   8.226   3.889   2.676
93259W        W59668   6.239  17.885  11.732
93260W        W59669   3.641  12.808   0.590
93261W        W59670  18.354  34.604   4.783
93262W        W59671  33.169  12.378  14.755
93263W        W59672  34.117  16.577  10.718
93264W        W59673  10.356   5.852   3.775
93265W        W59674  25.528  31.161  10.919
93266W        W59675  39.070   4.257   0.746
93267W        W59676   8.878   0.715   3.348
93268W        W59677  38.361  27.160  11.620
93269W        W59678  28.200  27.947  11.120
93270W        W59679  16.092   6.428   2.514
93271W        W59680  17.775  13.075  13.168
93272W        W59681  34.495  35.858  13.542
93273W        W59682  31.265  35.135  12.515
93274W        W59683  23.979   1.755  10.242
93275W        W59684  40.609  13.355   4.515
93276W        W59685  13.130  28.080   4.667
93277W        W59686   1.624  38.393   1.577
93278W        W59687   4.027  19.069  14.787
93279W        W59688  25.651  10.318  14.817
93280W        W59689  44.469  42.763   1.962
93281W        W59690  25.889  30.598  11.176
93282W        W59691  23.143  27.070   3.083
93283W        W59692  13.930  23.558   3.145
93284W        W59693  43.339  41.077  12.428
93285W        W59694  39.303  43.911   0.569
93286W        W59695  27.123  39.356  11.269
93287W        W59696   1.709  22.511   0.311
93288W        W59697  40.612  15.194  11.057
93289W        W59698  30.594  25.175  13.877
93290W        W59699  22.773   6.776   4.882
93291W        W59700  31.537  26.680  10.258
93292W        W59701  27.207  40.750  13.365
93293W        W59702  32.550   8.114   1.890
93294W        W59703  36.535  32.592  12.345
93295W        W59704  21.320  13.838   0.240
93296W        W59705  38.055  20.559  13.452
93297W        W59706  34.061   9.091   4.567
93298W        W59707   8.435  35.968   2.858
93299W        W59708   3.736  19.436   4.706
93300W        W59709  28.995  20.036   1.802
93301W        W59710  25.343  22.352  10.386
93302W        W59711  32.457  27.685   4.078
93303W        W59712  22.665   3.915   0.395
93304W        W59713  34.780  38.911  14.895
93305W        W59714  41.877   7.240   3.673
93306W        W59715   5.755   6.216   0.859
93307W        W59716  14.173  34.070   3.692
93308W        W59717   9.456  13.611   4.461
93309W        W59718  11.671  11.854  13.649
93310W        W59719  24.187  43.959  12.535
93311W        W59720  19.323  32.964   1.857
93312W        W59721  37.975  33.305   4.128
93313W        W59722  23.161  30.025  12.144
93314W        W59723  12.593  26.878  11.082
93315W        W59724   2.435  10.151  13.480
93316W        W59725  30.154  40.829  11.530
93317W        W59726  26.612  13.365   3.936
93318W        W59727  31.555   2.300  13.395
93319W        W59728  25.512   1.255   5.012
93320W        W59729   3.354  40.352   2.503
93321W        W59730   5.553  37.215   4.383
93322W        W59731  11.622  31.988   0.693
93323W        W59732   3.520  21.479   1.820
93324W        W59733  37.936  13.260   4.154
93325W        W59734  28.353  42.523  13.781
93326W        W59735  32.607  39.986  13.943
93327W        W59736   8.885   1.341  13.837
93328W        W59737  13.228  14.153   4.013
93329W        W59738   9.702   7.665  13.266
93330W        W59739  38.412   8.992   3.433
93331W        W59740  42.391   7.705  10.293
93332W        W59741  12.382   3.418   1.063
93333W        W59742  25.691  34.068   1.742
93334W        W59743  11.649  28.705  14.299
93335W        W59744  23.552  11.370  13.324
93336W        W59745  20.884  30.393   4.531
93337W        W59746  40.630  36.288  12.008
93338W        W59747  40.545  35.854  13.475
93339W        W59748  11.234  25.425   3.173
93340W        W59749  29.021  26.786  12.193
93341W        W59750  38.089  15.738  11.686
93342W        W59751  26.479  19.298  12.477
93343W        W59752  40.143   8.728   1.973
93344W        W59753  13.586   1.139   2.241
93345W        W59754  22.494   6.323   4.981
93346W        W59755  41.490   3.200  14.997
93347W        W59756   4.656  43.867  11.873
93348W        W59757  12.810  40.091  10.647
93349W        W59758  19.613  24.312  13.015
93350W        W59759  27.855  32.305  11.401
93351W        W59760  20.216   0.031  14.942
93352W        W59761  27.445  30.405   2.960
93353W        W59762  22.622  29.982   4.138
93354W        W59763  40.901  29.548  14.462
93355W        W59764   5.566  40.320   0.341
93356W        W59765  16.822  37.319  12.229
93357W        W59766  44.019   7.973  12.101
93358W        W59767  11.646  12.028  10.738
93359W        W59768  29.573  40.841   1.308
93360W        W59769  27.381  21.512   4.644
93361W        W59770  21.218  19.612  11.156
93362W        W59771  28.124  19.574  14.780
93363W        W59772  41.483  15.318   1.795
93364W        W59773  37.815  19.797  10.727
93365W        W59774   9.641  43.014  13.351
93366W        W59775  41.309   7.704  14.392
93367W        W59776  32.179  36.442   4.076
93368W        W59777  21.696  14.500  14.043
93369W        W59778  34.166   4.800   1.796
93370W        W59779  42.324  22.287  11.516
93371W        W59780  17.882  28.091   4.261
93372W        W59781  26.314   4.370   3.303
93373W        W59782  35.450  30.458   2.896
93374W        W59783  14.694  26.632   1.562
93375W        W59784  21.463   3.639   2.853
93376W        W59785   6.263   1.728  13.389
93377W        W59786  12.546  11.668  13.870
93378W        W59787  21.487  39.906   1.833
93379W        W59788  16.740  11.162   1.934
93380W        W59789  42.500  44.362   0.270
93381W        W59790   0.002  24.111   3.744
93382W        W59791  44.468  23.562  12.591
93383W        W59792  40.109  39.368  14.314
93384W        W59793  39.911  39.031  13.832
93385W        W59794  30.550  35.300   0.683
93386W        W59795  20.525  42.644  11.989
93387W        W59796  40.282  29.188   3.530
93388W        W59797  35.406   8.157   2.287
93389W        W59798  14.238  21.998   1.683
93390W        W59799  44.349  23.345   2.202
93391W        W59800   3.343   6.380   3.258
93392W        W59801   9.253  16.393   0.964
93393W        W59802  27.120   4.713   0.287
93394W        W59803   0.823  31.338   4.590
93395W        W59804  29.782  26.108   4.112
93396W        W59805  42.864  21.479  11.088
93397W        W59806  25.075  12.767   1.981
93398W        W59807  24.448   3.537  10.670
93399W        W59808  19.120   3.472   0.482
93400W        W59809   1.000  26.594  14.303
93401W        W59810  17.249  26.536   4.160
93402W        W59811  41.090   6.333   2.757
93403W        W59812  40.870  20.149  14.434
93404W        W59813  34.143  24.621  13.539
93405W        W59814  27.566   8.301  11.501
93406W        W59815  23.127  36.170  10.778
93407W        W59816  30.929   6.356   2.291
93408W        W59817  39.287  18.853   4.923
93409W        W59818  35.691  33.632  10.358
93410W        W59819  25.786  12.944  11.625
93411W        W59820  38.132  38.389  13.888
93412W        W59821   8.474  31.266  13.437
93413W        W59822  21.516  32.065   0.481
93414W        W59823  31.149  38.587  11.659
93415W        W59824   0.945  24.118  11.052
93416W        W59825  39.367  29.348   4.556
93417W        W59826   8.629   6.762  11.975
93418W        W59827  36.022  41.470  12.952
93419W        W59828  23.038  41.739  10.741
93420W        W59829  29.182  20.781  10.668
93421W        W59830  27.637  16.923   1.912
93422W        W59831  34.879  26.558  12.880
93423W        W59832   8.656  26.997  10.614
93424W        W59833  44.081   2.708   1.391
93425W        W59834   9.864  34.668   4.627
93426W        W59835  44.532  28.704  11.528
93427W        W59836  42.895  12.913  14.901
93428W        W59837  20.126   5.720   3.735
93429W        W59838   4.280  23.740  10.734
93430W        W59839  13.789   7.941   1.774
93431W        W59840  33.263  14.611  12.607
93432W        W59841  38.510  16.408   3.285
93433W        W59842  25.744   7.243   1.303
93434W        W59843  17.225  24.707  13.843
93435W        W59844  18.351  39.836  14.774
93436W        W59845   8.944  43.785   1.459
93437W        W59846  30.006   0.368   2.882
93438W        W59847  43.452  38.248  11.058
93439W        W59848  23.489  15.213  13.589
93440W        W59849  34.734  25.014   5.100
93441W        W59850  36.585  28.167   0.404
93442W        W59851  44.255   4.958  11.519
93443W        W59852   7.895  15.063  13.413
93444W        W59853  18.683  31.141   1.444
93445W        W59854   5.269  14.939   0.975
93446W        W59855  21.727  22.953  11.576
93447W        W59856  12.542  44.932   1.826
93448W        W59857  14.924  19.156   2.853
93449W        W59858  38.910   2.456   2.890
93450W        W59859  41.440  13.440  11.625
93451W        W59860  41.336   1.816  14.437
93452W        W59861  40.119  27.423   0.285
93453W        W59862  34.849  15.679   1.752
93454W        W59863  40.825  42.544  12.433
93455W        W59864  15.762  35.940  11.719
93456W        W59865  26.188   0.487   0.776
93457W        W59866  32.436   7.209  10.083
93458W        W59867  33.909  23.683   0.233
93459W        W59868   5.702   5.978  11.841
93460W        W59869  32.917  16.291   3.395
93461W        W59870  26.036  29.211   1.876
93462W        W59871  43.037  27.557   0.293
93463W        W59872  24.690  29.584   4.662
93464W        W59873  43.758  33.078   3.147
93465W        W59874  43.462  43.034   4.046
93466W        W59875  31.957  42.284   0.892
93467W        W59876  41.839   1.903  14.291
93468W        W59877  36.007  33.679  14.609
93469W        W59878  16.250   2.291   4.268
93470W        W59879  32.280  44.307  14.906
93471W        W59880  44.839  38.495   2.336
93472W        W59881  28.443   7.181  11.553
93473W        W59882  22.110  28.347  13.433
93474W        W59883  14.555   8.289   3.745
93475W        W59884  44.799   5.382   2.775
93476W        W59885   9.758  28.376  12.877
93477W        W59886  31.227   0.752   2.235
93478W        W59887   5.256  37.081   2.180
93479W        W59888  11.531  11.316  11.635
93480W        W59889  27.573  23.116  14.240
93481W        W59890  44.112  30.682  11.163
93482W        W59891  30.892  21.685   1.144
93483W        W59892  24.445  10.210  14.093
93484W        W59893  28.721  18.099   3.081
93485W        W59894  30.897   2.653   0.944
93486W        W59895  25.940  40.918  11.618
93487W        W59896   4.768   3.446   5.023
93488W        W59897  16.623  42.185  14.050
93489W        W59898  11.642  11.189   1.857
93490W        W59899  32.392   4.445   5.049
93491W        W59900  41.393  22.968   1.715
93492W        W59901  32.424  30.161  12.530
93493W        W59902  25.208  19.689  12.852
93494W        W59903  31.280  26.565  10.706
93495W        W59904   7.277  28.279  13.013
93496W        W59905  29.274  24.892   4.583
93497W        W59906   3.997  20.572  14.767
93498W        W59907   0.240  38.470  12.419
93499W        W59908  36.369   1.060  11.596
93500W        W59909  20.704   3.773   4.382
93501W        W59910  10.104  21.775  13.993
93502W        W59911  25.498   1.736  11.489
93503W        W59912  42.387  27.942  14.243
93504W        W59913  25.094  37.937   4.922
93505W        W59914  24.476   7.746  10.178
93506W        W59915  17.569   9.855   3.409
93507W        W59916  43.638  39.913  10.438
93508W        W59917   4.147  35.545   2.447
93509W        W59918  37.533  24.860  10.548
93510W        W59919  10.781  19.301  14.016
93511W        W59920   8.204  36.077  14.406
93512W        W59921  27.012   0.784  13.262
93513W        W59922  13.837  12.167  13.032
93514W        W59923  21.038  14.251  11.764
93515W        W59924  21.709  10.796   3.878
93516W        W59925  44.873  30.415   2.884
93517W        W59926  43.834  44.874   3.355
93518W        W59927  26.268  22.956  12.099
93519W        W59928  10.961  37.325   1.458
93520W        W59929  12.592  38.937   4.449
93521W        W59930  26.604  26.167   2.236
93522W        W59931   3.507  16.791   1.734
93523W        W59932  16.309  34.445   4.571
93524W        W59933  30.748  24.516   2.348
93525W        W59934   0.842  27.645   2.807
93526W        W59935  32.408   1.070   4.519
93527W        W59936  27.336  43.282   0.988
93528W        W59937   2.480  23.526   0.891
93529W        W59938  25.743   0.514   3.347
93530W        W59939  34.827  14.752  13.406
93531W        W59940  34.266   5.247   2.474
93532W        W59941  30.693  30.926   5.016
93533W        W59942  36.637  15.849  11.716
93534W        W59943   1.214  30.075  10.633
93535W        W59944  18.210  16.357  14.276
93536W        W59945  26.022   2.814   2.013
93537W        W59946  23.580  30.126  12.429
93538W        W59947  17.805  17.521  12.084
93539W        W59948  27.494   1.161  13.899
93540W        W59949  39.304   1.201  14.922
93541W        W59950   8.524  25.051   1.503
93542W        W59951   2.288  36.147  14.307
93543W        W59952  38.834  32.675   2.572
93544W        W59953   7.133  26.731  12.925
93545W        W59954  28.581   9.390  13.965
93546W        W59955   8.767  32.000   2.345
93547W        W59956  44.922  39.021   3.630
93548W        W59957   0.001  30.164   3.336
93549W        W59958  35.125  43.864  13.507
93550W        W59959  40.836  27.025  14.511
93551W        W59960  19.737  20.559   4.121
93552W        W59961  12.395  42.709  11.252
93553W        W59962  43.168  19.267  11.502
93554W        W59963  35.390  23.984   3.800
93555W        W59964   8.717  37.789  14.038
93556W        W59965  42.065  42.436   4.559
93557W        W59966   8.245   2.718  13.125
93558W        W59967  25.279  11.032   1.899
93559W        W59968  32.247   5.219  13.976
93560W        W59969  36.088  41.949   2.890
93561W        W59970  37.987  29.769   4.346
93562W        W59971   3.974  42.258   1.699
93563W        W59972   1.045   3.957   1.779
93564W        W59973   5.177   8.735  10.972
93565W        W59974  28.504  39.528  13.689
93566W        W59975  40.919  10.363   5.105
93567W        W59976  23.683   6.997  12.227
93568W        W59977   9.886  40.265   4.080
93569W        W59978  29.634  40.358  13.010
93570W        W59979  16.867   3.150  13.790
93571W        W59980  22.723  30.438  11.635
93572W        W59981   7.469  26.603   0.454
93573W        W59982   3.096  36.488  12.969
93574W        W59983   7.273  12.802   4.496
93575W        W59984  34.810  23.617   0.611
93576W        W59985  18.018  38.400  10.715
93577W        W59986  10.368  10.164  10.920
93578W        W59987  14.833  11.079  13.882
93579W        W59988  26.965   6.717  14.095
93580W        W59989  26.967  17.711   0.047
93581W        W59990  39.467   2.810  12.095
93582W        W59991  27.009  27.097   3.152
93583W        W59992  25.148   7.311   1.742
93584W        W59993  10.080  40.485   5.054
93585W        W59994  34.799  37.552   0.102
93586W        W59995  28.305   3.735  12.402
93587W        W59996   4.282  20.760  12.979
93588W        W59997  15.105   8.073   1.207
93589W        W59998  39.371   1.733   2.248
93590W        W59999   3.138  28.475  11.653
93591W        W60000   4.451  11.170   0.807
93592W        W60001   4.755  23.874   4.565
93593W        W60002  27.777  18.251  12.838
93594W        W60003  14.817   2.334  14.047
93595W        W60004  42.431  30.635  14.898
93596W        W60005  33.671  18.701  12.089
93597W        W60006  15.704  27.976   1.141
93598W        W60007   4.738  12.238   4.336
93599W        W60008  18.186  18.081  10.678
93600W        W60009   5.739   3.028  10.399
93601W        W60010   1.000   9.941   3.207
93602W        W60011  14.068  21.573   1.915
93603W        W60012  11.598  23.733  14.932
93604W        W60013  38.761  31.011   1.672
93605W        W60014  31.824   7.783   3.333
93606W        W60015  17.601  18.192  13.588
93607W        W60016   0.704  42.327  13.513
93608W        W60017   2.009  12.569   0.281
93609W        W60018   4.512  39.439  11.013
93610W        W60019  39.044  31.114   1.253
93611W        W60020  26.386  35.515  10.906
93612W        W60021  29.608   7.926  12.443
93613W        W60022  21.745  39.954   3.280
93614W        W60023  23.238  10.777  14.468
93615W        W60024  16.453   7.269   4.147
93616W        W60025  31.935  27.982   4.153
93617W        W60026  36.080  35.424   0.940
93618W        W60027   1.385  33.043   4.155
93619W        W60028   3.604  13.873  13.338
93620W        W60029  44.334  13.983  11.592
93621W        W60030  39.613   2.792   2.423
93622W        W60031  28.511  40.956  12.480
93623W        W60032  13.233   1.545  12.057
93624W        W60033   4.392  40.577   1.889
93625W        W60034   9.099  24.558   0.795
93626W        W60035  19.298  35.890   1.925
93627W        W60036  14.295  20.135   2.075
93628W        W60037  23.180  29.020  14.913
93629W        W60038  27.252   2.611   0.745
93630W        W60039   3.231  29.918  10.433
93631W        W60040   8.682  23.470  11.156
93632W        W60041  44.279  17.384  10.247
93633W        W60042  22.273  30.129   1.841
93634W        W60043  15.522  23.051   0.408
93635W        W60044  39.242  21.116   0.990
93636W        W60045  10.668  34.855  10.709
93637W        W60046  28.709   2.439  11.056
93638W        W60047  12.666  32.264  11.361
93639W        W60048  31.624  12.302   1.781
93640W        W60049  39.008  32.485   4.383
93641W        W60050  19.958  13.895   2.464
93642W        W60051  29.003  37.550   0.946
93643W        W60052  22.786  38.583   3.643
93644W        W60053  32.322  40.001   1.640
93645W        W60054   0.700  19.681  10.784
93646W        W60055  36.130   9.691   1.344
93647W        W60056  38.502  16.872   2.881
93648W        W60057  11.198  28.461  14.424
93649W        W60058  20.697   2.331   0.259
93650W        W60059  25.395   7.636   1.402
93651W        W60060  44.564  26.170  12.023
93652W        W60061  17.808  11.383   2.865
93653W        W60062  21.296  18.597   3.748
93654W        W60063   9.387  27.070  13.793
93655W        W60064  13.079  40.614   4.974
93656W        W60065  29.128  18.390   4.939
93657W        W60066  11.034  40.111   0.380
93658W        W60067  34.972  32.585   0.430
93659W        W60068   8.721  17.190   2.654
93660W        W60069  40.277   3.436   3.363
93661W        W60070  35.731  29.146  12.080
93662W        W60071  36.479  10.242   2.589
93663W        W60072  36.643  44.770  11.122
93664W        W60073  29.144  13.152   4.166
93665W        W60074  40.736  40.326   0.366
93666W        W60075   3.306  43.230   1.225
93667W        W60076   6.730   6.495   4.173
93668W        W60077   4.617  32.434  11.173
93669W        W60078  43.309  38.069   0.772
93670W        W60079   8.770  30.397  11.904
93671W        W60080  25.065   8.670  11.501
93672W        W60081  44.368  37.401   1.352
93673W        W60082   1.593  37.265  13.086
93674W        W60083  22.280  16.105  14.499
93675W        W60084  13.029  26.121   1.323
93676W        W60085  35.467   3.788   9.879
93677W        W60086   5.220   5.425   1.720
93678W        W60087  39.080  18.578   1.833
93679W        W60088   8.143  38.021  10.716
93680W        W60089   6.286  23.936  12.872
93681W        W60090   8.317  22.980   1.275
93682W        W60091  41.898   8.187  14.186
93683W        W60092  20.789  44.349   0.383
93684W        W60093  31.147  11.193   4.481
93685W        W60094  12.582   6.150  11.260
93686W        W60095  20.057  14.387   4.132
93687W        W60096  33.241  17.784  12.944
93688W        W60097  16.104  12.236   3.214
93689W        W60098  36.630   6.749   1.476
93690W        W60099   7.444  31.625   4.003
93691W        W60100  44.457  21.492   3.918
93692W        W60101  34.901   0.001  10.964
93693W        W60102  23.966  25.285  12.984
93694W        W60103   3.045  11.899   2.285
93695W        W60104  31.086   5.745  13.373
93696W        W60105  35.536  13.528   3.538
93697W        W60106  39.972   0.649   2.170
93698W        W60107  38.939  13.305  14.312
93699W        W60108   7.730   1.537   2.890
93700W        W60109  36.613  27.979  12.213
93701W        W60110  32.993  39.593  14.411
93702W        W60111  13.105  40.805   4.010
93703W        W60112   7.685  36.077  14.278
93704W        W60113  34.132   1.491   2.331
93705W        W60114  10.898  22.797   4.063
93706W        W60115   6.160  29.129   2.124
93707W        W60116  19.268  21.000   0.435
93708W        W60117  32.838   8.155   3.106
93709W        W60118   7.270  29.432  12.359
93710W        W60119  16.790  17.605  14.423
93711W        W60120  13.175  31.363   3.840
93712W        W60121  20.618  31.927   0.790
93713W        W60122  23.644  41.383  12.212
93714W        W60123  31.470  19.354  14.415
93715W        W60124  36.475  41.175  12.915
93716W        W60125  39.526  12.912   0.932
93717W        W60126   7.761  41.526   4.015
93718W        W60127  28.138  15.119  10.564
93719W        W60128   0.494  37.631   3.156
93720W        W60129  19.248  24.137   2.593
93721W        W60130  25.713   9.803   1.835
93722W        W60131  35.932   0.775  11.552
93723W        W60132  31.335  38.926   0.733
93724W        W60133   6.742  28.593   2.434
93725W        W60134  24.980  41.475  13.466
93726W        W60135  18.549  18.640  11.993
93727W        W60136  42.797  24.237  12.406
93728W        W60137  41.379  40.344   3.238
93729W        W60138  41.133  17.379   4.872
93730W        W60139  31.660   7.768  13.030
93731W        W60140  40.924  41.364   1.040
93732W        W60141  29.684  12.230  14.873
93733W        W60142  38.553  27.257   2.623
93734W        W60143  20.727  10.568  13.270
93735W        W60144  20.134   9.137  10.863
93736W        W60145  32.121   8.346  11.295
93737W        W60146  42.832   4.336  13.738
93738W        W60147  31.081  41.178   4.558
93739W        W60148   6.876   2.752   1.763
93740W        W60149  36.440  14.829   1.452
93741W        W60150   6.302  40.930   2.825
93742W        W60151  28.199  14.817  13.413
93743W        W60152  18.118   3.924   2.081
93744W        W60153  19.066  13.694   0.004
93745W        W60154  25.139  44.542  14.901
93746W        W60155  27.840  39.831   0.409
93747W        W60156  14.175  33.046  12.850
93748W        W60157  15.630  40.771  14.103
93749W        W60158  33.609  43.410   0.439
93750W        W60159   6.511  40.685   1.277
93751W        W60160  38.488  33.326  13.844
93752W        W60161   2.308   3.035  10.607
93753W        W60162  27.460   6.903   4.900
93754W        W60163  25.635  36.098   1.806
93755W        W60164   1.756  22.813   0.813
93756W        W60165  44.027  17.111  11.621
93757W        W60166  14.157  13.200  11.148
93758W        W60167  36.825   5.203   4.226
93759W        W60168   8.789   2.220  10.713
93760W        W60169  16.884  27.294  12.833
93761W        W60170   1.211  40.403  11.656
93762W        W60171  28.732  32.954  11.294
93763W        W60172  39.992  37.546   4.937
93764W        W60173  23.066  20.527   2.386
93765W        W60174  23.760  44.294  13.799
93766W        W60175  29.109   2.458  10.735
93767W        W60176  25.166  34.982  11.448
93768W        W60177  27.745  37.870  11.597
93769W        W60178   0.520  10.857   0.382
93770W        W60179  20.555   4.569   1.411
93771W        W60180  33.558  31.027   3.917
93772W        W60181   5.595   6.415  12.104
93773W        W60182   0.084  44.756   4.313
93774W        W60183  26.517  43.779  10.909
93775W        W60184  34.912   7.929   3.794
93776W        W60185  42.377   1.813  12.062
93777W        W60186   2.503  14.023  12.726
93778W        W60187  38.427   7.637   2.118
93779W        W60188  25.962   4.799  14.825
93780W        W60189  20.662  38.530  11.546
93781W        W60190  30.692   8.866   2.926
93782W        W60191  38.489  44.008  14.378
93783W        W60192  41.058   0.980   0.483
93784W        W60193  11.145  11.097   3.704
93785W        W60194  39.671   6.387   2.180
93786W        W60195  17.833   1.301   1.898
93787W        W60196  21.482  14.812   1.482
93788W        W60197   4.736   6.831  14.157
93789W        W60198   3.236  36.118  13.488
93790W        W60199  43.367   8.451   0.152
93791W        W60200   1.321  36.475  12.600
93792W        W60201  35.787  23.326  11.481
93793W        W60202  37.331  27.233  11.379
93794W        W60203  44.483  36.447   1.896
93795W        W60204  26.588  27.724   5.102
93796W        W60205  26.274  37.321   2.769
93797W        W60206  38.146  12.120  12.893
93798W        W60207  17.797  43.722  14.874
93799W        W60208  14.401  21.493   2.321
93800W        W60209  37.149  44.780   3.287
93801W        W60210  35.600  23.112   0.971
93802W        W60211  29.188   1.406   1.878
93803W        W60212  37.704  40.325   3.906
93804W        W60213  11.249  42.784  14.822
93805W        W60214  40.331  38.047   0.435
93806W        W60215   2.649  13.405   3.985
93807W        W60216  29.174  10.701  10.693
93808W        W60217   8.363  31.877   4.000
93809W        W60218   1.349  14.640  11.060
93810W        W60219  29.690   1.954  14.559
93811W        W60220  23.962  43.573  11.386
93812W        W60221   4.390  24.935   3.257
93813W        W60222  36.443  42.967   3.272
93814W        W60223   7.087  20.215  12.735
93815W        W60224   8.217  37.818   4.155
93816W        W60225  33.140  12.412  12.094
93817W        W60226  35.824   8.547  11.995
93818W        W60227  14.605   7.107   3.188
93819W        W60228  36.519   3.002  12.596
93820W        W60229  13.292  18.139  14.909
93821W        W60230   5.325  32.472  12.435
93822W        W60231  26.933  25.498   3.170
93823W        W60232  40.802   5.928  13.112
93824W        W60233  27.643   8.827  12.103
93825W        W60234   0.232  39.867   0.237
93826W        W60235  12.774  39.849   0.295
93827W        W60236  42.320  42.271   2.259
93828W        W60237  27.542  11.709  14.904
93829W        W60238  40.630  13.195  14.304
93830W        W60239  27.966   7.636   4.959
93831W        W60240  33.102  31.980  11.550
93832W        W60241  17.851  42.706  14.837
93833W        W60242  17.063  14.073   1.154
93834W        W60243  16.688  11.482  14.018
93835W        W60244  38.466  40.112  12.943
93836W        W60245  12.048   6.270   2.783
93837W        W60246   5.737  24.511   3.055
93838W        W60247  42.051  37.998   1.757
93839W        W60248  25.334  31.616   0.416
93840W        W60249  21.659  44.404   4.269
93841W        W60250   7.899  24.132  11.410
93842W        W60251  33.132  21.466   0.757
93843W        W60252  33.451  22.900  10.252
93844W        W60253   8.081  27.718  10.083
93845W        W60254  42.062  34.986   3.390
93846W        W60255  34.603  34.491  11.524
93847W        W60256  34.260  17.721   2.247
93848W        W60257  32.574  42.468   0.751
93849W        W60258  18.589  12.178   0.891
93850W        W60259  40.999   6.215   4.264
93851W        W60260   2.647   9.666  11.014
93852W        W60261  34.819   9.814   4.517
93853W        W60262  27.612  31.322   3.934
93854W        W60263  20.559  33.583  11.181
93855W        W60264  24.248  14.276   2.181
93856W        W60265  12.229  38.166   4.673
93857W        W60266   5.638   0.394  12.289
93858W        W60267  29.562  26.480   0.444
93859W        W60268   5.444  41.530  12.966
93860W        W60269   8.667  10.867   1.851
93861W        W60270  40.600   1.604  14.255
93862W        W60271  11.282  14.275   2.677
93863W        W60272  26.096  13.147  13.867
93864W        W60273   5.940   5.800   1.159
93865W        W60274  12.125  43.042   4.573
93866W        W60275  24.433  11.820   2.285
93867W        W60276  42.062   4.493  13.788
93868W        W60277  40.021  24.189   3.227
93869W        W60278  12.021   9.884   3.274
93870W        W60279   9.174  42.256  13.418
93871W        W60280  32.332  25.196   2.465
93872W        W60281   7.151   4.041   2.166
93873W        W60282  10.275  28.743  14.842
93874W        W60283  44.881  25.132   2.511
93875W        W60284  22.496  13.175   4.055
93876W        W60285  33.190  41.134  14.279
93877W        W60286   5.745   6.139   1.829
93878W        W60287  10.203  16.643   0.180
93879W        W60288  16.373  29.398  11.369
93880W        W60289  27.309  37.541  11.578
93881W        W60290  42.372   3.930   1.653
93882W        W60291  26.429   2.325  11.544
93883W        W60292  14.718   1.843   0.326
93884W        W60293  39.553  38.089  13.369
93885W        W60294  10.280  10.013   4.829
93886W        W60295  23.467  15.489  12.805
93887W        W60296  14.819  14.513  11.724
93888W        W60297  22.173  39.477   0.912
93889W        W60298  28.013  20.316  13.530
93890W        W60299  24.335  40.744   1.797
93891W        W60300   2.720   2.172  11.260
93892W        W60301  15.524  32.131   2.310
93893W        W60302   6.125  22.906   0.902
93894W        W60303   8.758  33.847  12.026
93895W        W60304  37.990  13.051   2.882
93896W        W60305  26.426  10.306   4.622
93897W        W60306   0.456   3.441   3.174
93898W        W60307  38.856  26.539   1.785
93899W        W60308  13.638  10.578  14.783
93900W        W60309  30.172  10.717  12.973
93901W        W60310  26.676  17.362  13.028
93902W        W60311   0.119  21.272  13.075
93903W        W60312  41.230  38.502  13.044
93904W        W60313   2.295   5.292   0.229
93905W        W60314  42.391  23.241   2.124
93906W        W60315  30.160   5.300  10.431
93907W        W60316  30.929   9.859   1.200
93908W        W60317  41.575  39.978  10.611
93909W        W60318  42.969  34.292  13.101
93910W        W60319  44.418  12.943  11.338
93911W        W60320  44.305   6.185   3.314
93912W        W60321  42.795  32.142  14.440
93913W        W60322  40.278  31.994  12.425
93914W        W60323  44.772  23.684   1.273
93915W        W60324   9.672  44.984  12.199
93916W        W60325  34.823  14.797   3.899
93917W        W60326  24.269  22.294  13.022
93918W        W60327  11.785  19.648   1.399
93919W        W60328  21.537   5.911   4.173
93920W        W60329   9.259  28.520   2.621
93921W        W60330  33.658  12.361  13.363
93922W        W60331  20.599  36.694  14.834
93923W        W60332  35.625   5.923   1.519
93924W        W60333   8.061  15.149   1.848
93925W        W60334  14.668  17.439  14.032
93926W        W60335   8.909  41.913   3.364
93927W        W60336   6.880  17.595  12.445
93928W        W60337   6.820   9.584   1.930
93929W        W60338   9.429   8.799  14.230
93930W        W60339  13.600  23.260  13.475
93931W        W60340  34.854   2.311  10.611
93932W        W60341  32.091  38.755  11.490
93933W        W60342  10.798  38.104   1.006
93934W        W60343  25.261   4.441  12.135
93935W        W60344  30.060  20.514  12.692
93936W        W60345  39.419  30.131   1.953
93937W        W60346   7.623  41.211   2.414
93938W        W60347  21.480  32.940  13.006
93939W        W60348   9.115  10.207  11.517
93940W        W60349   2.481  34.428   1.899
93941W        W60350  17.460   9.449  14.154
93942W        W60351  39.634  34.622   3.267
93943W        W60352  29.956   2.715   2.263
93944W        W60353  30.589  27.166   2.320
93945W        W60354  37.552   0.495   2.176
93946W        W60355  24.348  14.889  12.955
93947W        W60356  19.185  13.650  13.779
93948W        W60357   2.327  38.843   0.633
93949W        W60358  18.587  30.510  12.531
93950W        W60359   1.063   7.990   1.396
93951W        W60360  27.206  42.593  13.055
93952W        W60361   6.898  43.069   4.995
93953W        W60362  36.925   5.711  14.006
93954W        W60363   3.243  21.697  14.530
93955W        W60364   3.916  28.661  14.842
93956W        W60365  33.659  36.990   3.267
93957W        W60366  17.302  32.744   4.212
93958W        W60367  15.623  44.765  13.887
93959W        W60368  19.815   1.343  14.287
93960W        W60369  32.959  11.906  14.731
93961W        W60370   9.656  21.000   2.719
93962W        W60371  42.500   5.836   1.363
93963W        W60372  23.737   6.915  13.055
93964W        W60373  31.888  17.548  11.069
93965W        W60374  12.706  33.218   3.589
93966W        W60375   1.719  42.082  13.503
93967W        W60376  24.003   9.833  14.966
93968W        W60377   0.034  36.348   3.178
93969W        W60378  19.727   3.984   4.585
93970W        W60379  43.812  43.292   4.323
93971W        W60380  18.288  33.782  12.540
93972W        W60381  27.284  40.396  12.998
93973W        W60382   9.891   6.776   1.195
93974W        W60383  26.461  41.498   4.257
93975W        W60384  29.600  18.004   0.595
93976W        W60385  20.715  23.778  14.375
93977W        W60386  14.896  18.413  13.761
93978W        W60387  12.401  39.563  12.543
93979W        W60388  37.782  22.720   0.752
93980W        W60389   9.598  42.569  11.891
93981W        W60390  33.919  26.418  14.971
93982W        W60391  15.748  32.331   4.584
93983W        W60392   0.688  12.164  12.930
93984W        W60393   1.602  24.916  11.160
93985W        W60394  19.457  25.498   1.262
93986W        W60395  25.654  37.422   0.247
93987W        W60396  33.571  21.758  12.128
93988W        W60397  24.466  27.451  14.467
93989W        W60398   5.293  21.870  12.143
93990W        W60399  28.537  24.674   2.482
93991W        W60400  22.025  29.947  12.044
93992W        W60401  31.651  32.622   2.118
93993W        W60402  41.937  41.765  11.116
93994W        W60403  20.098  20.599  11.104
93995W        W60404  41.768  22.189  14.011
93996W        W60405   7.857  28.666   4.540
93997W        W60406  22.146  35.402  12.083
93998W        W60407   2.980  24.588   3.323
93999W        W60408  35.133  39.109   4.548
94000W        W60409  25.516  19.096  14.064
94001W        W60410  33.392  27.552  13.981
94002W        W60411  26.672   0.033  12.283
94003W        W60412  34.469  31.354  12.954
94004W        W60413  30.204   7.131   4.364
94005W        W60414  15.613  38.453  12.717
94006W        W60415  39.648  39.359  12.077
94007W        W60416   7.699   4.788   0.703
94008W        W60417  39.840  11.308   0.488
94009W        W60418  11.386  10.854   4.174
94010W        W60419  43.330  20.515  11.003
94011W        W60420  24.672   2.876   3.206
94012W        W60421  28.885  40.305   0.269
94013W        W60422  22.244  10.625  14.283
94014W        W60423   4.857   6.873   1.812
94015W        W60424  35.961  43.293   1.423
94016W        W60425   6.298  28.578  14.053
94017W        W60426  12.676  30.435  14.406
94018W        W60427  19.795  13.890   3.876
94019W        W60428  38.021  22.225  12.878
94020W        W60429  26.744  41.907  14.502
94021W        W60430   0.354  41.724   1.832
94022W        W60431   1.655  12.014  10.625
94023W        W60432  42.181  27.783   0.280
94024W        W60433   2.339  44.911  13.180
94025W        W60434  41.909  24.602   1.812
94026W        W60435   6.356  25.270  14.338
94027W        W60436   5.022  17.628  10.516
94028W        W60437  34.632  32.889   2.760
94029W        W60438  43.874  24.456   4.114
94030W        W60439  10.779  14.689  11.617
94031W        W60440  10.771   3.425  12.369
94032W        W60441  44.724  44.449   1.013
94033W        W60442  43.842  40.719  11.646
94034W        W60443   4.387  20.962  12.485
94035W        W60444  40.854  41.027   4.133
94036W        W60445   9.487  18.335   1.529
94037W        W60446  33.591  34.295  12.221
94038W        W60447  29.274  31.084   3.141
94039W        W60448  30.948  20.620   0.309
94040W        W60449   3.935   0.976   2.727
94041W        W60450  35.692  35.010   4.608
94042W        W60451  17.210  23.487  10.897
94043W        W60452  32.978   6.395  14.910
94044W        W60453  33.983  43.804  14.344
94045W        W60454  21.274  23.510   4.541
94046W        W60455  42.907  17.967  14.389
94047W        W60456   9.077   2.866   1.938
94048W        W60457  34.798  25.224  13.314
94049W        W60458  42.195  28.051   4.317
94050W        W60459  31.873  24.562  11.569
94051W        W60460   7.633   1.270   2.364
94052W        W60461  33.896  10.448  11.544
94053W        W60462  24.010  12.563  11.219
94054W        W60463  30.298  26.795  13.733
94055W        W60464  10.201  38.811  14.407
94056W        W60465  40.290  21.372  14.322
94057W        W60466  20.534  19.487   2.311
94058W        W60467  39.080   2.443   3.807
94059W        W60468  15.736  29.917   3.268
94060W        W60469  15.921  24.923   2.371
94061W        W60470  33.690   9.764   2.574
94062W        W60471   7.015  44.912  14.772
94063W        W60472  12.243   3.762  13.370
94064W        W60473  18.696  36.988   0.948
94065W        W60474  20.944  17.415   5.046
94066W        W60475  33.600  13.390   4.624
94067W        W60476  39.428   3.168  12.884
94068W        W60477  30.018   7.849  14.627
94069W        W60478  37.816  27.566  12.069
94070W        W60479   1.493  37.423   3.619
94071W        W60480  39.998  31.413   3.787
94072W        W60481  28.513  28.960  11.151
94073W        W60482  43.399  44.043  13.078
94074W        W60483  34.391   2.516  10.668
94075W        W60484  40.470  37.070  11.602
94076W        W60485  28.099   8.879   0.674
94077W        W60486  27.446   7.497  14.974
94078W        W60487  31.782  17.565   3.601
94079W        W60488  27.284   2.699   1.373
94080W        W60489  36.329  27.399   2.790
94081W        W60490  31.943  14.119  10.842
94082W        W60491  20.079  20.039  12.375
94083W        W60492  18.798  41.443  14.504
94084W        W60493  31.889  35.624   0.055
94085W        W60494   2.182  13.567   1.212
94086W        W60495  11.775   9.385  10.747
94087W        W60496  42.925  21.494   3.665
94088W        W60497  23.340  37.992  14.108
94089W        W60498  23.032  13.601   4.584
94090W        W60499  30.538  37.065   4.246
94091W        W60500   2.419  42.982  14.675
94092W        W60501  14.143  42.739   2.652
94093W        W60502  33.972  33.645  10.618
94094W        W60503  44.211  38.391  14.352
94095W        W60504   8.303   6.916   4.571
94096W        W60505   5.387  20.275  14.190
94097W        W60506  18.020  38.829   2.504
94098W        W60507  26.195   9.561   1.834
94099W        W60508   6.773   0.496  14.579
94100W        W60509  10.301  42.365  11.501
94101W        W60510  44.064  19.293  13.051
94102W        W60511  35.936  18.119  12.231
94103W        W60512  15.114  35.256   2.086
94104W        W60513   6.924   3.782   0.681
94105W        W60514  27.287  36.323   4.482
94106W        W60515   1.306   9.635  13.110
94107W        W60516  19.220  13.090   1.677
94108W        W60517  14.754  25.601  12.044
94109W        W60518  34.105   5.116  14.740
94110W        W60519  34.794  10.471   2.453
94111W        W60520  23.510  35.040   4.021
94112W        W60521   5.012  20.541  14.563
94113W        W60522  13.701  35.100  10.293
94114W        W60523   0.172  31.376   2.910
94115W        W60524  17.792  18.298  14.068
94116W        W60525   3.449  41.709  11.537
94117W        W60526  21.531  22.322   1.383
94118W        W60527  38.517  12.442  12.766
94119W        W60528  18.119  16.634   4.498
94120W        W60529  11.876  15.789  11.369
94121W        W60530   0.467  32.091  11.083
94122W        W60531  30.350  40.994   4.404
94123W        W60532  10.152   0.897  13.079
94124W        W60533   6.143  13.536  12.961
94125W        W60534  44.737  25.565  13.786
94126W        W60535   5.768  39.288  10.380
94127W        W60536  35.407  16.137  11.352
94128W        W60537   1.005  35.671   0.897
94129W        W60538  27.967  20.792   3.603
94130W        W60539   2.454  11.596   0.447
94131W        W60540  37.668  38.961   3.927
94132W        W60541  35.002  42.316   3.228
94133W        W60542   2.725  36.789  14.007
94134W        W60543   2.350  36.150  13.397
94135W        W60544  43.618  33.924   1.685
94136W        W60545   0.214   4.439   4.715
94137W        W60546  13.184  14.721   4.272
94138W        W60547  33.927  42.294  12.419
94139W        W60548  10.282  36.013   0.428
94140W        W60549  41.281  37.425  12.649
94141W        W60550   2.461  24.802   0.971
94142W        W60551  26.452  14.802  14.427
94143W        W60552  43.774   3.373   0.733
94144W        W60553  32.892  25.817   4.136
94145W        W60554  33.593  30.604  12.164
94146W        W60555  39.059   1.274  13.891
94147W        W60556  42.768  31.650   3.295
94148W        W60557  30.008  13.265   4.514
94149W        W60558  26.022  12.285  12.614
94150W        W60559  30.181  17.129  14.061
94151W        W60560  37.064  26.733   4.398
94152W        W60561  33.969  29.783   4.134
94153W        W60562  37.774  35.742   3.242
94154W        W60563  37.458  28.018  11.193
94155W        W60564  23.666  20.789  12.168
94156W        W60565  35.028  12.414  14.757
94157W        W60566  33.051   8.279  10.922
94158W        W60567   7.414  42.877   2.818
94159W        W60568  33.235   7.706  12.903
94160W        W60569  15.194  22.282  10.885
94161W        W60570   5.232  39.014  14.890
94162W        W60571  33.775  13.253  11.372
94163W        W60572  12.724  17.999   2.784
94164W        W60573  37.420  43.829  10.663
94165W        W60574  33.598  16.540  10.761
94166W        W60575  43.639  34.829   5.229
94167W        W60576  18.045  27.722   0.466
94168W        W60577   4.387  32.538   3.554
94169W        W60578  29.700  43.995   2.132
94170W        W60579   0.480  36.062   2.263
94171W        W60580  29.524   2.242   0.947
94172W        W60581  29.094  21.300  14.792
94173W        W60582  30.423  34.500   1.264
94174W        W60583  41.955   0.872   2.785
94175W        W60584   3.966  27.559  14.818
94176W        W60585   4.880   9.452  11.020
94177W        W60586  20.924  36.947   3.456
94178W        W60587  40.233   2.921  13.821
94179W        W60588   7.745  26.960   0.234
94180W        W60589  20.300  17.181  11.642
94181W        W60590  11.604  41.646  10.752
94182W        W60591  37.202  29.393   5.154
94183W        W60592  18.505  24.989  14.858
94184W        W60593  14.249  30.117  12.974
94185W        W60594   7.400   4.355  12.161
94186W        W60595  11.642  25.132   0.407
94187W        W60596  41.467   8.301   4.225
94188W        W60597  34.394   8.702   3.718
94189W        W60598   6.785   4.818  12.041
94190W        W60599  35.109   3.365  12.951
94191W        W60600  37.873  28.229   2.057
94192W        W60601  30.391  28.592   1.446
94193W        W60602   5.821   3.830  14.850
94194W        W60603  25.105  44.565  13.521
94195W        W60604  43.030   0.837   3.607
94196W        W60605  37.005  10.628   4.883
94197W        W60606  16.225  41.330  11.933
94198W        W60607  33.669  23.280   0.528
94199W        W60608  40.300  11.889   2.359
94200W        W60609   3.635  16.148  11.620
94201W        W60610  12.601  41.961  12.544
94202W        W60611   7.741  14.255   1.498
94203W        W60612  29.497  21.146   0.889
94204W        W60613  30.052   7.011   1.699
94205W        W60614  26.574  13.974  13.069
94206W        W60615  17.176  24.161   1.662
94207W        W60616  32.366   1.889  12.610
94208W        W60617  30.623  26.585   1.497
94209W        W60618  44.423   6.232   3.834
94210W        W60619  12.477  13.696  12.438
94211W        W60620   3.824  32.459   1.252
94212W        W60621  15.677  14.535   0.809
94213W        W60622   9.410  25.187  14.400
94214W        W60623  43.197  24.878   0.944
94215W        W60624  13.745  44.567  13.576
94216W        W60625  39.419  30.532  13.203
94217W        W60626  19.143  25.724  10.995
94218W        W60627  13.542  19.219   1.364
94219W        W60628  16.416  28.043  14.426
94220W        W60629  23.820  13.834  12.461
94221W        W60630   2.837  10.814   1.157
94222W        W60631  32.292  17.520   1.148
94223W        W60632   2.019  27.975   1.771
94224W        W60633   0.297  14.033   0.776
94225W        W60634  31.111  12.159  12.463
94226W        W60635   2.809  14.862  14.374
94227W        W60636  12.227   0.254  11.033
94228W        W60637  14.635   3.481  10.664
94229W        W60638  30.458  15.874   2.854
94230W        W60639   3.383   9.341   3.514
94231W        W60640  10.345  20.647  13.413
94232W        W60641  11.224  42.967   1.212
94233W        W60642  30.001  19.078  13.011
94234W        W60643   4.451  43.394   4.511
94235W        W60644  37.709  41.755  10.978
94236W        W60645   2.975   2.817   4.873
94237W        W60646   0.859  37.119  13.223
94238W        W60647  43.880   0.772  14.364
94239W        W60648  24.591  19.545   2.359
94240W        W60649  22.501  30.872   0.892
94241W        W60650  22.320   8.148  10.821
94242W        W60651   6.928   5.736  14.996
94243W        W60652   7.178  28.236  12.467
94244W        W60653  43.931  18.604  13.903
94245W        W60654  22.648  10.013  13.752
94246W        W60655  32.679  22.597  11.893
94247W        W60656  38.940  28.047  10.148
94248W        W60657  31.235   5.250  10.608
94249W        W60658  17.616  38.673  10.596
94250W        W60659  33.954  28.899  13.427
94251W        W60660  18.101  12.365   0.969
94252W        W60661   2.412  42.731   0.137
94253W        W60662  12.329  37.375   3.411
94254W        W60663  41.362  34.686   3.266
94255W        W60664  22.420  30.511   2.403
94256W        W60665  32.090  29.125   2.753
94257W        W60666  38.313  31.031   2.122
94258W        W60667   2.312  28.008  11.231
94259W        W60668  40.929  29.903  13.503
94260W        W60669  41.793  24.380  11.118
94261W        W60670  26.069   0.289   3.012
94262W        W60671  41.692  23.566  11.016
94263W        W60672  10.564  37.814   4.213
94264W        W60673  16.110  33.759   3.622
94265W        W60674  39.051   7.421  14.250
94266W        W60675  29.903  10.163  12.195
94267W        W60676  40.523  25.824  13.095
94268W        W60677  11.085   8.343   1.909
94269W        W60678  19.932  15.847  14.829
94270W        W60679  44.819  21.247   0.369
94271W        W60680  10.159   2.977   1.787
94272W        W60681  24.201   5.352  13.360
94273W        W60682  35.305  26.434  13.976
94274W        W60683  36.485   6.784  14.139
94275W        W60684  41.397   2.713   1.755
94276W        W60685   6.845  35.038   2.724
94277W        W60686  12.182  10.122   2.197
94278W        W60687  14.399  40.885   3.761
94279W        W60688  33.720  16.829   0.593
94280W        W60689  38.427  35.891  13.417
94281W        W60690  34.343   8.266  14.545
94282W        W60691   7.147   3.296   0.773
94283W        W60692  12.592  18.139  12.364
94284W        W60693  39.906  30.548   1.261
94285W        W60694   4.247   1.805   0.740
94286W        W60695   3.014  33.206  13.466
94287W        W60696  29.039   9.628  14.077
94288W        W60697  32.481  24.747   2.226
94289W        W60698  40.520  32.762   2.769
94290W        W60699  35.940  34.420   2.240
94291W        W60700  18.534  31.345   0.403
94292W        W60701  38.858  17.274   2.824
94293W        W60702   0.921  20.598  13.988
94294W        W60703  22.639  22.021  11.601
94295W        W60704   1.320  26.827  12.859
94296W        W60705  36.619  41.088  11.199
94297W        W60706  19.396  36.947   2.342
94298W        W60707   6.294  35.327   3.368
94299W        W60708  24.466  10.640  14.854
94300W        W60709   2.241  12.440   4.882
94301W        W60710  43.435  23.060   2.031
94302W        W60711   0.260  41.234  11.484
94303W        W60712   6.244  40.846   2.303
94304W        W60713  10.772  23.969   2.252
94305W        W60714  17.226  12.432  12.523
94306W        W60715  41.500  28.349   1.607
94307W        W60716  22.291  32.619   1.787
94308W        W60717   2.259  36.817  14.914
94309W        W60718  19.765   3.164  14.175
94310W        W60719   3.380  18.029   4.527
94311W        W60720  41.837  26.505  10.295
94312W        W60721   6.725  15.854   4.145
94313W        W60722  17.645  13.475  13.513
94314W        W60723   3.359   6.007   2.638
94315W        W60724  38.338  35.502   4.547
94316W        W60725  32.130   2.860   1.199
94317W        W60726   6.922  32.608   2.710
94318W        W60727   1.451   7.228  12.060
94319W        W60728   9.886  27.385   2.342
94320W        W60729   7.684   4.296   4.194
94321W        W60730  39.866  43.409   2.322
94322W        W60731   8.172  35.367  11.072
94323W        W60732   5.451   6.039  14.926
94324W        W60733  14.545  40.925   0.902
94325W        W60734   5.687  17.852   0.771
94326W        W60735  23.524  37.028   0.427
94327W        W60736  27.014  29.991   2.444
94328W        W60737  18.608  19.047   2.305
94329W        W60738  43.358  44.714  13.532
94330W        W60739  23.714  39.924   2.288
94331W        W60740  25.617   8.184  12.957
94332W        W60741  25.638  29.716   4.764
94333W        W60742  32.532  44.843   0.896
94334W        W60743  40.551   4.961  12.598
94335W        W60744  30.987  27.443  12.022
94336W        W60745  27.483  34.122   0.869
94337W        W60746  12.306   3.248  13.475
94338W        W60747   0.883  39.073   3.748
94339W        W60748   2.955  12.858   2.664
94340W        W60749  43.039  34.780  10.979
94341W        W60750  25.279  15.599   9.939
94342W        W60751   5.431  44.285   0.418
94343W        W60752  44.219  24.456   3.703
94344W        W60753  11.827   8.854  13.949
94345W        W60754   5.875   4.461   4.654
94346W        W60755   8.504   7.233  13.012
94347W        W60756  37.404  26.017   0.752
94348W        W60757   6.916  37.984   0.300
94349W        W60758   1.943  19.990  12.854
94350W        W60759  43.780   2.499  14.086
94351W        W60760  41.437  11.354   3.563
94352W        W60761  25.837  23.878  11.117
94353W        W60762  36.619  10.150  11.630
94354W        W60763  44.964  36.384  14.268
94355W        W60764   0.468   0.987   0.320
94356W        W60765  10.577  19.769   5.206
94357W        W60766  15.614  35.045   1.262
94358W        W60767   0.446  36.064   0.483
94359W        W60768  17.373  10.808  14.138
94360W        W60769  33.958   4.503  12.950
94361W        W60770  34.001   7.906  10.789
94362W        W60771  32.096  32.606  14.423
94363W        W60772  27.114   8.305  13.597
94364W        W60773  40.990  35.933   4.573
94365W        W60774  25.989  41.857  13.989
94366W        W60775  24.872   4.285   4.221
94367W        W60776   8.289  34.182  12.500
94368W        W60777   6.633   0.749   0.787
94369W        W60778  34.566   6.356   4.950
94370W        W60779  14.198  19.069   2.355
94371W        W60780  23.578  14.369  14.763
94372W        W60781  24.565   5.241  12.516
94373W        W60782  26.593  31.487   3.292
94374W        W60783  38.488  38.529  11.430
94375W        W60784  34.421  11.172   3.606
94376W        W60785  28.627  13.878   4.547
94377W        W60786  26.583  44.973   0.222
94378W        W60787  32.533  34.910   3.224
94379W        W60788  40.370  20.515  13.486
94380W        W60789  12.613  20.587  11.966
94381W        W60790  10.901  28.661   1.842
94382W        W60791  27.699  24.727  12.085
94383W        W60792  32.491  39.568  11.531
94384W        W60793  38.570  28.487  11.702
94385W        W60794  35.086  10.670  14.477
94386W        W60795  12.948  12.439   1.587
94387W        W60796  36.411  43.543   4.047
94388W        W60797  17.259  34.968   2.486
94389W        W60798  32.451  43.376   0.071
94390W        W60799  42.047  31.593   1.609
94391W        W60800   3.179  44.217   2.275
94392W        W60801  35.181   2.285   4.557
94393W        W60802  29.630  23.055   3.281
94394W        W60803   2.310  24.224  11.947
94395W        W60804  14.784  42.301   3.716
94396W        W60805  24.596  44.759  14.746
94397W        W60806  27.031  25.481  12.618
94398W        W60807   9.888  30.363  12.855
94399W        W60808  21.976  15.790   0.780
94400W        W60809  17.997  43.800  13.927
94401W        W60810  23.611  33.775   0.955
94402W        W60811  28.233  30.547  13.521
94403W        W60812  10.826   4.594   3.773
94404W        W60813  20.468  15.744  12.503
94405W        W60814  43.455   2.952   0.455
94406W        W60815   6.979  11.407  12.385
94407W        W60816  34.045  31.183  10.872
94408W        W60817  19.993  27.780   4.271
94409W        W60818  29.584  37.956  11.474
94410W        W60819  15.703   5.636  14.205
94411W        W60820   9.398   2.792   4.059
94412W        W60821  31.876  16.649  10.662
94413W        W60822  11.085  11.581  14.378
94414W        W60823  44.491   3.275  12.000
94415W        W60824   6.899  19.576   4.650
94416W        W60825   9.154   9.371  10.607
94417W        W60826   3.759   0.723   4.575
94418W        W60827  22.135  29.159   1.454
94419W        W60828  36.400  44.881   1.737
94420W        W60829  31.989  22.740   3.169
94421W        W60830  35.553  32.036   2.386
94422W        W60831  21.647  42.052  11.137
94423W        W60832  43.965  39.237   0.297
94424W        W60833  24.550  19.380   5.170
94425W        W60834  28.713  43.381  13.286
94426W        W60835  12.254  40.026   0.244
94427W        W60836   8.940   8.711   4.981
94428W        W60837  15.654  25.574   4.943
94429W        W60838  39.769  26.678  12.535
94430W        W60839  20.540  39.622   3.594
94431W        W60840   9.281  35.542  13.106
94432W        W60841  28.514  44.819   4.500
94433W        W60842   7.253  27.436   1.950
94434W        W60843   6.764  25.177  10.382
94435W        W60844  13.812   1.593   1.430
94436W        W60845  31.432   5.385  11.060
94437W        W60846  23.209  39.482   0.787
94438W        W60847   6.129  29.963   1.502
94439W        W60848  21.719  11.828  12.594
94440W        W60849  42.590  39.480   2.884
94441W        W60850  16.289  39.765   0.238
94442W        W60851  21.738  14.594  14.556
94443W        W60852  30.125   8.295  13.782
94444W        W60853  33.660  27.335   0.843
94445W        W60854   4.896  20.513   0.590
94446W        W60855  22.000  18.132   0.010
94447W        W60856  33.440   8.724   2.948
94448W        W60857   1.105  18.595  13.568
94449W        W60858  26.943   2.156  10.677
94450W        W60859  22.306  39.838  10.952
94451W        W60860  24.998  42.284  10.736
94452W        W60861  43.895  20.224   4.628
94453W        W60862  32.005  25.261  11.831
94454W        W60863   5.608  12.650  12.056
94455W        W60864  19.446  32.785   0.460
94456W        W60865   9.719  31.790  12.559
94457W        W60866  24.701  10.879  14.467
94458W        W60867  32.606  41.532   3.765
94459W        W60868  28.342  11.370  14.791
94460W        W60869  13.050  25.975  12.093
94461W        W60870  33.091  26.838   2.155
94462W        W60871  42.904  36.606  10.682
94463W        W60872   8.248  43.100  14.522
94464W        W60873  12.820  28.996   3.703
94465W        W60874  27.934   4.383  12.459
94466W        W60875  32.932  35.434  13.883
94467W        W60876   8.180  31.042  12.037
94468W        W60877  18.763  28.544   2.483
94469W        W60878  14.673  40.294   1.617
94470W        W60879  38.876  15.396   3.295
94471W        W60880  26.728  14.221  13.520
94472W        W60881   5.950  30.348   1.814
94473W        W60882  17.222  15.659   0.750
94474W        W60883  26.552  15.885  11.703
94475W        W60884  41.581   1.699   0.736
94476W        W60885  29.668  41.808   1.474
94477W        W60886  14.697   9.092  12.909
94478W        W60887   6.006  42.801   3.257
94479W        W60888   4.845  23.594   2.959
94480W        W60889  29.069   2.829   2.202
94481W        W60890   5.636   6.725   3.042
94482W        W60891  33.487   7.927   3.599
94483W        W60892  35.515  39.940  11.523
94484W        W60893  20.515  21.761  11.977
94485W        W60894  25.683  41.810   0.198
94486W        W60895  10.578   8.137  12.927
94487W        W60896  11.177   6.909  14.878
94488W        W60897   8.130  32.395  11.102
94489W        W60898  43.724  31.878  11.095
94490W        W60899  40.477  30.157  13.569
94491W        W60900  38.096  36.499   2.670
94492W        W60901   7.858  28.731   3.156
94493W        W60902  34.401   8.123  11.058
94494W        W60903   5.874  10.451  11.966
94495W        W60904  33.216  35.023  12.910
94496W        W60905  22.108   4.300  11.914
94497W        W60906  16.337   1.853   1.584
94498W        W60907  12.526  16.258  10.719
94499W        W60908   9.910  37.872  12.638
94500W        W60909   9.615  23.536  14.770
94501W        W60910  12.962  17.804  12.546
94502W        W60911   1.254  29.865   2.533
94503W        W60912  30.658   0.286  11.173
94504W        W60913  29.880  24.829  11.463
94505W        W60914  15.807  15.258  12.900
94506W        W60915  11.221  13.854  14.993
94507W        W60916  12.188   3.140   2.775
94508W        W60917  14.839  34.545   1.353
94509W        W60918  21.275  43.008   4.827
94510W        W60919  36.551  25.548   4.888
94511W        W60920  20.817  15.350   2.530
94512W        W60921   0.844  37.551  13.514
94513W        W60922  27.670  44.049   4.501
94514W        W60923  38.750  22.904  14.890
94515W        W60924  36.847  18.634  13.225
94516W        W60925  34.645  15.167   4.183
94517W        W60926  37.492  32.927  13.493
94518W        W60927   5.329  25.717   3.761
94519W        W60928  18.827  11.770   4.131
94520W        W60929   1.329  12.238  14.115
94521W        W60930   9.144  26.574  12.099
94522W        W60931  44.548  13.247   0.849
94523W        W60932   2.006   3.438   4.202
94524W        W60933   0.340  32.663  12.478
94525W        W60934  41.949  12.832  13.995
94526W        W60935  40.534   1.541   1.131
94527W        W60936  24.225  33.661   2.639
94528W        W60937  40.148   4.877  10.545
94529W        W60938  26.529  24.484   3.689
94530W        W60939  10.931   8.308   0.735
94531W        W60940  30.529   5.760  12.575
94532W        W60941  11.196  38.629   3.293
94533W        W60942   0.842  27.028   3.288
94534W        W60943  23.744   4.824   4.588
94535W        W60944  22.898  19.256  14.622
94536W        W60945  33.931  20.116   0.017
94537W        W60946   4.402  21.253  10.672
94538W        W60947  28.641  34.870   1.763
94539W        W60948  44.382  35.452  14.857
94540W        W60949  24.321   8.676   5.551
94541W        W60950  22.589  10.299   1.575
94542W        W60951  13.721  32.931   4.009
94543W        W60952   2.029  26.772   3.425
94544W        W60953  29.087  31.548  14.907
94545W        W60954  11.593  16.842   0.415
94546W        W60955  32.967   8.210   4.096
94547W        W60956   0.202  13.583  10.714
94548W        W60957  36.953   5.432  13.124
94549W        W60958  20.644  11.361   0.628
94550W        W60959  29.452  13.032   3.314
94551W        W60960   3.758  24.891  14.418
94552W        W60961   5.392  21.710   1.586
94553W        W60962  16.559  26.678  11.149
94554W        W60963  26.303  40.370  14.028
94555W        W60964  24.529  25.942   1.916
94556W        W60965  12.374  26.372  10.655
94557W        W60966   3.675  32.113   4.946
94558W        W60967  29.790  27.668   2.358
94559W        W60968   9.975   7.256  14.886
94560W        W60969  30.127  21.560  14.726
94561W        W60970  32.163  18.727  12.464
94562W        W60971  25.004  14.819   0.179
94563W        W60972  19.516  33.578   3.861
94564W        W60973  33.034  30.433  13.847
94565W        W60974  37.430  20.706   1.207
94566W        W60975  44.962  33.826   3.123
94567W        W60976  42.547  43.888   0.472
94568W        W60977  26.710  44.864  11.463
94569W        W60978  28.554  17.880   1.014
94570W        W60979  42.273  13.621  12.053
94571W        W60980  16.680  15.308   4.527
94572W        W60981  31.510  42.853   1.945
94573W        W60982  21.795   3.415  10.576
94574W        W60983   3.319  12.146   1.343
94575W        W60984  36.587  22.552  13.542
94576W        W60985   3.873  15.040  11.027
94577W        W60986   2.129  20.750  12.479
94578W        W60987   1.892   2.694  14.230
94579W        W60988   3.584   3.253   0.822
94580W        W60989  26.970   5.119  13.492
94581W        W60990   9.231   1.835   3.738
94582W        W60991  29.703  17.330   1.906
94583W        W60992   9.397   9.587   2.161
94584W        W60993  25.591  42.569  13.913
94585W        W60994  31.066  16.178   3.866
94586W        W60995  17.689  33.053   4.072
94587W        W60996  38.538  14.215   3.669
94588W        W60997  42.501   2.002   2.781
94589W        W60998  23.777  44.035   2.159
94590W        W60999  17.057   8.343   3.924
94591W        W61000  26.415  10.144   9.854
94592W        W61001  18.787  28.049   0.254
94593W        W61002  38.968  36.671   2.618
94594W        W61003  11.174  17.340   2.013
94595W        W61004  40.811   8.943  12.928
94596W        W61005   0.802   0.374   0.947
94597W        W61006  37.045  27.679  12.369
94598W        W61007  34.104  28.475   2.745
94599W        W61008  36.099   5.794  10.982
94600W        W61009  42.411  20.158   1.358
94601W        W61010  12.131  34.686   4.038
94602W        W61011   9.569  41.449  14.363
94603W        W61012   9.425  12.581   1.178
94604W        W61013  24.280   2.802  11.444
94605W        W61014  30.363  42.245  11.254
94606W        W61015  39.323   4.468   4.158
94607W        W61016  27.622  44.282  10.888
94608W        W61017  32.850  30.105  11.178
94609W        W61018  35.408  35.923   2.342
94610W        W61019   4.903  34.831   4.630
94611W        W61020  42.249   5.782  11.188
94612W        W61021  21.878  38.852  11.210
94613W        W61022  20.792  27.910   0.244
94614W        W61023  43.761  13.793   0.942
94615W        W61024  33.913  36.352  10.498
94616W        W61025   9.383  32.501   1.950
94617W        W61026  23.479  10.778  14.956
94618W        W61027  24.437  34.878   3.752
94619W        W61028   2.607  20.592  12.591
94620W        W61029   2.444  32.282  10.419
94621W        W61030  41.034  16.128   4.226
94622W        W61031  21.937  32.669  11.702
94623W        W61032  34.555  25.942   1.344
94624W        W61033  14.806  12.703  10.773
94625W        W61034  42.789  18.331   0.422
94626W        W61035  27.515  39.224   0.951
94627W        W61036  16.041   6.605   1.658
94628W        W61037  17.436  38.004   0.947
94629W        W61038   0.368  25.280  12.763
94630W        W61039  35.355  27.176  14.406
94631W        W61040  40.068  14.831  10.492
94632W        W61041  18.758  37.754  12.638
94633W        W61042  33.476  20.792  11.122
94634W        W61043  44.398  20.023  10.597
94635W        W61044  16.843  38.095  12.517
94636W        W61045  29.949  36.766  10.743
94637W        W61046  25.555  29.411   0.775
94638W        W61047   3.342  12.536  12.045
94639W        W61048  29.400  11.189   1.766
94640W        W61049  40.889  38.160   4.106
94641W        W61050   3.523  37.077   0.468
94642W        W61051  27.210  43.486  13.554
94643W        W61052  32.295  19.556   4.570
94644W        W61053  23.880  36.359  13.420
94645W        W61054   1.958  24.604  12.985
94646W        W61055  36.452   5.263  11.427
94647W        W61056  20.285   6.078   1.023
94648W        W61057  28.780  29.976  14.266
94649W        W61058  13.213  43.121   2.704
94650W        W61059  31.363   8.676   5.378
94651W        W61060   9.464  20.633   3.307
94652W        W61061  37.381  40.067  14.921
94653W        W61062   4.335  39.895  11.184
94654W        W61063  23.538  16.859   0.433
94655W        W61064  27.277  16.586  13.140
94656W        W61065  41.393   7.688   4.877
94657W        W61066  15.270  19.058  14.966
94658W        W61067  36.099  11.962  14.843
94659W        W61068   5.087  28.073   2.315
94660W        W61069  23.147  10.055  13.671
94661W        W61070  33.230   4.321   2.216
94662W        W61071  24.651  16.774   0.979
94663W        W61072  37.530  40.373   0.305
94664W        W61073  41.712  42.270  14.066
94665W        W61074   4.772  18.328   4.256
94666W        W61075  27.479   8.872   3.144
94667W        W61076  26.404  37.933   1.864
94668W        W61077  31.119   1.768  14.274
94669W        W61078   3.819  25.677   4.561
94670W        W61079   8.910  30.883   3.178
94671W        W61080  16.761   5.145  13.546
94672W        W61081  23.020  26.983   4.256
94673W        W61082  39.997  43.759  10.787
94674W        W61083  26.466  11.676  14.722
94675W        W61084  18.263  16.183  11.142
94676W        W61085   1.754  36.441  11.667
94677W        W61086  27.881  42.906  11.652
94678W        W61087  16.838  25.986  10.512
94679W        W61088  34.139   9.093  14.786
94680W        W61089   4.244  31.528   1.206
94681W        W61090  40.208  14.456   4.980
94682W        W61091  31.443  34.941   2.272
94683W        W61092  18.034  28.956  14.841
94684W        W61093   8.611  17.155  10.764
94685W        W61094   4.710  20.660  12.147
94686W        W61095  23.718  43.511   4.207
94687W        W61096  28.326  11.249   5.312
94688W        W61097  21.669  26.695   4.053
94689W        W61098  38.558  16.723   5.291
94690W        W61099   3.340  38.447  13.246
94691W        W61100  18.778  24.073   4.332
94692W        W61101  34.482  44.874   2.841
94693W        W61102  38.027  13.713   0.812
94694W        W61103   5.800   9.901   2.256
94695W        W61104  36.991  34.253   0.691
94696W        W61105   8.020  35.835  10.892
94697W        W61106  12.177  39.297   1.930
94698W        W61107   9.708  43.544  11.094
94699W        W61108   6.168  14.559   4.153
94700W        W61109  18.514  17.803  11.650
94701W        W61110  40.886  21.100   4.192
94702W        W61111  17.695  42.505   1.664
94703W        W61112  15.925  23.620  11.648
94704W        W61113  35.757  42.852   3.545
94705W        W61114  42.776  22.129  13.933
94706W        W61115   0.164  13.388  13.918
94707W        W61116  41.709  15.306  14.456
94708W        W61117   7.720  32.214   2.225
94709W        W61118   4.179  39.781  12.972
94710W        W61119  33.956  28.094   3.166
94711W        W61120  44.580   3.835   1.348
94712W        W61121   9.186  37.028   0.295
94713W        W61122   7.863  13.054   3.241
94714W        W61123   1.250  21.176  13.108
94715W        W61124  43.394  36.329   4.122
94716W        W61125  29.686   8.883   2.759
94717W        W61126  40.990  19.651  14.312
94718W        W61127  15.032  27.393   3.501
94719W        W61128   6.653  26.570   4.548
94720W        W61129  43.947  12.731  11.275
94721W        W61130   4.723  43.729   3.707
94722W        W61131  31.934  34.623   0.930
94723W        W61132  41.299  15.319  13.409
94724W        W61133   3.329  37.596  14.060
94725W        W61134  31.679  24.505   1.299
94726W        W61135  41.553  30.786   3.674
94727W        W61136  22.414  17.142   3.622
94728W        W61137  25.531  21.346  13.441
94729W        W61138  16.739  35.634   4.107
94730W        W61139  33.129  15.672  12.328
94731W        W61140  38.818  12.636   4.370
94732W        W61141  24.528  27.458   0.934
94733W        W61142  15.546  35.115   2.391
94734W        W61143  32.806  36.877   2.880
94735W        W61144  34.987   6.811   0.293
94736W        W61145   9.033  33.025   2.076
94737W        W61146  44.803   4.444   0.442
94738W        W61147  23.266  10.753   3.159
94739W        W61148  31.976  37.910  14.423
94740W        W61149  34.121  42.137   4.146
94741W        W61150  16.610   0.323   2.850
94742W        W61151   4.252  38.440  11.698
94743W        W61152  34.100  42.855  14.430
94744W        W61153  38.426   1.425   4.140
94745W        W61154  36.115   4.949   3.692
94746W        W61155  42.341  20.092  14.888
94747W        W61156  38.602   0.929  13.750
94748W        W61157  37.975  30.735  11.565
94749W        W61158  16.778   0.142   1.508
94750W        W61159  26.509   0.547   2.868
94751W        W61160   1.515  19.015   0.701
94752W        W61161  33.067  10.561   1.019
94753W        W61162  11.204  31.562  10.877
94754W        W61163  38.789  42.820  11.543
94755W        W61164   6.925  37.432   2.817
94756W        W61165  36.964  34.290   2.214
94757W        W61166  13.687  31.258   3.796
94758W        W61167  37.479   7.662   4.288
94759W        W61168  30.974  34.134   0.969
94760W        W61169  33.871  15.778   1.890
94761W        W61170  32.507   2.938   3.615
94762W        W61171  40.531   9.667  12.559
94763W        W61172  44.615  21.660   4.943
94764W        W61173  41.466  14.262  12.969
94765W        W61174  14.477  18.790  13.764
94766W        W61175  28.469  31.344  12.639
94767W        W61176  30.932  39.116  10.849
94768W        W61177  39.344   4.747   2.736
94769W        W61178  15.035   0.076  11.729
94770W        W61179  41.926  26.456  13.001
94771W        W61180  39.068  23.923  12.470
94772W        W61181  39.650  25.487   0.434
94773W        W61182  32.390  19.681   5.059
94774W        W61183  10.553  27.627  13.592
94775W        W61184  10.596  30.930  13.599
94776W        W61185  22.757  39.267  11.494
94777W        W61186  15.238  29.370   2.778
94778W        W61187  25.043  23.233  11.500
94779W        W61188  31.485  29.346  13.813
94780W        W61189  22.157  35.205   0.022
94781W        W61190  23.187   8.628   2.974
94782W        W61191  35.091   8.779   1.950
94783W        W61192   6.365  26.731  14.386
94784W        W61193   8.398   6.894  11.535
94785W        W61194   0.921   9.904  14.008
94786W        W61195  18.685  33.674  11.102
94787W        W61196  15.930  36.373   0.951
94788W        W61197  21.792  41.397  14.393
94789W        W61198  37.804  14.757   3.659
94790W        W61199  39.799  19.172  12.399
94791W        W61200   3.262   0.218  10.954
94792W        W61201  28.093  11.146  11.471
94793W        W61202   4.295  26.148   0.203
94794W        W61203  34.523  18.716  10.557
94795W        W61204   2.321   9.407  12.518
94796W        W61205  24.752  35.903  12.844
94797W        W61206  22.373   4.430   1.175
94798W        W61207  10.911  18.273  13.001
94799W        W61208  43.938   2.778   0.452
94800W        W61209  15.557  25.668  11.155
94801W        W61210  31.442  36.641   0.873
94802W        W61211   6.741  43.063  11.471
94803W        W61212  41.002  44.966   2.849
94804W        W61213  31.696  12.815   3.535
94805W        W61214   4.353  29.878  13.548
94806W        W61215  11.588  12.194  11.588
94807W        W61216  33.570  33.443   2.725
94808W        W61217  33.462  44.488  12.868
94809W        W61218   1.193   8.644  14.178
94810W        W61219  42.040  35.039  13.397
94811W        W61220  28.398   2.792  13.877
94812W        W61221  21.838  35.153  13.373
94813W        W61222  31.542  12.116   2.411
94814W        W61223  30.661  16.624  12.318
94815W        W61224  29.937  29.031   4.950
94816W        W61225  38.103  33.783   2.135
94817W        W61226  12.922  18.970  10.214
94818W        W61227   8.290   8.115  14.114
94819W        W61228   8.578  13.947  10.773
94820W        W61229  18.532  23.899   3.313
94821W        W61230  29.527  24.909  14.413
94822W        W61231  21.476  11.769   3.214
94823W        W61232  32.132  43.809  13.640
94824W        W61233  44.426  24.840  14.187
94825W        W61234  22.519   7.670   1.965
94826W        W61235  14.788  10.310  11.520
94827W        W61236  13.367  40.684  10.312
94828W        W61237  43.220  35.835   1.465
94829W        W61238  17.696  33.563  13.374
94830W        W61239  31.065  10.287  11.579
94831W        W61240  36.991  41.510  11.021
94832W        W61241  19.818   5.522   4.530
94833W        W61242  21.358  41.676   1.538
94834W        W61243  21.571  31.985  14.870
94835W        W61244   3.530   9.786   1.314
94836W        W61245  44.668  23.213   3.404
94837W        W61246  16.722  16.894  14.824
94838W        W61247  33.441  40.822  10.748
94839W        W61248  40.431  37.937   1.864
94840W        W61249  10.830  13.441  12.843
94841W        W61250  32.953  20.792  11.208
94842W        W61251  41.429   6.357  11.053
94843W        W61252   0.460  14.388   2.159
94844W        W61253  17.758  44.016   0.298
94845W        W61254  21.915  11.270   2.255
94846W        W61255  31.622  27.527   1.474
94847W        W61256  35.105  38.807   2.321
94848W        W61257  43.341  40.028  11.887
94849W        W61258  15.210  12.192   2.202
94850W        W61259  39.097  35.889  13.963
94851W        W61260  40.898  28.749  12.541
94852W        W61261  23.328   5.486  13.874
94853W        W61262  11.962  27.941  13.126
94854W        W61263   0.968  22.769  14.861
94855W        W61264  42.907  20.993  11.225
94856W        W61265  22.504  17.316  10.770
94857W        W61266  34.990  11.594  11.574
94858W        W61267  22.126  13.048  10.932
94859W        W61268  27.528  12.387   0.817
94860W        W61269   7.028  21.491   4.087
94861W        W61270  22.737   7.269  10.377
94862W        W61271  35.059  23.670  13.516
94863W        W61272  25.874  42.594   4.857
94864W        W61273  26.545  28.220  11.679
94865W        W61274  19.728  42.405  12.385
94866W        W61275   7.214  29.592   2.188
94867W        W61276   5.330   3.160  10.706
94868W        W61277  32.041  42.321  12.313
94869W        W61278  17.564  32.492  10.478
94870W        W61279  17.262  40.555   3.534
94871W        W61280  17.089  36.403  12.843
94872W        W61281   5.317  22.245  12.998
94873W        W61282  34.051  22.659   2.820
94874W        W61283  44.485  16.393   3.155
94875W        W61284  17.331   0.187  13.683
94876W        W61285  11.260  19.875   2.090
94877W        W61286  38.365  29.853  11.248
94878W        W61287  21.748  15.157   1.219
94879W        W61288  28.066  21.566   0.748
94880W        W61289  30.095  36.383   4.277
94881W        W61290  39.928  13.669  11.164
94882W        W61291  35.204  20.296   2.114
94883W        W61292  42.791  29.298  14.791
94884W        W61293  44.607  36.958   1.734
94885W        W61294  17.141   7.225   4.995
94886W        W61295  43.863  44.203   4.772
94887W        W61296   5.917   2.921   0.313
94888W        W61297   6.942   1.747   1.663
94889W        W61298  42.993  26.506  13.967
94890W        W61299  41.748   4.535   3.143
94891W        W61300   6.663  28.734  11.855
94892W        W61301  23.263  16.354  14.060
94893W        W61302  34.686  44.288  11.511
94894W        W61303   1.344  20.009   3.675
94895W        W61304  38.866   5.421  13.428
94896W        W61305  17.155  40.349  11.876
94897W        W61306  33.133   5.222   3.510
94898W        W61307  19.661  25.161   2.945
94899W        W61308  40.896  40.821   0.206
94900W        W61309  10.187   8.304   0.952
94901W        W61310  18.910  24.025   2.987
94902W        W61311  19.652  26.599   5.084
94903W        W61312   2.433  23.531   2.297
94904W        W61313  41.173  39.562   2.901
94905W        W61314   8.219  12.307   3.952
94906W        W61315  18.319  36.882   4.400
94907W        W61316  38.949  23.059   1.907
94908W        W61317  15.901  43.772  12.092
94909W        W61318  31.016  32.239  11.297
94910W        W61319  16.026  33.432  13.498
94911W        W61320  33.046  44.484  12.531
94912W        W61321   1.850  16.960   3.622
94913W        W61322  34.145   2.451   3.169
94914W        W61323   8.500  35.037  10.810
94915W        W61324  13.871  22.051  14.875
94916W        W61325   7.525   6.693   1.956
94917W        W61326  27.051  20.947  14.586
94918W        W61327  36.865  12.082  12.446
94919W        W61328   2.713   2.443   2.128
94920W        W61329   3.409  24.288  13.632
94921W        W61330  15.093  19.529   2.229
94922W        W61331  23.447  19.996   0.455
94923W        W61332  20.802  36.875  13.886
94924W        W61333  28.255  44.417   2.587
94925W        W61334  32.446  27.090   1.829
94926W        W61335   5.035  41.524   0.434
94927W        W61336  42.091  32.380  12.795
94928W        W61337  36.723  17.724   2.741
94929W        W61338  42.917  26.622  14.470
94930W        W61339  14.239  22.640  12.635
94931W        W61340  20.535  40.819   0.356
94932W        W61341   1.524  12.825   4.601
94933W        W61342  10.894  15.498   2.708
94934W        W61343  29.259  20.374  13.566
94935W        W61344  39.529   7.244  13.424
94936W        W61345   6.572  25.437  14.767
94937W        W61346  44.080  10.805   1.368
94938W        W61347  40.430  43.875   0.053
94939W        W61348  41.870  42.301  11.131
94940W        W61349  10.807  41.888  12.557
94941W        W61350  16.297   6.841  12.387
94942W        W61351   9.655  26.167   4.533
94943W        W61352  40.533  22.151   4.152
94944W        W61353   5.293   6.783  10.655
94945W        W61354  42.373   2.686  11.254
94946W        W61355  37.946  21.044  12.104
94947W        W61356   9.416   5.187   4.093
94948W        W61357  44.022  37.271  12.502
94949W        W61358  27.680  35.646  13.437
94950W        W61359  38.355  11.727  11.422
94951W        W61360  12.242  34.740  12.696
94952W        W61361  11.473  37.059  14.463
94953W        W61362  13.758  32.994  12.551
94954W        W61363  18.171  34.591  11.914
94955W        W61364  25.115  23.105  13.535
94956W        W61365  24.236   5.393   0.907
94957W        W61366  15.841  17.486   3.325
94958W        W61367   0.791  31.599   1.113
94959W        W61368  23.281  14.719  11.661
94960W        W61369  13.181  32.364   2.837
94961W        W61370  18.159  40.766   0.355
94962W        W61371   4.612   1.431   1.425
94963W        W61372  43.096  17.657  12.949
94964W        W61373  39.547  29.600   0.383
94965W        W61374  17.138  27.687   1.311
94966W        W61375  10.894  36.588  11.494
94967W        W61376  40.928   1.308   0.068
94968W        W61377  10.634  11.919   1.175
94969W        W61378  13.075  21.097  14.768
94970W        W61379   3.702  38.273  13.878
94971W        W61380   2.183  15.192   0.784
94972W        W61381  40.667   9.339  11.604
94973W        W61382  43.516  11.328   3.127
94974W        W61383  40.640   2.774   0.223
94975W        W61384  16.801  10.347   3.893
94976W        W61385  41.677  17.265   2.677
94977W        W61386  36.993  19.084   1.421
94978W        W61387  22.347  38.304   3.469
94979W        W61388   6.116  21.997  11.329
94980W        W61389  25.650  41.722  12.022
94981W        W61390  16.865  12.181   4.768
94982W        W61391  39.775   2.002   2.493
94983W        W61392  16.651  24.780  12.074
94984W        W61393  19.800   7.429   2.213
94985W        W61394  39.073  35.090   1.269
94986W        W61395   9.036  11.808   0.539
94987W        W61396  15.940  21.292  13.094
94988W        W61397  24.634  17.109  11.974
94989W        W61398  26.493  24.788  12.464
94990W        W61399  13.759  44.248  14.505
94991W        W61400   4.815  40.268   5.044
94992W        W61401  27.368  31.085   3.377
94993W        W61402  25.535   7.697  10.673
94994W        W61403  35.059   0.445   2.140
94995W        W61404  14.663  22.602   3.662
94996W        W61405  43.447  24.927   3.256
94997W        W61406   0.234   8.597  10.203
94998W        W61407  36.046   5.783  12.003
94999W        W61408   3.731  44.456   2.718
95000W        W61409  43.381   9.871   0.329
95001W        W61410  33.518  18.020  13.413
95002W        W61411  22.878  17.557   2.304
95003W        W61412   6.913  27.550  13.187
95004W        W61413  41.017  25.464   0.773
95005W        W61414   6.870   1.447  14.654
95006W        W61415  14.058  12.003   2.460
95007W        W61416  17.844  35.130  12.594
95008W        W61417   8.655  24.934   3.603
95009W        W61418  23.683  38.197  12.559
95010W        W61419   8.835  38.838   4.917
95011W        W61420  14.338   1.414   2.687
95012W        W61421  40.358  37.778  12.034
95013W        W61422  12.714  34.382  11.505
95014W        W61423  17.582  32.045   2.332
95015W        W61424  17.333  36.123   4.140
95016W        W61425  27.333  19.741   4.116
95017W        W61426  15.599  34.622   0.907
95018W        W61427  35.276  35.272   1.756
95019W        W61428  18.567  17.069  14.534
95020W        W61429   4.367  23.674   1.803
95021W        W61430   5.376  18.389  10.550
95022W        W61431  32.418  26.924  12.531
95023W        W61432   1.497  18.886  10.810
95024W        W61433  17.563  31.148  12.074
95025W        W61434   4.222  35.337   4.159
95026W        W61435  32.163  43.806   4.132
95027W        W61436  22.378  26.417   0.865
95028W        W61437  42.396  30.306   1.764
95029W        W61438  39.621  10.055  10.660
95030W        W61439  38.315  16.184   1.282
95031W        W61440  24.895  25.025   3.079
95032W        W61441  11.702  28.313  10.750
95033W        W61442   2.882  26.604   4.895
95034W        W61443   3.960  28.437  11.207
95035W        W61444  11.493  20.248  12.424
95036W        W61445   6.793  23.136   5.482
95037W        W61446  13.141  13.540   2.379
95038W        W61447  32.327  10.881  11.050
95039W        W61448  26.072  17.960  13.573
95040W        W61449   4.838  42.974   0.664
95041W        W61450  39.780  22.651   2.264
95042W        W61451  28.124  37.239  13.576
95043W        W61452   7.223  31.004   0.958
95044W        W61453   8.398   0.956  14.440
95045W        W61454  23.878   7.360  13.986
95046W        W61455  16.826  43.188   2.742
95047W        W61456  34.591   3.865   1.622
95048W        W61457  15.196   3.246  14.842
95049W        W61458  20.986   9.509  12.435
95050W        W61459   6.164   2.714   4.640
95051W        W61460  28.187  42.916   2.469
95052W        W61461  37.929  24.537   3.172
95053W        W61462  42.711  33.856  13.326
95054W        W61463   8.400  17.793  13.925
95055W        W61464  19.324  31.040   3.164
95056W        W61465  32.579   8.750   2.280
95057W        W61466  37.855   5.243  13.903
95058W        W61467  29.767  22.244   0.195
95059W        W61468  22.004  41.416  14.877
95060W        W61469  43.553  12.786  14.156
95061W        W61470  11.900   2.434  14.520
95062W        W61471  18.552  23.759   1.675
95063W        W61472  43.256   9.535   1.208
95064W        W61473   2.285  40.844  13.563
95065W        W61474   8.956  30.727   4.210
95066W        W61475  22.056  22.471  11.465
95067W        W61476  24.757   5.651   1.437
95068W        W61477  24.031  15.876   0.410
95069W        W61478  19.257  21.026   2.010
95070W        W61479  13.711  40.090   4.036
95071W        W61480  36.573  27.591   4.178
95072W        W61481  44.997  19.013  14.740
95073W        W61482   8.639  19.838   0.469
95074W        W61483  38.951  13.138  14.805
95075W        W61484  23.981  29.430   3.183
95076W        W61485  31.385  10.522  10.556
95077W        W61486  18.280  41.438  13.792
95078W        W61487  12.840  22.728   3.126
95079W        W61488  32.341   5.464  14.435
95080W        W61489  11.021  31.860  13.441
95081W        W61490  14.694   4.445  13.913
95082W        W61491  35.846  12.526   1.105
95083W        W61492   2.755  30.185  13.377
95084W        W61493  27.521  17.461  11.553
95085W        W61494  11.639   3.861   1.371
95086W        W61495   8.936  26.183  14.905
95087W        W61496  34.850  32.044   4.128
95088W        W61497  12.036  35.986   2.708
95089W        W61498   6.617  23.001  10.381
95090W        W61499   8.446  22.927   4.131
95091W        W61500  20.316  35.379  13.981
95092W        W61501  41.970  41.939   2.113
95093W        W61502  26.701  32.420  11.973
95094W        W61503  12.776  41.213   2.229
95095W        W61504  17.312  11.788  14.610
95096W        W61505  38.829   2.174   3.335
95097W        W61506   3.544   0.310   0.386
95098W        W61507  38.591  44.944   3.233
95099W        W61508   5.368  12.217   0.797
95100W        W61509  28.435  25.537  13.956
95101W        W61510  29.417  44.475  14.831
95102W        W61511  34.352   4.455  13.961
95103W        W61512   4.446  38.927  10.905
95104W        W61513  15.367   8.274   1.633
95105W        W61514  19.736  22.227  12.107
95106W        W61515   2.430  44.657  14.138
95107W        W61516  13.672  18.607   0.730
95108W        W61517  26.606  13.843  14.928
95109W        W61518  11.696  23.966  12.491
95110W        W61519   8.483  36.858  14.840
95111W        W61520  18.013  17.857   4.876
95112W        W61521  10.367  40.852   3.248
95113W        W61522   5.759  15.529   1.446
95114W        W61523  36.635   2.399   2.188
95115W        W61524  10.828  18.458   0.900
95116W        W61525  14.816  39.036  13.870
95117W        W61526   8.882  18.557  13.023
95118W        W61527  13.814   6.857   2.198
95119W        W61528   4.678   3.007   2.369
95120W        W61529  15.306  42.446   3.732
95121W        W61530  42.183  19.174   0.434
95122W        W61531  39.809  16.785  12.733
95123W        W61532  13.671  41.025  10.500
95124W        W61533   3.282  43.237  14.846
95125W        W61534  42.278  30.380   0.325
95126W        W61535  37.986  15.215  12.548
95127W        W61536  28.135   0.754  12.476
95128W        W61537  41.544  25.230  11.209
95129W        W61538   4.016  17.065   0.880
95130W        W61539  25.484  11.905   9.926
95131W        W61540   9.244  29.519  11.897
95132W        W61541  14.327  23.332  10.735
95133W        W61542  42.913  14.254   4.999
95134W        W61543  38.880  27.122  11.377
95135W        W61544  30.384  43.558  11.395
95136W        W61545  11.808  28.558  12.057
95137W        W61546  30.359  22.215   2.672
95138W        W61547  24.528  15.302   1.204
95139W        W61548  20.597  43.864  13.512
95140W        W61549  29.461  37.067  12.001
95141W        W61550   4.549  42.826   4.145
95142W        W61551  10.415  36.967   2.242
95143W        W61552  31.539  28.669   2.878
95144W        W61553  21.034  10.683  10.600
95145W        W61554  31.870  27.044   4.232
95146W        W61555  20.493   3.929  10.679
95147W        W61556  24.004   4.382  12.579
95148W        W61557  19.992  33.160  13.508
95149W        W61558  34.346  30.212  11.756
95150W        W61559  16.696   1.341   3.184
95151W        W61560   3.665  13.013  13.554
95152W        W61561  16.682  18.276  13.330
95153W        W61562   2.453  17.131  11.227
95154W        W61563  26.167  39.548   1.245
95155W        W61564  26.189   3.277   2.208
95156W        W61565  38.524  13.558  12.053
95157W        W61566  18.796  34.932  13.047
95158W        W61567  26.230  40.529  14.505
95159W        W61568  12.087  18.069  11.562
95160W        W61569   6.802   6.172  10.681
95161W        W61570   2.553  16.362   0.797
95162W        W61571   7.350   3.713  13.358
95163W        W61572  11.105   4.869   3.339
95164W        W61573  42.457  10.928  11.109
95165W        W61574  31.301  23.348  12.117
95166W        W61575  21.699  28.727  10.579
95167W        W61576  35.889  21.963   3.619
95168W        W61577  14.175  35.324   0.054
95169W        W61578  43.068  24.204  12.842
95170W        W61579  27.158   7.312   4.934
95171W        W61580  14.575  31.516   4.643
95172W        W61581  43.916  23.004  11.195
95173W        W61582  19.018  13.583   4.897
95174W        W61583   5.290  28.574   2.247
95175W        W61584  14.104  27.418  13.408
95176W        W61585   1.973  20.693   3.727
95177W        W61586  16.072  17.197   1.260
95178W        W61587  27.326  41.369   2.750
95179W        W61588  21.251  43.769  10.887
95180W        W61589  19.085   1.007  12.085
95181W        W61590   6.252   1.283   3.777
95182W        W61591  27.644   3.425  14.264
95183W        W61592  23.991   6.706  11.345
95184W        W61593  11.336  22.653   0.088
95185W        W61594  20.345  44.972  11.541
95186W        W61595  15.777   8.687  10.417
95187W        W61596   0.251  23.116   4.147
95188W        W61597  15.872  41.125   2.976
95189W        W61598  33.568  36.238  10.876
95190W        W61599  22.743  44.339   2.720
95191W        W61600  38.340  10.182  12.761
95192W        W61601   8.483  44.577  14.425
95193W        W61602  13.580  40.558   2.864
95194W        W61603  35.059  15.798   4.109
95195W        W61604  30.591   2.981  12.063
95196W        W61605  39.433  19.511   3.520
95197W        W61606  41.291   0.459  13.096
95198W        W61607  34.611  44.208  14.563
95199W        W61608  43.520   5.179  11.025
95200W        W61609  17.149  26.239   4.582
95201W        W61610  38.370   1.509   2.228
95202W        W61611  29.437  35.414   4.387
95203W        W61612  21.026  14.173  14.915
95204W        W61613   2.822   3.573  12.967
95205W        W61614  39.388  40.537   1.973
95206W        W61615  34.427  32.418   4.920
95207W        W61616  23.527  32.654   4.209
95208W        W61617  33.446   7.998   1.955
95209W        W61618  40.172  23.163  13.872
95210W        W61619   1.995  40.575   1.398
95211W        W61620  42.704  29.870   3.432
95212W        W61621  28.331  15.342  14.083
95213W        W61622  29.023  33.697   3.084
95214W        W61623   3.575   8.845   4.165
95215W        W61624  42.761   0.973   3.182
95216W        W61625  35.681   2.401  14.904
95217W        W61626  14.795   5.424   0.342
95218W        W61627   0.443  30.866  14.888
95219W        W61628  10.393  25.678   4.257
95220W        W61629  23.703  31.440  14.078
95221W        W61630   1.741  26.540  12.992
95222W        W61631  10.568  29.619   1.886
95223W        W61632  29.058  43.781   1.217
95224W        W61633  38.130  23.139   1.906
95225W        W61634   2.041  16.651   1.385
95226W        W61635  43.014  29.551  14.373
95227W        W61636   1.264  38.964   2.153
95228W        W61637  30.868  21.610   0.188
95229W        W61638  38.963  25.178   1.617
95230W        W61639  31.803  35.185   2.822
95231W        W61640  21.119  30.977  11.996
95232W        W61641  30.050  16.224  13.299
95233W        W61642  15.836   3.837  14.086
95234W        W61643   4.972  18.643   2.893
95235W        W61644  44.378  12.612   1.981
95236W        W61645  33.711   0.065  14.753
95237W        W61646  24.109  21.197  10.187
95238W        W61647   5.904   6.234   3.611
95239W        W61648  42.411  21.210  10.302
95240W        W61649  27.180   7.776  12.803
95241W        W61650   9.412  23.836   2.837
95242W        W61651  43.507  20.084  11.187
95243W        W61652  43.054  15.981   3.253
95244W        W61653  19.039  12.106  12.370
95245W        W61654  34.191  38.224  14.869
95246W        W61655   7.282  35.313  11.410
95247W        W61656  35.346  20.125   0.262
95248W        W61657  13.429  20.681  14.551
95249W        W61658  40.355   2.634  11.254
95250W        W61659  37.010  42.548  11.311
95251W        W61660  11.398  25.966   4.096
95252W        W61661  29.511  32.124   2.177
95253W        W61662  33.510  21.544   1.488
95254W        W61663  37.977  43.366   2.378
95255W        W61664  16.201  24.561  12.939
95256W        W61665  20.965  18.116  10.558
95257W        W61666  16.871  25.162  11.126
95258W        W61667  26.872   7.140  10.723
95259W        W61668  20.658   7.569   2.671
95260W        W61669  44.127  35.018   0.369
95261W        W61670  39.461  13.922   4.740
95262W        W61671   1.675  21.345  11.088
95263W        W61672  38.503  23.690  13.791
95264W        W61673   2.936   8.939  12.864
95265W        W61674  27.622  32.935  13.855
95266W        W61675  25.330  33.812   0.422
95267W        W61676  20.202  23.930  13.525
95268W        W61677   5.448  15.687   0.433
95269W        W61678  13.779   7.624  13.925
95270W        W61679  21.670  15.235  10.692
95271W        W61680  38.214  12.460   1.642
95272W        W61681  38.635  14.196  11.104
95273W        W61682  37.844  34.710   2.443
95274W        W61683  33.669  41.998  14.891
95275W        W61684   7.466  36.811  14.785
95276W        W61685  34.368  26.619  12.853
95277W        W61686  41.295  32.142  10.781
95278W        W61687  29.339  25.741  12.977
95279W        W61688  35.920  36.628   4.764
95280W        W61689  11.932  31.845  10.721
95281W        W61690  34.406  16.803  11.693
95282W        W61691  31.403  22.722   0.958
95283W        W61692  40.908  20.774   2.896
95284W        W61693  42.089  11.144   2.291
95285W        W61694  30.824  43.482  11.639
95286W        W61695  31.904   0.274   4.218
95287W        W61696  25.119   3.282   1.929
95288W        W61697  30.558   6.786   3.547
95289W        W61698  22.149  44.374   0.894
95290W        W61699  44.773   8.491  12.170
95291W        W61700  43.942  31.159   3.186
95292W        W61701  17.132  27.998  13.484
95293W        W61702  23.063   5.421   3.721
95294W        W61703   8.175   9.823  14.035
95295W        W61704  41.992   5.852  14.818
95296W        W61705  17.830   1.748   4.720
95297W        W61706  27.370  30.222  13.224
95298W        W61707  18.176  24.144   3.608
95299W        W61708  17.507  33.505   3.902
95300W        W61709  34.394  19.549   4.269
95301W        W61710  30.263  15.786   0.976
95302W        W61711  11.663  21.023   0.257
95303W        W61712  22.466  16.300  11.955
95304W        W61713  37.331  30.278  13.629
95305W        W61714   8.748  16.721   0.330
95306W        W61715  40.239  20.455   0.311
95307W        W61716  16.319  43.930  11.422
95308W        W61717  11.149  15.552  10.712
95309W        W61718  10.611  10.642   4.614
95310W        W61719  16.244  25.254  11.508
95311W        W61720   4.848  36.878   0.849
95312W        W61721   5.865   5.368   4.495
95313W        W61722  36.532  28.447  11.984
95314W        W61723  35.500   3.787   2.202
95315W        W61724   2.437  36.047  11.909
95316W        W61725  13.681  31.823   3.194
95317W        W61726  28.021  41.051  13.839
95318W        W61727  36.408   8.722   1.996
95319W        W61728  41.011   9.745  14.932
95320W        W61729   1.246  11.868  14.750
95321W        W61730   2.007  23.089   2.687
95322W        W61731  32.501  21.595   1.821
95323W        W61732   5.194  39.402   4.924
95324W        W61733  29.515  26.050   1.245
95325W        W61734   1.065   9.262   0.263
95326W        W61735  19.732   0.685   3.296
95327W        W61736  31.013   9.334  13.458
95328W        W61737  13.739  20.500   2.714
95329W        W61738   4.511   3.802   3.742
95330W        W61739  28.487  30.175  10.771
95331W        W61740  36.147  40.289  12.117
95332W        W61741   1.636  40.497   4.678
95333W        W61742   3.936  22.709  11.446
95334W        W61743  28.190  37.374   1.293
95335W        W61744  27.207  11.859   1.226
95336W        W61745  42.555  18.302   2.618
95337W        W61746  34.476   3.831   3.126
95338W        W61747  25.460  38.327  12.989
95339W        W61748   5.981  22.147  13.586
95340W        W61749  11.821  26.405  14.821
95341W        W61750  43.977   3.723  12.703
95342W        W61751  43.721  30.636  12.081
95343W        W61752  28.157  43.244  11.906
95344W        W61753  14.763  35.490   2.418
95345W        W61754   8.559  19.436  10.294
95346W        W61755  44.727  24.823  11.282
95347W        W61756  19.832  31.359  14.379
95348W        W61757  15.806  17.970  10.108
95349W        W61758  16.798  31.880  14.406
95350W        W61759  24.000   1.328  12.733
95351W        W61760  35.840  38.568  14.234
95352W        W61761   0.034  29.213   3.247
95353W        W61762  23.598   4.625   1.007
95354W        W61763   3.139  33.359   3.644
95355W        W61764   6.683  19.825  14.258
95356W        W61765   3.191  15.229   0.718
95357W        W61766  44.296   6.251  13.775
95358W        W61767  18.879  20.661  10.717
95359W        W61768   3.799  30.535   4.024
95360W        W61769  28.096  26.542  13.275
95361W        W61770  40.214  35.490   1.564
95362W        W61771   5.936  16.082  10.644
95363W        W61772  31.585  33.455   4.620
95364W        W61773   0.290  23.426   0.894
95365W        W61774  40.345  11.676   2.843
95366W        W61775  29.180  19.766   4.745
95367W        W61776  42.015  31.259  13.862
95368W        W61777  18.795  25.691  10.597
95369W        W61778  42.492   5.807  10.726
95370W        W61779  10.060  28.044   3.479
95371W        W61780  30.836  26.968   4.151
95372W        W61781  39.534  30.916   1.270
95373W        W61782   1.768  11.129   4.157
95374W        W61783   6.425  10.828   4.826
95375W        W61784  29.371   1.043   9.785
95376W        W61785  42.838   2.963  12.493
95377W        W61786  22.168  20.019   3.566
95378W        W61787   9.902  14.021  10.717
95379W        W61788   3.312   7.655  14.938
95380W        W61789  12.103   4.714   2.254
95381W        W61790  12.495  24.487  13.854
95382W        W61791  14.691   9.680   4.921
95383W        W61792   9.648  18.319  10.965
95384W        W61793  30.921  15.317  12.584
95385W        W61794  23.228   6.883   4.042
95386W        W61795  28.650  37.578   1.323
95387W        W61796  13.814  24.232  11.019
95388W        W61797  22.044  40.096   1.867
95389W        W61798  12.662  35.621  14.232
95390W        W61799   4.193  17.714   3.672
95391W        W61800  23.671  23.112   3.574
95392W        W61801  34.943  38.031   0.291
95393W        W61802   6.451  27.071   4.533
95394W        W61803  35.419  17.695   0.736
95395W        W61804  32.779  24.017   3.607
95396W        W61805  25.168  16.712   1.712
95397W        W61806  11.268  11.280   2.220
95398W        W61807  34.898  22.230  12.386
95399W        W61808  17.259  22.291   5.034
95400W        W61809   1.340  36.976  10.955
95401W        W61810   3.923  29.175  14.924
95402W        W61811  35.672  30.500  14.309
95403W        W61812  16.749  43.936   1.774
95404W        W61813  16.649  23.501  13.926
95405W        W61814   3.179  19.317   3.867
95406W        W61815  16.832  29.241   2.872
95407W        W61816  12.055  32.657   1.340
95408W        W61817  39.235  36.035   3.415
95409W        W61818  44.787  34.469   2.144
95410W        W61819  13.999  30.356   3.515
95411W        W61820  29.696   8.698  10.529
95412W        W61821  27.831  26.251   2.647
95413W        W61822   6.973  29.182   2.894
95414W        W61823  17.177  10.141  11.863
95415W        W61824  37.404   8.792   3.859
95416W        W61825  14.204  20.040  14.235
95417W        W61826  19.115  15.596   0.730
95418W        W61827  28.370  29.763   3.117
95419W        W61828   8.755  17.908  11.219
95420W        W61829  34.704  37.898   0.778
95421W        W61830  35.679  19.137  11.481
95422W        W61831  17.380  14.688  13.346
95423W        W61832  41.845  42.359   2.488
95424W        W61833  39.743  10.869  14.177
95425W        W61834   1.506  24.593  11.566
95426W        W61835  43.959  25.799  11.612
95427W        W61836  10.788  36.123  11.225
95428W        W61837   9.269   2.531   1.115
95429W        W61838   6.798   3.758  12.574
95430W        W61839  19.263  43.437  11.266
95431W        W61840  43.810  33.386  12.621
95432W        W61841  20.248  21.708   4.701
95433W        W61842   4.983   5.241  10.862
95434W        W61843  35.090  21.169   1.972
95435W        W61844  42.699  22.885   2.337
95436W        W61845  25.464  28.708   4.938
95437W        W61846  25.323  30.864   0.799
95438W        W61847  33.097  39.903  11.642
95439W        W61848   6.774  25.183  13.039
95440W        W61849  10.758   3.337   3.281
95441W        W61850   3.236  27.005   4.192
95442W        W61851  42.987   0.856   2.693
95443W        W61852  10.301  13.881  14.004
95444W        W61853  12.535   8.168  14.943
95445W        W61854  35.872  19.586  11.107
95446W        W61855   0.872   3.459   4.976
95447W        W61856  36.803  43.564  13.116
95448W        W61857  20.186  12.880  14.040
95449W        W61858  31.665  22.514  12.149
95450W        W61859  39.735  25.078  11.544
95451W        W61860  34.469   2.749  13.480
95452W        W61861   8.387  42.818   3.666
95453W        W61862  10.939  36.652   2.989
95454W        W61863  37.193  21.345  14.769
95455W        W61864   1.187   8.780  13.064
95456W        W61865  12.676  16.230   3.237
95457W        W61866  14.391   8.202  12.031
95458W        W61867   5.185  32.218   4.148
95459W        W61868  10.211  15.848   2.479
95460W        W61869   6.010  15.553   3.670
95461W        W61870  31.339  31.503  14.462
95462W        W61871  29.122  14.685   2.604
95463W        W61872  43.777  19.148   3.721
95464W        W61873   4.404  35.843   4.119
95465W        W61874  14.715  44.297  10.676
95466W        W61875  38.540  38.786   0.398
95467W        W61876  40.966  27.617   4.175
95468W        W61877  14.220  33.921  10.122
95469W        W61878  15.042  32.184  14.024
95470W        W61879  38.553  33.353  12.899
95471W        W61880  23.648  11.159  13.945
95472W        W61881  23.596  20.125   3.821
95473W        W61882  23.643  14.011  11.150
95474W        W61883  22.021  28.447   3.589
95475W        W61884  30.545  32.666  12.122
95476W        W61885  16.079  14.761   1.860
95477W        W61886  19.523  10.844  13.807
95478W        W61887   5.663  41.020  12.619
95479W        W61888  28.898  26.437  13.919
95480W        W61889   7.127  40.679  14.578
95481W        W61890  17.059  41.987  13.833
95482W        W61891  39.830  12.951   2.571
95483W        W61892  31.113  41.443  10.765
95484W        W61893   2.637  12.140  11.985
95485W        W61894  30.029  10.807   0.755
95486W        W61895  43.472  23.055  11.956
95487W        W61896  42.569  44.343  12.416
95488W        W61897  11.169  16.273  11.118
95489W        W61898  30.266   0.535  14.452
95490W        W61899  40.374   6.160  12.969
95491W        W61900  32.458   1.297   1.570
95492W        W61901   7.765  36.466   3.362
95493W        W61902  43.057  34.312  10.144
95494W        W61903  29.638   2.462  11.952
95495W        W61904  15.369   5.866  14.766
95496W        W61905  14.409   3.968   4.177
95497W        W61906  44.342  37.670   2.213
95498W        W61907  21.706  15.492  14.284
95499W        W61908  16.846  28.940  10.585
95500W        W61909   0.762  19.751   1.543
95501W        W61910  32.827  31.392   2.378
95502W        W61911  22.218  19.039   4.550
95503W        W61912  33.198   9.811  12.886
95504W        W61913  11.434  34.011  11.820
95505W        W61914   5.397  27.027  12.001
95506W        W61915  37.040  44.715   3.787
95507W        W61916  11.126  12.102   3.058
95508W        W61917  27.141   4.200   0.389
95509W        W61918  42.758  23.504   0.356
95510W        W61919   3.271   2.138   3.799
95511W        W61920  27.877  13.722   3.231
95512W        W61921  36.032  16.647  12.468
95513W        W61922  29.139   2.251   1.287
95514W        W61923   4.039  18.545  14.922
95515W        W61924  40.391  38.887   3.867
95516W        W61925   2.449  17.691   2.730
95517W        W61926   1.711   6.197   1.306
95518W        W61927   9.306   5.520  11.621
95519W        W61928  12.607  40.029  11.585
95520W        W61929  18.075  44.721   1.834
95521W        W61930  34.856  16.252  14.373
95522W        W61931   0.446  10.402  14.499
95523W        W61932   0.833   9.390  13.822
95524W        W61933  23.584  38.746  12.923
95525W        W61934  13.299  11.517   0.842
95526W        W61935  25.282  28.407  12.104
95527W        W61936  43.274  43.754   3.716
95528W        W61937  16.065   0.314   0.242
95529W        W61938  13.957   0.441  12.371
95530W        W61939  15.656  26.725   3.622
95531W        W61940  10.348  12.361  10.758
95532W        W61941  43.529  29.556  12.706
95533W        W61942   3.916   3.377  12.067
95534W        W61943  37.797   0.984  13.230
95535W        W61944  18.220  43.452   0.062
95536W        W61945  44.270   6.624   4.571
95537W        W61946  31.448  11.458   0.453
95538W        W61947  25.840  39.365  13.007
95539W        W61948  28.696  37.515   3.614
95540W        W61949  43.224  40.467   1.736
95541W        W61950  16.665  35.159   1.237
95542W        W61951  42.068  39.796   3.087
95543W        W61952  36.359   5.945  12.633
95544W        W61953  18.757  17.261  14.043
95545W        W61954   3.724  19.046   1.159
95546W        W61955  23.433  25.100  11.069
95547W        W61956  16.067   7.293   4.581
95548W        W61957  16.870  32.971  12.492
95549W        W61958  23.109  27.541   2.870
95550W        W61959  26.365  42.858  14.471
95551W        W61960  38.931  35.800  14.911
95552W        W61961  28.048  13.384   4.112
95553W        W61962  10.223  20.612   0.305
95554W        W61963  22.437   8.177   2.306
95555W        W61964   0.714   1.609   0.881
95556W        W61965  33.535  22.526   4.272
95557W        W61966  29.455  23.300   4.549
95558W        W61967   0.464   4.273  14.976
95559W        W61968  25.947   5.237  11.676
95560W        W61969  22.646   9.838   1.805
95561W        W61970  40.786   3.446   3.419
95562W        W61971  43.426  29.853   4.273
95563W        W61972  37.402   3.816  14.754
95564W        W61973  28.483   1.906   1.486
95565W        W61974  38.894   0.547  10.749
95566W        W61975  11.203  38.730  12.064
95567W        W61976  10.798  35.601  12.736
95568W        W61977  24.030  14.127  13.211
95569W        W61978  19.801  44.972   2.645
95570W        W61979  44.732  14.753  13.714
95571W        W61980  31.118   2.936  14.947
95572W        W61981  44.043  41.912  14.063
95573W        W61982  14.225  33.164  13.338
95574W        W61983   7.199  10.818  14.832
95575W        W61984  27.118  36.582   2.639
95576W        W61985   1.895  31.697  13.075
95577W        W61986  42.435  16.105  11.418
95578W        W61987  34.138  30.371   2.193
95579W        W61988  25.674  22.552   3.573
95580W        W61989  43.807  37.519   0.932
95581W        W61990  34.402  11.769   3.203
95582W        W61991  12.505  38.814   3.968
95583W        W61992  29.021  15.018   0.806
95584W        W61993  26.078  37.009  12.921
95585W        W61994   9.094  35.985  13.333
95586W        W61995  28.911  38.881   1.344
95587W        W61996  28.024  26.416  12.425
95588W        W61997  32.454   1.482   0.461
95589W        W61998   5.321  36.398   3.211
95590W        W61999   5.764   6.034  13.191
95591W        W62000  43.370  22.031   2.741
95592W        W62001   3.355   3.014  13.614
95593W        W62002  31.583  43.001   2.434
95594W        W62003   8.973  38.640  11.449
95595W        W62004  38.351  28.625   1.372
95596W        W62005   0.950  34.907   0.399
95597W        W62006  41.881  12.233  11.357
95598W        W62007   0.881  39.947   4.592
95599W        W62008  10.134   7.763   1.051
95600W        W62009  36.131  33.008  12.980
95601W        W62010  26.046  12.345  14.405
95602W        W62011  36.327  16.307   3.385
95603W        W62012  12.715  33.874   1.310
95604W        W62013   6.711   7.929  11.531
95605W        W62014  12.658  40.693   2.273
95606W        W62015  13.207  39.575   0.368
95607W        W62016  39.480  43.358   2.942
95608W        W62017   1.039   3.111   2.033
95609W        W62018  16.200  14.281   1.300
95610W        W62019  10.339   0.510   2.245
95611W        W62020  19.593  43.265  10.535
95612W        W62021   2.487   3.373   1.885
95613W        W62022  34.926   0.314  10.553
95614W        W62023  36.073  20.791   4.295
95615W        W62024  30.156   7.733  11.646
95616W        W62025  41.423  35.824  12.537
95617W        W62026   1.191   2.405  13.144
95618W        W62027  42.416   9.860  12.127
95619W        W62028  17.110  14.631   3.703
95620W        W62029  25.159  32.483   0.189
95621W        W62030  40.219  10.287   4.804
95622W        W62031   3.088  24.261  10.175
95623W        W62032  34.181   8.600   4.660
95624W        W62033  37.295  33.071  14.359
95625W        W62034  38.271  14.916  12.838
95626W        W62035   3.919  26.545  13.412
95627W        W62036  30.571   2.557  12.926
95628W        W62037  35.642   0.341  14.842
95629W        W62038  10.622  33.924  12.489
95630W        W62039  39.071  10.116  14.316
95631W        W62040  11.565  14.640  10.889
95632W        W62041  37.965   0.394   3.522
95633W        W62042  26.600  25.169   5.114
95634W        W62043   4.856  29.906  12.963
95635W        W62044   5.343  10.369   0.512
95636W        W62045  12.253   1.977  13.953
95637W        W62046   6.160   3.008  11.596
95638W        W62047  20.645  42.963   3.107
95639W        W62048  17.523  26.640   5.030
95640W        W62049  42.380   5.251  13.231
95641W        W62050  18.750  39.358   1.537
95642W        W62051  20.700  18.822  13.996
95643W        W62052  17.485  10.074  11.200
95644W        W62053   5.129  32.401  11.067
95645W        W62054  17.180  25.195   0.139
95646W        W62055   6.231  25.013  14.779
95647W        W62056   9.048  15.358  12.109
95648W        W62057   2.264  15.260   1.350
95649W        W62058   1.978   0.724  13.324
95650W        W62059  19.311  38.425   0.318
95651W        W62060  34.566  32.032   4.574
95652W        W62061   6.496   7.704  11.955
95653W        W62062   7.331   8.228  13.407
95654W        W62063  40.309  32.077  14.468
95655W        W62064  32.186  32.856   4.845
95656W        W62065  29.289  10.179  11.606
95657W        W62066  27.802  16.926  12.298
95658W        W62067  40.788  11.943   0.824
95659W        W62068  40.975  26.859  12.810
95660W        W62069  20.329  15.201   1.794
95661W        W62070  28.109  35.093   5.086
95662W        W62071  41.148  31.138   1.422
95663W        W62072   9.719   6.185  12.615
95664W        W62073   1.208  32.716  11.476
95665W        W62074  10.859   6.871  11.267
95666W        W62075  40.731  36.944   3.862
95667W        W62076  19.342   7.161  14.508
95668W        W62077  36.951   9.672   1.829
95669W        W62078   4.902  14.175  13.852
95670W        W62079  27.235   7.298   2.247
95671W        W62080   0.075  20.144  13.622
95672W        W62081   8.119   1.325   3.141
95673W        W62082  44.918  18.812   3.704
95674W        W62083   9.097  37.303   0.966
95675W        W62084  43.872  40.080  12.129
95676W        W62085   6.762  35.602  14.934
95677W        W62086   1.316  17.662   3.339
95678W        W62087   2.222  35.878  14.850
95679W        W62088  11.704  34.805   0.469
95680W        W62089   7.489  29.111  11.459
95681W        W62090  31.468  20.027   4.708
95682W        W62091  32.169  23.124  13.094
95683W        W62092   3.400  14.258   4.935
95684W        W62093  34.906   1.551  11.722
95685W        W62094  34.971  33.937   0.302
95686W        W62095  35.999   2.612  11.920
95687W        W62096   9.747   3.523   1.908
95688W        W62097  24.753  24.958  12.074
95689W        W62098   6.735  28.598  12.343
95690W        W62099  25.133  19.785   0.015
95691W        W62100  44.014  27.022  10.848
95692W        W62101   8.851  25.540   0.679
95693W        W62102  29.458  10.539  14.891
95694W        W62103  34.462  42.014   4.510
95695W        W62104   8.781  25.950  11.048
95696W        W62105  14.150  18.159  14.435
95697W        W62106   7.138   7.749  13.567
95698W        W62107  12.974   4.138   4.133
95699W        W62108   1.808  27.933   0.829
95700W        W62109  26.116   3.938   2.797
95701W        W62110  23.033  34.919  14.817
95702W        W62111   9.638  30.861   4.728
95703W        W62112  10.909  33.488  14.111
95704W        W62113  13.689  19.711  13.112
95705W        W62114   1.317  12.281   3.780
95706W        W62115  33.687  25.633  14.341
95707W        W62116  34.092  14.041   1.470
95708W        W62117  26.727  23.087  10.263
95709W        W62118  27.215  38.611  10.248
95710W        W62119  25.486  32.052   3.552
95711W        W62120  37.560  20.683   3.169
95712W        W62121  43.981  16.172   1.655
95713W        W62122  12.344  13.883  11.501
95714W        W62123  12.952  43.306  13.284
95715W        W62124  39.529  25.168   3.228
95716W        W62125  28.430  23.138   1.468
95717W        W62126  30.702  29.928  12.059
95718W        W62127  23.471  24.727  13.522
95719W        W62128  11.603  33.289   1.722
95720W        W62129  13.915  38.167  12.032
95721W        W62130  35.584  43.971  11.188
95722W        W62131   1.375  15.370   1.237
95723W        W62132  32.540   7.041  11.174
95724W        W62133  40.769  16.986  14.441
95725W        W62134  28.914  21.058   2.041
95726W        W62135  14.658  16.972   4.235
95727W        W62136  32.306  10.807  14.339
95728W        W62137  26.145  27.719   0.921
95729W        W62138  16.719  28.629  11.003
95730W        W62139   7.415  27.197  12.440
95731W        W62140   0.913  26.552   1.868
95732W        W62141  22.937  13.146   2.264
95733W        W62142  37.113  29.366  10.489
95734W        W62143  27.096  12.126   0.776
95735W        W62144   1.939  28.929  12.471
95736W        W62145   7.712  16.243  13.819
95737W        W62146  29.525  11.152  12.578
95738W        W62147  36.878  36.016   2.680
95739W        W62148   7.907  40.553  13.546
95740W        W62149   5.938  31.160  13.437
95741W        W62150   3.022  28.885  11.958
95742W        W62151  16.435  39.481  14.774
95743W        W62152  37.934  13.054  14.246
95744W        W62153   1.021  39.878   0.774
95745W        W62154  18.762  17.901   0.503
95746W        W62155  23.510   1.429  12.486
95747W        W62156  31.414  12.694  14.803
95748W        W62157   7.958  18.515  12.966
95749W        W62158  37.454  27.073  13.436
95750W        W62159  22.639   7.384  12.144
95751W        W62160  21.264  14.850   0.345
95752W        W62161  13.124  31.466  14.542
95753W        W62162  22.023  15.870  14.918
95754W        W62163   7.913  21.200   1.360
95755W        W62164  20.371  19.295   2.784
95756W        W62165  36.242  15.144  11.433
95757W        W62166  23.062  14.900  13.861
95758W        W62167  42.936  12.085  13.612
95759W        W62168  13.363  33.518  10.284
95760W        W62169  10.640  44.876  14.008
95761W        W62170  30.370  37.518   0.791
95762W        W62171   7.775   8.186   4.261
95763W        W62172  38.954  42.007   4.814
95764W        W62173  38.044  32.902   2.218
95765W        W62174  44.059   7.861  13.723
95766W        W62175  38.824  32.571   1.350
95767W        W62176  26.658  38.303   0.338
95768W        W62177  16.362  23.310  13.383
95769W        W62178  27.924  44.460  14.972
95770W        W62179  19.703  37.752   3.993
95771W        W62180  37.992  32.383   1.533
95772W        W62181   9.080  29.186  10.674
95773W        W62182   4.350  23.443   3.089
95774W        W62183  29.934   4.795   4.812
95775W        W62184   5.705  22.654   4.126
95776W        W62185  44.827  23.089   3.882
95777W        W62186  27.664   5.344  14.281
95778W        W62187   4.491  36.518   2.810
95779W        W62188  41.718  21.488   4.262
95780W        W62189  42.375  37.326  10.511
95781W        W62190  21.950  34.423   4.563
95782W        W62191  17.628  14.485   3.860
95783W        W62192  33.445  16.701  13.118
95784W        W62193  31.340  11.430   1.722
95785W        W62194  38.607  37.107   2.769
95786W        W62195  21.650   3.102  12.984
95787W        W62196   5.472   0.853  14.848
95788W        W62197  30.051   5.587  12.535
95789W        W62198   8.672  15.150  14.586
95790W        W62199  41.311  30.139   1.609
95791W        W62200  28.747   7.972   0.028
95792W        W62201  25.496  18.126   4.241
95793W        W62202   4.127  41.945   0.933
95794W        W62203  37.695   2.595   5.105
95795W        W62204  38.355   5.343   1.046
95796W        W62205  29.428  25.957  14.314
95797W        W62206  19.262  24.710  14.467
95798W        W62207  24.134  12.310   3.340
95799W        W62208  24.050  31.292  12.069
95800W        W62209   1.973  36.351  14.982
95801W        W62210  36.547  32.544  11.845
95802W        W62211  10.327  17.794  13.060
95803W        W62212   6.819  12.743  12.196
95804W        W62213  21.978  16.151  12.047
95805W        W62214  29.619  26.443  14.322
95806W        W62215  13.351  23.759  14.014
95807W        W62216  27.198  18.768  12.467
95808W        W62217  44.150  27.461   4.147
95809W        W62218  21.750  20.717  10.533
95810W        W62219  36.291   6.700   4.899
95811W        W62220  41.998   4.148  11.112
95812W        W62221   1.440  37.066   3.175
95813W        W62222  43.021  43.645   2.628
95814W        W62223   5.685  37.747  13.005
95815W        W62224  41.832   3.232   2.476
95816W        W62225  26.271  25.091   1.859
95817W        W62226  11.456  23.183   0.065
95818W        W62227  34.610   4.767   4.515
95819W        W62228  22.028  32.514  13.402
95820W        W62229  39.110  15.839  12.046
95821W        W62230  31.679   0.588   3.415
95822W        W62231  44.859  20.998   4.057
95823W        W62232  27.412  33.144   3.707
95824W        W62233  11.505  39.663  13.820
95825W        W62234   1.030  12.846  13.394
95826W        W62235  37.136   2.702  13.457
95827W        W62236  10.681  43.334   0.357
95828W        W62237  23.259  44.427  13.791
95829W        W62238   3.877  44.528   1.882
95830W        W62239  14.554  11.369   3.204
95831W        W62240  14.991  29.690   4.786
95832W        W62241  27.635  44.131   3.663
95833W        W62242  14.496  34.136  13.842
95834W        W62243  12.882  36.120  14.082
95835W        W62244  34.859   0.871  13.521
95836W        W62245  33.107  15.467   2.231
95837W        W62246  29.184   6.945  12.276
95838W        W62247  14.408  35.920  14.296
95839W        W62248  27.739   0.777  14.784
95840W        W62249   3.433  43.753   2.385
95841W        W62250  14.890  35.487  11.668
95842W        W62251  26.869  19.119   1.632
95843W        W62252  27.139  21.756   5.030
95844W        W62253   1.416  43.757   0.337
95845W        W62254  16.289  24.405  11.973
95846W        W62255  22.555  16.783   1.844
95847W        W62256  17.277  24.192  13.790
95848W        W62257  39.433  18.104   2.137
95849W        W62258  10.395  41.461   0.424
95850W        W62259  36.265  31.035  14.467
95851W        W62260  27.616  39.763   3.127
95852W        W62261  24.173  15.375   1.640
95853W        W62262  16.711   7.141  12.543
95854W        W62263  25.073  39.741  10.888
95855W        W62264  19.940  34.197  11.680
95856W        W62265  29.247   6.647  10.804
95857W        W62266  43.446   6.263   2.302
95858W        W62267  16.610  33.814  11.538
95859W        W62268   5.827  31.443   1.238
95860W        W62269  35.928   6.246  13.366
95861W        W62270  43.235  20.097   1.061
95862W        W62271  42.364   4.771  13.005
95863W        W62272  12.712  37.974  11.359
95864W        W62273  34.446  23.692   2.716
95865W        W62274  24.952  21.016  11.256
95866W        W62275  21.642  18.582   4.319
95867W        W62276   4.245  18.625  11.885
95868W        W62277   4.937   0.691   0.364
95869W        W62278  22.273  41.547   3.009
95870W        W62279  40.486  44.544   4.841
95871W        W62280  38.427  15.112  14.277
95872W        W62281  44.701  44.517  14.573
95873W        W62282  26.630   7.311  11.163
95874W        W62283  32.222  16.568   1.235
95875W        W62284  12.252  18.896   4.912
95876W        W62285   8.111  30.895  13.407
95877W        W62286  10.473  31.771   9.767
95878W        W62287  23.571  27.348   3.027
95879W        W62288  19.153   6.865  12.451
95880W        W62289  43.565  15.328   2.537
95881W        W62290  28.079  44.703   1.366
95882W        W62291  43.149   9.523   2.736
95883W        W62292  37.089  38.317  14.799
95884W        W62293  42.464  24.473  10.710
95885W        W62294  27.166   9.925   0.412
95886W        W62295  34.637  40.684  12.129
95887W        W62296   9.854   0.281   1.479
95888W        W62297  37.575  15.175  12.020
95889W        W62298  10.869  35.578   0.764
95890W        W62299  41.074  13.160   2.759
95891W        W62300  17.570  40.238  12.689
95892W        W62301   8.344  15.825   0.609
95893W        W62302  12.169  16.605   1.770
95894W        W62303  10.670  30.852  11.186
95895W        W62304   4.412   5.373   2.506
95896W        W62305   9.621  28.140  10.511
95897W        W62306  29.605   1.126   1.811
95898W        W62307  29.635  29.453  11.109
95899W        W62308  14.419  20.262  11.570
95900W        W62309  12.304  12.612   0.811
95901W        W62310  41.045   9.793  13.492
95902W        W62311  19.115  27.138   0.514
95903W        W62312  44.812   1.103   4.211
95904W        W62313  41.764  32.356   1.261
95905W        W62314  24.929  29.672   4.214
95906W        W62315  44.498   4.216  12.026
95907W        W62316  40.317  19.250   0.937
95908W        W62317  34.203  32.596   3.672
95909W        W62318  17.142  18.419  13.497
95910W        W62319   7.064   3.811  11.099
95911W        W62320  15.233  11.694   2.355
95912W        W62321  18.232   1.598  14.014
95913W        W62322  10.731  25.159   2.201
95914W        W62323  42.718   7.649  13.554
95915W        W62324  25.605  38.488   4.427
95916W        W62325  26.255  31.521  13.021
95917W        W62326  18.620  40.537   2.253
95918W        W62327  34.864   4.443  13.991
95919W        W62328   4.726  36.356   4.805
95920W        W62329  39.353  11.134   2.146
95921W        W62330   6.249  34.383   1.294
95922W        W62331  18.688   1.512   3.426
95923W        W62332  34.863  20.718   4.403
95924W        W62333  30.538  43.957   4.142
95925W        W62334  15.247  41.361   2.956
95926W        W62335  13.595  11.069  12.455
95927W        W62336  33.691   8.886  10.744
95928W        W62337  32.649   7.224   2.350
95929W        W62338  17.472  34.988   4.187
95930W        W62339  30.383  31.494  13.623
95931W        W62340   9.019  33.051   1.268
95932W        W62341   7.447  38.103   2.411
95933W        W62342  33.409   1.721   1.214
95934W        W62343   3.665   4.729   3.218
95935W        W62344  30.371  17.683   2.364
95936W        W62345  42.879   6.900  13.195
95937W        W62346  29.064  43.601   4.855
95938W        W62347  22.928  21.293   3.662
95939W        W62348  38.740  30.117  11.477
95940W        W62349  21.644   2.842  13.540
95941W        W62350  43.944   1.444   4.010
95942W        W62351  37.564   9.662   1.245
95943W        W62352   2.246  41.466   4.498
95944W        W62353  38.331   6.149  12.470
95945W        W62354  43.563   5.464   3.250
95946W        W62355  42.991   9.157   3.596
95947W        W62356   4.139   7.654   0.387
95948W        W62357  40.924  38.958  11.856
95949W        W62358   4.819   3.505  13.557
95950W        W62359  36.781  14.058  12.908
95951W        W62360  19.413  37.018   1.192
95952W        W62361  26.119  31.291  12.540
95953W        W62362  20.665   5.713  11.888
95954W        W62363   0.409   9.104  14.048
95955W        W62364  42.792   5.878   4.140
95956W        W62365  34.439  38.010   4.801
95957W        W62366  44.307  20.808  11.891
95958W        W62367  34.118  23.720   4.646
95959W        W62368  15.111  18.765  13.444
95960W        W62369  41.860   0.443  14.322
95961W        W62370   2.390  43.989   0.678
95962W        W62371  24.362  11.414   3.581
95963W        W62372  37.586   2.430  13.468
95964W        W62373  28.109   7.161  14.473
95965W        W62374  17.245  35.629  11.065
95966W        W62375  32.124  24.486  14.402
95967W        W62376  10.835  42.942   0.737
95968W        W62377  20.760  38.422   0.663
95969W        W62378  39.281  36.738  11.120
95970W        W62379  26.700  25.801   2.614
95971W        W62380   1.149  34.121   1.449
95972W        W62381  29.092   5.269  11.453
95973W        W62382  40.084  23.694   0.907
95974W        W62383   6.128  35.957   3.698
95975W        W62384  11.811  40.884  12.615
95976W        W62385   1.679  35.054  13.079
95977W        W62386  24.924  39.501   3.944
95978W        W62387  38.638  30.358  10.443
95979W        W62388  42.611  38.472   2.401
95980W        W62389  21.988  38.520   1.896
95981W        W62390  20.271  33.384  13.907
95982W        W62391  11.591   0.409   0.221
95983W        W62392  13.271  26.708   5.087
95984W        W62393  13.564  27.496   1.757
95985W        W62394  13.844  23.382   4.576
95986W        W62395  15.957  19.555  12.622
95987W        W62396  32.399  15.695  14.668
95988W        W62397  35.542  24.628   0.346
95989W        W62398  44.484  29.040   2.192
95990W        W62399   5.711  16.183  13.738
95991W        W62400  21.442  21.559  13.449
95992W        W62401  33.547  31.694  11.474
95993W        W62402  29.592  29.597  12.121
95994W        W62403  17.234  33.948   1.698
95995W        W62404  36.322  12.325  10.802
95996W        W62405  42.180  21.641   2.414
95997W        W62406  17.659  44.238  12.124
95998W        W62407  17.543  31.629   0.437
95999W        W62408  35.533  25.108  14.438
96000W        W62409   0.267  15.390   1.862
96001W        W62410  27.797  11.767  13.921
96002W        W62411  29.434   3.739  13.330
96003W        W62412  44.773  30.449   0.071
96004W        W62413  37.542  28.687  11.651
96005W        W62414  11.220   3.537   1.732
96006W        W62415  19.675  34.534  10.695
96007W        W62416   7.211   0.704  14.386
96008W        W62417  30.938  30.032  13.417
96009W        W62418   0.012  11.389   4.531
96010W        W62419  38.386  29.456   4.212
96011W        W62420   2.206  17.626  10.521
96012W        W62421   8.332   8.382  13.592
96013W        W62422  25.329   9.858  11.555
96014W        W62423   3.601  21.296  14.871
96015W        W62424  36.788  40.337   2.243
96016W        W62425   5.624  44.893  14.466
96017W        W62426  29.886  12.089   1.864
96018W        W62427  42.982  41.481  13.957
96019W        W62428  22.047  42.473   4.523
96020W        W62429  30.664   5.754   0.111
96021W        W62430  27.360  28.804   5.104
96022W        W62431  41.267  13.044   0.471
96023W        W62432   0.357  43.472   4.477
96024W        W62433  15.419  27.061   0.326
96025W        W62434   1.097  39.498  11.577
96026W        W62435  24.633  41.734  13.026
96027W        W62436  28.444  10.738   4.518
96028W        W62437   1.269   2.794   4.344
96029W        W62438  31.518  43.790   1.847
96030W        W62439   5.760  40.783  13.085
96031W        W62440   7.713   4.488   1.898
96032W        W62441  28.935  24.412   0.478
96033W        W62442   0.210  33.579  12.478
96034W        W62443  34.184   8.600  11.725
96035W        W62444  30.586   8.387   3.200
96036W        W62445  34.372  14.038   4.063
96037W        W62446  41.551   2.542  11.583
96038W        W62447  38.514  14.586  11.927
96039W        W62448  10.314  39.577  11.525
96040W        W62449  41.701   6.343   1.754
96041W        W62450  20.758   3.705  12.721
96042W        W62451  11.573   2.980  10.630
96043W        W62452  25.246  21.764  11.264
96044W        W62453  13.781  20.135  12.821
96045W        W62454  44.038   8.253   4.628
96046W        W62455  21.643  36.539  13.576
96047W        W62456  21.262  16.350   4.123
96048W        W62457  30.890   7.836  14.544
96049W        W62458  21.482  15.891   4.053
96050W        W62459  39.847  24.097  12.953
96051W        W62460  33.877  40.630  14.798
96052W        W62461  43.772  30.925   0.262
96053W        W62462  12.291   0.496   0.752
96054W        W62463  41.979  23.065   4.314
96055W        W62464  39.789  24.089   0.751
96056W        W62465  10.131  14.357   4.645
96057W        W62466  40.928   0.710   2.284
96058W        W62467   9.266  29.514   4.567
96059W        W62468  30.884  43.021  10.687
96060W        W62469  42.485   5.203   3.756
96061W        W62470  10.622  11.302  14.026
96062W        W62471   4.419  14.713  12.442
96063W        W62472  24.772  15.173  12.895
96064W        W62473  23.778  15.267  10.641
96065W        W62474   6.262  26.670   0.271
96066W        W62475  36.975  10.820  11.777
96067W        W62476  21.445  25.964   2.365
96068W        W62477  13.028   4.875  10.668
96069W        W62478  10.466  33.698  12.957
96070W        W62479  44.680  28.880   2.655
96071W        W62480  27.140   6.237  14.204
96072W        W62481  14.244  25.283  14.815
96073W        W62482   3.466  30.622   0.501
96074W        W62483  25.450  21.068  13.879
96075W        W62484  10.226  27.376  13.938
96076W        W62485  21.468  25.903   3.620
96077W        W62486  23.699  31.953  13.914
96078W        W62487  19.963  21.567  13.389
96079W        W62488  27.994  31.365  11.943
96080W        W62489  13.303   9.764  13.388
96081W        W62490   2.157  13.720  12.490
96082W        W62491   5.679  11.372  10.715
96083W        W62492  36.893  37.077  11.225
96084W        W62493   8.814  38.715  12.451
96085W        W62494  16.764   1.830  12.661
96086W        W62495  12.665  37.964  12.800
96087W        W62496  22.040  36.569   2.588
96088W        W62497  35.688  42.784   1.339
96089W        W62498  16.188   6.365  14.428
96090W        W62499  26.880   8.566   4.615
96091W        W62500   8.381  27.621  11.069
96092W        W62501  38.070   0.713  11.283
96093W        W62502  17.220  10.337  12.812
96094W        W62503  30.080   9.747   3.178
96095W        W62504  37.135  23.981   0.761
96096W        W62505  33.849  22.593   2.221
96097W        W62506   0.229  37.105  11.491
96098W        W62507  22.754  13.153   4.512
96099W        W62508   2.198  23.483  13.045
96100W        W62509  28.549  20.022  14.044
96101W        W62510  26.913  25.758  12.194
96102W        W62511  21.734  19.065   2.303
96103W        W62512  15.308  20.024   5.407
96104W        W62513  37.735  19.487  12.034
96105W        W62514  43.474  30.087  13.898
96106W        W62515  14.093  27.489   1.769
96107W        W62516  18.277  38.913  14.905
96108W        W62517   0.013  18.140  13.951
96109W        W62518  22.780  17.729  13.947
96110W        W62519  25.129  29.213  14.019
96111W        W62520  23.712  26.048   0.769
96112W        W62521  40.374  34.945  12.242
96113W        W62522  30.140  42.065  13.829
96114W        W62523  26.176   1.945  14.732
96115W        W62524  22.499  18.766  12.701
96116W        W62525  27.430   7.784   4.952
96117W        W62526  10.824   3.520   0.556
96118W        W62527  31.836  35.510  10.748
96119W        W62528  13.638  36.553   3.243
96120W        W62529  15.123   9.711   4.628
96121W        W62530  12.902  39.785   2.291
96122W        W62531  22.789  10.207   2.159
96123W        W62532  25.677  44.853   2.198
96124W        W62533  31.431  29.392   2.356
96125W        W62534  15.564  14.436  14.472
96126W        W62535  30.438  36.605  14.270
96127W        W62536  34.351  22.240   0.190
96128W        W62537  10.169  36.613  10.974
96129W        W62538  21.526  23.955   3.766
96130W        W62539  36.810  15.260  12.595
96131W        W62540  27.802  15.209   3.301
96132W        W62541  22.481   5.828  11.499
96133W        W62542   8.921  42.853  11.221
96134W        W62543   2.170  16.056  13.882
96135W        W62544  18.340  13.825   0.410
96136W        W62545  38.082  22.650   1.156
96137W        W62546  12.044  12.109  12.760
96138W        W62547  40.451   4.235   3.790
96139W        W62548  17.541  36.608   4.244
96140W        W62549  27.524  22.034  11.714
96141W        W62550  40.082  19.042  11.953
96142W        W62551  44.305  13.773  14.176
96143W        W62552   7.466  43.518  12.820
96144W        W62553  33.334  25.885   0.730
96145W        W62554  32.352  42.782  10.758
96146W        W62555  28.049  25.614   1.868
96147W        W62556   7.495  22.826   1.773
96148W        W62557  17.652  18.630  14.879
96149W        W62558  19.785  40.005   3.094
96150W        W62559  34.905  32.182  10.579
96151W        W62560  14.688   9.622   4.360
96152W        W62561  37.429  31.810  13.085
96153W        W62562  38.291  29.117   2.901
96154W        W62563  24.719   8.921  10.662
96155W        W62564  10.323  26.974  14.284
96156W        W62565   7.703  23.781   3.019
96157W        W62566   6.210  33.461   3.565
96158W        W62567   7.442  35.028  12.915
96159W        W62568  31.021  33.034   4.599
96160W        W62569  23.437  39.537  13.384
96161W        W62570  44.634  10.398   0.629
96162W        W62571  40.287  15.646   4.581
96163W        W62572   0.443   1.466  12.602
96164W        W62573  18.926  37.251  12.571
96165W        W62574  34.307  20.198   3.687
96166W        W62575  31.532  40.062  14.335
96167W        W62576  43.607  12.424   1.759
96168W        W62577  43.480  28.045   1.918
96169W        W62578  32.437  32.227   0.235
96170W        W62579  40.373  21.500   0.397
96171W        W62580   4.194  42.713   3.160
96172W        W62581  14.069  15.621  14.535
96173W        W62582  24.753  12.040   1.919
96174W        W62583  37.280  39.952  13.407
96175W        W62584  23.685  18.295   2.325
96176W        W62585  38.270  16.050   4.943
96177W        W62586  33.091  38.587  10.978
96178W        W62587  24.200  27.048   4.693
96179W        W62588  23.827  37.918  13.988
96180W        W62589  40.574  18.207   2.723
96181W        W62590  42.180  39.909   2.207
96182W        W62591  37.020  39.771   0.160
96183W        W62592  33.288   8.851  14.036
96184W        W62593   2.171  31.884  14.434
96185W        W62594  21.519  39.425  10.904
96186W        W62595  20.375  16.643   0.723
96187W        W62596  23.925  20.814   4.898
96188W        W62597  28.877  44.587   0.549
96189W        W62598  42.811  19.308  13.790
96190W        W62599  38.405  34.472   1.328
96191W        W62600  38.979  40.132  13.666
96192W        W62601  25.476  16.705  11.440
96193W        W62602  37.115   0.749   0.023
96194W        W62603  37.697  21.701   1.787
96195W        W62604   8.616  27.251   2.756
96196W        W62605   6.188  31.124   2.812
96197W        W62606  15.686   9.215  10.434
96198W        W62607  14.747  16.058   0.053
96199W        W62608  18.556  14.396   2.829
96200W        W62609  20.403   3.366   4.005
96201W        W62610   7.392  25.621  11.755
96202W        W62611  22.444  26.157   3.685
96203W        W62612   9.789   8.774  11.612
96204W        W62613  14.608  10.111  12.932
96205W        W62614  43.675  19.678  10.929
96206W        W62615  38.954  34.027   4.645
96207W        W62616  28.489  18.818   3.307
96208W        W62617   1.005  19.159  13.317
96209W        W62618  11.706  28.701   9.997
96210W        W62619  15.633   7.431   0.140
96211W        W62620   7.215  19.797   2.918
96212W        W62621  35.381  21.282   2.369
96213W        W62622  38.034  28.215  14.211
96214W        W62623  16.593  23.493  12.181
96215W        W62624  23.255  20.752   2.836
96216W        W62625   2.747  18.973   2.987
96217W        W62626  27.422  26.904  14.892
96218W        W62627  33.123  19.321   3.247
96219W        W62628  29.449  40.587   3.585
96220W        W62629   8.950  10.461  12.014
96221W        W62630  37.380  42.422   4.272
96222W        W62631  30.614  21.837   2.102
96223W        W62632  14.294  40.364  12.128
96224W        W62633  28.462   5.213  12.546
96225W        W62634  21.742   7.310  14.421
96226W        W62635  16.622  13.772  13.476
96227W        W62636   2.931  19.100  11.543
96228W        W62637  18.656  33.959  11.539
96229W        W62638  11.705  21.667   4.019
96230W        W62639  27.196  16.264   2.331
96231W        W62640  19.391  32.645  14.562
96232W        W62641   0.299  37.948   4.767
96233W        W62642   5.565  38.769  12.228
96234W        W62643  20.766  15.458  12.164
96235W        W62644   2.580  43.420  10.863
96236W        W62645   4.849   9.021  14.137
96237W        W62646   6.212  35.166   2.873
96238W        W62647  36.466  34.588  14.978
96239W        W62648  32.302  14.053  12.592
96240W        W62649   0.155  28.936   0.811
96241W        W62650   6.122  28.078   3.263
96242W        W62651   4.471  13.577   1.729
96243W        W62652  26.990  21.642  11.054
96244W        W62653  10.357  28.500   2.785
96245W        W62654   3.793  37.818   1.255
96246W        W62655  28.603   2.713  10.621
96247W        W62656  10.309   4.694   3.650
96248W        W62657  44.459  31.139  14.795
96249W        W62658  19.112   3.158   3.824
96250W        W62659  25.458  32.596  12.812
96251W        W62660  20.024  28.564   3.485
96252W        W62661   3.376  34.500   0.924
96253W        W62662  21.062   8.006  14.548
96254W        W62663   3.625   4.259   3.467
96255W        W62664  32.907  18.690   2.006
96256W        W62665  19.210  24.170   1.087
96257W        W62666  44.711   0.912   3.028
96258W        W62667  10.876  27.717  12.386
96259W        W62668  18.712   3.307   3.124
96260W        W62669  10.186  32.067   3.667
96261W        W62670  26.971  33.444  12.551
96262W        W62671  25.281  43.844   4.276
96263W        W62672  35.180  31.995  12.038
96264W        W62673  11.622  44.794   1.922
96265W        W62674  25.851   2.473  13.005
96266W        W62675  39.518  28.706  12.595
96267W        W62676  37.506  27.920   0.661
96268W        W62677  44.241  18.610  14.376
96269W        W62678  12.865  19.790   3.629
96270W        W62679  30.526  38.631  14.452
96271W        W62680  41.988  21.182  13.432
96272W        W62681  43.740   4.293  13.546
96273W        W62682  19.967   1.697  10.313
96274W        W62683  28.487  24.214   9.360
96275W        W62684   5.213  39.171  14.400
96276W        W62685  13.098   3.483  12.471
96277W        W62686  21.442   2.356  13.575
96278W        W62687   8.764  44.001  13.100
96279W        W62688  30.537  42.043  12.511
96280W        W62689  11.267   0.199   2.632
96281W        W62690  14.926  34.201  14.976
96282W        W62691  38.474  42.326  12.940
96283W        W62692   2.630  17.675   3.540
96284W        W62693   2.321  36.690  14.350
96285W        W62694  18.127   5.893  10.404
96286W        W62695  44.858  33.135   0.912
96287W        W62696  39.016  44.849   5.038
96288W        W62697  17.105   3.784  12.419
96289W        W62698  28.470   8.075   3.924
96290W        W62699  18.076  34.368   1.417
96291W        W62700  29.949  23.448   4.427
96292W        W62701  44.030  33.446  13.085
96293W        W62702  42.734  39.040  10.630
96294W        W62703  26.213  35.567  11.377
96295W        W62704  17.320   1.088  11.804
96296W        W62705  18.630   2.979   1.618
96297W        W62706   7.325  34.567   2.284
96298W        W62707   3.282  16.082   0.386
96299W        W62708  35.436  41.493  12.097
96300W        W62709  20.556  41.224   3.024
96301W        W62710  14.550  10.774  11.571
96302W        W62711  36.891  20.055  12.144
96303W        W62712  15.335  20.907  11.568
96304W        W62713  38.726  19.640   1.725
96305W        W62714  16.672  33.696   1.341
96306W        W62715   4.585  25.055  10.705
96307W        W62716  13.210  18.085  11.922
96308W        W62717  16.914  23.089  14.205
96309W        W62718  39.375   6.095   1.763
96310W        W62719  10.158  29.004  10.883
96311W        W62720  34.345  26.857  10.764
96312W        W62721  38.828  28.926  11.958
96313W        W62722  16.158  11.227  12.009
96314W        W62723  29.052  42.324   1.834
96315W        W62724  41.528  16.293  11.470
96316W        W62725  26.089  19.237  14.261
96317W        W62726   3.898  22.957   0.735
96318W        W62727  16.742  27.702   3.678
96319W        W62728  20.953  22.269  13.474
96320W        W62729  24.517   2.224  12.897
96321W        W62730  15.126  12.339   1.288
96322W        W62731  20.920  33.374  11.534
96323W        W62732  43.489  15.559   4.425
96324W        W62733  25.509  26.286  10.162
96325W        W62734  17.313  35.287   1.642
96326W        W62735   8.597   1.632   3.120
96327W        W62736  27.647   7.388   1.399
96328W        W62737  39.720  28.815  13.057
96329W        W62738  26.566   9.121  12.731
96330W        W62739  39.906  32.427  13.498
96331W        W62740  17.714  33.876  10.868
96332W        W62741  36.684  33.461   3.654
96333W        W62742  31.613  42.071  14.921
96334W        W62743  17.427  19.270  14.428
96335W        W62744  20.880   1.874  12.151
96336W        W62745  30.904  29.281  13.540
96337W        W62746  43.248  35.121   3.762
96338W        W62747  21.643  34.321  14.761
96339W        W62748   8.314  37.549   2.893
96340W        W62749  14.892  43.392  11.525
96341W        W62750  29.608  44.236   3.762
96342W        W62751  38.587   1.328   1.313
96343W        W62752   8.437   0.288  13.812
96344W        W62753  13.206  39.279  14.938
96345W        W62754  13.644  22.219   2.235
96346W        W62755  32.051  32.242   3.375
96347W        W62756  16.188  11.322  10.956
96348W        W62757  36.523   4.632   3.874
96349W        W62758  14.855  18.595   4.864
96350W        W62759  20.515  14.256  10.711
96351W        W62760  17.757  34.334   3.637
96352W        W62761  20.380  29.503  12.944
96353W        W62762  36.001  30.738  13.956
96354W        W62763  26.690   4.245  13.508
96355W        W62764  23.368   9.082   4.139
96356W        W62765  14.811   0.077   1.437
96357W        W62766  42.504  33.005  13.465
96358W        W62767  35.601   4.296   9.774
96359W        W62768   7.937  20.706   0.955
96360W        W62769  19.302  24.989  13.481
96361W        W62770  37.146  30.593  11.542
96362W        W62771   5.693  36.378  13.268
96363W        W62772  21.525  40.831  12.376
96364W        W62773  37.827  32.812   4.165
96365W        W62774  33.860  34.519   1.986
96366W        W62775  15.914  10.636   1.378
96367W        W62776   1.143   8.967  13.783
96368W        W62777  35.639   8.344  10.748
96369W        W62778  40.909  15.115   0.531
96370W        W62779  13.053  31.143  10.956
96371W        W62780  31.099  15.448   9.893
96372W        W62781   1.156  42.944  11.100
96373W        W62782  41.824   9.737  14.096
96374W        W62783  22.046  23.688  10.715
96375W        W62784   6.110  10.829  14.239
96376W        W62785   2.499  19.827  13.968
96377W        W62786  29.417  31.326   2.674
96378W        W62787  34.517  32.933   4.682
96379W        W62788  19.041   4.340  14.184
96380W        W62789  12.071  35.200   3.983
96381W        W62790  20.491  34.612   3.575
96382W        W62791   6.362  43.977   0.079
96383W        W62792  29.511  22.968  12.064
96384W        W62793   7.164  21.808  10.098
96385W        W62794  27.692   5.924   3.137
96386W        W62795   1.798  12.379   3.548
96387W        W62796  41.965  33.191  14.402
96388W        W62797   7.735  15.746   4.042
96389W        W62798  39.350  26.052  10.746
96390W        W62799  10.663   4.451   1.862
96391W        W62800   7.630  19.036   4.273
96392W        W62801   9.276  30.090   5.405
96393W        W62802  35.182  41.024   1.706
96394W        W62803  32.151   9.418   4.709
96395W        W62804  28.435  38.324  10.785
96396W        W62805  34.483  23.774   1.371
96397W        W62806  14.098  13.400  11.900
96398W        W62807  21.213  38.093  10.258
96399W        W62808   3.239  41.903   3.697
96400W        W62809  11.944   0.068   1.573
96401W        W62810  28.505  24.115   4.120
96402W        W62811  10.169  26.312   3.856
96403W        W62812  44.432  19.776  11.105
96404W        W62813   6.064  26.624   2.392
96405W        W62814   9.217   5.715   2.368
96406W        W62815  43.397  34.847  11.718
96407W        W62816  12.367  13.631  11.941
96408W        W62817  32.165  21.139   4.242
96409W        W62818  11.787  38.057   2.748
96410W        W62819  10.081  14.163  12.641
96411W        W62820  22.997  25.638  10.625
96412W        W62821  21.428  21.458   5.394
96413W        W62822   0.568   9.187   0.109
96414W        W62823  39.799  12.786  12.576
96415W        W62824  10.911  24.454   0.836
96416W        W62825   1.452  25.161  13.451
96417W        W62826  35.045   1.918  12.634
96418W        W62827  41.245   8.168  14.615
96419W        W62828  44.994   1.987   4.677
96420W        W62829  24.552  31.176   4.954
96421W        W62830   1.199  19.669   4.129
96422W        W62831  18.308   3.651   3.049
96423W        W62832  29.674  13.770  13.514
96424W        W62833  40.390  32.280  12.851
96425W        W62834  12.881   2.810  10.982
96426W        W62835  44.781  23.136  13.133
96427W        W62836   0.864  13.813  13.438
96428W        W62837   0.979  42.283   0.374
96429W        W62838   6.295   6.861  11.563
96430W        W62839   8.387  29.617   1.725
96431W        W62840  32.771  19.025  13.647
96432W        W62841  12.708  27.143   2.368
96433W        W62842  15.941  38.827   1.412
96434W        W62843  42.547  14.348  11.717
96435W        W62844   2.054  25.205  11.197
96436W        W62845  34.489  35.469  12.146
96437W        W62846  29.522  28.485   3.331
96438W        W62847  10.721  12.213  12.546
96439W        W62848  13.315  11.629   0.341
96440W        W62849   2.573  16.476   3.379
96441W        W62850  43.014  21.752   0.238
96442W        W62851  40.005  28.429   1.666
96443W        W62852  29.102   6.761   0.542
96444W        W62853  17.401  35.857   4.925
96445W        W62854  13.378   6.855   1.248
96446W        W62855  40.092  20.220  14.035
96447W        W62856  33.087  37.574  13.943
96448W        W62857  40.824  10.272  14.980
96449W        W62858  29.946  29.504  14.872
96450W        W62859  40.506  13.117  12.594
96451W        W62860  39.477  18.572   3.169
96452W        W62861  31.319  36.475   2.875
96453W        W62862   4.719  35.154  14.983
96454W        W62863   8.706   3.904  13.041
96455W        W62864  15.251  35.529   0.046
96456W        W62865  37.837  23.707   3.535
96457W        W62866   1.724   9.764   4.161
96458W        W62867  29.575   6.634  12.095
96459W        W62868  43.416  14.140   5.049
96460W        W62869  18.566  14.275   4.106
96461W        W62870  20.115  32.404  13.035
96462W        W62871  15.699   2.423   3.414
96463W        W62872  25.280   7.102   3.280
96464W        W62873  23.186  24.950  14.782
96465W        W62874  37.973  18.344  14.455
96466W        W62875  28.054  33.028  14.516
96467W        W62876  17.327  18.756  11.012
96468W        W62877  43.922  29.260   1.275
96469W        W62878   4.484  18.821  14.876
96470W        W62879  41.446  12.666   1.295
96471W        W62880  28.513   7.685   3.238
96472W        W62881  26.418  34.670   0.850
96473W        W62882  17.699  17.591   2.632
96474W        W62883  31.660  43.889  14.809
96475W        W62884  11.961  18.783  14.009
96476W        W62885   8.892  11.068  14.312
96477W        W62886  22.832  22.016  10.606
96478W        W62887  24.696  13.112  13.334
96479W        W62888  28.902   7.143  14.778
96480W        W62889  12.481   2.411  12.222
96481W        W62890   8.132  42.482  12.492
96482W        W62891   5.150  44.764   4.519
96483W        W62892  34.369  20.469  13.837
96484W        W62893  30.384   6.180  10.931
96485W        W62894  22.371  35.484  13.715
96486W        W62895  38.121  36.201  14.454
96487W        W62896  21.021  35.412  13.431
96488W        W62897  15.161  39.021  12.642
96489W        W62898  13.585  36.924  12.830
96490W        W62899  38.637  32.005  14.045
96491W        W62900  28.921  21.076   4.885
96492W        W62901   3.854  41.257  13.792
96493W        W62902   3.453  24.483   0.934
96494W        W62903  13.257  13.121   4.156
96495W        W62904  18.810  22.414  13.805
96496W        W62905  31.456  12.602   2.201
96497W        W62906  36.013  33.592   4.144
96498W        W62907   4.936  38.270   1.676
96499W        W62908  10.116  11.155   0.479
96500W        W62909  39.498  10.375   2.675
96501W        W62910   8.263  32.889  14.761
96502W        W62911  31.582  30.424  12.168
96503W        W62912  43.322  17.046   2.308
96504W        W62913  37.824  31.032  13.473
96505W        W62914  39.518  13.522  10.785
96506W        W62915  36.663  42.751   0.118
96507W        W62916  38.308   9.219  14.878
96508W        W62917  39.219   4.172  11.036
96509W        W62918   1.688  29.979   1.635
96510W        W62919  11.549   9.927   3.093
96511W        W62920  34.946  32.130  13.809
96512W        W62921  27.776  25.353  13.414
96513W        W62922  38.964   3.447   2.705
96514W        W62923  37.038  27.016   2.620
96515W        W62924  44.228   5.730   0.160
96516W        W62925  18.722  41.382  12.064
96517W        W62926   6.883  20.068  11.296
96518W        W62927  29.147  26.710   0.677
96519W        W62928   1.848  21.098   2.192
96520W        W62929  25.997   3.742   2.313
96521W        W62930  28.244  23.945   4.534
96522W        W62931  22.201   0.191  14.916
96523W        W62932  12.717   6.294   4.761
96524W        W62933  25.120  23.528   1.265
96525W        W62934  33.403  41.566  12.544
96526W        W62935  13.137   2.868  12.472
96527W        W62936   7.716  39.382  10.424
96528W        W62937  38.459   2.734   4.688
96529W        W62938  14.020  25.445  14.091
96530W        W62939  13.771  34.470  13.839
96531W        W62940  35.183   8.262  12.318
96532W        W62941  19.084  42.059   0.669
96533W        W62942   5.654  13.232  14.683
96534W        W62943  31.541  41.928   3.698
96535W        W62944  44.981  34.794  14.210
96536W        W62945  23.262   3.255   2.217
96537W        W62946  12.755   9.240   3.068
96538W        W62947  16.157   7.835  11.508
96539W        W62948  40.644   8.634  12.551
96540W        W62949   7.287  20.084   0.435
96541W        W62950  29.925  18.719  11.674
96542W        W62951  28.722  40.910   0.841
96543W        W62952  19.494   4.720   4.179
96544W        W62953  11.165  35.623  10.793
96545W        W62954  14.897  20.323  10.914
96546W        W62955  40.715   8.028  11.593
96547W        W62956  42.905  25.141  14.837
96548W        W62957  13.647  44.397   3.609
96549W        W62958   0.046  22.700  12.428
96550W        W62959  38.545  33.859   3.076
96551W        W62960   8.051  39.716   0.472
96552W        W62961   8.087  31.977   1.360
96553W        W62962   1.703   9.741   0.110
96554W        W62963   9.770   8.342   3.250
96555W        W62964  30.912  42.222   1.485
96556W        W62965  17.588  32.511  12.409
96557W        W62966   8.598  32.141   3.613
96558W        W62967  27.585   7.811  14.592
96559W        W62968   2.264  36.344   4.697
96560W        W62969  22.491   3.438   2.966
96561W        W62970  34.468  26.744   2.871
96562W        W62971  24.643  15.023   1.638
96563W        W62972  17.732  39.844   0.459
96564W        W62973  12.522  34.808   1.458
96565W        W62974  34.663  31.389  13.876
96566W        W62975  36.613  33.948  10.591
96567W        W62976  29.005  11.919   1.328
96568W        W62977  34.663  38.566   4.382
96569W        W62978  26.177  28.999   3.338
96570W        W62979  33.625  34.291   2.414
96571W        W62980  31.484  38.073  14.496
96572W        W62981   3.681  17.570   2.243
96573W        W62982  12.026  26.268   1.437
96574W        W62983  18.606  41.978  11.372
96575W        W62984  27.245   7.075   4.446
96576W        W62985  12.848  20.456   0.976
96577W        W62986  24.436  34.083   4.536
96578W        W62987  41.018  24.564  14.547
96579W        W62988   0.744  38.993   4.456
96580W        W62989   4.457  44.780  14.046
96581W        W62990   0.526  34.604   1.786
96582W        W62991  31.063  27.099   3.677
96583W        W62992  28.949   4.502  11.737
96584W        W62993  41.037  14.846   3.582
96585W        W62994  24.744  43.090  11.115
96586W        W62995  29.960  24.912  10.898
96587W        W62996  26.872  40.520   3.279
96588W        W62997  23.017  33.469  12.506
96589W        W62998  22.596  14.080   0.784
96590W        W62999   4.294  32.429   0.300
96591W        W63000  29.501  30.579   1.949
96592W        W63001   3.961  29.559  13.441
96593W        W63002   2.773  43.285   3.574
96594W        W63003  25.103   0.516  14.657
96595W        W63004  26.577  10.770   0.630
96596W        W63005  32.903  28.926   1.787
96597W        W63006  35.838  34.852  11.087
96598W        W63007  43.304  21.884   3.677
96599W        W63008  40.999  18.574  11.141
96600W        W63009   1.239  27.850  12.598
96601W        W63010  28.157  16.856  13.895
96602W        W63011  22.584   1.607   5.032
96603W        W63012  15.594  33.158  11.002
96604W        W63013  25.958  28.630  13.861
96605W        W63014  23.022   4.158   4.866
96606W        W63015  12.867  17.103   4.187
96607W        W63016  40.040  12.586   1.762
96608W        W63017  18.548  20.063  14.372
96609W        W63018  18.621  42.473  10.744
96610W        W63019  14.483  31.658  11.143
96611W        W63020  31.462   4.373  14.348
96612W        W63021  41.607  10.641  14.742
96613W        W63022  40.038   0.762   4.532
96614W        W63023   7.241  32.859  14.012
96615W        W63024   0.312  11.578  10.775
96616W        W63025  21.198  22.940  10.605
96617W        W63026  40.430  32.973  12.053
96618W        W63027  36.939  43.026  12.960
96619W        W63028  12.238  33.820  12.017
96620W        W63029  27.179  15.312   0.240
96621W        W63030  15.854  27.607   9.871
96622W        W63031  25.136  44.894   0.363
96623W        W63032   3.760  24.907  12.008
96624W        W63033  36.531  37.555  11.965
96625W        W63034  26.601  22.690   2.824
96626W        W63035  22.698   1.455  10.436
96627W        W63036  40.375  32.149  13.416
96628W        W63037  26.980  24.239   0.209
96629W        W63038   0.736  35.363  11.561
96630W        W63039  30.115   9.821   1.435
96631W        W63040  12.738  22.245   2.753
96632W        W63041   0.577   0.690  12.951
96633W        W63042  29.871  15.467  10.777
96634W        W63043   4.112  10.277  14.537
96635W        W63044  28.739  35.696   2.221
96636W        W63045   8.820  10.166  10.163
96637W        W63046  25.485   8.693  13.069
96638W        W63047   4.147  32.462   2.667
96639W        W63048  28.275   6.764  10.670
96640W        W63049  32.982  11.264   1.490
96641W        W63050   2.314  25.430   3.833
96642W        W63051   1.297   1.350  12.773
96643W        W63052  26.216  42.729  14.980
96644W        W63053  14.324  11.353  13.467
96645W        W63054  24.744  28.876   3.440
96646W        W63055  30.442  27.998  14.025
96647W        W63056  21.805   6.052   1.771
96648W        W63057   4.841  28.098  11.139
96649W        W63058   4.885  15.259   1.741
96650W        W63059  23.998  25.479   4.132
96651W        W63060  38.315  33.667  12.003
96652W        W63061  44.683  40.491  12.340
96653W        W63062   9.846  12.314  13.466
96654W        W63063   9.156  29.567   3.625
96655W        W63064  11.683  10.929   2.878
96656W        W63065  41.592  24.060   3.929
96657W        W63066  30.333  34.550  11.183
96658W        W63067  32.625  19.280   0.822
96659W        W63068  41.084   3.519  10.758
96660W        W63069  21.549  43.814   0.317
96661W        W63070  35.079  15.048  10.524
96662W        W63071  11.263  41.258  11.821
96663W        W63072  34.142  17.669  12.051
96664W        W63073  20.775  22.740  14.528
96665W        W63074  27.496  25.986  11.206
96666W        W63075  14.579   7.600  14.475
96667W        W63076  33.605   2.791  12.587
96668W        W63077   7.432  37.442  10.554
96669W        W63078  26.494  25.813   3.108
96670W        W63079   9.871  44.724   0.029
96671W        W63080  28.164  21.640  14.836
96672W        W63081   3.473  23.461   3.049
96673W        W63082  28.168  27.074  13.210
96674W        W63083  10.573  41.388   1.868
96675W        W63084  25.215  24.583  14.044
96676W        W63085  27.176  23.353  10.289
96677W        W63086  31.518  18.279   4.836
96678W        W63087  31.097  40.351   1.154
96679W        W63088   2.929   9.143   3.355
96680W        W63089  11.855  21.932   1.207
96681W        W63090  37.462  12.109  12.889
96682W        W63091  16.222  21.210   2.587
96683W        W63092  16.868  23.640  11.251
96684W        W63093  41.873  32.631   0.463
96685W        W63094  43.017  12.187   2.904
96686W        W63095  23.493  41.300  13.430
96687W        W63096  25.319  18.865  10.135
96688W        W63097  32.418  22.897  13.492
96689W        W63098  30.495  35.052  11.713
96690W        W63099   6.682   0.008   2.386
96691W        W63100   3.760  44.348   4.880
96692W        W63101   6.604  38.808   3.612
96693W        W63102  43.544   2.868  13.787
96694W        W63103   0.573  15.232   4.521
96695W        W63104   3.387   1.212  12.144
96696W        W63105  41.438  34.182  14.821
96697W        W63106   4.645  37.853   5.132
96698W        W63107  28.029  18.717   1.644
96699W        W63108   4.668  20.645   2.034
96700W        W63109  41.372   1.730  11.166
96701W        W63110   6.910  13.541  12.546
96702W        W63111  28.269  40.549   2.377
96703W        W63112  22.282   8.301  13.170
96704W        W63113  26.166  23.297   2.327
96705W        W63114  43.062  12.483   3.869
96706W        W63115  34.645  43.951  13.280
96707W        W63116   6.944  39.290  11.101
96708W        W63117   9.699  19.823  12.448
96709W        W63118  20.691  11.052   5.004
96710W        W63119  21.518   6.425   4.254
96711W        W63120   1.427  37.092   4.169
96712W        W63121  30.169   4.908  12.992
96713W        W63122  30.648   8.182   0.964
96714W        W63123  42.268  24.701   0.976
96715W        W63124  11.818  41.371   2.247
96716W        W63125  20.221  35.383   1.792
96717W        W63126   5.492   1.316   3.153
96718W        W63127   8.683  30.568  12.922
96719W        W63128  40.259  18.045   3.143
96720W        W63129   3.911  29.196  12.515
96721W        W63130  16.571  13.796   2.261
96722W        W63131  24.513  13.257  14.819
96723W        W63132  22.336  27.930  14.255
96724W        W63133  30.266  19.606   3.290
96725W        W63134  31.615  16.274  10.938
96726W        W63135   7.193   6.780  14.014
96727W        W63136  21.233  10.344  11.509
96728W        W63137  20.551  32.117  12.024
96729W        W63138  37.177  32.075   0.657
96730W        W63139  14.069   5.924  14.524
96731W        W63140  20.356  36.436   3.705
96732W        W63141   4.772  40.275   1.748
96733W        W63142  25.125  23.727  10.516
96734W        W63143  15.999  30.509  13.831
96735W        W63144  37.456  24.588   3.937
96736W        W63145  19.168  43.018   4.965
96737W        W63146  10.022  33.806   2.758
96738W        W63147  35.317   6.946   1.880
96739W        W63148   1.734  26.439   0.179
96740W        W63149  29.561  14.319   3.686
96741W        W63150  27.473  37.103   0.322
96742W        W63151  21.129  11.807   5.138
96743W        W63152  35.647  18.538  12.045
96744W        W63153  19.609  16.275   1.254
96745W        W63154  29.705  34.855   4.760
96746W        W63155  14.596  33.676   2.844
96747W        W63156  35.932  17.693   0.882
96748W        W63157  24.446  12.701   3.207
96749W        W63158  17.251  16.458  14.044
96750W        W63159  13.140  20.716  12.040
96751W        W63160   2.789  18.654   0.408
96752W        W63161  12.362  18.991   1.517
96753W        W63162  11.255  16.041  12.521
96754W        W63163  22.119  13.689   1.971
96755W        W63164  24.681   7.300  10.410
96756W        W63165  44.604  41.019  11.152
96757W        W63166  26.138  19.729   2.949
96758W        W63167  28.170  36.855   1.270
96759W        W63168  22.917  44.869  13.700
96760W        W63169  20.509  42.285   2.327
96761W        W63170  10.926   8.258  11.938
96762W        W63171  28.647   1.413   3.241
96763W        W63172  31.809  18.218   1.720
96764W        W63173  38.300  19.183   1.030
96765W        W63174   9.201  43.778  13.295
96766W        W63175  29.176  19.110   3.316
96767W        W63176   1.452  25.163   3.371
96768W        W63177  25.740  27.921  11.927
96769W        W63178  19.462  33.214  14.188
96770W        W63179  34.100  37.460   4.636
96771W        W63180  27.341  28.542   3.302
96772W        W63181   1.382  27.681  10.744
96773W        W63182  34.369  33.372   1.953
96774W        W63183  32.065  23.270   4.243
96775W        W63184  25.950  19.225   0.284
96776W        W63185   7.320  22.762   3.812
96777W        W63186   8.020  16.116   3.117
96778W        W63187  16.839  32.963   1.817
96779W        W63188   4.425  10.779   4.377
96780W        W63189  38.073  34.556  13.241
96781W        W63190  35.471  13.602  14.371
96782W        W63191  21.099   3.973   2.580
96783W        W63192  40.417   6.721   3.744
96784W        W63193  31.633  30.703  11.748
96785W        W63194  12.790  12.411   0.711
96786W        W63195  11.857   2.651  14.993
96787W        W63196  19.795   3.853  12.652
96788W        W63197  40.501  43.890  13.161
96789W        W63198   9.694  10.135  14.485
96790W        W63199  40.943  26.557   4.636
96791W        W63200  40.460  17.591  14.768
96792W        W63201  34.293   1.275   0.225
96793W        W63202  30.256  44.227   0.059
96794W        W63203  22.493  15.298  12.403
96795W        W63204   9.233  30.018  14.372
96796W        W63205  17.242  33.965  12.607
96797W        W63206  38.553  20.555  14.780
96798W        W63207  43.813  18.145   4.685
96799W        W63208  27.904  36.364   0.554
96800W        W63209  41.672  15.558  11.282
96801W        W63210   1.302  25.689   0.411
96802W        W63211  44.222   0.245  13.461
96803W        W63212   8.547  35.443   4.138
96804W        W63213  25.829  39.949   3.215
96805W        W63214   7.014   1.816  10.754
96806W        W63215  21.581  12.312  14.037
96807W        W63216  28.494  33.069  14.233
96808W        W63217  39.483  19.920   3.839
96809W        W63218  34.290  28.290  12.611
96810W        W63219  11.924  38.106   0.890
96811W        W63220  27.271  42.110  11.183
96812W        W63221  37.304   8.311  14.309
96813W        W63222  16.535   7.730  13.088
96814W        W63223  27.223  44.405   4.189
96815W        W63224  29.768  40.496  11.111
96816W        W63225   6.188  29.054   3.103
96817W        W63226  21.031  12.388  13.292
96818W        W63227  18.721  42.147  12.947
96819W        W63228  15.212  37.747   1.289
96820W        W63229  17.772  41.415  10.869
96821W        W63230  20.627  22.246  14.545
96822W        W63231  37.406  12.262  10.613
96823W        W63232  23.762  23.953   3.685
96824W        W63233   2.512  38.837  13.913
96825W        W63234  11.512  35.302  13.585
96826W        W63235  42.856  44.232   4.561
96827W        W63236   4.441  38.857   4.209
96828W        W63237  28.195  26.166  12.892
96829W        W63238  39.347  32.810  11.965
96830W        W63239  42.973  40.673   2.711
96831W        W63240  26.706  16.649   1.328
96832W        W63241  41.348  20.673   0.345
96833W        W63242  22.551  38.067  13.115
96834W        W63243  11.781  15.634  14.980
96835W        W63244  19.017  15.856  13.463
96836W        W63245   5.870  39.949   2.254
96837W        W63246  37.768  11.231   2.345
96838W        W63247  13.644  12.677  12.331
96839W        W63248  11.870   7.347   0.830
96840W        W63249  36.444  25.450  14.489
96841W        W63250  27.462  35.386  13.030
96842W        W63251  31.598   7.386   3.119
96843W        W63252   3.521   2.856  13.144
96844W        W63253  19.720  38.543  11.793
96845W        W63254  23.102  12.702   4.421
96846W        W63255   1.405  16.150   1.958
96847W        W63256  43.363  40.905  14.436
96848W        W63257  33.066   9.192  11.623
96849W        W63258  35.995  37.899   1.910
96850W        W63259  42.533  27.200  13.467
96851W        W63260  36.971  30.449   1.119
96852W        W63261  44.656   6.521   3.436
96853W        W63262   5.749  30.480  11.128
96854W        W63263  10.717  21.375  13.454
96855W        W63264  21.557  22.377  14.993
96856W        W63265  23.571  20.995  11.500
96857W        W63266   2.884  26.553  11.243
96858W        W63267  44.756  33.961   1.378
96859W        W63268   9.287  37.892   1.466
96860W        W63269  16.556  30.383   4.346
96861W        W63270  42.959  17.801  11.201
96862W        W63271  44.731  21.079  13.478
96863W        W63272  17.737  32.734   0.297
96864W        W63273  30.976  24.472   1.875
96865W        W63274  30.529  31.277   4.660
96866W        W63275  39.645   4.089  13.569
96867W        W63276   0.663   8.566   3.205
96868W        W63277   7.790  18.745   4.671
96869W        W63278  24.505  19.624  13.018
96870W        W63279  24.789  42.069  11.173
96871W        W63280  33.974  33.170  14.026
96872W        W63281  18.476  39.426  14.478
96873W        W63282   3.872  38.566  13.495
96874W        W63283  23.068   5.959   0.700
96875W        W63284   8.828  42.282   2.401
96876W        W63285  21.161  28.732  13.190
96877W        W63286   3.162  27.118  13.576
96878W        W63287  34.122  39.410  11.941
96879W        W63288  19.689   2.771   3.790
96880W        W63289  22.221  13.155   0.915
96881W        W63290  24.064  13.661  12.918
96882W        W63291  39.079  42.249   2.833
96883W        W63292  26.759   0.035   1.451
96884W        W63293  35.906  22.847   2.574
96885W        W63294  44.047  40.645   0.429
96886W        W63295  32.639  39.149   1.785
96887W        W63296  14.436  26.895  10.206
96888W        W63297  42.807  12.125   1.925
96889W        W63298   4.313  25.675  12.192
96890W        W63299  21.481  28.677  11.944
96891W        W63300  24.194  34.995   2.393
96892W        W63301  10.905  27.952   3.301
96893W        W63302   7.182   9.361  10.623
96894W        W63303  33.806   8.835   0.741
96895W        W63304  41.136  40.991  10.526
96896W        W63305   8.651  24.510   2.764
96897W        W63306  25.543  31.627  13.802
96898W        W63307   7.830   7.019   3.241
96899W        W63308  40.362  14.610   0.725
96900W        W63309   5.780   2.488  14.253
96901W        W63310  35.334  38.160  11.747
96902W        W63311  13.245   1.241   3.656
96903W        W63312   9.612  34.626   3.393
96904W        W63313  24.654  32.867   2.876
96905W        W63314  12.624  30.062  14.024
96906W        W63315  18.201   7.823   2.629
96907W        W63316   6.063   4.442   1.389
96908W        W63317   3.004  42.078  14.926
96909W        W63318   5.736  24.635   0.936
96910W        W63319   6.460   3.502   1.980
96911W        W63320  11.566  13.186  12.223
96912W        W63321  10.782  41.454  12.838
96913W        W63322  12.176  21.046   1.345
96914W        W63323  13.780  30.572   0.722
96915W        W63324  30.625  14.636   2.340
96916W        W63325  44.314  15.237  10.681
96917W        W63326   6.896   5.226   3.105
96918W        W63327  41.990  26.151  13.974
96919W        W63328   1.948   2.863  14.722
96920W        W63329  18.221  23.635   3.640
96921W        W63330   0.782  43.012  14.988
96922W        W63331  26.352  26.130   4.018
96923W        W63332  33.371  41.986  13.530
96924W        W63333   5.444   9.869   1.173
96925W        W63334  31.668  31.907   1.367
96926W        W63335  13.197   9.028   0.504
96927W        W63336  28.684  29.582   2.755
96928W        W63337  30.520  36.618   4.489
96929W        W63338  29.987  39.218  14.780
96930W        W63339   0.690  41.807   2.402
96931W        W63340  13.217  20.282   4.799
96932W        W63341  17.276  24.089   3.721
96933W        W63342  40.564  41.493  13.443
96934W        W63343  32.476   1.504   2.052
96935W        W63344  30.478  12.833  13.877
96936W        W63345   9.959   3.957  14.816
96937W        W63346  33.058   2.958  11.769
96938W        W63347  32.647   9.828   0.575
96939W        W63348  12.960  25.646   1.893
96940W        W63349  25.411  43.297  13.601
96941W        W63350  32.407  44.554  11.032
96942W        W63351  35.402  33.973   3.702
96943W        W63352  44.963  11.408   3.560
96944W        W63353  18.723  12.240   1.400
96945W        W63354  26.848  26.753   3.487
96946W        W63355  19.136   9.237  12.339
96947W        W63356  41.962  30.685  12.953
96948W        W63357  20.601   7.954  12.503
96949W        W63358  39.077  33.120   1.554
96950W        W63359   7.832  22.815   1.335
96951W        W63360  19.271  17.622   3.666
96952W        W63361  16.412  34.891  11.524
96953W        W63362  19.219  35.449  14.785
96954W        W63363  21.004  40.848  14.303
96955W        W63364  42.849  13.663   2.450
96956W        W63365  25.655  22.256  14.427
96957W        W63366  35.826  14.852  11.263
96958W        W63367  33.843  42.988   3.169
96959W        W63368   7.166  21.018  11.974
96960W        W63369  40.545  19.962  14.071
96961W        W63370  10.085   5.431   3.277
96962W        W63371  11.236  29.409  12.080
96963W        W63372  41.484   3.568  14.337
96964W        W63373  25.749  28.309   2.323
96965W        W63374  17.231  42.471  13.969
96966W        W63375  15.520  39.782   1.739
96967W        W63376  30.633  18.388   3.757
96968W        W63377  31.104  20.616  14.804
96969W        W63378  44.727  28.068   3.730
96970W        W63379   9.451  15.041  12.027
96971W        W63380  31.806  43.478  13.439
96972W        W63381  40.836   4.674   4.518
96973W        W63382  23.120  30.913   4.712
96974W        W63383   7.371  10.605   4.738
96975W        W63384  36.437  36.596   3.625
96976W        W63385  14.827   0.262   3.679
96977W        W63386   8.731   5.374  12.801
96978W        W63387  10.718  20.241  13.427
96979W        W63388  31.929  19.761  13.258
96980W        W63389  30.451  34.529   2.686
96981W        W63390   8.717  16.545  12.361
96982W        W63391  11.303  16.485  12.250
96983W        W63392  29.142  27.238   2.786
96984W        W63393  37.553  26.751   2.343
96985W        W63394  32.062  31.947  10.715
96986W        W63395  38.853  14.693   5.154
96987W        W63396   6.093  18.571  14.335
96988W        W63397   0.013  28.598  14.522
96989W        W63398  19.210  41.069   1.637
96990W        W63399  26.513  33.641   0.693
96991W        W63400  15.157  17.224  11.824
96992W        W63401  22.987   8.131  11.191
96993W        W63402  24.099  44.756  10.496
96994W        W63403  43.184   3.408  12.432
96995W        W63404  15.022  43.933   4.151
96996W        W63405   2.827  11.657   1.220
96997W        W63406  19.232   8.892  11.553
96998W        W63407   9.454  41.260  14.907
96999W        W63408  22.864  31.560  13.018
97000W        W63409  12.299   2.408  14.879
97001W        W63410  36.110  29.163  11.310
97002W        W63411  21.532  35.831  14.884
97003W        W63412  22.738  17.165   4.015
97004W        W63413  37.982   0.714   0.489
97005W        W63414  25.679   2.132   1.256
97006W        W63415  15.827  29.681   3.728
97007W        W63416  16.373  17.601   3.198
97008W        W63417  30.145   4.147  14.028
97009W        W63418  15.660   1.814   0.560
97010W        W63419  12.726  27.034   3.837
97011W        W63420  10.382  32.446   1.034
97012W        W63421  20.144   2.979   3.650
97013W        W63422  32.991  25.844   2.367
97014W        W63423  29.238  37.078  14.950
97015W        W63424  13.478   4.625  10.828
97016W        W63425  20.637  29.870   0.371
97017W        W63426  36.630  37.856  12.424
97018W        W63427  39.609  26.586  13.020
97019W        W63428   4.802  25.791   3.203
97020W        W63429  37.785  25.228  11.164
97021W        W63430  43.117  16.288   2.086
97022W        W63431  44.825  41.730  12.526
97023W        W63432   7.875  28.904  12.903
97024W        W63433  29.005  29.579   1.502
97025W        W63434  10.828   0.316  12.268
97026W        W63435  40.055  30.462   1.738
97027W        W63436  34.535  19.502  11.157
97028W        W63437  10.705  33.787   3.178
97029W        W63438  42.465  29.107   4.117
97030W        W63439   2.828  15.823   0.368
97031W        W63440  30.140  17.150   2.909
97032W        W63441  36.792  33.024  14.350
97033W        W63442  33.432  11.357  14.263
97034W        W63443  16.769  21.628   3.033
97035W        W63444  23.400  43.418  12.152
97036W        W63445  30.620  43.014   3.320
97037W        W63446   2.181  31.961   2.710
97038W        W63447  34.322  22.221  14.669
97039W        W63448  12.330  32.125  10.548
97040W        W63449  38.971   4.766  10.045
97041W        W63450  38.242  24.772   0.713
97042W        W63451  10.244  37.499   0.222
97043W        W63452  19.034   2.975  13.563
97044W        W63453  39.075  16.621   1.292
97045W        W63454  27.663   3.700  12.888
97046W        W63455  17.505  25.143  13.809
97047W        W63456  19.781  39.393  13.039
97048W        W63457  38.629  23.727  10.754
97049W        W63458  30.318   1.149   1.267
97050W        W63459  28.745  13.607   2.921
97051W        W63460  12.638  14.446   3.151
97052W        W63461  40.901  30.883  13.820
97053W        W63462  40.438  28.653  11.278
97054W        W63463   2.991   5.350   3.079
97055W        W63464  35.397  16.482   4.555
97056W        W63465  29.668  19.761  12.443
97057W        W63466  12.858  29.865  14.478
97058W        W63467  26.524  38.425  14.454
97059W        W63468   1.151  39.893   4.127
97060W        W63469  26.822   9.473   2.701
97061W        W63470   1.767  33.569   3.146
97062W        W63471  18.730  33.496   0.867
97063W        W63472  11.077   6.449   2.608
97064W        W63473   1.337  25.535   1.840
97065W        W63474  23.742  17.817  10.347
97066W        W63475  24.731   4.194  11.453
97067W        W63476  16.098  14.373  11.660
97068W        W63477  16.548   0.909  11.964
97069W        W63478   9.189  30.534  12.678
97070W        W63479   9.193  26.193  13.480
97071W        W63480  38.603  12.006   0.812
97072W        W63481   8.464  28.217   1.756
97073W        W63482   7.218  19.453   1.374
97074W        W63483  16.230  25.632  14.874
97075W        W63484   4.999   9.796   1.501
97076W        W63485  26.276  43.539  12.173
97077W        W63486  33.045  38.102  10.839
97078W        W63487  43.816   9.320   2.249
97079W        W63488  11.242  42.413   4.371
97080W        W63489  39.141  25.181  13.416
97081W        W63490  20.190  44.531   9.850
97082W        W63491   0.826   9.160   2.766
97083W        W63492  32.552   4.954  14.396
97084W        W63493  22.972  22.976   4.926
97085W        W63494   6.250  11.638   3.837
97086W        W63495  26.523  34.497   2.759
97087W        W63496  34.268  28.972   2.321
97088W        W63497  13.147  26.070   2.747
97089W        W63498  19.630  10.089  11.582
97090W        W63499  41.508  28.184  13.853
97091W        W63500  19.014  14.389   3.370
97092W        W63501   2.646  31.195  14.076
97093W        W63502  20.107   9.821  14.217
97094W        W63503   2.867  18.135   0.386
97095W        W63504  39.353  17.167   2.590
97096W        W63505   3.818  12.394  13.906
97097W        W63506  41.288   6.816  11.210
97098W        W63507  25.102   4.193   1.958
97099W        W63508  30.569  31.895   0.819
97100W        W63509  40.917  29.690   2.916
97101W        W63510  21.543  14.186  14.852
97102W        W63511  39.657  41.560  11.569
97103W        W63512  15.304   0.952  11.779
97104W        W63513  22.788  12.324   4.569
97105W        W63514   2.025  14.101   3.333
97106W        W63515  13.276  33.994  12.795
97107W        W63516  43.066   2.679  13.926
97108W        W63517  39.488  15.544   5.088
97109W        W63518  10.562  23.186   1.213
97110W        W63519  31.747  25.428   4.913
97111W        W63520   7.815  31.368  13.319
97112W        W63521  41.619  29.162  10.985
97113W        W63522   0.406  42.865   3.836
97114W        W63523  14.309  43.025   2.178
97115W        W63524  29.045   3.438  14.065
97116W        W63525  22.251  13.403  14.057
97117W        W63526  15.782  36.980   2.462
97118W        W63527  26.596  13.056   2.584
97119W        W63528  25.241   9.637  14.575
97120W        W63529  30.680  40.132   1.964
97121W        W63530  22.022  10.809   1.444
97122W        W63531  44.066  30.012   1.776
97123W        W63532  21.977  31.151  13.906
97124W        W63533  22.555  23.985   2.278
97125W        W63534  39.541  40.665  13.934
97126W        W63535  22.696  33.101   3.860
97127W        W63536  43.395  12.961   2.774
97128W        W63537  29.498  28.092   4.081
97129W        W63538  34.169   3.982  10.706
97130W        W63539  14.189  41.289  13.785
97131W        W63540  27.797  29.768  14.497
97132W        W63541  10.213  15.118  14.886
97133W        W63542  38.346  22.689   4.859
97134W        W63543  41.824  39.807  13.315
97135W        W63544  11.105  28.407   0.589
97136W        W63545  24.724  30.987   2.382
97137W        W63546   1.531  12.763   2.707
97138W        W63547  12.397  24.739  11.391
97139W        W63548  20.626   1.912   0.911
97140W        W63549  20.290  31.583  14.520
97141W        W63550   2.959  27.020   0.667
97142W        W63551   5.267  32.073   3.284
97143W        W63552  27.786  24.270   1.825
97144W        W63553  35.925  37.719  12.688
97145W        W63554  29.623   8.375   3.250
97146W        W63555  38.831  17.495  13.415
97147W        W63556  41.889   7.156   0.006
97148W        W63557  41.243  34.867   3.920
97149W        W63558  31.027  20.042  12.515
97150W        W63559   2.837  34.513  14.179
97151W        W63560  36.074  35.285  14.533
97152W        W63561  17.296  31.929   3.826
97153W        W63562  42.182  41.641   3.166
97154W        W63563  38.004  18.692  12.159
97155W        W63564  26.872  13.898  14.466
97156W        W63565  31.879  10.489  14.463
97157W        W63566   7.448   7.401   0.256
97158W        W63567   3.423  44.831  14.151
97159W        W63568  19.979  27.085   1.795
97160W        W63569  17.551  17.337   2.204
97161W        W63570   0.800  41.812  13.537
97162W        W63571  36.033  38.392  11.203
97163W        W63572  21.724  14.651   1.074
97164W        W63573  44.767  35.246  11.670
97165W        W63574  13.910  33.357   3.362
97166W        W63575  44.821   7.186  13.209
97167W        W63576  25.435  23.705  14.469
97168W        W63577   8.378  41.205  11.217
97169W        W63578  18.281  33.024  11.476
97170W        W63579  11.871   2.283  11.641
97171W        W63580  14.877   1.514   5.736
97172W        W63581  35.566  36.753   1.374
97173W        W63582   2.410  30.028   2.375
97174W        W63583  30.799  19.852  11.555
97175W        W63584   7.247  34.043  12.856
97176W        W63585  12.078  41.449   2.681
97177W        W63586  19.826  20.638  10.660
97178W        W63587  37.714  29.513   3.536
97179W        W63588  40.433  41.739  12.463
97180W        W63589   4.300  43.827  13.116
97181W        W63590  38.518  16.535   2.466
97182W        W63591  14.635  16.837   1.437
97183W        W63592  17.566  28.753   0.018
97184W        W63593  17.542  33.820   0.893
97185W        W63594  29.653  36.624   4.013
97186W        W63595  17.751  32.091  10.789
97187W        W63596  37.737  41.320   1.269
97188W        W63597  41.828  29.666   0.476
97189W        W63598  40.016  36.473   0.244
97190W        W63599  12.070  12.801   1.793
97191W        W63600  27.942  30.857  10.691
97192W        W63601   6.383  14.719   0.416
97193W        W63602  24.116  43.313  11.873
97194W        W63603  21.709  44.678   2.733
97195W        W63604  37.089  40.298   1.816
97196W        W63605  25.172  16.730  13.798
97197W        W63606  44.089  14.293   1.757
97198W        W63607  17.997  13.081  11.130
97199W        W63608  18.575  30.601  10.296
97200W        W63609   4.323  11.409   0.350
97201W        W63610  44.286  24.245  12.471
97202W        W63611   9.928  30.752   3.837
97203W        W63612  30.083  19.268  13.520
97204W        W63613  22.176  12.446  11.612
97205W        W63614   7.195  21.111  14.938
97206W        W63615  34.098  33.355   0.294
97207W        W63616   5.540  27.619   0.908
97208W        W63617  35.044  36.409   3.203
97209W        W63618  10.845  17.117  14.319
97210W        W63619  33.651  39.818  14.910
97211W        W63620   1.602   1.916   0.530
97212W        W63621  22.478  40.115  13.232
97213W        W63622  42.298  29.566   3.305
97214W        W63623  30.929  41.264   3.745
97215W        W63624  42.540   2.745   0.352
97216W        W63625  39.389  22.516   4.789
97217W        W63626  30.981  21.847   3.688
97218W        W63627  34.609   7.976   2.080
97219W        W63628   8.452  38.016   4.588
97220W        W63629  42.366  29.605  14.760
97221W        W63630  30.458  20.072   1.804
97222W        W63631   1.821  16.746   4.555
97223W        W63632  20.289  17.603  11.994
97224W        W63633  18.533  22.060  14.632
97225W        W63634  21.677  43.431  14.112
97226W        W63635  19.674   0.887   0.891
97227W        W63636  27.678   6.344  10.166
97228W        W63637  17.556   2.861  12.381
97229W        W63638  30.074   6.165   0.781
97230W        W63639  41.084   7.928   1.896
97231W        W63640  36.891  36.606   4.723
97232W        W63641   0.475  37.383  14.959
97233W        W63642   8.261  43.013  13.455
97234W        W63643  11.865   4.264   2.244
97235W        W63644  23.733  41.415  13.909
97236W        W63645   8.758   4.546  12.354
97237W        W63646  37.885  19.538   1.974
97238W        W63647  23.375  11.278   4.527
97239W        W63648  17.622  23.755   1.893
97240W        W63649  44.789  23.142   2.403
97241W        W63650  44.961  34.355   3.110
97242W        W63651   3.918  25.172   3.282
97243W        W63652  36.060  20.625  12.250
97244W        W63653  11.862   3.484  13.576
97245W        W63654   1.243  16.647   1.821
97246W        W63655  42.282   2.037   4.180
97247W        W63656  15.875  27.475  10.947
97248W        W63657  18.711  13.217  12.126
97249W        W63658   1.817  33.780  13.204
97250W        W63659  28.935  39.473   2.786
97251W        W63660  40.318  23.687  14.978
97252W        W63661  19.717   3.291   1.760
97253W        W63662  43.697  26.973  12.003
97254W        W63663  30.590   3.175   1.446
97255W        W63664  21.013  43.463  12.912
97256W        W63665  20.207   6.850  10.479
97257W        W63666   0.052  12.398   4.831
97258W        W63667  10.742   2.855   1.429
97259W        W63668   9.151  11.295  13.788
97260W        W63669  31.368   7.956   0.444
97261W        W63670  12.558   1.323   2.237
97262W        W63671  26.391  38.220   1.413
97263W        W63672  37.176   5.770  13.517
97264W        W63673  40.075   5.546   1.243
97265W        W63674   7.177   7.667   1.701
97266W        W63675  19.648  32.814   2.283
97267W        W63676  38.302   1.813   1.411
97268W        W63677  15.139  42.108  11.563
97269W        W63678  22.566  16.404  10.725
97270W        W63679   9.408  26.017   2.696
97271W        W63680  35.912  26.418  12.911
97272W        W63681  13.771  36.904   0.276
97273W        W63682  14.610   6.657   2.552
97274W        W63683   6.770  28.633  14.358
97275W        W63684  35.974  44.113   0.350
97276W        W63685  12.691   8.247   3.802
97277W        W63686  31.107  44.083   1.991
97278W        W63687  28.063  24.045   2.362
97279W        W63688  37.378   8.784   0.047
97280W        W63689  23.287   2.519   2.624
97281W        W63690  31.335  26.050  11.147
97282W        W63691   1.959  37.832   2.835
97283W        W63692  32.695  41.867  11.102
97284W        W63693  31.059  11.948  12.008
97285W        W63694   6.796  15.237  11.834
97286W        W63695  23.779  17.580  13.073
97287W        W63696  33.365  33.988   3.860
97288W        W63697   0.273  15.115   4.121
97289W        W63698  24.396  32.093   1.468
97290W        W63699  43.197  15.214  13.491
97291W        W63700  19.517  27.182  11.161
97292W        W63701  34.922  26.194  13.243
97293W        W63702   8.009  23.506  13.760
97294W        W63703  20.122  36.176   4.725
97295W        W63704  17.502   4.591   0.015
97296W        W63705  30.580  43.883  14.742
97297W        W63706   4.930   0.388   1.482
97298W        W63707  15.590   5.756  12.023
97299W        W63708  24.561  22.554  13.919
97300W        W63709   8.012  30.159  11.098
97301W        W63710  40.311  26.108   0.518
97302W        W63711  14.207  18.570   2.468
97303W        W63712  17.290  32.861   2.750
97304W        W63713  24.398  35.406   1.633
97305W        W63714   7.989  33.176   0.109
97306W        W63715  27.629  15.806   3.632
97307W        W63716  12.632  36.495  11.913
97308W        W63717  30.941   6.171  14.353
97309W        W63718   0.841  18.593   4.105
97310W        W63719  11.122   9.564  11.880
97311W        W63720  37.050  10.304   0.888
97312W        W63721  13.763   2.389   3.993
97313W        W63722  30.220   0.990  13.848
97314W        W63723  13.375  19.787  14.484
97315W        W63724  10.864  40.075  13.011
97316W        W63725  17.982  13.219  12.677
97317W        W63726  34.341  39.339   2.368
97318W        W63727  37.169  16.753   1.792
97319W        W63728   6.432   3.948  12.892
97320W        W63729  29.905  22.520   0.883
97321W        W63730  24.246  28.710  11.611
97322W        W63731  26.030  40.289  14.919
97323W        W63732  41.136   0.236  12.422
97324W        W63733  16.038   0.375  10.622
97325W        W63734   7.483  40.785  13.321
97326W        W63735  21.965  17.665   1.854
97327W        W63736  32.872  41.811   4.479
97328W        W63737  18.370  14.824  13.373
97329W        W63738  40.639  38.998  10.686
97330W        W63739  43.520  31.449   4.377
97331W        W63740  19.599  29.868   4.289
97332W        W63741  31.138  11.737   4.324
97333W        W63742  42.985   4.975   3.698
97334W        W63743  36.117  15.821  11.516
97335W        W63744  31.371  21.796   1.735
97336W        W63745  23.661  29.132  12.433
97337W        W63746   9.747  39.737  11.382
97338W        W63747  12.551  29.036  14.770
97339W        W63748   0.410  32.532  14.354
97340W        W63749  22.187  24.206  11.964
97341W        W63750  44.708  20.447  10.652
97342W        W63751  24.125  22.974   3.775
97343W        W63752  27.767  31.051   0.242
97344W        W63753  43.329  28.123  14.755
97345W        W63754  37.828  11.479   3.713
97346W        W63755   6.801  30.472   1.663
97347W        W63756  36.075  32.988   0.170
97348W        W63757   7.429   1.590   4.326
97349W        W63758   8.451  19.100   1.951
97350W        W63759  30.191  16.143   0.224
97351W        W63760  11.429  36.682  11.399
97352W        W63761  27.213  19.198   1.258
97353W        W63762  22.538  44.482  10.739
97354W        W63763  21.991  34.914   1.429
97355W        W63764   9.670  20.503   2.856
97356W        W63765  22.700  11.903  13.574
97357W        W63766  21.690   1.347  13.917
97358W        W63767  16.970  24.609   1.424
97359W        W63768   7.693  23.597   0.381
97360W        W63769   5.235  27.253   3.748
97361W        W63770  14.108   0.318   1.366
97362W        W63771  38.460  17.992  11.867
97363W        W63772   5.050  21.200   4.760
97364W        W63773  23.800  22.155   1.160
97365W        W63774  26.282  18.270   3.818
97366W        W63775  35.905  43.035   0.494
97367W        W63776  33.038  10.997   3.300
97368W        W63777  35.040   4.465   3.666
97369W        W63778  29.953   6.932  13.535
97370W        W63779  38.062   4.999  14.760
97371W        W63780  18.848  14.122  12.091
97372W        W63781   1.572   0.433   2.831
97373W        W63782  32.655  37.283  14.077
97374W        W63783  29.540  41.998   3.241
97375W        W63784   1.359  31.646  13.465
97376W        W63785  11.420  36.495   2.886
97377W        W63786  10.587  26.779  13.462
97378W        W63787  20.826  22.135   1.757
97379W        W63788   2.026  24.889   1.812
97380W        W63789  42.297  34.119   4.591
97381W        W63790  41.542  31.423   0.732
97382W        W63791  32.301   2.016   1.930
97383W        W63792   3.930   5.933   2.390
97384W        W63793  25.078  39.297  10.617
97385W        W63794   2.277  16.925  11.681
97386W        W63795  24.467   4.220   0.232
97387W        W63796  42.076  21.757   2.937
97388W        W63797  21.085  25.661   2.152
97389W        W63798  44.617  18.105  10.745
97390W        W63799   8.331  42.521  10.709
97391W        W63800  43.554  40.496  12.061
97392W        W63801   4.939  23.067  12.560
97393W        W63802  29.457  40.446  13.521
97394W        W63803  37.847  36.137  11.810
97395W        W63804   7.607  30.509  11.152
97396W        W63805   6.276  18.400   3.668
97397W        W63806  28.009  41.909  11.805
97398W        W63807  13.368  13.765   3.689
97399W        W63808  25.645  42.269   3.631
97400W        W63809  20.000   8.802   1.991
97401W        W63810  27.133  39.448   4.438
97402W        W63811  20.090   3.297   4.873
97403W        W63812  42.281   6.924  12.507
97404W        W63813   4.370   2.817  11.101
97405W        W63814  42.491  27.555   2.030
97406W        W63815  21.802   5.901  11.960
97407W        W63816  20.936  35.754   3.258
97408W        W63817  26.773  36.393  14.946
97409W        W63818   9.186  16.225   1.904
97410W        W63819   3.197  15.149  13.283
97411W        W63820  14.410  42.993  10.968
97412W        W63821  33.661  17.689  12.202
97413W        W63822  15.410  25.703   2.311
97414W        W63823  37.631   9.967   9.988
97415W        W63824  43.678  34.816  12.376
97416W        W63825  32.571  26.690  14.734
97417W        W63826  30.453   5.857   0.941
97418W        W63827  29.944   7.258   4.919
97419W        W63828   2.416  33.646  13.443
97420W        W63829  10.168  41.623   2.832
97421W        W63830   9.441  31.881   0.085
97422W        W63831  30.417  27.368  13.312
97423W        W63832  35.436  33.712  12.568
97424W        W63833   7.835  37.181  13.302
97425W        W63834   7.775  44.248   0.176
97426W        W63835  34.473   0.064  10.449
97427W        W63836  12.687  42.967   4.612
97428W        W63837  12.840   0.351   3.749
97429W        W63838  12.265   0.421   1.787
97430W        W63839  26.909  11.074  13.812
97431W        W63840  35.243   2.711   4.241
97432W        W63841   8.932  30.979  12.563
97433W        W63842   0.811  22.727   0.891
97434W        W63843   0.282  35.526  14.221
97435W        W63844  17.287  38.368   2.827
97436W        W63845  39.485  33.325   4.635
97437W        W63846   2.352   5.429   1.718
97438W        W63847   5.911  39.541  14.981
97439W        W63848  34.620  28.600   2.212
97440W        W63849  32.475  11.601  12.993
97441W        W63850   0.496  27.571   2.030
97442W        W63851  29.815   1.786  12.793
97443W        W63852  37.352  12.180   4.135
97444W        W63853   1.209  23.425  13.995
97445W        W63854  12.100  16.708  11.155
97446W        W63855  20.590  32.118   2.935
97447W        W63856  35.879  14.615  10.809
97448W        W63857  28.203   9.750  14.754
97449W        W63858  16.603  18.085  14.290
97450W        W63859  15.080  40.553   0.630
97451W        W63860   1.902  39.576  14.619
97452W        W63861  10.263   0.539  14.884
97453W        W63862  28.102  23.303  10.242
97454W        W63863   5.422   5.463  10.656
97455W        W63864  38.359  27.479  12.037
97456W        W63865  38.368  28.639  14.099
97457W        W63866  33.369  34.590  13.130
97458W        W63867  35.919  26.051  11.694
97459W        W63868  40.605  24.241  11.679
97460W        W63869  43.536  44.851  11.155
97461W        W63870  36.824  13.350   2.359
97462W        W63871  24.597  26.616  13.879
97463W        W63872  29.907  19.184  14.451
97464W        W63873  10.672   6.181   4.821
97465W        W63874  36.037  33.409  12.658
97466W        W63875  43.929  31.409   2.735
97467W        W63876  19.250  29.920  11.463
97468W        W63877   1.371  19.009  11.519
97469W        W63878  22.817  16.542  11.644
97470W        W63879  25.304  37.044   5.001
97471W        W63880  19.996  38.363  11.387
97472W        W63881  26.048  36.439   3.405
97473W        W63882  19.555  22.548   2.894
97474W        W63883  38.713  29.122   4.008
97475W        W63884  13.921  13.090  12.478
97476W        W63885  12.411  22.664   4.557
97477W        W63886  28.422  34.033   3.239
97478W        W63887  19.756  20.330  12.894
97479W        W63888   0.850  32.381   0.492
97480W        W63889   4.407  29.729  14.196
97481W        W63890  17.186  32.378  13.598
97482W        W63891  43.737   7.654  13.380
97483W        W63892   3.339  36.647  11.614
97484W        W63893   9.663  13.522   0.717
97485W        W63894  24.400   4.772  11.762
97486W        W63895  27.721  27.956   4.686
97487W        W63896   5.173  17.212  11.162
97488W        W63897  21.784  43.838  11.936
97489W        W63898  32.108  23.546  14.338
97490W        W63899  42.261  12.802   3.251
97491W        W63900  34.107  23.774  12.344
97492W        W63901  28.607  42.287   4.932
97493W        W63902  14.057   1.185  11.638
97494W        W63903  32.920  22.609  13.946
97495W        W63904  30.607  39.764  13.790
97496W        W63905  40.340   2.438  13.925
97497W        W63906   4.665   6.384  14.398
97498W        W63907   2.935  24.241  11.478
97499W        W63908  27.354  15.687  10.538
97500W        W63909  22.993  38.310  13.295
97501W        W63910  41.322  17.981   0.487
97502W        W63911  41.052  15.533   4.890
97503W        W63912  28.993  22.494  12.644
97504W        W63913  39.354  29.030  14.974
97505W        W63914   6.367   0.553   0.372
97506W        W63915   8.736  28.398   4.609
97507W        W63916  17.838   0.423  12.596
97508W        W63917  40.237  32.981   2.374
97509W        W63918  38.396  38.993  13.616
97510W        W63919  43.586   6.208   4.972
97511W        W63920  39.979  29.784   3.594
97512W        W63921  35.072  39.359   0.782
97513W        W63922  16.613  44.482   0.066
97514W        W63923  27.324  27.994   1.197
97515W        W63924  15.378  28.080  11.537
97516W        W63925  16.736  40.590  10.410
97517W        W63926  43.285  11.377  10.521
97518W        W63927  14.362  28.022  11.693
97519W        W63928  24.799  30.063  13.501
97520W        W63929  30.270   3.506   2.612
97521W        W63930  18.288  38.599  12.536
97522W        W63931  16.825  27.207  14.711
97523W        W63932  40.016  13.136   0.785
97524W        W63933  28.644  42.070   2.386
97525W        W63934  31.859   4.599  12.470
97526W        W63935  43.792   7.644   0.455
97527W        W63936  10.204  32.470  12.475
97528W        W63937  28.757  36.399   4.314
97529W        W63938  41.381   0.749  13.542
97530W        W63939  23.215  37.405   3.679
97531W        W63940  34.665  33.080   2.259
97532W        W63941  17.283  30.179   3.087
97533W        W63942  22.666  38.684   0.275
97534W        W63943  26.258  25.548   2.729
97535W        W63944   8.911  16.625  11.536
97536W        W63945  32.622  40.931   1.905
97537W        W63946  35.637  42.870   0.048
97538W        W63947  11.372  26.735   2.834
97539W        W63948  32.513  38.894   0.328
97540W        W63949  39.847  34.894  12.053
97541W        W63950  13.679  31.648  13.932
97542W        W63951   1.988  22.218  13.875
97543W        W63952  42.402   1.289   3.420
97544W        W63953  12.378  38.773  14.595
97545W        W63954  37.552  24.498   1.348
97546W        W63955  28.249  43.064   2.953
97547W        W63956   6.575  27.265   4.999
97548W        W63957  12.386  29.535   3.294
97549W        W63958  19.714   9.036  11.745
97550W        W63959  27.382  28.620   4.246
97551W        W63960  18.160  35.929  14.290
97552W        W63961  35.157  15.156   4.286
97553W        W63962  31.269   1.761   0.353
97554W        W63963  28.868  18.720   4.637
97555W        W63964  17.170   4.343   3.830
97556W        W63965  32.733  25.457   2.626
97557W        W63966  30.588  16.366  14.943
97558W        W63967  42.849  43.486   3.431
97559W        W63968  21.156  11.445   4.185
97560W        W63969  26.512  29.557  12.201
97561W        W63970   6.228  11.692  14.326
97562W        W63971   5.691  40.191  12.083
97563W        W63972  39.131   5.282   3.685
97564W        W63973  19.063  34.614   3.655
97565W        W63974  34.501  35.580  12.630
97566W        W63975   7.124  38.378   1.532
97567W        W63976  13.235  31.113   1.220
97568W        W63977  39.595  42.162  14.014
97569W        W63978  28.963   8.691   0.838
97570W        W63979  30.131  36.771   2.514
97571W        W63980  26.788  16.854  11.835
97572W        W63981  27.673  22.768   1.443
97573W        W63982  25.245  19.640   3.270
97574W        W63983  39.293  24.184   4.186
97575W        W63984  16.676  21.117   2.366
97576W        W63985   1.433  44.239   0.543
97577W        W63986  19.801  26.012   3.355
97578W        W63987  38.011  21.371   1.541
97579W        W63988  39.377  20.335   0.833
97580W        W63989  31.615  38.024  11.747
97581W        W63990  25.410  15.640   2.706
97582W        W63991  21.938  38.887   0.735
97583W        W63992   0.449   2.737  11.378
97584W        W63993   9.543  44.503  12.399
97585W        W63994   8.126  29.594  13.969
97586W        W63995   6.344  16.521   0.727
97587W        W63996  17.277  13.179   2.273
97588W        W63997  17.216  29.611  14.944
97589W        W63998  20.173  43.730   1.399
97590W        W63999  29.538   9.337   2.548
97591W        W64000  10.817   5.256  14.535
97592W        W64001  35.156   0.181  14.894
97593W        W64002  38.940   4.736   4.399
97594W        W64003   4.734  28.523   1.388
97595W        W64004   8.815  12.103  12.481
97596W        W64005  13.689  26.553  10.743
97597W        W64006  20.298  17.355  12.543
97598W        W64007  28.319  19.575  14.271
97599W        W64008  25.717  39.466   4.340
97600W        W64009   4.446   9.329   3.229
97601W        W64010  20.507  33.884   4.322
97602W        W64011  16.652   7.059   3.624
97603W        W64012  41.011   3.997   0.430
97604W        W64013  27.146  40.487  13.814
97605W        W64014  26.476  29.671   4.471
97606W        W64015   6.194  21.142   2.241
97607W        W64016  27.318   8.236   3.139
97608W        W64017  44.373  14.389  11.922
97609W        W64018  26.576   3.891   0.942
97610W        W64019  14.308  44.528   3.580
97611W        W64020  17.531  11.417   4.408
97612W        W64021  31.608  11.086   4.657
97613W        W64022  24.719  19.186  11.743
97614W        W64023  35.816  18.244   4.437
97615W        W64024  20.413  24.937  12.066
97616W        W64025  12.616  37.545   0.375
97617W        W64026  24.508   9.186   3.085
97618W        W64027  28.434   1.969   3.609
97619W        W64028  37.033  13.868   4.180
97620W        W64029  41.759  12.689   4.348
97621W        W64030  16.180   0.093  12.782
97622W        W64031   0.852  20.811  14.455
97623W        W64032  34.164  27.579   2.748
97624W        W64033  21.044  21.784  11.119
97625W        W64034  14.599  20.052   3.272
97626W        W64035  14.040  35.828  10.810
97627W        W64036  30.471   6.187  11.441
97628W        W64037  24.559   6.826   3.399
97629W        W64038   3.817  21.309  13.506
97630W        W64039  24.087  34.709  12.413
97631W        W64040  38.859   8.760  10.719
97632W        W64041  23.252  39.038  11.158
97633W        W64042  35.124  30.866   3.188
97634W        W64043   5.934   4.358  11.184
97635W        W64044  10.876   0.335  12.794
97636W        W64045  30.084  12.547  14.101
97637W        W64046  19.752  13.796   2.935
97638W        W64047  27.953  21.578   5.507
97639W        W64048  18.593  38.084   0.242
97640W        W64049  26.271  24.974   2.769
97641W        W64050   3.300  36.430   0.733
97642W        W64051  40.965   6.760  11.634
97643W        W64052   7.553  28.444   0.756
97644W        W64053  25.418  22.084   3.679
97645W        W64054  16.571  39.339   3.206
97646W        W64055   9.278  38.390  14.379
97647W        W64056  30.894   5.101  11.407
97648W        W64057   4.410  38.818  12.417
97649W        W64058  41.409  37.422   3.811
97650W        W64059  31.969   9.077   3.729
97651W        W64060   3.515  38.483   2.832
97652W        W64061  19.007  15.857   0.308
97653W        W64062  23.501  16.590  10.906
97654W        W64063  36.156  29.719   2.584
97655W        W64064  19.214  32.673  11.763
97656W        W64065  10.886  23.776  13.910
97657W        W64066  43.920  16.744  10.685
97658W        W64067   1.838  28.066  14.939
97659W        W64068  23.589  24.707   4.103
97660W        W64069  15.899  29.637  13.637
97661W        W64070  17.045  32.482  10.540
97662W        W64071  40.861  10.891  11.052
97663W        W64072   8.784  24.297  11.473
97664W        W64073  39.355  41.048   4.674
97665W        W64074  13.450  15.731  10.524
97666W        W64075  42.996  33.791  10.082
97667W        W64076  18.655  29.457  10.749
97668W        W64077  18.231  39.426  10.630
97669W        W64078  32.453   9.755   0.101
97670W        W64079  36.513   6.764   3.949
97671W        W64080   3.237  25.705  10.624
97672W        W64081   8.349   7.779   2.169
97673W        W64082  24.495  32.885  11.530
97674W        W64083  40.023  40.779   3.587
97675W        W64084   3.303  33.445   1.051
97676W        W64085  34.271  34.941   4.670
97677W        W64086   7.386   1.253   0.920
97678W        W64087  42.324  24.917   0.516
97679W        W64088  30.773  21.825  10.243
97680W        W64089  32.986  38.390   2.415
97681W        W64090  23.689   8.681  12.392
97682W        W64091   3.251  42.718  14.855
97683W        W64092  35.393  13.752   4.545
97684W        W64093  26.111  36.472  13.033
97685W        W64094  27.633  17.134  12.742
97686W        W64095  33.520  19.823  14.824
97687W        W64096  16.979  21.618  12.238
97688W        W64097  28.060  42.323   1.462
97689W        W64098  32.441  26.442   3.633
97690W        W64099  31.945  34.109  14.336
97691W        W64100  17.555   1.044   2.244
97692W        W64101  10.096  19.296  13.600
97693W        W64102  10.248  38.470  13.335
97694W        W64103  42.897  37.897   3.571
97695W        W64104  11.390  25.919  14.047
97696W        W64105  19.062  14.155   4.196
97697W        W64106  25.476  41.790   1.852
97698W        W64107   2.105  37.634  10.846
97699W        W64108  30.033  14.023  13.928
97700W        W64109   9.354  40.901   3.578
97701W        W64110  12.569  42.434   0.220
97702W        W64111  34.604  27.728   2.504
97703W        W64112  43.338  24.462   2.357
97704W        W64113   5.771  32.642  13.391
97705W        W64114  30.209  22.697  14.242
97706W        W64115  14.450  34.729  12.550
97707W        W64116  12.282  39.502   0.368
97708W        W64117   2.938  35.448  12.370
97709W        W64118  31.618  41.797  12.032
97710W        W64119  38.547   7.824  11.816
97711W        W64120   4.399  27.178   1.266
97712W        W64121  43.251   5.654  12.937
97713W        W64122  29.079  43.082   0.124
97714W        W64123   2.398   0.880   1.722
97715W        W64124  29.096  15.194  10.861
97716W        W64125  23.973  34.111   2.765
97717W        W64126  17.782  38.634   5.541
97718W        W64127  13.015  20.264   3.269
97719W        W64128  18.000  30.190   2.949
97720W        W64129  16.982  38.280  13.985
97721W        W64130  25.296  11.726  11.082
97722W        W64131   4.423  16.302  11.257
97723W        W64132  19.799  43.773  12.153
97724W        W64133  20.157   6.691  13.825
97725W        W64134  24.642  16.574  11.131
97726W        W64135   2.727  38.278  10.741
97727W        W64136  25.273  18.851  11.021
97728W        W64137  22.727  18.086   3.921
97729W        W64138   7.373  43.012  14.582
97730W        W64139   1.475  10.917   0.796
97731W        W64140  33.856  17.780  14.642
97732W        W64141  24.583  30.838   0.361
97733W        W64142  44.321  25.514   1.808
97734W        W64143  43.215  13.377   0.286
97735W        W64144   5.466  27.641  11.366
97736W        W64145  12.629  36.042  11.107
97737W        W64146  41.072  31.525   4.595
97738W        W64147  16.710  23.119   1.180
97739W        W64148  28.782   2.420   3.189
97740W        W64149  32.583  21.228   4.660
97741W        W64150   3.445  25.251  14.133
97742W        W64151  12.948  36.341  11.470
97743W        W64152  34.176  20.027  14.059
97744W        W64153  18.515  13.710  12.015
97745W        W64154  25.947  12.757   1.743
97746W        W64155  38.816  12.386   4.832
97747W        W64156  39.337  32.516   0.618
97748W        W64157  33.768  25.375  14.786
97749W        W64158  35.061  33.506   1.292
97750W        W64159  35.967  31.022  13.097
97751W        W64160   5.827  28.485  11.206
97752W        W64161  20.824  19.023  11.946
97753W        W64162  23.663   4.094   0.903
97754W        W64163  18.197  33.835  11.155
97755W        W64164  15.911   0.813   3.110
97756W        W64165  31.626  38.503  13.721
97757W        W64166  23.783   0.526   4.954
97758W        W64167  19.693   8.787  13.339
97759W        W64168  43.403  29.328   4.239
97760W        W64169   1.450   6.401   1.747
97761W        W64170  37.123  37.691   4.698
97762W        W64171  25.623   0.703  14.600
97763W        W64172  10.641  25.657   2.861
97764W        W64173  14.860  36.078  14.451
97765W        W64174  31.750   0.834   1.318
97766W        W64175  39.596  36.371  14.915
97767W        W64176   2.882  10.719   4.046
97768W        W64177  11.656   7.190   0.370
97769W        W64178  28.345  30.056  13.398
97770W        W64179  29.213  29.081   2.274
97771W        W64180  32.833  28.996  11.645
97772W        W64181  44.279  39.214   1.258
97773W        W64182  33.838  11.829  14.851
97774W        W64183  30.541  10.717  11.501
97775W        W64184   3.554  37.308   3.677
97776W        W64185  23.675  44.467  14.774
97777W        W64186  22.507   9.058   4.070
97778W        W64187   2.211  15.637   4.520
97779W        W64188  26.344  37.647  12.349
97780W        W64189  21.730  38.263   4.129
97781W        W64190  27.551   5.132   1.197
97782W        W64191   6.407   3.392  11.024
97783W        W64192  42.809  26.009   1.165
97784W        W64193  44.656  36.426  12.032
97785W        W64194   7.511  42.141   3.663
97786W        W64195  30.990   2.362  13.129
97787W        W64196  31.498  44.217   3.453
97788W        W64197   6.452  19.569   0.437
97789W        W64198   2.231  36.036  12.414
97790W        W64199   3.237  41.928   0.716
97791W        W64200  41.244  31.482   0.288
97792W        W64201   1.445   1.309  13.786
97793W        W64202   9.412   9.676   3.007
97794W        W64203  16.989  40.049   1.790
97795W        W64204  15.108  38.298  14.854
97796W        W64205   6.818  31.142  11.911
97797W        W64206  36.506  20.062  10.332
97798W        W64207   8.972  28.589   4.177
97799W        W64208  26.106  35.951  12.967
97800W        W64209  14.249  24.526   0.038
97801W        W64210   6.875  30.349   1.113
97802W        W64211  21.465  42.193   2.293
97803W        W64212   5.368  19.067   1.659
97804W        W64213  39.207  34.461  14.927
97805W        W64214  10.459  16.564  12.494
97806W        W64215  36.160  37.002   1.935
97807W        W64216   7.000  21.256  10.699
97808W        W64217  20.031   6.162  13.450
97809W        W64218  13.503  44.552   4.078
97810W        W64219  11.397  11.340  13.661
97811W        W64220   6.856  26.072   2.313
97812W        W64221  30.598  31.152   3.798
97813W        W64222  14.684   4.002   4.635
97814W        W64223  29.490  30.654   0.285
97815W        W64224   0.880  25.349  10.782
97816W        W64225  34.657  20.231   1.238
97817W        W64226  11.932   9.520  11.611
97818W        W64227  20.610   9.486  14.372
97819W        W64228  15.665  20.245   2.626
97820W        W64229  41.068   0.588   3.636
97821W        W64230  35.478  16.045  13.316
97822W        W64231  10.672  17.772   2.294
97823W        W64232  33.573  32.977  12.461
97824W        W64233   3.454  30.165   4.108
97825W        W64234  43.745  19.463  12.703
97826W        W64235  14.229  21.682  14.871
97827W        W64236   1.898  32.622  13.993
97828W        W64237   5.437  23.559   2.262
97829W        W64238  17.313   8.889  10.633
97830W        W64239  33.444   6.195   2.427
97831W        W64240   0.718  32.924   1.266
97832W        W64241  37.855  42.562  13.009
97833W        W64242   4.234  30.868   0.034
97834W        W64243   8.629  22.767   3.683
97835W        W64244  26.552  22.446   2.390
97836W        W64245  34.181  31.853  12.045
97837W        W64246  21.328  44.495   1.665
97838W        W64247  41.992  11.256   2.788
97839W        W64248  18.519  40.479   1.401
97840W        W64249  29.852   6.322   0.248
97841W        W64250  44.798  13.112   1.323
97842W        W64251   4.805  32.943  11.940
97843W        W64252   7.117  15.626  11.983
97844W        W64253  26.028   0.923   1.742
97845W        W64254  29.215  27.932  10.291
97846W        W64255  12.632   9.698   3.666
97847W        W64256   7.241  35.355   2.920
97848W        W64257  12.285   9.326   2.811
97849W        W64258   0.113  21.274  14.528
97850W        W64259   7.038  28.479  14.833
97851W        W64260   2.809   5.184  12.967
97852W        W64261  26.540  26.663  13.655
97853W        W64262   2.283  39.859  11.210
97854W        W64263   3.691   8.531   3.773
97855W        W64264  38.939  17.274  12.495
97856W        W64265  39.924  26.626   3.506
97857W        W64266  10.348   8.691   3.636
97858W        W64267  27.527  27.975   1.655
97859W        W64268  12.696  44.916   0.015
97860W        W64269  24.143  39.122  10.086
97861W        W64270  44.892   3.879   0.490
97862W        W64271  41.485  35.300   0.843
97863W        W64272  42.597  38.395   0.096
97864W        W64273  24.819  19.263   4.199
97865W        W64274  26.438  28.083  10.727
97866W        W64275  21.436  26.629  14.805
97867W        W64276  38.114   4.731   3.372
97868W        W64277  35.364  19.616  10.605
97869W        W64278   8.402  26.201  14.954
97870W        W64279  28.227  34.197  10.458
97871W        W64280  15.090  20.654   9.895
97872W        W64281   0.781  11.985  12.459
97873W        W64282  13.357  16.360  10.766
97874W        W64283   3.802  24.808   5.143
97875W        W64284  32.292  18.054  13.072
97876W        W64285   3.053  33.797   1.337
97877W        W64286  13.945  14.294   5.046
97878W        W64287  33.016   6.150  12.985
97879W        W64288   9.412  44.410  13.775
97880W        W64289  41.995  14.413   1.644
97881W        W64290  28.900  39.299  10.703
97882W        W64291  20.126  30.046  11.480
97883W        W64292  38.410  10.577  14.424
97884W        W64293  26.903  11.549  10.124
97885W        W64294  15.707  17.474   3.888
97886W        W64295  13.231  18.658  10.571
97887W        W64296  43.539  24.126  13.017
97888W        W64297  11.574  11.796   0.854
97889W        W64298   9.091  33.497   3.073
97890W        W64299  27.205  12.662  12.935
97891W        W64300   5.628  38.900  14.230
97892W        W64301   3.311  13.792  10.599
97893W        W64302  35.041  16.539   2.497
97894W        W64303   7.839  21.255  10.289
97895W        W64304  23.327   8.026   2.096
97896W        W64305   0.883  17.109  11.030
97897W        W64306  27.895  41.307   3.660
97898W        W64307  29.985  21.167   1.027
97899W        W64308  14.873  22.138  14.223
97900W        W64309   2.857   4.935   0.826
97901W        W64310  33.571  11.176   2.353
97902W        W64311  43.381  26.647  14.713
97903W        W64312  21.806   3.923  10.343
97904W        W64313  16.241  41.932  14.762
97905W        W64314   9.357  38.858   5.109
97906W        W64315  25.414   8.385   4.145
97907W        W64316  43.423  25.470   2.263
97908W        W64317  27.128  43.987   4.527
97909W        W64318   7.377  41.889  10.601
97910W        W64319  12.693  15.991   0.913
97911W        W64320  33.545  14.381  14.650
97912W        W64321  26.634  11.695   0.199
97913W        W64322  41.017   6.618   3.210
97914W        W64323   4.295  19.828  11.211
97915W        W64324  34.587  21.009   2.107
97916W        W64325  19.203  29.045  12.403
97917W        W64326  21.192   9.442  14.379
97918W        W64327  37.046  34.983   2.842
97919W        W64328  10.794  25.113   1.355
97920W        W64329   8.835   6.255   4.568
97921W        W64330   6.877  43.429   0.894
97922W        W64331  19.983   5.552  10.635
97923W        W64332  44.204  18.248   0.701
97924W        W64333  42.104  23.050  12.068
97925W        W64334   3.826   9.323   4.270
97926W        W64335  15.709  30.094  12.474
97927W        W64336  20.742  16.685   2.403
97928W        W64337  40.341  21.990   0.770
97929W        W64338  40.566  11.892   4.490
97930W        W64339   2.344  18.028  12.935
97931W        W64340  36.046  15.863   4.226
97932W        W64341   1.788  40.780  13.403
97933W        W64342   0.192   4.478  10.748
97934W        W64343  10.083  20.089  12.673
97935W        W64344  14.084  39.924   4.353
97936W        W64345  34.608  13.650   2.779
97937W        W64346  13.375  10.045   2.859
97938W        W64347  23.687  29.893  12.906
97939W        W64348  28.727   0.371  14.450
97940W        W64349  36.051  12.336   4.009
97941W        W64350  43.634   3.986  14.001
97942W        W64351  20.112  12.105   3.318
97943W        W64352   9.379  24.955  12.575
97944W        W64353  17.865   7.971   0.383
97945W        W64354  30.082   6.335   4.805
97946W        W64355  20.784  44.657   3.644
97947W        W64356  28.669  26.634  14.338
97948W        W64357  13.218  30.043   3.557
97949W        W64358  12.308  35.081   1.874
97950W        W64359  25.982  41.150   4.025
97951W        W64360  37.106  34.522  13.418
97952W        W64361  44.813   1.800  12.864
97953W        W64362  20.669  39.373   1.783
97954W        W64363   7.052  24.600   3.143
97955W        W64364  12.321  32.245   5.112
97956W        W64365  33.429   4.759   3.621
97957W        W64366  38.683  28.576   3.225
97958W        W64367  32.446   7.669  10.334
97959W        W64368   1.534  39.657   0.300
97960W        W64369   4.253   9.936   3.226
97961W        W64370  17.231  32.053   4.795
97962W        W64371  20.285  19.075   1.091
97963W        W64372  26.290  29.630   1.215
97964W        W64373  36.673  30.490   5.013
97965W        W64374  37.939  23.165   1.399
97966W        W64375   8.328  30.067   2.684
97967W        W64376  10.776  12.691  10.699
97968W        W64377  40.994  34.848  11.053
97969W        W64378  27.893  26.597  14.739
97970W        W64379  14.180   2.893  14.693
97971W        W64380   5.681  13.707  14.915
97972W        W64381  31.603  27.985  13.832
97973W        W64382  40.416  28.163   4.578
97974W        W64383  23.073  40.779   0.154
97975W        W64384   6.712   8.991   2.097
97976W        W64385  31.315  23.216  11.586
97977W        W64386  30.448   6.635   1.752
97978W        W64387  10.042  42.428   3.122
97979W        W64388   7.350   8.675  12.671
97980W        W64389   8.801  19.255  14.718
97981W        W64390  27.078   7.443   0.813
97982W        W64391  10.461  28.990   0.457
97983W        W64392  10.644  31.618  10.716
97984W        W64393   9.664  10.893  11.184
97985W        W64394  35.842   0.235  11.163
97986W        W64395  21.797  41.761   1.816
97987W        W64396  23.776  26.777  14.551
97988W        W64397  40.585  19.847  12.714
97989W        W64398  41.551  19.951  12.458
97990W        W64399   0.832  41.911   3.097
97991W        W64400   2.077   4.534  12.042
97992W        W64401  28.148  35.111  10.946
97993W        W64402   4.636   5.471   4.123
97994W        W64403  44.878  30.598   2.022
97995W        W64404  42.392  22.004  14.958
97996W        W64405  20.716  23.038  13.858
97997W        W64406  31.224  20.876  13.402
97998W        W64407   6.088  39.582  10.090
97999W        W64408   2.486  37.632   3.700
98000W        W64409  28.044  12.261  14.030
98001W        W64410  15.719  36.702  12.405
98002W        W64411  30.143  11.291   0.963
98003W        W64412  27.536  37.292   3.094
98004W        W64413  36.084  42.130  14.475
98005W        W64414  38.542  15.314   2.796
98006W        W64415  20.183  29.711   2.678
98007W        W64416  21.007  21.096   1.085
98008W        W64417  37.030  33.264  13.929
98009W        W64418  19.125  32.254   5.081
98010W        W64419   4.489  31.985  12.523
98011W        W64420  25.559  44.088   4.667
98012W        W64421   8.432  43.581  10.981
98013W        W64422  39.947   2.682  11.998
98014W        W64423   9.223  22.055  11.703
98015W        W64424  13.223   8.731  13.966
98016W        W64425  36.571   0.629  13.824
98017W        W64426  10.173  19.906   4.161
98018W        W64427   4.913   0.025  12.788
98019W        W64428  14.634  22.529  11.305
98020W        W64429  16.646   5.518   0.658
98021W        W64430   4.188  38.442  13.898
98022W        W64431  37.901   3.232  14.121
98023W        W64432  25.246  42.022   4.653
98024W        W64433  37.861  19.230   3.553
98025W        W64434  42.729   0.082   2.373
98026W        W64435  42.338  37.671   1.420
98027W        W64436  19.110   8.350   4.608
98028W        W64437   3.026   4.846   5.004
98029W        W64438  30.170  44.815  11.697
98030W        W64439  13.050  13.287  10.532
98031W        W64440  33.341  11.229  12.383
98032W        W64441  25.287  34.995   4.051
98033W        W64442  15.776  38.770   4.696
98034W        W64443  20.607   4.341  11.922
98035W        W64444  25.601  35.508   0.740
98036W        W64445  13.374   7.493   3.634
98037W        W64446  39.841  17.784   2.284
98038W        W64447  13.461  20.258   4.329
98039W        W64448  40.025  42.404  10.733
98040W        W64449  31.835  28.439  13.894
98041W        W64450   4.901  14.100  11.421
98042W        W64451  14.190  34.733   4.338
98043W        W64452  24.978  14.114   4.083
98044W        W64453  38.235  11.204  10.635
98045W        W64454  15.746  31.413   3.213
98046W        W64455  15.004  39.290   2.386
98047W        W64456  16.520  44.874  13.827
98048W        W64457  11.607   3.917  11.492
98049W        W64458   1.754  31.456   1.709
98050W        W64459  12.731   7.764  12.959
98051W        W64460  43.821  27.852   2.742
98052W        W64461  42.779  24.620  14.097
98053W        W64462   7.384   5.176   1.463
98054W        W64463   9.665  21.819   3.679
98055W        W64464  29.312  44.857  13.892
98056W        W64465  36.455  31.146  12.964
98057W        W64466  44.709  26.925  11.933
98058W        W64467  16.427   4.623   1.707
98059W        W64468  39.399  28.877  14.378
98060W        W64469  40.887  20.702   4.569
98061W        W64470  30.883  24.450  10.719
98062W        W64471   2.018  14.141   3.873
98063W        W64472   8.920  23.926   3.096
98064W        W64473  39.941  42.137   4.093
98065W        W64474  23.154   2.789  13.457
98066W        W64475  25.972  38.282   3.097
98067W        W64476  23.485  15.052   3.576
98068W        W64477  13.690  43.671   4.359
98069W        W64478  25.072  40.086  12.480
98070W        W64479  43.938   5.270   0.370
98071W        W64480  21.082  33.997  13.490
98072W        W64481   1.596  14.765  14.003
98073W        W64482   4.653  17.033  14.497
98074W        W64483  37.131   7.208   1.642
98075W        W64484  17.161   7.324   2.728
98076W        W64485   6.546  42.226   4.631
98077W        W64486   4.440   8.656  12.640
98078W        W64487  41.297   5.425  11.231
98079W        W64488  19.401   1.777   3.457
98080W        W64489  39.564  42.149  10.781
98081W        W64490  37.129  39.802   4.991
98082W        W64491   8.254  14.612   3.652
98083W        W64492  34.155  18.686  14.279
98084W        W64493  29.672  11.281   1.305
98085W        W64494  21.805   5.657   3.763
98086W        W64495  41.008  37.000   1.382
98087W        W64496  37.237  10.315   0.307
98088W        W64497  39.482  20.076   4.738
98089W        W64498  36.356   8.301   0.943
98090W        W64499  33.426  44.444   0.327
98091W        W64500  23.513   5.463  14.890
98092W        W64501  31.353  10.554  13.366
98093W        W64502  19.800  16.160   5.070
98094W        W64503  13.735  20.479   4.882
98095W        W64504  43.496   7.491  10.722
98096W        W64505  16.393  23.605   5.033
98097W        W64506  16.820  13.394  14.886
98098W        W64507  24.602  33.918  11.424
98099W        W64508  22.988  21.768   0.287
98100W        W64509   8.171  27.096   4.346
98101W        W64510  15.855  34.552   1.395
98102W        W64511  41.540   8.823  12.120
98103W        W64512  21.021   1.090  14.929
98104W        W64513   2.846  20.952   4.140
98105W        W64514   6.438  17.230  14.310
98106W        W64515   7.450  38.553  10.972
98107W        W64516  15.885  13.313  13.452
98108W        W64517  13.106  28.199   3.137
98109W        W64518   9.829   8.392  13.632
98110W        W64519  37.444  14.206  13.399
98111W        W64520  25.668  24.747   9.793
98112W        W64521  21.168   8.592  10.653
98113W        W64522  43.013  20.660  13.124
98114W        W64523  43.025  15.122   3.793
98115W        W64524  12.872  19.649  14.388
98116W        W64525  19.744  31.916   4.637
98117W        W64526  23.117  16.082   0.340
98118W        W64527  25.250  31.569  10.571
98119W        W64528  10.502  22.962   1.681
98120W        W64529  27.157  18.311  10.688
98121W        W64530  16.178   2.358   1.680
98122W        W64531  42.465  22.762   4.553
98123W        W64532  18.282  41.435  11.071
98124W        W64533  31.669  13.196  13.488
98125W        W64534  23.182  42.997   5.015
98126W        W64535  20.878   0.950  13.926
98127W        W64536   2.394   5.419  12.561
98128W        W64537  30.075  25.391  12.149
98129W        W64538  40.845  34.515  14.372
98130W        W64539  12.628  16.873  13.075
98131W        W64540  23.167  34.333  11.113
98132W        W64541  43.260  17.320  12.111
98133W        W64542   9.242  10.395   4.837
98134W        W64543   4.252  44.617   2.849
98135W        W64544  26.289  23.915  14.515
98136W        W64545   9.621  37.080   4.447
98137W        W64546  25.412  22.679  12.190
98138W        W64547  21.761   1.751   1.273
98139W        W64548  29.566   2.753   1.012
98140W        W64549  33.667  23.111   3.045
98141W        W64550   4.855  22.979  13.344
98142W        W64551  42.094  12.282   4.115
98143W        W64552  39.652   0.728  11.299
98144W        W64553  27.561  12.918   3.329
98145W        W64554  24.153   9.380   1.285
98146W        W64555  22.217  40.092   3.607
98147W        W64556  15.108  42.593   4.685
98148W        W64557  29.112  26.623   1.750
98149W        W64558  31.595   8.783   1.472
98150W        W64559  18.560  18.655  13.947
98151W        W64560   5.849  40.172   2.706
98152W        W64561  33.242  23.788   2.336
98153W        W64562  16.630  28.994   2.269
98154W        W64563  27.259  12.214   4.237
98155W        W64564  35.165   5.900   1.240
98156W        W64565   6.874  10.925   2.271
98157W        W64566  33.067  19.718   5.101
98158W        W64567  12.843  36.131   3.653
98159W        W64568  18.057   1.084  13.973
98160W        W64569   5.804  38.839  11.207
98161W        W64570   8.877  39.387  14.094
98162W        W64571  34.656  29.081   2.659
98163W        W64572  38.047  15.553   4.225
98164W        W64573  34.380  28.589   3.201
98165W        W64574  42.979  22.643  10.532
98166W        W64575  26.181  26.083  13.762
98167W        W64576  39.961  23.555   4.392
98168W        W64577  21.996   8.169   4.199
98169W        W64578  33.496   4.124  14.494
98170W        W64579  29.787  36.375  14.023
98171W        W64580  26.351   1.406  12.092
98172W        W64581   1.338  14.411   1.720
98173W        W64582  18.578  18.804   0.978
98174W        W64583  35.469  15.250  13.560
98175W        W64584  35.403  28.252  13.385
98176W        W64585  15.295  12.104   2.745
98177W        W64586   2.249  34.024  14.989
98178W        W64587  40.887  25.442  13.048
98179W        W64588  11.106  15.206   4.610
98180W        W64589   4.475   9.594   2.392
98181W        W64590  36.429  36.264   5.038
98182W        W64591  36.490  15.414  13.378
98183W        W64592   3.210   8.677  13.984
98184W        W64593  40.797  23.012   0.939
98185W        W64594  41.884  17.414   3.692
98186W        W64595   5.028  21.910   4.060
98187W        W64596  27.438  14.715   4.487
98188W        W64597  12.081   9.177   2.324
98189W        W64598  13.631   4.052   1.105
98190W        W64599  32.649   1.771   1.619
98191W        W64600  31.052  35.942   3.929
98192W        W64601   4.500  36.684  14.262
98193W        W64602  36.447  27.684   1.339
98194W        W64603  11.356  27.182   3.653
98195W        W64604  13.993   1.991  14.016
98196W        W64605  40.937  36.143   4.076
98197W        W64606   3.356  23.041   4.588
98198W        W64607   2.927  22.438  11.981
98199W        W64608  30.211   6.368   3.576
98200W        W64609  33.905   6.316   0.323
98201W        W64610  17.347  24.279  12.027
98202W        W64611   1.064  23.803  14.490
98203W        W64612  13.629  32.114  14.754
98204W        W64613  38.488  29.200   4.645
98205W        W64614  23.697  31.640   4.041
98206W        W64615  19.751   6.850   1.074
98207W        W64616  21.148  34.639  12.578
98208W        W64617  21.351   0.698   0.301
98209W        W64618   0.721  18.177  14.827
98210W        W64619  15.840  44.542  14.338
98211W        W64620  24.522  29.935  10.983
98212W        W64621  26.095  14.132  12.884
98213W        W64622  29.939  20.496   0.497
98214W        W64623  33.846  28.512  14.085
98215W        W64624  38.881  17.065   4.193
98216W        W64625  20.145  44.500  12.406
98217W        W64626  34.449  42.928  14.064
98218W        W64627  20.048  37.925   4.761
98219W        W64628   1.354   1.502   1.438
98220W        W64629  12.601  10.019  13.834
98221W        W64630  31.555  35.478  14.209
98222W        W64631  42.664  42.964   1.894
98223W        W64632   8.231  32.458  12.068
98224W        W64633  29.493  13.698   4.140
98225W        W64634  21.722  36.751   3.822
98226W        W64635  16.331  35.315   2.520
98227W        W64636   4.838  24.651  13.099
98228W        W64637   7.807  34.466  10.633
98229W        W64638  35.875   6.042   3.730
98230W        W64639  43.502   0.089   0.033
98231W        W64640  29.091  44.796  10.719
98232W        W64641   4.931   9.860   2.475
98233W        W64642  38.310  43.000   1.881
98234W        W64643  20.725  13.699  11.362
98235W        W64644  12.812  15.324  14.838
98236W        W64645  17.861   3.097  14.797
98237W        W64646  20.505  12.615   4.143
98238W        W64647  27.886  10.201   1.308
98239W        W64648   8.508  20.629  11.094
98240W        W64649  29.065  39.633  12.433
98241W        W64650  34.577  12.297   1.067
98242W        W64651  19.793  35.920  14.157
98243W        W64652  38.328  27.542   1.210
98244W        W64653  40.001  39.193   0.918
98245W        W64654  11.720  26.152  13.250
98246W        W64655   3.280  25.503   0.798
98247W        W64656  43.455  22.665  10.743
98248W        W64657  33.456  10.212  11.233
98249W        W64658  44.563   0.985   2.124
98250W        W64659  31.002   9.399   2.378
98251W        W64660  44.903  22.565  11.925
98252W        W64661  25.287   6.813   4.920
98253W        W64662  17.523  10.400   2.756
98254W        W64663  16.831  36.481  14.709
98255W        W64664  19.018  34.338  11.446
98256W        W64665  18.507   2.267  12.043
98257W        W64666  44.493  25.352  14.193
98258W        W64667  39.493  18.088  11.904
98259W        W64668  33.095  17.621  11.535
98260W        W64669  21.715  24.447  13.400
98261W        W64670   4.920  11.403   3.770
98262W        W64671  29.123  16.059  14.844
98263W        W64672  15.247   2.850   1.711
98264W        W64673  35.821  44.418  11.110
98265W        W64674  12.397   4.498  12.870
98266W        W64675  28.666  36.497  14.513
98267W        W64676  35.972  29.184   1.347
98268W        W64677  42.090  34.914   1.442
98269W        W64678  18.883   4.663  14.781
98270W        W64679   5.396  26.752   3.763
98271W        W64680  23.068  14.992   0.276
98272W        W64681  34.142  42.523  11.202
98273W        W64682   2.513  34.919   1.200
98274W        W64683  44.775  27.433  12.652
98275W        W64684  42.358  30.533   4.225
98276W        W64685   9.708  42.422  12.378
98277W        W64686  41.764  43.836  14.734
98278W        W64687  17.787  26.462   1.391
98279W        W64688  20.928  44.402   2.288
98280W        W64689  40.250   6.229   1.992
98281W        W64690  42.600  26.569  10.871
98282W        W64691   8.169  43.516   2.830
98283W        W64692  34.557  15.167  10.724
98284W        W64693  37.399  33.087  11.084
98285W        W64694  40.051  31.558   1.919
98286W        W64695  14.803   8.993  10.487
98287W        W64696  30.288  25.489  10.806
98288W        W64697  43.037  16.772   0.325
98289W        W64698  44.318  12.560  11.721
98290W        W64699   4.864  15.012   0.385
98291W        W64700  36.067  25.738  11.296
98292W        W64701  34.616  10.783   4.639
98293W        W64702  17.162  15.708   3.518
98294W        W64703  24.440  30.031  14.367
98295W        W64704  31.657  18.677   4.001
98296W        W64705   7.419  43.908   0.373
98297W        W64706   9.856  22.930   2.866
98298W        W64707   9.206  24.313  10.235
98299W        W64708  11.397   2.114  11.178
98300W        W64709  35.811  17.755   2.392
98301W        W64710   4.858  15.059  11.574
98302W        W64711   8.186  32.446  14.491
98303W        W64712   8.972  21.970  12.519
98304W        W64713  20.530  20.017  10.727
98305W        W64714  19.243  20.581   1.225
98306W        W64715  39.054  40.013   2.336
98307W        W64716  25.690  19.416   1.232
98308W        W64717   6.989  31.182   1.427
98309W        W64718   2.806   2.045  10.388
98310W        W64719   1.724  14.522   3.096
98311W        W64720  34.507  31.205  11.124
98312W        W64721  18.505  35.341   0.360
98313W        W64722  22.021  14.228   3.634
98314W        W64723  15.394   0.425  12.454
98315W        W64724   1.330  33.162   1.763
98316W        W64725  14.587  27.344  12.986
98317W        W64726  33.390  13.628   2.173
98318W        W64727  40.176  14.207  12.554
98319W        W64728  40.315  23.052  11.615
98320W        W64729   1.851   7.077  10.791
98321W        W64730  20.015  23.689   3.658
98322W        W64731  35.076   1.875   0.778
98323W        W64732  20.716   2.768   0.572
98324W        W64733  38.644  22.213  14.395
98325W        W64734  33.673  19.037   1.749
98326W        W64735  36.014  30.055  11.823
98327W        W64736  25.798  37.282  13.642
98328W        W64737  12.735   9.604   2.642
98329W        W64738  16.693  14.610   0.137
98330W        W64739   5.375   8.845  12.886
98331W        W64740  44.385  13.150   3.679
98332W        W64741   9.276   5.239  11.184
98333W        W64742  12.781  18.665   1.041
98334W        W64743  31.153  34.353  13.990
98335W        W64744  11.782  11.545   4.593
98336W        W64745   5.657  34.606   0.467
98337W        W64746  40.069  43.301  13.357
98338W        W64747  17.068  44.241  13.399
98339W        W64748   3.668  17.611  11.691
98340W        W64749  26.202  36.155   2.997
98341W        W64750  14.695  30.544  11.246
98342W        W64751  24.663  18.540   3.664
98343W        W64752  11.552  17.733  12.587
98344W        W64753  36.678  33.939   3.117
98345W        W64754   7.372  30.997   3.217
98346W        W64755  20.134  18.043   5.260
98347W        W64756  23.412  12.573   4.029
98348W        W64757   6.160  39.505  14.535
98349W        W64758  29.597  25.173  11.238
98350W        W64759  31.333  13.716   4.077
98351W        W64760  32.236   3.960   0.342
98352W        W64761  32.579   9.380  13.773
98353W        W64762  41.499  42.352   0.732
98354W        W64763  14.468   5.980  12.878
98355W        W64764  34.583   2.295   2.243
98356W        W64765  34.392  43.260  14.861
98357W        W64766  13.141  11.370  12.656
98358W        W64767  18.999   1.778  14.377
98359W        W64768   6.016  26.136   2.524
98360W        W64769  15.147  38.525  12.491
98361W        W64770  43.322  41.250  12.928
98362W        W64771  27.940  16.755   0.368
98363W        W64772  22.697  42.886  10.478
98364W        W64773  36.998  17.988   3.239
98365W        W64774  16.793  23.543  14.426
98366W        W64775  34.179   1.417   3.361
98367W        W64776  39.128   7.806  14.572
98368W        W64777  36.327  34.008  12.269
98369W        W64778  44.547  27.433  12.038
98370W        W64779   1.403   0.069  14.410
98371W        W64780  19.262  28.766   2.918
98372W        W64781  30.963  36.213  14.471
98373W        W64782  11.298  24.452  11.949
98374W        W64783  12.198  29.545  12.017
98375W        W64784  42.728   3.836   1.259
98376W        W64785  36.114  44.835  11.954
98377W        W64786  32.386   9.365  14.755
98378W        W64787   7.754  26.455   0.875
98379W        W64788  21.023   3.436   2.654
98380W        W64789   0.287   4.199   0.462
98381W        W64790  25.236  40.747   4.558
98382W        W64791  12.185  20.500   1.301
98383W        W64792  38.572  22.145  10.629
98384W        W64793   1.579  36.252  12.107
98385W        W64794  11.684  18.401  11.531
98386W        W64795  17.189  41.293   2.088
98387W        W64796  20.526  21.978   1.360
98388W        W64797  38.944  41.051  13.211
98389W        W64798  35.167  19.105  11.494
98390W        W64799  22.687  36.618   3.856
98391W        W64800  25.601  13.012   0.320
98392W        W64801  43.043  11.283   2.247
98393W        W64802  10.480  15.257   1.678
98394W        W64803  26.548  27.410  14.772
98395W        W64804  12.703  18.202  14.184
98396W        W64805  14.678  24.434   3.673
98397W        W64806  12.842  27.860   0.337
98398W        W64807   4.380   1.496   3.538
98399W        W64808  39.295  33.369  10.665
98400W        W64809  32.512  20.224   0.536
98401W        W64810  36.567  36.045  13.649
98402W        W64811   1.575   4.894  10.672
98403W        W64812  18.089  20.675   0.635
98404W        W64813  44.191   9.099   1.425
98405W        W64814  41.572  31.933  13.398
98406W        W64815  30.658  29.065   0.348
98407W        W64816  29.993   4.075   1.174
98408W        W64817   7.468  29.942  14.004
98409W        W64818  17.192  34.121   2.412
98410W        W64819  21.612  35.904   2.602
98411W        W64820   6.130  32.669  11.140
98412W        W64821  38.487   6.846   2.851
98413W        W64822  31.632  13.126  12.549
98414W        W64823  22.022  21.724  11.164
98415W        W64824  44.797   7.325  11.155
98416W        W64825  26.455  14.707   5.105
98417W        W64826   9.107   4.966   1.199
98418W        W64827   0.041  13.122   0.746
98419W        W64828  31.942  29.763   1.342
98420W        W64829  10.239  15.832  14.449
98421W        W64830  17.581   4.790  13.528
98422W        W64831  25.963  24.137  13.042
98423W        W64832  11.050  23.926   3.803
98424W        W64833  35.989   2.926   3.639
98425W        W64834  19.112  16.327   2.607
98426W        W64835  22.533  10.878   3.357
98427W        W64836   9.000  42.346  14.557
98428W        W64837  34.302  39.064  12.508
98429W        W64838  24.022  20.956  11.262
98430W        W64839  34.434  36.635  14.809
98431W        W64840  23.547  13.653   2.854
98432W        W64841  37.770  39.817  13.427
98433W        W64842   7.338   9.928  11.452
98434W        W64843  40.455  26.077  12.620
98435W        W64844  37.111  43.913  12.069
98436W        W64845  32.696  11.140  14.280
98437W        W64846  13.052  11.813  13.861
98438W        W64847  37.857   1.775  13.891
98439W        W64848  43.373  20.890   4.011
98440W        W64849  30.210  11.587  11.971
98441W        W64850   6.818  38.716  11.638
98442W        W64851  42.805  28.573  12.117
98443W        W64852  37.804   9.089   3.116
98444W        W64853  30.022  25.522  13.522
98445W        W64854  30.136  31.419  10.702
98446W        W64855  34.647  15.842   3.133
98447W        W64856   2.340  42.238  11.354
98448W        W64857  35.604   7.140  12.885
98449W        W64858  34.094  33.502   3.891
98450W        W64859  13.580  12.114  13.473
98451W        W64860  14.198  24.372   2.436
98452W        W64861  10.147  27.653   3.800
98453W        W64862   5.866  44.360   1.399
98454W        W64863   8.793  28.948  12.938
98455W        W64864  28.865  20.972  12.524
98456W        W64865  21.961  18.593  13.366
98457W        W64866  31.520  36.429  10.583
98458W        W64867  34.000  44.872  12.486
98459W        W64868  30.091  42.479  14.427
98460W        W64869  32.969  14.645   1.827
98461W        W64870  21.605  41.248   1.349
98462W        W64871  37.883  18.125  12.515
98463W        W64872  39.579  33.002   0.783
98464W        W64873  28.191  35.127   1.643
98465W        W64874   9.866   0.115  14.091
98466W        W64875  24.135  21.430  14.863
98467W        W64876  44.534  36.040  10.760
98468W        W64877  38.332  19.378   4.055
98469W        W64878  35.348  32.622   0.818
98470W        W64879  12.134  43.204   1.247
98471W        W64880  12.223  16.108   1.939
98472W        W64881  13.034   6.185   3.280
98473W        W64882  13.890  29.088  14.252
98474W        W64883  34.363  39.431  14.173
98475W        W64884  27.007   3.992  14.590
98476W        W64885  23.759  10.247   2.405
98477W        W64886   0.191   5.220   4.568
98478W        W64887  42.708   0.988  13.070
98479W        W64888  41.902  20.296   2.699
98480W        W64889  38.776  39.566  12.038
98481W        W64890  37.005  23.782  12.588
98482W        W64891   9.386  35.495   3.774
98483W        W64892  17.353  34.948  12.381
98484W        W64893  36.351  17.151  14.012
98485W        W64894   1.308  12.080  13.254
98486W        W64895  24.611  15.117   2.581
98487W        W64896  34.160  34.073  14.201
98488W        W64897   1.292  41.127  12.182
98489W        W64898  30.635  44.544   0.922
98490W        W64899  20.594  41.385  13.843
98491W        W64900  36.211  23.037  11.395
98492W        W64901  33.615   4.769  13.304
98493W        W64902  22.737  42.395   2.554
98494W        W64903  29.200  11.264   4.095
98495W        W64904  17.284  41.236   0.323
98496W        W64905  15.830  31.440  12.604
98497W        W64906  23.373  28.733   1.870
98498W        W64907   7.375  33.499  10.532
98499W        W64908  27.612  32.935  14.785
98500W        W64909  26.105  25.230   3.644
98501W        W64910  26.274   6.884  12.809
98502W        W64911   8.012   6.736  14.809
98503W        W64912  14.267  12.929   3.293
98504W        W64913  24.769  12.861  12.609
98505W        W64914  43.936  28.742  12.045
98506W        W64915   8.723  31.176   2.823
98507W        W64916   7.646  16.632  12.976
98508W        W64917  19.706  41.424  10.869
98509W        W64918  44.267  37.940   0.468
98510W        W64919  32.450  17.042  11.980
98511W        W64920  35.995  17.329  13.381
98512W        W64921  34.210  21.847   2.782
98513W        W64922  26.026  34.108   2.169
98514W        W64923  41.384  11.167  12.104
98515W        W64924  15.017  24.578   3.008
98516W        W64925   9.991  27.685  11.240
98517W        W64926  14.643  40.247   2.843
98518W        W64927  22.694  27.026   4.814
98519W        W64928  36.566  12.213   2.652
98520W        W64929  31.056  30.586   4.872
98521W        W64930  17.021   9.671   3.534
98522W        W64931   3.379  12.822   3.323
98523W        W64932  26.838  18.027   4.098
98524W        W64933   6.378  44.020  12.536
98525W        W64934  31.156  15.873   2.221
98526W        W64935  23.298  25.116   1.895
98527W        W64936  12.446  37.944  14.988
98528W        W64937   3.789  36.424   0.951
98529W        W64938  34.169   5.896  14.059
98530W        W64939  31.945  11.788  11.002
98531W        W64940  20.741  43.240  14.176
98532W        W64941  27.440  33.609   1.104
98533W        W64942   1.923  34.196  12.951
98534W        W64943  29.172  24.386   2.186
98535W        W64944  24.538   3.455   1.085
98536W        W64945  19.162   3.633  12.161
98537W        W64946  19.256  12.057   4.863
98538W        W64947  11.079   3.896   4.599
98539W        W64948  31.588  32.187  10.685
98540W        W64949  14.177  38.096   3.596
98541W        W64950   2.431  11.094   2.324
98542W        W64951   8.708   1.432  11.436
98543W        W64952  25.273  26.191  12.583
98544W        W64953  33.971  16.337  12.568
98545W        W64954  19.469  17.571  12.940
98546W        W64955  36.322  43.578  14.808
98547W        W64956  12.290   5.846  13.927
98548W        W64957  41.011  11.264  12.476
98549W        W64958  36.639  28.116  14.030
98550W        W64959  10.348   6.440   5.117
98551W        W64960  35.828  20.639   2.432
98552W        W64961   0.256   4.426  11.599
98553W        W64962  12.037  22.953   1.832
98554W        W64963  44.188  30.237  10.779
98555W        W64964  13.177  11.965   2.800
98556W        W64965  12.393  31.885   1.762
98557W        W64966  13.774  24.640   1.334
98558W        W64967   9.896  23.526  10.254
98559W        W64968  41.248  32.018  12.509
98560W        W64969  43.964   7.259   3.762
98561W        W64970   6.229  12.192   1.957
98562W        W64971   3.044  24.160  14.761
98563W        W64972   5.699  40.401  11.610
98564W        W64973  27.143  20.311  12.598
98565W        W64974   3.931  44.819  13.946
98566W        W64975  41.810  24.627   1.301
98567W        W64976  34.704  27.350  11.567
98568W        W64977   5.006  10.441  12.989
98569W        W64978  43.763  16.634  12.492
98570W        W64979  24.648   0.284  14.527
98571W        W64980   4.802  17.055   1.363
98572W        W64981  30.420  42.583   2.285
98573W        W64982  11.914   5.335   4.269
98574W        W64983   7.767  16.825   2.898
98575W        W64984  27.528  11.140  10.623
98576W        W64985  36.503  10.674   5.239
98577W        W64986  43.317  42.682   0.378
98578W        W64987  29.096  11.194  13.439
98579W        W64988  28.044  41.423   2.305
98580W        W64989  15.892  30.692   0.620
98581W        W64990  19.962   9.111   3.597
98582W        W64991  17.771  23.575  14.582
98583W        W64992  32.167  26.473  12.544
98584W        W64993  34.413  38.565   4.816
98585W        W64994  36.757  34.575   2.698
98586W        W64995   7.140  16.134   0.810
98587W        W64996  20.030  14.848   1.537
98588W        W64997  33.652  38.777   3.337
98589W        W64998   2.800   0.327  14.800
98590W        W64999   8.053  35.974   1.310
98591W        W65000  15.917   5.548  13.707
98592W        W65001  21.683   8.267  11.496
98593W        W65002  34.351  10.228  10.603
98594W        W65003  15.488  17.796   3.080
98595W        W65004  12.521  29.614   1.480
98596W        W65005  43.184  16.861   4.553
98597W        W65006  32.665  28.711   0.002
98598W        W65007  43.379  27.117   4.625
98599W        W65008  25.688  19.490   3.023
98600W        W65009  21.500  43.396  12.673
98601W        W65010  22.265  11.355  13.024
98602W        W65011   4.699   2.055  11.161
98603W        W65012  12.767  30.199  14.866
98604W        W65013  34.846  13.028   2.012
98605W        W65014  16.720  19.166  13.823
98606W        W65015  24.356  29.055   3.801
98607W        W65016  36.824   6.294   0.271
98608W        W65017  39.595   0.775  10.618
98609W        W65018   9.789  40.851   2.885
98610W        W65019   7.077   2.988   3.695
98611W        W65020  25.458  23.476  12.416
98612W        W65021   9.005   5.308   1.785
98613W        W65022   7.138  15.188   1.743
98614W        W65023  44.853  44.015   1.757
98615W        W65024  19.720  33.810   2.417
98616W        W65025  19.578   4.768  12.530
98617W        W65026  33.009  28.518   3.645
98618W        W65027  17.659  26.892  12.846
98619W        W65028  12.658  27.680   0.788
98620W        W65029  13.169  35.869   3.983
98621W        W65030  41.040  22.550  14.855
98622W        W65031   9.825  33.705   2.068
98623W        W65032   4.043  22.111   9.632
98624W        W65033  33.424  25.073   0.462
98625W        W65034  29.120  27.126   0.974
98626W        W65035  10.680   7.230   3.100
98627W        W65036   1.951   0.272  14.449
98628W        W65037  42.911  35.402   4.180
98629W        W65038  35.682   8.711   2.715
98630W        W65039  26.605  34.806  11.621
98631W        W65040  21.330  42.524  14.376
98632W        W65041   2.291  14.105   1.908
98633W        W65042  11.772  29.871  12.601
98634W        W65043  23.451  43.721  11.455
98635W        W65044  31.115   3.171  12.077
98636W        W65045  17.620  15.111  13.518
98637W        W65046  17.650  27.166  12.395
98638W        W65047  42.840  19.780  12.749
98639W        W65048   5.869  19.779  14.806
98640W        W65049   3.232  21.052   3.308
98641W        W65050  12.128  22.018   0.262
98642W        W65051  27.445   4.351   4.552
98643W        W65052  27.973  27.104   4.341
98644W        W65053  18.490   0.122   3.405
98645W        W65054  26.308   6.154  12.453
98646W        W65055   8.899  14.156  14.770
98647W        W65056   8.965   5.878  12.845
98648W        W65057  15.139  25.820   2.741
98649W        W65058  14.914  20.118   0.867
98650W        W65059  15.589  28.212   4.200
98651W        W65060  39.947   6.937   0.481
98652W        W65061  40.265  25.572   2.254
98653W        W65062   0.990   6.631  14.078
98654W        W65063  32.124  12.867  14.147
98655W        W65064   7.725  44.314   3.275
98656W        W65065  32.967  33.349   0.726
98657W        W65066  37.065   3.435   4.223
98658W        W65067   5.312  15.051  11.831
98659W        W65068  42.486   4.285  11.964
98660W        W65069   8.795  25.657  10.244
98661W        W65070  31.330   7.819   1.742
98662W        W65071   9.863  35.046  13.518
98663W        W65072   9.625  27.320   0.511
98664W        W65073  12.111  25.127  11.125
98665W        W65074  15.261  27.226  14.855
98666W        W65075  29.026  36.782   1.443
98667W        W65076  27.176   9.798   4.530
98668W        W65077  38.863   2.909  13.418
98669W        W65078  27.612  35.343   2.551
98670W        W65079  31.184  16.780  10.321
98671W        W65080  37.575  40.422   1.811
98672W        W65081  32.070  44.985  13.544
98673W        W65082  29.132  27.308  13.652
98674W        W65083  36.515  19.843  11.573
98675W        W65084  29.175  16.443  13.606
98676W        W65085  43.892  14.210  13.294
98677W        W65086  16.710  17.581  12.846
98678W        W65087  22.068  25.726  13.614
98679W        W65088  20.955   1.304   1.213
98680W        W65089  35.059  30.614   3.781
98681W        W65090  28.752  26.250  14.884
98682W        W65091  39.421  39.250  12.557
98683W        W65092  44.435  19.943   0.009
98684W        W65093  37.477  39.817  12.377
98685W        W65094   8.372  16.161   4.711
98686W        W65095  33.382  39.602   2.648
98687W        W65096   0.036  32.070  14.922
98688W        W65097  34.459  10.388  11.941
98689W        W65098  26.242  22.128  13.551
98690W        W65099  14.023   7.728  11.224
98691W        W65100  25.762  35.691  11.648
98692W        W65101   4.941  19.722  11.643
98693W        W65102  26.098  41.493   3.586
98694W        W65103   9.767  16.542  11.947
98695W        W65104  42.739  17.452  12.016
98696W        W65105  18.867  41.658   2.372
98697W        W65106   8.551   5.078   1.889
98698W        W65107  39.077   3.752   4.706
98699W        W65108  33.629   1.416  14.017
98700W        W65109   1.700  33.031  13.795
98701W        W65110  35.930  24.904   0.120
98702W        W65111  33.124   1.984   0.307
98703W        W65112  28.742  37.813  11.467
98704W        W65113  41.532   3.911   0.348
98705W        W65114  43.930  12.351  10.269
98706W        W65115  22.678  41.357   2.726
98707W        W65116  19.654  34.304   2.325
98708W        W65117   4.976  25.457  11.474
98709W        W65118   1.910  39.543   2.058
98710W        W65119  18.504  31.930   1.798
98711W        W65120  36.855  17.632   5.296
98712W        W65121  35.670   6.477   4.843
98713W        W65122  21.036   6.882   1.381
98714W        W65123  12.310  25.283   1.415
98715W        W65124  17.616  25.557   2.262
98716W        W65125  17.172  40.804   1.247
98717W        W65126  30.362  39.235   3.594
98718W        W65127  20.200  25.709  13.831
98719W        W65128  38.841  42.054  10.203
98720W        W65129   0.464   7.468   4.238
98721W        W65130  35.181   3.855  12.805
98722W        W65131  24.898  13.682   1.920
98723W        W65132  44.910   6.294  10.541
98724W        W65133  32.231  26.511  11.587
98725W        W65134  22.635  14.636   1.467
98726W        W65135  32.065  26.537  14.581
98727W        W65136  22.829  27.435  12.016
98728W        W65137   6.850  26.265  13.817
98729W        W65138  17.584  41.846  10.614
98730W        W65139  20.578  17.772  10.524
98731W        W65140  20.606  29.435  13.802
98732W        W65141   6.952  24.515   3.675
98733W        W65142  10.713  28.163  14.488
98734W        W65143  20.054  34.918   0.036
98735W        W65144  15.326  33.383  12.296
98736W        W65145   0.015  34.453   2.607
98737W        W65146  14.276  13.825  10.547
98738W        W65147  39.521  14.591   2.562
98739W        W65148   6.834  36.596  14.485
98740W        W65149  29.424  22.119  10.955
98741W        W65150   8.443  42.492  14.702
98742W        W65151  13.952  20.935  13.849
98743W        W65152   0.364  34.354   4.539
98744W        W65153   8.036  15.566  13.377
98745W        W65154   8.773  30.409  10.548
98746W        W65155   4.747  15.592  14.965
98747W        W65156  36.536  11.234  13.910
98748W        W65157  16.915  34.890   0.834
98749W        W65158  31.401   3.426  13.872
98750W        W65159  44.335   9.430   0.443
98751W        W65160   1.229  12.751   0.894
98752W        W65161  24.696  33.093  14.024
98753W        W65162  16.886  19.214   3.712
98754W        W65163  42.574  20.527   0.049
98755W        W65164   8.801   9.131   3.053
98756W        W65165  39.324  10.413  14.942
98757W        W65166  23.994  10.635  10.644
98758W        W65167  29.581   1.684   4.999
98759W        W65168   8.514   9.399   2.154
98760W        W65169   5.720  38.927   2.330
98761W        W65170  20.530  33.070  12.892
98762W        W65171  14.508   5.869   4.661
98763W        W65172  36.360   9.936  12.029
98764W        W65173   5.331  27.825   1.324
98765W        W65174  41.387   7.920   3.897
98766W        W65175  28.499  27.505  11.142
98767W        W65176  23.056  22.282   2.739
98768W        W65177  20.865  25.832   3.022
98769W        W65178  31.480   6.732   0.816
98770W        W65179  27.960   1.389   2.240
98771W        W65180  20.642  44.491   1.427
98772W        W65181  32.131  30.246   1.282
98773W        W65182   3.065   8.661   4.237
98774W        W65183  25.199   5.808   0.416
98775W        W65184   5.866  35.006   4.043
98776W        W65185  40.356   1.204   2.775
98777W        W65186   7.484  10.575   2.531
98778W        W65187  36.035   7.624  11.166
98779W        W65188  25.895  20.982   0.959
98780W        W65189  43.467   0.983   3.401
98781W        W65190  36.415  18.582  14.543
98782W        W65191  31.065  20.862   2.756
98783W        W65192  39.449  13.237  12.509
98784W        W65193  20.268  25.960   1.760
98785W        W65194  22.687  17.697  11.276
98786W        W65195  41.505  12.291   3.151
98787W        W65196  22.753   0.055  14.173
98788W        W65197   7.779  21.002   1.834
98789W        W65198   8.654   4.014   3.841
98790W        W65199   5.874  18.124   1.226
98791W        W65200  10.878  12.047  14.286
98792W        W65201  21.565  20.496   2.348
98793W        W65202  40.259  33.852   0.492
98794W        W65203  30.080  13.400  11.852
98795W        W65204  39.546  31.140  10.592
98796W        W65205  39.062  10.767  10.479
98797W        W65206  38.288   8.924   0.410
98798W        W65207  12.633  23.075   4.869
98799W        W65208  12.866  23.695  14.890
98800W        W65209  37.818  12.114  14.540
98801W        W65210  24.102  18.177  13.404
98802W        W65211  11.510  42.181  11.938
98803W        W65212  37.602  12.710  12.398
98804W        W65213  16.127  33.363   2.184
98805W        W65214  16.567  15.471   0.814
98806W        W65215  13.167  30.452  10.763
98807W        W65216  18.353   8.097   0.487
98808W        W65217  18.329   8.268  12.390
98809W        W65218   6.737  23.190   1.319
98810W        W65219  36.367  39.435   2.898
98811W        W65220  38.711  15.508   4.484
98812W        W65221  40.613  42.826  10.123
98813W        W65222  20.778   6.958   4.101
98814W        W65223  44.108  12.314   1.652
98815W        W65224  34.152  13.259  14.331
98816W        W65225  33.380  29.003  14.397
98817W        W65226  32.502  44.665  13.199
98818W        W65227   8.971  42.995  14.008
98819W        W65228  13.621  25.169   1.417
98820W        W65229  21.124  20.738   3.809
98821W        W65230   1.872   3.375   1.325
98822W        W65231  17.246   2.253   4.646
98823W        W65232  22.696  40.807   3.983
98824W        W65233  36.100  24.797  12.382
98825W        W65234   3.951  30.957   0.473
98826W        W65235  20.083  36.615  11.434
98827W        W65236  39.711  31.113  12.643
98828W        W65237   8.565  39.966   0.385
98829W        W65238   4.658  18.538  13.494
98830W        W65239  41.327  10.192  14.842
98831W        W65240  13.768  22.766  12.882
98832W        W65241  26.370   2.314  14.390
98833W        W65242  38.941  34.044  12.309
98834W        W65243   5.652  22.311  12.101
98835W        W65244  21.902  22.709   1.306
98836W        W65245  18.090   9.105  13.906
98837W        W65246  32.594  33.972  13.085
98838W        W65247  31.009   3.400  11.620
98839W        W65248  13.591  23.216  12.608
98840W        W65249  38.906   5.775   2.934
98841W        W65250  44.916  37.343   1.446
98842W        W65251  28.355   3.356  11.116
98843W        W65252  26.702  42.910   2.585
98844W        W65253  32.823  32.869  11.161
98845W        W65254  37.956  29.117  11.569
98846W        W65255   0.272  27.124  12.795
98847W        W65256   5.276  44.515  11.505
98848W        W65257  19.025   3.974   3.716
98849W        W65258  14.243  10.580   0.810
98850W        W65259  20.997   7.583  12.450
98851W        W65260  41.545  25.448   2.741
98852W        W65261  16.798  38.051  14.881
98853W        W65262   0.081  19.275  13.092
98854W        W65263  37.891  34.471   3.595
98855W        W65264  21.130  42.453  10.697
98856W        W65265   0.856  42.395  11.657
98857W        W65266   8.167  10.162  12.384
98858W        W65267   8.353   8.301   2.869
98859W        W65268   6.322  24.023   3.381
98860W        W65269  38.859  22.189   1.251
98861W        W65270  43.024  16.767   4.055
98862W        W65271   8.732  20.794  11.541
98863W        W65272  21.766  16.661   3.333
98864W        W65273   0.912   2.232   3.612
98865W        W65274   5.026  22.610  11.038
98866W        W65275   0.974   4.799   4.521
98867W        W65276  28.886  29.300  11.026
98868W        W65277  43.707  41.272   3.168
98869W        W65278  24.202  16.856  11.191
98870W        W65279  12.484  24.048  11.572
98871W        W65280  11.058  18.954   1.180
98872W        W65281  40.505  13.619   0.279
98873W        W65282  12.465  12.373  14.931
98874W        W65283  21.081  36.514  14.718
98875W        W65284   9.601   4.530   1.880
98876W        W65285  28.646   1.730  13.338
98877W        W65286  25.639  20.291  13.389
98878W        W65287  44.456  12.617   3.769
98879W        W65288   4.397   2.395  11.398
98880W        W65289  38.562  38.024  13.589
98881W        W65290  34.259   6.096  14.543
98882W        W65291  16.648   2.285   2.365
98883W        W65292  36.992  21.364  10.196
98884W        W65293   3.919  14.606  10.253
98885W        W65294   5.357  24.260   1.772
98886W        W65295  17.061  25.955   3.784
98887W        W65296  20.019   4.231  11.571
98888W        W65297  10.213  34.757  10.473
98889W        W65298  16.111  24.417   2.412
98890W        W65299  34.345   8.408   3.275
98891W        W65300   8.672  37.342  12.064
98892W        W65301  42.933  18.293   3.406
98893W        W65302   0.289  20.848  11.069
98894W        W65303  37.543   0.508  14.877
98895W        W65304   4.918  27.186   3.301
98896W        W65305  13.289  22.623   2.181
98897W        W65306  39.061  23.596  13.259
98898W        W65307  39.950  31.384   0.309
98899W        W65308  15.292  38.317  13.952
98900W        W65309  36.111   1.484   2.875
98901W        W65310   7.574  33.623   1.786
98902W        W65311  15.127  44.463   0.642
98903W        W65312  20.113  44.680   4.740
98904W        W65313  33.506  40.964   4.568
98905W        W65314  33.311  14.865   4.327
98906W        W65315   1.384   1.450  10.684
98907W        W65316  37.014  32.682  13.500
98908W        W65317  26.820  34.612   2.347
98909W        W65318  40.788  11.103   1.582
98910W        W65319  17.861  30.040   4.858
98911W        W65320  26.490  16.550   4.555
98912W        W65321  28.715  41.451  14.932
98913W        W65322  21.687  19.629  14.365
98914W        W65323   1.181  29.411  12.934
98915W        W65324  23.001  29.954  14.535
98916W        W65325  33.893  43.500  13.473
98917W        W65326  19.395  35.830  11.566
98918W        W65327  36.335  17.980   2.969
98919W        W65328  22.522   9.388   2.067
98920W        W65329  29.046  38.285   0.443
98921W        W65330  44.713   4.736   2.156
98922W        W65331  20.476  32.715  13.305
98923W        W65332  40.977  13.429  13.460
98924W        W65333  28.869   8.327  11.140
98925W        W65334   9.439  29.142   3.619
98926W        W65335   6.334  34.957  12.746
98927W        W65336  35.608   4.625   0.855
98928W        W65337   9.084  41.541  14.676
98929W        W65338  21.235  28.169   1.227
98930W        W65339  30.990  13.379   3.825
98931W        W65340  39.114  12.241  12.878
98932W        W65341   7.305  42.213  14.087
98933W        W65342  40.328  23.130  12.476
98934W        W65343  15.161  23.206  10.253
98935W        W65344  18.992   2.735  14.370
98936W        W65345  20.077  42.359   2.051
98937W        W65346  23.664  13.843   3.309
98938W        W65347  43.692  25.608   3.638
98939W        W65348  19.698  42.407  14.797
98940W        W65349   4.705  35.508   1.202
98941W        W65350   2.276   5.377   1.222
98942W        W65351  29.430  39.270  14.049
98943W        W65352  39.745  24.746   3.867
98944W        W65353  18.110  24.063   1.890
98945W        W65354   6.954   4.752  11.069
98946W        W65355  29.454  36.044   1.750
98947W        W65356   5.938   4.905  13.975
98948W        W65357  23.762  20.129   4.316
98949W        W65358  13.965   5.366   2.243
98950W        W65359  24.429   1.233  11.957
98951W        W65360  13.893  35.342  11.639
98952W        W65361  43.359  36.049  13.470
98953W        W65362  30.100  34.244  11.547
98954W        W65363  22.687  14.069  11.148
98955W        W65364  11.007   9.587  12.378
98956W        W65365  13.963  34.912  12.520
98957W        W65366  26.779  17.938   0.645
98958W        W65367  10.818  26.480  14.855
98959W        W65368  26.886  40.937  14.732
98960W        W65369   9.953  31.986   0.023
98961W        W65370  22.052  44.295  10.792
98962W        W65371   4.097  44.167  11.210
98963W        W65372  30.362  10.172   3.164
98964W        W65373  29.006  23.784  13.496
98965W        W65374  22.735  34.873  11.603
98966W        W65375  27.337  12.810   4.935
98967W        W65376  27.679   2.928   1.682
98968W        W65377   1.967   8.843   0.316
98969W        W65378  13.795  33.995  11.670
98970W        W65379  43.061  32.096   1.252
98971W        W65380  43.912  23.160  14.579
98972W        W65381  14.931  23.646  10.808
98973W        W65382   8.240  10.258   2.131
98974W        W65383  31.607  37.474  11.068
98975W        W65384  20.511  34.102  11.200
98976W        W65385  22.471  25.667   0.368
98977W        W65386  24.525  11.199  10.300
98978W        W65387  37.190   9.723  13.403
98979W        W65388  24.101  10.154   4.520
98980W        W65389  35.622  14.595  13.025
98981W        W65390   9.361   5.010   4.762
98982W        W65391  26.728  23.993  13.591
98983W        W65392  38.252  10.043  11.922
98984W        W65393  35.708  41.026   1.734
98985W        W65394   7.209  43.348   4.043
98986W        W65395   5.838  28.434  13.838
98987W        W65396  36.230  36.571  12.085
98988W        W65397  38.247  44.803   2.275
98989W        W65398   0.917   8.713   0.582
98990W        W65399   3.357  41.253  11.761
98991W        W65400   7.953   2.313  12.429
98992W        W65401  32.437  17.583   0.634
98993W        W65402  22.246   6.745   4.783
98994W        W65403  17.543   4.841   2.223
98995W        W65404  12.598  21.711  11.517
98996W        W65405  34.339  37.145  13.012
98997W        W65406  13.583  34.154  10.713
98998W        W65407  26.069  43.345   0.775
98999W        W65408  20.606  24.392   2.322
99000W        W65409  23.972   0.667  11.103
99001W        W65410  12.149  43.672  13.068
99002W        W65411  34.096  15.820  12.515
99003W        W65412  18.507  19.791   1.452
99004W        W65413  43.650  22.536  12.390
99005W        W65414  17.294  36.679   0.960
99006W        W65415   4.997  29.464   0.070
99007W        W65416  20.179  44.942   1.921
99008W        W65417  19.749   1.712   0.014
99009W        W65418  42.041   8.120   2.270
99010W        W65419  41.448  42.464  11.413
99011W        W65420  15.692  25.999   3.470
99012W        W65421  29.460  32.835   3.253
99013W        W65422  22.381  37.902  14.885
99014W        W65423  14.034  26.106   1.400
99015W        W65424   7.615   7.123  11.196
99016W        W65425  26.566  18.987  14.852
99017W        W65426  28.080   0.245  12.958
99018W        W65427  20.301  28.085   4.624
99019W        W65428  20.303   9.373  13.868
99020W        W65429   8.168  43.748   2.351
99021W        W65430  17.210  19.882   3.725
99022W        W65431   1.613  35.135  11.439
99023W        W65432  13.702  42.546  11.292
99024W        W65433  38.461  30.471   3.941
99025W        W65434  34.291  14.656  10.503
99026W        W65435  35.341   7.399   0.762
99027W        W65436  39.303  23.119   1.010
99028W        W65437  41.266   5.764   1.659
99029W        W65438  38.038  24.554   1.181
99030W        W65439  21.512   0.363  12.549
99031W        W65440  30.571  40.285  13.890
99032W        W65441  39.503  23.765   1.929
99033W        W65442  16.625   9.855   3.142
99034W        W65443  16.765  31.081  11.560
99035W        W65444   2.718  27.208  14.302
99036W        W65445  12.094  25.065  12.351
99037W        W65446  31.933  15.118   1.371
99038W        W65447  21.234  25.203   1.367
99039W        W65448  38.342   0.911   4.165
99040W        W65449  25.650  30.667   4.669
99041W        W65450   0.175   9.387  12.632
99042W        W65451  31.003   8.800  13.314
99043W        W65452   9.844   5.185  13.320
99044W        W65453  26.270  43.964   3.403
99045W        W65454  11.290  30.882   1.957
99046W        W65455  12.618   0.149  11.376
99047W        W65456  13.878   7.438   1.844
99048W        W65457  43.743  28.263  11.942
99049W        W65458  20.110  26.042  14.420
99050W        W65459   9.249  26.921   1.885
99051W        W65460  12.615  38.007  10.847
99052W        W65461  11.648   2.933   0.371
99053W        W65462   5.758  16.062   1.361
99054W        W65463  32.907  14.231  10.781
99055W        W65464  24.403  38.435   2.374
99056W        W65465  14.739  12.356   2.410
99057W        W65466  37.830  20.715   0.261
99058W        W65467  34.841  11.898   4.711
99059W        W65468  15.223   7.138   0.242
99060W        W65469   9.034  26.476  13.058
99061W        W65470  40.433  23.720   1.692
99062W        W65471  12.633   1.301   1.067
99063W        W65472  44.932  14.735   4.211
99064W        W65473  42.977  43.703   0.719
99065W        W65474  38.915  20.084   1.886
99066W        W65475  10.276  17.984  11.259
99067W        W65476  11.775  42.469   3.762
99068W        W65477  10.209  11.168  12.934
99069W        W65478  29.051  41.319   0.342
99070W        W65479   7.906   7.354   3.647
99071W        W65480  22.499   7.688   1.458
99072W        W65481   1.524   6.478  10.990
99073W        W65482  26.713  41.060   0.739
99074W        W65483  44.800  33.598   1.726
99075W        W65484  15.419  40.045   4.665
99076W        W65485   0.790  30.225   1.336
99077W        W65486  14.310  43.877  13.569
99078W        W65487   6.815  12.253   3.379
99079W        W65488   8.349  43.995   3.256
99080W        W65489  36.009  35.807   3.568
99081W        W65490   3.473   4.872   0.727
99082W        W65491  19.196  15.374  14.421
99083W        W65492  40.893  36.466   1.666
99084W        W65493   6.408  39.879   1.379
99085W        W65494  27.656  26.463   4.624
99086W        W65495  15.203  24.937   3.958
99087W        W65496  13.284  29.539  14.547
99088W        W65497  23.255  42.645  14.540
99089W        W65498  24.288  40.323  13.984
99090W        W65499  37.004  22.772  10.754
99091W        W65500  25.150  20.511  13.367
99092W        W65501  37.491  28.481   4.694
99093W        W65502  12.761  13.509   0.704
99094W        W65503  16.783   3.295  13.286
99095W        W65504  34.166  12.945  11.582
99096W        W65505  13.256  20.215  12.835
99097W        W65506  36.199  42.995  13.372
99098W        W65507  41.116  31.060   4.350
99099W        W65508   5.407  12.496   1.798
99100W        W65509  26.978  12.071   1.632
99101W        W65510   7.630   1.204   3.330
99102W        W65511  29.495  38.925   5.333
99103W        W65512  34.140  11.164   1.427
99104W        W65513  33.800  23.660  14.090
99105W        W65514  43.895  35.490   3.238
99106W        W65515   3.953  37.383  11.542
99107W        W65516  24.775   1.280   4.606
99108W        W65517  11.198  13.828  12.124
99109W        W65518  21.128  16.240   0.982
99110W        W65519   6.366  39.436   3.620
99111W        W65520  43.872  18.740   4.088
99112W        W65521  41.654   9.316  14.344
99113W        W65522   3.640  37.073  11.883
99114W        W65523  30.692  24.437   1.449
99115W        W65524   0.114  44.499   2.977
99116W        W65525  18.755  27.147   4.234
99117W        W65526  17.056  26.957  10.610
99118W        W65527  37.125  16.992   0.234
99119W        W65528  15.196  26.642  10.713
99120W        W65529  22.813  14.935  12.610
99121W        W65530   2.991  11.382   2.838
99122W        W65531  31.198  34.792  13.710
99123W        W65532  12.184   1.709  13.516
99124W        W65533   5.615  36.001   1.472
99125W        W65534  23.658  44.887  14.493
99126W        W65535  25.649  37.633   0.710
99127W        W65536  36.437  42.368   2.030
99128W        W65537  32.472   0.302  11.556
99129W        W65538  33.730   0.452   1.542
99130W        W65539   4.246  24.587   5.011
99131W        W65540  19.513   8.550  11.887
99132W        W65541  10.654  16.169  11.214
99133W        W65542  29.834  35.767  12.973
99134W        W65543  12.584  41.316  13.038
99135W        W65544  14.494  22.184  12.450
99136W        W65545  38.822   8.681  11.606
99137W        W65546  42.810  36.390  11.452
99138W        W65547  24.974   0.269  10.670
99139W        W65548  30.516  29.552   1.440
99140W        W65549   4.926  11.971   3.668
99141W        W65550  38.871  30.812  11.117
99142W        W65551  28.301  15.332  14.975
99143W        W65552  31.670  35.020  10.765
99144W        W65553  25.082  16.956  12.163
99145W        W65554   3.725  10.041   2.689
99146W        W65555  21.713  21.323  14.073
99147W        W65556  15.246  25.121  12.469
99148W        W65557  27.170  23.571  12.067
99149W        W65558   2.589   4.961   1.940
99150W        W65559  17.648  24.007   2.908
99151W        W65560  16.277  44.959  14.509
99152W        W65561  23.148   5.262   2.805
99153W        W65562  16.316   7.744   4.405
99154W        W65563  16.954  28.370  11.833
99155W        W65564  35.738   3.017  12.102
99156W        W65565  28.287  29.898  14.384
99157W        W65566   4.230  18.533  11.364
99158W        W65567  22.448  42.501  11.832
99159W        W65568  41.854  21.611  13.201
99160W        W65569  20.300  44.282   0.503
99161W        W65570  38.974  19.123  14.127
99162W        W65571   5.765  18.582  10.915
99163W        W65572   1.520   0.712  11.955
99164W        W65573  44.554  44.264  10.371
99165W        W65574  44.910  28.384  12.970
99166W        W65575  11.034  33.073  12.097
99167W        W65576  32.603   3.512   1.788
99168W        W65577  34.360  19.562  12.331
99169W        W65578  25.073  16.331  14.312
99170W        W65579  23.220  22.112  14.930
99171W        W65580  27.958  35.584   4.348
99172W        W65581  40.414  37.864   4.187
99173W        W65582   4.811  34.953   3.182
99174W        W65583  22.300  28.933   0.958
99175W        W65584  13.607  11.212  11.056
99176W        W65585  41.767  32.489  11.983
99177W        W65586   3.663  30.399  11.065
99178W        W65587  17.652  22.533  14.408
99179W        W65588  37.515  30.051  12.108
99180W        W65589   6.055  12.731   9.749
99181W        W65590   2.379  28.952   2.345
99182W        W65591  26.165  24.988  12.074
99183W        W65592   2.616  29.150  11.765
99184W        W65593  24.008  42.411   3.372
99185W        W65594   2.232   9.997  13.041
99186W        W65595  25.048  29.187   5.054
99187W        W65596  43.409  21.098   4.482
99188W        W65597  24.830  24.038  11.957
99189W        W65598   8.323  11.376  12.088
99190W        W65599  34.844  41.219  12.452
99191W        W65600   4.832   4.044  12.040
99192W        W65601  41.514   7.876  12.006
99193W        W65602  14.491   3.992   5.502
99194W        W65603  38.109  20.507   1.644
99195W        W65604   3.916  15.266   0.428
99196W        W65605  44.002   1.490  13.829
99197W        W65606  38.291  34.918   2.247
99198W        W65607  31.212   6.492  10.707
99199W        W65608  33.451   2.730  14.281
99200W        W65609  21.746  18.994  11.101
99201W        W65610  27.073  17.882   2.893
99202W        W65611  38.891  15.246  14.077
99203W        W65612  33.096   1.700   3.715
99204W        W65613  43.727  20.237   1.034
99205W        W65614  37.522  25.558   3.881
99206W        W65615  25.043  40.726   3.304
99207W        W65616  36.675  38.259  13.827
99208W        W65617   9.694  33.831  13.997
99209W        W65618   8.262  16.570   3.152
99210W        W65619  36.892  13.001  14.328
99211W        W65620  44.247   1.025  13.877
99212W        W65621  33.170  32.538  12.463
99213W        W65622  43.302  13.789   1.847
99214W        W65623  11.713   6.840  11.451
99215W        W65624  39.956   0.544   4.045
99216W        W65625  22.987   4.288  10.931
99217W        W65626  38.481  32.238   3.258
99218W        W65627  20.146  13.324   1.000
99219W        W65628  44.040  26.520   3.225
99220W        W65629  28.459  15.325   2.298
99221W        W65630  24.224  34.234  11.253
99222W        W65631  38.851   5.954   0.366
99223W        W65632  41.331  10.612  12.986
99224W        W65633   3.297  10.769   1.402
99225W        W65634  15.757   5.421   3.248
99226W        W65635   2.232  17.305   3.705
99227W        W65636  33.598  38.883   4.604
99228W        W65637   2.119  31.612   0.329
99229W        W65638   4.218  23.038   1.545
99230W        W65639  15.163   7.845   4.594
99231W        W65640   6.145  38.604   2.369
99232W        W65641  34.959  16.612  10.558
99233W        W65642   7.132  30.848   3.640
99234W        W65643  43.523   1.466  11.447
99235W        W65644  25.561  44.246   1.620
99236W        W65645  33.448  30.401   1.134
99237W        W65646   9.360  14.782   4.798
99238W        W65647   4.791  15.416   2.798
99239W        W65648  26.267  35.526   1.657
99240W        W65649  43.510  32.937  13.526
99241W        W65650   2.340  30.615   1.642
99242W        W65651   4.642   3.790   4.549
99243W        W65652  34.887   6.932  14.753
99244W        W65653  39.356  30.416   3.997
99245W        W65654   5.670  44.620   2.820
99246W        W65655  22.047   9.168  10.691
99247W        W65656  34.457  15.255  12.230
99248W        W65657  24.991  19.312  14.161
99249W        W65658  39.611  25.982   1.342
99250W        W65659  38.313  25.313   3.385
99251W        W65660   5.339  25.506  13.816
99252W        W65661  33.960  41.493   3.338
99253W        W65662  13.244  24.774   3.313
99254W        W65663  43.536  24.305  14.431
99255W        W65664  27.100  14.145  13.151
99256W        W65665  34.928  34.077   1.277
99257W        W65666   4.397  29.375  14.855
99258W        W65667  41.225  14.292  12.510
99259W        W65668  14.038  15.362   2.777
99260W        W65669  37.664   0.852  10.538
99261W        W65670  16.304  32.620  12.212
99262W        W65671  37.107  38.986   3.415
99263W        W65672  26.100  30.670  13.550
99264W        W65673  19.615  18.679  10.465
99265W        W65674  27.569  39.214  11.046
99266W        W65675  43.997  43.683  11.394
99267W        W65676  27.679  22.697  10.539
99268W        W65677  30.557  12.347   1.387
99269W        W65678  22.289  12.080  11.944
99270W        W65679   1.045  38.525   1.325
99271W        W65680   8.691  35.621  14.325
99272W        W65681  10.622  20.179   1.243
99273W        W65682  44.315  14.141   1.245
99274W        W65683   8.756  38.168  14.947
99275W        W65684   3.453  28.158   0.473
99276W        W65685   2.294  28.423  10.551
99277W        W65686  42.867   1.172   4.868
99278W        W65687  21.457   1.644   4.429
99279W        W65688  38.106   2.322   4.156
99280W        W65689  34.585  35.595   3.894
99281W        W65690  38.422   2.806   1.768
99282W        W65691  19.224  17.257   4.526
99283W        W65692   6.368  31.140  13.131
99284W        W65693   2.976  20.989   2.779
99285W        W65694  28.920   3.028   4.035
99286W        W65695   5.736  40.253   4.791
99287W        W65696  23.271   8.025   3.683
99288W        W65697  10.915  29.032   4.095
99289W        W65698  22.569  18.614   4.562
99290W        W65699  32.828  12.323   3.794
99291W        W65700  32.092  38.815  14.514
99292W        W65701  42.538  19.317  11.989
99293W        W65702   7.810  30.753   0.436
99294W        W65703  25.743   1.287  11.603
99295W        W65704  14.297   7.218   1.383
99296W        W65705  42.890  27.236   1.869
99297W        W65706  19.123  18.065  11.589
99298W        W65707   8.678   7.839  11.545
99299W        W65708  39.016  15.337  12.099
99300W        W65709  12.851  29.157   0.869
99301W        W65710  18.631  43.139  11.999
99302W        W65711  32.518  42.478  12.409
99303W        W65712  15.741  12.869   4.359
99304W        W65713  27.924  20.932   2.208
99305W        W65714  27.986   7.897   2.696
99306W        W65715  25.238  20.920  12.173
99307W        W65716  17.327  15.535  14.220
99308W        W65717  40.842   8.187  13.118
99309W        W65718  36.298  37.322   0.257
99310W        W65719   4.803  22.509   2.736
99311W        W65720  31.201  19.794   3.558
99312W        W65721  20.928   9.727   4.727
99313W        W65722  41.732   7.842  12.524
99314W        W65723  27.208  17.418   2.714
99315W        W65724   3.920  28.152  14.743
99316W        W65725  10.179  41.168   3.640
99317W        W65726  26.245   1.096  10.907
99318W        W65727  31.524   6.629   1.974
99319W        W65728  16.326  30.442   2.175
99320W        W65729   6.693  23.940  14.788
99321W        W65730  13.334   7.923  12.857
99322W        W65731  43.176   1.911  14.047
99323W        W65732   3.814  36.354   4.572
99324W        W65733  21.107   1.784  11.685
99325W        W65734  23.642  31.182  12.374
99326W        W65735  39.160  18.858   0.958
99327W        W65736  28.474  16.714   0.430
99328W        W65737  23.932  25.782   2.387
99329W        W65738  22.187  23.477   2.861
99330W        W65739  15.171  17.993   2.229
99331W        W65740  38.058  10.042   1.832
99332W        W65741  40.427  29.644   1.772
99333W        W65742  40.820  30.189   2.822
99334W        W65743  38.400   6.624   1.846
99335W        W65744  22.401  23.416  13.114
99336W        W65745  32.965  16.901   4.207
99337W        W65746  18.224  37.057   3.583
99338W        W65747   6.894  40.316  14.886
99339W        W65748  31.626  31.395   1.394
99340W        W65749  10.664  16.822  13.888
99341W        W65750  44.757  37.987   2.264
99342W        W65751  32.468  39.202   2.275
99343W        W65752  27.177  18.325   4.358
99344W        W65753  38.966   1.307  11.243
99345W        W65754  20.532  27.159   4.590
99346W        W65755  21.023  41.022  10.561
99347W        W65756  28.643  32.716   4.642
99348W        W65757   7.740  20.640  14.282
99349W        W65758   5.951  11.892  13.936
99350W        W65759  36.501  23.653  10.596
99351W        W65760   5.510  42.480   4.630
99352W        W65761   1.632   1.199  12.063
99353W        W65762  35.478  21.857  11.138
99354W        W65763  44.297  15.217  13.034
99355W        W65764   8.191  36.762   3.342
99356W        W65765  34.413  33.881   1.930
99357W        W65766   4.463   3.030   1.769
99358W        W65767  11.746  15.542   2.375
99359W        W65768  11.436  17.633   2.811
99360W        W65769  35.176   3.028  12.083
99361W        W65770  21.244  40.801   1.856
99362W        W65771  15.783  33.803   0.221
99363W        W65772  25.441  18.722  13.289
99364W        W65773  26.453  14.132   2.579
99365W        W65774  16.028  41.300   2.408
99366W        W65775  26.919  33.357   3.722
99367W        W65776   0.158  11.354  13.158
99368W        W65777  29.941  12.868   1.932
99369W        W65778  44.931  28.160   1.429
99370W        W65779  29.670  12.850  14.276
99371W        W65780   4.219  20.783   1.820
99372W        W65781  27.581  12.655   2.032
99373W        W65782   7.660   0.966  13.215
99374W        W65783  24.964  18.349   1.047
99375W        W65784  11.048  28.356  11.568
99376W        W65785  25.226  14.302   5.010
99377W        W65786  19.979   5.916   4.204
99378W        W65787  35.420  16.192  10.843
99379W        W65788  34.582  33.452   4.709
99380W        W65789   6.929  20.089  12.258
99381W        W65790  27.435   4.327  12.445
99382W        W65791  18.936   8.960  14.926
99383W        W65792  28.289  33.486   4.534
99384W        W65793  24.217  16.838   2.108
99385W        W65794  36.934   7.662   4.954
99386W        W65795   7.812  11.174   0.956
99387W        W65796  24.926  35.641   2.194
99388W        W65797  18.212  43.260  11.146
99389W        W65798  40.871   2.775   2.323
99390W        W65799  17.040  29.639  12.142
99391W        W65800  10.158   9.356  11.531
99392W        W65801  42.505  29.575  14.257
99393W        W65802  27.098  30.955   2.942
99394W        W65803  42.963  10.833   3.614
99395W        W65804  42.943  25.704   0.757
99396W        W65805  39.862   6.449   1.670
99397W        W65806  14.229  36.254   2.234
99398W        W65807  40.631  22.288  14.315
99399W        W65808  40.324   8.419  10.709
99400W        W65809  10.350  24.909  13.394
99401W        W65810  34.932  22.615   0.866
99402W        W65811  13.761  22.517   1.308
99403W        W65812  33.432  44.887  10.404
99404W        W65813  19.739  19.391   1.714
99405W        W65814  21.664  32.849  11.067
99406W        W65815   2.295  26.380   1.251
99407W        W65816  33.844  38.155   1.273
99408W        W65817  22.675   8.675  11.578
99409W        W65818   1.783  19.578   3.197
99410W        W65819  16.137  36.793  14.968
99411W        W65820  18.005  14.503   4.667
99412W        W65821  19.522  39.641   4.307
99413W        W65822   4.263  16.786  11.263
99414W        W65823  43.033   2.639   0.264
99415W        W65824   4.284  19.177  11.917
99416W        W65825  36.948  14.890   0.272
99417W        W65826   2.041  14.482  14.088
99418W        W65827  10.277  29.483  10.985
99419W        W65828   7.352  37.598  11.055
99420W        W65829   7.501  28.592  12.647
99421W        W65830  39.303  21.505   1.373
99422W        W65831  37.110  35.908  11.708
99423W        W65832  12.546   8.626   2.333
99424W        W65833  32.519  36.549  13.113
99425W        W65834  20.638  14.676  14.385
99426W        W65835  31.010  15.280   3.528
99427W        W65836  27.469  42.770   2.475
99428W        W65837  10.076  35.962  14.949
99429W        W65838  16.801  12.698  14.309
99430W        W65839  31.654   9.676   4.583
99431W        W65840  22.548  24.593   1.785
99432W        W65841  14.125  33.771  13.788
99433W        W65842   8.748  27.789   3.862
99434W        W65843  22.563  33.428   2.129
99435W        W65844  42.544  44.066  13.605
99436W        W65845  14.272  42.421  13.179
99437W        W65846  34.655  27.451  13.356
99438W        W65847   6.224   3.295   0.780
99439W        W65848  41.825   3.781  12.928
99440W        W65849   7.861  33.545   2.210
99441W        W65850  14.047  14.122   4.577
99442W        W65851  28.948  44.223   3.202
99443W        W65852  13.796  24.624  13.264
99444W        W65853  29.102  18.662  12.065
99445W        W65854  39.290  30.931   4.021
99446W        W65855  38.626   5.374   3.697
99447W        W65856  27.450   7.960   2.685
99448W        W65857  23.469  10.173   1.432
99449W        W65858  32.209  37.373  11.933
99450W        W65859  20.096  18.999  12.953
99451W        W65860  26.087   0.330  13.017
99452W        W65861  18.835  32.912   3.543
99453W        W65862  23.195  15.758  11.745
99454W        W65863  13.725  39.777   0.843
99455W        W65864  42.312   0.903  13.998
99456W        W65865  18.306   7.300  14.288
99457W        W65866   9.870  14.761   2.619
99458W        W65867  12.818   1.400   2.726
99459W        W65868  22.261  20.121   4.077
99460W        W65869  20.101  43.236  10.702
99461W        W65870  43.810  16.290   0.649
99462W        W65871   8.829  18.832   2.146
99463W        W65872  13.622  15.728  11.678
99464W        W65873  42.760   8.375   4.927
99465W        W65874  22.606   8.273  11.932
99466W        W65875  41.049  24.152  12.877
99467W        W65876  42.838  32.160   0.349
99468W        W65877   1.204   5.732   4.843
99469W        W65878   4.415  27.143  12.795
99470W        W65879   1.313   9.474   4.071
99471W        W65880   2.706  13.203  13.735
99472W        W65881  17.663  34.638  13.427
99473W        W65882  23.023  30.286   1.106
99474W        W65883  14.918  43.137  13.669
99475W        W65884  27.535  14.677  11.113
99476W        W65885  33.535   3.071   2.668
99477W        W65886   5.159  18.720  11.630
99478W        W65887  36.868   4.828  13.774
99479W        W65888  24.318  35.693   4.919
99480W        W65889  39.911  40.540  14.280
99481W        W65890  15.042  16.160  11.477
99482W        W65891   5.220   5.505  12.036
99483W        W65892  34.903  32.433   4.736
99484W        W65893  19.638  27.545   4.578
99485W        W65894  28.676  23.331   1.922
99486W        W65895  32.015  24.481   4.072
99487W        W65896  13.098  24.010   4.620
99488W        W65897  24.704  27.953   4.634
99489W        W65898  28.243  10.474  12.312
99490W        W65899  20.776   6.105   2.975
99491W        W65900  39.735   9.693   2.604
99492W        W65901   6.187  40.816   3.319
99493W        W65902  33.326  22.625  11.170
99494W        W65903  17.800  24.727   3.540
99495W        W65904  29.185  16.189   3.655
99496W        W65905  41.375   1.002  13.089
99497W        W65906  27.454  20.821  10.961
99498W        W65907  40.098  31.045  13.375
99499W        W65908  32.029  19.793  11.026
99500W        W65909  24.169   8.568  11.205
99501W        W65910  21.119  22.893   1.921
99502W        W65911  41.369  14.297   0.936
99503W        W65912  24.478  11.797   3.906
99504W        W65913  17.660  13.960  13.306
99505W        W65914  42.585  38.727   1.623
99506W        W65915  28.005  12.290   2.730
99507W        W65916  42.328  11.064  14.806
99508W        W65917  39.976  11.546   4.521
99509W        W65918   8.253   3.988  11.349
99510W        W65919  25.623  17.057   3.460
99511W        W65920  31.092  12.155   3.281
99512W        W65921  40.795   4.864  13.854
99513W        W65922  31.132  21.032  11.629
99514W        W65923  33.767  41.114  14.965
99515W        W65924  12.658   9.919  12.950
99516W        W65925  37.031  16.334   0.627
99517W        W65926  19.517  41.863  14.469
99518W        W65927  39.454  30.134   0.252
99519W        W65928  31.245  14.683  11.046
99520W        W65929  20.783  32.060   2.285
99521W        W65930   8.293  16.218  13.084
99522W        W65931   1.740  17.054   1.834
99523W        W65932   4.602  16.528  14.533
99524W        W65933  21.175   3.191   1.118
99525W        W65934  34.103   1.068  11.956
99526W        W65935  40.446  24.758  10.577
99527W        W65936   7.362  40.462   0.662
99528W        W65937  32.868  29.465  12.342
99529W        W65938  14.396  19.585   1.269
99530W        W65939  26.206  29.042   2.835
99531W        W65940  27.361  14.166   1.315
99532W        W65941  27.578  14.184   3.046
99533W        W65942  39.185  36.795   0.858
99534W        W65943  28.617   7.136   4.264
99535W        W65944  36.473  20.235   4.077
99536W        W65945  33.636  12.593  12.088
99537W        W65946  19.903  24.560   4.167
99538W        W65947  14.618  33.931  12.998
99539W        W65948  12.397  15.078   2.764
99540W        W65949  38.704  26.945  14.398
99541W        W65950  44.947   2.972  10.742
99542W        W65951  31.870  35.859   0.949
99543W        W65952  44.550  36.639  11.541
99544W        W65953  21.751  44.418   0.054
99545W        W65954  29.193   5.821  14.882
99546W        W65955   9.918  32.989   3.309
99547W        W65956  27.559  25.463   0.781
99548W        W65957  14.522  21.054  13.442
99549W        W65958  29.911  21.503  11.972
99550W        W65959   1.731  37.947   3.838
99551W        W65960  19.611   2.622   1.328
99552W        W65961  42.581   4.730  12.531
99553W        W65962  31.629   1.512  10.818
99554W        W65963  15.532  44.942  12.608
99555W        W65964  12.798   7.586   1.909
99556W        W65965  43.748   1.715  11.057
99557W        W65966   2.677  13.451   3.461
99558W        W65967  43.242  36.385  11.712
99559W        W65968   2.754  42.523  14.805
99560W        W65969  44.069  24.211  13.774
99561W        W65970  36.489   8.717   0.477
99562W        W65971   8.829  18.855  11.811
99563W        W65972  31.426  34.588   4.482
99564W        W65973   3.752  32.930  12.079
99565W        W65974  25.121  13.779  13.995
99566W        W65975  43.835  37.452  11.181
99567W        W65976  31.609   5.925   3.275
99568W        W65977  14.857  37.165   4.402
99569W        W65978  35.429   4.473  13.112
99570W        W65979  14.053  10.452   3.267
99571W        W65980   9.041  36.815   3.607
99572W        W65981  35.776  24.764   2.124
99573W        W65982  10.111  11.513   2.556
99574W        W65983  33.338  11.438  11.527
99575W        W65984  17.566   9.526  14.902
99576W        W65985   4.919  15.814  13.571
99577W        W65986  29.595   8.749  14.594
99578W        W65987  15.880  35.047  11.093
99579W        W65988  23.668  29.970   1.250
99580W        W65989  12.134  31.699   2.338
99581W        W65990  22.554  39.516  11.889
99582W        W65991   9.953  39.625  13.809
99583W        W65992   9.675  10.925  12.071
99584W        W65993   7.841  24.198  11.928
99585W        W65994   8.804  22.053   2.776
99586W        W65995  30.604  19.754  12.573
99587W        W65996  30.610  16.146   2.006
99588W        W65997  15.235  15.778   3.100
99589W        W65998  18.543   4.511  14.371
99590W        W65999  14.919   0.045   2.344
99591W        W66000   1.886  43.475  14.968
99592W        W66001  43.257  32.461  13.505
99593W        W66002   6.546   7.054  11.174
99594W        W66003  20.552   3.887  13.157
99595W        W66004   3.639   0.428  13.347
99596W        W66005  15.101  11.650  11.082
99597W        W66006   0.904   2.650   0.589
99598W        W66007  21.258  43.998   2.096
99599W        W66008  39.854  26.116  10.792
99600W        W66009  24.630  23.853  10.686
99601W        W66010  38.482   7.259  13.471
99602W        W66011  23.314  38.571   1.886
99603W        W66012  17.681  43.963  11.608
99604W        W66013  32.317   3.280  12.516
99605W        W66014  26.236  13.551   4.272
99606W        W66015  31.440   2.732  12.490
99607W        W66016  42.385   4.264   2.326
99608W        W66017  26.199  19.227   4.340
99609W        W66018   7.032  22.665  11.301
99610W        W66019  11.836  15.829   0.481
99611W        W66020  39.903   0.912  12.474
99612W        W66021  33.451   7.318  11.949
99613W        W66022   3.131  31.457   1.984
99614W        W66023  24.436   1.871   2.757
99615W        W66024  41.061  43.457   4.082
99616W        W66025  37.495  31.345  11.140
99617W        W66026  11.324   8.525  11.100
99618W        W66027  20.551   8.552  13.272
99619W        W66028  21.622  21.273   4.959
99620W        W66029  31.236   5.700  11.859
99621W        W66030  36.431  19.964   0.965
99622W        W66031  44.229  24.695  14.948
99623W        W66032  12.974   0.460   2.909
99624W        W66033  16.280  44.522   2.002
99625W        W66034  26.075   4.331  11.584
99626W        W66035   0.726   6.952   0.495
99627W        W66036  38.225  15.050  10.689
99628W        W66037  37.327  36.436  13.924
99629W        W66038  21.182  21.059   3.135
99630W        W66039  22.115   2.291  11.157
99631W        W66040  43.349   2.840  12.499
99632W        W66041   4.988  22.908  11.663
99633W        W66042   2.549  42.239   0.202
99634W        W66043  36.982   2.011   0.514
99635W        W66044  28.296  37.271  11.518
99636W        W66045  22.936  15.483  12.588
99637W        W66046  22.681  40.834   2.943
99638W        W66047   7.601  14.224   2.010
99639W        W66048  27.130  16.796  14.961
99640W        W66049   4.454  30.401   1.020
99641W        W66050   2.775  28.128  11.450
99642W        W66051  21.493  23.987   4.699
99643W        W66052  18.705  12.300   4.178
99644W        W66053  38.646  17.234  12.963
99645W        W66054  25.981  22.547   1.706
99646W        W66055  20.881  43.285   1.486
99647W        W66056  17.563   7.197  10.641
99648W        W66057  35.002   3.257   0.981
99649W        W66058   7.842  15.337  13.861
99650W        W66059  14.426  37.563  14.967
99651W        W66060  18.113  15.692   0.318
99652W        W66061   0.005   2.891   2.659
99653W        W66062  37.778  21.997  11.534
99654W        W66063   3.442  43.753  13.499
99655W        W66064   7.929   0.831   2.382
99656W        W66065  36.409  37.658   1.666
99657W        W66066  16.547  39.062  14.405
99658W        W66067  35.063  10.466   2.890
99659W        W66068  39.696   6.226  13.024
99660W        W66069   4.869  20.066   0.269
99661W        W66070  27.575  31.831   4.123
99662W        W66071   4.222  11.791   1.344
99663W        W66072  22.157  12.229   1.853
99664W        W66073  42.783  40.512   3.901
99665W        W66074   5.679  37.022  11.252
99666W        W66075  10.831  28.733   2.811
99667W        W66076  20.560  12.715  10.803
99668W        W66077   3.267   9.677  11.055
99669W        W66078   7.559  41.794  11.582
99670W        W66079  10.835   9.393   3.341
99671W        W66080  44.850  44.464   2.007
99672W        W66081  24.671  17.209  10.971
99673W        W66082  23.552  23.184   2.666
99674W        W66083  18.664   3.048  12.549
99675W        W66084  14.381  34.516   2.781
99676W        W66085  15.300  15.799  12.627
99677W        W66086  29.512   8.737  11.555
99678W        W66087  25.510  26.655  14.553
99679W        W66088   4.403  20.016   2.387
99680W        W66089  19.619   2.238  10.639
99681W        W66090  41.499   0.895   4.523
99682W        W66091  26.005   7.342  10.701
99683W        W66092  32.797   8.357  12.446
99684W        W66093  37.036  20.621   3.286
99685W        W66094  36.779  16.298  12.731
99686W        W66095  44.901  16.490  14.879
99687W        W66096  37.011  39.587  13.851
99688W        W66097   9.405  13.857  13.882
99689W        W66098  28.423  38.726  12.102
99690W        W66099  38.372   1.861  11.235
99691W        W66100  29.335  43.054  13.316
99692W        W66101  21.608  11.473  13.915
99693W        W66102  15.737  12.651  13.109
99694W        W66103  34.370  37.629   3.940
99695W        W66104  29.967  20.182   3.853
99696W        W66105   4.395  18.456   0.787
99697W        W66106  28.922  38.842  11.998
99698W        W66107  23.152  33.140   3.625
99699W        W66108   0.977  14.238  14.401
99700W        W66109  33.098  19.610   3.681
99701W        W66110   3.414   5.122  12.681
99702W        W66111   6.615  17.322   4.188
99703W        W66112  22.398  43.462   0.502
99704W        W66113  38.321   1.958  13.986
99705W        W66114   2.746   2.770  13.060
99706W        W66115  25.659  17.331  12.854
99707W        W66116  44.009  43.315   2.672
99708W        W66117  11.279  37.442   2.455
99709W        W66118   7.921  28.776  11.495
99710W        W66119   1.098  32.005  10.343
99711W        W66120  41.367  33.160   4.535
99712W        W66121  32.839   8.706  11.597
99713W        W66122  25.795  24.369   3.753
99714W        W66123  10.599  18.668   0.476
99715W        W66124   1.333  38.820   1.649
99716W        W66125  35.440  22.231   3.269
99717W        W66126  16.016  41.920   5.006
99718W        W66127  44.094  41.420   0.338
99719W        W66128  37.329  41.541  14.838
99720W        W66129   3.228  32.489  14.834
99721W        W66130   2.987  40.383  12.120
99722W        W66131  33.662  31.459  13.933
99723W        W66132  35.006  14.540   1.330
99724W        W66133  36.203  17.688   3.662
99725W        W66134  11.264   9.944  10.655
99726W        W66135  31.963  24.132  14.764
99727W        W66136   6.698  11.805  12.193
99728W        W66137  27.906  16.679   0.887
99729W        W66138  25.036  19.446   1.901
99730W        W66139  20.778   7.286  12.922
99731W        W66140  17.616  13.073   3.633
99732W        W66141  40.506   9.457   2.773
99733W        W66142  13.878  15.049  12.892
99734W        W66143  14.832  27.736  12.504
99735W        W66144  38.834  28.188  14.998
99736W        W66145  16.117  25.398  11.971
99737W        W66146  10.788  36.464  12.012
99738W        W66147   8.668  14.753   4.224
99739W        W66148   5.766  28.230  12.467
99740W        W66149  36.220   3.240  12.094
99741W        W66150  37.153   2.278   4.607
99742W        W66151  23.100  17.316  14.887
99743W        W66152  22.266  29.300  13.830
99744W        W66153  22.893  42.592   0.201
99745W        W66154  13.801  39.937   0.327
99746W        W66155  17.760  17.770   4.001
99747W        W66156   4.541  18.293  14.911
99748W        W66157  28.433  19.142   1.979
99749W        W66158   8.707   0.716   2.849
99750W        W66159  43.716  22.582  14.508
99751W        W66160  28.693  38.910   4.270
99752W        W66161   6.849   6.881   2.293
99753W        W66162  19.843  22.535  13.340
99754W        W66163  41.543   0.943   0.745
99755W        W66164  26.891   3.485   0.974
99756W        W66165  24.421  14.723   3.776
99757W        W66166   3.512   6.795   4.528
99758W        W66167  20.580   0.297   2.707
99759W        W66168  41.533  43.759   1.722
99760W        W66169  26.046  25.016   1.400
99761W        W66170  10.162  17.747   3.212
99762W        W66171   9.539  19.151  11.594
99763W        W66172  25.072   7.836   3.368
99764W        W66173  11.699  37.666   0.752
99765W        W66174  35.458  38.614  11.487
99766W        W66175   1.249  19.739  11.672
99767W        W66176   6.673  30.731   0.214
99768W        W66177  32.042   1.874   3.738
99769W        W66178  26.630  26.294   3.218
99770W        W66179  39.951  24.322  14.319
99771W        W66180  28.208   7.428  11.929
99772W        W66181   1.184   4.910   3.165
99773W        W66182  16.315  37.489  13.090
99774W        W66183  24.003  41.603  14.788
99775W        W66184  11.770  16.694   3.094
99776W        W66185  34.475   9.421   4.643
99777W        W66186  14.246  39.525   4.085
99778W        W66187  35.987  37.976  13.567
99779W        W66188  28.882  25.501  12.910
99780W        W66189  19.782  26.788  11.417
99781W        W66190   1.938   8.309  12.701
99782W        W66191   0.936  26.777  14.783
99783W        W66192  13.585  20.081   3.220
99784W        W66193  13.209   0.456  12.050
99785W        W66194   2.923   9.825  13.019
99786W        W66195  44.749   9.990  14.423
99787W        W66196  44.178  34.434  14.804
99788W        W66197  31.407  35.530  11.025
99789W        W66198  36.659  18.036   4.997
99790W        W66199   7.424  44.141   1.824
99791W        W66200  17.725  12.827  12.417
99792W        W66201  28.446   4.629   5.250
99793W        W66202  16.126   0.043  11.955
99794W        W66203  32.417  17.166  13.050
99795W        W66204  12.179  37.632  10.600
99796W        W66205  13.187  16.292   4.864
99797W        W66206   6.730  35.643  12.469
99798W        W66207  30.876  27.211   1.639
99799W        W66208  14.613  38.862   3.085
99800W        W66209  13.316   3.185   3.112
99801W        W66210   1.619  26.149   4.452
99802W        W66211  31.119  10.967  13.145
99803W        W66212  28.153  11.664   1.493
99804W        W66213  34.463  44.755   4.755
99805W        W66214  38.146  15.649   3.718
99806W        W66215  33.089  21.465  10.638
99807W        W66216  12.876  13.609  13.340
99808W        W66217   9.623  30.936  10.313
99809W        W66218   6.927   0.389  10.885
99810W        W66219  12.242   5.211  12.175
99811W        W66220   7.809  14.181  13.399
99812W        W66221  28.470  12.697  14.413
99813W        W66222  35.557   5.203  14.959
99814W        W66223   5.480  16.805   0.774
99815W        W66224  16.755  10.416  11.989
99816W        W66225  11.437  35.569   3.866
99817W        W66226  35.049   6.586   0.803
99818W        W66227  11.128  26.403   4.144
99819W        W66228  37.964  22.468  11.590
99820W        W66229  40.149  32.009  13.959
99821W        W66230  15.308  18.117  14.909
99822W        W66231   2.605  24.001  13.881
99823W        W66232  29.447   8.692   1.773
99824W        W66233  24.487  33.019  10.706
99825W        W66234  31.064  22.667   2.970
99826W        W66235  10.397   5.892   2.878
99827W        W66236  11.197   5.164   0.308
99828W        W66237  20.098  18.724   1.991
99829W        W66238  18.052  16.596   1.312
99830W        W66239  15.528  42.579  14.366
99831W        W66240   9.786  10.281   2.568
99832W        W66241  16.098  30.972   4.091
99833W        W66242   2.247  38.952  12.953
99834W        W66243  42.900  40.796  13.478
99835W        W66244  18.355  10.245   3.089
99836W        W66245   4.312  27.361  11.947
99837W        W66246  37.107  23.166   0.840
99838W        W66247  31.218   5.767   4.186
99839W        W66248  39.859  11.341  12.391
99840W        W66249   3.440  44.742  13.336
99841W        W66250  17.171  17.092  14.575
99842W        W66251   1.801  37.012   3.638
99843W        W66252  31.544   8.233   3.391
99844W        W66253  35.258  18.979   2.824
99845W        W66254  12.629   6.115   1.455
99846W        W66255   0.904  23.999   1.295
99847W        W66256  33.321  35.842   1.438
99848W        W66257  25.029  23.968   4.126
99849W        W66258  24.418   1.470  14.004
99850W        W66259  19.292  25.928  14.044
99851W        W66260  36.752   6.698   4.639
99852W        W66261  25.513  41.031  14.203
99853W        W66262  38.910  39.969   0.928
99854W        W66263  44.510  21.310  10.812
99855W        W66264  44.969  28.555   2.390
99856W        W66265   7.625   8.776   1.420
99857W        W66266   0.002  15.577   4.067
99858W        W66267   9.832  35.480   0.604
99859W        W66268  36.844  31.869  12.384
99860W        W66269   7.945  30.658  10.796
99861W        W66270  44.595  11.691  12.580
99862W        W66271  21.680  15.127   0.268
99863W        W66272  30.017  32.623   0.953
99864W        W66273  26.301  43.697   0.477
99865W        W66274   1.994  24.283  11.533
99866W        W66275  21.501  13.300   0.390
99867W        W66276  34.117   6.298   3.302
99868W        W66277  43.926  40.292   2.504
99869W        W66278  13.011   7.182   4.939
99870W        W66279  31.080  40.547   2.015
99871W        W66280  19.706  11.051  14.549
99872W        W66281   4.860  18.093  13.632
99873W        W66282  29.900  42.302  11.507
99874W        W66283   1.773   3.695   3.416
99875W        W66284  35.876  15.610   1.941
99876W        W66285   6.945   4.390   2.624
99877W        W66286  41.362  29.576  13.370
99878W        W66287  36.378   8.175  12.904
99879W        W66288  42.057  26.356  13.483
99880W        W66289  28.516  14.345   3.228
99881W        W66290   6.436  17.773  12.660
99882W        W66291  34.040  35.249   1.094
99883W        W66292  41.369  32.024   1.998
99884W        W66293  15.801  11.818   3.201
99885W        W66294  30.431  41.296  13.946
99886W        W66295  44.525   8.144   1.175
99887W        W66296  37.968  20.511   2.146
99888W        W66297  25.274  30.061  13.768
99889W        W66298  22.397  17.215  11.250
99890W        W66299  25.014  32.667   1.307
99891W        W66300  14.282   8.197   4.237
99892W        W66301  19.005  13.272  11.181
99893W        W66302   8.381  18.206  12.070
99894W        W66303   8.998  12.529  11.288
99895W        W66304  23.674   7.289  10.603
99896W        W66305  10.212  23.068  12.243
99897W        W66306  28.193   1.455  11.641
99898W        W66307  32.492  18.525   4.632
99899W        W66308  19.128   7.344   0.624
99900W        W66309  42.280  14.339   4.536
99901W        W66310   8.351   0.772  13.012
99902W        W66311  33.851  15.510  14.820
99903W        W66312  12.884  23.523  13.910
99904W        W66313  13.608  12.234  11.829
99905W        W66314  39.531   0.887  14.203
99906W        W66315   2.023  32.367  12.183
99907W        W66316  16.807  20.027  14.119
99908W        W66317  18.685  11.281   3.726
99909W        W66318  24.988  37.506  13.936
99910W        W66319  41.089  39.596  13.303
99911W        W66320  35.071  15.018   0.346
99912W        W66321  24.412  43.774  11.558
99913W        W66322   1.033  21.851   4.561
99914W        W66323  36.613  28.465  14.965
99915W        W66324   3.322  18.192  11.001
99916W        W66325  35.553   7.615  13.867
99917W        W66326  11.666  25.941  10.630
99918W        W66327  22.145  22.912  13.788
99919W        W66328   2.397  10.482  12.041
99920W        W66329  39.402  24.621  13.359
99921W        W66330  42.670  13.567  13.128
99922W        W66331  41.565  11.015   0.220
99923W        W66332  17.789  43.528  14.382
99924W        W66333  28.132  39.099   0.886
99925W        W66334  12.730  13.663  13.828
99926W        W66335   3.035  22.586  11.117
99927W        W66336  38.043  39.764   2.358
99928W        W66337   0.716   1.420   3.731
99929W        W66338  31.640  34.934  13.478
99930W        W66339  34.846  16.954   2.746
99931W        W66340  27.603   3.427   0.329
99932W        W66341  21.304  20.695   2.792
99933W        W66342   9.631  42.857  11.468
99934W        W66343  41.000  15.203   1.944
99935W        W66344  43.702  19.784   2.663
99936W        W66345   9.679   3.745  13.479
99937W        W66346  38.017  32.701  14.789
99938W        W66347  32.781  19.792   0.749
99939W        W66348  19.244   6.302   0.862
99940W        W66349  41.486   5.994  11.420
99941W        W66350  33.423  13.630   3.223
99942W        W66351  10.142  37.398   9.914
99943W        W66352  16.230  11.807  11.097
99944W        W66353  32.138   5.855  13.906
99945W        W66354  26.065  39.220   3.772
99946W        W66355   3.620  43.675  14.847
99947W        W66356  20.094  43.850  14.300
99948W        W66357  41.809  26.949  10.645
99949W        W66358  17.170   3.078  12.069
99950W        W66359  18.702  20.828  10.246
99951W        W66360  16.648  19.300  14.715
99952W        W66361  37.405  22.465  10.954
99953W        W66362  32.742  38.217  14.775
99954W        W66363  27.497  34.684   0.152
99955W        W66364  13.757   3.664   2.832
99956W        W66365  44.393   3.975   3.100
99957W        W66366   1.553  12.864  13.490
99958W        W66367  23.644  10.659   0.433
99959W        W66368  18.224   6.653   1.825
99960W        W66369  25.452   1.958  13.327
99961W        W66370  32.670  33.463   2.365
99962W        W66371  14.117  12.834   2.806
99963W        W66372   9.158  16.781   3.288
99964W        W66373   2.973  33.627   1.853
99965W        W66374  38.137  19.417  10.930
99966W        W66375  18.614  12.740   2.133
99967W        W66376  30.973  38.824   1.356
99968W        W66377   2.831  41.896   4.062
99969W        W66378  18.761  19.890  11.194
99970W        W66379  14.290  12.952   1.924
99971W        W66380  10.169  42.350   1.398
99972W        W66381  12.919   8.707  12.910
99973W        W66382   9.346  24.492   3.521
99974W        W66383  22.125  12.393  14.005
99975W        W66384  35.369  21.926  13.523
99976W        W66385  20.051  19.555   5.088
99977W        W66386  23.535  39.670  12.509
99978W        W66387   1.354  14.108   1.303
99979W        W66388  10.788   2.029  12.510
99980W        W66389  15.509  12.217  14.448
99981W        W66390   7.570  17.255  11.676
99982W        W66391  15.585  34.343   3.236
99983W        W66392  39.575   8.253   1.389
99984W        W66393   5.035  16.686  13.555
99985W        W66394   2.994  20.217   2.096
99986W        W66395   5.328  13.367   4.948
99987W        W66396   0.604  19.594  13.940
99988W        W66397  42.349  18.686   1.325
99989W        W66398  43.203   4.669   2.204
99990W        W66399   0.861  13.314   4.513
99991W        W66400  32.337  36.002  12.484
99992W        W66401  24.006   0.373  10.227
99993W        W66402  28.143  27.941  12.986
99994W        W66403  32.427  25.346  11.536
99995W        W66404   9.766  24.165  12.561
99996W        W66405  30.106  35.869   4.269
99997W        W66406  19.542  30.621  10.320
99998W        W66407  36.018  39.546   4.126
99999W        W66408  33.085  27.232   2.507
    0W        W66409   8.744  29.530   2.126
    1W        W66410   5.828  13.667  11.878
    2W        W66411  13.844  34.273  10.243
    3W        W66412   4.212  22.740   0.242
    4W        W66413  30.915  12.459  13.409
    5W        W66414   7.836  35.493   1.669
    6W        W66415  19.027  35.577   2.383
    7W        W66416   1.137  44.534   3.547
    8W        W66417  40.700   6.394   4.647
    9W        W66418   9.797   9.796   3.334
   10W        W66419  20.352  28.261  13.484
   11W        W66420   8.341  41.699   1.819
   12W        W66421  41.298   1.010  14.852
   13W        W66422  30.926   4.460   3.690
   14W        W66423  38.998  18.146   2.412
   15W        W66424  39.355  17.635  14.290
   16W        W66425  39.452  37.458   4.117
   17W        W66426  18.607   8.331   4.716
   18W        W66427  13.198  20.218  10.611
   19W        W66428  37.411   9.770  14.896
   20W        W66429   9.289   5.969   1.331
   21W        W66430  33.350  29.994   2.269
   22W        W66431  25.589   0.046   3.158
   23W        W66432  31.150  13.360  13.445
   24W        W66433  17.257  20.589  11.200
   25W        W66434  13.091  27.530  14.335
   26W        W66435  31.007  29.413  12.603
   27W        W66436  41.105  26.544  10.568
   28W        W66437   4.102  26.660  11.955
   29W        W66438  29.477  26.151  11.129
   30W        W66439   6.680  27.598  14.473
   31W        W66440  16.331  14.024   1.768
   32W        W66441  15.055  22.069   0.712
   33W        W66442  22.601   7.780  11.166
   34W        W66443  12.760  22.573   3.636
   35W        W66444   3.874  25.223  12.405
   36W        W66445  40.299  30.145   1.364
   37W        W66446  36.580   5.256  14.827
   38W        W66447  27.460  10.810  13.399
   39W        W66448  28.587  38.828   4.796
   40W        W66449  38.800  42.377  11.224
   41W        W66450  36.539  33.443  12.899
   42W        W66451  32.782  23.728  13.859
   43W        W66452   3.335  12.997  13.089
   44W        W66453   3.290  19.811  12.992
   45W        W66454  14.186  21.773  13.965
   46W        W66455  13.750  43.836  10.677
   47W        W66456  44.886  24.711  13.646
   48W        W66457  10.830   1.869   2.144
   49W        W66458  36.050  39.443   0.706
   50W        W66459  13.622   7.767   4.615
   51W        W66460  30.892  18.646  12.933
   52W        W66461  11.341  38.627   0.229
   53W        W66462  16.748  30.633   3.624
   54W        W66463  19.139  27.940   3.202
   55W        W66464  25.253  34.431   4.606
   56W        W66465  33.065  38.983   9.877
   57W        W66466  33.441   8.359   3.874
   58W        W66467   6.210   8.774  13.903
   59W        W66468  32.981  22.986  14.567
   60W        W66469  37.493  24.241   3.265
   61W        W66470   7.314   8.221   2.010
   62W        W66471   7.348  34.892   2.707
   63W        W66472  17.486  28.982  13.877
   64W        W66473  12.006  32.665  14.488
   65W        W66474  42.867  13.749  10.845
   66W        W66475  37.899  40.679   2.958
   67W        W66476  25.202  35.870   0.738
   68W        W66477  26.801  36.366   1.863
   69W        W66478  23.799   7.833   4.555
   70W        W66479  10.767  42.584  13.870
   71W        W66480  33.863  27.103   1.408
   72W        W66481  17.129  22.263   2.254
   73W        W66482  41.033  18.607  12.500
   74W        W66483  25.837  26.259  11.529
   75W        W66484  28.224  27.194   3.343
   76W        W66485  22.187  13.109  10.421
   77W        W66486  20.530  24.654  14.671
   78W        W66487   2.387  24.727  13.292
   79W        W66488  36.066   2.472   4.445
   80W        W66489   4.859  25.149  14.376
   81W        W66490  10.903  37.640   5.064
   82W        W66491  33.086  12.129  14.274
   83W        W66492  29.146  34.000  13.793
   84W        W66493  37.209  44.570   2.138
   85W        W66494  34.436  39.304   1.466
   86W        W66495  41.519  10.118   0.765
   87W        W66496   8.928  23.614   4.019
   88W        W66497  17.141   2.720  11.156
   89W        W66498  16.868  24.006   3.432
   90W        W66499  14.601  33.872  14.754
   91W        W66500  32.582  35.510  10.621
   92W        W66501  23.747  44.999   2.302
   93W        W66502  44.697  35.459   1.237
   94W        W66503  20.779   5.339  11.199
   95W        W66504  13.292  21.686   2.340
   96W        W66505  21.048   2.764  11.613
   97W        W66506  33.653   6.557   1.230
   98W        W66507  38.795  17.913   0.793
   99W        W66508   1.703  34.199   2.158
  100W        W66509  38.980   6.624   1.487
  101W        W66510   5.998  27.620  14.937
  102W        W66511  16.224  42.950  13.890
  103W        W66512  34.698  24.943  14.857
  104W        W66513  14.022  38.341  12.864
  105W        W66514  11.875  21.224   4.674
  106W        W66515  34.869   6.695  10.137
  107W        W66516  29.841  24.269   1.903
  108W        W66517  38.369  24.903  11.590
  109W        W66518  37.234  25.157   2.000
  110W        W66519  12.655  15.881   1.736
  111W        W66520  42.229  34.199  14.526
  112W        W66521  13.615  43.487  14.013
  113W        W66522  43.793  35.831  13.286
  114W        W66523   9.874  43.891   3.703
  115W        W66524  15.614  36.770   0.846
  116W        W66525  19.067  34.572   2.264
  117W        W66526   8.438  24.135   3.071
  118W        W66527   9.099  35.509  13.581
  119W        W66528  23.723  28.636  13.356
  120W        W66529  13.856  40.522   2.421
  121W        W66530  16.650  30.188   3.893
  122W        W66531  29.769  15.492  14.363
  123W        W66532  14.122  37.967  13.857
  124W        W66533  29.137  36.869   2.307
  125W        W66534  29.118  42.521   2.775
  126W        W66535   6.782  33.664   1.273
  127W        W66536  18.130  35.135   3.707
  128W        W66537  35.582  21.722  10.615
  129W        W66538  15.537   4.664  10.821
  130W        W66539   7.441  18.198  12.130
  131W        W66540  17.453  11.933   1.941
  132W        W66541  26.082  37.843   3.370
  133W        W66542  30.161  37.620  13.336
  134W        W66543   8.387  17.238   4.682
  135W        W66544   2.041  36.041  11.483
  136W        W66545   5.020  33.789   5.042
  137W        W66546  33.046  43.497  11.550
  138W        W66547  37.831  18.730  11.673
  139W        W66548  36.447  44.145   2.370
  140W        W66549   2.240   0.831  11.165
  141W        W66550  15.068  29.971  13.347
  142W        W66551  44.440  18.283   3.313
  143W        W66552  25.670  24.737  11.985
  144W        W66553  25.627  41.406  10.951
  145W        W66554  10.154  22.882  14.927
  146W        W66555  20.713  27.471  12.145
  147W        W66556  24.231  28.604   2.130
  148W        W66557  43.350   0.784  14.475
  149W        W66558  14.376   9.799  13.424
  150W        W66559  18.544  36.185  10.063
  151W        W66560  26.689  29.611   0.283
  152W        W66561  17.791  12.323   2.824
  153W        W66562  38.749  39.794   0.473
  154W        W66563  26.007  41.204   3.166
  155W        W66564   4.957  38.089   2.868
  156W        W66565  30.114   7.910  12.598
  157W        W66566  16.786  28.187   3.409
  158W        W66567  17.273  12.244   3.794
  159W        W66568  27.031   0.280  13.375
  160W        W66569  14.669  13.021  11.152
  161W        W66570  35.174   4.482   0.292
  162W        W66571  43.592  21.965   0.195
  163W        W66572  37.288   0.701  12.388
  164W        W66573  25.363  11.581  12.369
  165W        W66574  32.350   2.254  13.030
  166W        W66575  33.358   8.178  14.436
  167W        W66576  24.518  43.851   4.670
  168W        W66577  16.688  42.967  12.071
  169W        W66578  34.520  42.596   4.514
  170W        W66579  25.066   8.139  10.164
  171W        W66580  10.623  18.819  14.985
  172W        W66581  40.138  19.463   3.231
  173W        W66582  44.911  19.070  13.827
  174W        W66583  37.854  36.841  13.463
  175W        W66584   5.917  35.013   0.170
  176W        W66585  17.626  19.136  14.917
  177W        W66586  44.442  33.939  14.528
  178W        W66587  42.955   2.685  10.803
  179W        W66588  29.924  35.849  12.068
  180W        W66589   8.343  18.655  10.714
  181W        W66590   7.642  16.834  10.643
  182W        W66591  25.130  17.403  11.176
  183W        W66592  23.412  44.220  12.419
  184W        W66593   9.781  27.118   3.345
  185W        W66594  19.771  36.505  12.257
  186W        W66595  14.735  14.078  14.914
  187W        W66596  28.602   7.949   1.744
  188W        W66597  12.866  30.901   2.461
  189W        W66598   5.523  39.949  10.906
  190W        W66599   6.618  21.972   5.199
  191W        W66600  31.871  17.385  11.957
  192W        W66601  18.268  20.849   4.050
  193W        W66602   0.926  27.560   2.301
  194W        W66603  20.785  22.502   3.616
  195W        W66604  24.990  12.369   2.298
  196W        W66605  42.300   2.034  14.534
  197W        W66606  25.440  36.858  13.516
  198W        W66607  35.566  15.210  10.661
  199W        W66608  20.353  30.987   4.091
  200W        W66609  25.637  36.139   4.616
  201W        W66610  21.036  43.769   1.440
  202W        W66611  10.342   8.667   1.340
  203W        W66612  12.742  33.227  14.046
  204W        W66613   7.825  14.258   2.963
  205W        W66614   2.661   4.205   0.313
  206W        W66615   5.932   7.695   0.436
  207W        W66616   9.290  19.733   3.225
  208W        W66617  29.399  26.712  10.542
  209W        W66618  19.040  16.147  13.904
  210W        W66619  22.159  26.231  14.608
  211W        W66620  35.371  39.492   4.773
  212W        W66621  40.199   4.469  10.893
  213W        W66622  30.848  34.008  14.604
  214W        W66623  16.300  25.857  12.106
  215W        W66624  26.229  28.938  14.798
  216W        W66625  38.194  36.964  13.845
  217W        W66626  30.742   4.250   4.804
  218W        W66627  42.826   7.407  14.032
  219W        W66628   0.903  44.071  14.631
  220W        W66629  29.911  39.437  13.932
  221W        W66630  44.866  18.316  12.985
  222W        W66631  15.815  27.404  10.407
  223W        W66632  21.437  32.059   3.981
  224W        W66633  13.439  43.855   3.154
  225W        W66634  30.853  25.505  13.039
  226W        W66635  16.613  36.552  10.292
  227W        W66636   6.882  41.994  13.429
  228W        W66637  40.822  33.340  14.937
  229W        W66638  12.607  39.784   3.206
  230W        W66639  15.830  43.852  11.572
  231W        W66640  23.120  28.675  10.714
  232W        W66641  22.579  22.516  11.390
  233W        W66642  24.203  34.308   0.436
  234W        W66643  26.506  15.101  12.495
  235W        W66644  44.023   1.541   2.935
  236W        W66645  32.578  17.980   2.404
  237W        W66646  41.778  16.696   0.833
  238W        W66647  15.007  15.608   2.633
  239W        W66648  33.427  28.776   1.836
  240W        W66649  12.382   5.407  14.781
  241W        W66650  19.907  25.034  10.835
  242W        W66651  27.106  28.609   4.703
  243W        W66652  37.014  35.344   1.918
  244W        W66653  33.584  34.074   3.395
  245W        W66654   3.779   9.124   2.548
  246W        W66655  42.411  17.827  10.647
  247W        W66656   4.704   5.906  12.572
  248W        W66657  28.096   0.593   0.763
  249W        W66658  39.115  37.231  10.670
  250W        W66659  29.107   8.377   3.072
  251W        W66660  20.122  42.308  11.116
  252W        W66661  12.733  38.379   2.331
  253W        W66662  30.168  22.053   0.469
  254W        W66663  44.446  12.685  14.025
  255W        W66664  26.987  10.378   3.733
  256W        W66665   1.339  27.169  13.691
  257W        W66666  25.116   9.594   3.682
  258W        W66667  30.154  22.114  12.548
  259W        W66668  16.336  41.377  10.586
  260W        W66669  29.233  19.694   4.199
  261W        W66670   9.829   4.147  14.349
  262W        W66671  21.490   6.070   2.443
  263W        W66672  34.457  28.004   3.345
  264W        W66673  15.537  13.174  11.287
  265W        W66674  39.122  39.494   2.871
  266W        W66675  41.360  37.828   2.411
  267W        W66676   9.040  15.887   4.141
  268W        W66677  32.565  40.441   4.506
  269W        W66678   7.571  33.927   4.471
  270W        W66679  30.412  20.741  11.550
  271W        W66680  23.668  37.098   3.626
  272W        W66681   2.809   3.640   4.273
  273W        W66682  25.785  34.591   2.224
  274W        W66683  19.184  11.152   4.641
  275W        W66684   1.719   6.196   2.656
  276W        W66685  23.669  18.817   2.284
  277W        W66686  25.255  20.822   1.602
  278W        W66687  29.696  11.647  10.324
  279W        W66688  32.451   6.843  10.724
  280W        W66689  32.534   0.897  14.769
  281W        W66690  22.051  30.258   4.844
  282W        W66691  24.746   3.824  12.431
  283W        W66692  13.118  11.063   2.587
  284W        W66693  18.204  38.104   1.751
  285W        W66694  31.616  11.308  10.540
  286W        W66695  21.461  11.700  14.816
  287W        W66696  24.142  12.584   1.500
  288W        W66697   6.032  27.691  11.303
  289W        W66698  25.510  24.519   0.938
  290W        W66699   8.158   9.439  13.671
  291W        W66700  32.954  10.770   0.569
  292W        W66701  15.113   1.827   1.789
  293W        W66702   1.874  32.601   5.409
  294W        W66703  21.118  21.949  12.949
  295W        W66704   0.946  40.467   1.806
  296W        W66705  25.530   3.876   2.138
  297W        W66706  16.137   5.996  12.038
  298W        W66707  16.149   2.789   2.898
  299W        W66708   5.299  18.223  11.494
  300W        W66709  19.853  43.896  11.656
  301W        W66710  43.227  10.028   2.656
  302W        W66711  30.583   8.088   9.638
  303W        W66712  27.174   6.146   0.290
  304W        W66713  43.464  41.988  11.360
  305W        W66714   5.404  16.076  13.013
  306W        W66715   3.518  18.870  10.761
  307W        W66716  29.553  23.092   2.389
  308W        W66717  40.358  22.379  13.071
  309W        W66718  24.201  17.578  10.322
  310W        W66719  43.321  27.518  11.545
  311W        W66720   6.008   1.238   4.236
  312W        W66721  17.767  24.464   0.528
  313W        W66722   5.930  33.658   2.332
  314W        W66723  41.701  39.772   0.342
  315W        W66724  15.799  11.335   9.711
  316W        W66725  13.869  27.052   1.622
  317W        W66726  42.894   9.282  12.682
  318W        W66727   7.521  39.820  10.732
  319W        W66728   3.308  12.533  12.747
  320W        W66729   4.995  33.057  10.598
  321W        W66730  25.525  28.425  11.095
  322W        W66731  11.807  33.068   3.618
  323W        W66732  13.841   5.811   3.989
  324W        W66733  17.577  38.329  10.986
  325W        W66734  17.656  19.456  12.418
  326W        W66735  38.922  35.883  10.942
  327W        W66736  37.537  26.654  10.579
  328W        W66737   5.362  27.089   1.789
  329W        W66738  31.399  15.985   3.505
  330W        W66739  36.521  17.053   0.896
  331W        W66740  15.557  18.792   2.277
  332W        W66741  27.924  37.306   4.090
  333W        W66742   6.011  35.888  11.971
  334W        W66743  17.729  20.940   2.845
  335W        W66744  23.873  31.379  12.887
  336W        W66745  24.781  39.306   3.439
  337W        W66746  23.978  34.427  14.023
  338W        W66747  41.321  30.374   2.770
  339W        W66748  42.126  44.190  13.889
  340W        W66749   4.803  32.573   4.206
  341W        W66750  35.433  32.217   3.287
  342W        W66751   1.801  42.986  13.421
  343W        W66752  29.949  41.272  11.678
  344W        W66753  18.433  17.833  14.498
  345W        W66754  31.458  14.176   1.397
  346W        W66755  14.528  19.113   0.486
  347W        W66756  25.108  22.723  11.350
  348W        W66757  42.959  35.958   3.107
  349W        W66758   1.638  39.486  11.633
  350W        W66759  32.934  29.041  12.634
  351W        W66760  33.125  17.023   0.286
  352W        W66761  24.019  12.093   1.315
  353W        W66762  29.595  42.524  12.376
  354W        W66763  11.131   6.733   4.422
  355W        W66764  22.127   0.773  14.303
  356W        W66765  29.502   7.672  13.362
  357W        W66766  41.757   4.779   1.065
  358W        W66767   5.912  33.171   0.662
  359W        W66768  38.186  37.186   3.096
  360W        W66769  31.737  33.084  12.788
  361W        W66770   4.881   3.424  10.633
  362W        W66771  37.422  18.812   5.064
  363W        W66772   1.707  39.803  13.655
  364W        W66773  32.997   8.836  12.459
  365W        W66774  20.749  35.449  14.415
  366W        W66775  22.441  25.411   1.924
  367W        W66776  19.197   1.274  10.627
  368W        W66777   2.827  22.671   0.759
  369W        W66778  36.790  20.836   3.746
  370W        W66779  30.915   8.166  12.651
  371W        W66780  27.339  34.129  11.549
  372W        W66781  26.917  37.430   4.285
  373W        W66782  28.870  29.546   0.513
  374W        W66783  36.429   0.994   2.883
  375W        W66784  13.730  16.170  10.466
  376W        W66785  26.766  30.719   3.781
  377W        W66786  22.759   5.797   3.561
  378W        W66787  26.285  22.863   0.248
  379W        W66788  39.450  39.099   2.812
  380W        W66789   0.799   3.717  13.368
  381W        W66790   0.167  41.315  12.397
  382W        W66791  12.724  44.038  14.508
  383W        W66792  15.284  25.718  11.579
  384W        W66793  33.164  13.318   4.918
  385W        W66794   0.574  36.046  10.307
  386W        W66795  22.198   7.277   4.039
  387W        W66796  42.761  12.135  12.228
  388W        W66797  32.024  11.844  11.991
  389W        W66798  19.050   4.430   4.002
  390W        W66799  23.958   0.528  11.606
  391W        W66800  29.403  37.528   5.068
  392W        W66801  41.096  30.809  14.747
  393W        W66802  14.073   9.302   0.415
  394W        W66803  38.935  15.623  13.738
  395W        W66804  42.767   4.284  12.402
  396W        W66805  39.175  33.902   0.422
  397W        W66806  28.906  33.364   1.420
  398W        W66807  17.148  12.888  10.218
  399W        W66808   9.900  30.254   3.693
  400W        W66809  16.128  34.033   4.258
  401W        W66810  27.240   4.189  13.566
  402W        W66811   5.804   7.870   4.518
  403W        W66812  28.486  43.836   2.134
  404W        W66813  16.071  39.728   0.825
  405W        W66814  22.455  14.754  13.025
  406W        W66815  29.979  26.970   4.508
  407W        W66816  13.323   8.423  12.668
  408W        W66817  29.406  34.311   0.390
  409W        W66818   4.208  21.650  13.499
  410W        W66819  26.022  41.669   4.911
  411W        W66820  40.348   3.031  14.860
  412W        W66821  35.511  25.278   4.237
  413W        W66822  15.654  43.919  13.052
  414W        W66823  18.354  41.901   4.163
  415W        W66824  32.385  44.035   3.679
  416W        W66825   4.162  43.540  14.024
  417W        W66826  40.421  13.295   3.166
  418W        W66827   6.450  11.851   3.411
  419W        W66828  44.226   0.293  14.847
  420W        W66829   6.934  35.050  13.107
  421W        W66830  22.107   0.608   2.791
  422W        W66831  18.770  19.113  13.786
  423W        W66832   1.816  27.195  13.854
  424W        W66833   2.321  10.561   0.334
  425W        W66834  13.166  28.222  13.250
  426W        W66835  12.662  22.029   0.574
  427W        W66836  14.696  28.135  12.151
  428W        W66837  39.490  32.882   0.250
  429W        W66838  33.409  20.570  13.425
  430W        W66839  34.251  18.363   3.626
  431W        W66840  26.422  28.620  10.753
  432W        W66841  14.112  37.787  11.692
  433W        W66842  35.309  19.673   4.159
  434W        W66843   3.825   6.148   2.837
  435W        W66844   8.334  36.949   4.280
  436W        W66845  43.048  12.550  12.209
  437W        W66846  12.314  43.292  11.314
  438W        W66847   9.909  25.860  14.827
  439W        W66848   4.617  25.956  14.400
  440W        W66849  21.236   2.857   0.724
  441W        W66850  15.044  24.192  11.537
  442W        W66851  10.940  37.175   3.135
  443W        W66852  44.387  18.179   2.331
  444W        W66853  41.145  44.993   0.007
  445W        W66854  30.475  12.877  13.005
  446W        W66855  26.137   8.876   3.099
  447W        W66856  37.022   7.485   1.154
  448W        W66857   8.622  28.046   2.210
  449W        W66858  43.061  14.737   0.265
  450W        W66859  16.284  15.165   2.708
  451W        W66860  11.006  23.219   0.351
  452W        W66861  26.563  18.418  11.080
  453W        W66862  32.874   1.856  12.669
  454W        W66863   0.670   1.392  11.204
  455W        W66864  25.809  43.873   4.251
  456W        W66865  10.268  35.185   5.348
  457W        W66866  44.063  35.936   3.955
  458W        W66867  14.535  42.437   0.274
  459W        W66868  28.763  37.398  10.009
  460W        W66869   9.660   1.431  14.336
  461W        W66870  24.023  12.601  12.079
  462W        W66871  11.257  17.830  12.176
  463W        W66872  37.463   6.435   3.681
  464W        W66873  34.874  15.273   0.822
  465W        W66874   0.535  11.614  11.231
  466W        W66875  16.617   6.939  14.816
  467W        W66876   4.778  25.123  10.241
  468W        W66877  43.900  21.254  14.788
  469W        W66878  24.628  38.852   1.234
  470W        W66879  18.222  39.145   4.726
  471W        W66880  11.888   9.799   4.204
  472W        W66881  35.923  16.279  13.484
  473W        W66882   0.422  30.502  10.843
  474W        W66883  26.966  28.606  10.778
  475W        W66884  17.829  13.358  14.857
  476W        W66885  10.819   9.189  14.560
  477W        W66886  25.098   5.110   4.506
  478W        W66887  15.664  17.932   3.553
  479W        W66888  20.602  14.622   0.840
  480W        W66889   3.885   6.732  10.495
  481W        W66890  18.527  42.414  11.634
  482W        W66891  12.733  15.876   9.726
  483W        W66892  10.940  28.486   4.798
  484W        W66893   8.882  43.784   0.061
  485W        W66894  41.092  34.342  13.909
  486W        W66895   8.411  26.624  10.916
  487W        W66896   4.367   8.088  14.468
  488W        W66897  40.525  42.870   1.392
  489W        W66898  26.842  20.631  10.124
  490W        W66899   6.154  14.054   4.140
  491W        W66900  12.211  18.223  13.318
  492W        W66901  29.112  30.591   4.553
  493W        W66902  43.285  11.703  13.397
  494W        W66903  36.295  40.322   2.078
  495W        W66904  18.021  25.420   1.502
  496W        W66905  31.106  27.568   1.340
  497W        W66906  38.477  24.655  12.072
  498W        W66907  21.453  33.671  13.301
  499W        W66908  27.632  32.015  13.989
  500W        W66909  29.886  36.037   0.316
  501W        W66910   2.461   5.637  11.877
  502W        W66911  20.638  35.588  11.236
  503W        W66912   4.711  39.225   1.720
  504W        W66913  12.830  41.419  10.367
  505W        W66914   4.196  17.476  11.724
  506W        W66915  13.834  16.164   1.279
  507W        W66916   7.420  42.893   4.951
  508W        W66917  29.661   6.882   1.303
  509W        W66918  26.087  28.651   1.835
  510W        W66919  20.496  31.603  12.026
  511W        W66920  34.876  33.557   3.212
  512W        W66921  33.443  40.244  13.280
  513W        W66922  20.773   9.244  14.793
  514W        W66923  43.799  25.000   4.451
  515W        W66924  28.695  43.394  11.959
  516W        W66925  39.982   3.343  14.590
  517W        W66926  10.241   4.300  13.364
  518W        W66927  44.519  21.572   4.427
  519W        W66928  18.095  35.361   1.262
  520W        W66929   1.402  21.447   0.945
  521W        W66930  28.117   4.740   2.379
  522W        W66931  21.554   9.382  10.783
  523W        W66932  19.783  17.169  11.632
  524W        W66933  15.918  31.859   0.177
  525W        W66934  10.706  31.414   4.750
  526W        W66935   9.679  21.183   4.572
  527W        W66936  21.001  23.435  14.108
  528W        W66937  25.586  25.264  14.754
  529W        W66938  40.225  38.519  12.446
  530W        W66939  25.181   4.663   2.196
  531W        W66940   5.391  24.998   1.091
  532W        W66941  19.939   8.102   0.841
  533W        W66942  32.498  16.862  13.779
  534W        W66943  38.746  14.044   3.185
  535W        W66944  44.728  35.334  13.457
  536W        W66945  40.813  18.406   1.418
  537W        W66946  25.222  33.151   4.100
  538W        W66947  42.922   8.387  14.249
  539W        W66948  29.674   6.116   5.106
  540W        W66949  10.664  22.777  10.485
  541W        W66950  20.107  37.339  10.746
  542W        W66951  42.995  17.672   2.100
  543W        W66952  17.305  14.331  14.846
  544W        W66953   0.516  33.659  10.837
  545W        W66954  10.446  29.461   3.400
  546W        W66955  30.034  31.460   4.529
  547W        W66956  27.741  16.449  13.948
  548W        W66957  27.200  10.178   3.296
  549W        W66958  19.088  17.662  13.290
  550W        W66959   7.253  17.971  11.495
  551W        W66960   1.508  38.379   1.087
  552W        W66961  26.352  25.620  13.094
  553W        W66962  41.314   2.720   0.797
  554W        W66963  18.355  43.798  12.539
  555W        W66964  14.187  31.594   0.425
  556W        W66965  24.691  38.607  11.795
  557W        W66966  33.741   3.823   4.140
  558W        W66967  42.409  15.659   2.425
  559W        W66968  40.625   1.972   0.868
  560W        W66969  22.719  36.674  11.233
  561W        W66970  11.894  31.174   3.267
  562W        W66971  14.338  29.851  10.747
  563W        W66972  17.724  11.639  14.341
  564W        W66973   1.014  25.763   2.182
  565W        W66974   4.846   2.544  12.958
  566W        W66975  29.521  44.116  10.337
  567W        W66976  22.744  20.073  13.945
  568W        W66977  29.233  25.337   0.192
  569W        W66978  24.322  16.049   2.277
  570W        W66979  43.937  19.030   4.559
  571W        W66980  39.565  42.819  12.058
  572W        W66981  24.152  29.375   0.804
  573W        W66982  22.009  10.396   3.244
  574W        W66983  44.162  42.307  11.214
  575W        W66984  40.973  30.438   1.873
  576W        W66985  26.974  13.950   1.713
  577W        W66986  26.006   1.311   4.936
  578W        W66987  39.372  13.823  13.460
  579W        W66988  42.372  10.402   0.203
  580W        W66989  12.198  36.915   0.766
  581W        W66990  23.314  36.496  11.733
  582W        W66991  38.055  17.840  14.303
  583W        W66992  42.365  44.384  11.943
  584W        W66993  19.351  34.628  11.138
  585W        W66994  30.568  40.312   4.510
  586W        W66995   5.784   3.883   3.315
  587W        W66996  43.798   0.368   0.776
  588W        W66997  17.764  38.372   1.189
  589W        W66998  15.561  10.306  12.605
  590W        W66999  17.206   3.274   3.188
  591W        W67000  17.318   3.559  11.943
  592W        W67001   3.947  19.037  14.070
  593W        W67002  21.733  16.263  12.515
  594W        W67003  29.015  44.339   1.034
  595W        W67004  14.677   5.571   2.908
  596W        W67005  16.625   7.153  11.417
  597W        W67006   9.712  23.768   0.841
  598W        W67007  18.439  19.098  14.199
  599W        W67008  10.123   4.412  12.037
  600W        W67009  17.524  42.753   4.117
  601W        W67010   7.868  12.073  13.270
  602W        W67011  28.622  18.331  13.425
  603W        W67012  11.231  18.012  14.459
  604W        W67013   0.884  23.469   0.335
  605W        W67014  24.741  37.471  13.450
  606W        W67015  25.123   6.487  11.144
  607W        W67016  18.487  17.721   2.347
  608W        W67017  21.612  36.378   2.829
  609W        W67018  41.264   6.932  14.994
  610W        W67019  43.213  24.718  13.828
  611W        W67020  27.971  30.066  11.658
  612W        W67021   3.133  10.894   3.065
  613W        W67022  10.074  11.937   0.867
  614W        W67023  14.749  40.517   0.210
  615W        W67024  19.497  17.612  11.635
  616W        W67025  23.422   6.707   2.275
  617W        W67026   1.558  41.782   1.251
  618W        W67027  26.713  34.583   3.748
  619W        W67028  39.817   9.345   5.175
  620W        W67029  17.088  28.684  12.762
  621W        W67030  11.924  34.130  10.338
  622W        W67031  39.893  16.351   2.778
  623W        W67032   7.375  31.455  14.322
  624W        W67033  19.783  15.217  14.376
  625W        W67034  41.546   2.781   3.101
  626W        W67035  15.270   1.425  11.971
  627W        W67036  43.064   4.296  12.891
  628W        W67037  20.250   2.775  12.045
  629W        W67038   6.442  22.241   4.060
  630W        W67039   5.171   4.921  14.407
  631W        W67040   0.479  21.629  12.896
  632W        W67041  22.154  32.839  11.251
  633W        W67042  22.313  35.207  11.642
  634W        W67043   9.668   4.403  14.878
  635W        W67044   0.489  43.771   2.598
  636W        W67045   3.262  39.003   0.485
  637W        W67046   1.314  18.294   2.700
  638W        W67047  36.667  27.482  13.570
  639W        W67048  15.538   5.476  13.370
  640W        W67049  24.227  43.848  13.042
  641W        W67050   7.397   1.400  12.015
  642W        W67051  35.496  32.208  11.660
  643W        W67052  19.823   0.809  13.960
  644W        W67053  15.775  34.076   3.885
  645W        W67054   9.648  43.438   2.769
  646W        W67055  21.836   8.865   1.195
  647W        W67056  31.047  43.788   4.107
  648W        W67057  35.024  32.711  13.042
  649W        W67058  32.496  20.237   2.764
  650W        W67059  35.378  31.125  10.776
  651W        W67060  33.964  36.601   0.540
  652W        W67061  28.986  15.327   0.297
  653W        W67062  37.850  20.267  12.507
  654W        W67063  28.950  18.175  12.645
  655W        W67064  13.233  43.461   0.948
  656W        W67065  38.695  36.844  13.760
  657W        W67066  37.796  14.882  14.301
  658W        W67067  22.060  20.313   1.088
  659W        W67068  24.070  13.119   0.083
  660W        W67069  27.453   5.335   3.107
  661W        W67070   9.841  11.176   2.838
  662W        W67071  41.891  27.011  14.693
  663W        W67072   0.113   0.224  12.077
  664W        W67073  17.581  24.958   0.425
  665W        W67074   6.199  40.499  13.235
  666W        W67075   2.358  20.576   3.407
  667W        W67076  36.334   7.383  12.381
  668W        W67077  41.448  14.065   4.615
  669W        W67078  28.895   5.303  10.983
  670W        W67079   5.221  20.420   3.641
  671W        W67080  39.852   3.899  11.436
  672W        W67081  10.694  22.736  11.816
  673W        W67082  35.449  25.637   0.448
  674W        W67083  17.289  16.798   1.986
  675W        W67084  22.937  39.747  11.618
  676W        W67085   2.855   8.630   3.348
  677W        W67086  19.529   6.642  14.454
  678W        W67087  39.391  41.354  12.082
  679W        W67088   7.701   8.285  14.879
  680W        W67089  42.764   1.684   4.621
  681W        W67090  41.517   8.392  13.295
  682W        W67091  40.359   9.804   1.800
  683W        W67092   3.249   0.368  11.860
  684W        W67093  19.999   2.970  11.626
  685W        W67094  10.101  17.458   4.070
  686W        W67095  28.004  32.419   0.303
  687W        W67096  37.968   5.654   3.840
  688W        W67097  20.946   7.741   0.860
  689W        W67098  16.047  19.976  11.478
  690W        W67099  26.825  44.058   4.105
  691W        W67100   4.386  28.003  14.475
  692W        W67101   7.229  13.858   4.333
  693W        W67102  33.175  25.586  14.306
  694W        W67103   9.350  35.957   3.088
  695W        W67104  38.969  23.911  13.714
  696W        W67105  18.648  24.895  12.575
  697W        W67106   3.836   7.969  11.138
  698W        W67107   3.366   8.815   3.378
  699W        W67108   6.329  35.252  10.980
  700W        W67109  40.842  18.802   0.263
  701W        W67110  14.959  13.305   2.728
  702W        W67111  11.630  26.191  11.968
  703W        W67112   2.307  34.707  12.039
  704W        W67113  23.367  16.025   1.553
  705W        W67114  21.810  14.175   1.277
  706W        W67115  36.108  16.589  11.141
  707W        W67116  39.266  14.140   2.445
  708W        W67117  16.538  23.630   2.011
  709W        W67118   4.859  11.086  14.509
  710W        W67119   6.412  31.174   4.104
  711W        W67120   0.846   2.448   2.604
  712W        W67121   3.432  16.578  12.408
  713W        W67122  20.917  44.186   1.727
  714W        W67123  33.995   0.995   2.308
  715W        W67124  42.559   4.820  10.656
  716W        W67125   1.074  39.845  10.683
  717W        W67126   8.583  11.822   0.281
  718W        W67127  21.362  41.841   0.024
  719W        W67128  38.374  25.968   0.459
  720W        W67129  24.969  29.408  14.911
  721W        W67130  32.825  12.579  14.330
  722W        W67131  24.802  31.063   0.772
  723W        W67132  20.086   0.014  13.582
  724W        W67133  16.027  35.326   1.440
  725W        W67134  25.543   7.644   4.583
  726W        W67135   9.430  28.275  10.980
  727W        W67136  10.989  29.947   4.211
  728W        W67137  32.549  16.318  10.945
  729W        W67138  32.391  29.647  12.501
  730W        W67139   5.433   9.847   4.571
  731W        W67140   5.756  34.911   2.860
  732W        W67141  44.231  28.649   2.768
  733W        W67142  28.976  26.213   3.300
  734W        W67143  28.777  42.305  14.704
  735W        W67144  43.570  10.573  12.619
  736W        W67145  42.050  43.935  13.445
  737W        W67146  26.957  34.114  11.201
  738W        W67147  12.970  11.235   1.099
  739W        W67148  38.482  19.181  13.386
  740W        W67149  13.283   5.297  13.628
  741W        W67150  29.649  33.451   4.532
  742W        W67151  40.514   6.887   3.259
  743W        W67152  31.829  20.587  12.885
  744W        W67153  27.663  35.437  10.479
  745W        W67154   6.450  15.314   3.742
  746W        W67155  15.282   4.284   1.423
  747W        W67156  11.092  30.264   3.625
  748W        W67157   5.766   5.584  11.540
  749W        W67158  43.334  25.375   0.823
  750W        W67159  13.798  44.802  14.502
  751W        W67160  21.994  24.470  14.869
  752W        W67161  14.773  13.661   1.654
  753W        W67162  24.626  39.975  13.710
  754W        W67163   6.012   1.522  12.971
  755W        W67164  37.364  30.366   3.287
  756W        W67165  10.288  25.204  14.874
  757W        W67166   7.858   8.916  11.955
  758W        W67167  26.289   3.088  12.785
  759W        W67168  39.753   8.699  13.915
  760W        W67169  15.369  10.003  14.871
  761W        W67170  29.413  40.345  14.027
  762W        W67171  19.352  34.294   0.523
  763W        W67172   0.429  19.289  11.630
  764W        W67173  12.780   3.360  11.732
  765W        W67174  33.530   8.896   2.474
  766W        W67175  36.355   4.865   2.885
  767W        W67176  44.112  20.571   3.684
  768W        W67177  37.941  28.704   3.601
  769W        W67178  13.027  21.138  13.035
  770W        W67179  36.803  14.987   5.289
  771W        W67180  44.089  43.487  13.979
  772W        W67181  11.618  37.334   0.366
  773W        W67182  34.991   6.753   2.308
  774W        W67183  11.132   0.225   1.770
  775W        W67184  17.320   1.474   1.873
  776W        W67185   9.581  13.019   0.910
  777W        W67186  18.646  18.665   2.679
  778W        W67187   1.038   0.486   2.834
  779W        W67188  23.041  14.220  10.462
  780W        W67189  15.088  19.237   5.044
  781W        W67190  26.446   7.285  13.105
  782W        W67191   1.095  14.076   2.668
  783W        W67192  40.957  17.009  13.955
  784W        W67193   7.144  40.525   4.610
  785W        W67194  31.772   0.949   0.761
  786W        W67195  25.104  13.232   0.198
  787W        W67196  16.510  18.692   1.923
  788W        W67197   8.546  32.239   4.456
  789W        W67198  17.226  35.144  13.291
  790W        W67199  30.499  33.517  12.969
  791W        W67200  29.663   7.526  12.863
  792W        W67201  22.607  32.359   0.853
  793W        W67202  41.322   5.371  10.727
  794W        W67203   5.403  36.097   4.827
  795W        W67204  11.123  41.960   2.718
  796W        W67205   1.475  11.314   2.722
  797W        W67206  14.010  35.559   4.432
  798W        W67207  32.746   3.887   4.453
  799W        W67208  31.671  17.354   2.287
  800W        W67209   2.014  25.933  13.358
  801W        W67210  29.207  32.484   2.412
  802W        W67211  33.546  20.571  11.576
  803W        W67212  15.784   6.888  13.470
  804W        W67213  39.029  26.931   4.686
  805W        W67214   3.857  41.471  13.032
  806W        W67215   7.837  22.060  13.061
  807W        W67216  21.042  18.127   3.692
  808W        W67217  33.355  39.979  10.370
  809W        W67218  40.574  10.192  12.487
  810W        W67219  27.912  26.901  14.099
  811W        W67220  34.926  15.589   2.763
  812W        W67221  20.357  20.018   3.723
  813W        W67222  27.080   2.743   0.248
  814W        W67223  23.174  36.406  11.241
  815W        W67224   6.005  30.042  11.181
  816W        W67225  23.255  43.557   1.733
  817W        W67226  14.303  42.081   1.967
  818W        W67227  37.093  32.581  14.401
  819W        W67228   2.502   9.924  13.932
  820W        W67229  21.014  36.615  11.488
  821W        W67230  16.355  15.659   4.696
  822W        W67231  25.576  16.814  13.412
  823W        W67232  44.442  29.498  11.855
  824W        W67233  43.012  15.685   0.052
  825W        W67234  38.314  32.953   4.295
  826W        W67235  28.675  37.885  10.955
  827W        W67236  30.917   1.479   3.607
  828W        W67237   9.655  42.458   2.781
  829W        W67238  18.280  43.930  14.853
  830W        W67239  16.015   1.382  10.666
  831W        W67240  27.039   1.763   4.309
  832W        W67241  25.297   8.884   0.887
  833W        W67242  15.735   7.607  11.744
  834W        W67243  38.572  13.352   3.664
  835W        W67244  21.297  37.069   2.814
  836W        W67245  30.782  17.174   3.128
  837W        W67246  24.201  10.041  10.326
  838W        W67247   7.447  24.537  14.751
  839W        W67248  19.282  27.936   4.606
  840W        W67249  21.052  36.024  14.904
  841W        W67250  19.482   5.811   2.368
  842W        W67251  20.605  37.128   1.990
  843W        W67252  44.882  17.812  14.331
  844W        W67253  20.088  21.055  11.486
  845W        W67254  11.325  36.988   1.658
  846W        W67255  30.840  17.020  11.969
  847W        W67256  44.708  36.139   4.598
  848W        W67257  34.144  28.018   0.744
  849W        W67258   5.165  35.450   2.090
  850W        W67259   8.809  12.283   4.701
  851W        W67260  21.720  36.014   4.590
  852W        W67261  23.474   8.753   3.770
  853W        W67262   3.948  27.259  12.618
  854W        W67263  26.052  14.858  12.386
  855W        W67264  43.833  15.292  11.818
  856W        W67265  32.103  27.153  14.002
  857W        W67266  32.987  17.242   4.611
  858W        W67267   2.945   8.168   3.106
  859W        W67268   3.161  37.822  10.675
  860W        W67269  11.897   3.919   2.620
  861W        W67270  30.044   5.295  13.523
  862W        W67271  30.959  23.913  13.839
  863W        W67272   2.957  27.604  13.432
  864W        W67273  30.520  44.256  14.275
  865W        W67274  26.701  14.756  13.491
  866W        W67275  13.662  31.603  12.148
  867W        W67276   8.788  34.170  11.637
  868W        W67277  41.316  27.721  10.926
  869W        W67278  24.494   9.707   3.128
  870W        W67279  30.596  25.499  11.324
  871W        W67280  21.795  15.821   3.262
  872W        W67281  13.220  23.709  11.006
  873W        W67282  31.727  31.027  12.821
  874W        W67283   3.844  17.385   0.496
  875W        W67284  17.503   4.048   4.123
  876W        W67285  32.430  28.340   1.269
  877W        W67286   7.610  10.144   0.291
  878W        W67287  24.605   3.528  14.149
  879W        W67288  39.356  18.598   1.400
  880W        W67289   9.942  42.540   1.826
  881W        W67290   5.204  42.327  12.588
  882W        W67291  11.863  40.811   5.299
  883W        W67292  25.069  25.199  11.188
  884W        W67293  29.674  21.192   4.983
  885W        W67294  32.878   9.676   2.303
  886W        W67295  37.495  14.135   1.375
  887W        W67296  12.233  21.595   1.026
  888W        W67297  38.045  38.856   3.585
  889W        W67298  11.924  42.745  12.132
  890W        W67299  42.788   0.676   5.001
  891W        W67300  40.903  31.457   3.607
  892W        W67301  17.678  24.026  12.544
  893W        W67302  29.220  38.664  13.358
  894W        W67303  40.964   5.467  14.297
  895W        W67304  14.921   6.696  13.482
  896W        W67305  37.908  41.219  10.793
  897W        W67306  13.197  28.557   2.489
  898W        W67307   3.809   1.857   1.030
  899W        W67308  10.189  20.662   1.931
  900W        W67309  35.435  11.293   2.545
  901W        W67310  31.394   2.947   3.550
  902W        W67311  40.516  20.706  14.948
  903W        W67312   5.361  38.385  11.081
  904W        W67313  28.157  37.353   3.584
  905W        W67314  26.718   9.279  13.730
  906W        W67315  33.116   0.347  10.318
  907W        W67316  16.447  31.145  13.877
  908W        W67317  26.022  32.840   3.329
  909W        W67318  17.660  11.224   3.361
  910W        W67319  27.072  36.495  13.628
  911W        W67320  39.940  19.292   1.286
  912W        W67321  25.114  29.586  10.695
  913W        W67322  26.375  34.099  12.095
  914W        W67323  43.142  19.606   3.172
  915W        W67324  14.230  28.551  14.301
  916W        W67325   8.235  15.707  11.896
  917W        W67326  24.111  22.856  13.857
  918W        W67327   7.869   0.444   4.759
  919W        W67328  18.031  10.505   2.724
  920W        W67329  13.724  13.771  10.674
  921W        W67330   1.601   4.213  13.450
  922W        W67331  40.514   3.683  13.400
  923W        W67332  42.409  17.208  13.873
  924W        W67333  28.592  21.914   4.745
  925W        W67334   6.445  32.395   5.296
  926W        W67335  31.776  34.416   2.360
  927W        W67336  11.335  37.390   5.292
  928W        W67337   3.828  18.016  13.010
  929W        W67338  32.976  19.546   0.320
  930W        W67339   3.773   3.394   3.763
  931W        W67340   6.667   2.365   2.957
  932W        W67341  17.628  17.995   1.330
  933W        W67342  42.943  32.908  13.962
  934W        W67343  12.578   6.661   3.251
  935W        W67344  42.899  11.109   0.459
  936W        W67345  38.874  27.177   3.747
  937W        W67346  23.162  24.018  13.054
  938W        W67347   6.683  30.420   4.181
  939W        W67348   4.251  32.144   3.250
  940W        W67349   2.984  23.122  13.955
  941W        W67350   9.454  14.570   2.883
  942W        W67351  14.818  17.909   0.263
  943W        W67352  22.734  20.990  14.738
  944W        W67353  24.491   0.589   4.069
  945W        W67354  16.467  11.994  13.393
  946W        W67355  24.113  41.552   1.029
  947W        W67356  10.743  44.673  12.587
  948W        W67357   5.469  36.493   2.689
  949W        W67358  23.262   2.564   3.960
  950W        W67359  11.871   5.343   2.658
  951W        W67360  20.557  13.151   2.788
  952W        W67361  29.679  11.875  13.501
  953W        W67362  18.055  10.210   4.587
  954W        W67363   0.221  22.498  10.579
  955W        W67364  30.769   1.610  10.646
  956W        W67365  36.753  28.237   3.626
  957W        W67366  39.543  20.960  11.559
  958W        W67367  28.523  37.849  14.824
  959W        W67368  19.125  35.959  13.429
  960W        W67369  16.984  28.459   0.797
  961W        W67370  26.186  34.941   0.488
  962W        W67371  38.227   6.124   1.828
  963W        W67372  36.271  37.948  11.755
  964W        W67373  38.948  40.283   4.180
  965W        W67374  23.508  41.000   1.517
  966W        W67375   0.259  22.931  11.787
  967W        W67376  34.842  25.002   0.784
  968W        W67377  24.785   2.754   0.306
  969W        W67378   0.409  14.177  13.605
  970W        W67379  39.108  26.488  12.980
  971W        W67380   9.700  29.328  14.256
  972W        W67381  20.541  37.213   2.513
  973W        W67382   5.657  34.549   2.039
  974W        W67383  28.607   5.728  12.463
  975W        W67384  35.975   7.618  14.476
  976W        W67385  22.449  11.160  14.297
  977W        W67386  14.782  36.018   2.313
  978W        W67387  37.086   2.227   2.902
  979W        W67388  15.442  29.599  11.213
  980W        W67389  44.233  18.580  14.953
  981W        W67390  26.025  40.622   4.061
  982W        W67391  34.531  36.381   3.341
  983W        W67392  34.563  28.980   1.400
  984W        W67393  34.731  39.374  13.821
  985W        W67394  12.760  36.014   3.172
  986W        W67395  44.351  15.008   0.315
  987W        W67396   1.054   3.135   0.379
  988W        W67397  41.256  27.472  11.352
  989W        W67398  38.318  42.267   1.320
  990W        W67399  31.111  21.668   3.207
  991W        W67400   7.625  42.514  14.391
  992W        W67401  44.149  35.302   2.607
  993W        W67402  36.562   3.002   0.552
  994W        W67403  14.612  17.461   4.367
  995W        W67404  42.512   4.760  14.948
  996W        W67405  31.929  16.997   1.343
  997W        W67406  18.819  31.998   1.384
  998W        W67407  17.658  16.973   1.269
  999W        W67408   1.516  24.185   0.234
 1000W        W67409  11.718   0.232   1.120
 1001W        W67410  30.739  20.709   0.817
 1002W        W67411   0.461   2.287  11.621
 1003W        W67412  28.714  43.073   3.191
 1004W        W67413  10.595   9.948   3.199
 1005W        W67414  43.876   2.787   3.650
 1006W        W67415   2.554  11.729   4.352
 1007W        W67416  12.444  31.725  13.449
 1008W        W67417  15.691   1.237   3.310
 1009W        W67418   2.764  33.384   1.369
 1010W        W67419  44.825  20.310   4.773
 1011W        W67420  27.626  38.872   2.714
 1012W        W67421  29.291  38.590  10.728
 1013W        W67422  33.081  43.509   3.077
 1014W        W67423   6.225   2.455   0.565
 1015W        W67424  14.033   1.181   3.080
 1016W        W67425  29.026   7.841  14.096
 1017W        W67426  21.203  10.072   0.921
 1018W        W67427  15.271  24.157   0.845
 1019W        W67428  41.513  25.557   0.986
 1020W        W67429  26.485   3.988  14.725
 1021W        W67430  28.105  18.768  10.591
 1022W        W67431  15.911  29.890  12.878
 1023W        W67432  31.169  44.353  12.514
 1024W        W67433  32.520  11.859  12.545
 1025W        W67434  41.851  25.688   3.145
 1026W        W67435  21.153  31.631   4.556
 1027W        W67436  44.816  34.292  14.290
 1028W        W67437   4.849  30.492  14.248
 1029W        W67438   0.822  34.910  10.818
 1030W        W67439   7.967  38.258   1.817
 1031W        W67440  37.546  12.009  11.402
 1032W        W67441   5.626   1.283   2.199
 1033W        W67442   0.799  37.965   4.588
 1034W        W67443  32.234  43.340   1.169
 1035W        W67444  35.650  41.859   5.080
 1036W        W67445  22.861  26.625   0.824
 1037W        W67446  41.320  28.722  10.962
 1038W        W67447  39.993   8.923  11.570
 1039W        W67448  14.640   8.622  12.165
 1040W        W67449   2.773  31.435  11.156
 1041W        W67450   9.583  15.051   2.976
 1042W        W67451  29.072  20.736  11.904
 1043W        W67452  34.856  19.253   0.450
 1044W        W67453  10.723  30.033  13.602
 1045W        W67454   7.106  29.932  12.341
 1046W        W67455   6.421  32.465  10.764
 1047W        W67456  21.770  40.505  14.261
 1048W        W67457  18.238  23.954  13.223
 1049W        W67458  31.339  29.020  13.409
 1050W        W67459  27.046  21.938  14.420
 1051W        W67460   0.924  26.482  13.326
 1052W        W67461  23.148   7.560  10.584
 1053W        W67462  37.212   7.786  13.363
 1054W        W67463  33.082  41.289  12.133
 1055W        W67464  29.086  25.410   2.375
 1056W        W67465  23.586  25.401  11.451
 1057W        W67466   0.427  26.726   3.272
 1058W        W67467  22.036  31.924   3.364
 1059W        W67468  14.407  29.965   3.176
 1060W        W67469   9.341  24.016   4.734
 1061W        W67470  11.795  36.482   4.694
 1062W        W67471   0.729  34.462  10.543
 1063W        W67472  27.143  41.058   1.355
 1064W        W67473  44.932  20.427  14.056
 1065W        W67474  38.024   7.203   1.337
 1066W        W67475  37.859  21.575  10.706
 1067W        W67476  35.472  12.077  14.491
 1068W        W67477  17.656  30.701   3.894
 1069W        W67478   7.286  44.941  12.073
 1070W        W67479  13.066   5.852  12.288
 1071W        W67480   5.137  37.352  13.816
 1072W        W67481  17.911  12.919   0.254
 1073W        W67482  19.159  39.004   3.709
 1074W        W67483   8.899  32.109   3.173
 1075W        W67484  43.443  37.969   2.862
 1076W        W67485   7.832  22.608  10.714
 1077W        W67486  23.280  44.246   0.699
 1078W        W67487  33.301  31.130  11.149
 1079W        W67488  19.117  10.714  11.903
 1080W        W67489  30.512  29.667   1.930
 1081W        W67490  32.131  28.438  13.456
 1082W        W67491   0.390  25.260   2.401
 1083W        W67492  25.095  42.517   0.561
 1084W        W67493  31.891  25.368  12.864
 1085W        W67494  28.209  15.124   1.882
 1086W        W67495  38.441  40.838   2.110
 1087W        W67496  28.383   0.254  11.535
 1088W        W67497  33.144  28.992   1.291
 1089W        W67498  17.162  33.939  14.808
 1090W        W67499  16.170   6.835   3.705
 1091W        W67500   3.785   2.712  13.559
 1092W        W67501  35.116  22.916   4.078
 1093W        W67502   5.223  10.952  14.897
 1094W        W67503  18.782  42.745   4.697
 1095W        W67504  40.107  42.562   1.467
 1096W        W67505   0.368  13.658  13.435
 1097W        W67506  20.192   8.277  11.521
 1098W        W67507  26.726  36.937   3.272
 1099W        W67508  30.296   4.956   3.740
 1100W        W67509  33.316  20.282   0.742
 1101W        W67510  34.506  42.456   3.144
 1102W        W67511  34.874   1.987  13.524
 1103W        W67512   1.435  14.841  14.881
 1104W        W67513  31.624  31.838  13.511
 1105W        W67514  13.807  12.824   1.693
 1106W        W67515  38.471  28.885   0.944
 1107W        W67516  28.860  41.564  12.027
 1108W        W67517  43.258  13.959  11.178
 1109W        W67518  24.112  23.152  14.293
 1110W        W67519   1.784  31.043   0.513
 1111W        W67520  19.826  29.979  14.358
 1112W        W67521  10.289   5.654  14.781
 1113W        W67522   7.857   5.663  14.293
 1114W        W67523  19.127  23.961   3.975
 1115W        W67524   9.087  12.681  13.464
 1116W        W67525  15.031  42.523   2.356
 1117W        W67526   4.871  22.141  10.900
 1118W        W67527   1.892  36.005   4.527
 1119W        W67528  21.697  36.391  13.069
 1120W        W67529  40.759  34.564  10.687
 1121W        W67530  37.538  21.411   4.581
 1122W        W67531   1.763   0.492  14.906
 1123W        W67532  13.731  40.596   1.163
 1124W        W67533   2.861  32.830   4.236
 1125W        W67534   3.265  20.347  13.112
 1126W        W67535  28.566  19.684   1.770
 1127W        W67536  16.366  42.452  13.603
 1128W        W67537  43.041  29.809  13.921
 1129W        W67538  30.552   4.354  14.317
 1130W        W67539   6.622   9.204   4.779
 1131W        W67540  14.542   1.439  13.259
 1132W        W67541   3.896  15.457  13.544
 1133W        W67542  15.689  33.151  14.425
 1134W        W67543  36.315  18.129   1.991
 1135W        W67544   6.401  34.953   2.424
 1136W        W67545  17.673   9.886   1.938
 1137W        W67546  31.745  39.306   0.736
 1138W        W67547  10.558  26.556   1.240
 1139W        W67548  43.325  28.974  14.557
 1140W        W67549  25.796  15.419  12.001
 1141W        W67550  31.902  42.881  14.036
 1142W        W67551  13.158   0.379  13.887
 1143W        W67552   5.461   4.281  13.846
 1144W        W67553  30.913  21.346   2.724
 1145W        W67554  29.325  34.031   4.431
 1146W        W67555   6.711  25.518   2.702
 1147W        W67556   2.452   9.118   2.173
 1148W        W67557   1.555  40.374   2.816
 1149W        W67558   5.478  38.864   0.384
 1150W        W67559  14.230  12.598   2.332
 1151W        W67560  24.310   4.372   2.380
 1152W        W67561   4.097   6.626   1.259
 1153W        W67562  18.289   1.962   1.276
 1154W        W67563  39.550  11.309  11.191
 1155W        W67564   9.353  23.209  10.671
 1156W        W67565  25.254  32.976  11.179
 1157W        W67566  16.614  13.888   3.295
 1158W        W67567  24.284  34.808   0.327
 1159W        W67568  27.182  23.996  13.329
 1160W        W67569  20.944  20.737  13.716
 1161W        W67570  34.898  10.146   4.128
 1162W        W67571  11.771  26.385   2.718
 1163W        W67572  19.174  42.095  13.813
 1164W        W67573  15.642  17.600  10.465
 1165W        W67574  21.542  26.184   4.051
 1166W        W67575  39.940   6.563  14.209
 1167W        W67576  15.353  25.205  11.574
 1168W        W67577  44.370  28.218  13.112
 1169W        W67578  12.444   3.262   3.184
 1170W        W67579  24.095  34.469   3.675
 1171W        W67580   8.212  23.926   1.508
 1172W        W67581   4.331  24.246  11.592
 1173W        W67582   1.319   5.351  12.596
 1174W        W67583  15.849   3.201   2.975
 1175W        W67584   1.241   8.153  11.949
 1176W        W67585  10.399  39.834  13.046
 1177W        W67586  24.400  11.382  10.817
 1178W        W67587   3.840  39.754  13.815
 1179W        W67588  28.110  22.268   2.312
 1180W        W67589  25.043  41.298   3.265
 1181W        W67590  38.327  44.621   3.543
 1182W        W67591  30.998  28.392  12.453
 1183W        W67592  43.824  36.290  12.510
 1184W        W67593  39.389   8.853  12.549
 1185W        W67594  38.806  34.551  10.425
 1186W        W67595  24.801  18.748  12.066
 1187W        W67596   3.136  31.439   4.760
 1188W        W67597  42.704   1.800   2.163
 1189W        W67598  40.592   7.800   1.793
 1190W        W67599   0.283  29.976  11.558
 1191W        W67600  18.594  25.350   4.392
 1192W        W67601  42.889  21.758   2.669
 1193W        W67602   8.370  40.275   1.686
 1194W        W67603   8.903  18.024  13.105
 1195W        W67604  15.628   7.070   4.867
 1196W        W67605  18.468  37.339  12.763
 1197W        W67606  19.773  14.266   2.153
 1198W        W67607  21.222  35.649   0.239
 1199W        W67608  13.710  29.128   0.284
 1200W        W67609  26.335  14.924   3.269
 1201W        W67610  41.603  18.294   2.529
 1202W        W67611  24.115   5.446   3.643
 1203W        W67612   8.361  43.169   1.012
 1204W        W67613  31.868  18.031   3.360
 1205W        W67614  21.279  29.532  11.432
 1206W        W67615   0.482  39.143  13.909
 1207W        W67616   1.829   4.432  10.722
 1208W        W67617   0.191  21.187   2.816
 1209W        W67618  40.628  24.927  14.607
 1210W        W67619  20.107  34.942  11.250
 1211W        W67620  40.879   7.862   3.721
 1212W        W67621  25.573  25.609  12.416
 1213W        W67622  14.047   1.718  14.563
 1214W        W67623   4.254  28.998   2.671
 1215W        W67624  27.232  16.307  11.348
 1216W        W67625  21.568  29.212  10.437
 1217W        W67626  23.933   3.163  11.258
 1218W        W67627  24.330  38.043  14.015
 1219W        W67628   0.780   3.521  14.379
 1220W        W67629  40.358   2.308  10.861
 1221W        W67630  12.165  25.936  10.493
 1222W        W67631  41.714   7.196  12.102
 1223W        W67632  39.423  39.837  11.442
 1224W        W67633  27.684  41.877   4.041
 1225W        W67634  24.756  31.516  10.701
 1226W        W67635  26.964   3.829   1.360
 1227W        W67636   4.763  10.301   4.923
 1228W        W67637  23.744  17.703   1.683
 1229W        W67638  44.718  30.176  14.387
 1230W        W67639  44.004   5.237  14.492
 1231W        W67640   2.415  32.881   0.666
 1232W        W67641  27.926  44.389   1.752
 1233W        W67642  23.235  20.661  10.494
 1234W        W67643  23.442  36.117  12.078
 1235W        W67644  29.947   1.376  14.053
 1236W        W67645   9.936  20.228  10.757
 1237W        W67646  12.266   4.001  14.750
 1238W        W67647  13.471   4.608   3.504
 1239W        W67648  24.981  18.657  13.520
 1240W        W67649  44.065  13.671   1.332
 1241W        W67650  42.449  31.506   4.623
 1242W        W67651  23.277   5.929  14.793
 1243W        W67652  15.134  36.923  11.582
 1244W        W67653  25.599  33.234   3.747
 1245W        W67654  44.700  31.881  14.416
 1246W        W67655   0.875  44.216  14.108
 1247W        W67656   5.128  35.655   2.547
 1248W        W67657  44.783  44.525  13.338
 1249W        W67658  13.360  38.960  12.945
 1250W        W67659  20.531  37.882  13.095
 1251W        W67660  40.346   7.390  11.770
 1252W        W67661  34.413   7.383   3.072
 1253W        W67662   0.965  25.961   3.671
 1254W        W67663  33.942  35.860   2.200
 1255W        W67664   2.031  20.263  11.519
 1256W        W67665  35.194  18.660  12.193
 1257W        W67666  38.614  19.956  12.597
 1258W        W67667   5.158  14.525   3.276
 1259W        W67668  21.431  25.466   1.804
 1260W        W67669  16.521   1.348   0.730
 1261W        W67670  12.309  41.053  12.512
 1262W        W67671  34.085  36.303   2.426
 1263W        W67672  31.052   4.530   3.188
 1264W        W67673   2.903  10.383  12.013
 1265W        W67674   2.811   3.722  11.180
 1266W        W67675  40.906  27.518   4.673
 1267W        W67676  14.104   0.970   2.609
 1268W        W67677   3.917  11.302   0.777
 1269W        W67678   9.273  33.520   1.246
 1270W        W67679  12.242  11.832   3.900
 1271W        W67680  30.694  40.953   1.632
 1272W        W67681   8.670   0.760  13.880
 1273W        W67682  41.561  23.618  14.855
 1274W        W67683  32.245   5.776  11.084
 1275W        W67684  37.915   6.880  10.724
 1276W        W67685  38.182  30.721   3.239
 1277W        W67686   4.308  22.253   0.406
 1278W        W67687   0.003  20.772   2.304
 1279W        W67688  35.380  17.676   2.774
 1280W        W67689  43.493  26.808   1.172
 1281W        W67690  38.436  44.753   1.277
 1282W        W67691   4.236  24.540  14.876
 1283W        W67692  38.603  38.508  14.973
 1284W        W67693   3.072  20.384  12.644
 1285W        W67694  22.652  41.550  13.032
 1286W        W67695  32.465  41.041  11.709
 1287W        W67696  25.241   0.542  11.036
 1288W        W67697   9.751  41.797  12.412
 1289W        W67698   9.439  28.151  12.394
 1290W        W67699  17.219   8.710   4.599
 1291W        W67700  26.452   3.632  11.367
 1292W        W67701  19.147  25.200   1.726
 1293W        W67702  19.238  16.512  12.432
 1294W        W67703   3.498  41.981  11.977
 1295W        W67704  41.188  30.613  11.643
 1296W        W67705   0.583  37.471  12.956
 1297W        W67706  41.707   5.439   4.829
 1298W        W67707  10.352  26.021   2.368
 1299W        W67708  39.373  19.996   3.303
 1300W        W67709   4.122  38.423   2.263
 1301W        W67710  37.319  20.018   2.803
 1302W        W67711  37.915  31.917  10.665
 1303W        W67712   1.406  27.219  13.198
 1304W        W67713  39.937  15.629   1.834
 1305W        W67714  12.493  44.643   4.955
 1306W        W67715  19.275  22.435   1.795
 1307W        W67716  18.894   1.093   4.782
 1308W        W67717  25.247  44.134  12.005
 1309W        W67718  14.433  19.744   5.343
 1310W        W67719   1.928  32.741   3.786
 1311W        W67720  38.546   5.898   1.460
 1312W        W67721  11.387  21.736   3.268
 1313W        W67722  36.503   3.990  12.580
 1314W        W67723  41.250  22.493  13.376
 1315W        W67724  30.147   4.350   4.152
 1316W        W67725  30.537  40.952   0.698
 1317W        W67726  11.295  19.728  10.445
 1318W        W67727  28.564  20.931   4.532
 1319W        W67728   6.701  20.485   3.755
 1320W        W67729  15.264   6.836   4.504
 1321W        W67730  25.071  41.398   0.666
 1322W        W67731  41.342  29.325  11.850
 1323W        W67732  18.063  20.945  12.939
 1324W        W67733  31.006  10.775  11.688
 1325W        W67734  43.355   9.054   3.976
 1326W        W67735  32.748  40.857   5.013
 1327W        W67736  21.557  34.154  14.296
 1328W        W67737  11.230  23.345  11.507
 1329W        W67738  30.470  29.145   3.184
 1330W        W67739  35.821  37.069  13.070
 1331W        W67740  12.672  22.625  14.895
 1332W        W67741  31.978  11.684  10.506
 1333W        W67742  23.305  30.639   4.308
 1334W        W67743  30.005  18.669  10.404
 1335W        W67744   8.074  28.064  11.902
 1336W        W67745   8.881   9.277  14.990
 1337W        W67746  17.498  21.994   0.278
 1338W        W67747   0.971  37.458   4.840
 1339W        W67748  17.877  12.326   4.650
 1340W        W67749  39.973  16.489  11.297
 1341W        W67750  30.083  17.660   0.728
 1342W        W67751  30.864  18.250  14.907
 1343W        W67752  24.754  39.297   2.073
 1344W        W67753  32.199  44.807  14.924
 1345W        W67754  20.313   7.613  13.959
 1346W        W67755  32.987  12.200   1.139
 1347W        W67756   8.181   5.270  11.189
 1348W        W67757   5.354  13.212   0.609
 1349W        W67758  16.234   7.862   1.533
 1350W        W67759   1.604  38.301   0.597
 1351W        W67760  24.999  11.848  12.676
 1352W        W67761  16.097  23.645  10.248
 1353W        W67762  10.606  41.435  10.950
 1354W        W67763  44.877  26.191   4.750
 1355W        W67764  31.985  11.769   2.297
 1356W        W67765  26.637  28.620   1.137
 1357W        W67766  14.868  42.029  14.311
 1358W        W67767  18.331  20.998   5.398
 1359W        W67768   4.314  30.620   3.196
 1360W        W67769  13.705  10.332  13.026
 1361W        W67770   7.047  12.640  13.210
 1362W        W67771  37.608  42.969  12.063
 1363W        W67772  42.891  23.068  13.540
 1364W        W67773  29.370  25.633  11.122
 1365W        W67774  18.596  28.066   1.733
 1366W        W67775   9.602  17.712   3.163
 1367W        W67776  37.335  10.532  12.968
 1368W        W67777  35.304  14.773  10.911
 1369W        W67778  26.573   4.816   0.991
 1370W        W67779  11.484   7.339  14.858
 1371W        W67780  28.491  31.654   0.446
 1372W        W67781  36.814  13.715  11.897
 1373W        W67782   4.591   1.450   3.067
 1374W        W67783  40.618  24.130  13.882
 1375W        W67784  34.636  43.098   3.615
 1376W        W67785  13.322  35.449  14.787
 1377W        W67786  19.268   7.653   3.126
 1378W        W67787  37.344  43.353   1.673
 1379W        W67788   7.353  32.621  11.636
 1380W        W67789  29.512  32.898  12.638
 1381W        W67790  36.659  42.009   1.722
 1382W        W67791  16.607  32.460  14.964
 1383W        W67792  34.959  23.683   3.751
 1384W        W67793   8.219   3.233   1.685
 1385W        W67794  32.000  19.612   0.223
 1386W        W67795  34.054  32.916   3.262
 1387W        W67796  26.376  44.802   1.701
 1388W        W67797  10.748  40.253   2.632
 1389W        W67798  26.177  13.279  13.349
 1390W        W67799  43.013  20.047  14.345
 1391W        W67800   9.089  40.050   0.303
 1392W        W67801  40.332  21.764   3.838
 1393W        W67802  42.233  17.573  13.184
 1394W        W67803  40.087   0.153   2.164
 1395W        W67804  42.949  13.185   4.039
 1396W        W67805   4.446  41.600   1.173
 1397W        W67806  20.582  21.045   5.081
 1398W        W67807  44.981  28.425  10.680
 1399W        W67808  44.528  14.969  11.938
 1400W        W67809  29.587   7.856   3.311
 1401W        W67810   5.939  43.340  11.211
 1402W        W67811  11.701   0.116  12.551
 1403W        W67812  43.910  35.502  14.473
 1404W        W67813  22.668  18.931  10.897
 1405W        W67814  28.049  31.045   3.901
 1406W        W67815  30.492  40.998  12.494
 1407W        W67816   1.821   3.884   4.379
 1408W        W67817  43.697   1.272   2.175
 1409W        W67818  43.747   5.414   2.734
 1410W        W67819  14.826   5.080   2.876
 1411W        W67820   6.060  28.678   1.788
 1412W        W67821  14.107   6.766  12.855
 1413W        W67822  42.921  43.785  13.800
 1414W        W67823  30.384  11.871   4.587
 1415W        W67824  13.424   3.562  12.038
 1416W        W67825  39.343  24.502  14.870
 1417W        W67826  37.376  26.713  11.541
 1418W        W67827   7.821   9.211  13.344
 1419W        W67828   1.717  19.868   4.202
 1420W        W67829  33.638  36.184   0.473
 1421W        W67830  42.297  27.270  13.018
 1422W        W67831  24.212  21.082   4.085
 1423W        W67832  28.500  12.172   9.655
 1424W        W67833  18.313   2.528   1.344
 1425W        W67834  42.450  35.800   1.895
 1426W        W67835  25.301  37.369   3.634
 1427W        W67836   0.225  12.786  14.022
 1428W        W67837  39.171   4.458  12.637
 1429W        W67838  13.043  15.632  12.907
 1430W        W67839  22.045   5.221  13.379
 1431W        W67840  26.083  26.965   0.424
 1432W        W67841  12.121  31.228   0.447
 1433W        W67842  37.788   8.048   4.115
 1434W        W67843  43.006  19.213  11.011
 1435W        W67844  29.304   1.920  12.568
 1436W        W67845  39.766  16.366  13.028
 1437W        W67846  18.680   8.176  10.681
 1438W        W67847   9.979  29.990  12.146
 1439W        W67848  15.784   3.418  10.572
 1440W        W67849  21.243  18.784   2.912
 1441W        W67850   8.857  19.551   3.742
 1442W        W67851  21.688  33.592   1.427
 1443W        W67852   0.488  19.516  12.891
 1444W        W67853  37.934  17.941   2.157
 1445W        W67854  41.761   0.751   4.085
 1446W        W67855  20.347   6.258  14.998
 1447W        W67856  13.060  24.124  14.242
 1448W        W67857  21.272  29.610   0.280
 1449W        W67858  40.402  25.767  14.811
 1450W        W67859   6.941  14.217   2.617
 1451W        W67860   7.104  12.004   2.594
 1452W        W67861  14.859  18.197  14.685
 1453W        W67862  34.759  31.997  14.257
 1454W        W67863  22.762  22.842  11.062
 1455W        W67864  30.697  25.086  11.868
 1456W        W67865   0.024  31.639  12.034
 1457W        W67866  14.068   1.954  12.948
 1458W        W67867   0.063  44.237  13.710
 1459W        W67868  39.446   5.008   3.158
 1460W        W67869  24.213   7.953  14.793
 1461W        W67870  44.846  18.525   4.121
 1462W        W67871  17.554   8.593  10.987
 1463W        W67872   7.184  11.500  11.131
 1464W        W67873  34.966   0.823   9.774
 1465W        W67874   4.887  16.561  11.303
 1466W        W67875  13.430   7.938   0.113
 1467W        W67876  36.650  28.403  13.576
 1468W        W67877   3.418  20.873  14.002
 1469W        W67878  37.276   5.924   2.244
 1470W        W67879  40.606  22.642  12.457
 1471W        W67880  21.876  13.748  10.617
 1472W        W67881  17.753   8.128  13.012
 1473W        W67882   6.258  10.249   0.789
 1474W        W67883  13.364  30.021  11.955
 1475W        W67884  19.056  21.279  11.521
 1476W        W67885  39.065  17.061  11.006
 1477W        W67886  34.343  27.003  14.455
 1478W        W67887   7.813   1.730   4.642
 1479W        W67888  27.308  37.268  12.400
 1480W        W67889  31.311   2.176   3.235
 1481W        W67890   4.868  21.529   0.445
 1482W        W67891  44.020  19.955   1.344
 1483W        W67892  36.685  40.889   4.732
 1484W        W67893  33.572   5.871   4.589
 1485W        W67894  14.693   9.589  11.020
 1486W        W67895  10.923   5.335   4.301
 1487W        W67896  39.355  21.228  10.110
 1488W        W67897  17.799  29.090  12.105
 1489W        W67898   3.640  12.554  14.376
 1490W        W67899   3.407  13.013   5.022
 1491W        W67900  15.831  26.109   2.458
 1492W        W67901  24.156   1.178  14.378
 1493W        W67902  20.068  30.630  13.812
 1494W        W67903  36.487  13.456  10.600
 1495W        W67904  37.351   9.546   3.474
 1496W        W67905  14.781  20.609   0.713
 1497W        W67906  11.644  35.922  10.721
 1498W        W67907   1.204  25.027  11.539
 1499W        W67908   0.968   0.197  11.272
 1500W        W67909  42.909  38.308   3.196
 1501W        W67910  27.438  28.752  12.797
 1502W        W67911  19.080   3.596   2.909
 1503W        W67912   7.050   0.931  11.753
 1504W        W67913   8.761  31.904  11.632
 1505W        W67914   1.260  41.723   2.275
 1506W        W67915  29.469   5.933   0.948
 1507W        W67916  24.884  44.833  12.322
 1508W        W67917  24.304  41.332  12.972
 1509W        W67918  23.748  14.163   2.184
 1510W        W67919  34.455  21.719  11.207
 1511W        W67920  37.483   1.669  10.722
 1512W        W67921  38.404  10.830  12.331
 1513W        W67922   7.326  16.137  11.123
 1514W        W67923  23.062  37.289   0.525
 1515W        W67924  14.405  10.250   3.651
 1516W        W67925  19.219  22.281   4.211
 1517W        W67926  33.899  23.571   3.206
 1518W        W67927   3.295  36.619  13.425
 1519W        W67928  15.896  18.882  10.284
 1520W        W67929  15.117  36.809  12.173
 1521W        W67930  37.788   5.905   2.381
 1522W        W67931  26.193  26.526   9.789
 1523W        W67932  12.072   8.729   4.418
 1524W        W67933  36.367  14.642  10.522
 1525W        W67934  12.838  42.804   4.109
 1526W        W67935  10.741  23.799   2.748
 1527W        W67936  44.405  15.039   3.584
 1528W        W67937  23.594  19.314   2.183
 1529W        W67938  26.570  39.872  13.267
 1530W        W67939   5.168  28.977  12.805
 1531W        W67940  19.557  18.312   0.921
 1532W        W67941  38.378   5.497   3.233
 1533W        W67942  38.526  21.022   9.709
 1534W        W67943  21.678  43.012   2.352
 1535W        W67944   7.934  42.115   2.309
 1536W        W67945  20.175  26.498  10.668
 1537W        W67946  27.933  42.324   1.961
 1538W        W67947  24.758  26.165   0.787
 1539W        W67948   1.915   0.213  13.122
 1540W        W67949  14.204  33.655  11.860
 1541W        W67950   8.552  25.585  12.559
 1542W        W67951   3.509  30.174   3.077
 1543W        W67952  35.328   2.330  10.483
 1544W        W67953  25.949  17.359   2.873
 1545W        W67954  27.639   3.030   4.082
 1546W        W67955  14.021  20.532   1.223
 1547W        W67956  10.681  18.046   3.258
 1548W        W67957  11.613  31.619   3.285
 1549W        W67958  44.915  30.567   0.956
 1550W        W67959  11.324  12.592   1.461
 1551W        W67960  25.549   6.330   4.139
 1552W        W67961  22.932  16.171   0.796
 1553W        W67962  32.404  20.670  11.066
 1554W        W67963   1.210  42.146  13.482
 1555W        W67964  25.077  40.473  13.337
 1556W        W67965  10.418  26.781   3.736
 1557W        W67966  28.606  39.180   0.519
 1558W        W67967  21.186  23.609  11.638
 1559W        W67968   7.309  31.285  12.085
 1560W        W67969  36.021  25.620   0.905
 1561W        W67970  16.081  20.039  10.734
 1562W        W67971  17.704  10.262  10.784
 1563W        W67972  42.664   3.975  11.183
 1564W        W67973  21.226  29.632  13.234
 1565W        W67974  35.708  16.819   2.750
 1566W        W67975   2.581  37.352  10.459
 1567W        W67976   2.437  22.320  12.134
 1568W        W67977   8.263  15.641   2.904
 1569W        W67978   4.542  40.321  10.989
 1570W        W67979  38.018  39.947   3.283
 1571W        W67980  27.598  40.624   1.499
 1572W        W67981   5.560  13.521   0.956
 1573W        W67982   5.751  44.477   0.797
 1574W        W67983   4.833  15.112  11.051
 1575W        W67984   9.663  21.198  11.457
 1576W        W67985  27.605  20.708   2.656
 1577W        W67986   4.582  20.521   2.665
 1578W        W67987   4.591  13.639   0.446
 1579W        W67988  14.844  19.150   1.871
 1580W        W67989  12.079  13.424  11.571
 1581W        W67990  28.617  37.412  14.335
 1582W        W67991  36.954   8.965  12.993
 1583W        W67992  22.002   8.065   3.295
 1584W        W67993  23.775  44.536   2.018
 1585W        W67994   5.378  16.593   4.066
 1586W        W67995  22.563   4.940  10.986
 1587W        W67996  42.457  40.242   0.089
 1588W        W67997  24.002  18.405  11.929
 1589W        W67998  26.632  19.068  12.967
 1590W        W67999  32.466   5.008  13.517
 1591W        W68000   4.162  39.356   0.432
 1592W        W68001  17.227   4.148   2.635
 1593W        W68002   0.491  29.164  12.597
 1594W        W68003  41.872   0.928  13.381
 1595W        W68004  33.818  40.376   0.248
 1596W        W68005  22.544  26.989  12.105
 1597W        W68006   5.910  23.120   4.038
 1598W        W68007  24.589   8.539   2.290
 1599W        W68008   0.384  29.910   1.161
 1600W        W68009  41.292   2.706   4.086
 1601W        W68010  17.870  21.254  14.801
 1602W        W68011  11.313   8.334  12.445
 1603W        W68012  37.359  28.639  13.849
 1604W        W68013  38.137  35.813   2.451
 1605W        W68014  23.310  16.834  14.927
 1606W        W68015   2.809  17.771   1.397
 1607W        W68016  26.902  38.861   1.433
 1608W        W68017  39.053  30.618   1.461
 1609W        W68018  37.014  11.338   1.380
 1610W        W68019  39.279  10.349  12.001
 1611W        W68020  11.522  40.137  11.632
 1612W        W68021  14.182  32.860   4.688
 1613W        W68022   1.680  31.627   4.563
 1614W        W68023  28.521  33.868  12.226
 1615W        W68024   8.422  11.320   2.671
 1616W        W68025  34.985  37.326   2.182
 1617W        W68026  37.483  10.626   2.472
 1618W        W68027   1.454  27.653  13.485
 1619W        W68028   0.774  26.413   4.221
 1620W        W68029  23.417  16.998  12.530
 1621W        W68030   7.736  31.197  11.796
 1622W        W68031  36.987  27.227   3.614
 1623W        W68032   6.700  23.714   9.869
 1624W        W68033  15.108  38.170  12.089
 1625W        W68034   0.250   5.350  10.775
 1626W        W68035  33.896  38.123   0.313
 1627W        W68036   6.674  19.162  11.524
 1628W        W68037  18.301  14.086   4.542
 1629W        W68038  41.921  25.079   1.633
 1630W        W68039   7.366  37.131  11.984
 1631W        W68040  24.035  19.573  13.223
 1632W        W68041  41.760  38.450  12.978
 1633W        W68042  40.425   1.496   4.729
 1634W        W68043  20.611  35.349   3.395
 1635W        W68044   3.994  13.191   2.650
 1636W        W68045  25.710  39.093   2.584
 1637W        W68046   9.858  28.853   4.942
 1638W        W68047  30.428  18.923   1.849
 1639W        W68048   9.239  27.468   2.728
 1640W        W68049  44.433  17.573  10.707
 1641W        W68050  24.637  24.330  10.484
 1642W        W68051  34.444  35.545   4.787
 1643W        W68052  34.935  39.524   2.751
 1644W        W68053   8.100   0.277  11.149
 1645W        W68054  28.899  34.886   3.632
 1646W        W68055  16.150  21.663   1.271
 1647W        W68056  17.094  36.837   2.353
 1648W        W68057  27.102  36.404  12.212
 1649W        W68058  25.063   6.952   2.804
 1650W        W68059  20.473  23.293   2.770
 1651W        W68060  39.813  10.657  13.731
 1652W        W68061  39.301  11.183  13.955
 1653W        W68062   4.874  32.458   3.311
 1654W        W68063  34.356  25.979  11.349
 1655W        W68064  20.882  14.276   4.616
 1656W        W68065  33.994  15.138   4.621
 1657W        W68066  35.465  16.778   2.299
 1658W        W68067  29.326  15.206  14.336
 1659W        W68068   0.347  36.620  11.637
 1660W        W68069  23.589  30.195   0.756
 1661W        W68070  25.712  11.970   3.129
 1662W        W68071  36.030  10.441  14.906
 1663W        W68072   9.879   1.314  12.896
 1664W        W68073  16.401   9.585   3.996
 1665W        W68074  23.882  14.259   1.182
 1666W        W68075   6.698  11.150   4.512
 1667W        W68076  20.821  15.516   3.028
 1668W        W68077  35.934  39.301  11.791
 1669W        W68078  20.472  28.491   4.315
 1670W        W68079  28.734  31.009  10.516
 1671W        W68080   3.199  36.663  14.263
 1672W        W68081  20.194  17.397   3.545
 1673W        W68082   0.933  39.372   4.186
 1674W        W68083  29.157  24.177  13.819
 1675W        W68084  43.453   6.778  14.473
 1676W        W68085  24.166  31.460   3.344
 1677W        W68086  14.671  30.946  14.306
 1678W        W68087  35.613  24.196  13.479
 1679W        W68088  12.336  31.086   4.522
 1680W        W68089  39.803  13.716   1.892
 1681W        W68090  32.091  15.655   2.204
 1682W        W68091   7.165  34.627   4.944
 1683W        W68092  10.702  30.455   3.233
 1684W        W68093   2.963  38.863  12.417
 1685W        W68094   9.218  32.821  13.157
 1686W        W68095   3.315  12.551   2.881
 1687W        W68096  34.139  24.726  12.479
 1688W        W68097  44.355  38.285  10.611
 1689W        W68098  28.146  25.482   3.720
 1690W        W68099  16.038  21.098  14.612
 1691W        W68100  17.218  15.955  13.911
 1692W        W68101  30.890  23.084   0.275
 1693W        W68102   7.340  30.104   0.941
 1694W        W68103  24.391  19.352  10.335
 1695W        W68104  29.990  21.571   0.687
 1696W        W68105  11.667   6.801  14.973
 1697W        W68106  40.918  15.224  12.041
 1698W        W68107  24.418  21.037  12.644
 1699W        W68108   4.178  32.342  13.852
 1700W        W68109   8.812  32.445  13.661
 1701W        W68110  10.528  16.491  14.805
 1702W        W68111  43.846  27.913  10.515
 1703W        W68112  15.307  21.597   2.245
 1704W        W68113  19.097   4.908   2.257
 1705W        W68114  19.567   9.779   4.650
 1706W        W68115  35.606  24.608  14.330
 1707W        W68116  36.043  41.805  14.890
 1708W        W68117  10.896  17.602   0.919
 1709W        W68118  35.886   4.862  14.184
 1710W        W68119   9.122   2.439   1.599
 1711W        W68120   5.688  22.716   0.254
 1712W        W68121  11.249  38.268   1.212
 1713W        W68122  37.305   4.485   1.350
 1714W        W68123   8.482  25.029  12.573
 1715W        W68124  35.383   6.033   4.740
 1716W        W68125  29.463  18.758   4.046
 1717W        W68126   9.319  34.843   0.876
 1718W        W68127   4.762  13.642  14.443
 1719W        W68128  31.367   0.462  11.678
 1720W        W68129   7.232  33.185   1.965
 1721W        W68130  12.084  12.893  11.550
 1722W        W68131  23.197  18.608   0.733
 1723W        W68132  29.112   9.802  13.096
 1724W        W68133  11.781  29.838   2.189
 1725W        W68134  31.534  19.572  12.166
 1726W        W68135  26.906   7.769   4.943
 1727W        W68136  19.029  33.626  11.492
 1728W        W68137  21.647  13.905   3.118
 1729W        W68138  13.723  40.129   3.532
 1730W        W68139   5.333   0.828   2.217
 1731W        W68140  36.548  31.356  13.441
 1732W        W68141  20.217  27.527   0.723
 1733W        W68142  35.488  34.070  11.690
 1734W        W68143  20.384  17.312  10.347
 1735W        W68144  44.257  22.950  14.908
 1736W        W68145  39.568  23.131   2.400
 1737W        W68146   1.997  14.688   4.613
 1738W        W68147   4.003  12.632  13.487
 1739W        W68148   3.030  40.430  11.173
 1740W        W68149  26.219  34.599  11.889
 1741W        W68150  34.365   2.219  14.367
 1742W        W68151   1.445  16.935   2.651
 1743W        W68152  36.088  40.408   2.581
 1744W        W68153  16.593  34.669  11.044
 1745W        W68154  35.100  36.010   1.894
 1746W        W68155  42.155  33.675  14.424
 1747W        W68156  32.614  34.062  12.569
 1748W        W68157  13.644  30.644  12.475
 1749W        W68158   4.000  12.215  11.541
 1750W        W68159  42.185   6.668  10.736
 1751W        W68160  35.167  41.969   1.734
 1752W        W68161  16.852  27.739  11.137
 1753W        W68162  12.281   2.214   2.877
 1754W        W68163  22.580  11.873  12.544
 1755W        W68164   9.692  36.238   2.619
 1756W        W68165   8.225   7.932   1.201
 1757W        W68166  20.834  24.978   0.448
 1758W        W68167  21.273   2.227  12.289
 1759W        W68168  12.928  42.539   1.409
 1760W        W68169   8.636  27.926  13.071
 1761W        W68170  44.310  28.009   1.050
 1762W        W68171  28.720  24.479  11.990
 1763W        W68172  38.295  31.749   3.259
 1764W        W68173   9.920   2.598   3.626
 1765W        W68174  21.628  31.593  13.271
 1766W        W68175  13.665  15.071   0.960
 1767W        W68176   0.977  31.164   2.799
 1768W        W68177  33.975  24.504   2.066
 1769W        W68178  23.948   8.854  10.258
 1770W        W68179   1.365   2.278   4.517
 1771W        W68180   9.303   3.539  12.495
 1772W        W68181  27.361   3.403   0.800
 1773W        W68182  22.102  23.655   1.016
 1774W        W68183  29.588  22.149   0.673
 1775W        W68184   9.764   1.060   1.862
 1776W        W68185  44.936  42.970   1.777
 1777W        W68186   1.082  41.998   1.412
 1778W        W68187  28.469  22.040  14.979
 1779W        W68188  21.471  13.367   2.368
 1780W        W68189  41.282  33.647   3.187
 1781W        W68190  16.525  26.560  14.078
 1782W        W68191   1.053  15.068  11.192
 1783W        W68192   7.899   4.807  12.663
 1784W        W68193  29.176  43.786  14.377
 1785W        W68194  33.042  37.866   3.306
 1786W        W68195  23.930  36.306   4.338
 1787W        W68196  28.062  19.121   4.423
 1788W        W68197   4.292  36.097   4.573
 1789W        W68198  42.705  32.004  10.990
 1790W        W68199  24.304   7.762   4.496
 1791W        W68200  38.377   9.836   0.716
 1792W        W68201   4.025  18.866  10.351
 1793W        W68202   8.845  34.134   0.577
 1794W        W68203  34.588  27.753   0.658
 1795W        W68204  43.326  43.343   0.891
 1796W        W68205  14.618   5.726   0.759
 1797W        W68206  34.979  20.331  14.826
 1798W        W68207  18.231   8.262  12.877
 1799W        W68208  20.034  16.514  14.484
 1800W        W68209  14.601  13.628  14.686
 1801W        W68210  18.211  38.571   1.475
 1802W        W68211   6.753  15.319   3.295
 1803W        W68212  16.809  36.826  12.889
 1804W        W68213  41.534  36.965  12.537
 1805W        W68214   8.847   3.494   3.764
 1806W        W68215  12.070  11.453   1.745
 1807W        W68216  17.088  44.863   0.795
 1808W        W68217  19.116   4.534  11.954
 1809W        W68218  14.472   6.396  14.082
 1810W        W68219  20.341  21.229  14.005
 1811W        W68220   5.759  15.869  12.062
 1812W        W68221  43.031  26.464  13.455
 1813W        W68222  29.981  35.485  13.934
 1814W        W68223  19.836  28.925   0.698
 1815W        W68224  33.560  31.844  12.939
 1816W        W68225   3.814   6.311  12.931
 1817W        W68226  39.329  41.298   4.167
 1818W        W68227  31.380   6.420  11.652
 1819W        W68228  22.502  37.502   1.332
 1820W        W68229  27.943  19.799   0.254
 1821W        W68230  28.547  36.581   1.477
 1822W        W68231  24.735  44.868  14.262
 1823W        W68232  20.728   5.646   3.716
 1824W        W68233  26.175   2.909   0.070
 1825W        W68234  34.342  40.797  14.930
 1826W        W68235  30.659  21.018  11.127
 1827W        W68236  34.931  39.698   4.597
 1828W        W68237  25.562  38.818  11.108
 1829W        W68238  23.254  17.052  11.653
 1830W        W68239   2.141  44.223   1.082
 1831W        W68240  18.707  10.959   4.577
 1832W        W68241  21.550  36.335  14.867
 1833W        W68242  13.047  25.207  14.705
 1834W        W68243  32.065   8.216   1.834
 1835W        W68244  34.217  13.214   1.375
 1836W        W68245  28.902  43.290   0.854
 1837W        W68246  24.965   5.539   0.064
 1838W        W68247  11.959  31.105   4.127
 1839W        W68248  33.960  24.020  12.958
 1840W        W68249   6.494  12.257  12.071
 1841W        W68250  44.283  40.106   4.813
 1842W        W68251  30.115   5.817  13.602
 1843W        W68252  29.576  42.947  10.354
 1844W        W68253   8.151   4.745  13.097
 1845W        W68254  40.959  38.713  12.314
 1846W        W68255  39.976   0.595  13.804
 1847W        W68256  10.331  24.248  10.976
 1848W        W68257  23.993  19.711  12.748
 1849W        W68258  44.051   8.927   0.915
 1850W        W68259  25.655  36.937   3.636
 1851W        W68260  14.965  20.745   2.608
 1852W        W68261   1.748  24.111   4.426
 1853W        W68262  11.454  44.962   1.459
 1854W        W68263  21.074  44.508   3.100
 1855W        W68264   5.445  15.749  13.520
 1856W        W68265  21.730  42.957  12.123
 1857W        W68266  11.177  30.883  11.139
 1858W        W68267  35.976   6.216  12.842
 1859W        W68268   5.281  25.544   3.233
 1860W        W68269  31.386  16.523   3.543
 1861W        W68270  44.159  33.304   4.679
 1862W        W68271  31.394  17.770   3.286
 1863W        W68272  16.079  17.029  13.655
 1864W        W68273  44.290  29.034  14.111
 1865W        W68274  39.638  27.999   3.354
 1866W        W68275  14.892  34.716  14.920
 1867W        W68276  39.795   0.261  11.104
 1868W        W68277  24.925  21.696   0.341
 1869W        W68278   5.308  19.334  12.125
 1870W        W68279  33.952  30.425   1.294
 1871W        W68280   8.873   7.727   1.030
 1872W        W68281  15.610  39.643  11.268
 1873W        W68282  18.934   4.293   3.107
 1874W        W68283  42.918  34.204   4.725
 1875W        W68284  40.119  10.377  11.695
 1876W        W68285  37.819   2.232   3.710
 1877W        W68286  20.788  43.043   1.035
 1878W        W68287  11.611  41.554  14.556
 1879W        W68288  22.904   7.492   2.724
 1880W        W68289  36.449  38.059  11.288
 1881W        W68290  40.890  16.188  10.327
 1882W        W68291  19.154  18.638   3.899
 1883W        W68292  24.661  15.169   3.651
 1884W        W68293  15.558  22.972  12.453
 1885W        W68294  30.468  20.163   2.710
 1886W        W68295  28.149   9.952  12.140
 1887W        W68296  34.847  35.134  11.974
 1888W        W68297  37.165  22.095   2.820
 1889W        W68298  21.600  21.205   1.546
 1890W        W68299  26.574  42.399  14.414
 1891W        W68300  17.291   2.297  13.418
 1892W        W68301  23.552  40.391   3.677
 1893W        W68302  25.422   7.794  11.984
 1894W        W68303  14.139  36.537  14.015
 1895W        W68304  12.699  21.044  14.426
 1896W        W68305  40.071   4.350  11.472
 1897W        W68306  40.973  13.647   1.420
 1898W        W68307   6.186  26.898   4.070
 1899W        W68308  13.324  36.453  10.477
 1900W        W68309  25.479  44.736   1.730
 1901W        W68310  34.760   1.417   4.152
 1902W        W68311  18.661  44.697   0.428
 1903W        W68312   0.141  22.035   4.100
 1904W        W68313  36.416  10.843  11.067
 1905W        W68314  40.976  25.955   1.773
 1906W        W68315  14.183  12.642  12.341
 1907W        W68316  20.506  25.128   1.965
 1908W        W68317  42.869  17.413   3.431
 1909W        W68318  37.476  13.818  11.543
 1910W        W68319   7.786  33.461   4.472
 1911W        W68320  32.546  33.156   4.126
 1912W        W68321   3.016  41.522   4.811
 1913W        W68322  12.113   6.862   4.119
 1914W        W68323  34.940  17.315   3.664
 1915W        W68324  41.266  44.090  10.686
 1916W        W68325   0.762  43.750  14.256
 1917W        W68326   9.081   5.823   1.803
 1918W        W68327  13.854  40.840  11.725
 1919W        W68328  21.148  34.840   2.893
 1920W        W68329  33.551   7.609   3.189
 1921W        W68330  13.581   8.261   4.371
 1922W        W68331  29.850  21.714  14.326
 1923W        W68332   1.782  43.819  14.345
 1924W        W68333  17.363  27.113  11.026
 1925W        W68334  39.115  43.967   0.019
 1926W        W68335  18.351  14.257  14.983
 1927W        W68336  43.422  18.491   2.697
 1928W        W68337  16.320  44.923   0.015
 1929W        W68338  42.735  28.601   1.068
 1930W        W68339   5.337   1.164  11.932
 1931W        W68340  33.461  40.979  13.114
 1932W        W68341  16.025  19.151   2.211
 1933W        W68342   1.651  26.470  12.501
 1934W        W68343  19.000  20.470   0.232
 1935W        W68344  23.066  23.296  13.892
 1936W        W68345  17.779  37.630   1.779
 1937W        W68346  39.706  22.176  14.422
 1938W        W68347   3.462   5.767   1.105
 1939W        W68348  42.540  39.042  11.453
 1940W        W68349  26.623   0.341   0.555
 1941W        W68350   7.305  33.895   0.435
 1942W        W68351   4.403   7.185  11.262
 1943W        W68352  41.397   5.192  14.948
 1944W        W68353   1.853  19.276  12.205
 1945W        W68354  20.262  26.629   2.857
 1946W        W68355   5.146  12.251   4.039
 1947W        W68356  10.550  33.431   3.980
 1948W        W68357  43.748  19.546   4.474
 1949W        W68358  13.143  10.371  12.564
 1950W        W68359  24.721  36.592  13.653
 1951W        W68360  29.691  29.275   2.421
 1952W        W68361  43.302  28.371  12.219
 1953W        W68362  39.404  13.510  14.361
 1954W        W68363  28.518  15.885  11.072
 1955W        W68364  18.595   2.757  12.960
 1956W        W68365  25.008  13.286  14.186
 1957W        W68366  21.302  28.178  11.140
 1958W        W68367  19.987  16.201  11.303
 1959W        W68368   3.745  21.664  11.453
 1960W        W68369  38.242  21.488   9.502
 1961W        W68370  27.415   4.250  14.843
 1962W        W68371  15.099   2.708  12.494
 1963W        W68372  22.500  44.895  12.364
 1964W        W68373   7.345  26.957  13.368
 1965W        W68374  25.484  37.314   1.082
 1966W        W68375  11.824  41.404  13.687
 1967W        W68376  44.472  22.669  13.996
 1968W        W68377  31.120  42.593   2.663
 1969W        W68378  12.141  36.783   3.072
 1970W        W68379  32.210   3.505  13.435
 1971W        W68380  34.402  17.204   2.603
 1972W        W68381  19.005  44.898   1.935
 1973W        W68382  32.747  31.685   3.588
 1974W        W68383  16.588  28.017   4.870
 1975W        W68384  43.595   0.855  12.603
 1976W        W68385  41.962  42.648   4.063
 1977W        W68386  32.674  14.783  12.972
 1978W        W68387  19.484  14.804  14.321
 1979W        W68388   5.369  40.509  14.898
 1980W        W68389  11.452  25.442  14.320
 1981W        W68390  10.314  42.806   0.971
 1982W        W68391  38.500  24.623  12.603
 1983W        W68392  11.675  16.976  11.014
 1984W        W68393  39.146  37.855   3.916
 1985W        W68394  36.282  35.082  13.394
 1986W        W68395  33.510  18.774   2.826
 1987W        W68396  12.169  35.896  13.075
 1988W        W68397  10.808  25.113  10.852
 1989W        W68398  35.012  25.058   1.318
 1990W        W68399  21.052  36.458   1.628
 1991W        W68400  11.621  27.656  13.401
 1992W        W68401  43.110  22.564   2.206
 1993W        W68402   9.620  41.989  13.399
 1994W        W68403  26.730  38.072  13.057
 1995W        W68404   7.342   6.179  10.662
 1996W        W68405  43.484  14.088  14.316
 1997W        W68406   8.790  39.924  14.895
 1998W        W68407  19.067  44.474  11.954
 1999W        W68408  31.922   9.599   3.686
 2000W        W68409   3.068  17.132   0.842
 2001W        W68410   8.203  16.756   3.635
 2002W        W68411   1.901  24.561   4.675
 2003W        W68412  27.424  17.289  14.355
 2004W        W68413   8.110  20.281  14.890
 2005W        W68414  28.386  36.875   1.898
 2006W        W68415  43.947   8.482   3.244
 2007W        W68416  40.284  17.625   1.099
 2008W        W68417  35.289  12.059  12.510
 2009W        W68418  40.866  10.339  13.374
 2010W        W68419   9.627  21.121  12.595
 2011W        W68420  18.341  23.135   1.004
 2012W        W68421  17.530  11.165  10.738
 2013W        W68422  19.775  38.358   4.612
 2014W        W68423  40.060  28.909   3.146
 2015W        W68424  26.655  29.816   2.876
 2016W        W68425  25.567  18.965  11.423
 2017W        W68426  27.891  42.374   2.495
 2018W        W68427   1.315  13.125   4.214
 2019W        W68428  14.301   6.369  12.536
 2020W        W68429  40.547  28.668  14.633
 2021W        W68430   8.897   7.938  13.863
 2022W        W68431  11.575  29.496   3.761
 2023W        W68432  16.063   4.588  14.893
 2024W        W68433  22.238  40.928  14.806
 2025W        W68434  10.286  39.394  12.813
 2026W        W68435   7.674  42.362  11.518
 2027W        W68436   7.446  40.325  12.397
 2028W        W68437  44.867  14.107  10.735
 2029W        W68438  23.456  22.556  14.836
 2030W        W68439  22.473  15.201   4.866
 2031W        W68440   1.988  13.725  12.017
 2032W        W68441   2.327  19.695   2.009
 2033W        W68442  20.985  33.951  12.082
 2034W        W68443  40.824  23.589   1.358
 2035W        W68444  22.900  37.943  11.565
 2036W        W68445   6.155  11.738   4.442
 2037W        W68446  16.478  42.168   0.733
 2038W        W68447  24.078  28.910  12.629
 2039W        W68448  40.508   1.793  12.524
 2040W        W68449   0.862  18.427   2.254
 2041W        W68450  37.803  27.239   4.051
 2042W        W68451  40.275   4.250  14.414
 2043W        W68452  42.551  15.042   1.429
 2044W        W68453  25.204   9.649   1.803
 2045W        W68454  38.634  20.171   3.752
 2046W        W68455  32.970  18.266   1.675
 2047W        W68456  38.454  13.203   2.659
 2048W        W68457  21.763  30.070   2.846
 2049W        W68458  36.399  23.400  11.046
 2050W        W68459  39.347  30.294  14.780
 2051W        W68460  35.438   0.779   1.948
 2052W        W68461  42.014  24.924  14.339
 2053W        W68462  33.531  26.073   2.317
 2054W        W68463   4.744  21.603  13.006
 2055W        W68464   3.907  18.794   2.642
 2056W        W68465   4.664  34.612  12.080
 2057W        W68466  11.430  40.744  14.393
 2058W        W68467  28.097   3.145  14.104
 2059W        W68468  21.286   7.802  12.062
 2060W        W68469  20.024  16.718   1.436
 2061W        W68470  37.280  14.171  12.895
 2062W        W68471   0.617  44.235   0.853
 2063W        W68472  22.524   4.967  10.464
 2064W        W68473  43.353  29.053  13.502
 2065W        W68474   8.136  31.632   0.795
 2066W        W68475  29.969  14.533  13.940
 2067W        W68476  16.369   0.365   2.340
 2068W        W68477  36.884  29.256  14.442
 2069W        W68478   7.598   8.551   2.300
 2070W        W68479  43.855  15.125  13.347
 2071W        W68480  21.168   1.440  14.577
 2072W        W68481   8.267  43.898  13.853
 2073W        W68482  30.572  44.547  12.923
 2074W        W68483  13.917  29.927  13.964
 2075W        W68484   8.385  41.142  13.018
 2076W        W68485  33.200   9.954   2.587
 2077W        W68486   1.813  44.971   2.753
 2078W        W68487   7.399  22.539   1.337
 2079W        W68488  24.212  44.771   4.211
 2080W        W68489   6.936   8.926  14.970
 2081W        W68490   9.195  10.674  11.319
 2082W        W68491  15.661   5.839   3.999
 2083W        W68492   7.674  43.787  10.715
 2084W        W68493   5.844  32.330  12.565
 2085W        W68494   0.284   7.830  11.317
 2086W        W68495  33.098   8.235  10.403
 2087W        W68496  22.702  31.453   2.446
 2088W        W68497  41.007  36.348  13.906
 2089W        W68498  12.560   2.033  11.518
 2090W        W68499  19.917  14.770  14.626
 2091W        W68500  44.183  44.494   4.461
 2092W        W68501  37.194  10.409   1.408
 2093W        W68502   9.270  22.334  11.259
 2094W        W68503  11.595   0.586   2.768
 2095W        W68504  28.145   4.485   1.321
 2096W        W68505   0.074  26.653   4.962
 2097W        W68506   1.355   6.321   3.243
 2098W        W68507  38.495  29.777  11.759
 2099W        W68508  27.561  35.895  12.980
 2100W        W68509  15.575  35.870  10.659
 2101W        W68510  31.371  13.376  12.086
 2102W        W68511  27.443  18.216   0.299
 2103W        W68512   0.361  44.375   4.003
 2104W        W68513   2.886   0.987   1.929
 2105W        W68514  11.382  43.788   2.076
 2106W        W68515  11.424  15.306   2.049
 2107W        W68516   0.980   6.917   4.444
 2108W        W68517  38.762  39.429   3.330
 2109W        W68518   0.500   8.256  12.855
 2110W        W68519  33.611   0.672   2.202
 2111W        W68520  30.431   8.207  12.900
 2112W        W68521  14.317  33.042  10.618
 2113W        W68522  12.561  28.980  10.819
 2114W        W68523  13.721  20.131  14.028
 2115W        W68524   1.413  10.708  14.238
 2116W        W68525  24.874   1.610   1.012
 2117W        W68526  17.087  39.509   0.936
 2118W        W68527  42.218  22.537  13.462
 2119W        W68528   5.788  11.619   4.103
 2120W        W68529  43.711  24.822  13.776
 2121W        W68530  13.333  20.612   5.191
 2122W        W68531  39.923  29.340   3.868
 2123W        W68532  44.601   2.945   0.227
 2124W        W68533  14.876  11.838  10.277
 2125W        W68534   4.824  32.636   1.216
 2126W        W68535  43.321   6.473  14.067
 2127W        W68536  38.537  41.991  14.410
 2128W        W68537  43.548  29.029   0.878
 2129W        W68538  20.781  10.297   0.659
 2130W        W68539  10.660   5.203   3.048
 2131W        W68540  14.299  33.799  11.380
 2132W        W68541  38.932  41.588   3.516
 2133W        W68542  11.064  37.071   4.410
 2134W        W68543  29.238  31.050  10.662
 2135W        W68544  33.159   4.190   4.502
 2136W        W68545  26.533  26.385  10.911
 2137W        W68546   1.905  31.522  14.765
 2138W        W68547   0.049  39.505   2.131
 2139W        W68548  21.742  11.441  12.966
 2140W        W68549  43.249  26.212  14.376
 2141W        W68550  31.100  44.870  12.584
 2142W        W68551  30.467  38.974   1.286
 2143W        W68552   4.770  13.156   1.275
 2144W        W68553  34.819  28.986  12.166
 2145W        W68554  22.492  19.262   2.773
 2146W        W68555  13.103   4.380  10.124
 2147W        W68556  22.001  42.428  11.027
 2148W        W68557   7.179  39.928  13.882
 2149W        W68558   7.825   4.385  11.860
 2150W        W68559  21.106   2.889   3.812
 2151W        W68560  16.230  22.692  12.611
 2152W        W68561  11.292  42.791   3.564
 2153W        W68562  40.239  30.032  10.682
 2154W        W68563   2.560  33.147  12.620
 2155W        W68564   1.813  21.511   1.253
 2156W        W68565  43.607   0.339  14.292
 2157W        W68566   0.162  35.080   3.775
 2158W        W68567  11.836  24.617   1.183
 2159W        W68568  18.123  44.220  11.622
 2160W        W68569  41.603  19.578   3.298
 2161W        W68570   3.652  15.760  14.520
 2162W        W68571  15.282  17.999   1.269
 2163W        W68572  38.421  20.761  12.097
 2164W        W68573  31.363  20.230   3.786
 2165W        W68574  25.178  22.030  14.346
 2166W        W68575  30.387  37.641  14.442
 2167W        W68576   2.915   1.266   4.706
 2168W        W68577  28.068  18.253  10.749
 2169W        W68578   7.642   4.385  10.693
 2170W        W68579  18.128  20.736   2.056
 2171W        W68580   8.176   4.132   3.651
 2172W        W68581  29.875   8.926   1.922
 2173W        W68582   8.734   6.354   4.066
 2174W        W68583  13.542   3.055  14.086
 2175W        W68584  11.704  33.566   1.207
 2176W        W68585  29.033  32.126   4.131
 2177W        W68586  22.455  44.437  12.098
 2178W        W68587  35.551  16.743   4.979
 2179W        W68588  26.615   3.069   4.344
 2180W        W68589   2.735   0.067   1.960
 2181W        W68590  16.718  30.441  12.580
 2182W        W68591  32.513  39.051   1.295
 2183W        W68592  24.595  20.511  13.995
 2184W        W68593  12.372  16.708  11.609
 2185W        W68594  19.360   8.899   0.832
 2186W        W68595  31.888  23.540  12.922
 2187W        W68596   0.318  14.517   3.939
 2188W        W68597  29.733   9.847  10.936
 2189W        W68598  28.523  33.095  14.742
 2190W        W68599  32.349  39.379   3.611
 2191W        W68600   4.274  22.265  14.891
 2192W        W68601  18.607  20.993  12.434
 2193W        W68602  30.658  26.010   0.868
 2194W        W68603  32.136  25.438  11.119
 2195W        W68604  26.541  22.658   3.331
 2196W        W68605   4.151  31.496  14.256
 2197W        W68606   0.262  38.804  11.619
 2198W        W68607   4.508  33.656  14.286
 2199W        W68608  43.329   1.408  10.719
 2200W        W68609  34.051   6.664   4.785
 2201W        W68610  44.377  11.557   3.755
 2202W        W68611  37.450   6.903   1.966
 2203W        W68612   7.231  19.250  12.857
 2204W        W68613  35.036  16.832  12.452
 2205W        W68614  43.470  21.274  14.469
 2206W        W68615  21.533  12.747  13.770
 2207W        W68616   2.892  31.571   0.806
 2208W        W68617  42.627  11.810  10.114
 2209W        W68618  19.669   4.701   0.192
 2210W        W68619  20.487  42.789  14.132
 2211W        W68620  30.410  24.253  13.423
 2212W        W68621  40.825  19.299  13.421
 2213W        W68622  20.808  16.186   2.283
 2214W        W68623  15.770   3.759  13.569
 2215W        W68624  34.332   1.529   1.202
 2216W        W68625  35.051  10.992  12.999
 2217W        W68626  25.080  17.314   2.975
 2218W        W68627   5.480   5.743   0.905
 2219W        W68628  40.516   0.145   2.908
 2220W        W68629  26.611  42.322  10.539
 2221W        W68630  21.619  35.328  14.817
 2222W        W68631   8.406  19.647  11.121
 2223W        W68632   8.414  34.441   2.266
 2224W        W68633  17.813  29.703   2.845
 2225W        W68634  40.059  36.468  14.189
 2226W        W68635  35.826  18.727  13.492
 2227W        W68636   2.543  41.023   0.953
 2228W        W68637  22.908  24.644  10.215
 2229W        W68638  40.820  30.119   3.410
 2230W        W68639  34.903   3.984  13.697
 2231W        W68640  28.561  26.748  13.370
 2232W        W68641  20.987  40.378   3.313
 2233W        W68642  15.517  22.005  12.336
 2234W        W68643  32.927  23.695   0.473
 2235W        W68644  31.761  30.066   0.961
 2236W        W68645  27.398   0.338  12.479
 2237W        W68646  36.846   8.716   4.168
 2238W        W68647  42.723   9.247   3.058
 2239W        W68648  40.097  38.354   4.802
 2240W        W68649  17.785  28.175   0.534
 2241W        W68650   9.881  42.835   0.234
 2242W        W68651  36.096  15.250   1.642
 2243W        W68652  16.718   7.205  10.910
 2244W        W68653   8.094   9.323   3.454
 2245W        W68654  41.986  17.264  11.538
 2246W        W68655  40.249  39.758  11.205
 2247W        W68656  18.179  42.277   3.844
 2248W        W68657  19.084  26.837  10.290
 2249W        W68658  14.188  12.787  13.239
 2250W        W68659  33.937   6.945  13.455
 2251W        W68660   5.336  35.022   3.141
 2252W        W68661  11.802   8.768   3.115
 2253W        W68662   6.959  20.561  11.145
 2254W        W68663  10.118  24.723  14.877
 2255W        W68664  17.317  14.726  11.118
 2256W        W68665  39.556  17.692   1.839
 2257W        W68666  42.998   6.919   4.063
 2258W        W68667   6.800  18.468   0.727
 2259W        W68668  27.673  17.537  13.276
 2260W        W68669   6.393  17.695  10.270
 2261W        W68670  41.760  27.906   1.790
 2262W        W68671  32.086  28.090   3.257
 2263W        W68672  13.957  30.206   4.015
 2264W        W68673  38.334  20.228  14.375
 2265W        W68674  36.881  39.407   2.721
 2266W        W68675   8.397  21.152  12.773
 2267W        W68676  17.956   6.435   0.881
 2268W        W68677  18.642  32.482   2.752
 2269W        W68678  37.429  37.689  11.659
 2270W        W68679   2.838  16.691   3.892
 2271W        W68680   9.392  18.646  10.677
 2272W        W68681  30.166  37.369   4.849
 2273W        W68682  25.602   3.683   1.312
 2274W        W68683  20.149  21.728   2.087
 2275W        W68684  15.698  26.977   0.759
 2276W        W68685  13.901  37.199  11.909
 2277W        W68686  24.768   7.727   2.534
 2278W        W68687  11.698  14.820  12.381
 2279W        W68688  21.453   1.297   2.943
 2280W        W68689  25.031  42.352   3.337
 2281W        W68690  40.264  34.833  11.768
 2282W        W68691  32.047  29.102   4.310
 2283W        W68692  26.256  11.430  10.801
 2284W        W68693  25.257  34.571  11.740
 2285W        W68694  13.209   9.262  14.036
 2286W        W68695   7.851  13.838   2.648
 2287W        W68696  38.566  39.870  13.429
 2288W        W68697  15.629   1.721   3.946
 2289W        W68698  43.917  30.883  13.905
 2290W        W68699  34.215  35.549  14.489
 2291W        W68700   5.290  10.485  13.824
 2292W        W68701  42.902  41.580  13.070
 2293W        W68702  22.702  26.303   2.822
 2294W        W68703  24.935  15.299   2.007
 2295W        W68704  28.492  28.981   2.682
 2296W        W68705   2.473  34.729  11.128
 2297W        W68706  25.339  25.562  13.869
 2298W        W68707   9.227  25.359   1.927
 2299W        W68708  28.743  34.499  13.011
 2300W        W68709  17.310  38.011  12.728
 2301W        W68710   0.832  25.750  12.133
 2302W        W68711  17.285  33.017  11.589
 2303W        W68712  20.900   4.744  12.055
 2304W        W68713  24.407  26.284   4.151
 2305W        W68714  24.684  20.956   2.653
 2306W        W68715  22.083   3.823  14.317
 2307W        W68716  38.006  21.720  14.292
 2308W        W68717  40.542   7.071   2.779
 2309W        W68718  35.214  22.442   0.469
 2310W        W68719  42.310  26.758  11.306
 2311W        W68720   5.442  40.232   2.126
 2312W        W68721  12.807   9.240   0.842
 2313W        W68722  43.705  40.603   1.719
 2314W        W68723  41.259  28.370   4.798
 2315W        W68724  35.632   9.681   1.215
 2316W        W68725  38.372   2.036   2.288
 2317W        W68726   1.667  42.077   4.494
 2318W        W68727  43.914  18.458   1.295
 2319W        W68728  32.575  23.215   2.192
 2320W        W68729   0.909  16.342  11.960
 2321W        W68730  40.886  13.808   3.619
 2322W        W68731  33.060  22.655   0.397
 2323W        W68732  25.645   3.819   0.823
 2324W        W68733  42.692  32.377   2.709
 2325W        W68734  20.610  17.503  14.231
 2326W        W68735  44.934   0.518   2.789
 2327W        W68736  15.194   4.367  11.567
 2328W        W68737  17.898  19.251   3.653
 2329W        W68738   0.322  20.031  14.068
 2330W        W68739  39.308  44.327   0.903
 2331W        W68740  13.135   5.710   2.267
 2332W        W68741   5.287  27.910  14.073
 2333W        W68742  41.469  30.588   1.392
 2334W        W68743  36.581   5.794  11.176
 2335W        W68744   7.140  18.115   0.932
 2336W        W68745   8.213   2.872  10.269
 2337W        W68746  19.097  29.012   4.130
 2338W        W68747  44.319  40.086  11.255
 2339W        W68748   6.949  19.481  12.483
 2340W        W68749   2.253  21.297  10.407
 2341W        W68750   8.793  22.009  13.400
 2342W        W68751  13.231  22.526   3.376
 2343W        W68752  15.613   2.346  14.759
 2344W        W68753  18.257  28.651   2.348
 2345W        W68754  29.804  26.924  13.990
 2346W        W68755  11.178  40.976   3.739
 2347W        W68756  34.495   6.946   2.243
 2348W        W68757  35.624  17.956  14.500
 2349W        W68758   1.935  15.347   0.212
 2350W        W68759  32.102  14.555  11.070
 2351W        W68760  42.242  38.196  12.836
 2352W        W68761  44.227  30.020  14.411
 2353W        W68762  36.640   3.135  13.092
 2354W        W68763   6.144  18.897   3.693
 2355W        W68764  17.838  15.070   0.333
 2356W        W68765  23.790  17.038  10.874
 2357W        W68766  32.685   9.255  12.442
 2358W        W68767  32.936  12.151   0.223
 2359W        W68768  36.633  15.129  13.795
 2360W        W68769  34.347  13.387  14.984
 2361W        W68770  24.188  15.302  13.909
 2362W        W68771  41.955  44.087  12.961
 2363W        W68772  25.960  25.650   3.147
 2364W        W68773  16.834  19.302   2.656
 2365W        W68774  40.946  13.363  11.835
 2366W        W68775  22.114   8.827   0.758
 2367W        W68776  29.487  17.718  11.199
 2368W        W68777  27.559  20.202  12.326
 2369W        W68778  39.378  38.986   1.663
 2370W        W68779   0.810   8.779  14.560
 2371W        W68780  19.544  27.767  11.708
 2372W        W68781  19.543  21.622  14.346
 2373W        W68782  22.536  14.118   1.721
 2374W        W68783  24.519  25.825   2.874
 2375W        W68784  17.719  20.018   0.284
 2376W        W68785  29.569   0.673  11.607
 2377W        W68786  18.139  18.822   0.200
 2378W        W68787  41.720  26.630   0.015
 2379W        W68788  11.835  11.768  11.699
 2380W        W68789  30.561  34.086   0.413
 2381W        W68790  40.378  12.030   0.471
 2382W        W68791  11.195  10.781  13.754
 2383W        W68792  28.354  25.439  12.115
 2384W        W68793  23.906  19.583  11.567
 2385W        W68794   9.144   2.996   0.945
 2386W        W68795  40.382  29.065  14.919
 2387W        W68796  30.976   8.037   4.209
 2388W        W68797  27.539   0.978   2.842
 2389W        W68798  25.646   0.345  13.349
 2390W        W68799   8.986  26.200   2.239
 2391W        W68800  13.363  23.611  11.920
 2392W        W68801  12.037   2.815  11.512
 2393W        W68802  27.516  21.202   2.332
 2394W        W68803  38.525   7.290   4.627
 2395W        W68804  29.944  25.882  12.057
 2396W        W68805  37.480   3.250   1.700
 2397W        W68806  33.939  32.091  13.792
 2398W        W68807  29.343  32.815   0.387
 2399W        W68808  40.022  41.915  14.751
 2400W        W68809  44.374  10.816   1.809
 2401W        W68810  24.065   1.181  10.903
 2402W        W68811   6.865   5.284  10.858
 2403W        W68812  13.359   1.300  14.065
 2404W        W68813  19.549   8.156  14.074
 2405W        W68814  23.453   0.791   4.243
 2406W        W68815  30.121   5.080  12.445
 2407W        W68816  24.617  18.216  12.810
 2408W        W68817   9.138  30.201   3.290
 2409W        W68818  35.525  19.692   2.447
 2410W        W68819  25.683  33.563   0.738
 2411W        W68820  13.124  28.569   4.431
 2412W        W68821  17.671   8.301  10.570
 2413W        W68822  39.461  27.716   2.824
 2414W        W68823  30.102  31.059  13.606
 2415W        W68824  27.046   3.319   1.442
 2416W        W68825  17.866  12.594  14.352
 2417W        W68826  32.792  12.709   4.541
 2418W        W68827  15.116  14.890   3.587
 2419W        W68828  23.926  42.651   3.830
 2420W        W68829  18.646  41.013  11.692
 2421W        W68830  33.516  25.800  11.856
 2422W        W68831  11.161  21.629   3.721
 2423W        W68832  16.626  40.482   2.262
 2424W        W68833  18.811   0.214   3.783
 2425W        W68834  44.285   1.199  12.116
 2426W        W68835  38.543  36.828   3.357
 2427W        W68836  11.241   4.180  11.199
 2428W        W68837  25.098  22.808  10.319
 2429W        W68838  13.313  30.034   4.097
 2430W        W68839  42.053  30.072   0.678
 2431W        W68840  11.243  30.438   3.172
 2432W        W68841  14.841  11.383  13.450
 2433W        W68842  24.202  34.082  13.074
 2434W        W68843  22.033   5.129  14.777
 2435W        W68844  19.270  17.856   2.772
 2436W        W68845   3.366   3.855  12.095
 2437W        W68846  27.144   6.692   3.614
 2438W        W68847  26.008  42.403   4.394
 2439W        W68848  36.368  27.033  14.792
 2440W        W68849  30.676   9.283   0.590
 2441W        W68850  41.798  41.032   2.622
 2442W        W68851  33.645   1.670   2.366
 2443W        W68852   8.142  22.109  13.841
 2444W        W68853  34.252   6.154   1.111
 2445W        W68854  31.951  23.607   0.383
 2446W        W68855  42.777  32.993   2.075
 2447W        W68856  40.412  28.145   2.810
 2448W        W68857  16.646  26.098  13.490
 2449W        W68858  18.927  14.655   0.003
 2450W        W68859  28.946  40.390  14.247
 2451W        W68860  14.668   0.902   5.614
 2452W        W68861   6.361  26.983   2.139
 2453W        W68862  23.035   2.247   0.802
 2454W        W68863  12.168  20.294   3.121
 2455W        W68864  25.441   7.199  14.948
 2456W        W68865  20.256  34.673  12.598
 2457W        W68866   4.368  14.359   4.062
 2458W        W68867  24.248  14.643   0.890
 2459W        W68868   2.569  14.150   3.401
 2460W        W68869  28.906  25.684   3.279
 2461W        W68870  34.664   5.608   2.580
 2462W        W68871  35.673  21.016   2.705
 2463W        W68872  12.230  34.582  11.187
 2464W        W68873  42.919  16.034  10.378
 2465W        W68874  31.122  23.072   1.253
 2466W        W68875  18.821  11.331   0.728
 2467W        W68876  37.519  34.556   3.956
 2468W        W68877  29.425  28.037   3.069
 2469W        W68878   5.969   9.927   4.489
 2470W        W68879  37.544  27.627  12.545
 2471W        W68880  38.400  23.999   0.550
 2472W        W68881  17.622  30.233  12.002
 2473W        W68882  17.841  36.699  14.493
 2474W        W68883  42.342  42.345   0.725
 2475W        W68884   2.846  14.899  11.115
 2476W        W68885  33.659  43.934   1.205
 2477W        W68886   5.403  40.578  12.776
 2478W        W68887  38.269  43.774   3.192
 2479W        W68888   7.666  23.072   2.230
 2480W        W68889  38.969  15.093  13.559
 2481W        W68890  14.041  22.467   0.157
 2482W        W68891  42.902  30.087  11.144
 2483W        W68892  15.330  40.285  12.913
 2484W        W68893  25.919  26.580  12.558
 2485W        W68894  28.831  11.584  12.143
 2486W        W68895  24.006  28.403  14.753
 2487W        W68896   6.121  22.416   2.227
 2488W        W68897   0.963  41.248  11.215
 2489W        W68898  16.018  43.745  13.904
 2490W        W68899   8.613   0.982  13.415
 2491W        W68900  38.505  20.011   0.410
 2492W        W68901  42.885  13.946  14.732
 2493W        W68902  34.546   5.308   1.021
 2494W        W68903  35.260  26.967  13.896
 2495W        W68904   0.947  37.873   3.146
 2496W        W68905   1.768  13.335  13.542
 2497W        W68906  13.597  40.317  13.353
 2498W        W68907   6.416  25.913   0.543
 2499W        W68908   3.485  15.811  11.972
 2500W        W68909  10.069  38.112   1.968
 2501W        W68910   7.168  27.958  12.014
 2502W        W68911  43.269  35.254   2.042
 2503W        W68912  40.915  15.887   3.534
 2504W        W68913   2.041  15.304  11.122
 2505W        W68914  17.056  14.991  11.581
 2506W        W68915  22.986  10.278   1.202
 2507W        W68916  32.373  11.607   4.950
 2508W        W68917  25.234   0.431   3.295
 2509W        W68918  20.759  29.071  13.055
 2510W        W68919  22.226  16.958  14.391
 2511W        W68920  31.651  15.553   1.360
 2512W        W68921  19.076  15.187   4.684
 2513W        W68922   5.392  32.550  14.472
 2514W        W68923  19.729  36.928  12.539
 2515W        W68924   6.692  34.524   5.160
 2516W        W68925   5.455  21.226   5.067
 2517W        W68926  20.204  30.341  11.065
 2518W        W68927   6.780  19.954   1.167
 2519W        W68928  38.887  43.512   2.428
 2520W        W68929  31.987  10.688   2.563
 2521W        W68930  41.772  37.576  11.832
 2522W        W68931  36.638  41.575   2.615
 2523W        W68932   1.059  27.933  11.097
 2524W        W68933  20.223  13.692  11.869
 2525W        W68934  16.686  42.181   4.219
 2526W        W68935  26.120   0.164  14.414
 2527W        W68936  31.424  30.331   0.063
 2528W        W68937  15.916  22.558   3.056
 2529W        W68938   7.457  34.373   0.856
 2530W        W68939  44.478   8.621   0.897
 2531W        W68940   8.918  10.108  13.982
 2532W        W68941  43.167   5.018   0.724
 2533W        W68942  43.007  43.496   5.090
 2534W        W68943   9.150   1.100   0.721
 2535W        W68944  18.482   8.122   3.691
 2536W        W68945  35.872  24.660  10.505
 2537W        W68946  38.657  39.341  13.366
 2538W        W68947  26.106  22.830   0.869
 2539W        W68948  21.723  33.409  11.953
 2540W        W68949  11.208  17.079   1.579
 2541W        W68950  20.704  26.966   1.244
 2542W        W68951  20.921  36.262   5.106
 2543W        W68952  33.108  16.680  14.418
 2544W        W68953  14.540  30.255   5.152
 2545W        W68954  44.236   9.630  13.373
 2546W        W68955  35.100  32.854   2.024
 2547W        W68956  41.135  39.971   2.293
 2548W        W68957  39.452  19.573  13.559
 2549W        W68958  20.792  15.030  11.236
 2550W        W68959  34.348   0.545  14.856
 2551W        W68960   1.711  27.156  11.978
 2552W        W68961  19.282   4.053   2.785
 2553W        W68962   2.999  43.295  11.168
 2554W        W68963   5.716  15.036   1.240
 2555W        W68964  29.974   9.457  11.724
 2556W        W68965  35.597  44.746  13.238
 2557W        W68966  43.750  15.260  14.313
 2558W        W68967   9.322  40.623   0.806
 2559W        W68968  28.164  19.198   3.373
 2560W        W68969  39.559  11.599  14.155
 2561W        W68970  25.339  28.882  11.189
 2562W        W68971  37.544   8.306   3.758
 2563W        W68972  11.637  43.790  14.312
 2564W        W68973  21.548  37.436   3.083
 2565W        W68974  26.042  39.834   4.527
 2566W        W68975  29.150  44.017   4.506
 2567W        W68976  39.038   6.587   4.354
 2568W        W68977  33.654  20.637   0.891
 2569W        W68978   6.019   1.265  13.515
 2570W        W68979   5.908  43.546   0.949
 2571W        W68980  31.925   7.860  11.097
 2572W        W68981  20.822   1.873   1.380
 2573W        W68982  18.344   8.801  10.759
 2574W        W68983  43.602  28.062   4.720
 2575W        W68984  24.041  11.677   5.056
 2576W        W68985  15.658  12.865  13.551
 2577W        W68986   5.629  21.279  11.107
 2578W        W68987   6.801  23.143  12.130
 2579W        W68988   8.357   8.276  10.808
 2580W        W68989  11.037   0.924  14.850
 2581W        W68990   7.445  12.215   2.261
 2582W        W68991  15.380  18.642  13.898
 2583W        W68992   9.321   6.243   0.303
 2584W        W68993  22.133  33.001   0.432
 2585W        W68994  19.414  38.155   0.859
 2586W        W68995  44.024  30.362  12.986
 2587W        W68996  44.364   4.429   2.840
 2588W        W68997  16.798  32.537   2.715
 2589W        W68998  39.376   0.831   1.330
 2590W        W68999  21.299   7.353  12.900
 2591W        W69000  26.534  42.776  10.750
 2592W        W69001  10.934  29.601   2.273
 2593W        W69002   9.040   6.843   2.205
 2594W        W69003  16.593   7.369   4.679
 2595W        W69004  21.848   7.190   1.869
 2596W        W69005  41.254  41.475   0.378
 2597W        W69006  35.579   8.351   3.755
 2598W        W69007  31.114  20.992   3.994
 2599W        W69008  33.550  35.444   4.968
 2600W        W69009  42.503   4.692   3.714
 2601W        W69010  18.620  40.902  12.217
 2602W        W69011   7.086  42.724  11.705
 2603W        W69012  26.143  20.093  13.456
 2604W        W69013  37.452  30.053  10.791
 2605W        W69014  12.364   9.879   2.892
 2606W        W69015  43.499  24.219   3.831
 2607W        W69016  37.990  36.429   4.104
 2608W        W69017  10.255  24.469  12.372
 2609W        W69018   2.794  42.950  10.414
 2610W        W69019  41.367  24.984   2.940
 2611W        W69020  25.148  15.202   2.867
 2612W        W69021   4.949  43.311   4.654
 2613W        W69022  37.291  16.760   4.610
 2614W        W69023  38.864  35.815   0.807
 2615W        W69024  15.771  14.841   2.260
 2616W        W69025  20.679  25.760  12.378
 2617W        W69026  24.568  43.531  14.766
 2618W        W69027  24.450  10.211  13.019
 2619W        W69028  29.333  35.857  12.887
 2620W        W69029  33.614  32.491  11.074
 2621W        W69030   4.022  12.296   2.195
 2622W        W69031  29.710  30.712  11.511
 2623W        W69032  13.291  19.723  12.773
 2624W        W69033  28.888  11.181  13.922
 2625W        W69034  19.578  19.677   2.180
 2626W        W69035  32.941  24.126   2.644
 2627W        W69036  41.908  10.665   3.133
 2628W        W69037  39.522  21.225   2.386
 2629W        W69038  33.261  25.962   1.878
 2630W        W69039   4.473  17.047   3.671
 2631W        W69040  44.010  30.221   2.256
 2632W        W69041   2.214   2.713  12.953
 2633W        W69042  15.807   1.447  11.979
 2634W        W69043   5.900  44.003  13.304
 2635W        W69044   8.643  11.853  11.391
 2636W        W69045  12.077  21.009   2.616
 2637W        W69046  43.180  23.973   2.313
 2638W        W69047  19.547  32.014  11.153
 2639W        W69048  16.721  33.119   1.334
 2640W        W69049  26.056  13.626   3.789
 2641W        W69050  27.568   1.482   0.766
 2642W        W69051   9.708  38.875   0.508
 2643W        W69052  32.426  26.949  13.448
 2644W        W69053   9.805  37.765   2.793
 2645W        W69054  14.946   7.178  12.857
 2646W        W69055  41.462  26.592  14.581
 2647W        W69056   1.193  43.357  11.423
 2648W        W69057  28.185  38.564  13.840
 2649W        W69058  11.427  30.606  10.718
 2650W        W69059  40.419  12.269   1.618
 2651W        W69060  29.852  35.494  10.487
 2652W        W69061  24.964   2.198   1.004
 2653W        W69062  37.916   1.650   3.767
 2654W        W69063  14.784  36.443   4.088
 2655W        W69064  38.540   1.743   2.669
 2656W        W69065  10.449   9.727  13.329
 2657W        W69066  36.012  25.554  13.917
 2658W        W69067  12.388   1.471  13.928
 2659W        W69068  42.434  20.962   2.558
 2660W        W69069  39.222  27.463  14.457
 2661W        W69070   6.165  36.035   2.740
 2662W        W69071  31.950  12.381   4.742
 2663W        W69072   3.505  37.840  14.840
 2664W        W69073   8.908  30.035   3.716
 2665W        W69074   7.631  21.254   0.921
 2666W        W69075  17.621  25.097   4.581
 2667W        W69076  41.919  31.018  13.380
 2668W        W69077  42.425  30.054  11.331
 2669W        W69078  31.435  12.956   3.123
 2670W        W69079   7.366   5.961  12.336
 2671W        W69080  20.257   8.753  11.178
 2672W        W69081  28.637   1.183  11.669
 2673W        W69082  44.830  11.474  11.062
 2674W        W69083  34.443  38.357   1.054
 2675W        W69084  27.930  41.375   1.801
 2676W        W69085  21.589  23.147   1.929
 2677W        W69086   3.282  12.246  10.759
 2678W        W69087  33.375  43.778   3.614
 2679W        W69088  25.765  21.262   3.169
 2680W        W69089  12.589  20.826   4.456
 2681W        W69090  43.244   7.043  12.840
 2682W        W69091  21.102  11.608   0.828
 2683W        W69092  23.201  42.414   3.872
 2684W        W69093  24.915  32.033   1.412
 2685W        W69094  12.741  32.189  13.907
 2686W        W69095  39.715  20.594   1.121
 2687W        W69096  30.150   5.821  11.236
 2688W        W69097  16.744  36.844  12.391
 2689W        W69098  10.329   1.766  13.286
 2690W        W69099  31.251  37.980   3.823
 2691W        W69100  29.690  11.745   3.456
 2692W        W69101  24.499  24.855  12.502
 2693W        W69102  25.160  13.594  11.952
 2694W        W69103  15.554  39.955  10.629
 2695W        W69104  43.466   0.154   3.123
 2696W        W69105   1.117  36.152  11.829
 2697W        W69106   1.033  11.506  11.208
 2698W        W69107  14.667  42.532   3.249
 2699W        W69108  25.159  18.075   0.082
 2700W        W69109  26.741  33.683   4.599
 2701W        W69110  41.624  41.890   2.534
 2702W        W69111  12.325   1.922   0.968
 2703W        W69112  16.009   9.090   1.925
 2704W        W69113  17.132  14.638  14.347
 2705W        W69114  11.676  10.885  13.586
 2706W        W69115  31.537   5.446   0.377
 2707W        W69116   7.546  28.645   3.693
 2708W        W69117  11.898  44.587   2.330
 2709W        W69118   9.118  16.375   4.288
 2710W        W69119  25.261   7.349   4.886
 2711W        W69120  29.153  38.005   3.567
 2712W        W69121  10.380  19.615   2.273
 2713W        W69122  20.049  14.211   0.461
 2714W        W69123  32.550  33.063   3.527
 2715W        W69124   5.335  14.715   2.817
 2716W        W69125   4.285  27.979   3.041
 2717W        W69126  30.105   9.639  11.256
 2718W        W69127  18.793   7.902   1.918
 2719W        W69128   2.326  10.598  10.731
 2720W        W69129  41.830   6.291  10.745
 2721W        W69130   7.883   0.864  12.343
 2722W        W69131  33.233  14.360  10.027
 2723W        W69132  34.721  24.963   4.476
 2724W        W69133   9.780  21.823   0.743
 2725W        W69134  24.269  15.392  12.991
 2726W        W69135  29.563  14.267  10.815
 2727W        W69136  16.811  16.003  11.179
 2728W        W69137  13.601  41.405   2.806
 2729W        W69138  35.777  22.708  10.923
 2730W        W69139  32.849  25.739  13.081
 2731W        W69140  34.036  39.038  13.396
 2732W        W69141   8.972  28.047   4.284
 2733W        W69142   1.012  37.302  12.202
 2734W        W69143  11.018  14.297  11.977
 2735W        W69144  25.918  44.207  14.490
 2736W        W69145  12.418  14.224   0.892
 2737W        W69146  23.415   0.881   1.718
 2738W        W69147  38.392  37.780  13.146
 2739W        W69148  17.719  30.103   2.159
 2740W        W69149  10.441   3.211   2.162
 2741W        W69150  24.036  10.601   3.612
 2742W        W69151  34.056  17.859  12.518
 2743W        W69152   3.290  18.863  12.846
 2744W        W69153   1.951  39.577  12.869
 2745W        W69154  42.864  11.572  14.535
 2746W        W69155  21.604  22.578  11.250
 2747W        W69156   9.451  30.936  12.468
 2748W        W69157  32.913  31.304   0.977
 2749W        W69158   7.341   9.405  14.506
 2750W        W69159  40.411  22.422  13.623
 2751W        W69160  10.808  32.339   3.242
 2752W        W69161   0.294  40.489  13.985
 2753W        W69162  32.921  40.860  10.749
 2754W        W69163  14.153  32.303  12.335
 2755W        W69164  11.119  43.995  14.949
 2756W        W69165  33.072  33.076   4.336
 2757W        W69166   0.015  12.333  13.379
 2758W        W69167  24.698  43.813   0.202
 2759W        W69168   6.478  30.372   0.744
 2760W        W69169  12.235   5.176   1.102
 2761W        W69170  36.138   0.009  14.279
 2762W        W69171  17.767  20.507   1.266
 2763W        W69172  10.822   2.778   0.906
 2764W        W69173  27.991  33.100  12.452
 2765W        W69174  22.469  36.665   0.229
 2766W        W69175  25.631  25.838  12.908
 2767W        W69176  24.985   9.296   2.587
 2768W        W69177  17.564  20.016  11.551
 2769W        W69178  21.392  22.811   1.233
 2770W        W69179  12.316  33.849   2.247
 2771W        W69180  21.480  15.346  12.582
 2772W        W69181   3.018  30.460  11.611
 2773W        W69182   6.824  22.510  11.752
 2774W        W69183  19.554  20.095  12.484
 2775W        W69184  16.425  38.714   4.034
 2776W        W69185  43.057   5.960   4.578
 2777W        W69186  16.253  35.742  11.754
 2778W        W69187  35.992  13.218  11.993
 2779W        W69188  10.445  29.921  11.154
 2780W        W69189  23.009  28.875  13.543
 2781W        W69190  22.752   4.147   3.315
 2782W        W69191  20.111  36.414  11.905
 2783W        W69192   3.924  28.582  14.301
 2784W        W69193  24.734  12.670   4.500
 2785W        W69194  25.293   3.944   4.078
 2786W        W69195  10.343   2.711   3.258
 2787W        W69196  40.013   6.942   1.500
 2788W        W69197  31.422  33.034  13.980
 2789W        W69198  42.417  10.805   1.161
 2790W        W69199  11.981  37.984   9.608
 2791W        W69200  35.585  14.173   0.019
 2792W        W69201  27.326  38.243  14.907
 2793W        W69202  38.767  18.193   0.353
 2794W        W69203   1.952  20.143  10.612
 2795W        W69204  42.980  38.947   1.977
 2796W        W69205  33.586  13.573  13.028
 2797W        W69206  32.705  16.691   1.133
 2798W        W69207  14.603  27.165   3.788
 2799W        W69208  34.622  30.544  12.058
 2800W        W69209   4.439  10.839   1.983
 2801W        W69210   1.403   8.628  10.697
 2802W        W69211   5.567  21.735  11.347
 2803W        W69212  39.389  22.649   3.517
 2804W        W69213   9.425   2.522   0.016
 2805W        W69214  21.293  12.851   3.801
 2806W        W69215  12.670  15.057   2.320
 2807W        W69216  37.864  20.754  11.005
 2808W        W69217  33.950   0.976   3.207
 2809W        W69218  21.201   8.103   4.637
 2810W        W69219   1.079  38.896  13.551
 2811W        W69220  31.376  29.894   2.409
 2812W        W69221  40.812  15.333  13.520
 2813W        W69222  19.557   7.224   3.115
 2814W        W69223  27.554  28.081   2.149
 2815W        W69224  26.972  43.904   2.319
 2816W        W69225  34.940  11.432  12.764
 2817W        W69226   7.129  36.177  10.831
 2818W        W69227  41.940  29.934  14.795
 2819W        W69228  39.222  21.133  13.747
 2820W        W69229  19.276  17.590   1.867
 2821W        W69230  12.153  20.204  11.544
 2822W        W69231  24.562  19.184  14.470
 2823W        W69232   9.243   0.750  14.431
 2824W        W69233  42.783  44.502  14.575
 2825W        W69234  11.953  27.458   4.354
 2826W        W69235  11.294  20.690   1.468
 2827W        W69236  14.043   4.787   3.839
 2828W        W69237  44.001  42.023   0.499
 2829W        W69238   6.321  29.145   1.640
 2830W        W69239  18.595   7.188   2.330
 2831W        W69240  12.955  28.502   1.975
 2832W        W69241  13.325  32.924  13.956
 2833W        W69242  18.673   0.460  13.138
 2834W        W69243  25.946   0.814   4.185
 2835W        W69244  43.349  37.088  14.789
 2836W        W69245  14.506  33.605  13.425
 2837W        W69246  23.103   8.965  11.621
 2838W        W69247  29.627  44.361  13.906
 2839W        W69248  39.035  26.427  14.964
 2840W        W69249  18.355  10.569   0.912
 2841W        W69250  11.677  17.962  11.248
 2842W        W69251  44.242  40.389  11.648
 2843W        W69252  25.262  26.237   0.678
 2844W        W69253   5.853  28.023   4.115
 2845W        W69254  18.789  39.029  12.821
 2846W        W69255  28.917   9.361  14.746
 2847W        W69256  43.959  24.564  14.194
 2848W        W69257  32.027   1.712  11.069
 2849W        W69258   8.760  31.808  10.694
 2850W        W69259   3.281  36.444   4.600
 2851W        W69260  20.951  18.447  11.979
 2852W        W69261  34.782  37.894  12.659
 2853W        W69262  43.834  22.990   0.493
 2854W        W69263  27.964  32.889  11.598
 2855W        W69264  29.285  21.221   2.406
 2856W        W69265  41.451   1.045   2.217
 2857W        W69266  17.566  37.294   4.643
 2858W        W69267  20.363  20.792   0.056
 2859W        W69268   0.408   7.466   0.020
 2860W        W69269   8.201  11.877  12.174
 2861W        W69270  23.656   0.401   3.963
 2862W        W69271  34.855  42.754  11.559
 2863W        W69272   5.856  14.338  13.844
 2864W        W69273  25.027  28.479  14.953
 2865W        W69274  17.833   1.427  13.389
 2866W        W69275   8.544  17.653  14.405
 2867W        W69276   3.282  37.596  13.099
 2868W        W69277  41.839  16.477   3.715
 2869W        W69278  43.242  19.168   3.795
 2870W        W69279  10.136  44.240  14.307
 2871W        W69280  24.121  20.945  14.393
 2872W        W69281  18.148  38.255   0.446
 2873W        W69282  33.184  14.899  13.042
 2874W        W69283  14.543   2.618   0.953
 2875W        W69284  30.107  33.023  13.667
 2876W        W69285  25.574  41.578  14.143
 2877W        W69286  15.181   2.002   0.456
 2878W        W69287  20.182  15.174  11.104
 2879W        W69288  27.428  40.945  12.927
 2880W        W69289  21.764  41.542   2.285
 2881W        W69290  20.021   5.057  10.770
 2882W        W69291  39.566  23.049   4.381
 2883W        W69292  16.555  33.219  10.855
 2884W        W69293  36.524  37.933  13.395
 2885W        W69294  25.984  41.842  11.519
 2886W        W69295  17.531  11.843   2.765
 2887W        W69296  42.336  43.915  12.649
 2888W        W69297  14.486  44.553   2.718
 2889W        W69298   1.002  11.754   0.302
 2890W        W69299  23.838   5.586  11.917
 2891W        W69300  27.389  13.805  14.462
 2892W        W69301   9.132  31.513  11.667
 2893W        W69302  22.545  24.968   1.351
 2894W        W69303  26.679   0.834  14.782
 2895W        W69304  30.669  30.648  10.730
 2896W        W69305   5.865  25.364  12.881
 2897W        W69306   6.078  38.111   2.298
 2898W        W69307  26.242   7.212   0.458
 2899W        W69308  32.048  11.954  14.289
 2900W        W69309  34.423  36.412  12.232
 2901W        W69310  35.736  32.553  13.915
 2902W        W69311  37.102  16.657  11.001
 2903W        W69312   8.892  13.645   3.632
 2904W        W69313  44.092   4.148  13.022
 2905W        W69314  16.353  21.526  13.944
 2906W        W69315  44.250   5.670  14.628
 2907W        W69316  38.358  44.902   4.578
 2908W        W69317  23.070  17.102   0.360
 2909W        W69318  42.238   0.799  12.983
 2910W        W69319  25.346  20.093   3.059
 2911W        W69320  28.833  41.832   1.958
 2912W        W69321  40.959  26.390  11.932
 2913W        W69322  30.958  25.000   1.762
 2914W        W69323  26.155  36.044  11.584
 2915W        W69324  17.266  13.616   1.864
 2916W        W69325  24.653   0.532   1.448
 2917W        W69326  28.830  15.608   4.088
 2918W        W69327   3.859  15.524  14.959
 2919W        W69328   0.699   6.494  12.628
 2920W        W69329   2.096   9.997   2.271
 2921W        W69330  42.747  44.957  10.773
 2922W        W69331  35.210  20.069  13.898
 2923W        W69332  19.590   3.449  11.843
 2924W        W69333  19.466  21.505  13.486
 2925W        W69334  31.136  14.368   1.848
 2926W        W69335   0.662  16.078   3.843
 2927W        W69336  25.070  25.198   1.765
 2928W        W69337   2.546  40.716  14.033
 2929W        W69338  38.161   9.693   4.396
 2930W        W69339  21.615  33.460   4.247
 2931W        W69340  14.608   8.761   1.998
 2932W        W69341  29.224  42.188  12.940
 2933W        W69342  42.672  29.046   5.097
 2934W        W69343  36.850  25.624   1.305
 2935W        W69344  19.601  15.169  13.885
 2936W        W69345  12.783   2.137  14.820
 2937W        W69346  28.548  33.427   4.096
 2938W        W69347   1.367  20.443   4.595
 2939W        W69348  43.990   5.810   4.907
 2940W        W69349   5.912   3.243   1.883
 2941W        W69350  22.121  12.085  12.430
 2942W        W69351   5.281  32.432   3.655
 2943W        W69352  30.398  26.473   1.043
 2944W        W69353  20.865   1.083   5.172
 2945W        W69354  36.858  43.468  12.065
 2946W        W69355  14.841  14.868  14.355
 2947W        W69356  28.684  26.857   0.900
 2948W        W69357   1.239  28.100  13.288
 2949W        W69358  16.940  24.250   2.516
 2950W        W69359  34.890  15.332  12.516
 2951W        W69360  14.285  44.567  10.755
 2952W        W69361  32.430  17.069   1.374
 2953W        W69362  35.583  10.721  14.849
 2954W        W69363  34.459   6.577  14.573
 2955W        W69364  19.140   3.317   1.509
 2956W        W69365   5.438  27.949  10.620
 2957W        W69366  20.901  32.525  11.987
 2958W        W69367   5.702  19.187   0.730
 2959W        W69368   5.671  17.158  13.810
 2960W        W69369  19.708  43.679   2.239
 2961W        W69370  33.550  37.232  12.968
 2962W        W69371   4.198  21.737   0.402
 2963W        W69372  40.624  11.671   3.293
 2964W        W69373   0.920   0.954   3.684
 2965W        W69374   4.057  30.680  12.443
 2966W        W69375   8.946  27.025   0.024
 2967W        W69376  10.538  11.678  14.420
 2968W        W69377  27.029  25.200  13.067
 2969W        W69378  11.880   6.017  12.649
 2970W        W69379  10.440   9.416   4.204
 2971W        W69380  39.713  23.764   3.405
 2972W        W69381  26.475   1.162   0.161
 2973W        W69382  15.389  12.341   3.730
 2974W        W69383  22.982   4.731   4.096
 2975W        W69384  37.432  41.729   3.584
 2976W        W69385   2.475   8.692   0.526
 2977W        W69386  44.201   0.104  12.482
 2978W        W69387  23.459  18.282  11.960
 2979W        W69388  16.084  23.607  12.150
 2980W        W69389  44.395  23.915  13.429
 2981W        W69390  31.451  41.957   3.186
 2982W        W69391  20.424  10.298  12.174
 2983W        W69392  20.996  15.305   0.876
 2984W        W69393  28.596  18.593  11.946
 2985W        W69394  18.707   9.556   0.825
 2986W        W69395  25.784  30.387   2.866
 2987W        W69396  19.244  32.354   0.041
 2988W        W69397  12.804  30.932  13.035
 2989W        W69398  38.050  36.424  10.911
 2990W        W69399   4.781  27.632   4.567
 2991W        W69400   5.295   9.390   1.345
 2992W        W69401  18.719  13.572  11.494
 2993W        W69402  39.147  21.291   3.659
 2994W        W69403  23.238   0.551   4.650
 2995W        W69404  16.784  19.795  13.268
 2996W        W69405  20.033  22.064  13.505
 2997W        W69406  24.726  20.551  14.937
 2998W        W69407  16.631  28.751   0.517
 2999W        W69408  35.837  14.747  14.843
 3000W        W69409   6.199  13.603   2.261
 3001W        W69410  35.629  27.584  12.483
 3002W        W69411  28.080  30.189   3.887
 3003W        W69412  23.142  14.177   3.721
 3004W        W69413  10.606  26.046  10.785
 3005W        W69414  12.764  18.577   3.458
 3006W        W69415  26.563  22.214   3.046
 3007W        W69416   6.262  18.610   2.397
 3008W        W69417   0.011   7.727   3.266
 3009W        W69418  27.136  34.373   0.426
 3010W        W69419  42.997  44.707  11.163
 3011W        W69420  16.713   0.614  11.151
 3012W        W69421   0.807  26.096   4.650
 3013W        W69422  39.594  28.617   2.696
 3014W        W69423  28.773  32.945  12.105
 3015W        W69424  32.098  29.673   4.587
 3016W        W69425  15.176  11.347  14.819
 3017W        W69426  11.259   9.458  10.849
 3018W        W69427  22.386  23.191  11.036
 3019W        W69428  39.437   7.253   3.679
 3020W        W69429   1.394   8.882  11.643
 3021W        W69430  33.822  29.507   0.619
 3022W        W69431  34.854  15.300  13.452
 3023W        W69432  28.594  25.061  14.002
 3024W        W69433  21.132  34.426  12.087
 3025W        W69434  39.255  29.430  11.110
 3026W        W69435  39.067   1.260   2.220
 3027W        W69436  42.995  15.997  13.735
 3028W        W69437  25.147  34.286   1.859
 3029W        W69438  12.255  24.215   3.705
 3030W        W69439  16.784  19.139  10.736
 3031W        W69440  27.276  21.649   2.253
 3032W        W69441  42.677  35.056   4.623
 3033W        W69442  44.421  32.288  10.943
 3034W        W69443   1.783   4.485  11.616
 3035W        W69444  16.939  26.285  13.046
 3036W        W69445  14.241  10.882  10.702
 3037W        W69446  43.152  21.319   1.375
 3038W        W69447  44.947  26.634  11.604
 3039W        W69448  31.289  28.412  13.923
 3040W        W69449  18.913  10.696  12.463
 3041W        W69450  36.423  42.196   3.232
 3042W        W69451  35.357  37.704  11.485
 3043W        W69452   2.824  12.949   1.646
 3044W        W69453   9.606  42.621   3.294
 3045W        W69454  34.666  18.097   1.001
 3046W        W69455  11.761  28.404  12.941
 3047W        W69456  43.424   5.425   0.474
 3048W        W69457  33.740  22.786   3.833
 3049W        W69458  18.771  17.807  14.992
 3050W        W69459  36.898  27.725   3.733
 3051W        W69460  38.525  42.548  12.457
 3052W        W69461   3.931  38.137   3.624
 3053W        W69462  37.329  36.536   0.429
 3054W        W69463  30.795  15.815   0.827
 3055W        W69464  10.600  27.705  10.608
 3056W        W69465  38.134  23.624   1.580
 3057W        W69466  40.298  37.333  10.955
 3058W        W69467  23.258  43.941  14.852
 3059W        W69468  25.800   8.564   3.369
 3060W        W69469  12.657  37.729   0.886
 3061W        W69470  33.838  25.589   3.424
 3062W        W69471   5.188  40.353   4.658
 3063W        W69472  23.156  29.237  12.572
 3064W        W69473  27.904  34.738   1.771
 3065W        W69474   7.241  17.051  11.353
 3066W        W69475  21.719   3.408   2.449
 3067W        W69476  34.476  28.383  12.093
 3068W        W69477  11.141  14.138  14.546
 3069W        W69478  43.958  26.905  14.830
 3070W        W69479  14.586   9.708  13.910
 3071W        W69480  40.634  42.481  12.905
 3072W        W69481  25.433   5.310   4.852
 3073W        W69482   5.801  35.868  13.375
 3074W        W69483   3.644  43.881   4.660
 3075W        W69484   6.163  20.542  12.913
 3076W        W69485  21.220  28.564  11.509
 3077W        W69486  17.041   7.424   0.825
 3078W        W69487   3.270  18.525  14.386
 3079W        W69488  12.055  33.055   1.683
 3080W        W69489  18.939  11.810  11.953
 3081W        W69490   9.162  37.504   1.917
 3082W        W69491  26.473  10.382  14.300
 3083W        W69492   3.540  25.485   4.136
 3084W        W69493  30.649  35.023   0.248
 3085W        W69494  23.823   6.253  14.233
 3086W        W69495  23.252  43.277   0.779
 3087W        W69496  20.469  26.953   4.076
 3088W        W69497  40.763  42.822   4.313
 3089W        W69498  28.079  12.628   4.565
 3090W        W69499  22.117   0.740   4.162
 3091W        W69500  40.731  10.786  14.089
 3092W        W69501  29.545   1.033   3.240
 3093W        W69502  28.412   3.368   2.150
 3094W        W69503  23.584  24.750  14.524
 3095W        W69504  22.026   9.373   2.969
 3096W        W69505  16.957  21.215   2.786
 3097W        W69506  21.668  38.445  11.496
 3098W        W69507  29.026   7.383  13.351
 3099W        W69508   9.455   5.711   0.900
 3100W        W69509  27.388  29.170   0.765
 3101W        W69510  18.100   4.476   2.814
 3102W        W69511  13.323   4.584   4.955
 3103W        W69512  27.828  29.459   2.361
 3104W        W69513  27.392  34.286  12.543
 3105W        W69514  42.879  20.052   3.361
 3106W        W69515  34.265   2.428   4.513
 3107W        W69516  13.729  38.043   2.241
 3108W        W69517  25.217  30.893  13.126
 3109W        W69518  44.285  42.925   1.043
 3110W        W69519  41.760  10.517  12.355
 3111W        W69520   4.266  27.735   4.511
 3112W        W69521  13.789  23.327  14.928
 3113W        W69522  32.653   8.233   2.380
 3114W        W69523   5.935  34.280  12.630
 3115W        W69524   6.256  28.425  12.579
 3116W        W69525   6.182  27.650  12.042
 3117W        W69526  10.784  24.675   3.976
 3118W        W69527   5.745  13.350   2.172
 3119W        W69528   4.856  10.103   0.655
 3120W        W69529  35.094  16.071  10.471
 3121W        W69530  26.110  27.498   1.772
 3122W        W69531  39.810  20.827  10.778
 3123W        W69532  35.540  29.347   3.664
 3124W        W69533   0.137   1.833   4.204
 3125W        W69534   9.568   8.717  14.743
 3126W        W69535  16.965  28.228  11.276
 3127W        W69536  27.931   6.358   3.344
 3128W        W69537  31.162  18.500   0.350
 3129W        W69538  23.347  35.450   1.405
 3130W        W69539   5.497  33.290  13.485
 3131W        W69540   2.914  38.818   1.773
 3132W        W69541   2.948  27.670  14.351
 3133W        W69542  32.154  37.192   4.605
 3134W        W69543  33.953  31.189   1.782
 3135W        W69544  31.863  27.420  12.965
 3136W        W69545  39.349  18.845  11.531
 3137W        W69546  31.893  37.242   0.292
 3138W        W69547  33.622  34.773  14.053
 3139W        W69548   0.853  12.761  11.890
 3140W        W69549  37.458   1.455   4.119
 3141W        W69550  42.916  29.553  12.570
 3142W        W69551   5.422  19.610  12.557
 3143W        W69552  40.435  39.448   0.951
 3144W        W69553  13.515   1.824  12.418
 3145W        W69554  23.807  20.985  13.122
 3146W        W69555   7.171   1.409   3.487
 3147W        W69556  26.756  29.346   4.096
 3148W        W69557  12.333  16.833   2.188
 3149W        W69558  12.210  32.945   3.305
 3150W        W69559  22.811  27.040  14.063
 3151W        W69560   6.133   9.589   3.538
 3152W        W69561  17.116  38.298   2.313
 3153W        W69562  29.512  30.821   2.761
 3154W        W69563   7.016  41.976   0.585
 3155W        W69564   6.686  25.132   2.368
 3156W        W69565   9.942  39.377  10.587
 3157W        W69566  14.559  40.400   3.777
 3158W        W69567   1.001  24.175  14.856
 3159W        W69568  25.118  18.813   3.621
 3160W        W69569   1.001  38.967   0.424
 3161W        W69570  16.478  14.081  14.376
 3162W        W69571   6.730  29.440  14.891
 3163W        W69572  33.492  30.522  10.664
 3164W        W69573  17.265  17.753  14.102
 3165W        W69574   2.350  41.727  11.233
 3166W        W69575  27.026  29.197   0.046
 3167W        W69576  30.532   8.653  14.842
 3168W        W69577  34.628  17.548  12.117
 3169W        W69578  15.748   8.606  11.418
 3170W        W69579  10.019  18.541  11.257
 3171W        W69580  23.086  20.212   3.754
 3172W        W69581  25.421  17.407   9.939
 3173W        W69582  25.692  10.673   4.077
 3174W        W69583  32.457  25.694   2.262
 3175W        W69584  28.152   2.963  11.417
 3176W        W69585  20.470  21.554  13.397
 3177W        W69586  25.961  44.994   0.779
 3178W        W69587   8.401   9.739   3.298
 3179W        W69588  12.153  30.907  13.813
 3180W        W69589  18.776  17.796  14.112
 3181W        W69590  31.265  22.448   4.398
 3182W        W69591  39.063   4.695   4.936
 3183W        W69592  10.766  38.595  14.506
 3184W        W69593   4.712  32.816  10.217
 3185W        W69594  24.872  30.352  11.162
 3186W        W69595  21.489  24.233   1.386
 3187W        W69596   5.083  21.190   3.285
 3188W        W69597  44.925  26.763  13.239
 3189W        W69598  24.107  28.432  12.897
 3190W        W69599  18.981  34.375  13.552
 3191W        W69600  21.553  20.377   4.486
 3192W        W69601  28.432  40.479  11.567
 3193W        W69602  27.736  10.655  12.436
 3194W        W69603   7.188  29.563   4.191
 3195W        W69604  34.480   4.346   0.779
 3196W        W69605   5.238  30.487  11.071
 3197W        W69606   5.195  25.626  13.330
 3198W        W69607  17.226  20.410   3.863
 3199W        W69608  22.127   8.598   4.903
 3200W        W69609   2.333   1.052  14.295
 3201W        W69610  20.306  34.609   4.921
 3202W        W69611  14.160  34.829  14.926
 3203W        W69612   4.238  15.570  12.584
 3204W        W69613  26.747  40.478  14.457
 3205W        W69614  26.678  12.400   0.978
 3206W        W69615   6.752  23.265  14.037
 3207W        W69616  25.763  39.465   3.440
 3208W        W69617  36.354  36.986  14.454
 3209W        W69618  38.418   3.235   4.501
 3210W        W69619  37.510  16.548  10.710
 3211W        W69620  29.219   6.537   3.101
 3212W        W69621  33.451  29.203   2.688
 3213W        W69622  17.788  41.210   1.308
 3214W        W69623  22.069  29.642   2.887
 3215W        W69624  42.978   5.409   3.411
 3216W        W69625  44.781  21.812   3.251
 3217W        W69626   8.456  16.807  14.848
 3218W        W69627  11.913  39.275   0.675
 3219W        W69628  36.106  19.050   1.706
 3220W        W69629  30.363  41.965   0.204
 3221W        W69630  20.838  43.874  10.015
 3222W        W69631  34.412  39.946   0.531
 3223W        W69632  18.617  31.593   3.293
 3224W        W69633  23.027  14.397   2.617
 3225W        W69634   1.006  22.306  13.352
 3226W        W69635   6.014  24.943   3.149
 3227W        W69636  14.252  34.252  11.652
 3228W        W69637   7.034   6.735   1.803
 3229W        W69638  24.889  23.510  11.962
 3230W        W69639   0.364  42.162   3.184
 3231W        W69640  19.266  35.964   1.390
 3232W        W69641  34.535  18.801  11.655
 3233W        W69642  33.057  10.871  13.823
 3234W        W69643   2.048  20.684   0.271
 3235W        W69644  28.951   1.030   3.072
 3236W        W69645  17.179  14.278   4.083
 3237W        W69646   0.199  14.344   2.885
 3238W        W69647   4.378   7.852   0.804
 3239W        W69648   7.762  20.072  11.162
 3240W        W69649  31.450  22.739  11.443
 3241W        W69650   4.634  32.691  13.996
 3242W        W69651  39.001  24.949   2.073
 3243W        W69652  41.370  12.844  11.624
 3244W        W69653  32.420  18.731  10.780
 3245W        W69654  12.264  17.279   0.075
 3246W        W69655  42.093   7.985  12.915
 3247W        W69656   6.588  32.389  14.910
 3248W        W69657   8.619  29.298  14.851
 3249W        W69658  37.904  18.355   0.573
 3250W        W69659  20.977  41.318   3.296
 3251W        W69660  33.017  20.547  14.560
 3252W        W69661  14.693   3.134   0.855
 3253W        W69662  15.266   9.690   0.259
 3254W        W69663   0.079  40.393   4.591
 3255W        W69664   7.874  21.428  11.345
 3256W        W69665  37.795   3.125   3.569
 3257W        W69666   6.185  38.937  11.578
 3258W        W69667  20.028   5.412   2.768
 3259W        W69668  33.618  23.700  13.581
 3260W        W69669  41.067  20.583  12.397
 3261W        W69670  17.715  12.084   0.259
 3262W        W69671  11.108   8.764   4.221
 3263W        W69672  44.526  26.912  13.572
 3264W        W69673   6.494  43.266  12.939
 3265W        W69674  10.330  29.757  14.938
 3266W        W69675   6.834   8.137   0.190
 3267W        W69676   6.603  10.352   3.308
 3268W        W69677  15.417  12.709  13.968
 3269W        W69678  22.027  12.140   2.343
 3270W        W69679  24.985  25.565  10.626
 3271W        W69680  31.632  19.785   1.423
 3272W        W69681   2.569  29.941   4.196
 3273W        W69682  36.878  30.397  11.917
 3274W        W69683   8.772  33.092  12.421
 3275W        W69684  39.831  40.055  14.059
 3276W        W69685   4.897  29.897   3.395
 3277W        W69686  15.844  14.966   3.397
 3278W        W69687   2.833  18.990  11.050
 3279W        W69688  12.286  44.434  13.321
 3280W        W69689  40.494   0.348   2.433
 3281W        W69690   9.539  15.692   5.022
 3282W        W69691  29.072  14.210  13.913
 3283W        W69692  16.179  25.910   0.404
 3284W        W69693  17.237  36.440   3.745
 3285W        W69694  32.021  17.170  13.848
 3286W        W69695   0.959   3.891   1.249
 3287W        W69696  40.375   4.017  10.672
 3288W        W69697  39.158  19.090   0.490
 3289W        W69698  43.103  22.045   2.298
 3290W        W69699  17.045   3.023   5.015
 3291W        W69700  21.803  14.690   4.624
 3292W        W69701  35.321  32.733   3.293
 3293W        W69702  20.090  18.299   4.253
 3294W        W69703   9.845  41.909  14.374
 3295W        W69704   1.278  12.404  11.901
 3296W        W69705  14.342  41.532  11.234
 3297W        W69706  26.690  20.274  12.336
 3298W        W69707  12.581  14.162   4.682
 3299W        W69708  38.459  28.258  12.578
 3300W        W69709   5.381  17.691   1.227
 3301W        W69710  19.608  40.024   2.236
 3302W        W69711  43.957   2.664  10.668
 3303W        W69712  23.270   3.336   1.706
 3304W        W69713   1.339  26.931   4.464
 3305W        W69714  36.435  26.978  13.440
 3306W        W69715  32.098  30.723  12.988
 3307W        W69716  19.292  38.355  11.574
 3308W        W69717  24.548  42.981   5.031
 3309W        W69718  14.696  39.565   0.220
 3310W        W69719  33.496  32.627   0.885
 3311W        W69720  26.169  11.301  13.335
 3312W        W69721  34.755  11.416  12.282
 3313W        W69722  41.058  13.611  14.886
 3314W        W69723  15.375  28.456   0.193
 3315W        W69724  36.383  39.434  13.401
 3316W        W69725  15.396  31.952   4.595
 3317W        W69726   6.787  38.697  13.040
 3318W        W69727  44.278  22.981  13.081
 3319W        W69728  17.074  32.722   2.296
 3320W        W69729  17.045  39.048   0.310
 3321W        W69730  44.450   4.161  11.109
 3322W        W69731  29.065  34.911  14.029
 3323W        W69732  11.651  17.247  12.344
 3324W        W69733  34.306   2.942  13.006
 3325W        W69734  21.320  24.375  11.131
 3326W        W69735  20.710   4.058   1.428
 3327W        W69736  22.803  21.816   2.782
 3328W        W69737  28.375   9.367  12.962
 3329W        W69738  30.918  37.621  11.588
 3330W        W69739  23.551  17.562  12.556
 3331W        W69740   4.335   8.917  14.140
 3332W        W69741  10.283   0.769   0.365
 3333W        W69742  29.182  40.480  12.775
 3334W        W69743  29.685   3.712  12.772
 3335W        W69744   8.484  40.055   2.411
 3336W        W69745  14.172  25.498  13.593
 3337W        W69746   9.552  38.509  13.046
 3338W        W69747  38.488  19.104   3.651
 3339W        W69748  29.124  29.981   0.738
 3340W        W69749  35.484  28.670  12.015
 3341W        W69750  27.198  10.597  13.812
 3342W        W69751  17.873  22.752  11.228
 3343W        W69752  26.221  19.938  12.119
 3344W        W69753  14.785  34.540  13.999
 3345W        W69754   6.650   6.643   2.711
 3346W        W69755  36.063  39.043  13.570
 3347W        W69756  37.508   5.290  12.871
 3348W        W69757  22.095  39.820  14.163
 3349W        W69758  20.073  11.760  14.934
 3350W        W69759  29.675  38.798  13.999
 3351W        W69760   0.519  34.653   0.463
 3352W        W69761  12.355  34.066  13.767
 3353W        W69762  26.229  21.486   3.259
 3354W        W69763   4.760  31.027  11.696
 3355W        W69764  30.056  44.052   3.567
 3356W        W69765  26.518  11.284   3.878
 3357W        W69766   8.783  16.071  11.508
 3358W        W69767  28.596  42.332   3.838
 3359W        W69768   6.180  32.511   4.003
 3360W        W69769  11.316  25.749  11.446
 3361W        W69770  39.089  33.961  12.875
 3362W        W69771  12.954  30.910   4.000
 3363W        W69772  15.213  16.270  14.278
 3364W        W69773  23.480  35.907   1.666
 3365W        W69774  22.277  41.086   4.204
 3366W        W69775   6.313  21.347   4.559
 3367W        W69776   5.321  15.202   0.528
 3368W        W69777  44.169  39.048   0.754
 3369W        W69778  19.214  33.517   0.699
 3370W        W69779   6.497  34.345   0.003
 3371W        W69780  42.311  29.653  13.421
 3372W        W69781  40.386  18.850  12.948
 3373W        W69782   8.399  12.724  11.857
 3374W        W69783  28.506  22.015  13.855
 3375W        W69784   1.425   1.995  12.391
 3376W        W69785  10.217   7.913   4.622
 3377W        W69786   7.119  21.619  12.913
 3378W        W69787  44.700  42.446  10.371
 3379W        W69788   3.274  34.939  14.979
 3380W        W69789   8.057   9.187  12.357
 3381W        W69790  23.473  42.853  11.467
 3382W        W69791  27.060  34.708   3.233
 3383W        W69792   0.866  20.525  11.995
 3384W        W69793   9.786   9.347   3.076
 3385W        W69794  44.951  18.434   3.270
 3386W        W69795  18.928  44.806  11.061
 3387W        W69796  23.823   4.781  12.895
 3388W        W69797  35.591  41.909  10.737
 3389W        W69798  14.003  22.803  10.617
 3390W        W69799  29.155  33.162   2.947
 3391W        W69800  13.783   5.275  12.169
 3392W        W69801  41.037  37.388   3.090
 3393W        W69802   9.936  31.579  12.033
 3394W        W69803  36.964  16.642   2.907
 3395W        W69804  28.409   6.725   4.015
 3396W        W69805   4.340  25.600  13.975
 3397W        W69806  41.546   1.284  12.099
 3398W        W69807  34.092  17.088  13.897
 3399W        W69808  44.316  17.217  12.054
 3400W        W69809  17.484  20.067   4.120
 3401W        W69810  24.934  20.151  11.143
 3402W        W69811   2.488  15.169   2.873
 3403W        W69812  19.008  39.291  13.274
 3404W        W69813  16.765  30.550  12.033
 3405W        W69814  20.004  18.273   0.080
 3406W        W69815  33.368   6.026   1.908
 3407W        W69816  26.513  12.960  13.105
 3408W        W69817   0.556  28.988  13.528
 3409W        W69818  43.293  16.202  10.956
 3410W        W69819  35.947  25.359   0.360
 3411W        W69820   5.552  34.718  14.773
 3412W        W69821  12.967   8.112  13.551
 3413W        W69822  42.432  37.565   0.918
 3414W        W69823  15.364  44.240  11.221
 3415W        W69824   7.972   4.875   2.263
 3416W        W69825  23.188  12.162   4.229
 3417W        W69826  44.073  30.253  12.144
 3418W        W69827   5.197  29.999   0.937
 3419W        W69828  41.060  21.598   0.964
 3420W        W69829  10.850  12.444   2.765
 3421W        W69830  34.150  27.528  12.436
 3422W        W69831  16.699  25.764   3.265
 3423W        W69832  37.414  25.067   2.793
 3424W        W69833  15.431  26.161  11.384
 3425W        W69834   9.680  41.724   4.257
 3426W        W69835  41.317  14.354  14.280
 3427W        W69836   2.446   2.031   4.643
 3428W        W69837   8.837  39.362   4.769
 3429W        W69838  40.963  28.987   0.992
 3430W        W69839  19.429  38.171   2.288
 3431W        W69840   9.423   1.736  11.540
 3432W        W69841  21.537  43.941  12.366
 3433W        W69842  33.505  10.864  14.826
 3434W        W69843  30.501  26.705  12.850
 3435W        W69844  16.872  16.025  12.043
 3436W        W69845  22.312  12.600   4.691
 3437W        W69846  44.653  27.223  13.153
 3438W        W69847  17.228  17.592   0.878
 3439W        W69848  44.432  38.554  11.223
 3440W        W69849  18.359  20.567  14.234
 3441W        W69850  35.489   3.697  10.833
 3442W        W69851  23.230   2.267  14.346
 3443W        W69852  14.080  26.552   4.275
 3444W        W69853  38.564  30.810  10.682
 3445W        W69854   3.472  28.541   1.741
 3446W        W69855  28.321  43.732  14.649
 3447W        W69856  34.967  22.042   0.750
 3448W        W69857  13.378  26.692  14.758
 3449W        W69858  18.553  16.344  10.753
 3450W        W69859  28.244  12.696   3.759
 3451W        W69860   8.411  41.253  13.510
 3452W        W69861  43.005  14.146  11.833
 3453W        W69862  33.437  10.267  11.741
 3454W        W69863  19.432  11.670   1.192
 3455W        W69864   0.019   4.703  13.195
 3456W        W69865  18.711  25.897  14.442
 3457W        W69866  15.598  39.438  14.456
 3458W        W69867   5.776   3.717  11.741
 3459W        W69868  15.835   2.257   3.876
 3460W        W69869  38.084  27.027   2.564
 3461W        W69870  23.161  29.518   2.763
 3462W        W69871   6.435  44.416   0.951
 3463W        W69872  27.473  22.088  11.197
 3464W        W69873  33.495  38.485   0.886
 3465W        W69874   8.250  17.330   2.299
 3466W        W69875   2.277  19.555   3.343
 3467W        W69876  13.733  13.721   0.790
 3468W        W69877  29.822  19.655  10.773
 3469W        W69878  10.356  21.259   1.466
 3470W        W69879  37.602  12.765  13.477
 3471W        W69880  37.915  35.671   1.027
 3472W        W69881  26.563   6.224  11.166
 3473W        W69882  28.040  24.310   4.184
 3474W        W69883  29.438  29.100  11.414
 3475W        W69884  33.945  44.714  11.999
 3476W        W69885  40.792  21.815   0.531
 3477W        W69886  19.042  17.351   2.729
 3478W        W69887  17.685  22.581   4.292
 3479W        W69888  37.395  30.954   0.806
 3480W        W69889  19.024  40.308  11.546
 3481W        W69890  14.674  14.182   0.857
 3482W        W69891  15.996  11.177  10.502
 3483W        W69892  23.530  19.009  12.427
 3484W        W69893  31.981  12.360  13.027
 3485W        W69894  41.450  28.556  13.449
 3486W        W69895  26.946  30.081  14.461
 3487W        W69896  15.140  17.732  10.648
 3488W        W69897   7.634  29.456  14.029
 3489W        W69898   7.787  37.892  12.749
 3490W        W69899   0.841  36.637  13.413
 3491W        W69900  15.773  38.106  13.677
 3492W        W69901  40.421  40.432   4.186
 3493W        W69902   1.926  36.508   3.582
 3494W        W69903  11.245  12.090   3.577
 3495W        W69904  21.924  38.358   1.406
 3496W        W69905  34.669   4.716  10.666
 3497W        W69906  42.707  39.875   2.136
 3498W        W69907  31.566  36.511   0.269
 3499W        W69908   7.175   1.872  11.252
 3500W        W69909  20.873  12.538  12.257
 3501W        W69910  28.570  13.353   4.323
 3502W        W69911   7.703  39.947   0.001
 3503W        W69912  19.081  14.191  13.085
 3504W        W69913   2.719  31.434  14.513
 3505W        W69914   9.559  24.077  11.579
 3506W        W69915  15.222   0.442   9.574
 3507W        W69916  35.434   0.245  13.277
 3508W        W69917  44.192  16.187  11.369
 3509W        W69918   0.897  15.176   1.283
 3510W        W69919  13.096  11.659  12.056
 3511W        W69920  18.078  40.957   3.197
 3512W        W69921  36.487   2.342   4.175
 3513W        W69922  39.562  11.402   2.525
 3514W        W69923   4.931   4.515   2.368
 3515W        W69924  15.883  39.611   2.633
 3516W        W69925   3.741  20.652   2.315
 3517W        W69926  31.062   0.094  13.488
 3518W        W69927  12.824  17.177   2.366
 3519W        W69928   8.689   6.910   0.317
 3520W        W69929   0.630   6.767  11.157
 3521W        W69930  23.008  44.748   3.374
 3522W        W69931  28.655  10.043   3.119
 3523W        W69932   9.703  12.292   0.867
 3524W        W69933   7.173   3.514   2.237
 3525W        W69934  39.366  16.905   3.426
 3526W        W69935   0.933  43.547   2.774
 3527W        W69936   1.577  35.093   2.283
 3528W        W69937  31.495  29.679  11.655
 3529W        W69938  11.624   3.463  14.040
 3530W        W69939  12.815   7.234  13.794
 3531W        W69940  15.692  13.895   1.916
 3532W        W69941  30.339  27.602  14.352
 3533W        W69942  12.543  35.531  10.940
 3534W        W69943  33.812   2.830  14.728
 3535W        W69944  40.986  34.325  12.942
 3536W        W69945   8.675  21.105   1.976
 3537W        W69946  25.720  27.261   2.858
 3538W        W69947  21.711  31.535   3.204
 3539W        W69948  26.755   7.914   3.584
 3540W        W69949  42.920  40.346   4.870
 3541W        W69950  20.961  41.742  11.224
 3542W        W69951  13.894   1.743   0.549
 3543W        W69952  28.002  44.809   4.502
 3544W        W69953  15.096  32.690  14.037
 3545W        W69954   4.873   7.502   4.084
 3546W        W69955  42.724  17.598  13.292
 3547W        W69956  37.936  28.630  13.036
 3548W        W69957  16.765  32.061   4.461
 3549W        W69958  21.053  37.899   1.786
 3550W        W69959  25.162  17.338  14.018
 3551W        W69960  20.027  17.027  11.199
 3552W        W69961  26.919  37.070  14.279
 3553W        W69962  35.112  20.411  14.319
 3554W        W69963  34.233  44.119   3.728
 3555W        W69964  33.283  42.488  11.484
 3556W        W69965  13.053  35.006  12.987
 3557W        W69966   8.800  34.077   1.918
 3558W        W69967  18.503  44.880   1.026
 3559W        W69968   9.739   5.291  11.447
 3560W        W69969  28.993   4.988  11.879
 3561W        W69970  18.894  16.143   4.635
 3562W        W69971  44.473   3.918   1.875
 3563W        W69972   0.027  27.070  12.317
 3564W        W69973  33.926   5.312   2.894
 3565W        W69974  18.934   2.625   0.678
 3566W        W69975  39.699  28.961   4.140
 3567W        W69976  22.206   7.691   4.387
 3568W        W69977   1.352  13.311  10.812
 3569W        W69978  36.526   8.192  11.870
 3570W        W69979   0.445  29.739  13.878
 3571W        W69980  13.901  40.320  11.795
 3572W        W69981   9.868   6.682   2.520
 3573W        W69982   9.672  28.649  11.460
 3574W        W69983  34.034  36.464  10.982
 3575W        W69984  16.319  41.973  11.452
 3576W        W69985  34.501   2.234  11.945
 3577W        W69986  13.859  14.577  14.680
 3578W        W69987  25.447  18.040  14.080
 3579W        W69988  21.516  20.014  12.464
 3580W        W69989  31.545   1.713  12.642
 3581W        W69990  30.369  28.650   0.792
 3582W        W69991   5.239  29.757  14.703
 3583W        W69992   4.112   7.422  13.068
 3584W        W69993  39.802  43.845  11.255
 3585W        W69994  22.571  21.156   0.197
 3586W        W69995  32.040   4.797   4.947
 3587W        W69996  15.334   0.312   0.887
 3588W        W69997  22.193  38.608  10.649
 3589W        W69998  23.296  35.023   0.243
 3590W        W69999   0.122  14.609   0.363
 3591W        W70000  42.914   1.460  14.707
 3592W        W70001  44.342  34.373   2.712
 3593W        W70002   1.567  20.267  13.145
 3594W        W70003   3.284  35.620  14.429
 3595W        W70004  24.996   8.896  13.894
 3596W        W70005   7.768  42.499   4.841
 3597W        W70006  17.445  18.042   2.711
 3598W        W70007  26.056  37.334   3.242
 3599W        W70008  15.389  43.824   3.355
 3600W        W70009  42.273  13.364  13.470
 3601W        W70010  25.411  12.118   2.140
 3602W        W70011  37.110  44.967  12.004
 3603W        W70012   2.902   2.427  11.696
 3604W        W70013  14.205  39.503   1.858
 3605W        W70014  41.660  14.902  11.685
 3606W        W70015  19.840  33.894   1.329
 3607W        W70016  10.977  19.010  13.358
 3608W        W70017  26.791  43.835  14.488
 3609W        W70018  42.978   9.570   0.202
 3610W        W70019  43.982  35.977  13.739
 3611W        W70020  23.699  26.465  12.607
 3612W        W70021  37.123  29.691   0.954
 3613W        W70022  15.128  12.307   0.442
 3614W        W70023  21.224   8.207  13.088
 3615W        W70024   0.010  24.729   4.253
 3616W        W70025  10.839  40.362   0.824
 3617W        W70026  19.270  13.095   2.632
 3618W        W70027  22.845  25.008   0.194
 3619W        W70028  36.536  19.763  12.397
 3620W        W70029  22.454  39.442   1.357
 3621W        W70030  42.320  35.230   0.863
 3622W        W70031   6.371  39.293  14.976
 3623W        W70032  34.230  21.269  11.017
 3624W        W70033  11.652   9.823   0.977
 3625W        W70034  40.877  16.387   3.794
 3626W        W70035  24.485  31.392   2.076
 3627W        W70036   7.497  18.564   4.001
 3628W        W70037  25.070  30.000  14.744
 3629W        W70038  25.553   4.754  10.587
 3630W        W70039   3.748   9.834  11.276
 3631W        W70040  31.382  38.360  14.917
 3632W        W70041   2.565  43.052   4.488
 3633W        W70042  40.302  18.701   2.764
 3634W        W70043  33.392  39.001  10.667
 3635W        W70044   0.736  23.807   4.181
 3636W        W70045  24.500  10.413  13.533
 3637W        W70046   7.462  15.781   0.492
 3638W        W70047  17.950  17.605   1.478
 3639W        W70048  16.057  22.935  13.575
 3640W        W70049  29.899  17.360   3.303
 3641W        W70050  33.455  13.880   1.713
 3642W        W70051  32.294   0.400   2.833
 3643W        W70052  14.272  31.075   0.498
 3644W        W70053  34.492  37.439  11.627
 3645W        W70054  40.857   8.363   1.725
 3646W        W70055   7.285   6.054  12.858
 3647W        W70056  20.029  32.867   4.328
 3648W        W70057  16.145  15.234   0.614
 3649W        W70058  15.143  23.839  11.891
 3650W        W70059  24.197   4.939   3.613
 3651W        W70060   1.863   3.211   3.204
 3652W        W70061  39.446  38.771  13.870
 3653W        W70062  33.829  35.093  13.700
 3654W        W70063  35.315   9.382  11.910
 3655W        W70064  17.636   7.742   3.783
 3656W        W70065  16.527  13.184  14.300
 3657W        W70066  34.009  20.709   3.956
 3658W        W70067  10.393  20.266  13.031
 3659W        W70068  10.295   1.998  12.399
 3660W        W70069  38.695  25.281   4.170
 3661W        W70070  14.927   3.975   4.167
 3662W        W70071  28.982  14.948  13.010
 3663W        W70072  19.699  31.449  11.349
 3664W        W70073  33.645  33.614  13.061
 3665W        W70074  33.913   2.474  14.337
 3666W        W70075  36.445  27.422  11.508
 3667W        W70076  13.321  20.300   0.783
 3668W        W70077   5.632   6.689  14.430
 3669W        W70078  29.874  25.446   0.773
 3670W        W70079  13.798  27.723  13.963
 3671W        W70080  38.649  41.512  12.588
 3672W        W70081  37.356   4.404   3.138
 3673W        W70082  15.133  23.494   0.844
 3674W        W70083  18.864  19.680   2.913
 3675W        W70084  17.003  44.947  12.682
 3676W        W70085  23.953  43.667   3.716
 3677W        W70086  24.453  27.480   4.578
 3678W        W70087   3.382  26.001  12.386
 3679W        W70088   4.470  10.735  13.950
 3680W        W70089  13.068   9.306  13.527
 3681W        W70090  14.486  35.881   1.888
 3682W        W70091  41.823   3.269  14.565
 3683W        W70092  34.700   3.888   5.016
 3684W        W70093  30.162  30.473  12.101
 3685W        W70094  40.314  19.965   0.442
 3686W        W70095  33.599  16.046   2.749
 3687W        W70096  24.990  40.347   1.265
 3688W        W70097  23.501   9.707   3.742
 3689W        W70098  38.011   8.866   4.498
 3690W        W70099  29.037  12.408  13.845
 3691W        W70100  36.822   3.060   3.124
 3692W        W70101  13.272  24.274   3.202
 3693W        W70102  31.167   6.575  14.029
 3694W        W70103  26.962  40.020  14.973
 3695W        W70104  27.428   0.879  10.751
 3696W        W70105  20.075  23.589  11.150
 3697W        W70106  30.050   6.443  11.914
 3698W        W70107  40.050  33.406   3.375
 3699W        W70108   1.234  16.386   0.837
 3700W        W70109  24.749  30.454  14.428
 3701W        W70110  19.039   1.197  11.229
 3702W        W70111   2.891  18.460  11.133
 3703W        W70112  20.579  12.195  13.135
 3704W        W70113  36.134  40.704   1.746
 3705W        W70114   5.223  41.211   3.146
 3706W        W70115  37.946  22.123  11.070
 3707W        W70116   1.753  16.508   1.808
 3708W        W70117  43.497  43.409   2.746
 3709W        W70118   4.398  38.918  14.031
 3710W        W70119  17.183  36.598   2.798
 3711W        W70120  35.350  22.564  12.975
 3712W        W70121  30.867  10.770   1.772
 3713W        W70122  24.687  16.805   1.898
 3714W        W70123  15.799   9.606   1.900
 3715W        W70124  28.670  29.526   4.472
 3716W        W70125  27.121  13.187   3.267
 3717W        W70126  28.456  44.991  14.121
 3718W        W70127  40.456  18.227   1.794
 3719W        W70128  18.668  43.402  12.434
 3720W        W70129  16.044  20.770  11.946
 3721W        W70130  37.516  42.217   3.705
 3722W        W70131  42.471  29.963  13.010
 3723W        W70132  32.974  20.274   4.695
 3724W        W70133  24.791  12.896   2.832
 3725W        W70134  30.217  12.938   2.793
 3726W        W70135  44.098  17.498   3.732
 3727W        W70136  23.724  12.646  14.502
 3728W        W70137  35.122   2.780   4.742
 3729W        W70138  39.835  30.967   1.697
 3730W        W70139  16.591   7.582  11.726
 3731W        W70140  41.548  20.751  14.218
 3732W        W70141  34.047  23.176   0.164
 3733W        W70142   2.513  17.695  12.501
 3734W        W70143  28.386  39.928  12.906
 3735W        W70144  25.107  42.284  12.086
 3736W        W70145  24.413  33.345   0.329
 3737W        W70146   7.324  36.086   2.287
 3738W        W70147  31.710  39.924   3.722
 3739W        W70148  17.581  37.635  12.430
 3740W        W70149   3.935  44.369   3.238
 3741W        W70150  21.542  14.914  12.875
 3742W        W70151  27.260   1.904   3.271
 3743W        W70152  30.966  10.861  10.628
 3744W        W70153   7.585  14.433  13.841
 3745W        W70154  41.993  39.563  13.736
 3746W        W70155  31.959   6.210  11.116
 3747W        W70156  23.430  40.594   2.201
 3748W        W70157  19.310  34.012  13.344
 3749W        W70158   7.130   1.191  14.314
 3750W        W70159   7.762  15.826  11.528
 3751W        W70160   9.813  14.770  14.850
 3752W        W70161  34.484   6.687   0.826
 3753W        W70162  21.089  41.878   4.367
 3754W        W70163  25.681  30.167   2.406
 3755W        W70164  42.695   3.434  11.503
 3756W        W70165   9.232  24.882   4.415
 3757W        W70166   3.255  17.868  10.589
 3758W        W70167  10.699  29.097  13.398
 3759W        W70168   5.165   1.178  11.067
 3760W        W70169  42.486  23.669  12.471
 3761W        W70170   3.291  11.670  13.240
 3762W        W70171  20.686  27.433   4.174
 3763W        W70172  34.140   0.675  14.048
 3764W        W70173   9.824  15.493  11.966
 3765W        W70174  28.712   9.707   2.698
 3766W        W70175  29.548  42.911  11.151
 3767W        W70176  24.165  24.457  12.439
 3768W        W70177  38.001  11.001   0.123
 3769W        W70178  41.382  30.481   0.488
 3770W        W70179  43.937  44.617   2.352
 3771W        W70180  28.105   4.698   3.217
 3772W        W70181  23.002  37.160  14.368
 3773W        W70182  38.690  37.615  10.698
 3774W        W70183  32.537  25.472  14.025
 3775W        W70184  28.709   5.421  14.406
 3776W        W70185  35.218   1.916  11.499
 3777W        W70186  37.522  41.997   5.063
 3778W        W70187   3.207   1.362   2.068
 3779W        W70188   5.837  43.104   3.665
 3780W        W70189  35.347  35.075   3.607
 3781W        W70190  14.737  13.262  11.996
 3782W        W70191  21.242  18.268   2.717
 3783W        W70192  31.945  39.852  10.721
 3784W        W70193  13.533  29.721  12.686
 3785W        W70194  28.522  31.424  10.982
 3786W        W70195  44.901   1.732   1.727
 3787W        W70196  43.599  26.094  11.827
 3788W        W70197  25.583  22.813  10.488
 3789W        W70198  35.363  26.940   3.910
 3790W        W70199  35.833   2.940   1.427
 3791W        W70200  19.687  26.423   3.686
 3792W        W70201  16.226  26.744  13.066
 3793W        W70202  31.801   1.698   4.182
 3794W        W70203  16.290  16.827  11.098
 3795W        W70204   7.980   4.258  14.608
 3796W        W70205   4.787  30.416  14.754
 3797W        W70206   6.712   3.054  14.488
 3798W        W70207  42.632  25.445   1.975
 3799W        W70208  24.246  13.749  11.980
 3800W        W70209  34.443   6.873  10.371
 3801W        W70210  32.255  25.945  11.127
 3802W        W70211  17.175  11.261  13.320
 3803W        W70212   3.790  39.037  12.084
 3804W        W70213  33.292  32.988   0.130
 3805W        W70214   4.043  40.304   0.266
 3806W        W70215  28.327  30.035   1.829
 3807W        W70216   5.806  15.096   0.715
 3808W        W70217  12.663   4.350   3.385
 3809W        W70218   0.878   3.085   0.877
 3810W        W70219   5.680  35.888  13.896
 3811W        W70220   9.709  44.444   2.842
 3812W        W70221   8.366   0.437   2.544
 3813W        W70222  22.722  40.813   3.455
 3814W        W70223  31.665  44.307  12.355
 3815W        W70224  31.867  15.986   4.236
 3816W        W70225  25.595  27.581  13.144
 3817W        W70226  31.563   5.910   2.088
 3818W        W70227  17.085  36.382   0.138
 3819W        W70228  29.632  29.130  12.373
 3820W        W70229  44.053  26.027  12.067
 3821W        W70230  39.421  13.690  12.295
 3822W        W70231  28.180   1.846   0.487
 3823W        W70232  33.325  19.168   0.347
 3824W        W70233  16.797  36.134   4.106
 3825W        W70234  36.770  39.990   0.593
 3826W        W70235  37.473  40.743  10.972
 3827W        W70236  41.097  29.666  12.929
 3828W        W70237  22.313  17.964  13.050
 3829W        W70238  31.379  22.288  14.863
 3830W        W70239   3.744  13.070   4.614
 3831W        W70240  23.601   8.884   4.547
 3832W        W70241  11.044  31.950  10.587
 3833W        W70242  13.345  27.903   0.446
 3834W        W70243  15.261  13.411  14.692
 3835W        W70244   0.024  27.109  10.947
 3836W        W70245  32.057  33.528   2.820
 3837W        W70246   3.305  26.041  14.822
 3838W        W70247  16.225  38.162   1.894
 3839W        W70248  34.491   2.567   1.150
 3840W        W70249  15.564   9.743  11.988
 3841W        W70250  33.491  17.461   1.898
 3842W        W70251  11.103  22.136   0.378
 3843W        W70252  24.703   4.018  14.248
 3844W        W70253   6.246  24.161   1.884
 3845W        W70254  32.320  34.463   1.277
 3846W        W70255  37.093  24.054   5.067
 3847W        W70256  32.999  18.227  14.296
 3848W        W70257  28.919   4.386  12.590
 3849W        W70258  44.929   5.171   3.594
 3850W        W70259  26.340  33.959  14.467
 3851W        W70260  39.874   5.215   0.257
 3852W        W70261  30.416  22.305   0.841
 3853W        W70262  22.152  33.145   0.915
 3854W        W70263  40.831  33.124  12.327
 3855W        W70264   3.836   3.742  13.531
 3856W        W70265  12.608  24.120   2.063
 3857W        W70266  36.490   1.385   3.205
 3858W        W70267  39.702   4.620   1.912
 3859W        W70268  16.246  28.993   0.255
 3860W        W70269   7.183  39.020   4.571
 3861W        W70270  14.802  23.620  14.300
 3862W        W70271  18.660  16.180   0.496
 3863W        W70272  26.043  17.618  11.277
 3864W        W70273  35.368  43.377   3.708
 3865W        W70274  18.556  37.467  12.232
 3866W        W70275  21.745  14.272  10.637
 3867W        W70276  17.389  38.140   1.462
 3868W        W70277  11.725  23.674   0.853
 3869W        W70278  37.760  15.107   1.251
 3870W        W70279  25.731  11.289  11.724
 3871W        W70280  38.598  42.887   4.306
 3872W        W70281   9.521  35.082   2.217
 3873W        W70282  19.267  17.837  12.040
 3874W        W70283  44.673   3.043   3.034
 3875W        W70284   9.069  16.784  13.010
 3876W        W70285  21.404  44.927   3.053
 3877W        W70286  19.764  17.359  12.547
 3878W        W70287  23.456  13.703  13.522
 3879W        W70288  30.147  32.422  12.874
 3880W        W70289   2.450   3.261   4.353
 3881W        W70290  13.633   7.681  10.895
 3882W        W70291   7.185  34.002   1.446
 3883W        W70292  14.743  40.391  12.662
 3884W        W70293  15.313  20.545   2.209
 3885W        W70294   4.822   9.096  13.627
 3886W        W70295  16.946  24.774   2.410
 3887W        W70296  18.409  23.216   3.912
 3888W        W70297  41.446  37.548   2.831
 3889W        W70298  24.380  12.497   0.483
 3890W        W70299  16.298  33.695  14.361
 3891W        W70300  34.711  10.470  10.240
 3892W        W70301  13.817  22.816   1.747
 3893W        W70302  19.170  16.844   2.575
 3894W        W70303  13.489  37.421  12.406
 3895W        W70304  40.390   8.615   2.439
 3896W        W70305   0.810  13.131   0.252
 3897W        W70306  12.615  30.477   2.712
 3898W        W70307  14.914  37.415  13.745
 3899W        W70308  11.850  44.728   4.363
 3900W        W70309  39.037   5.257  10.209
 3901W        W70310  28.104   9.739   1.226
 3902W        W70311  43.922   0.733   1.546
 3903W        W70312  40.211  16.504   5.391
 3904W        W70313  44.750   4.363   1.740
 3905W        W70314  18.057   5.377  11.794
 3906W        W70315  42.842   0.337   2.825
 3907W        W70316  26.862  41.388  14.386
 3908W        W70317  41.941   7.255   0.500
 3909W        W70318  30.899  26.959  11.893
 3910W        W70319  26.803  10.437   3.129
 3911W        W70320  23.510  15.045  11.996
 3912W        W70321  25.404  28.082   1.987
 3913W        W70322  10.599  26.930  14.747
 3914W        W70323   1.346   7.781   3.367
 3915W        W70324  26.081   3.845   4.603
 3916W        W70325  23.354  30.811   2.609
 3917W        W70326   4.245  42.442   0.404
 3918W        W70327  42.867  24.642  13.063
 3919W        W70328  11.308  16.793   2.189
 3920W        W70329  24.713  17.247  11.479
 3921W        W70330  27.123   7.579   4.504
 3922W        W70331  20.617   2.947   4.227
 3923W        W70332  24.563  39.510  14.424
 3924W        W70333  31.143  11.412  13.588
 3925W        W70334  22.344   9.737   2.817
 3926W        W70335  14.042  35.059   2.705
 3927W        W70336  24.229  17.165  10.672
 3928W        W70337   3.167  23.380  11.586
 3929W        W70338   2.666   1.274   2.746
 3930W        W70339  39.574  30.424   3.165
 3931W        W70340  21.428  27.493   3.689
 3932W        W70341  17.683  23.283  12.086
 3933W        W70342  13.245  19.110  12.114
 3934W        W70343  13.129  23.498  12.907
 3935W        W70344  11.181  25.074   0.671
 3936W        W70345   9.377  43.876   4.448
 3937W        W70346  17.690  17.269  14.481
 3938W        W70347   8.706  21.507  12.517
 3939W        W70348  40.962  16.017   2.878
 3940W        W70349  15.034   0.874  14.852
 3941W        W70350  35.312  37.362  13.892
 3942W        W70351  37.582  31.588  12.501
 3943W        W70352  43.322  16.162   0.905
 3944W        W70353  35.863   7.654   0.497
 3945W        W70354  33.099  10.463   2.700
 3946W        W70355   2.502  35.303  13.030
 3947W        W70356   2.119   5.969  13.641
 3948W        W70357   4.856  23.746   1.102
 3949W        W70358  34.444   3.739  14.487
 3950W        W70359  17.551  38.029   2.491
 3951W        W70360  23.229  12.702  12.528
 3952W        W70361  24.570  27.979   1.368
 3953W        W70362  30.481  43.435   1.797
 3954W        W70363  42.431  12.359  14.391
 3955W        W70364   2.805  16.251   1.844
 3956W        W70365  31.334   1.625   3.938
 3957W        W70366  29.652  27.449   0.882
 3958W        W70367  27.319  23.882   0.971
 3959W        W70368   2.428  32.132   1.250
 3960W        W70369  22.139  29.357  11.836
 3961W        W70370   7.621   2.903   4.597
 3962W        W70371  25.060  20.447   9.769
 3963W        W70372   1.730  15.024  12.421
 3964W        W70373  21.230  38.721   3.276
 3965W        W70374  31.109  11.267  12.738
 3966W        W70375   4.487   3.356   0.389
 3967W        W70376  14.869   9.096  10.979
 3968W        W70377  17.162  42.945  12.323
 3969W        W70378  26.471   1.844  14.224
 3970W        W70379  35.222  27.405   3.247
 3971W        W70380  31.882  13.374  12.004
 3972W        W70381   2.389   6.361  10.993
 3973W        W70382   6.190  38.002   4.679
 3974W        W70383  44.837  11.148   2.782
 3975W        W70384   0.738  23.808  10.153
 3976W        W70385  15.666  36.021   4.606
 3977W        W70386   2.026  11.807  14.291
 3978W        W70387  25.124  10.849   2.381
 3979W        W70388  38.641  12.876   3.479
 3980W        W70389  10.322  39.811   3.274
 3981W        W70390  40.022  36.933  11.173
 3982W        W70391  39.784  21.105   1.024
 3983W        W70392  35.789  17.036  11.164
 3984W        W70393   3.783   4.619  11.429
 3985W        W70394  37.558  12.803  11.856
 3986W        W70395   6.665   7.679   2.846
 3987W        W70396   5.837  30.211  12.586
 3988W        W70397   5.391  23.112   4.063
 3989W        W70398   6.122  39.489   4.283
 3990W        W70399   6.278  15.068   1.793
 3991W        W70400  17.642  32.252   3.034
 3992W        W70401  18.723  10.374  14.898
 3993W        W70402  40.019   6.257  12.621
 3994W        W70403  22.211  21.410   4.273
 3995W        W70404  14.071  19.569  13.993
 3996W        W70405  10.098  27.926  10.489
 3997W        W70406  16.097  13.564   1.705
 3998W        W70407  38.091  28.388  13.694
 3999W        W70408  24.462  13.303   2.284
 4000W        W70409  21.657  32.180   9.732
 4001W        W70410  22.672  40.662  10.750
 4002W        W70411  26.552  13.946  14.021
 4003W        W70412  15.120   4.469   0.986
 4004W        W70413  42.719  44.383  13.253
 4005W        W70414  38.448  13.702   2.899
 4006W        W70415   8.941  16.069  12.399
 4007W        W70416   5.112  28.470   0.956
 4008W        W70417  19.850  15.714   1.399
 4009W        W70418  38.959  41.942   1.457
 4010W        W70419  28.554  29.990   3.547
 4011W        W70420  37.922  33.337   2.426
 4012W        W70421  14.889  19.778   9.801
 4013W        W70422  16.040  27.958  11.064
 4014W        W70423  28.447   4.255   2.266
 4015W        W70424  35.575  11.654   3.619
 4016W        W70425  14.220  44.037  10.833
 4017W        W70426   9.226   0.304  13.567
 4018W        W70427  22.561  10.166   0.860
 4019W        W70428  39.558  22.618  12.636
 4020W        W70429   9.757  33.659   1.162
 4021W        W70430  20.483   5.151   1.901
 4022W        W70431  31.657  15.055   4.334
 4023W        W70432  18.562  25.248  12.989
 4024W        W70433  13.033  18.239   5.191
 4025W        W70434  26.512  13.214   1.360
 4026W        W70435  34.479   7.873  14.869
 4027W        W70436   0.879  18.190  14.310
 4028W        W70437  10.638  30.463   1.829
 4029W        W70438   2.987   5.894  13.813
 4030W        W70439  17.598  16.199  12.501
 4031W        W70440  13.240  30.975  12.426
 4032W        W70441   0.552  19.239   4.863
 4033W        W70442  29.659  26.959   2.298
 4034W        W70443  34.632   9.451   4.148
 4035W        W70444  11.133  17.570   1.379
 4036W        W70445  17.071  24.668   2.894
 4037W        W70446  30.060  25.986   4.543
 4038W        W70447  23.905   7.281   2.807
 4039W        W70448   6.316  29.652   4.994
 4040W        W70449  15.204  10.361   2.390
 4041W        W70450   9.190   2.007  10.467
 4042W        W70451  42.933   9.200  13.649
 4043W        W70452  33.664   1.393   3.230
 4044W        W70453  25.677  21.643   2.339
 4045W        W70454  32.445  10.193  11.804
 4046W        W70455   3.490  27.170  13.959
 4047W        W70456  31.798   6.036   1.266
 4048W        W70457  16.306  20.381   0.776
 4049W        W70458  13.799   8.144  14.005
 4050W        W70459  22.119  13.875   0.957
 4051W        W70460  11.771   1.277   0.178
 4052W        W70461  21.757  13.967  12.960
 4053W        W70462  16.311  38.547  11.553
 4054W        W70463  39.539  13.312   3.362
 4055W        W70464  11.333   4.329   1.411
 4056W        W70465   2.360   8.738   4.737
 4057W        W70466  19.026  35.618   3.898
 4058W        W70467   2.935   3.979   4.625
 4059W        W70468  38.009  26.631  10.785
 4060W        W70469   7.292  38.261  14.499
 4061W        W70470   4.255  24.434   3.132
 4062W        W70471   9.851  17.031   4.702
 4063W        W70472  28.874  28.755   3.277
 4064W        W70473  42.913  30.939  11.738
 4065W        W70474  13.117  39.795   3.296
 4066W        W70475  42.652  19.381   0.525
 4067W        W70476  35.946   5.798  11.486
 4068W        W70477  29.465  21.367  14.372
 4069W        W70478  14.546   7.703  11.190
 4070W        W70479  14.554  43.459   3.065
 4071W        W70480  18.923  32.018   2.666
 4072W        W70481   0.678  31.582   2.662
 4073W        W70482  31.523  14.096  11.591
 4074W        W70483  18.900  24.955   4.158
 4075W        W70484   1.005  17.565  10.290
 4076W        W70485   2.389   1.196  10.826
 4077W        W70486  36.432  20.720   1.607
 4078W        W70487  19.697   5.372  11.934
 4079W        W70488  11.152  13.005  11.516
 4080W        W70489  29.639  17.877   0.057
 4081W        W70490   8.707   1.824   3.595
 4082W        W70491  22.099  28.890  13.493
 4083W        W70492  43.818  15.864   0.011
 4084W        W70493  31.246   3.204   2.309
 4085W        W70494  27.393  36.192  11.180
 4086W        W70495   7.956   8.141   2.196
 4087W        W70496  40.581  11.908   0.014
 4088W        W70497  27.140   5.847   2.292
 4089W        W70498   6.440  18.046  14.983
 4090W        W70499  29.149   7.258   4.856
 4091W        W70500  42.849  25.347   4.984
 4092W        W70501  34.908  43.894   0.853
 4093W        W70502  42.791  23.512  12.055
 4094W        W70503  18.680  41.064   2.296
 4095W        W70504   6.308  22.701  10.750
 4096W        W70505   4.214  43.680  11.045
 4097W        W70506   5.942  28.954  13.922
 4098W        W70507   6.350  18.034  10.659
 4099W        W70508  23.688   3.409  13.048
 4100W        W70509   8.449  28.344  13.508
 4101W        W70510  25.482  28.157  10.663
 4102W        W70511  21.078  30.586  12.313
 4103W        W70512  29.783  23.732   3.221
 4104W        W70513  13.669  38.538  13.353
 4105W        W70514   4.650  39.866  10.783
 4106W        W70515  28.327  29.015  12.821
 4107W        W70516  39.990  26.640  11.649
 4108W        W70517  43.683  30.636   2.227
 4109W        W70518   4.180  15.731   4.146
 4110W        W70519   8.162  10.306   1.176
 4111W        W70520   8.713   5.856  11.990
 4112W        W70521  43.551  10.492   2.432
 4113W        W70522  41.907   0.803   2.268
 4114W        W70523  38.359  16.405  10.964
 4115W        W70524   4.331  41.497  13.804
 4116W        W70525   7.333  40.825  10.499
 4117W        W70526   0.225  28.688   0.345
 4118W        W70527  39.449   8.724  14.356
 4119W        W70528  29.105  35.010  10.673
 4120W        W70529  19.341  24.707   1.727
 4121W        W70530  43.390  12.870   4.020
 4122W        W70531  31.078   5.445  14.991
 4123W        W70532   9.318  27.903   3.523
 4124W        W70533  38.557   6.854  11.671
 4125W        W70534  39.074  12.577   1.790
 4126W        W70535  39.958  25.207   0.121
 4127W        W70536  30.834   0.313   3.937
 4128W        W70537  40.914  22.399  13.846
 4129W        W70538  33.917  38.604   4.880
 4130W        W70539   9.238  26.045   3.757
 4131W        W70540   2.723  25.170   3.620
 4132W        W70541  14.642  16.105  14.098
 4133W        W70542  36.977  24.876   3.998
 4134W        W70543   8.204  39.829   1.430
 4135W        W70544  32.369  42.444   1.240
 4136W        W70545   1.104  30.571  10.236
 4137W        W70546  18.134  25.576   3.399
 4138W        W70547  35.323  34.873   0.440
 4139W        W70548  40.986   2.461   0.477
 4140W        W70549  11.175  34.578   3.482
 4141W        W70550  26.758  10.885   2.775
 4142W        W70551   7.419  38.032   1.241
 4143W        W70552  16.817   7.269   1.852
 4144W        W70553  18.935   4.849  14.280
 4145W        W70554  12.582  19.614  13.968
 4146W        W70555   3.387  27.464   1.855
 4147W        W70556   0.266  22.577   1.703
 4148W        W70557  22.650  28.510  11.717
 4149W        W70558  36.317   7.702   0.244
 4150W        W70559  39.993   5.960  11.179
 4151W        W70560  34.635   3.757  10.606
 4152W        W70561   0.401  27.510  14.448
 4153W        W70562  33.920  37.870   1.729
 4154W        W70563  19.987  14.784  14.090
 4155W        W70564  36.280   8.783  13.852
 4156W        W70565   0.256  35.006  13.288
 4157W        W70566  18.160  24.503   0.870
 4158W        W70567  40.385  23.465   3.066
 4159W        W70568  42.237   1.328  10.851
 4160W        W70569  39.054  33.274   3.926
 4161W        W70570  43.124  22.768  11.675
 4162W        W70571  40.314  25.449  13.926
 4163W        W70572  19.085  31.920   3.408
 4164W        W70573  27.715  12.631   3.741
 4165W        W70574  27.176  12.220   2.117
 4166W        W70575  29.527  16.987   3.259
 4167W        W70576  36.050   6.255  11.250
 4168W        W70577  20.079   5.595   0.023
 4169W        W70578   6.928  31.651  10.749
 4170W        W70579   3.929  43.480   4.458
 4171W        W70580  23.018  24.165  14.034
 4172W        W70581  36.573  28.383   2.833
 4173W        W70582  25.396  13.727   2.603
 4174W        W70583  24.365  12.411  13.306
 4175W        W70584  11.907  13.366   0.557
 4176W        W70585   8.250  13.202   4.182
 4177W        W70586  23.542  14.665   1.154
 4178W        W70587  13.526  34.976  11.648
 4179W        W70588  41.508  42.622   3.820
 4180W        W70589   2.042  39.067   4.370
 4181W        W70590   5.357  18.146   0.485
 4182W        W70591  40.506  34.493  13.025
 4183W        W70592  33.144  27.438   4.562
 4184W        W70593  19.569  20.997  13.647
 4185W        W70594  17.575  19.705  12.857
 4186W        W70595   3.258   9.207  12.408
 4187W        W70596   8.388   0.395   4.680
 4188W        W70597  25.956  24.352   2.578
 4189W        W70598  41.953  11.176   3.296
 4190W        W70599  32.916  23.452  14.288
 4191W        W70600  34.997  12.327   0.258
 4192W        W70601  24.671  36.104   0.151
 4193W        W70602  25.509  25.498  10.589
 4194W        W70603  27.970  33.015  11.079
 4195W        W70604  30.862  34.801  11.066
 4196W        W70605  14.240  10.084   0.930
 4197W        W70606  14.214  22.603  11.610
 4198W        W70607   7.930  28.755   4.037
 4199W        W70608  17.745  15.036   1.922
 4200W        W70609  24.642  10.173   0.025
 4201W        W70610  12.417   1.964   0.454
 4202W        W70611   8.369  37.017   4.892
 4203W        W70612  15.711  36.921   1.732
 4204W        W70613  25.516  10.621   2.144
 4205W        W70614   6.426   1.070   0.420
 4206W        W70615  17.617  41.707   1.265
 4207W        W70616  21.783  29.574   0.115
 4208W        W70617  39.032   3.324   0.865
 4209W        W70618  24.756  34.286   2.267
 4210W        W70619   0.805  16.306  14.347
 4211W        W70620  33.573  15.677   3.709
 4212W        W70621  17.866  37.134   9.931
 4213W        W70622  38.092  30.112  13.600
 4214W        W70623  33.453  15.103  12.419
 4215W        W70624  10.695  15.566   4.599
 4216W        W70625  14.817  15.069  14.826
 4217W        W70626  21.972  43.454   2.301
 4218W        W70627  20.101  34.718  10.396
 4219W        W70628  20.750  44.996  11.938
 4220W        W70629  16.101  44.357  11.615
 4221W        W70630  16.491  40.244  13.850
 4222W        W70631  11.246  36.416   3.359
 4223W        W70632  21.472  40.419   1.484
 4224W        W70633  14.095  33.047  10.154
 4225W        W70634  40.058  37.845   2.276
 4226W        W70635  10.146  31.774  14.566
 4227W        W70636   3.804  40.896  13.393
 4228W        W70637  16.339  32.808  11.221
 4229W        W70638  42.776  16.116  11.826
 4230W        W70639  40.295  36.998   1.818
 4231W        W70640  30.145  27.525   0.310
 4232W        W70641  16.536  39.856   3.141
 4233W        W70642   4.324   4.499   3.169
 4234W        W70643  37.727  25.951   1.186
 4235W        W70644  43.492  16.217  12.586
 4236W        W70645   9.072  38.441  12.826
 4237W        W70646   6.362  15.978  14.846
 4238W        W70647  10.185  33.422  13.349
 4239W        W70648  39.738   7.796   4.363
 4240W        W70649  17.950  19.253  14.272
 4241W        W70650  37.492   4.302   1.798
 4242W        W70651  41.508   4.005  11.646
 4243W        W70652  31.259  38.765   1.817
 4244W        W70653  44.739   1.255  11.278
 4245W        W70654   1.874  29.205   4.158
 4246W        W70655  23.401  18.841  12.897
 4247W        W70656  10.580  29.567   4.891
 4248W        W70657   9.821  26.876  14.588
 4249W        W70658  39.423  31.687   4.447
 4250W        W70659  36.358  16.530  10.658
 4251W        W70660  34.105  20.049  11.593
 4252W        W70661  40.647  39.476   2.826
 4253W        W70662  17.078  11.764  12.075
 4254W        W70663  37.691  21.185  12.589
 4255W        W70664  42.829  44.878   1.910
 4256W        W70665  27.952  35.551  12.970
 4257W        W70666   5.659  26.427   0.353
 4258W        W70667   5.953  24.908  12.487
 4259W        W70668   1.800  15.197  10.679
 4260W        W70669   8.920  16.112   3.685
 4261W        W70670   6.042   8.345   2.542
 4262W        W70671  26.986  13.018   4.160
 4263W        W70672  23.776  22.705  14.451
 4264W        W70673  29.952  37.200   1.214
 4265W        W70674  29.445   8.373  14.993
 4266W        W70675  13.594  23.165   4.149
 4267W        W70676   6.379  13.780   2.755
 4268W        W70677  23.057  30.466   1.595
 4269W        W70678  20.269  44.996  10.654
 4270W        W70679  26.449  42.129  14.874
 4271W        W70680   0.763  41.097   1.279
 4272W        W70681  26.979  25.988   3.012
 4273W        W70682  22.665   4.644   3.248
 4274W        W70683  30.583  10.329   4.180
 4275W        W70684   4.929  38.930   1.326
 4276W        W70685  11.243   7.525   0.369
 4277W        W70686   1.068   1.470   4.333
 4278W        W70687  21.266   8.179   3.861
 4279W        W70688  34.873   9.549  11.173
 4280W        W70689  36.467  10.167  14.989
 4281W        W70690   3.473   7.344  13.396
 4282W        W70691  41.906   4.352  14.707
 4283W        W70692  18.228  17.999  14.048
 4284W        W70693  32.613  21.774  14.310
 4285W        W70694   5.835  25.277   1.093
 4286W        W70695   8.919  21.344   3.373
 4287W        W70696  35.839  35.566  14.922
 4288W        W70697  21.995  44.899   0.298
 4289W        W70698  14.590  42.035   1.481
 4290W        W70699   3.636  35.508   2.368
 4291W        W70700  34.824  44.554  13.826
 4292W        W70701  10.555  10.259   2.779
 4293W        W70702  30.982   5.121  14.075
 4294W        W70703  40.542   8.092  11.104
 4295W        W70704  25.578  25.243   3.803
 4296W        W70705  11.757  15.463  10.995
 4297W        W70706  20.257   4.433  13.035
 4298W        W70707  36.345  28.942  13.357
 4299W        W70708   5.404  39.859   4.652
 4300W        W70709  41.333  29.489   2.096
 4301W        W70710   5.396   1.842   1.157
 4302W        W70711  43.305  35.089  12.595
 4303W        W70712  19.089   5.394   2.443
 4304W        W70713  30.769  37.068  13.034
 4305W        W70714  23.962  43.169  13.307
 4306W        W70715  41.231  33.670   4.407
 4307W        W70716  42.163  10.686  12.642
 4308W        W70717  15.690  11.606   1.422
 4309W        W70718  24.977  39.590   1.705
 4310W        W70719  33.678  30.136   2.664
 4311W        W70720   7.066  34.853  13.848
 4312W        W70721  15.151  17.962  11.251
 4313W        W70722  15.373  17.180   4.669
 4314W        W70723  27.987  12.115  11.222
 4315W        W70724  17.545   9.882  14.457
 4316W        W70725  43.979  19.917  11.304
 4317W        W70726  25.132   7.365   2.497
 4318W        W70727   0.743  38.892   0.880
 4319W        W70728  32.940  14.170   2.841
 4320W        W70729  19.748  25.798  11.710
 4321W        W70730  13.410  21.920   3.243
 4322W        W70731  38.007  20.760  11.634
 4323W        W70732  15.763  26.912   3.161
 4324W        W70733  20.013   1.947  10.786
 4325W        W70734  16.135  44.846  11.073
 4326W        W70735  41.713  41.794  12.457
 4327W        W70736  21.574  26.946   2.198
 4328W        W70737  17.357  21.706   3.846
 4329W        W70738  35.149  38.774   3.224
 4330W        W70739   8.788  44.321   4.419
 4331W        W70740  19.849  36.244  13.270
 4332W        W70741   0.665  26.873  10.160
 4333W        W70742   4.476  33.362  11.728
 4334W        W70743  40.912  37.537  13.093
 4335W        W70744  19.059  12.181  13.544
 4336W        W70745   2.811  39.282  10.742
 4337W        W70746   0.886   9.826  14.963
 4338W        W70747   7.936  27.180  14.816
 4339W        W70748   8.526  32.591  14.126
 4340W        W70749  25.011   4.965  12.487
 4341W        W70750  24.243   3.331  11.628
 4342W        W70751   7.386  40.019   2.339
 4343W        W70752  18.579  41.013   4.080
 4344W        W70753  32.462  35.613   4.240
 4345W        W70754   1.847  17.755   4.052
 4346W        W70755  26.787  24.024   3.549
 4347W        W70756  25.952  11.999   4.878
 4348W        W70757  28.713  12.235  10.118
 4349W        W70758  22.954  20.547  14.045
 4350W        W70759  16.677  16.823   0.788
 4351W        W70760  33.800  37.463  14.758
 4352W        W70761  24.450   2.023  13.369
 4353W        W70762   4.749  34.568  10.640
 4354W        W70763  34.981   1.727  13.967
 4355W        W70764   6.697   9.344  11.563
 4356W        W70765  44.708  39.891   0.313
 4357W        W70766  43.879  28.427   4.476
 4358W        W70767  35.497  43.340  14.834
 4359W        W70768  41.480  44.514   2.139
 4360W        W70769  39.578  12.408   0.805
 4361W        W70770   9.937  38.088  12.106
 4362W        W70771  28.300  25.166   1.753
 4363W        W70772  14.917  14.231   4.685
 4364W        W70773   0.855  41.349   4.178
 4365W        W70774  16.182  22.249   2.116
 4366W        W70775  13.302  26.599   1.387
 4367W        W70776  25.027  22.653  12.565
 4368W        W70777   6.069  25.507  14.843
 4369W        W70778  35.260   6.342  14.424
 4370W        W70779  20.023  28.654  13.436
 4371W        W70780   7.135   8.821  13.666
 4372W        W70781   1.159  35.974  14.957
 4373W        W70782  33.044  31.432   4.929
 4374W        W70783  33.576   6.411  10.748
 4375W        W70784   3.414   3.072   4.713
 4376W        W70785   8.755   7.767   2.492
 4377W        W70786  37.061  35.629   0.839
 4378W        W70787  31.021  15.655  14.871
 4379W        W70788   2.552   0.197  10.631
 4380W        W70789  25.707  32.488   3.112
 4381W        W70790  18.872  13.805   1.277
 4382W        W70791   2.860  36.426   0.481
 4383W        W70792   4.596  14.331  12.136
 4384W        W70793  26.524  35.000   4.534
 4385W        W70794  40.370  22.664  10.456
 4386W        W70795  39.533  32.692   3.548
 4387W        W70796  42.266  23.754   2.253
 4388W        W70797   1.842  33.961   0.293
 4389W        W70798   7.812   2.459   0.764
 4390W        W70799  42.179   9.049  11.701
 4391W        W70800  31.464  25.208  11.155
 4392W        W70801  19.588   9.309  12.614
 4393W        W70802  13.363  12.737  11.903
 4394W        W70803  44.475  25.645  12.840
 4395W        W70804  41.582  22.136  13.265
 4396W        W70805   8.601  39.520   3.735
 4397W        W70806  20.192  26.873   2.243
 4398W        W70807  34.573  43.296  10.760
 4399W        W70808  37.528   4.365   0.923
 4400W        W70809  36.744  27.075   2.153
 4401W        W70810  37.848   2.736  14.344
 4402W        W70811  23.268  17.168   4.010
 4403W        W70812  31.056   6.871   0.447
 4404W        W70813  17.537  27.958  12.895
 4405W        W70814  35.462  16.086   3.440
 4406W        W70815  30.686  32.587   3.332
 4407W        W70816  13.410  42.046  12.065
 4408W        W70817   0.901   4.905   9.980
 4409W        W70818  41.090  32.906   3.664
 4410W        W70819   2.947   4.433  12.460
 4411W        W70820  11.641  25.707  13.597
 4412W        W70821   5.631  26.060  11.231
 4413W        W70822   7.777   7.075  14.492
 4414W        W70823  19.311  12.451  13.137
 4415W        W70824  20.719   1.193  13.395
 4416W        W70825  15.281  19.475   2.714
 4417W        W70826  44.380  30.955   3.349
 4418W        W70827  38.713  12.146  13.584
 4419W        W70828  30.476  12.838   1.349
 4420W        W70829  32.547  19.079   4.649
 4421W        W70830  33.700  42.286  10.582
 4422W        W70831  10.392  35.290   2.764
 4423W        W70832  35.938  20.561  12.740
 4424W        W70833   4.422  23.965   1.310
 4425W        W70834   3.867  15.810   3.714
 4426W        W70835  10.221   5.161  13.832
 4427W        W70836  29.413  39.101  10.724
 4428W        W70837   5.841   9.600   0.929
 4429W        W70838  32.860  43.395  13.361
 4430W        W70839  39.744  37.179   2.727
 4431W        W70840  32.339  19.566  11.690
 4432W        W70841  38.932  44.017   2.430
 4433W        W70842  15.752  29.105  10.726
 4434W        W70843  21.953  21.737   2.202
 4435W        W70844  40.410  41.374   0.317
 4436W        W70845  20.245  36.009   2.365
 4437W        W70846   7.746  39.943  11.192
 4438W        W70847   7.511  20.037   3.375
 4439W        W70848  37.130  42.706   1.231
 4440W        W70849  25.849  39.227  11.193
 4441W        W70850  41.304  22.823  10.625
 4442W        W70851   9.238  20.268   4.162
 4443W        W70852  29.688  37.483  11.216
 4444W        W70853   1.358  21.879   1.470
 4445W        W70854  25.521   1.761   4.137
 4446W        W70855   1.599  35.009   4.224
 4447W        W70856   4.483   7.216   1.874
 4448W        W70857  11.485  38.050  11.647
 4449W        W70858  24.764  41.782   3.551
 4450W        W70859  42.716  37.473  12.608
 4451W        W70860  28.406  14.167   0.127
 4452W        W70861  34.928  36.909   4.744
 4453W        W70862   7.092   4.367   1.314
 4454W        W70863  27.693  23.516  10.973
 4455W        W70864  33.139  33.564   1.192
 4456W        W70865   3.464  18.307  12.006
 4457W        W70866  33.472   7.860   0.900
 4458W        W70867  35.967   5.001   1.153
 4459W        W70868   3.872   3.639  12.947
 4460W        W70869  27.922  31.811   2.338
 4461W        W70870  13.495   4.037  13.909
 4462W        W70871  17.142  23.467   0.194
 4463W        W70872  11.607  39.823  11.242
 4464W        W70873   3.902   8.650   1.277
 4465W        W70874  30.552   6.768   1.248
 4466W        W70875  17.448   4.459   3.421
 4467W        W70876  17.907  14.783  12.464
 4468W        W70877   4.665  27.370   2.177
 4469W        W70878  15.672  11.096  12.082
 4470W        W70879  43.900  34.060   0.708
 4471W        W70880  19.206  10.578  10.689
 4472W        W70881  10.206   7.821   0.515
 4473W        W70882  16.301  31.904  13.404
 4474W        W70883   4.070   1.760   2.259
 4475W        W70884  43.838   4.145  14.493
 4476W        W70885   6.777  21.561   4.548
 4477W        W70886   3.203  19.744   0.014
 4478W        W70887  41.772  26.189  14.463
 4479W        W70888   7.231  38.087  11.193
 4480W        W70889  23.229  20.309  14.861
 4481W        W70890  33.762  32.977   2.830
 4482W        W70891  19.064  41.017  12.540
 4483W        W70892  26.013  11.380  12.658
 4484W        W70893  41.964  36.499   3.149
 4485W        W70894  41.201  17.710   0.927
 4486W        W70895  21.995  13.037   3.150
 4487W        W70896  38.638  39.431  11.175
 4488W        W70897  43.436   5.912   0.053
 4489W        W70898   5.843  28.078  10.908
 4490W        W70899   4.185  41.948   4.553
 4491W        W70900  19.821  22.854   3.665
 4492W        W70901  10.800  33.182  12.533
 4493W        W70902  37.377   3.968  14.257
 4494W        W70903  24.349  38.877  12.159
 4495W        W70904  17.886   6.471   3.323
 4496W        W70905  11.386  44.199   5.444
 4497W        W70906  17.344   1.433  13.537
 4498W        W70907  44.823  25.150   4.911
 4499W        W70908  18.066  29.668  13.705
 4500W        W70909  39.690  32.546   1.008
 4501W        W70910  15.520  33.383  14.943
 4502W        W70911  17.855  44.902   2.282
 4503W        W70912  38.087  39.712   4.063
 4504W        W70913  38.579   1.506  10.942
 4505W        W70914  38.085   6.331   4.566
 4506W        W70915  33.931  43.433  12.123
 4507W        W70916  16.647   9.431  12.936
 4508W        W70917  16.752  11.129  13.580
 4509W        W70918  30.097  10.156   2.712
 4510W        W70919  39.366  34.715   1.438
 4511W        W70920   8.815   7.856  13.363
 4512W        W70921  17.291  22.632  10.776
 4513W        W70922   6.733  10.168   4.628
 4514W        W70923  23.439  40.986  13.859
 4515W        W70924  22.868  32.971  12.494
 4516W        W70925  33.451  39.365  14.289
 4517W        W70926  41.989   6.261  14.496
 4518W        W70927  29.381  38.062  14.372
 4519W        W70928  31.304  33.540   3.302
 4520W        W70929  35.281  39.907   4.242
 4521W        W70930  28.659  30.343  13.720
 4522W        W70931   1.419  15.897   1.134
 4523W        W70932  26.958  29.534  13.273
 4524W        W70933  27.983  21.308   3.691
 4525W        W70934  40.501  15.246   1.765
 4526W        W70935  24.627  28.708   2.951
 4527W        W70936  44.707  26.486   1.897
 4528W        W70937  10.229  28.236  13.048
 4529W        W70938  29.976  32.970  12.893
 4530W        W70939  40.878  27.467   3.256
 4531W        W70940  31.996   4.893   1.785
 4532W        W70941  26.850  16.595  11.158
 4533W        W70942  12.648  44.729  11.679
 4534W        W70943  22.156  37.544  13.623
 4535W        W70944   2.094   0.400   2.673
 4536W        W70945  37.669  37.780   2.293
 4537W        W70946  40.899  44.808   0.983
 4538W        W70947  33.842  10.167   2.222
 4539W        W70948  22.264  44.168   2.758
 4540W        W70949  43.444  19.271   1.711
 4541W        W70950   8.036  32.405  10.565
 4542W        W70951  12.162   8.668   1.260
 4543W        W70952   1.479   5.907   1.821
 4544W        W70953  41.784  13.026  12.424
 4545W        W70954  29.490  42.078   1.056
 4546W        W70955  30.538   8.958  14.388
 4547W        W70956   1.155  28.431   0.424
 4548W        W70957  10.154  41.453  14.287
 4549W        W70958  36.304  39.087   3.885
 4550W        W70959  16.379  28.701   1.852
 4551W        W70960  27.812  42.870  12.663
 4552W        W70961  39.080  20.791   3.547
 4553W        W70962  28.730  41.759   2.792
 4554W        W70963   6.066  30.640   0.965
 4555W        W70964  39.522  41.071  11.566
 4556W        W70965  32.008  33.522  11.605
 4557W        W70966  17.585   7.341   4.728
 4558W        W70967  35.620  31.699  10.801
 4559W        W70968  36.178  31.603   0.333
 4560W        W70969   9.082   9.026   0.941
 4561W        W70970  21.845  30.539  13.837
 4562W        W70971  20.710  22.627   0.062
 4563W        W70972   9.075   0.813  10.472
 4564W        W70973  15.734   4.935  12.373
 4565W        W70974  18.493  33.957   0.914
 4566W        W70975  16.302  30.032  13.962
 4567W        W70976   1.055  14.574  10.607
 4568W        W70977  37.378  37.287  13.452
 4569W        W70978  42.548  18.270  12.071
 4570W        W70979  40.796   7.627  11.923
 4571W        W70980   8.854  28.701  13.418
 4572W        W70981  21.555  14.266   3.915
 4573W        W70982  13.641  33.543   2.405
 4574W        W70983   1.349  27.436   4.322
 4575W        W70984  42.909  29.252   0.436
 4576W        W70985  13.150  28.127  12.350
 4577W        W70986   5.302  38.537   1.990
 4578W        W70987   6.723  40.017  11.573
 4579W        W70988  26.951  14.723   4.909
 4580W        W70989  17.699  40.482   3.849
 4581W        W70990  31.094  21.675   2.171
 4582W        W70991  31.192  44.810   3.207
 4583W        W70992  28.476  33.376  11.069
 4584W        W70993  21.399  33.511   0.224
 4585W        W70994   6.320  18.251  12.530
 4586W        W70995  16.320  42.552   2.656
 4587W        W70996  35.563  37.897  13.238
 4588W        W70997  30.733  10.999   3.714
 4589W        W70998  17.588   5.303  12.433
 4590W        W70999   4.405  38.516  14.350
 4591W        W71000  40.061  12.759  11.181
 4592W        W71001  29.163  31.332  12.977
 4593W        W71002  41.394  16.874  14.979
 4594W        W71003  12.625   4.547   4.272
 4595W        W71004   4.282  13.297  12.861
 4596W        W71005  15.508  15.601   2.637
 4597W        W71006  15.279   5.011  10.505
 4598W        W71007  19.130  43.426   4.632
 4599W        W71008  24.676   9.350   1.355
 4600W        W71009  35.916   7.906  13.574
 4601W        W71010  13.824  25.284   2.903
 4602W        W71011   6.612  36.480   4.399
 4603W        W71012  38.007  38.710   0.318
 4604W        W71013  32.681  33.876   0.038
 4605W        W71014  33.939  11.553  14.430
 4606W        W71015   5.376  36.040  11.394
 4607W        W71016  10.696   5.892   4.159
 4608W        W71017  26.752   2.660   2.529
 4609W        W71018   5.783   3.511  10.604
 4610W        W71019  11.339   8.381   0.021
 4611W        W71020  20.217  35.322   0.910
 4612W        W71021   7.961  10.646   2.351
 4613W        W71022  12.648  35.580  13.712
 4614W        W71023   3.286   9.171  14.919
 4615W        W71024  33.990  38.137  11.543
 4616W        W71025   3.802   2.270   4.581
 4617W        W71026  19.077  19.057  13.324
 4618W        W71027  25.347  38.866  12.433
 4619W        W71028  44.987   7.311   0.836
 4620W        W71029  11.257   6.032  12.051
 4621W        W71030  38.883  19.791   0.900
 4622W        W71031   9.604  15.861  10.233
 4623W        W71032   0.815  28.183  14.805
 4624W        W71033  14.705  11.160  10.544
 4625W        W71034   2.857   5.378   1.761
 4626W        W71035  34.188  21.039  11.903
 4627W        W71036  29.692  24.508  13.542
 4628W        W71037  44.430  19.870   3.403
 4629W        W71038  19.079  22.800   4.623
 4630W        W71039  27.493  22.103   1.252
 4631W        W71040  39.932   8.143  12.061
 4632W        W71041   2.718  20.996  13.423
 4633W        W71042  42.213  27.148   2.263
 4634W        W71043   8.224  39.056  14.220
 4635W        W71044   9.236  35.123  12.357
 4636W        W71045   4.138  14.053  12.133
 4637W        W71046  29.610  39.022   1.781
 4638W        W71047  27.470  20.668  14.500
 4639W        W71048   3.493  41.444   1.453
 4640W        W71049  23.590  44.045   3.541
 4641W        W71050  24.168   5.721   2.233
 4642W        W71051   1.156  13.667   1.461
 4643W        W71052  18.673  25.741   4.752
 4644W        W71053  24.979  32.179   4.186
 4645W        W71054  30.773   5.808   1.422
 4646W        W71055  35.338  27.099   0.954
 4647W        W71056   4.449  16.281   1.512
 4648W        W71057  26.914  20.247   3.165
 4649W        W71058  26.117  43.085   3.729
 4650W        W71059  26.983   0.777  10.494
 4651W        W71060  22.299   4.358   3.450
 4652W        W71061   2.538   9.881  12.645
 4653W        W71062  43.955  42.132   1.996
 4654W        W71063  27.210  25.161   0.279
 4655W        W71064  29.938  39.477   1.789
 4656W        W71065  34.911  29.048  14.680
 4657W        W71066  31.082  10.073  11.124
 4658W        W71067  36.833  29.204   3.675
 4659W        W71068  44.341  36.915  14.864
 4660W        W71069   9.470  24.513   0.425
 4661W        W71070  16.788  40.460  14.501
 4662W        W71071  29.042   1.006   2.583
 4663W        W71072   6.171  34.025   0.918
 4664W        W71073  15.225  42.557   0.851
 4665W        W71074  41.039  16.290   1.476
 4666W        W71075   7.728  36.532  11.605
 4667W        W71076  16.541  41.734   3.158
 4668W        W71077  12.635  23.714  10.683
 4669W        W71078  32.157   8.882  12.091
 4670W        W71079   4.777  37.905   1.317
 4671W        W71080  29.892  13.528  12.914
 4672W        W71081  17.073  31.935   2.407
 4673W        W71082  21.662  42.948  14.386
 4674W        W71083  31.072  35.445   4.122
 4675W        W71084   9.712  43.110  11.949
 4676W        W71085  37.272  35.627  11.185
 4677W        W71086   6.432   0.244  14.276
 4678W        W71087  40.579  43.847   3.538
 4679W        W71088  32.535  40.414   3.109
 4680W        W71089   7.590  32.441  13.282
 4681W        W71090   3.290  32.573   2.520
 4682W        W71091   1.925  42.701   2.888
 4683W        W71092  26.111  14.161   3.841
 4684W        W71093  30.023  41.516  14.337
 4685W        W71094  44.972  33.935   4.229
 4686W        W71095  20.763  43.636  12.012
 4687W        W71096  32.017   2.933  14.384
 4688W        W71097  28.736  32.154   1.171
 4689W        W71098   5.262  34.003  11.771
 4690W        W71099  28.740  29.300   2.337
 4691W        W71100  15.381  38.568  14.423
 4692W        W71101  29.421  18.747  11.168
 4693W        W71102  20.322  36.774   0.294
 4694W        W71103   9.453  34.997  10.992
 4695W        W71104  30.127  19.737  13.286
 4696W        W71105   9.639  24.576  13.137
 4697W        W71106  25.468  39.481  11.868
 4698W        W71107   9.060  13.687  11.711
 4699W        W71108  25.983  37.487  13.135
 4700W        W71109  14.738  43.390  11.043
 4701W        W71110  17.598  27.730   1.819
 4702W        W71111   1.195   0.866  12.920
 4703W        W71112  15.770  29.704   9.929
 4704W        W71113  14.381  43.391  11.460
 4705W        W71114  33.156  31.455  13.800
 4706W        W71115  27.039  33.422   4.221
 4707W        W71116   4.682   8.469   9.974
 4708W        W71117  15.153  12.598   2.664
 4709W        W71118  23.259  44.908  14.067
 4710W        W71119  22.080   5.481   2.864
 4711W        W71120   2.428  43.370   1.224
 4712W        W71121  21.273  25.677  14.974
 4713W        W71122   9.665   7.795  11.747
 4714W        W71123  40.513  42.324   1.233
 4715W        W71124  19.195   8.734  12.552
 4716W        W71125  35.033  36.864  13.878
 4717W        W71126   3.994  26.099   4.274
 4718W        W71127  28.014  22.250   1.299
 4719W        W71128  44.488  13.826   2.188
 4720W        W71129   9.603   5.770   0.354
 4721W        W71130   2.416  36.907   2.939
 4722W        W71131  10.671  12.626   0.308
 4723W        W71132  27.112  16.120  14.283
 4724W        W71133  34.988  10.150   2.073
 4725W        W71134  24.671  34.887  11.575
 4726W        W71135  31.381  30.696   0.441
 4727W        W71136  27.962  29.413  14.883
 4728W        W71137  32.037   0.525   0.361
 4729W        W71138  11.114  38.304  11.314
 4730W        W71139  36.579  40.519   2.681
 4731W        W71140  17.835  19.126   1.810
 4732W        W71141  40.906  23.870   2.614
 4733W        W71142  33.830  43.967   4.517
 4734W        W71143   1.314  12.647  12.593
 4735W        W71144  12.086   1.844   3.165
 4736W        W71145  37.675  43.316  11.651
 4737W        W71146  35.037  37.325   1.652
 4738W        W71147  19.520  18.229  13.782
 4739W        W71148  32.320  41.111   3.646
 4740W        W71149   4.357   7.260  14.823
 4741W        W71150  11.335  24.581  10.665
 4742W        W71151   4.674  28.389   2.340
 4743W        W71152  31.138  24.664  13.343
 4744W        W71153  15.610  17.240  12.100
 4745W        W71154  35.575  29.887   1.770
 4746W        W71155  19.319  11.705   2.469
 4747W        W71156  24.679  37.308   1.366
 4748W        W71157  24.006  23.839  14.087
 4749W        W71158  40.025  15.858   3.731
 4750W        W71159  39.101  21.180   2.746
 4751W        W71160  44.969  33.581  10.813
 4752W        W71161  40.477  12.140   3.153
 4753W        W71162  15.765  41.698  13.998
 4754W        W71163  39.845   5.394   4.065
 4755W        W71164  35.996  27.647   2.462
 4756W        W71165   0.830  38.999   1.830
 4757W        W71166  11.076  30.165  10.647
 4758W        W71167  22.125  25.995   0.073
 4759W        W71168  29.912   9.207  10.743
 4760W        W71169  20.735  12.745  14.400
 4761W        W71170  44.408  28.927  11.964
 4762W        W71171  33.562  44.999  12.729
 4763W        W71172  25.513  16.870  11.915
 4764W        W71173  42.947   8.600   0.385
 4765W        W71174  27.182  39.125   4.849
 4766W        W71175   8.743  12.638  10.841
 4767W        W71176   7.676  32.315  10.193
 4768W        W71177  26.509   1.391  11.216
 4769W        W71178  35.151  21.292  12.695
 4770W        W71179  43.714  23.963  11.606
 4771W        W71180  25.708  19.894   2.671
 4772W        W71181  25.967  15.304   3.341
 4773W        W71182  23.566   6.121   3.622
 4774W        W71183  21.546  19.924   0.398
 4775W        W71184  33.452   5.792  10.096
 4776W        W71185  40.859  16.822  11.213
 4777W        W71186  11.257   3.490  10.609
 4778W        W71187  18.681  22.729  13.382
 4779W        W71188  30.503   0.294  13.428
 4780W        W71189  27.436  25.022   4.322
 4781W        W71190  17.601  28.044  13.737
 4782W        W71191  20.022  32.176  13.887
 4783W        W71192   1.373   0.129   4.657
 4784W        W71193  22.232   0.418   2.256
 4785W        W71194  13.007  15.833   3.089
 4786W        W71195  12.338  37.473  10.123
 4787W        W71196   8.829  15.652  14.555
 4788W        W71197  29.495  23.306   3.753
 4789W        W71198   6.173  41.131  11.606
 4790W        W71199  18.372  20.489   3.574
 4791W        W71200  40.566  29.392   3.151
 4792W        W71201   1.426   8.613   2.887
 4793W        W71202  28.688  26.545   0.487
 4794W        W71203   3.001  19.635   0.475
 4795W        W71204  42.493  19.299  13.003
 4796W        W71205   9.220   2.161   4.131
 4797W        W71206   0.237   1.029  11.200
 4798W        W71207  43.905  11.916   3.752
 4799W        W71208  36.413  20.835   0.225
 4800W        W71209  19.089   6.263   3.875
 4801W        W71210   7.521  33.195   4.834
 4802W        W71211  36.367   0.893   4.403
 4803W        W71212  19.490  41.041   2.481
 4804W        W71213  24.762  37.060  14.082
 4805W        W71214  23.625   3.945   4.361
 4806W        W71215   7.336   5.670  11.088
 4807W        W71216   9.652  20.143   3.272
 4808W        W71217   5.704   4.378   4.170
 4809W        W71218  31.981  34.512  13.484
 4810W        W71219  26.596  14.355   4.002
 4811W        W71220   6.673  21.912   0.912
 4812W        W71221  27.749  14.217  14.382
 4813W        W71222  30.630  12.399  12.952
 4814W        W71223  24.283  20.736   2.896
 4815W        W71224  40.310  25.858  13.566
 4816W        W71225  13.724   7.221   4.795
 4817W        W71226  14.073  43.114   3.592
 4818W        W71227  33.747   4.442  11.214
 4819W        W71228  20.096  12.309  13.337
 4820W        W71229  44.467   2.767   4.384
 4821W        W71230  34.863  30.658  13.361
 4822W        W71231  20.794  28.120   2.286
 4823W        W71232  43.513  32.229  10.804
 4824W        W71233  23.455   3.386   0.451
 4825W        W71234  12.677  28.642   2.389
 4826W        W71235  34.048  34.031  12.303
 4827W        W71236   3.002  20.378  11.364
 4828W        W71237   2.885  12.670   4.231
 4829W        W71238  17.799   0.267  14.904
 4830W        W71239  32.885   0.001  11.547
 4831W        W71240  11.691  40.099  14.022
 4832W        W71241  29.688  19.657   4.455
 4833W        W71242  39.555  16.281  10.707
 4834W        W71243  37.081  32.652   0.269
 4835W        W71244  30.432  34.427  13.619
 4836W        W71245  31.867  15.809  11.049
 4837W        W71246  35.980  10.502  12.815
 4838W        W71247   9.352  32.211   2.361
 4839W        W71248  27.480  15.812  11.916
 4840W        W71249   8.597   9.281  11.523
 4841W        W71250  24.583  22.767   3.717
 4842W        W71251  11.375  24.629   0.413
 4843W        W71252  40.341  12.381   4.535
 4844W        W71253  22.729   5.957  12.571
 4845W        W71254  17.139  41.501  14.907
 4846W        W71255  22.055   9.190   1.985
 4847W        W71256  28.145  42.132  12.928
 4848W        W71257   1.311   2.891   1.643
 4849W        W71258  31.960  11.176   0.490
 4850W        W71259  29.385  42.566   2.243
 4851W        W71260   6.198  11.658  13.475
 4852W        W71261  39.267  36.427  12.444
 4853W        W71262  23.933  26.160   0.301
 4854W        W71263  11.724  11.940  13.130
 4855W        W71264  27.360  33.769  12.511
 4856W        W71265  16.255  12.885   2.868
 4857W        W71266  15.474  30.558  12.473
 4858W        W71267  30.110  35.383   0.988
 4859W        W71268  25.426  33.892   2.652
 4860W        W71269  19.492  13.100   0.036
 4861W        W71270  30.469  42.677   1.368
 4862W        W71271  21.376  24.337  13.795
 4863W        W71272  19.196  26.273   0.284
 4864W        W71273  44.114  44.250  10.649
 4865W        W71274   2.311   3.792   2.154
 4866W        W71275  18.771  32.158  14.958
 4867W        W71276  13.996  31.638   3.581
 4868W        W71277  14.916  32.169   1.176
 4869W        W71278  20.228   9.265  14.836
 4870W        W71279   2.031  29.814  11.569
 4871W        W71280  36.138  34.884   0.914
 4872W        W71281  13.657  39.782  10.636
 4873W        W71282  22.076  12.946  12.604
 4874W        W71283  24.680  26.960  12.100
 4875W        W71284  36.882  29.669   1.970
 4876W        W71285   2.777  39.816  10.819
 4877W        W71286  14.647  12.800   2.756
 4878W        W71287   4.754  20.055   2.790
 4879W        W71288  36.464  28.721  10.690
 4880W        W71289  21.875   8.104  11.061
 4881W        W71290   4.756  42.493   0.460
 4882W        W71291  31.449  39.192   4.140
 4883W        W71292  16.319  43.896   3.858
 4884W        W71293   6.688  22.522   2.204
 4885W        W71294  18.227   5.407   0.828
 4886W        W71295  22.928  26.913   1.718
 4887W        W71296   4.123  31.402   1.720
 4888W        W71297  22.978  28.497  12.170
 4889W        W71298   9.691  11.277  13.910
 4890W        W71299   3.904  16.567  14.038
 4891W        W71300  42.794  44.621  12.801
 4892W        W71301   9.343  23.107   0.409
 4893W        W71302   6.930  13.338   1.146
 4894W        W71303  14.577  17.516   0.013
 4895W        W71304   3.829  10.395  12.123
 4896W        W71305  14.824   7.145   2.694
 4897W        W71306  42.757  24.712   1.691
 4898W        W71307   5.004  20.730   2.419
 4899W        W71308  30.447   9.647   3.580
 4900W        W71309  37.039  13.691  13.586
 4901W        W71310  43.985  17.061   2.771
 4902W        W71311  34.988  40.741   4.579
 4903W        W71312  30.640  35.560   0.202
 4904W        W71313  27.722   6.648   1.965
 4905W        W71314  27.042  33.926   0.727
 4906W        W71315   2.377  42.506   4.585
 4907W        W71316  24.706  16.638   4.890
 4908W        W71317   4.968  35.999  13.054
 4909W        W71318  15.872  35.521  13.097
 4910W        W71319  39.072  32.641  14.284
 4911W        W71320  12.179   5.597  12.537
 4912W        W71321  24.479  17.040   0.146
 4913W        W71322   8.363   5.788  14.478
 4914W        W71323  28.226  14.632  12.483
 4915W        W71324  21.592  38.667  14.561
 4916W        W71325  24.638  31.356  11.608
 4917W        W71326  22.039  24.205  10.667
 4918W        W71327  34.379  34.449   1.253
 4919W        W71328  44.546  13.770   0.706
 4920W        W71329  31.151  28.130  12.859
 4921W        W71330  38.540   3.611  14.737
 4922W        W71331  36.724  20.810   1.188
 4923W        W71332  21.561  12.256   4.624
 4924W        W71333  41.935   6.746   4.017
 4925W        W71334  30.973  14.258   3.329
 4926W        W71335  22.580  26.639  10.795
 4927W        W71336  15.735  19.467  14.849
 4928W        W71337  25.747  40.380   2.913
 4929W        W71338  10.873  41.148  10.627
 4930W        W71339  35.555  27.993  10.767
 4931W        W71340  26.455   9.591  14.741
 4932W        W71341  32.526  40.619  11.387
 4933W        W71342  42.497  43.989  14.507
 4934W        W71343  20.373  38.833  10.194
 4935W        W71344  34.556  41.854  13.065
 4936W        W71345  20.428  13.804  10.912
 4937W        W71346   4.355   3.015  10.609
 4938W        W71347  30.314  44.490  12.090
 4939W        W71348  18.550  41.924  10.876
 4940W        W71349  29.370  18.421  12.456
 4941W        W71350   5.246  30.224  14.488
 4942W        W71351  26.667  25.657  10.965
 4943W        W71352  39.929   9.811  11.007
 4944W        W71353  15.302  43.520  13.666
 4945W        W71354  23.973   5.961  10.717
 4946W        W71355  21.054  11.289  10.781
 4947W        W71356   5.287  13.572   2.402
 4948W        W71357  36.429   9.813  13.977
 4949W        W71358  35.986  42.763  12.481
 4950W        W71359  44.202  13.345  14.469
 4951W        W71360   7.030  29.050   2.381
 4952W        W71361   3.164  32.210  14.400
 4953W        W71362  11.175  25.797  12.540
 4954W        W71363  24.781  17.940  14.759
 4955W        W71364  43.414  16.477   4.784
 4956W        W71365  40.277  38.841   1.635
 4957W        W71366   4.459  36.900  12.987
 4958W        W71367  39.629   5.280   3.601
 4959W        W71368   0.449  29.694  12.467
 4960W        W71369  26.824  29.535   2.226
 4961W        W71370  13.584   6.005   4.417
 4962W        W71371  22.111   2.146   1.360
 4963W        W71372  18.976   3.680   0.016
 4964W        W71373  31.525   1.435   0.034
 4965W        W71374   6.161  24.470  12.940
 4966W        W71375  29.882  19.174   4.586
 4967W        W71376  30.744  38.652   1.788
 4968W        W71377  31.632  23.740  14.845
 4969W        W71378  18.791  12.073   1.889
 4970W        W71379  34.626  19.567   1.824
 4971W        W71380   6.095  32.534   4.498
 4972W        W71381  42.240  21.391  11.706
 4973W        W71382   4.917  15.212   3.290
 4974W        W71383   2.972  17.737  14.587
 4975W        W71384  13.792  15.582   3.199
 4976W        W71385  20.972   8.742  14.922
 4977W        W71386  22.113  34.409  13.064
 4978W        W71387  24.204  37.654  12.338
 4979W        W71388   9.274  23.459  12.445
 4980W        W71389   4.446  12.847  10.648
 4981W        W71390  42.977  25.032  11.183
 4982W        W71391  42.821  10.233  14.414
 4983W        W71392  38.635   9.597  13.522
 4984W        W71393   8.319   3.332   2.662
 4985W        W71394  39.506  35.009   0.996
 4986W        W71395   6.556   0.627  10.350
 4987W        W71396   2.990  29.898  12.254
 4988W        W71397  10.583  36.542   2.646
 4989W        W71398  33.968  36.557  12.493
 4990W        W71399   3.834  28.701   0.835
 4991W        W71400   0.741  39.460   2.912
 4992W        W71401  23.966  30.682   1.447
 4993W        W71402   8.674  35.895  14.869
 4994W        W71403  40.170  17.355   2.300
 4995W        W71404  16.427   1.774   2.070
 4996W        W71405  22.080  11.809   1.529
 4997W        W71406  22.244  27.234   2.230
 4998W        W71407  13.887  11.163   1.235
 4999W        W71408  26.478  10.326   0.907
 5000W        W71409  15.492  23.064   3.678
 5001W        W71410  39.790   3.402  10.907
 5002W        W71411  19.775  30.288   1.821
 5003W        W71412  10.415  13.747  12.957
 5004W        W71413  16.769   5.713  14.727
 5005W        W71414   6.788   9.891   2.360
 5006W        W71415  14.103  34.056   1.642
 5007W        W71416   1.237  41.220   2.355
 5008W        W71417  38.976   2.971   2.914
 5009W        W71418  19.183  39.483   1.083
 5010W        W71419  13.541  37.625  13.231
 5011W        W71420  29.141  37.769   2.724
 5012W        W71421  29.606   5.165  11.527
 5013W        W71422  15.610  43.775  11.095
 5014W        W71423  25.561  15.280  13.575
 5015W        W71424  26.962  27.727  13.887
 5016W        W71425  44.290  44.508   4.962
 5017W        W71426   8.209  28.097  10.885
 5018W        W71427   5.238  22.053   3.593
 5019W        W71428  26.106  40.106   4.058
 5020W        W71429  16.398  22.519  13.557
 5021W        W71430   4.333  40.086  14.353
 5022W        W71431  36.869   4.381   3.268
 5023W        W71432  31.325   7.650   4.169
 5024W        W71433  27.635  16.626  11.585
 5025W        W71434  23.676  27.683  14.137
 5026W        W71435  19.799   5.930  13.035
 5027W        W71436  23.094  17.300  13.887
 5028W        W71437  20.591   3.242  12.651
 5029W        W71438   8.154  11.096   4.656
 5030W        W71439  27.399  37.806  14.653
 5031W        W71440   7.420  20.755   0.244
 5032W        W71441  15.802  39.588   0.351
 5033W        W71442  20.045  28.418  14.326
 5034W        W71443  14.821  30.853   2.272
 5035W        W71444  40.445  40.184  13.761
 5036W        W71445  38.583   4.925   2.428
 5037W        W71446  37.293  37.847   0.498
 5038W        W71447  13.093  17.777   4.501
 5039W        W71448  16.638  33.969   0.000
 5040W        W71449  25.362  17.791   0.734
 5041W        W71450  32.106  37.393  11.116
 5042W        W71451   4.452  23.948   3.159
 5043W        W71452  17.636  32.573  10.974
 5044W        W71453  28.276  39.884   0.150
 5045W        W71454  33.962  44.480  13.964
 5046W        W71455  17.762   4.307   1.474
 5047W        W71456  21.218  37.856   0.454
 5048W        W71457  34.043  38.638   1.238
 5049W        W71458  11.959   3.281   9.802
 5050W        W71459  16.216  30.930   2.408
 5051W        W71460  33.093   6.160   0.418
 5052W        W71461   7.787  37.460   0.499
 5053W        W71462   4.627  44.824   4.591
 5054W        W71463  16.147  26.704  14.939
 5055W        W71464  13.275  42.952  13.449
 5056W        W71465  36.568   3.366  11.687
 5057W        W71466  26.098   0.236   1.251
 5058W        W71467  20.514   3.996  11.543
 5059W        W71468   7.842  13.273   0.793
 5060W        W71469  42.658  10.822  12.447
 5061W        W71470   9.741  25.586  10.004
 5062W        W71471   1.352   2.694   0.255
 5063W        W71472  30.125  34.119  12.419
 5064W        W71473   6.365  17.210   0.317
 5065W        W71474  21.332  41.856  13.640
 5066W        W71475   6.894   9.400   1.266
 5067W        W71476  35.519  36.318   1.121
 5068W        W71477   4.323  27.992  11.112
 5069W        W71478  25.039  21.384  12.093
 5070W        W71479   4.470  44.101   4.959
 5071W        W71480  21.358  17.346   0.477
 5072W        W71481  37.774  10.609  11.120
 5073W        W71482  16.685  27.566   2.078
 5074W        W71483  23.226  39.453   4.120
 5075W        W71484  23.581   0.587   2.519
 5076W        W71485   1.942   5.755  12.826
 5077W        W71486  36.478   9.149   3.836
 5078W        W71487  30.021   4.989  13.949
 5079W        W71488  38.506  43.882  12.891
 5080W        W71489   6.923   2.424  12.576
 5081W        W71490  31.183   9.223  13.960
 5082W        W71491   3.271  29.276  14.016
 5083W        W71492  12.631  24.456   4.009
 5084W        W71493  18.247  33.471   1.078
 5085W        W71494  13.636   3.781   3.810
 5086W        W71495  17.235   8.802  11.571
 5087W        W71496  23.732  32.620   0.000
 5088W        W71497   3.062  15.080  13.967
 5089W        W71498  24.730  14.575  11.632
 5090W        W71499  42.069   8.738  12.146
 5091W        W71500  14.672  32.858  14.929
 5092W        W71501  32.204  20.665   4.034
 5093W        W71502  19.072  10.937  12.913
 5094W        W71503  15.372   3.949  14.570
 5095W        W71504   0.106  17.022  12.253
 5096W        W71505  23.733  29.523   3.649
 5097W        W71506  20.060   2.969   4.146
 5098W        W71507   8.727  11.730   4.574
 5099W        W71508  26.083  23.682  11.559
 5100W        W71509  33.431  15.098   0.490
 5101W        W71510  33.588  37.882   3.210
 5102W        W71511  35.203  14.679   1.813
 5103W        W71512  24.408  40.236   1.811
 5104W        W71513  43.549   5.938   1.847
 5105W        W71514  13.099  25.104  13.288
 5106W        W71515  38.345  32.575  11.148
 5107W        W71516  19.401  10.726  12.389
 5108W        W71517  43.508  22.663  11.267
 5109W        W71518  32.498  24.965  14.008
 5110W        W71519  26.053  28.214   0.932
 5111W        W71520   4.947   0.231   4.577
 5112W        W71521   1.958  28.578   3.243
 5113W        W71522  26.171  22.974  11.258
 5114W        W71523  37.582   7.310   2.377
 5115W        W71524  31.880  39.735   1.690
 5116W        W71525   5.689   5.750  11.048
 5117W        W71526   7.361  27.985  14.912
 5118W        W71527  25.668  29.621  11.327
 5119W        W71528   3.850  15.840   1.828
 5120W        W71529   0.917   0.209  12.425
 5121W        W71530  12.283  16.308  11.961
 5122W        W71531  25.492   4.443  14.426
 5123W        W71532  14.340  34.933   3.635
 5124W        W71533  18.726   6.130  12.565
 5125W        W71534  28.053  27.445  12.853
 5126W        W71535   5.750  43.824  12.839
 5127W        W71536  15.511  33.171   1.458
 5128W        W71537  20.303  29.950  12.634
 5129W        W71538  31.985  27.124  10.698
 5130W        W71539  22.550  31.064   3.204
 5131W        W71540   7.844  35.042  12.588
 5132W        W71541  17.369  22.838  14.115
 5133W        W71542  41.257  18.082   2.203
 5134W        W71543  19.629  16.143  10.898
 5135W        W71544  39.989  19.544  11.061
 5136W        W71545  12.355  25.691  12.839
 5137W        W71546  34.574   8.851  10.775
 5138W        W71547  13.884   6.795  10.671
 5139W        W71548   7.683   9.948  13.977
 5140W        W71549  42.387  24.026   1.637
 5141W        W71550  13.791  31.206  11.741
 5142W        W71551  12.362  34.057   0.750
 5143W        W71552  31.044   2.230   9.843
 5144W        W71553  39.176  31.704  13.483
 5145W        W71554  37.078  25.762   4.145
 5146W        W71555   3.857   9.003  13.297
 5147W        W71556   9.377   5.433   3.627
 5148W        W71557  34.222   2.334   4.005
 5149W        W71558  22.768  33.592  11.171
 5150W        W71559  35.802  40.415   2.148
 5151W        W71560  13.749  31.313   3.256
 5152W        W71561  14.090  31.579  14.825
 5153W        W71562  15.523  27.551   2.342
 5154W        W71563  39.927   9.737   3.846
 5155W        W71564  21.156  38.610  13.726
 5156W        W71565  31.645  22.519   4.058
 5157W        W71566  41.386  28.145  14.768
 5158W        W71567  29.160  11.426   1.382
 5159W        W71568   9.295   8.821   1.372
 5160W        W71569   9.689  38.937  10.384
 5161W        W71570  16.819  40.319   3.747
 5162W        W71571  16.167   0.891  13.486
 5163W        W71572  29.943  21.656   4.844
 5164W        W71573  43.452  33.925  14.884
 5165W        W71574  12.121   6.163  13.453
 5166W        W71575   4.882   1.591  11.197
 5167W        W71576  44.721  20.757  11.609
 5168W        W71577  11.631   9.935   3.766
 5169W        W71578  26.901   8.186  13.154
 5170W        W71579  40.425  42.024   4.630
 5171W        W71580  13.490  30.401   3.298
 5172W        W71581   7.526  25.542   0.056
 5173W        W71582  27.642  21.226   4.291
 5174W        W71583   9.401  24.319   1.817
 5175W        W71584  15.112  39.859   4.175
 5176W        W71585   0.863  42.781  14.502
 5177W        W71586  35.608  39.828   1.750
 5178W        W71587  35.304  24.709   0.805
 5179W        W71588   5.309   9.164  13.849
 5180W        W71589  37.096  38.442   1.224
 5181W        W71590  39.463  20.567   2.142
 5182W        W71591  20.599  11.802  12.799
 5183W        W71592  29.502   1.043   4.472
 5184W        W71593  43.059  10.792   4.482
 5185W        W71594  24.319   3.752   0.452
 5186W        W71595  37.455   0.936   4.095
 5187W        W71596  37.859  30.995   2.346
 5188W        W71597  19.888  44.588  13.326
 5189W        W71598   2.791  36.470  13.423
 5190W        W71599  39.978  38.850  14.994
 5191W        W71600   8.201   4.394   4.094
 5192W        W71601  13.829  41.960   4.750
 5193W        W71602  22.182  33.434   1.348
 5194W        W71603  41.322  37.844  11.860
 5195W        W71604  38.422   3.903  12.926
 5196W        W71605  20.042  33.502  11.314
 5197W        W71606  14.232   6.922  12.378
 5198W        W71607  18.746  33.388   2.793
 5199W        W71608  37.802  25.010   4.630
 5200W        W71609  43.812  36.117   4.404
 5201W        W71610  36.512  35.028  14.716
 5202W        W71611   4.266  33.495  13.851
 5203W        W71612  42.394  35.169  13.969
 5204W        W71613   7.723  39.203   3.736
 5205W        W71614   9.437   1.812   0.393
 5206W        W71615  38.809   1.400   0.842
 5207W        W71616  44.915  11.716  14.431
 5208W        W71617   0.310  15.688   2.669
 5209W        W71618  20.089  13.068   2.967
 5210W        W71619  13.402  27.983  12.776
 5211W        W71620  21.137  40.960  13.303
 5212W        W71621  44.633  26.041  12.524
 5213W        W71622  32.988   2.740  13.355
 5214W        W71623  16.804  42.883  11.571
 5215W        W71624   2.447  29.113  12.633
 5216W        W71625  41.912  43.412   0.958
 5217W        W71626   7.144  44.921   3.652
 5218W        W71627  29.221  34.839  14.933
 5219W        W71628   3.216  32.893   1.167
 5220W        W71629  36.411  17.011  14.996
 5221W        W71630  13.148  28.245  13.783
 5222W        W71631   6.699   3.232  10.629
 5223W        W71632  24.200   4.813  10.701
 5224W        W71633  26.637   1.054  13.537
 5225W        W71634  20.413  19.661   1.211
 5226W        W71635  22.067   4.834   3.104
 5227W        W71636  15.950  41.053   5.424
 5228W        W71637  18.793  22.779  11.688
 5229W        W71638   7.137  41.307  12.552
 5230W        W71639   6.714  22.269  14.422
 5231W        W71640  27.290  25.425   4.010
 5232W        W71641   8.980  23.728  14.138
 5233W        W71642  17.632  22.608   4.804
 5234W        W71643  33.673  27.865   0.898
 5235W        W71644  18.182  13.775   3.301
 5236W        W71645  24.655  36.941  13.204
 5237W        W71646  12.783   2.585   1.731
 5238W        W71647   3.279  13.193   2.395
 5239W        W71648   0.382  35.216   4.214
 5240W        W71649  33.639  26.141   0.405
 5241W        W71650  17.550  19.177   2.228
 5242W        W71651  41.681  14.787   3.971
 5243W        W71652  44.991  10.402  14.245
 5244W        W71653   5.235  25.675  12.353
 5245W        W71654  24.223  42.349   0.196
 5246W        W71655   2.193   2.502   0.001
 5247W        W71656   2.484  37.249  14.095
 5248W        W71657  12.113  12.855   2.687
 5249W        W71658  20.016  29.982   4.893
 5250W        W71659   1.839  28.849  14.251
 5251W        W71660  32.902  14.171   3.738
 5252W        W71661  17.818  31.911  11.674
 5253W        W71662   6.766  13.144  13.000
 5254W        W71663  10.471   8.649  12.855
 5255W        W71664  21.767  26.092  11.077
 5256W        W71665   3.679  25.131   3.755
 5257W        W71666  34.784  10.614   0.414
 5258W        W71667  23.943  22.913   0.484
 5259W        W71668  21.401  32.406  12.073
 5260W        W71669   7.955  22.592   4.561
 5261W        W71670  43.852  26.031   2.800
 5262W        W71671   8.129  22.606   2.340
 5263W        W71672  13.871   2.551  11.560
 5264W        W71673   6.887   1.273   1.841
 5265W        W71674  13.589  43.904   1.276
 5266W        W71675   1.039  22.796  11.393
 5267W        W71676   9.321  15.676  14.369
 5268W        W71677  38.732  42.466   4.593
 5269W        W71678   6.768  29.702  11.485
 5270W        W71679  19.367   6.168  12.128
 5271W        W71680  17.132  18.028  13.139
 5272W        W71681  30.139  39.938  14.641
 5273W        W71682   6.437  20.723  11.130
 5274W        W71683   4.254  11.838   3.382
 5275W        W71684  15.652  16.822  13.420
 5276W        W71685  12.100   8.167   3.715
 5277W        W71686  15.638  23.445   3.194
 5278W        W71687  19.757  34.018   0.360
 5279W        W71688  43.489  34.449  11.069
 5280W        W71689   9.212  29.534  14.175
 5281W        W71690  11.231  24.963  12.016
 5282W        W71691   7.747   8.830  14.223
 5283W        W71692  23.662   4.156   1.819
 5284W        W71693  40.642  11.743  10.663
 5285W        W71694  41.806  43.366   0.461
 5286W        W71695  31.750  36.389   3.274
 5287W        W71696  39.312  20.506  14.336
 5288W        W71697  13.797  30.938   2.299
 5289W        W71698  36.245  20.959   2.441
 5290W        W71699  42.970  30.311   3.547
 5291W        W71700  27.725  10.128  12.361
 5292W        W71701  33.131   9.934   0.753
 5293W        W71702  20.078  34.391   3.316
 5294W        W71703  29.109  34.128   0.801
 5295W        W71704  43.326   6.439  11.540
 5296W        W71705   4.886  10.408   2.606
 5297W        W71706   7.390  39.935  13.420
 5298W        W71707  28.475  16.624   4.077
 5299W        W71708   3.971   5.013   0.865
 5300W        W71709  28.503  42.037  12.524
 5301W        W71710  17.081  16.854  13.584
 5302W        W71711  36.475  12.292  13.854
 5303W        W71712   6.138   6.556  11.141
 5304W        W71713   2.835  32.914  12.168
 5305W        W71714  11.113  23.568  14.973
 5306W        W71715  36.529  31.645  12.040
 5307W        W71716  42.538  25.469  14.524
 5308W        W71717  19.031  31.355   0.262
 5309W        W71718  26.229  42.938  11.134
 5310W        W71719  28.436  21.055   3.639
 5311W        W71720  27.925  12.427   0.483
 5312W        W71721  33.530  19.684   3.338
 5313W        W71722  17.632  21.037   0.239
 5314W        W71723  26.009  37.545  14.492
 5315W        W71724   9.090  41.568   9.761
 5316W        W71725  37.037  21.558   4.503
 5317W        W71726  34.371  36.874  11.158
 5318W        W71727   4.081  37.190   3.537
 5319W        W71728  17.195  14.151   2.621
 5320W        W71729   6.920  14.129  14.948
 5321W        W71730   8.172  20.738  14.543
 5322W        W71731  24.158  15.378   0.259
 5323W        W71732  14.689  39.571   2.100
 5324W        W71733  29.875  32.053   0.376
 5325W        W71734  13.346  10.696  10.380
 5326W        W71735   8.335  38.058   2.849
 5327W        W71736  30.600  28.196   2.305
 5328W        W71737  34.986  31.905   3.178
 5329W        W71738   1.947  44.996   3.679
 5330W        W71739  13.063  43.081  10.693
 5331W        W71740  32.137  28.602  12.121
 5332W        W71741  18.969   3.812   1.414
 5333W        W71742  27.629  44.423   1.343
 5334W        W71743  20.477  32.440   2.511
 5335W        W71744  22.686   4.669  13.690
 5336W        W71745  43.084  44.893   4.052
 5337W        W71746   2.951  31.401  12.163
 5338W        W71747  16.104  29.208   1.008
 5339W        W71748  24.415   1.003   4.368
 5340W        W71749  38.967  22.163  12.910
 5341W        W71750  25.223  33.077  14.451
 5342W        W71751   1.834  42.077   1.606
 5343W        W71752  44.331  26.694  10.104
 5344W        W71753  16.187  13.611   3.496
 5345W        W71754  20.080  32.603  13.601
 5346W        W71755   3.185  29.023   1.987
 5347W        W71756   4.893  44.148  14.527
 5348W        W71757  44.738  41.226   3.133
 5349W        W71758  12.033  11.641  13.967
 5350W        W71759  19.581  11.924   1.631
 5351W        W71760  12.672  25.958  10.727
 5352W        W71761   5.865  25.808   2.130
 5353W        W71762  13.772  14.039  13.028
 5354W        W71763  24.249  35.071  10.994
 5355W        W71764  40.014   1.938  13.419
 5356W        W71765  32.810   1.273   2.804
 5357W        W71766  23.241  21.496   4.055
 5358W        W71767  19.523   6.081  13.503
 5359W        W71768   0.433   8.344  11.468
 5360W        W71769  21.115   5.209  13.471
 5361W        W71770  32.610  17.205  10.656
 5362W        W71771   0.693  10.389   3.215
 5363W        W71772  12.279   1.010   0.811
 5364W        W71773  36.976  13.060   3.216
 5365W        W71774  33.639  40.392  10.515
 5366W        W71775  35.298  39.521   0.297
 5367W        W71776  40.987   1.597  12.546
 5368W        W71777  24.810  36.303   1.693
 5369W        W71778   6.822  41.285  13.915
 5370W        W71779  25.455  34.580  11.214
 5371W        W71780  34.104   6.865   1.157
 5372W        W71781   5.786   1.039  12.134
 5373W        W71782  37.084  37.408   0.723
 5374W        W71783  27.078  27.749  11.205
 5375W        W71784  15.935  28.200  14.312
 5376W        W71785  35.884  23.985  12.154
 5377W        W71786  22.184  40.618   3.745
 5378W        W71787  15.699  17.018  14.353
 5379W        W71788   3.318  16.580   9.675
 5380W        W71789  43.791  24.733  11.161
 5381W        W71790  42.315  15.839   1.031
 5382W        W71791  35.974  20.039  10.190
 5383W        W71792  31.983  40.658  13.950
 5384W        W71793  26.096  16.352  13.819
 5385W        W71794  32.125  42.092  11.871
 5386W        W71795  32.280  44.213  13.369
 5387W        W71796  30.686   6.016  10.193
 5388W        W71797  15.539  22.570   0.669
 5389W        W71798  13.373  17.511  12.542
 5390W        W71799  32.511   8.852   4.553
 5391W        W71800   8.920  16.299   2.690
 5392W        W71801   2.779   3.714   3.327
 5393W        W71802   7.986  18.557   4.211
 5394W        W71803  29.394  14.258   2.807
 5395W        W71804  28.120  26.872   1.387
 5396W        W71805  23.981  11.801   3.673
 5397W        W71806  29.789   2.904  13.300
 5398W        W71807  12.696   5.757  12.631
 5399W        W71808  36.518  25.991   2.629
 5400W        W71809   3.663  42.000  10.759
 5401W        W71810  35.446  16.761  14.016
 5402W        W71811   0.228  19.862  11.491
 5403W        W71812  30.031  16.850   1.955
 5404W        W71813  33.432   5.673   3.680
 5405W        W71814   2.379  35.087  14.352
 5406W        W71815  34.947  23.225   1.764
 5407W        W71816  12.655  10.276   3.266
 5408W        W71817  22.587  20.767  11.073
 5409W        W71818   6.688  41.059  11.619
 5410W        W71819  21.693  43.004   0.524
 5411W        W71820  39.117  14.779  13.959
 5412W        W71821  43.693  13.239  14.388
 5413W        W71822  14.662  36.478  13.842
 5414W        W71823  36.029  16.088   2.146
 5415W        W71824  11.314  26.765  11.404
 5416W        W71825  34.844   2.023  14.363
 5417W        W71826  44.005  41.126  10.802
 5418W        W71827   2.435  37.297   1.435
 5419W        W71828  17.259  40.998   0.778
 5420W        W71829  38.602  35.385  13.521
 5421W        W71830  36.002  12.034  13.874
 5422W        W71831  14.775  35.367   0.964
 5423W        W71832   2.264  37.679   3.247
 5424W        W71833  18.750  19.241   1.813
 5425W        W71834   5.831   8.727   5.012
 5426W        W71835  12.078  42.874  12.687
 5427W        W71836   5.271  15.254   2.796
 5428W        W71837  17.700  28.069  12.409
 5429W        W71838  28.590  10.244   4.459
 5430W        W71839   3.867  14.816  12.582
 5431W        W71840  27.895  27.315   2.714
 5432W        W71841   5.562  19.671   0.638
 5433W        W71842  41.930  12.192  12.806
 5434W        W71843  30.168  12.729   0.965
 5435W        W71844   0.766  28.964   3.589
 5436W        W71845  24.177  18.134   4.555
 5437W        W71846  23.783   5.358   2.322
 5438W        W71847   1.270  17.612  13.928
 5439W        W71848   5.862   6.746   0.270
 5440W        W71849  19.491  33.010   4.088
 5441W        W71850  43.111   1.182  11.116
 5442W        W71851  13.680  10.739  13.389
 5443W        W71852  29.720   3.422   2.732
 5444W        W71853   8.410   1.409  14.772
 5445W        W71854  11.986   4.818  10.382
 5446W        W71855   0.437  38.596  14.733
 5447W        W71856  31.432  42.081  12.583
 5448W        W71857  42.623  22.688  10.908
 5449W        W71858  10.556   5.352   1.721
 5450W        W71859  41.029  19.617  13.101
 5451W        W71860  15.747  15.708  10.589
 5452W        W71861  14.676  17.226  11.664
 5453W        W71862  23.282  23.915   3.909
 5454W        W71863  28.531  20.251   2.611
 5455W        W71864  20.719  44.061   4.642
 5456W        W71865   6.799  26.547  13.389
 5457W        W71866  17.230   9.671   1.719
 5458W        W71867   6.977  19.494   3.864
 5459W        W71868  31.570  33.485  12.495
 5460W        W71869  27.951  19.276   0.221
 5461W        W71870  44.714  10.061   3.000
 5462W        W71871  36.529  17.043   4.957
 5463W        W71872  33.037  22.058  13.289
 5464W        W71873  35.898  34.507  14.073
 5465W        W71874   8.423  41.831   3.588
 5466W        W71875  28.086   6.528   1.228
 5467W        W71876  20.095  43.530  13.873
 5468W        W71877  44.257  30.585   0.155
 5469W        W71878   8.936  12.057   3.331
 5470W        W71879  36.610  27.669  12.639
 5471W        W71880  34.837  35.283   0.898
 5472W        W71881   3.342  13.059   0.220
 5473W        W71882  38.403  40.882   1.067
 5474W        W71883  14.591  10.348  13.405
 5475W        W71884   5.456   2.720   0.048
 5476W        W71885  30.095   7.622   4.555
 5477W        W71886   8.716   7.482   5.003
 5478W        W71887  30.324  17.652   4.691
 5479W        W71888   8.158  16.779   2.296
 5480W        W71889   8.145   7.923   1.714
 5481W        W71890  12.402  35.667   1.342
 5482W        W71891   0.430  12.072  13.361
 5483W        W71892  22.038  34.332  13.584
 5484W        W71893  28.734  15.061   1.882
 5485W        W71894   7.466  34.798  10.859
 5486W        W71895  29.522  44.747  12.069
 5487W        W71896   3.128   6.988  14.338
 5488W        W71897  38.318  24.448  14.921
 5489W        W71898   7.326  20.883  12.455
 5490W        W71899  26.030  10.688  14.430
 5491W        W71900  17.276  44.762   4.117
 5492W        W71901  19.147   0.440   2.330
 5493W        W71902  13.806   4.386  11.132
 5494W        W71903  39.886   8.116  10.672
 5495W        W71904  17.513  41.576  11.287
 5496W        W71905   2.470  21.224   2.790
 5497W        W71906  13.077  20.204   2.342
 5498W        W71907   6.647  22.248  12.171
 5499W        W71908   6.871  36.449  13.724
 5500W        W71909  43.988   4.019  11.427
 5501W        W71910   0.417  33.807   4.461
 5502W        W71911  37.508  32.503   1.863
 5503W        W71912  26.926  37.988   1.922
 5504W        W71913   2.287   8.945  13.868
 5505W        W71914   5.541  17.600  13.564
 5506W        W71915  41.368  16.747  11.128
 5507W        W71916  22.155   9.766  13.788
 5508W        W71917  26.706  35.929  14.356
 5509W        W71918  27.260   1.645  11.672
 5510W        W71919  13.343   9.812  10.719
 5511W        W71920  10.102  43.374   4.636
 5512W        W71921  14.464  15.604   5.030
 5513W        W71922  19.570  15.230   0.707
 5514W        W71923  31.862  10.902  14.110
 5515W        W71924  22.253  30.995  11.122
 5516W        W71925  22.161  44.886   2.219
 5517W        W71926  27.073  25.283  14.029
 5518W        W71927  28.940  29.951   0.222
 5519W        W71928  20.232  44.207   4.539
 5520W        W71929  19.325   8.769   4.774
 5521W        W71930  24.775  27.034   0.691
 5522W        W71931  26.923  32.592  11.518
 5523W        W71932   3.697  43.362   3.431
 5524W        W71933   5.782   7.008   2.648
 5525W        W71934  23.059  32.786   4.049
 5526W        W71935  31.732  10.661   3.819
 5527W        W71936  27.703  26.032  13.985
 5528W        W71937  31.304  28.042   4.982
 5529W        W71938  38.836  26.981  13.620
 5530W        W71939  38.554  23.043   2.748
 5531W        W71940  27.421  24.434  13.341
 5532W        W71941   4.434  28.834   0.492
 5533W        W71942  28.639  24.359   1.085
 5534W        W71943  29.637  38.404   4.224
 5535W        W71944  40.915   5.151   1.151
 5536W        W71945  13.092  42.808  13.947
 5537W        W71946  40.900  28.640  10.681
 5538W        W71947  19.845  44.191   2.293
 5539W        W71948   8.150  34.953  13.860
 5540W        W71949  16.009  11.162  14.877
 5541W        W71950  33.810  10.733  11.116
 5542W        W71951  24.754   9.081   2.196
 5543W        W71952   5.451  40.148  13.038
 5544W        W71953  29.204   3.862  14.333
 5545W        W71954  42.480  36.402   1.926
 5546W        W71955  41.898  40.441   3.873
 5547W        W71956  33.930   8.666   2.700
 5548W        W71957  32.406  25.697   4.037
 5549W        W71958  10.418  37.034   3.198
 5550W        W71959  10.861  30.396   1.346
 5551W        W71960  36.980  14.621  12.922
 5552W        W71961  40.469  13.389   0.791
 5553W        W71962  24.172  10.114  11.337
 5554W        W71963  17.236   5.660  11.017
 5555W        W71964   2.028  15.314   2.668
 5556W        W71965  10.908  17.806   3.676
 5557W        W71966   8.795  31.675  14.258
 5558W        W71967  41.322   1.002   1.301
 5559W        W71968  18.170  19.322  11.589
 5560W        W71969   5.544   9.448  12.073
 5561W        W71970  20.404  42.162  11.901
 5562W        W71971   4.758  39.946  12.010
 5563W        W71972   3.213  19.902   0.871
 5564W        W71973  33.456  11.838  14.492
 5565W        W71974  28.894  37.965   2.270
 5566W        W71975   3.060  43.345  10.663
 5567W        W71976  10.128  41.517   4.038
 5568W        W71977  24.070  19.840   3.973
 5569W        W71978   2.143  23.164   0.832
 5570W        W71979   7.216  44.899   0.677
 5571W        W71980  31.144  38.433   2.587
 5572W        W71981  38.206  16.016  11.252
 5573W        W71982  26.322  31.450   0.470
 5574W        W71983  33.002  26.073  11.072
 5575W        W71984  16.076  42.904   4.350
 5576W        W71985   7.900   6.939   1.409
 5577W        W71986  31.142  24.280   0.373
 5578W        W71987  28.940  42.318  10.762
 5579W        W71988  24.026  20.985  11.783
 5580W        W71989  23.002  36.388  13.498
 5581W        W71990  14.570  11.865   4.616
 5582W        W71991  19.261   1.483   4.724
 5583W        W71992  24.105  22.073   3.219
 5584W        W71993   8.122  29.887   0.323
 5585W        W71994  30.187  15.574   2.426
 5586W        W71995  20.065  38.518   2.875
 5587W        W71996   5.964  17.820  14.882
 5588W        W71997  31.821  32.020   4.507
 5589W        W71998  33.586  26.240   4.293
 5590W        W71999   6.783   7.869   4.672
 5591W        W72000  28.707   1.147   1.933
 5592W        W72001  22.965  37.477   1.528
 5593W        W72002  33.398  19.768  13.978
 5594W        W72003  41.649  41.835   0.245
 5595W        W72004   3.025  36.895   0.651
 5596W        W72005  39.315  13.091   0.184
 5597W        W72006  26.025  41.418  11.795
 5598W        W72007  18.343  12.378   1.844
 5599W        W72008   1.795   1.691  12.115
 5600W        W72009  17.807   2.869   2.465
 5601W        W72010  27.951   7.459  14.875
 5602W        W72011   8.288   2.256   2.721
 5603W        W72012   8.484  29.972   3.241
 5604W        W72013  40.970  27.911  12.140
 5605W        W72014  31.668  38.757   2.145
 5606W        W72015  30.892  12.637  11.213
 5607W        W72016  20.204   8.319  12.426
 5608W        W72017  42.426  18.195  14.433
 5609W        W72018  38.144  25.236   2.348
 5610W        W72019  24.836   7.037   4.740
 5611W        W72020  11.722  13.814  14.749
 5612W        W72021   4.475  39.313   3.231
 5613W        W72022  19.868   6.027  10.796
 5614W        W72023   0.089  30.726   2.510
 5615W        W72024  15.340  29.173   1.314
 5616W        W72025  44.466  44.492  10.957
 5617W        W72026  38.424  43.357   0.325
 5618W        W72027   9.812  40.746  11.580
 5619W        W72028  19.171   6.898  13.874
 5620W        W72029  25.245  40.844   1.858
 5621W        W72030  37.359  38.540   2.200
 5622W        W72031  19.079  44.517   3.273
 5623W        W72032  42.017  18.239   1.719
 5624W        W72033  21.180  20.242   3.587
 5625W        W72034  12.762  34.624   2.724
 5626W        W72035  41.454  28.004  12.350
 5627W        W72036  30.603  38.395  13.574
 5628W        W72037   3.855   3.341  14.523
 5629W        W72038  35.191  38.004  12.296
 5630W        W72039   0.631   1.487  12.079
 5631W        W72040  11.629  18.930  14.392
 5632W        W72041  34.879   8.921  11.192
 5633W        W72042  14.855  31.859  14.387
 5634W        W72043  34.962  14.731   2.266
 5635W        W72044  19.154  32.500   2.539
 5636W        W72045  28.886  40.431   0.761
 5637W        W72046  30.675  33.736   0.009
 5638W        W72047  33.088   7.741   3.870
 5639W        W72048  28.965   3.006   1.710
 5640W        W72049  17.314   9.304   1.322
 5641W        W72050  20.717  16.572   3.268
 5642W        W72051  41.256  29.061  12.295
 5643W        W72052  32.137  23.189  10.712
 5644W        W72053   8.847  32.061   4.070
 5645W        W72054  29.694   4.167   3.268
 5646W        W72055   0.357  21.118   1.050
 5647W        W72056   8.797  21.568  14.833
 5648W        W72057  11.752  12.419  11.080
 5649W        W72058   7.568  34.343  11.584
 5650W        W72059  27.251   4.635  11.126
 5651W        W72060  15.872  34.451  14.014
 5652W        W72061  42.157  41.508  14.495
 5653W        W72062  19.364  10.441   3.832
 5654W        W72063  29.738  36.137   1.267
 5655W        W72064  19.045  43.176   3.802
 5656W        W72065  41.304  36.353  14.368
 5657W        W72066  39.644  33.495   0.951
 5658W        W72067  34.300  43.949  11.581
 5659W        W72068  40.857  33.099  10.585
 5660W        W72069  19.131  36.094  11.963
 5661W        W72070  39.036  26.551  10.701
 5662W        W72071  30.038  32.376  12.116
 5663W        W72072  40.664  37.454   1.808
 5664W        W72073  41.431  10.067  11.489
 5665W        W72074  36.973  10.867  12.279
 5666W        W72075  39.315  17.061   0.484
 5667W        W72076  26.463  11.636   0.733
 5668W        W72077  39.971  24.041  13.864
 5669W        W72078   5.288  26.578   1.912
 5670W        W72079  19.271  33.302  12.403
 5671W        W72080  29.658  20.687  13.699
 5672W        W72081   3.861  15.104   2.971
 5673W        W72082  26.928  17.277   1.712
 5674W        W72083   3.463  16.834  12.851
 5675W        W72084  25.287  43.634  11.953
 5676W        W72085  26.763  26.034   0.870
 5677W        W72086  22.934   0.843  14.882
 5678W        W72087  41.446  22.570  13.843
 5679W        W72088  38.214  29.356  11.181
 5680W        W72089  21.177  29.113   0.529
 5681W        W72090  19.496  16.284   3.389
 5682W        W72091  33.047  44.857   4.615
 5683W        W72092  24.553  37.109   2.806
 5684W        W72093   0.431  14.539  13.200
 5685W        W72094  33.319   9.796  11.566
 5686W        W72095   3.347  25.000   4.117
 5687W        W72096  29.808  30.028  11.854
 5688W        W72097  36.267  33.563   0.473
 5689W        W72098  36.278  35.647   4.003
 5690W        W72099  40.242  39.656   4.794
 5691W        W72100  33.625  25.292   2.946
 5692W        W72101  31.670  19.953   3.393
 5693W        W72102   9.541  18.515  13.993
 5694W        W72103  44.199  16.010   4.449
 5695W        W72104   6.615  44.019   3.624
 5696W        W72105   7.049   9.502  11.986
 5697W        W72106  31.734  29.374  13.366
 5698W        W72107  25.371  38.003  10.843
 5699W        W72108  40.156  35.910   2.490
 5700W        W72109  31.083  20.347   2.705
 5701W        W72110  29.617   4.912  12.370
 5702W        W72111   1.112  21.620   0.534
 5703W        W72112  11.187  12.678   0.427
 5704W        W72113  41.486   7.598   1.960
 5705W        W72114  13.869  19.701  11.031
 5706W        W72115  22.948  26.095   0.180
 5707W        W72116  37.980  27.109  11.971
 5708W        W72117   7.501  29.830  14.531
 5709W        W72118  16.709  23.879   4.625
 5710W        W72119  37.596   3.396   3.177
 5711W        W72120  29.493  10.690   0.791
 5712W        W72121  33.152  41.994  14.950
 5713W        W72122  44.193  35.563   0.345
 5714W        W72123  25.492  11.550   0.413
 5715W        W72124   2.737  29.618   3.539
 5716W        W72125  14.206  24.993   0.225
 5717W        W72126  36.074  33.976  10.536
 5718W        W72127  16.088  37.949   2.876
 5719W        W72128  16.817  35.068   0.361
 5720W        W72129  21.813  17.635  12.963
 5721W        W72130   8.754  29.363   1.313
 5722W        W72131  32.696   7.275  10.554
 5723W        W72132  13.898   6.274  12.868
 5724W        W72133  43.833  42.364  13.521
 5725W        W72134  23.315  36.750   2.843
 5726W        W72135  39.604  11.635  14.658
 5727W        W72136  11.262  33.348   0.992
 5728W        W72137  40.396  34.041   4.529
 5729W        W72138  16.269  31.911  14.768
 5730W        W72139  13.268  40.998   2.874
 5731W        W72140  38.927  11.875   0.335
 5732W        W72141  30.519  34.534  13.121
 5733W        W72142  39.246  41.572   1.731
 5734W        W72143  40.064   9.785   4.991
 5735W        W72144  43.244   3.856  12.153
 5736W        W72145  42.573  15.637  12.058
 5737W        W72146  21.475  21.435   0.188
 5738W        W72147   8.723  23.063  14.838
 5739W        W72148   6.178   3.104   4.149
 5740W        W72149  32.095   2.888   2.412
 5741W        W72150  14.906  37.490   0.243
 5742W        W72151   4.363  25.455   3.198
 5743W        W72152  18.684   6.480   0.301
 5744W        W72153  32.963  23.020   0.921
 5745W        W72154  14.840   7.599  12.122
 5746W        W72155  25.773   1.288   2.864
 5747W        W72156  28.997  26.412   2.221
 5748W        W72157  28.292  23.325   2.452
 5749W        W72158  41.121  40.185  11.831
 5750W        W72159  29.651  29.809   4.658
 5751W        W72160  24.039  27.177  10.701
 5752W        W72161  24.604  35.079  14.491
 5753W        W72162   5.743  26.919   1.384
 5754W        W72163  43.499  31.362  13.505
 5755W        W72164  22.741  36.906  14.838
 5756W        W72165  12.631  19.680  14.852
 5757W        W72166  43.150  33.491   4.288
 5758W        W72167  42.224  21.211  12.947
 5759W        W72168  18.750  14.374   4.561
 5760W        W72169  15.032   3.355   2.836
 5761W        W72170  18.576  32.999   3.107
 5762W        W72171  12.644  13.210  13.060
 5763W        W72172  25.364  24.519  10.641
 5764W        W72173   3.481  39.999  11.475
 5765W        W72174  44.679   8.901   1.271
 5766W        W72175  10.213  19.630   2.787
 5767W        W72176   8.139  31.937   0.358
 5768W        W72177  40.796   0.785   3.224
 5769W        W72178   3.739  37.757  13.796
 5770W        W72179  33.464  36.083   2.840
 5771W        W72180  35.521   8.313   0.486
 5772W        W72181  40.736   0.253  14.836
 5773W        W72182  27.606  33.379  11.235
 5774W        W72183  23.119   0.232   0.951
 5775W        W72184  44.159  18.259  10.921
 5776W        W72185  39.378  22.246  11.496
 5777W        W72186  27.690  33.689  11.641
 5778W        W72187  16.027  43.571  12.911
 5779W        W72188  19.986  23.533  10.305
 5780W        W72189  40.821  11.296  13.346
 5781W        W72190  35.970  23.636  10.692
 5782W        W72191   8.483  41.239   0.274
 5783W        W72192  33.633  13.309  14.378
 5784W        W72193  37.598   4.035   1.330
 5785W        W72194  13.817   2.914  11.181
 5786W        W72195  20.002  22.184  10.709
 5787W        W72196  35.862   5.812  12.484
 5788W        W72197  37.102  31.146   4.545
 5789W        W72198   3.715   9.898  12.140
 5790W        W72199  43.992  15.637  12.996
 5791W        W72200   2.559  44.161  12.047
 5792W        W72201   0.684   1.708   5.232
 5793W        W72202  32.259  26.035   2.762
 5794W        W72203  12.322  44.419  10.730
 5795W        W72204  32.876   2.363  14.822
 5796W        W72205   4.725  21.534  13.512
 5797W        W72206  40.551   9.594  13.475
 5798W        W72207  23.232   9.847   0.977
 5799W        W72208  34.209  42.867   1.449
 5800W        W72209  38.489  43.333  11.982
 5801W        W72210   4.303  24.887  12.431
 5802W        W72211   5.809  38.101   3.674
 5803W        W72212  34.406  39.563   2.840
 5804W        W72213  23.621  23.631   4.953
 5805W        W72214  15.586   9.271   2.872
 5806W        W72215  30.576  30.855   0.817
 5807W        W72216   8.375  17.831  14.876
 5808W        W72217  21.506   6.835  14.365
 5809W        W72218  30.022  12.256   4.660
 5810W        W72219  35.446  34.037   4.664
 5811W        W72220  14.255   3.220   1.813
 5812W        W72221  11.695   9.434   3.871
 5813W        W72222  42.874  36.264   0.781
 5814W        W72223  25.099  27.151  13.942
 5815W        W72224  27.726  44.925   4.088
 5816W        W72225  40.928  13.362  10.424
 5817W        W72226  43.279  27.951   0.534
 5818W        W72227  32.185   6.908   1.445
 5819W        W72228   3.899  42.220  12.362
 5820W        W72229  26.984  27.168  14.967
 5821W        W72230  43.271   6.833   1.177
 5822W        W72231  28.004  42.265  10.897
 5823W        W72232   1.315  28.782   3.517
 5824W        W72233  21.351  19.967   0.893
 5825W        W72234  32.536   0.419   2.346
 5826W        W72235  25.571  44.513  13.771
 5827W        W72236   3.452  35.211   0.414
 5828W        W72237  18.970  30.328   1.340
 5829W        W72238  39.124  41.370  10.676
 5830W        W72239  44.988  21.294   5.062
 5831W        W72240  37.739  19.312  12.781
 5832W        W72241  22.772  37.122  12.441
 5833W        W72242  24.022   7.340   4.550
 5834W        W72243  20.092  31.606   2.785
 5835W        W72244  23.598  25.608  13.157
 5836W        W72245  37.332  13.191   4.581
 5837W        W72246  13.119  24.709  11.903
 5838W        W72247  17.886   5.631  12.671
 5839W        W72248   4.247  21.799  13.000
 5840W        W72249  23.852  24.744   1.297
 5841W        W72250   4.531  27.168   4.525
 5842W        W72251  14.363   5.165  13.533
 5843W        W72252  37.078  33.531  11.100
 5844W        W72253   4.655  35.419   2.449
 5845W        W72254  20.196  44.479   2.800
 5846W        W72255  44.029  11.681  12.886
 5847W        W72256  13.950  18.244   2.807
 5848W        W72257   2.716  31.915  11.998
 5849W        W72258   7.784  13.125   4.433
 5850W        W72259  28.031   1.192  14.913
 5851W        W72260  32.517   3.424  12.966
 5852W        W72261  12.688  29.505  10.857
 5853W        W72262  27.044   4.443   2.625
 5854W        W72263  12.844  36.534  12.383
 5855W        W72264   9.823  41.312   2.623
 5856W        W72265  22.907  25.258  11.034
 5857W        W72266  41.977  34.605  12.176
 5858W        W72267  14.174   9.534   4.215
 5859W        W72268  43.468  29.628   4.733
 5860W        W72269  29.852  29.409   0.677
 5861W        W72270  24.755  20.881   3.192
 5862W        W72271   3.900  39.054   2.306
 5863W        W72272  18.155  41.498   1.524
 5864W        W72273  40.414  25.427   4.704
 5865W        W72274  18.167  16.554   2.343
 5866W        W72275  15.209   3.486  14.376
 5867W        W72276   8.472  27.430  13.188
 5868W        W72277  39.783  24.713   0.051
 5869W        W72278   1.450  44.927  13.376
 5870W        W72279  17.903  18.025   0.326
 5871W        W72280   8.825   6.140   0.127
 5872W        W72281   3.856  43.772   1.318
 5873W        W72282  36.582   7.139  11.971
 5874W        W72283  30.937  14.236  12.138
 5875W        W72284  32.133   4.758  13.224
 5876W        W72285   9.335  18.231   0.397
 5877W        W72286  17.057  12.164   4.283
 5878W        W72287  13.584  14.210   1.914
 5879W        W72288  37.373  12.725  14.076
 5880W        W72289   8.613  19.608   2.892
 5881W        W72290  21.086  16.376  12.093
 5882W        W72291  25.037  18.517   4.057
 5883W        W72292  32.236   8.285  13.049
 5884W        W72293  33.221  34.845   1.554
 5885W        W72294   7.419   5.861  14.947
 5886W        W72295  29.769   5.922   2.783
 5887W        W72296  13.013   4.497  11.011
 5888W        W72297  40.928   1.080   3.658
 5889W        W72298  31.520  27.162  13.505
 5890W        W72299  24.283  42.247   3.790
 5891W        W72300  32.138  30.435  13.413
 5892W        W72301  33.112  20.832   3.389
 5893W        W72302  22.711  39.417   4.093
 5894W        W72303   4.760  29.854   2.920
 5895W        W72304  31.841  14.184  12.427
 5896W        W72305   6.664  25.006   0.041
 5897W        W72306  32.823  43.237  10.997
 5898W        W72307  36.191  36.220  14.288
 5899W        W72308  18.686  10.362   5.199
 5900W        W72309  22.671  12.494  10.494
 5901W        W72310   9.149  36.899   4.572
 5902W        W72311  36.340  34.484   3.041
 5903W        W72312  30.928  17.665   1.880
 5904W        W72313  16.133  22.586  13.980
 5905W        W72314  20.779  42.426   0.337
 5906W        W72315  41.551  20.132   3.231
 5907W        W72316  10.751   3.294   1.773
 5908W        W72317  20.101  21.000   0.890
 5909W        W72318   9.156  34.654  12.526
 5910W        W72319  32.544  38.507  13.076
 5911W        W72320  17.740   1.795   1.743
 5912W        W72321  34.076  22.441  11.862
 5913W        W72322  13.221   6.908  13.903
 5914W        W72323  23.516  36.940   1.849
 5915W        W72324  32.644  18.475   3.295
 5916W        W72325  26.515  43.315   4.417
 5917W        W72326  40.224   7.069  10.147
 5918W        W72327  21.499  40.476  14.699
 5919W        W72328   8.597  30.825  13.981
 5920W        W72329  42.230  29.880   0.206
 5921W        W72330  43.281  36.542  13.563
 5922W        W72331  19.071  30.426   0.264
 5923W        W72332  22.207  33.148   1.795
 5924W        W72333   0.451   2.685   2.838
 5925W        W72334  24.175  42.884   0.875
 5926W        W72335   1.396   2.356   0.936
 5927W        W72336  19.239  25.472  14.956
 5928W        W72337   5.659  20.496   4.422
 5929W        W72338   6.693  30.262  10.736
 5930W        W72339  37.063   7.438   4.098
 5931W        W72340  25.560  20.984  12.563
 5932W        W72341  14.789  22.600  12.434
 5933W        W72342  31.869   4.447   2.739
 5934W        W72343  27.068  40.483  10.555
 5935W        W72344   3.354  34.677  13.339
 5936W        W72345  31.374  30.654  12.788
 5937W        W72346  37.444   8.084   2.970
 5938W        W72347  36.223  19.503   3.936
 5939W        W72348  24.242   3.135   1.887
 5940W        W72349  40.037   3.290   1.061
 5941W        W72350  28.591   6.700   0.403
 5942W        W72351  32.157   6.687   2.848
 5943W        W72352   6.991  23.108   3.104
 5944W        W72353  42.403  32.810   2.760
 5945W        W72354  26.921  44.836   3.414
 5946W        W72355  21.683   9.903  12.071
 5947W        W72356  18.819  22.735   1.816
 5948W        W72357  31.997  44.871  11.031
 5949W        W72358  30.687   6.620  14.199
 5950W        W72359  30.479  26.096   1.387
 5951W        W72360  34.123  31.595  14.929
 5952W        W72361  34.542   1.308   1.953
 5953W        W72362  20.311  38.679  14.127
 5954W        W72363  32.942  16.237  12.347
 5955W        W72364  27.029  14.103   3.285
 5956W        W72365  19.750  23.429  11.595
 5957W        W72366  27.753  10.775  11.632
 5958W        W72367  38.766  31.533  14.897
 5959W        W72368  24.663  25.517   4.560
 5960W        W72369  31.557  40.563   1.201
 5961W        W72370  38.104  39.038  14.427
 5962W        W72371  38.848  32.222   0.385
 5963W        W72372  34.861   1.138  13.081
 5964W        W72373  22.575  22.123  14.006
 5965W        W72374   3.905  14.546   0.937
 5966W        W72375  17.197  12.679   2.476
 5967W        W72376  22.585  39.096  10.089
 5968W        W72377  12.626  20.573   3.152
 5969W        W72378  18.305  11.396   0.547
 5970W        W72379  28.947  10.149   3.592
 5971W        W72380  40.921   7.142   1.409
 5972W        W72381  10.567  32.753  12.690
 5973W        W72382  25.999   3.322   3.260
 5974W        W72383  20.196   7.354   2.839
 5975W        W72384  23.053  15.835  14.904
 5976W        W72385   0.474  40.944  13.839
 5977W        W72386  40.968   4.375  11.264
 5978W        W72387  20.213  32.761   0.919
 5979W        W72388  17.968  24.039   4.937
 5980W        W72389  37.115  17.298  14.287
 5981W        W72390  22.948  37.500   3.238
 5982W        W72391   0.695  42.257   4.040
 5983W        W72392   0.980  23.559   3.149
 5984W        W72393   3.008  42.544  12.599
 5985W        W72394  13.158  42.801  12.437
 5986W        W72395   2.632   1.006   0.563
 5987W        W72396   6.668  12.218  12.942
 5988W        W72397   3.456  16.237  14.527
 5989W        W72398  10.922  30.117   0.922
 5990W        W72399  33.787  33.055  13.127
 5991W        W72400  20.377   0.901  13.089
 5992W        W72401  28.287  20.087  14.915
 5993W        W72402   0.518  38.430   4.722
 5994W        W72403   0.330   7.956   4.332
 5995W        W72404  12.359  34.955   3.621
 5996W        W72405  30.094  33.551  11.201
 5997W        W72406  19.113   7.420  11.734
 5998W        W72407   3.434  35.723   0.496
 5999W        W72408  18.008   6.888  14.375
 6000W        W72409  13.480  28.593   2.043
 6001W        W72410  18.978  38.555   4.999
 6002W        W72411  17.634   3.159   0.303
 6003W        W72412  40.757  20.380   0.311
 6004W        W72413  16.754  32.856   3.104
 6005W        W72414  13.166  41.322   4.564
 6006W        W72415  33.509   7.248  10.123
 6007W        W72416  41.337  24.483  11.313
 6008W        W72417   1.163  31.720   4.633
 6009W        W72418   6.374  35.128  10.401
 6010W        W72419   2.181   2.828   3.363
 6011W        W72420  11.236  14.708  12.651
 6012W        W72421  40.057  21.534   0.821
 6013W        W72422  44.317  25.973   2.521
 6014W        W72423   1.597   3.971   2.683
 6015W        W72424  15.811  21.252   1.365
 6016W        W72425   4.573   5.052  10.589
 6017W        W72426  37.080  24.719   1.246
 6018W        W72427  40.714  27.408  14.920
 6019W        W72428  19.438   1.856   2.254
 6020W        W72429  12.315  24.615  14.951
 6021W        W72430  42.996  20.976   3.647
 6022W        W72431  44.564  14.332   5.113
 6023W        W72432  22.142  25.912   1.608
 6024W        W72433  36.627  32.848   2.353
 6025W        W72434  28.955  43.418  11.539
 6026W        W72435  35.372  13.834  11.149
 6027W        W72436   9.335  23.997  13.857
 6028W        W72437  17.773  24.996  12.555
 6029W        W72438  20.270  34.243  13.516
 6030W        W72439   4.400  17.809  10.879
 6031W        W72440  43.829  16.890  11.195
 6032W        W72441  41.802  26.410   1.759
 6033W        W72442  30.143  21.718   2.234
 6034W        W72443   7.145  28.678   2.785
 6035W        W72444  34.352  29.178   1.855
 6036W        W72445  33.490  44.364   4.649
 6037W        W72446  30.006   4.819   1.756
 6038W        W72447  40.939   9.280   2.578
 6039W        W72448  11.708  15.590   3.623
 6040W        W72449  34.641  25.612  11.166
 6041W        W72450  26.994   8.240  12.179
 6042W        W72451  30.698  44.788   3.816
 6043W        W72452  31.548  18.786   3.254
 6044W        W72453   8.145  41.054  12.582
 6045W        W72454  42.355  21.785  14.492
 6046W        W72455  12.057   8.578   2.168
 6047W        W72456  44.882   6.099   4.136
 6048W        W72457   3.480  36.950   4.206
 6049W        W72458  20.971  18.989   0.767
 6050W        W72459   5.991  44.951  11.566
 6051W        W72460  30.869  42.915  14.394
 6052W        W72461  27.523  13.853   0.905
 6053W        W72462  14.196   0.837   1.629
 6054W        W72463  43.711  23.736   2.771
 6055W        W72464   4.581  25.037  12.878
 6056W        W72465  26.362  10.751  11.527
 6057W        W72466  19.404  42.244   0.271
 6058W        W72467   7.128  22.208  10.439
 6059W        W72468  44.664  29.126   1.702
 6060W        W72469  35.460  41.494   0.422
 6061W        W72470  16.233  25.771  11.582
 6062W        W72471   1.319  41.577  13.411
 6063W        W72472  32.410   2.944   0.747
 6064W        W72473  14.521   7.199  11.917
 6065W        W72474   1.419  15.244  13.946
 6066W        W72475  10.307  38.296   0.965
 6067W        W72476  33.053   4.420  14.438
 6068W        W72477  28.803  42.948  12.583
 6069W        W72478  13.627  26.700   9.721
 6070W        W72479  37.835   7.196  12.920
 6071W        W72480   6.860  21.041  10.250
 6072W        W72481  29.265   9.911  11.169
 6073W        W72482  41.391  17.258   0.686
 6074W        W72483  28.472  23.967  10.771
 6075W        W72484  36.124  17.544   3.172
 6076W        W72485  44.763  15.665   3.612
 6077W        W72486  27.702  10.651  14.720
 6078W        W72487  27.045   9.337  12.547
 6079W        W72488  22.091   6.353   3.058
 6080W        W72489   8.307  14.150   2.796
 6081W        W72490  30.686  15.243  13.065
 6082W        W72491  20.741  40.854   1.505
 6083W        W72492  22.260   4.358   2.923
 6084W        W72493  15.780  30.054  13.924
 6085W        W72494  37.366  30.218   2.737
 6086W        W72495  26.113   7.695   1.920
 6087W        W72496  35.842   7.535   3.724
 6088W        W72497  34.780  27.515   0.240
 6089W        W72498  31.104  27.957  14.057
 6090W        W72499  41.327  31.240  10.952
 6091W        W72500  17.782  16.361  12.946
 6092W        W72501  16.665  16.782  10.723
 6093W        W72502  24.427   7.729   1.242
 6094W        W72503   1.170   6.801  12.143
 6095W        W72504  17.709  11.675   0.626
 6096W        W72505  29.076  37.122  11.225
 6097W        W72506  20.716   8.202  11.558
 6098W        W72507  11.443  29.816  11.864
 6099W        W72508  43.940  37.274  11.639
 6100W        W72509  40.739  26.417   1.862
 6101W        W72510  22.643  13.658   2.656
 6102W        W72511  26.585  44.992  13.676
 6103W        W72512  18.041  15.736   1.796
 6104W        W72513  43.328  27.928  10.595
 6105W        W72514  16.679   1.298  11.116
 6106W        W72515  28.098  10.628   3.264
 6107W        W72516  40.478  15.119   3.741
 6108W        W72517  25.024  27.777   2.209
 6109W        W72518   8.481   2.277  12.427
 6110W        W72519  23.016  21.020   4.075
 6111W        W72520  43.537  25.103   1.900
 6112W        W72521  25.399  20.058   9.855
 6113W        W72522  39.294  16.489   9.603
 6114W        W72523  26.835   2.845   1.629
 6115W        W72524  22.149  36.458  13.785
 6116W        W72525  10.794  23.985  14.923
 6117W        W72526   4.816   1.465  14.132
 6118W        W72527  22.586  14.868   0.564
 6119W        W72528  31.413  25.177  14.478
 6120W        W72529  39.073  20.060  14.563
 6121W        W72530  42.784  43.613  12.871
 6122W        W72531  12.075  15.116   4.573
 6123W        W72532  10.213  42.888   2.101
 6124W        W72533  18.397  36.088  13.850
 6125W        W72534   1.799  28.594  10.580
 6126W        W72535   2.200  21.066  13.410
 6127W        W72536  25.130  44.848   4.084
 6128W        W72537  25.496  30.607   4.180
 6129W        W72538  39.018   9.113   2.576
 6130W        W72539   5.668  18.690   1.845
 6131W        W72540   6.983  18.162  11.898
 6132W        W72541  16.293   3.892   3.514
 6133W        W72542  15.324   7.280  11.126
 6134W        W72543   4.871  31.703  13.825
 6135W        W72544   4.285  21.876  13.990
 6136W        W72545   3.816  18.439  11.665
 6137W        W72546  16.871  40.407  13.484
 6138W        W72547  40.567  40.987   0.966
 6139W        W72548  11.072  17.160  11.599
 6140W        W72549   3.988  21.269   0.227
 6141W        W72550  28.268  32.522  10.153
 6142W        W72551   7.852   3.454   0.016
 6143W        W72552  20.728  26.469  12.371
 6144W        W72553  34.276  41.171  11.065
 6145W        W72554  44.657   1.574   3.505
 6146W        W72555  24.527  44.741   0.890
 6147W        W72556  26.140  28.716   0.950
 6148W        W72557  30.682   7.276   0.391
 6149W        W72558  39.612  23.056  13.833
 6150W        W72559  14.444   4.170   0.538
 6151W        W72560   2.063  19.218  12.676
 6152W        W72561  39.053   2.403  13.392
 6153W        W72562  11.755   8.357  13.855
 6154W        W72563  19.460  37.921   0.352
 6155W        W72564  40.776   3.782   0.866
 6156W        W72565   4.460  25.412   1.324
 6157W        W72566  13.847  33.870   4.602
 6158W        W72567  41.820  43.463  13.445
 6159W        W72568   3.349  33.112   0.668
 6160W        W72569  40.058  41.221  11.537
 6161W        W72570  27.482  10.310   4.569
 6162W        W72571  43.179  21.756  11.394
 6163W        W72572  39.896  21.054   3.276
 6164W        W72573  28.617   7.698  12.117
 6165W        W72574  27.165  10.914   0.447
 6166W        W72575  20.599  26.272   4.837
 6167W        W72576  40.294  36.369  12.377
 6168W        W72577  23.687   3.307  11.684
 6169W        W72578  41.375  14.600  14.749
 6170W        W72579  13.821  35.283  10.844
 6171W        W72580  34.469  32.292   0.446
 6172W        W72581  12.640  32.390  12.675
 6173W        W72582  10.921  23.244  14.558
 6174W        W72583   5.326  35.560  13.216
 6175W        W72584  18.398  10.733   4.924
 6176W        W72585  28.208   1.047  14.057
 6177W        W72586  38.487  26.334   3.205
 6178W        W72587  15.403  22.906   5.423
 6179W        W72588   2.770  25.069  13.367
 6180W        W72589  31.886   2.780   0.718
 6181W        W72590   1.637   0.990  14.731
 6182W        W72591  19.013  26.000   2.865
 6183W        W72592  16.753   5.766   2.133
 6184W        W72593  21.674  18.625   3.350
 6185W        W72594   2.992  25.727  12.570
 6186W        W72595  18.283   7.257   3.978
 6187W        W72596  37.378  44.335   3.626
 6188W        W72597  24.812   8.438  14.096
 6189W        W72598  31.155  42.974   4.189
 6190W        W72599  10.740   2.544  12.484
 6191W        W72600  42.513   0.825   3.649
 6192W        W72601  39.774  14.043   4.189
 6193W        W72602  29.734  31.006  10.485
 6194W        W72603  38.907  18.649   0.520
 6195W        W72604  20.792  21.328  11.011
 6196W        W72605  16.118  26.465   0.420
 6197W        W72606  43.357  28.025  11.415
 6198W        W72607  13.030   8.997   4.530
 6199W        W72608   3.860  24.665   3.559
 6200W        W72609  24.818  12.398   0.190
 6201W        W72610  11.633  20.441   0.763
 6202W        W72611  32.970  32.600   4.203
 6203W        W72612  14.820   6.855   1.249
 6204W        W72613   6.660  31.657   4.170
 6205W        W72614   5.812  19.349  12.137
 6206W        W72615  39.799  18.742  14.622
 6207W        W72616  31.114   7.419  13.729
 6208W        W72617  15.380   0.015  11.365
 6209W        W72618  43.958   3.974   1.919
 6210W        W72619  20.102   2.206  11.214
 6211W        W72620   6.886  32.898   0.660
 6212W        W72621  36.059  31.461  12.818
 6213W        W72622  43.185  34.905  14.418
 6214W        W72623  18.065  42.815   4.075
 6215W        W72624  38.518  29.057   3.389
 6216W        W72625  28.324  20.887  10.000
 6217W        W72626  22.078  37.935   3.213
 6218W        W72627  44.720   5.390  10.640
 6219W        W72628  24.028  34.361  13.508
 6220W        W72629  39.991  12.352  14.789
 6221W        W72630  22.568  23.462   2.348
 6222W        W72631  44.285  32.740   0.341
 6223W        W72632  12.695  11.832   4.200
 6224W        W72633  30.199  29.982   2.435
 6225W        W72634  34.643  26.127   0.508
 6226W        W72635  14.580  16.445   4.194
 6227W        W72636  33.409  13.044  13.993
 6228W        W72637  33.607  14.403   2.582
 6229W        W72638   1.363   8.128  10.712
 6230W        W72639   0.340  10.375   3.605
 6231W        W72640  29.156  43.536   0.512
 6232W        W72641  14.057   3.866  13.989
 6233W        W72642  32.506   3.395   0.986
 6234W        W72643  17.310  39.584   3.567
 6235W        W72644  27.659   7.808  12.589
 6236W        W72645  38.916   2.789   4.303
 6237W        W72646  32.135  43.479  11.467
 6238W        W72647  36.777   8.507  14.444
 6239W        W72648  22.130  27.827  13.375
 6240W        W72649  12.885  17.054  10.638
 6241W        W72650   4.719  32.159  14.920
 6242W        W72651  37.601  35.815  12.642
 6243W        W72652  24.951  35.938  13.391
 6244W        W72653  30.297  18.723  10.818
 6245W        W72654  42.182   2.164   0.016
 6246W        W72655  23.076  14.781  12.149
 6247W        W72656  24.621  44.393  13.386
 6248W        W72657  32.977  44.543   0.834
 6249W        W72658  35.551  36.557  14.709
 6250W        W72659   2.766  37.968   1.337
 6251W        W72660  15.216  11.827   1.371
 6252W        W72661  35.797  30.955   0.897
 6253W        W72662  24.140  13.148   1.895
 6254W        W72663  37.342  43.983  12.515
 6255W        W72664  36.439  21.066  13.456
 6256W        W72665  40.956  18.543  13.835
 6257W        W72666   3.753  11.624  12.997
 6258W        W72667  15.011   6.197  14.950
 6259W        W72668   5.121   9.618  13.405
 6260W        W72669  23.264  11.424   1.748
 6261W        W72670  21.094  13.160   4.751
 6262W        W72671  38.974  31.608  10.700
 6263W        W72672  18.519  39.979  14.273
 6264W        W72673  10.826  23.996  13.021
 6265W        W72674  39.563   2.233  12.494
 6266W        W72675  40.057  28.802  14.410
 6267W        W72676   9.898  17.853  12.792
 6268W        W72677  40.401  31.341  13.043
 6269W        W72678   4.315  20.216   4.269
 6270W        W72679  12.702  15.484   2.851
 6271W        W72680  34.142  34.654  13.499
 6272W        W72681  30.597  40.852   3.687
 6273W        W72682  27.071  31.649  11.623
 6274W        W72683  15.334   4.104  10.776
 6275W        W72684  28.482   8.458   1.629
 6276W        W72685  25.811  43.559   0.378
 6277W        W72686  25.427  40.486   1.487
 6278W        W72687  39.947  41.872  14.247
 6279W        W72688  40.888   7.423  12.432
 6280W        W72689  10.275   6.832  14.954
 6281W        W72690   9.287  29.028  14.073
 6282W        W72691  31.003   9.511   4.214
 6283W        W72692  22.491  34.669   5.149
 6284W        W72693  13.335   4.696  12.877
 6285W        W72694  27.980  21.844  13.371
 6286W        W72695  28.840  36.488   1.057
 6287W        W72696   4.901  28.566  14.937
 6288W        W72697  16.853   7.738   0.442
 6289W        W72698  12.442   4.130   4.486
 6290W        W72699  29.624  12.327   2.329
 6291W        W72700  30.953  21.990  13.853
 6292W        W72701  14.347  37.313  14.486
 6293W        W72702  13.811  40.522  11.322
 6294W        W72703  42.382  29.536   1.903
 6295W        W72704   6.476  25.175   1.897
 6296W        W72705   4.390  23.944  12.493
 6297W        W72706  11.858  10.307   3.502
 6298W        W72707  31.164  22.345  12.212
 6299W        W72708  17.326  29.710  10.502
 6300W        W72709  17.744  37.342  10.412
 6301W        W72710  21.974  13.207   4.097
 6302W        W72711  23.866   3.246   1.559
 6303W        W72712  27.027  29.989   0.471
 6304W        W72713  37.504  38.916   1.836
 6305W        W72714  43.039  36.015  13.891
 6306W        W72715  39.068  31.637   2.799
 6307W        W72716  31.140  17.711  12.475
 6308W        W72717  37.381   3.811   4.011
 6309W        W72718   8.716  39.895   1.751
 6310W        W72719  40.481   6.177   4.181
 6311W        W72720  42.855  24.908  12.088
 6312W        W72721   3.799  13.694  10.713
 6313W        W72722  42.515  27.084  14.797
 6314W        W72723  20.267  13.703   0.448
 6315W        W72724  39.353  28.260  13.554
 6316W        W72725  15.725  26.180  14.353
 6317W        W72726  38.495  28.603   2.738
 6318W        W72727  25.267  40.414   2.736
 6319W        W72728  10.667  25.612   3.828
 6320W        W72729  21.144  13.783   3.911
 6321W        W72730  40.240  18.586  12.106
 6322W        W72731  23.115  14.910   3.905
 6323W        W72732  25.979  19.733   0.033
 6324W        W72733  38.540  34.732   0.414
 6325W        W72734  30.449  10.253  10.181
 6326W        W72735   2.979  19.587  10.274
 6327W        W72736  37.292  27.943  14.221
 6328W        W72737   3.741  13.117  11.156
 6329W        W72738   8.090  40.347   2.227
 6330W        W72739  25.439  25.991   1.643
 6331W        W72740   3.362   6.365  12.300
 6332W        W72741  24.322   5.674  11.017
 6333W        W72742  40.864  29.213  11.619
 6334W        W72743  16.076  28.983  13.902
 6335W        W72744  17.046  31.676  10.792
 6336W        W72745  35.610   4.472  14.448
 6337W        W72746  10.145  30.563   1.867
 6338W        W72747  38.528  22.565  12.413
 6339W        W72748   1.502  10.973  11.198
 6340W        W72749  37.535  34.993   2.113
 6341W        W72750   6.990  32.654   1.123
 6342W        W72751  21.754   2.687   3.142
 6343W        W72752  35.427  12.595  14.451
 6344W        W72753   1.273   9.744   2.782
 6345W        W72754  35.833  37.703  14.426
 6346W        W72755   5.660  38.932  13.516
 6347W        W72756   9.129   9.665  13.830
 6348W        W72757  10.966  43.319   4.112
 6349W        W72758  10.006  37.061  12.090
 6350W        W72759  31.059  27.664   0.458
 6351W        W72760  20.722   2.308  12.373
 6352W        W72761   8.502  29.451  11.495
 6353W        W72762  35.889   6.328   0.255
 6354W        W72763  17.122  22.969   0.329
 6355W        W72764   6.941  33.451   3.194
 6356W        W72765  23.161  38.077   1.901
 6357W        W72766  37.369  29.381  14.261
 6358W        W72767  38.365  11.211  12.669
 6359W        W72768   2.136  33.591  14.301
 6360W        W72769  26.289  42.389  10.983
 6361W        W72770  40.145  11.819  10.736
 6362W        W72771  31.994  22.224   3.274
 6363W        W72772   7.263  30.948  13.986
 6364W        W72773  44.979   7.604  13.498
 6365W        W72774   2.184  17.260   0.947
 6366W        W72775   3.072   7.435   4.163
 6367W        W72776  12.663  20.791  14.886
 6368W        W72777  14.103   2.872   3.694
 6369W        W72778  29.823  10.451  13.401
 6370W        W72779  32.928  37.380   2.159
 6371W        W72780   6.056   8.820  12.445
 6372W        W72781  42.826  19.285   2.881
 6373W        W72782   7.876  28.223  13.528
 6374W        W72783  39.025  29.622  13.272
 6375W        W72784  33.503   8.864   3.965
 6376W        W72785  22.457   4.994   0.034
 6377W        W72786  35.337  22.204  14.517
 6378W        W72787   5.418  14.094  13.910
 6379W        W72788   9.815  20.737  10.830
 6380W        W72789   9.236  26.122  10.881
 6381W        W72790  24.529  24.466  11.696
 6382W        W72791  20.780  12.012  13.586
 6383W        W72792  28.504  40.818  13.851
 6384W        W72793   6.655   4.446  14.772
 6385W        W72794  25.916  43.841  11.245
 6386W        W72795  41.074   1.846  11.626
 6387W        W72796  40.316  13.713  12.479
 6388W        W72797  15.330  32.711  11.054
 6389W        W72798   4.526  13.109   2.712
 6390W        W72799   8.558  36.854   1.491
 6391W        W72800   4.842  30.180   1.282
 6392W        W72801  42.964  13.057   1.770
 6393W        W72802  10.457  30.918  10.728
 6394W        W72803  36.549  25.558   0.854
 6395W        W72804   4.252  16.814   3.271
 6396W        W72805  40.490  26.455  11.651
 6397W        W72806   2.783   4.638  11.118
 6398W        W72807   9.837   9.755  14.832
 6399W        W72808  34.598   9.344   1.763
 6400W        W72809  44.680  14.650  14.259
 6401W        W72810  24.872   9.282   5.367
 6402W        W72811   7.710  36.147  13.428
 6403W        W72812  10.046  35.053   2.286
 6404W        W72813  41.060  21.114  12.475
 6405W        W72814  36.122  42.248   0.165
 6406W        W72815  40.111  29.083  10.848
 6407W        W72816  27.696  27.767  13.643
 6408W        W72817  21.651  32.589   3.248
 6409W        W72818   9.346  18.326  14.446
 6410W        W72819  35.922  40.088  14.361
 6411W        W72820   5.134  25.775  11.858
 6412W        W72821   2.390  29.692   4.742
 6413W        W72822  19.339  20.772   3.299
 6414W        W72823  21.443   0.849   1.729
 6415W        W72824  28.355  31.501   2.294
 6416W        W72825  37.902  31.423   1.407
 6417W        W72826   5.346   9.576  11.262
 6418W        W72827  22.103  17.619  10.591
 6419W        W72828  31.466  24.670  14.682
 6420W        W72829  39.765  36.682  11.994
 6421W        W72830   7.818  29.340   0.912
 6422W        W72831  12.097   8.755  10.648
 6423W        W72832  28.970  37.256   0.503
 6424W        W72833  15.144  12.608  14.403
 6425W        W72834  36.589  18.069  14.379
 6426W        W72835  21.293   7.299  11.149
 6427W        W72836   8.494  23.235   1.725
 6428W        W72837  36.264  38.032  14.453
 6429W        W72838  10.620  27.471   1.173
 6430W        W72839  26.751   6.435  14.498
 6431W        W72840   8.448  25.425   4.877
 6432W        W72841  37.551  43.608  11.204
 6433W        W72842  10.117   7.018  14.447
 6434W        W72843  40.885  37.280  11.863
 6435W        W72844   4.759  27.112  13.543
 6436W        W72845  30.595  20.855   2.153
 6437W        W72846   0.852  41.717   4.949
 6438W        W72847  35.622   3.887  10.357
 6439W        W72848  37.908  35.551  13.906
 6440W        W72849   2.130  40.086  12.934
 6441W        W72850  39.651  21.679  11.912
 6442W        W72851  17.161  30.045  10.152
 6443W        W72852  41.401  44.357   4.033
 6444W        W72853  16.079   9.925   0.931
 6445W        W72854  31.503  17.592  13.276
 6446W        W72855  23.621  22.599  12.192
 6447W        W72856  31.165   0.404  11.208
 6448W        W72857   1.684  25.224  11.554
 6449W        W72858  11.044  17.308  12.928
 6450W        W72859  39.751   4.187   4.053
 6451W        W72860  20.969  31.951  11.178
 6452W        W72861  38.022  11.079  13.775
 6453W        W72862  39.766  25.664  14.949
 6454W        W72863  43.811  32.529  10.465
 6455W        W72864  31.608  18.522  13.501
 6456W        W72865  38.727  17.711   2.578
 6457W        W72866  24.346   9.155   5.027
 6458W        W72867   0.134   3.016  11.666
 6459W        W72868   0.531   7.398  12.720
 6460W        W72869  22.304   3.893   3.199
 6461W        W72870  24.224  23.097   1.279
 6462W        W72871   5.405   7.875  11.169
 6463W        W72872  39.607  40.510   3.815
 6464W        W72873  30.011   2.346  14.487
 6465W        W72874  42.864  41.515  10.762
 6466W        W72875  12.200  40.965  14.789
 6467W        W72876  34.673  20.284  13.458
 6468W        W72877  29.344  44.481   1.907
 6469W        W72878  42.765  19.607  10.771
 6470W        W72879  18.595  27.250  14.664
 6471W        W72880  15.382  28.444  14.317
 6472W        W72881  14.083   5.929  13.212
 6473W        W72882  35.835  14.216  13.295
 6474W        W72883  21.697  29.675  13.397
 6475W        W72884  16.286  12.692  14.434
 6476W        W72885  40.109  19.708  12.884
 6477W        W72886   1.148  24.706   0.830
 6478W        W72887  42.439  42.479  10.673
 6479W        W72888  40.503  22.813   0.534
 6480W        W72889   2.427   9.186  14.332
 6481W        W72890   4.649  34.291   0.941
 6482W        W72891  18.017   6.294  13.164
 6483W        W72892   0.932  30.427   3.614
 6484W        W72893  20.628  26.663  10.404
 6485W        W72894  14.333   8.317   4.811
 6486W        W72895  42.856  30.502   4.020
 6487W        W72896  16.459  43.417   0.949
 6488W        W72897   0.864   1.278   0.459
 6489W        W72898   6.542  34.292  10.685
 6490W        W72899  37.931  36.632   1.173
 6491W        W72900  10.191  35.533   0.215
 6492W        W72901  38.027  40.347   0.014
 6493W        W72902  44.999  36.698  11.261
 6494W        W72903   5.736  29.976   1.144
 6495W        W72904   1.869   6.748  14.939
 6496W        W72905   6.906  40.069   3.267
 6497W        W72906  27.609   7.611  14.116
 6498W        W72907  31.129  20.266   4.414
 6499W        W72908  31.964  35.649   1.985
 6500W        W72909   3.966  20.287   4.704
 6501W        W72910  39.264  36.743  14.843
 6502W        W72911  18.783  14.861   3.287
 6503W        W72912  16.170   6.930   2.634
 6504W        W72913  22.224  10.499  13.417
 6505W        W72914  18.817  22.569  10.378
 6506W        W72915  17.642  42.714   2.589
 6507W        W72916  20.206  29.975   1.806
 6508W        W72917  27.085  27.706   4.877
 6509W        W72918  31.375  10.250  11.993
 6510W        W72919   7.910   8.925  11.051
 6511W        W72920  34.550   3.322   3.304
 6512W        W72921  39.350  16.590  14.567
 6513W        W72922  17.076  26.438  14.371
 6514W        W72923   7.108   3.917  14.331
 6515W        W72924  32.151   9.792  10.590
 6516W        W72925  34.889  42.875   2.253
 6517W        W72926  31.624  22.239   3.625
 6518W        W72927  15.890  44.168   3.919
 6519W        W72928  15.014  43.406   1.394
 6520W        W72929   0.538  43.970   4.326
 6521W        W72930   2.380  36.404  13.857
 6522W        W72931  18.226  18.612  11.428
 6523W        W72932  15.189   4.994  11.026
 6524W        W72933   6.243  29.627   2.245
 6525W        W72934  34.639  24.973  14.345
 6526W        W72935  28.192  41.020   4.044
 6527W        W72936  13.117  44.040   2.777
 6528W        W72937   1.078  14.817  13.836
 6529W        W72938   4.376  33.421  14.733
 6530W        W72939  22.459  42.938   1.872
 6531W        W72940  30.930  28.076  10.515
 6532W        W72941  34.431  17.700   2.856
 6533W        W72942   2.708  25.458   1.379
 6534W        W72943  22.502  34.342  13.848
 6535W        W72944   0.407  42.509  14.514
 6536W        W72945   9.677  42.851   2.166
 6537W        W72946   5.751   3.973  14.350
 6538W        W72947  41.316  14.764   3.097
 6539W        W72948  19.477  28.691  12.646
 6540W        W72949  32.107  21.616  14.310
 6541W        W72950   3.495   1.939  14.697
 6542W        W72951  34.005   6.546  14.867
 6543W        W72952  20.262  29.430   0.313
 6544W        W72953  36.244  30.636  12.916
 6545W        W72954  10.230  36.899  14.415
 6546W        W72955  26.545  29.460   1.720
 6547W        W72956  29.994  13.393   2.763
 6548W        W72957  43.572  21.939   1.267
 6549W        W72958  22.924  40.904  12.462
 6550W        W72959  42.250  14.043   1.397
 6551W        W72960   8.210  27.031   0.458
 6552W        W72961  25.991  10.632  11.172
 6553W        W72962   4.737  42.855   2.088
 6554W        W72963  37.650  29.094   3.846
 6555W        W72964  44.333  33.750  13.986
 6556W        W72965  27.713  31.010  13.091
 6557W        W72966  31.177   0.066   3.654
 6558W        W72967  22.218  36.129  12.466
 6559W        W72968  43.142  39.990   1.894
 6560W        W72969   4.789   7.721  13.306
 6561W        W72970  34.080   7.639  11.773
 6562W        W72971  26.217  12.667   3.641
 6563W        W72972  29.566   2.329  10.971
 6564W        W72973  26.503  26.147   1.348
 6565W        W72974  31.638   4.980  10.823
 6566W        W72975  26.639   6.101   0.976
 6567W        W72976  34.709   5.601  11.049
 6568W        W72977  37.603  32.516  14.411
 6569W        W72978  42.029  20.729  12.818
 6570W        W72979   9.817  22.609   4.203
 6571W        W72980  35.132  33.419  11.120
 6572W        W72981   6.448  15.653   2.403
 6573W        W72982  19.971  31.084   2.799
 6574W        W72983  29.439  14.648  14.015
 6575W        W72984  15.629  43.754  14.870
 6576W        W72985  26.732  34.577  11.175
 6577W        W72986  27.058   8.394   2.681
 6578W        W72987  31.882   2.733  12.812
 6579W        W72988  26.082  38.373  11.554
 6580W        W72989  34.824  36.721   3.707
 6581W        W72990  44.252   2.875  11.211
 6582W        W72991  23.084  30.245  12.613
 6583W        W72992  36.583  13.126   1.965
 6584W        W72993  26.900   6.750  10.382
 6585W        W72994  29.001   8.638  11.526
 6586W        W72995  25.571   7.753   9.848
 6587W        W72996  37.857  27.197  11.458
 6588W        W72997  17.096  16.846  10.346
 6589W        W72998  27.403  29.963   4.682
 6590W        W72999  31.159  20.500  12.144
 6591W        W73000  21.116   7.687  14.155
 6592W        W73001  16.669  44.201   3.619
 6593W        W73002  30.911   0.460   3.436
 6594W        W73003  24.101   0.589   3.692
 6595W        W73004  23.127  27.695  12.783
 6596W        W73005   1.476  22.143  13.514
 6597W        W73006  43.874  15.729   4.742
 6598W        W73007  25.959  35.402   4.158
 6599W        W73008  16.543  18.745  14.063
 6600W        W73009  31.460  13.179  11.626
 6601W        W73010  30.047  40.408   3.764
 6602W        W73011  31.084  23.075  10.549
 6603W        W73012  23.102  33.220   1.480
 6604W        W73013  15.039  42.490   0.361
 6605W        W73014  19.970  36.066   5.190
 6606W        W73015  20.214   3.758   3.130
 6607W        W73016  12.667  38.604  13.486
 6608W        W73017   1.784  22.239  12.325
 6609W        W73018  34.458  10.040  12.373
 6610W        W73019  27.874  25.195  11.153
 6611W        W73020  43.232  41.374   1.211
 6612W        W73021   0.752   4.050  12.463
 6613W        W73022  21.164  37.416   0.177
 6614W        W73023  41.561  13.930   2.472
 6615W        W73024  23.505  21.398  10.147
 6616W        W73025  25.079  41.215   4.149
 6617W        W73026  35.259  19.774   0.969
 6618W        W73027  25.583  27.041  13.819
 6619W        W73028  23.453  14.707  12.900
 6620W        W73029   3.762   3.377   4.948
 6621W        W73030  22.993  15.393  10.222
 6622W        W73031  31.818   5.270  10.339
 6623W        W73032  31.091   9.719   0.200
 6624W        W73033   5.784  18.494   3.712
 6625W        W73034  31.131  41.828   1.236
 6626W        W73035  20.253   5.249   2.346
 6627W        W73036  19.016  31.451   3.627
 6628W        W73037  32.042  41.093  12.953
 6629W        W73038   2.526   7.358  11.991
 6630W        W73039   7.363  23.208   2.646
 6631W        W73040   4.477  31.011   2.386
 6632W        W73041  41.496  36.271   2.957
 6633W        W73042  17.114  18.348   1.360
 6634W        W73043   4.831  34.033   4.051
 6635W        W73044  22.986  20.685   0.984
 6636W        W73045  32.646  30.529  13.495
 6637W        W73046   9.968  40.145  12.956
 6638W        W73047  17.611  39.392   0.725
 6639W        W73048  22.740  15.694   0.822
 6640W        W73049   6.781   7.203  10.745
 6641W        W73050  29.781  11.253   3.534
 6642W        W73051  36.408  10.937   3.842
 6643W        W73052  43.261   3.318  14.534
 6644W        W73053  30.037  43.620   3.873
 6645W        W73054  13.024  36.812  10.710
 6646W        W73055  41.286  21.758  11.581
 6647W        W73056  18.728  31.975  13.052
 6648W        W73057  44.702  41.811  14.771
 6649W        W73058  22.077  30.936  12.902
 6650W        W73059   7.313   3.050   1.640
 6651W        W73060  18.144  42.418   2.429
 6652W        W73061   9.933  36.568  11.425
 6653W        W73062  40.200  34.414   1.535
 6654W        W73063  17.295  35.270   0.843
 6655W        W73064  15.039   6.921   1.756
 6656W        W73065   2.852   7.555   2.401
 6657W        W73066  29.881  33.568   2.768
 6658W        W73067  13.112   7.836  14.332
 6659W        W73068  36.417  20.799  12.570
 6660W        W73069  13.533  12.260  12.593
 6661W        W73070  12.162  18.788  10.661
 6662W        W73071  22.786   1.202   2.192
 6663W        W73072  25.723   7.198   0.387
 6664W        W73073  12.122   4.470   4.079
 6665W        W73074  24.189   7.799  13.979
 6666W        W73075  32.982  42.808   2.845
 6667W        W73076  12.088  17.783  13.595
 6668W        W73077   4.295  23.058   1.050
 6669W        W73078  37.912  42.737   4.974
 6670W        W73079  18.235  43.531   1.317
 6671W        W73080  39.204  33.687   3.662
 6672W        W73081  37.438  34.401   4.835
 6673W        W73082   7.410  31.432  14.865
 6674W        W73083   6.899  32.044  12.010
 6675W        W73084  12.003   2.782   5.397
 6676W        W73085  34.878  26.994  13.512
 6677W        W73086  16.338  24.581   0.192
 6678W        W73087  24.264  37.603   1.421
 6679W        W73088   5.310  16.390  12.610
 6680W        W73089  26.433  44.746   2.762
 6681W        W73090   2.689  36.080   3.417
 6682W        W73091   9.606   1.259  11.487
 6683W        W73092   7.402  13.187   4.814
 6684W        W73093  41.468   9.959   1.467
 6685W        W73094  33.927  36.110  11.761
 6686W        W73095  24.594  31.394  13.497
 6687W        W73096   1.187  31.171  11.888
 6688W        W73097   4.744  17.170   0.864
 6689W        W73098  30.031  44.921  12.180
 6690W        W73099   4.599   6.464   4.869
 6691W        W73100  17.694   2.866   0.831
 6692W        W73101   9.398  16.167  10.944
 6693W        W73102  22.222  27.959   3.632
 6694W        W73103  31.753   3.974   0.530
 6695W        W73104  32.693  41.884   1.458
 6696W        W73105  39.321  37.599  10.969
 6697W        W73106  38.480  30.962  13.403
 6698W        W73107  27.608  21.077   4.799
 6699W        W73108  42.842  37.533   1.406
 6700W        W73109  21.189  43.244   4.387
 6701W        W73110  10.153   5.957  13.457
 6702W        W73111  35.728  30.810   1.399
 6703W        W73112   6.293  44.779  13.295
 6704W        W73113   3.093  22.440   1.790
 6705W        W73114   2.300   3.816  12.036
 6706W        W73115  31.582  14.646  12.464
 6707W        W73116  38.827  29.852  11.019
 6708W        W73117   4.907  40.082  13.718
 6709W        W73118  25.537  34.970  11.924
 6710W        W73119  30.930  41.352   1.261
 6711W        W73120  34.808   5.153   2.358
 6712W        W73121  16.053  19.789   2.702
 6713W        W73122  13.184  30.426  12.451
 6714W        W73123   1.289  26.102   1.016
 6715W        W73124  33.951  23.308  13.688
 6716W        W73125  38.254  31.150   1.632
 6717W        W73126  31.987   6.952  10.946
 6718W        W73127  18.160  23.336  14.371
 6719W        W73128  42.418   6.938  14.289
 6720W        W73129  37.962  19.578  11.575
 6721W        W73130   0.992  29.255   0.310
 6722W        W73131  11.680  12.943  13.081
 6723W        W73132  18.276   7.107   1.488
 6724W        W73133  42.797   4.458  10.030
 6725W        W73134  11.713  42.965  13.575
 6726W        W73135  33.523  43.757  13.945
 6727W        W73136  16.627  36.393  11.203
 6728W        W73137  24.546   1.924   1.259
 6729W        W73138  37.518  28.064   9.946
 6730W        W73139  22.957   8.832  12.952
 6731W        W73140  21.711   5.236  12.984
 6732W        W73141  40.238   8.327  12.416
 6733W        W73142  35.999   2.442   2.846
 6734W        W73143  15.769  26.508  12.516
 6735W        W73144  14.775   4.062   2.763
 6736W        W73145   1.531   1.806  13.494
 6737W        W73146  43.746  31.185  14.395
 6738W        W73147   9.221  32.040  11.415
 6739W        W73148  18.295  29.137  12.411
 6740W        W73149  42.134   5.909   3.848
 6741W        W73150   0.881  40.267  13.366
 6742W        W73151  24.939   3.440   3.425
 6743W        W73152   4.613  10.219  10.831
 6744W        W73153  37.840  35.800   4.624
 6745W        W73154  20.202   1.422  11.468
 6746W        W73155   6.147  43.658   1.390
 6747W        W73156   8.867  30.334   4.517
 6748W        W73157   9.802  18.575  13.008
 6749W        W73158  36.130  14.564  13.073
 6750W        W73159  38.911  22.667  14.434
 6751W        W73160  42.437   0.396  11.901
 6752W        W73161   3.428  12.699   2.363
 6753W        W73162  14.714  26.978   2.398
 6754W        W73163   2.053   3.449  13.906
 6755W        W73164  22.514  22.622   2.171
 6756W        W73165  10.843  10.080  12.523
 6757W        W73166   1.346  40.257  13.898
 6758W        W73167  44.466  32.180  13.967
 6759W        W73168  16.323   9.380  11.625
 6760W        W73169   2.164  20.846  11.204
 6761W        W73170  44.507  33.171   0.553
 6762W        W73171  34.662  44.993  13.632
 6763W        W73172  17.710   5.342   2.139
 6764W        W73173   5.480  39.991  11.407
 6765W        W73174  41.533   0.350  11.247
 6766W        W73175   9.770  17.737   0.024
 6767W        W73176  36.351  35.277  12.592
 6768W        W73177  43.534   3.674  10.013
 6769W        W73178  13.039  34.662  13.372
 6770W        W73179  41.847  42.235   3.708
 6771W        W73180  27.547  29.885   1.659
 6772W        W73181  23.568  13.184  14.290
 6773W        W73182  21.991  30.051  11.222
 6774W        W73183  23.346   8.217  13.850
 6775W        W73184  23.424   8.605  11.421
 6776W        W73185  28.766  31.696  14.035
 6777W        W73186  24.299  43.988   0.478
 6778W        W73187  17.046  35.413  13.879
 6779W        W73188  23.724   2.820  14.858
 6780W        W73189  37.489  39.987   3.204
 6781W        W73190  38.266   3.648  14.281
 6782W        W73191  40.304  16.632   0.915
 6783W        W73192  17.978  39.609   1.809
 6784W        W73193   5.407   2.407   4.273
 6785W        W73194  16.291  11.126   2.883
 6786W        W73195  14.099  19.306   3.202
 6787W        W73196  35.123  30.657  14.305
 6788W        W73197  28.501   6.248  14.479
 6789W        W73198  27.879  31.307   2.183
 6790W        W73199   4.266  28.576   4.386
 6791W        W73200  16.601  25.510   1.233
 6792W        W73201  34.143  29.993   2.901
 6793W        W73202  37.385  21.618   2.697
 6794W        W73203  32.371  13.256  11.778
 6795W        W73204  27.680  41.470  10.949
 6796W        W73205  25.583  24.016   2.440
 6797W        W73206   2.458   9.604  11.519
 6798W        W73207  26.268   9.618  13.815
 6799W        W73208  14.206  41.709   5.027
 6800W        W73209  15.386   9.241  12.195
 6801W        W73210  34.258   4.148   3.696
 6802W        W73211  40.062   7.198  10.651
 6803W        W73212  34.819  28.946  11.186
 6804W        W73213  41.525  38.407   1.322
 6805W        W73214  28.381  44.115  10.457
 6806W        W73215  22.020  31.099   0.915
 6807W        W73216   7.764  12.909   0.407
 6808W        W73217   1.431  15.327  13.007
 6809W        W73218  18.538  24.719  13.754
 6810W        W73219  27.893   3.384   4.653
 6811W        W73220  32.632  17.152   3.444
 6812W        W73221   7.314  29.645  13.333
 6813W        W73222   0.992  22.959   1.339
 6814W        W73223  38.109   4.334  11.567
 6815W        W73224  12.573  14.135   1.890
 6816W        W73225  30.168  32.399   2.212
 6817W        W73226  33.364  39.537   2.124
 6818W        W73227   5.675  10.355  10.781
 6819W        W73228   9.918  14.624   3.155
 6820W        W73229  36.427   6.350   4.475
 6821W        W73230   7.353   3.365  13.752
 6822W        W73231  44.448  26.184   1.546
 6823W        W73232  31.389   4.009  12.939
 6824W        W73233  40.814  19.149   0.800
 6825W        W73234  25.697  31.248   0.722
 6826W        W73235  20.070  39.696  11.939
 6827W        W73236  30.415  12.354  14.452
 6828W        W73237   5.822   8.258   3.582
 6829W        W73238   7.700  11.834  12.040
 6830W        W73239   0.457   8.253  10.506
 6831W        W73240   8.290  34.849  13.360
 6832W        W73241  41.885  16.153  10.604
 6833W        W73242  15.149  32.755  11.563
 6834W        W73243   2.343  29.189   3.253
 6835W        W73244  10.911  30.676   2.246
 6836W        W73245   5.473  28.261  13.472
 6837W        W73246  35.109  19.127  14.980
 6838W        W73247  17.560  37.542   2.252
 6839W        W73248   6.674  39.000  10.752
 6840W        W73249  40.989  36.538   0.632
 6841W        W73250  19.313  14.894   0.342
 6842W        W73251  33.838  13.742   2.433
 6843W        W73252  26.158  33.046  12.087
 6844W        W73253  38.326   7.207   4.173
 6845W        W73254  43.919  10.162  13.046
 6846W        W73255   8.550  14.145   3.597
 6847W        W73256  20.801  20.297  13.912
 6848W        W73257  20.271  22.924   0.736
 6849W        W73258  24.854  15.287  10.746
 6850W        W73259  19.160  23.274   3.399
 6851W        W73260   7.284   1.471  14.969
 6852W        W73261  28.012  42.446  13.382
 6853W        W73262  44.152  37.545  14.596
 6854W        W73263  20.771  24.524   0.694
 6855W        W73264  30.894  27.675  11.530
 6856W        W73265  14.641  15.292  12.347
 6857W        W73266  17.750  27.102   4.702
 6858W        W73267  25.470  30.521   1.841
 6859W        W73268  36.480  28.831   3.828
 6860W        W73269  36.978   3.834  13.872
 6861W        W73270  23.616   5.514   2.834
 6862W        W73271  16.319  40.567   1.644
 6863W        W73272  22.780  15.645   4.208
 6864W        W73273   7.769  18.491  14.924
 6865W        W73274   9.477  44.847   4.181
 6866W        W73275  12.378  44.358  13.827
 6867W        W73276  13.949  26.480   3.489
 6868W        W73277  37.609  44.384  12.685
 6869W        W73278  16.879  30.581  13.588
 6870W        W73279  31.328  12.947  11.197
 6871W        W73280  23.033  13.481   0.556
 6872W        W73281  35.506  44.283  14.420
 6873W        W73282  26.534  23.990   3.097
 6874W        W73283  31.568  35.505   3.970
 6875W        W73284   9.620  37.103  10.609
 6876W        W73285  12.766  39.889  12.062
 6877W        W73286   4.722  26.456   1.795
 6878W        W73287   3.430  43.714  10.557
 6879W        W73288  14.529   0.943  13.479
 6880W        W73289  35.807  34.616   4.287
 6881W        W73290  32.619  12.363   1.476
 6882W        W73291  27.480  12.711  14.824
 6883W        W73292   3.730  17.217  12.614
 6884W        W73293  22.085  21.599   3.805
 6885W        W73294  40.633   7.104  11.435
 6886W        W73295  33.723   9.335   2.272
 6887W        W73296  19.091  10.395  12.864
 6888W        W73297  16.359  14.892  12.350
 6889W        W73298  25.485  43.636  14.973
 6890W        W73299  26.701  14.847  14.881
 6891W        W73300   9.805  41.008  13.573
 6892W        W73301   9.074  16.842   1.171
 6893W        W73302  21.086  26.991  14.877
 6894W        W73303  32.404  28.667   1.841
 6895W        W73304  20.155   3.738  14.408
 6896W        W73305  13.709  39.225  14.457
 6897W        W73306   0.866  33.162   5.039
 6898W        W73307  23.964   1.762   4.548
 6899W        W73308   9.746   0.936  14.450
 6900W        W73309  25.482   5.690  14.990
 6901W        W73310  16.129   8.928  13.108
 6902W        W73311  23.172  38.307  12.500
 6903W        W73312  43.831  36.639   4.347
 6904W        W73313  24.019   2.999  12.946
 6905W        W73314   2.909  31.317   4.277
 6906W        W73315  42.453  13.405   2.658
 6907W        W73316  14.740   2.228  10.960
 6908W        W73317  20.312  23.107  11.206
 6909W        W73318  40.714   9.691   0.854
 6910W        W73319  20.676   1.986  11.527
 6911W        W73320  34.363  33.673   2.409
 6912W        W73321  25.708  39.924   2.077
 6913W        W73322  25.660  14.828  10.709
 6914W        W73323  23.527  26.822   3.333
 6915W        W73324   5.515  37.463  11.482
 6916W        W73325  43.440  29.094  14.046
 6917W        W73326  21.595  26.854   0.260
 6918W        W73327  33.878  30.050   0.894
 6919W        W73328  24.808   0.322   0.514
 6920W        W73329  37.265  20.523  13.945
 6921W        W73330  25.606  27.497  12.647
 6922W        W73331  29.397   3.063   4.828
 6923W        W73332   6.071  38.463  10.529
 6924W        W73333   3.332  21.176   1.406
 6925W        W73334   8.310  32.412   1.487
 6926W        W73335  16.165  39.259   0.158
 6927W        W73336   0.891  14.860   4.721
 6928W        W73337  14.344  33.067   2.145
 6929W        W73338  24.645  43.018  13.084
 6930W        W73339   7.162  39.085  11.561
 6931W        W73340  39.186  11.564   3.338
 6932W        W73341  23.487  27.621  14.677
 6933W        W73342  26.089  14.576  14.842
 6934W        W73343  12.400  27.478  12.066
 6935W        W73344  24.498  24.491   0.772
 6936W        W73345  24.565  41.521   3.154
 6937W        W73346  28.622   2.913  11.964
 6938W        W73347  37.315  13.625  11.084
 6939W        W73348  26.111  40.748   2.231
 6940W        W73349  34.890   1.895   2.427
 6941W        W73350  36.666  15.466   0.834
 6942W        W73351  18.272  22.613  10.476
 6943W        W73352   5.288   8.523   4.697
 6944W        W73353  20.819  32.446   0.001
 6945W        W73354   9.841  11.847   0.054
 6946W        W73355  26.129  38.704  11.140
 6947W        W73356  31.094  32.398   0.911
 6948W        W73357   4.673   2.773  12.492
 6949W        W73358  32.408  15.801   1.769
 6950W        W73359   4.507   3.314  10.990
 6951W        W73360  18.592   3.795   2.199
 6952W        W73361  24.433  26.642  14.974
 6953W        W73362  18.735  42.425   3.151
 6954W        W73363  30.411  30.369   0.818
 6955W        W73364   2.901  13.324   0.306
 6956W        W73365  31.206   0.722   0.362
 6957W        W73366  29.470  11.251  13.063
 6958W        W73367  41.349  35.207   4.890
 6959W        W73368   2.358  43.551   3.700
 6960W        W73369   0.432  30.856  11.726
 6961W        W73370  15.783  36.285   4.127
 6962W        W73371  28.222  17.017   3.747
 6963W        W73372  24.152  35.836   4.255
 6964W        W73373  13.565   6.625  12.684
 6965W        W73374  37.991  43.263  14.469
 6966W        W73375   8.195   4.010  11.925
 6967W        W73376  10.185  44.839  13.792
 6968W        W73377  31.651  12.674  11.637
 6969W        W73378  28.561  35.379  13.418
 6970W        W73379  27.078  44.136  12.034
 6971W        W73380  43.705  12.070   1.377
 6972W        W73381  20.301  42.996   5.002
 6973W        W73382  36.425  40.886  13.369
 6974W        W73383  20.811  30.385  13.900
 6975W        W73384   4.307  34.859   3.200
 6976W        W73385  33.974  38.566  11.105
 6977W        W73386  36.427  44.505   3.220
 6978W        W73387  10.436   6.486  10.675
 6979W        W73388  12.309   3.521   5.074
 6980W        W73389  15.078  25.606  12.508
 6981W        W73390  37.884   6.345  14.823
 6982W        W73391  10.660  23.289  12.094
 6983W        W73392   5.691  24.448  13.137
 6984W        W73393  35.893  17.094   0.282
 6985W        W73394  31.652  12.934   0.243
 6986W        W73395  25.699  31.923  14.516
 6987W        W73396   9.947   9.374  11.061
 6988W        W73397  42.644  10.677   2.678
 6989W        W73398  38.046  44.951   0.987
 6990W        W73399  25.153   5.129   1.965
 6991W        W73400   7.411  32.447   0.059
 6992W        W73401  34.978  37.503   2.698
 6993W        W73402  30.729  41.194  12.075
 6994W        W73403  12.828  29.397  13.112
 6995W        W73404  41.659  42.747  14.257
 6996W        W73405  31.444  39.230  12.612
 6997W        W73406   9.135  39.120  12.538
 6998W        W73407  26.273  28.086  12.486
 6999W        W73408  27.129   2.241   4.074
 7000W        W73409  23.721  18.495  13.679
 7001W        W73410  43.860  27.358  12.910
 7002W        W73411  41.041   8.581  12.165
 7003W        W73412  32.316  24.484  14.876
 7004W        W73413  12.465   2.708   4.479
 7005W        W73414   7.667   9.190  10.663
 7006W        W73415  24.672  39.899  10.598
 7007W        W73416  13.365  30.865   3.682
 7008W        W73417  13.744  41.401   0.510
 7009W        W73418  34.433  43.873  13.734
 7010W        W73419  26.307  32.937  14.784
 7011W        W73420  34.444  14.355  14.298
 7012W        W73421  10.587  24.655   2.245
 7013W        W73422  35.726  17.068   5.352
 7014W        W73423  41.012  43.021   0.677
 7015W        W73424   6.594  28.161  14.210
 7016W        W73425   8.628   9.911  10.580
 7017W        W73426  20.645   9.487   3.187
 7018W        W73427  16.757   0.024   3.290
 7019W        W73428   2.830  15.081   4.788
 7020W        W73429   4.674   2.040  13.025
 7021W        W73430  26.907   1.286   4.479
 7022W        W73431  24.576  29.660  14.693
 7023W        W73432  37.811  33.071   0.679
 7024W        W73433   5.664  40.934   0.846
 7025W        W73434  20.572   2.031  13.962
 7026W        W73435  31.003  24.059   2.747
 7027W        W73436  22.068  36.649  10.639
 7028W        W73437  17.499   4.871  11.684
 7029W        W73438   1.923  29.681   2.413
 7030W        W73439   1.837  41.981  14.001
 7031W        W73440  29.095   4.411  13.064
 7032W        W73441  22.420   0.868   2.007
 7033W        W73442  24.924  19.646  11.496
 7034W        W73443  43.380   9.606   2.241
 7035W        W73444  28.598   8.304   2.623
 7036W        W73445  15.781  27.775  13.703
 7037W        W73446  44.004  41.394  13.880
 7038W        W73447   1.465  18.328   1.633
 7039W        W73448  30.518  42.080   2.293
 7040W        W73449   8.439  23.423   5.173
 7041W        W73450  43.515  14.600   2.256
 7042W        W73451   5.994  36.388  11.849
 7043W        W73452  34.879   8.992   1.481
 7044W        W73453  33.385  43.890   1.708
 7045W        W73454  41.063  37.467   0.782
 7046W        W73455  25.055  21.265   0.795
 7047W        W73456  13.368  37.683   2.275
 7048W        W73457  17.347  10.920   0.928
 7049W        W73458  38.741  28.612   4.158
 7050W        W73459  43.461  42.492  10.655
 7051W        W73460  31.716  21.958   0.392
 7052W        W73461   8.131  43.776   3.661
 7053W        W73462  40.925  10.703  11.702
 7054W        W73463  42.919   5.268  13.152
 7055W        W73464  29.993   4.806  10.372
 7056W        W73465  26.222   5.679   1.325
 7057W        W73466  29.096   2.566   2.709
 7058W        W73467  30.083  17.200   4.602
 7059W        W73468  29.024   6.924  13.622
 7060W        W73469  17.731  16.287  14.016
 7061W        W73470  28.700  24.992  12.155
 7062W        W73471  30.201   9.053   2.877
 7063W        W73472  27.713  41.853   2.006
 7064W        W73473  23.687  42.199   3.819
 7065W        W73474  34.411  28.649  11.186
 7066W        W73475  17.846  31.114   3.121
 7067W        W73476  39.429   4.994   9.949
 7068W        W73477  29.150  13.391   2.195
 7069W        W73478  35.020  29.487   4.152
 7070W        W73479  23.651  17.617   4.852
 7071W        W73480  22.716  31.619   0.459
 7072W        W73481   0.028  22.099  11.183
 7073W        W73482  21.858  36.526  14.490
 7074W        W73483  39.936  41.864   4.526
 7075W        W73484  21.780  35.439   2.851
 7076W        W73485  20.595  23.065  11.609
 7077W        W73486  30.431  35.054   2.713
 7078W        W73487  17.018  37.301  12.967
 7079W        W73488  14.212   7.607  13.395
 7080W        W73489  15.323  18.237   3.817
 7081W        W73490  32.347  24.561   4.777
 7082W        W73491  23.030  17.280   1.331
 7083W        W73492  34.054  16.985  14.761
 7084W        W73493  23.690  15.825  14.558
 7085W        W73494  27.147  12.405   1.217
 7086W        W73495  32.923  21.847   3.431
 7087W        W73496   0.456  24.527  11.569
 7088W        W73497  16.036   3.442  11.070
 7089W        W73498   6.844  35.840   3.154
 7090W        W73499  35.836   8.144  14.510
 7091W        W73500  14.741  30.855  10.839
 7092W        W73501   4.947  11.221   0.975
 7093W        W73502  43.957  29.980   0.773
 7094W        W73503  37.911  36.056  14.902
 7095W        W73504  32.982  19.601   1.182
 7096W        W73505  32.447  23.580  11.010
 7097W        W73506  32.106   5.305   3.009
 7098W        W73507   3.794  17.173  14.279
 7099W        W73508  44.836  14.264  12.453
 7100W        W73509  10.993  19.240   4.250
 7101W        W73510  10.102   9.406  14.218
 7102W        W73511  28.855  42.879  13.478
 7103W        W73512  43.859   9.166   0.500
 7104W        W73513  42.599   3.309   1.203
 7105W        W73514   5.236  29.740  11.770
 7106W        W73515  11.510  28.090   4.987
 7107W        W73516  24.972  44.121   2.946
 7108W        W73517  18.202  13.860   1.775
 7109W        W73518  23.028   1.141  13.119
 7110W        W73519  31.054  19.032   2.174
 7111W        W73520  31.689  31.063  13.880
 7112W        W73521   0.039   8.535  10.701
 7113W        W73522  32.406  25.667   0.575
 7114W        W73523  10.594  10.116  14.506
 7115W        W73524  18.353  21.401   1.625
 7116W        W73525  11.647  18.632   1.933
 7117W        W73526   3.398  21.366  14.146
 7118W        W73527  25.216  14.389  11.633
 7119W        W73528  20.292  10.704  12.472
 7120W        W73529  13.929   7.651   5.044
 7121W        W73530   7.965   2.819  11.570
 7122W        W73531  25.611  32.530  13.820
 7123W        W73532  19.127  29.309   4.557
 7124W        W73533  24.165  40.918  11.112
 7125W        W73534  21.634  38.825  10.219
 7126W        W73535  20.987   3.137   0.342
 7127W        W73536  25.282   2.151   4.859
 7128W        W73537  33.375   3.312   0.882
 7129W        W73538  40.828  23.820   0.422
 7130W        W73539  19.556   3.462   4.573
 7131W        W73540  24.374  25.510   3.281
 7132W        W73541   1.064  24.443   0.330
 7133W        W73542  27.465  29.666  11.252
 7134W        W73543  22.035  40.616   4.282
 7135W        W73544  29.354  31.661   0.421
 7136W        W73545  23.465   5.648  14.385
 7137W        W73546   3.004   7.481  14.484
 7138W        W73547  38.265   0.487  14.480
 7139W        W73548  37.033  25.633   4.723
 7140W        W73549  32.158  38.897   1.951
 7141W        W73550  41.759  19.141   1.828
 7142W        W73551  39.411   8.141  13.139
 7143W        W73552  42.820  26.262   1.640
 7144W        W73553  28.517  17.256   0.313
 7145W        W73554  44.287  44.812  14.411
 7146W        W73555  34.192  15.633  10.688
 7147W        W73556  38.837   5.923   2.408
 7148W        W73557  43.484   1.785  14.440
 7149W        W73558  14.414  26.600   4.657
 7150W        W73559  40.963  11.459  11.988
 7151W        W73560  24.562  27.688   4.108
 7152W        W73561  44.726  16.807  11.034
 7153W        W73562  13.614  19.530   3.185
 7154W        W73563   7.902   9.618   2.372
 7155W        W73564  26.024  14.218   2.854
 7156W        W73565  18.812   3.645  12.552
 7157W        W73566   7.188  20.791   3.555
 7158W        W73567   0.282  20.226   0.509
 7159W        W73568  29.598  38.098   2.820
 7160W        W73569  26.759  12.551  13.740
 7161W        W73570  40.112   5.273   4.541
 7162W        W73571  23.194  33.350  13.385
 7163W        W73572  36.801  12.828   2.361
 7164W        W73573  29.412  12.150   3.338
 7165W        W73574  14.821   0.777   3.689
 7166W        W73575  39.706  33.202  11.640
 7167W        W73576  42.246  21.640  13.575
 7168W        W73577  44.045  28.687   4.068
 7169W        W73578  13.581   1.680   3.226
 7170W        W73579   0.847  31.175  13.945
 7171W        W73580  43.604   4.232  11.131
 7172W        W73581  38.002  24.195   3.555
 7173W        W73582  26.397  15.642   4.083
 7174W        W73583  33.550  43.420  11.697
 7175W        W73584   2.459  32.144   4.658
 7176W        W73585  30.120  12.444   2.147
 7177W        W73586   8.535  12.749  11.339
 7178W        W73587  19.642  29.030   2.670
 7179W        W73588  41.105  31.970   4.312
 7180W        W73589  44.729   1.696   4.993
 7181W        W73590  38.498  15.715   0.469
 7182W        W73591  26.618  21.538   4.222
 7183W        W73592  14.294  39.872   2.811
 7184W        W73593  27.966   3.487   2.767
 7185W        W73594  39.573  23.521  13.146
 7186W        W73595  22.215  38.812  12.852
 7187W        W73596  30.054  10.645  12.015
 7188W        W73597  38.421  33.919  10.712
 7189W        W73598  16.280   7.932   2.851
 7190W        W73599  40.361  29.523   4.728
 7191W        W73600  25.499  18.251  13.065
 7192W        W73601  24.682  11.758  14.180
 7193W        W73602  24.490  17.695  11.665
 7194W        W73603  39.943  12.412   2.397
 7195W        W73604  36.062   6.901   3.176
 7196W        W73605  36.129  21.898  10.705
 7197W        W73606  12.899   3.409   3.329
 7198W        W73607  18.644  20.827   4.507
 7199W        W73608  30.441  16.815   3.794
 7200W        W73609  16.125  43.017   2.843
 7201W        W73610   2.305  38.454  13.136
 7202W        W73611  31.064  40.447  13.972
 7203W        W73612   8.718  19.355   1.239
 7204W        W73613  26.721   2.892   3.472
 7205W        W73614  26.906  18.697   2.328
 7206W        W73615  33.433  24.793  14.040
 7207W        W73616  14.822  22.645  14.238
 7208W        W73617  15.749  25.626  14.281
 7209W        W73618   4.414   3.240  12.322
 7210W        W73619  27.951  21.054  14.823
 7211W        W73620  34.922  42.822   0.742
 7212W        W73621   9.620  27.650  12.448
 7213W        W73622  24.197  42.637  14.747
 7214W        W73623  38.363  44.807   2.794
 7215W        W73624  12.891  27.627   2.139
 7216W        W73625  25.738  36.037   3.436
 7217W        W73626  30.804   3.999  12.020
 7218W        W73627  35.192  18.617  11.698
 7219W        W73628  43.878  40.142   0.352
 7220W        W73629  44.928   3.005   4.542
 7221W        W73630  38.698   1.088  14.230
 7222W        W73631  13.583  21.802   1.883
 7223W        W73632   9.816  39.140  13.917
 7224W        W73633   1.213  20.716   4.166
 7225W        W73634   9.187  16.660   4.739
 7226W        W73635  15.110  20.171  12.425
 7227W        W73636  37.266  39.290   1.204
 7228W        W73637  34.241  32.878   0.469
 7229W        W73638  24.296  16.222  11.001
 7230W        W73639  43.174  20.208  12.905
 7231W        W73640  30.959  18.866   2.702
 7232W        W73641  30.705   6.401  10.558
 7233W        W73642  34.289  36.980   0.743
 7234W        W73643   5.704  15.861   1.879
 7235W        W73644   7.082  10.650   0.823
 7236W        W73645  18.239  21.647  14.818
 7237W        W73646  42.440  24.593  11.556
 7238W        W73647  36.304  16.744   4.621
 7239W        W73648  19.781  16.508  14.043
 7240W        W73649  32.002  26.138  11.882
 7241W        W73650   9.784  10.290  13.579
 7242W        W73651  15.039  11.933   3.694
 7243W        W73652  19.138  36.803  12.439
 7244W        W73653  30.120  16.585  14.948
 7245W        W73654  44.506  37.155  12.459
 7246W        W73655  11.127  16.776   0.236
 7247W        W73656  26.011   6.536   4.220
 7248W        W73657  10.252   5.022  11.428
 7249W        W73658  13.631  43.426  11.643
 7250W        W73659  28.989  44.688  12.096
 7251W        W73660  39.394  43.217   4.882
 7252W        W73661   5.313  22.494   1.768
 7253W        W73662  17.020  36.128  13.358
 7254W        W73663   2.901  28.615  14.334
 7255W        W73664  28.648  37.934  10.438
 7256W        W73665   9.598  25.160   1.616
 7257W        W73666  31.041  19.856  14.290
 7258W        W73667  24.102  43.226   2.019
 7259W        W73668  18.520  35.490   4.796
 7260W        W73669  23.309   1.459   1.301
 7261W        W73670  16.653  10.722   3.109
 7262W        W73671  39.195  12.588   4.002
 7263W        W73672  22.092  22.790  11.898
 7264W        W73673  42.876  17.224   4.799
 7265W        W73674  38.659   3.714  12.487
 7266W        W73675  16.043  13.183  12.962
 7267W        W73676  19.138  43.114  14.097
 7268W        W73677  43.381  35.012  13.452
 7269W        W73678  16.784   6.963  13.045
 7270W        W73679  38.958  17.397   0.673
 7271W        W73680  37.439  34.139   1.455
 7272W        W73681  40.109  37.639  10.543
 7273W        W73682  29.484  34.327  14.037
 7274W        W73683   2.130  26.143   4.612
 7275W        W73684  23.075  26.129  13.718
 7276W        W73685  25.658  24.233  12.003
 7277W        W73686  29.305  11.169   2.678
 7278W        W73687  13.276  21.549  13.991
 7279W        W73688  26.443  14.454  13.866
 7280W        W73689  26.100  36.032   3.840
 7281W        W73690  35.510  24.790  14.839
 7282W        W73691  27.968  20.032   3.419
 7283W        W73692  15.526  14.836  11.215
 7284W        W73693  17.984  25.178  12.121
 7285W        W73694  26.456  23.286  12.962
 7286W        W73695   0.466  33.061  13.390
 7287W        W73696  43.337   4.440   2.713
 7288W        W73697   8.602  20.324   3.206
 7289W        W73698  42.439  35.080  11.579
 7290W        W73699  21.488  41.311   3.320
 7291W        W73700  13.214   1.471  10.646
 7292W        W73701  25.407  39.959   1.661
 7293W        W73702  14.757  28.936  13.782
 7294W        W73703  28.922   0.097   2.730
 7295W        W73704  44.678  42.296   3.879
 7296W        W73705  26.958   1.345   2.088
 7297W        W73706  44.675   3.455   0.255
 7298W        W73707   5.438  21.280  13.404
 7299W        W73708  31.664  39.773  12.826
 7300W        W73709   1.431  18.179   3.210
 7301W        W73710  14.421   6.956  14.380
 7302W        W73711  15.297   4.861  13.143
 7303W        W73712  41.558  32.493   1.771
 7304W        W73713  43.837  13.095   4.316
 7305W        W73714  19.517  41.384   4.450
 7306W        W73715  40.311  24.034   4.817
 7307W        W73716  24.329  13.747  12.490
 7308W        W73717  19.832  36.575   4.561
 7309W        W73718  23.286  43.785   4.142
 7310W        W73719  30.536   2.942  13.784
 7311W        W73720  20.142  44.531  13.766
 7312W        W73721   3.508  27.505  13.497
 7313W        W73722  37.486  40.258  10.759
 7314W        W73723  35.948   4.026   3.154
 7315W        W73724  42.162  41.583   1.270
 7316W        W73725   9.643  40.448   3.634
 7317W        W73726  31.665  43.929   4.223
 7318W        W73727  39.520  41.668  13.889
 7319W        W73728  20.675  37.580   2.845
 7320W        W73729  18.419   7.749  12.826
 7321W        W73730  28.135  36.018   4.092
 7322W        W73731   1.574  36.396  13.048
 7323W        W73732   9.363  36.022  12.884
 7324W        W73733  33.640  34.563  13.564
 7325W        W73734  29.484  26.729   1.392
 7326W        W73735  42.961  37.387   3.464
 7327W        W73736  31.532  28.321  11.139
 7328W        W73737  14.487  42.188  12.398
 7329W        W73738  20.276  41.123  12.920
 7330W        W73739  14.474   2.691  14.281
 7331W        W73740  31.259  14.436  12.857
 7332W        W73741  22.907   5.407   3.240
 7333W        W73742  44.169  15.524  13.469
 7334W        W73743  15.684  18.537   2.724
 7335W        W73744  12.295  31.591  12.233
 7336W        W73745  33.017  27.048  14.845
 7337W        W73746  43.139  40.635   2.215
 7338W        W73747  23.545   5.605   3.734
 7339W        W73748  40.057  13.679   0.897
 7340W        W73749  27.570  23.149  14.761
 7341W        W73750  24.225  35.305   0.223
 7342W        W73751   9.172  44.550   3.645
 7343W        W73752   9.059   9.195   2.229
 7344W        W73753  14.572  35.006   2.759
 7345W        W73754  20.057  39.762  10.697
 7346W        W73755  27.865  28.634   3.261
 7347W        W73756  32.058  25.343   4.171
 7348W        W73757  12.769  11.848   2.212
 7349W        W73758  43.269  16.113  11.751
 7350W        W73759  28.431   7.150   3.273
 7351W        W73760   9.865  27.115   0.085
 7352W        W73761   1.656  17.252   0.048
 7353W        W73762  16.182  41.963  12.870
 7354W        W73763  41.814  44.688   0.994
 7355W        W73764   5.384   4.715  14.845
 7356W        W73765  36.675  35.806   4.341
 7357W        W73766  13.358   8.186   2.310
 7358W        W73767  21.571   3.688  14.068
 7359W        W73768  40.370   2.890  12.559
 7360W        W73769  36.611   8.453   2.883
 7361W        W73770  24.952  13.402  13.694
 7362W        W73771  35.409  41.928   0.125
 7363W        W73772  22.234  39.412   2.690
 7364W        W73773  37.835  14.307   4.249
 7365W        W73774   6.823  29.177  13.814
 7366W        W73775  15.317   7.722  13.849
 7367W        W73776  34.554   9.930  10.995
 7368W        W73777  41.897  25.509  13.089
 7369W        W73778  36.585  39.057  14.345
 7370W        W73779   6.288  12.232  11.599
 7371W        W73780  25.954  24.337   0.758
 7372W        W73781   2.845  33.633   0.880
 7373W        W73782  34.455  22.675  13.853
 7374W        W73783  33.577  23.544   1.410
 7375W        W73784  19.358   8.927   4.281
 7376W        W73785  43.048  16.520  10.583
 7377W        W73786  15.595  30.912  12.099
 7378W        W73787  41.422   4.212  14.935
 7379W        W73788  27.930  11.425   5.040
 7380W        W73789  34.133   7.255  12.804
 7381W        W73790  34.162  33.419  14.782
 7382W        W73791   4.921  15.867  12.079
 7383W        W73792   8.524  26.542  13.092
 7384W        W73793   3.296  39.589  13.152
 7385W        W73794  31.591  10.571  12.319
 7386W        W73795  29.880  36.983   1.705
 7387W        W73796  13.433  16.651  11.697
 7388W        W73797  29.745  35.573  13.464
 7389W        W73798  18.827  15.020  13.343
 7390W        W73799  35.453  14.241  12.095
 7391W        W73800   6.716  24.216  13.979
 7392W        W73801  16.964  30.980  11.073
 7393W        W73802  19.355  20.694  12.481
 7394W        W73803  15.769  18.961  14.767
 7395W        W73804  35.692  21.528  13.570
 7396W        W73805  42.406  10.363  13.431
 7397W        W73806  31.462  18.721   4.483
 7398W        W73807  26.962  27.548  12.083
 7399W        W73808  30.159  21.516   2.723
 7400W        W73809  30.034   0.288  12.590
 7401W        W73810  28.652  20.740  14.555
 7402W        W73811  30.645   8.268  13.896
 7403W        W73812  26.508   5.390   3.606
 7404W        W73813  14.765  24.970   2.799
 7405W        W73814  41.332  41.120   2.856
 7406W        W73815  41.524   7.218  14.306
 7407W        W73816  20.092  33.414  13.038
 7408W        W73817   2.141   7.420   2.885
 7409W        W73818  38.815  24.422   4.054
 7410W        W73819   2.454  11.855  14.936
 7411W        W73820  35.565  39.246   0.658
 7412W        W73821  18.482  33.174  11.973
 7413W        W73822  30.599  31.369   2.814
 7414W        W73823  26.719  30.391   4.178
 7415W        W73824  41.393  10.410  13.458
 7416W        W73825  25.474  10.455  13.377
 7417W        W73826  33.076  34.630  10.764
 7418W        W73827  11.594   5.454   1.729
 7419W        W73828  14.083  14.285   2.763
 7420W        W73829   3.325   4.925   0.227
 7421W        W73830  21.547   4.827   3.142
 7422W        W73831  22.183   9.754  12.030
 7423W        W73832  25.506  16.545   3.440
 7424W        W73833  13.106   5.278   2.005
 7425W        W73834  15.604  24.109  14.263
 7426W        W73835   8.786   6.009  13.320
 7427W        W73836  40.205  44.977  11.576
 7428W        W73837  27.887  16.673  10.821
 7429W        W73838   2.704  33.038   3.185
 7430W        W73839  22.011  30.024   1.422
 7431W        W73840  28.595   4.881  13.769
 7432W        W73841  35.058  34.290  10.223
 7433W        W73842  19.214  36.496   3.738
 7434W        W73843  44.102  41.836  11.034
 7435W        W73844   5.346  25.520   1.106
 7436W        W73845  22.855  41.775   4.221
 7437W        W73846  17.237  29.212  13.453
 7438W        W73847  11.269  14.656  14.395
 7439W        W73848   5.362  31.913   2.167
 7440W        W73849  36.882  44.636   9.969
 7441W        W73850  43.831  28.370   2.658
 7442W        W73851   7.911   1.862  12.667
 7443W        W73852  37.409   4.767  11.995
 7444W        W73853  41.508  11.593   0.271
 7445W        W73854  43.995  35.447  12.965
 7446W        W73855  27.510  16.758  13.580
 7447W        W73856  31.001  24.543   4.030
 7448W        W73857   3.749  30.906   4.806
 7449W        W73858  12.840   2.329  11.853
 7450W        W73859  32.389   9.746   4.140
 7451W        W73860  17.463  13.291   4.609
 7452W        W73861   0.945  32.313  11.698
 7453W        W73862  35.879  13.262  12.788
 7454W        W73863  17.973  17.201   1.864
 7455W        W73864  32.057   1.237   4.153
 7456W        W73865  37.761  16.027   3.550
 7457W        W73866  19.660   6.776  13.976
 7458W        W73867  41.861  33.874   2.395
 7459W        W73868   9.710  36.867  12.463
 7460W        W73869  13.331   0.283  14.881
 7461W        W73870  18.738  42.460  14.432
 7462W        W73871  21.136  40.589   2.866
 7463W        W73872  43.596  40.790  12.879
 7464W        W73873   8.957  36.632   1.710
 7465W        W73874   0.737  20.021  12.060
 7466W        W73875   0.487  35.535  10.718
 7467W        W73876  11.410  40.294  12.120
 7468W        W73877  37.619  37.081  13.897
 7469W        W73878  42.243  18.077   1.271
 7470W        W73879   4.760  18.697  11.243
 7471W        W73880  43.946  37.072  14.544
 7472W        W73881  20.679  39.140   3.791
 7473W        W73882  31.040  25.175  12.355
 7474W        W73883  16.553  34.148   3.289
 7475W        W73884  13.745  25.925   0.994
 7476W        W73885  29.738   2.733  10.202
 7477W        W73886  11.109  12.704  13.842
 7478W        W73887  36.021  28.132  13.055
 7479W        W73888  14.929  31.270  12.402
 7480W        W73889  37.498  34.193   4.340
 7481W        W73890   5.102  13.694   0.429
 7482W        W73891  29.590   3.931  12.310
 7483W        W73892   8.887  44.504  11.092
 7484W        W73893  25.076   4.467  11.126
 7485W        W73894  12.742   3.724  14.918
 7486W        W73895  25.729  16.368  11.972
 7487W        W73896  38.961   3.968  14.769
 7488W        W73897  25.270  42.708  10.906
 7489W        W73898  22.284  42.775  10.129
 7490W        W73899  40.300  18.307   2.289
 7491W        W73900  43.028  13.869   2.875
 7492W        W73901  12.354  40.517   1.056
 7493W        W73902  28.175   3.091  14.631
 7494W        W73903  34.470  42.090  14.012
 7495W        W73904  21.287  26.975   3.852
 7496W        W73905  26.192  31.115   0.870
 7497W        W73906  20.658  44.730   0.030
 7498W        W73907  13.141  33.904   0.220
 7499W        W73908  19.342  35.587  12.870
 7500W        W73909  43.955  22.336   1.934
 7501W        W73910   3.169   0.488  13.589
 7502W        W73911  26.587  23.818  14.058
 7503W        W73912  29.810  27.014   4.032
 7504W        W73913  16.151  42.044  13.849
 7505W        W73914  12.298  36.119  10.284
 7506W        W73915  17.300  33.425  14.800
 7507W        W73916  19.730  17.025   4.496
 7508W        W73917   7.192   6.986   0.491
 7509W        W73918  25.699  26.259  14.839
 7510W        W73919   6.175  17.089   4.342
 7511W        W73920  38.067  26.597   2.299
 7512W        W73921  27.641  44.936   1.209
 7513W        W73922  21.932  26.226   2.406
 7514W        W73923  16.680  14.611  12.846
 7515W        W73924  15.364  25.573   3.154
 7516W        W73925  25.998   6.150   1.924
 7517W        W73926  11.579   4.000   4.635
 7518W        W73927  21.144  36.930  11.888
 7519W        W73928  20.594  37.520   1.072
 7520W        W73929  27.004  26.909   2.669
 7521W        W73930   6.826  13.151   0.262
 7522W        W73931   0.074  41.291  14.591
 7523W        W73932  16.226   4.798   4.586
 7524W        W73933  38.584   0.005   0.853
 7525W        W73934  33.488  12.696   3.326
 7526W        W73935  23.595  12.837  12.942
 7527W        W73936   6.446   3.646   4.118
 7528W        W73937   6.575  38.638   9.938
 7529W        W73938  23.088  30.559   3.587
 7530W        W73939  39.553  36.195   3.804
 7531W        W73940   8.231  26.104  12.045
 7532W        W73941  32.194  37.475  14.217
 7533W        W73942  16.382  34.426  14.914
 7534W        W73943  16.847  20.607   2.401
 7535W        W73944  12.896  34.062   0.709
 7536W        W73945  43.299  19.034  14.836
 7537W        W73946  11.759   7.242  11.089
 7538W        W73947   6.841  26.351   1.142
 7539W        W73948  32.460  14.818  10.605
 7540W        W73949  39.429  31.528  10.916
 7541W        W73950   0.516  29.846  11.991
 7542W        W73951  17.037   2.141  12.065
 7543W        W73952  29.190   7.166   0.224
 7544W        W73953  20.498  27.946   4.176
 7545W        W73954  44.273  18.433  13.557
 7546W        W73955   9.547  33.345  13.978
 7547W        W73956  25.041  33.865  10.696
 7548W        W73957  18.053  29.658   3.551
 7549W        W73958  15.706   0.758  13.647
 7550W        W73959  32.887  38.956  10.655
 7551W        W73960   8.141  37.326   0.860
 7552W        W73961  35.389  16.685  11.597
 7553W        W73962  23.984  40.479   3.970
 7554W        W73963  24.087  13.517   3.390
 7555W        W73964  19.963   0.356  11.463
 7556W        W73965   5.682   1.870   3.138
 7557W        W73966  36.888  13.340  11.063
 7558W        W73967  41.734  41.334   0.400
 7559W        W73968  31.355  19.621   3.094
 7560W        W73969  44.993  41.818  13.869
 7561W        W73970  44.692  24.324   2.907
 7562W        W73971  18.596  22.733   4.438
 7563W        W73972   3.805  26.264  11.556
 7564W        W73973   8.455  13.642  12.549
 7565W        W73974  13.626  24.242  11.509
 7566W        W73975  12.481  31.252  11.543
 7567W        W73976  41.605  15.105   1.345
 7568W        W73977   8.809  42.325  12.499
 7569W        W73978  13.845  44.295   0.351
 7570W        W73979  36.331   6.736   2.764
 7571W        W73980  36.783  19.818   4.078
 7572W        W73981  33.978  34.539  10.918
 7573W        W73982   1.445  39.058   2.635
 7574W        W73983   0.271  38.267  14.361
 7575W        W73984  42.844  11.765  10.580
 7576W        W73985  22.307   7.085  10.813
 7577W        W73986  14.323   8.142  13.418
 7578W        W73987  16.276  14.696   2.402
 7579W        W73988  18.115  30.517   1.859
 7580W        W73989  32.148  22.720   1.393
 7581W        W73990  33.768  31.417   3.606
 7582W        W73991   6.198   5.798   4.208
 7583W        W73992  42.100  44.785   4.280
 7584W        W73993  26.853  14.252  12.712
 7585W        W73994  22.681   0.900  12.575
 7586W        W73995  13.705  14.185   3.741
 7587W        W73996  21.119  26.276   3.710
 7588W        W73997  41.495  24.781  14.600
 7589W        W73998  30.404  33.127  12.561
 7590W        W73999  14.404  36.173   9.913
 7591W        W74000  44.934  41.578  10.647
 7592W        W74001   2.608  21.534   0.590
 7593W        W74002  44.748  37.260  12.030
 7594W        W74003  24.646  12.212  12.912
 7595W        W74004  34.456   1.197  13.419
 7596W        W74005   3.300  27.708   2.337
 7597W        W74006  20.120   9.833  13.711
 7598W        W74007  36.296  29.884   3.874
 7599W        W74008  36.462   2.763   0.098
 7600W        W74009  15.580  25.144   1.418
 7601W        W74010   5.998  35.525  11.585
 7602W        W74011   7.124  40.437   2.551
 7603W        W74012  37.780  32.640  13.899
 7604W        W74013  35.771   4.259   2.238
 7605W        W74014  43.200  10.309   3.228
 7606W        W74015   0.644   7.611  11.020
 7607W        W74016  28.672  29.672  10.613
 7608W        W74017  16.862  38.897   3.321
 7609W        W74018  32.795  28.155  10.703
 7610W        W74019  32.913  24.446   0.792
 7611W        W74020  22.628  27.751   0.385
 7612W        W74021  25.990  14.412  10.593
 7613W        W74022   5.791  18.875  14.948
 7614W        W74023   0.514   0.440   4.830
 7615W        W74024   2.543   4.403  14.817
 7616W        W74025  26.004  29.782  13.198
 7617W        W74026  33.545   0.851   1.232
 7618W        W74027  21.028  13.290   3.843
 7619W        W74028  39.942  26.627   2.652
 7620W        W74029  37.126  19.026   4.110
 7621W        W74030  17.294  11.275  10.112
 7622W        W74031  28.976  28.496   4.213
 7623W        W74032  20.839  30.484   0.812
 7624W        W74033  42.899  41.553  14.938
 7625W        W74034  43.476   5.966  13.938
 7626W        W74035  25.289  43.603   3.537
 7627W        W74036  12.179  14.103   3.168
 7628W        W74037  16.234  44.143   1.626
 7629W        W74038  20.077  28.094   1.736
 7630W        W74039  40.794  26.568  12.405
 7631W        W74040  22.972  15.715  13.594
 7632W        W74041  12.258   9.869  12.597
 7633W        W74042   6.526  31.591   0.997
 7634W        W74043  12.699  38.443   4.609
 7635W        W74044  29.988   0.224  13.478
 7636W        W74045  16.133  27.769   0.880
 7637W        W74046  34.870  13.323  13.710
 7638W        W74047  27.864   0.319  11.530
 7639W        W74048   2.959  39.131  11.544
 7640W        W74049  25.252  35.836  11.529
 7641W        W74050  24.035   9.189  11.650
 7642W        W74051  35.125  35.323  11.589
 7643W        W74052  28.933  18.590  11.053
 7644W        W74053  29.025  41.650   4.029
 7645W        W74054  30.908  27.597   3.666
 7646W        W74055  39.930  26.958   0.021
 7647W        W74056  14.914   0.567   1.243
 7648W        W74057  38.034   2.530   2.711
 7649W        W74058  14.703  30.147   4.653
 7650W        W74059  41.134  16.702  10.279
 7651W        W74060  25.940  17.452  13.603
 7652W        W74061   0.457  36.587   3.335
 7653W        W74062  31.348  25.211  13.555
 7654W        W74063  19.581  36.463  14.154
 7655W        W74064   2.817  10.320   4.415
 7656W        W74065  18.769   0.071   2.372
 7657W        W74066  17.418  11.336  11.588
 7658W        W74067  13.282  14.123   2.338
 7659W        W74068   8.686   2.970   0.696
 7660W        W74069   7.787  40.132   1.454
 7661W        W74070  26.487  14.652  12.146
 7662W        W74071  14.515   9.857  11.452
 7663W        W74072  11.716   6.295  11.191
 7664W        W74073  22.196  42.931   2.347
 7665W        W74074  41.039  11.997   3.228
 7666W        W74075  38.539   0.451   2.335
 7667W        W74076  27.547  33.255   0.202
 7668W        W74077  10.683  44.383   4.599
 7669W        W74078  26.913  31.367   0.439
 7670W        W74079   6.650  28.678  10.576
 7671W        W74080  23.097  11.765  14.423
 7672W        W74081  13.785  25.740   4.769
 7673W        W74082  10.705  27.019   1.605
 7674W        W74083  35.552   6.409   3.917
 7675W        W74084  43.534   7.093   4.048
 7676W        W74085  25.715   1.584   1.970
 7677W        W74086   1.894   1.358  10.781
 7678W        W74087   8.499  35.526  11.557
 7679W        W74088  31.126  10.264   2.566
 7680W        W74089  26.540  29.384  14.811
 7681W        W74090  40.454  11.937  11.123
 7682W        W74091  20.560  21.096   1.400
 7683W        W74092  22.053   0.411  13.388
 7684W        W74093  12.932  33.913   4.984
 7685W        W74094  37.693   8.670  14.075
 7686W        W74095  14.747  43.411   4.456
 7687W        W74096  30.218  16.657   2.773
 7688W        W74097   7.365  39.581  11.169
 7689W        W74098  11.181   1.119   3.555
 7690W        W74099  42.280  15.776   4.511
 7691W        W74100  40.368  13.088   0.379
 7692W        W74101  29.139  41.952   1.494
 7693W        W74102  22.777  34.872   0.280
 7694W        W74103  34.811  13.695  12.007
 7695W        W74104  28.240   3.905   0.097
 7696W        W74105  10.881  11.666   3.238
 7697W        W74106  26.478  27.012   1.229
 7698W        W74107  34.015  15.678  11.204
 7699W        W74108  35.625  12.608   4.186
 7700W        W74109  16.990  12.250  11.183
 7701W        W74110   0.721  12.696  14.974
 7702W        W74111  30.413   1.637   1.449
 7703W        W74112  25.754  36.664  14.984
 7704W        W74113  14.297  38.992  13.900
 7705W        W74114  41.984   3.911   0.572
 7706W        W74115  28.972   1.361   3.849
 7707W        W74116   0.274  30.383  14.938
 7708W        W74117   0.939  31.669  13.785
 7709W        W74118  28.383   7.846   1.296
 7710W        W74119  22.299  27.224   3.111
 7711W        W74120  40.824  26.105  10.592
 7712W        W74121  12.167   0.757   3.581
 7713W        W74122  11.526  12.935   3.686
 7714W        W74123   4.072  24.315   3.947
 7715W        W74124  39.769  27.135   4.225
 7716W        W74125  11.232  31.509  12.658
 7717W        W74126  37.951  38.138  11.218
 7718W        W74127  34.102  11.126   2.415
 7719W        W74128  37.327  35.547  13.953
 7720W        W74129   7.837  22.895   3.167
 7721W        W74130  11.801  39.522   4.590
 7722W        W74131  14.774  42.998  12.351
 7723W        W74132   9.154   1.951  14.901
 7724W        W74133   7.356  35.679   1.932
 7725W        W74134  24.168  15.910   4.130
 7726W        W74135   7.638  19.038   0.010
 7727W        W74136   1.181   1.858   0.849
 7728W        W74137   7.949  19.284  12.459
 7729W        W74138  37.858  20.025   0.825
 7730W        W74139  28.802  40.524  12.400
 7731W        W74140  38.547   7.453  11.105
 7732W        W74141  12.004  14.008  11.987
 7733W        W74142  26.935  19.330  11.569
 7734W        W74143  13.775  38.959  13.810
 7735W        W74144  37.417  35.406  14.460
 7736W        W74145  15.323   2.191  13.935
 7737W        W74146   6.285  19.021   4.178
 7738W        W74147  39.754   7.820   0.325
 7739W        W74148   7.282  13.812   3.381
 7740W        W74149   0.247   7.000   0.169
 7741W        W74150  11.370  28.687  13.392
 7742W        W74151  36.969  31.902  13.903
 7743W        W74152  43.035  30.983   2.726
 7744W        W74153  30.601  19.311   2.171
 7745W        W74154   9.677  41.330   3.606
 7746W        W74155  32.429   0.734  12.496
 7747W        W74156  16.322  33.717  11.057
 7748W        W74157  15.371  31.092  12.611
 7749W        W74158  11.332   6.945  10.843
 7750W        W74159  10.623  25.928   1.720
 7751W        W74160   3.267  44.892   3.042
 7752W        W74161  39.110   9.551   4.631
 7753W        W74162  43.021  17.129   1.881
 7754W        W74163   7.362  43.027  13.036
 7755W        W74164  32.814  31.231  11.125
 7756W        W74165   3.237  19.508  14.563
 7757W        W74166  24.738   6.287   0.722
 7758W        W74167  21.479  44.431   2.303
 7759W        W74168  27.937  41.457  12.046
 7760W        W74169   5.801  33.910  14.363
 7761W        W74170  34.451   7.782   0.776
 7762W        W74171  16.596  17.488   1.878
 7763W        W74172  32.657   3.232   0.178
 7764W        W74173  42.971  33.322  11.149
 7765W        W74174  25.961   5.274   4.810
 7766W        W74175  23.625  35.340   0.943
 7767W        W74176  30.964   1.978   3.726
 7768W        W74177  22.993   6.311   4.791
 7769W        W74178  12.850  20.794   2.712
 7770W        W74179  42.584  28.188   4.631
 7771W        W74180  32.441  22.695  12.829
 7772W        W74181  32.943  42.938   4.629
 7773W        W74182   1.286  44.560  12.981
 7774W        W74183  39.307  34.218   1.484
 7775W        W74184  20.738  25.880  13.126
 7776W        W74185  24.270  31.978   2.437
 7777W        W74186   2.783  15.101  14.851
 7778W        W74187  37.407  42.603  13.846
 7779W        W74188  37.917  32.348  13.451
 7780W        W74189  22.019  31.625   4.522
 7781W        W74190   2.842  41.308  11.641
 7782W        W74191   2.654  27.433  13.824
 7783W        W74192   2.780  22.823   3.129
 7784W        W74193  27.624   3.289  11.999
 7785W        W74194   4.383  44.479   1.712
 7786W        W74195  12.884  24.124  10.834
 7787W        W74196  15.997  16.768  12.833
 7788W        W74197   1.367  12.071   4.303
 7789W        W74198   6.827  11.695   1.745
 7790W        W74199  31.003  35.946   0.874
 7791W        W74200  18.083  17.085   2.712
 7792W        W74201  11.146   6.409   3.120
 7793W        W74202  39.258  37.941   0.479
 7794W        W74203  12.402  14.510  14.733
 7795W        W74204  22.936   8.978   2.692
 7796W        W74205   8.790   4.809  14.793
 7797W        W74206  10.268  13.657  14.504
 7798W        W74207  36.278  20.587  10.968
 7799W        W74208   9.694   1.270   1.204
 7800W        W74209  20.823  28.738  12.654
 7801W        W74210  41.957  23.629   2.805
 7802W        W74211   6.826  42.806   2.229
 7803W        W74212  16.168   6.481  11.083
 7804W        W74213   1.878  38.830   2.811
 7805W        W74214  25.075  11.184  13.953
 7806W        W74215   7.264   6.275   1.758
 7807W        W74216  30.090  42.171   1.568
 7808W        W74217   2.884  18.165   3.333
 7809W        W74218   3.394  13.436  14.320
 7810W        W74219  22.063   3.526   0.854
 7811W        W74220  10.169  24.699  12.869
 7812W        W74221   5.479  29.911   4.168
 7813W        W74222  36.053  38.571   0.289
 7814W        W74223  12.699   5.272   3.410
 7815W        W74224   6.809  36.382  11.174
 7816W        W74225  33.154   2.559  13.819
 7817W        W74226  20.991  20.769  13.215
 7818W        W74227   7.590  41.266  11.614
 7819W        W74228  40.097  39.825   1.306
 7820W        W74229   4.810   8.042   2.640
 7821W        W74230  30.463  13.306   3.620
 7822W        W74231  44.347  23.495  13.107
 7823W        W74232   0.842  36.117  11.115
 7824W        W74233  21.198  33.367  12.921
 7825W        W74234  39.397  22.018  14.021
 7826W        W74235  44.804   1.526   4.518
 7827W        W74236  40.447  41.164  12.461
 7828W        W74237  26.101   1.731   4.663
 7829W        W74238  16.868   8.696  12.475
 7830W        W74239   6.491  23.057   3.237
 7831W        W74240   3.525   3.738  14.407
 7832W        W74241  21.651  40.140   1.069
 7833W        W74242  41.038  16.482   0.227
 7834W        W74243  18.130   7.742   1.712
 7835W        W74244  44.409  26.668  13.131
 7836W        W74245   1.803  41.483  14.169
 7837W        W74246   0.602  41.983  11.800
 7838W        W74247   1.377  10.832   9.737
 7839W        W74248   3.229   4.502  10.378
 7840W        W74249  43.334  20.004  14.766
 7841W        W74250  21.206  25.218  11.182
 7842W        W74251  34.868  20.082   0.803
 7843W        W74252  17.810   8.897  12.365
 7844W        W74253   0.002   3.527   1.466
 7845W        W74254  10.700   1.525   0.280
 7846W        W74255   6.936  40.545  10.724
 7847W        W74256  36.397  41.912  13.251
 7848W        W74257   0.941  43.036   2.873
 7849W        W74258  11.614  43.838   1.110
 7850W        W74259  21.716   1.458   4.031
 7851W        W74260  30.544  17.652   1.040
 7852W        W74261  44.491  17.228   4.112
 7853W        W74262  35.990   1.334  14.927
 7854W        W74263   0.173   2.392  12.046
 7855W        W74264   0.543  19.057  13.133
 7856W        W74265  14.765  16.656   4.645
 7857W        W74266  42.353  16.780  14.172
 7858W        W74267  37.977  39.106   1.688
 7859W        W74268  20.740  27.106  11.729
 7860W        W74269  31.970  18.269  13.968
 7861W        W74270  15.367  10.939   3.597
 7862W        W74271   2.375   4.814   1.000
 7863W        W74272  28.083  22.435   2.818
 7864W        W74273   8.420  33.432   0.877
 7865W        W74274  31.883   4.961   4.479
 7866W        W74275  38.092  44.498  13.903
 7867W        W74276   7.846   9.371   2.830
 7868W        W74277   5.947   2.412  12.613
 7869W        W74278  39.964  28.709   0.800
 7870W        W74279  35.060  14.494  13.816
 7871W        W74280  24.523  37.836   4.903
 7872W        W74281   0.680  10.567   4.528
 7873W        W74282  33.830   6.847  12.949
 7874W        W74283   9.702  37.777  14.887
 7875W        W74284  39.667  21.295  10.922
 7876W        W74285  25.764  43.058  13.875
 7877W        W74286   9.652  21.318  13.465
 7878W        W74287   2.044  21.151  13.888
 7879W        W74288   6.202  37.366   2.005
 7880W        W74289   7.196  38.828   0.263
 7881W        W74290  34.553  10.953   1.144
 7882W        W74291  40.137  22.534   1.890
 7883W        W74292  35.480  43.385  12.382
 7884W        W74293  32.850  19.232  11.809
 7885W        W74294  41.474  36.034   1.105
 7886W        W74295   7.802  32.372   1.721
 7887W        W74296  10.689  39.300  14.930
 7888W        W74297  36.229  43.032  14.631
 7889W        W74298  29.923   3.232   0.046
 7890W        W74299   3.376  10.115   1.725
 7891W        W74300  12.670  15.867  13.727
 7892W        W74301  14.359   9.300  10.727
 7893W        W74302  21.597  44.926   1.261
 7894W        W74303  14.072  32.841   3.037
 7895W        W74304  35.812  18.162   3.920
 7896W        W74305  41.998  44.674  13.846
 7897W        W74306  18.624  32.036   3.666
 7898W        W74307  41.388  38.311  12.106
 7899W        W74308  27.438  12.275   5.077
 7900W        W74309  30.114  38.854  12.410
 7901W        W74310  28.170   8.135   3.506
 7902W        W74311  26.012   3.440   0.220
 7903W        W74312  36.424   5.514   4.099
 7904W        W74313   2.628  17.877  14.963
 7905W        W74314  20.480  41.934  11.184
 7906W        W74315  28.660  23.758   3.729
 7907W        W74316  36.644   1.883  11.281
 7908W        W74317   0.432  33.579  13.394
 7909W        W74318  21.141  41.855   3.375
 7910W        W74319  24.227   1.433   1.657
 7911W        W74320  11.795  43.302  10.014
 7912W        W74321  33.155   2.040  13.830
 7913W        W74322  42.184  25.864  13.375
 7914W        W74323  22.460   3.176  13.911
 7915W        W74324  40.018  12.189  11.126
 7916W        W74325  24.697  19.222  12.738
 7917W        W74326   4.740  10.534  11.239
 7918W        W74327  25.325  19.625  10.650
 7919W        W74328  41.180  16.772   4.112
 7920W        W74329  40.625  19.589   3.373
 7921W        W74330  23.652  23.591   4.065
 7922W        W74331   6.607  27.890  10.868
 7923W        W74332   9.275  44.734  12.001
 7924W        W74333  25.749  19.651  12.853
 7925W        W74334  29.506  24.902  13.269
 7926W        W74335  17.636   3.904  13.138
 7927W        W74336   0.279  18.318  13.496
 7928W        W74337   5.302  30.119   2.244
 7929W        W74338  15.892   0.780   0.378
 7930W        W74339   7.805  24.263  13.956
 7931W        W74340   4.527   0.028   1.457
 7932W        W74341   3.240  29.120   0.378
 7933W        W74342  39.413  30.901  11.034
 7934W        W74343  21.764  42.802  10.768
 7935W        W74344  36.353  11.339  11.224
 7936W        W74345  16.154  32.542   3.815
 7937W        W74346   0.174  23.900   2.807
 7938W        W74347  41.026  35.326  14.003
 7939W        W74348  36.812   9.454  13.094
 7940W        W74349  24.757  17.328  13.119
 7941W        W74350  14.851   2.828   4.810
 7942W        W74351  15.264  17.842  14.353
 7943W        W74352  14.541  18.790  12.265
 7944W        W74353  23.600  25.561   1.945
 7945W        W74354  21.940  20.165   0.186
 7946W        W74355  37.387  30.049  12.596
 7947W        W74356  17.670  33.864  13.804
 7948W        W74357  12.315   8.413   4.105
 7949W        W74358   7.972  11.597   9.854
 7950W        W74359  33.334  12.307   3.666
 7951W        W74360  29.320  23.541   2.437
 7952W        W74361  32.584  20.285  12.313
 7953W        W74362   9.264   9.402  12.046
 7954W        W74363  13.015  43.168   0.137
 7955W        W74364  24.684  37.020   4.787
 7956W        W74365  39.959  23.748  13.405
 7957W        W74366  17.763   8.684  13.866
 7958W        W74367  14.692  15.153   0.840
 7959W        W74368   2.905   2.893   1.913
 7960W        W74369  10.371  41.295  14.943
 7961W        W74370  36.612  22.721  11.465
 7962W        W74371  31.383  10.127   2.132
 7963W        W74372  32.073  36.798   3.272
 7964W        W74373  12.306  17.328   2.308
 7965W        W74374  42.755  40.275   0.979
 7966W        W74375  38.417  22.976   1.389
 7967W        W74376  23.741  23.079   4.099
 7968W        W74377   4.926  42.643   3.844
 7969W        W74378  34.383  30.125  13.825
 7970W        W74379   0.195  36.102   0.923
 7971W        W74380  40.811  42.874   4.855
 7972W        W74381  43.083   2.361  13.325
 7973W        W74382  39.355  19.964  13.232
 7974W        W74383  43.856   4.709  14.497
 7975W        W74384   2.786   7.701   2.900
 7976W        W74385   8.223  39.671   4.750
 7977W        W74386  22.340   4.230  14.762
 7978W        W74387  43.588  42.475   1.856
 7979W        W74388  15.633  12.245   0.342
 7980W        W74389  43.676  34.384  14.676
 7981W        W74390  26.455  13.624   0.387
 7982W        W74391   7.700  37.852   1.656
 7983W        W74392  44.372  19.591   3.867
 7984W        W74393   1.037  28.320   1.785
 7985W        W74394  39.455  26.429  13.486
 7986W        W74395   8.144   7.805  10.655
 7987W        W74396   5.302   9.021   4.841
 7988W        W74397  37.272  23.994  12.997
 7989W        W74398   1.687  43.883   1.781
 7990W        W74399  12.323  15.359  10.950
 7991W        W74400   2.409  38.934   3.604
 7992W        W74401   9.056   1.768   3.246
 7993W        W74402  36.826  41.532  14.950
 7994W        W74403   7.637  38.865  11.563
 7995W        W74404  40.799  18.530  12.966
 7996W        W74405  16.932  44.364   0.853
 7997W        W74406  40.756  42.449  14.278
 7998W        W74407  11.382   2.038   1.424
 7999W        W74408  26.171   7.081   4.118
 8000W        W74409  27.153   3.596  14.290
 8001W        W74410   5.158  14.047   2.158
 8002W        W74411  22.136  34.827  13.605
 8003W        W74412  25.774  27.941   4.629
 8004W        W74413  25.476   4.267  10.850
 8005W        W74414  24.011  18.330  14.102
 8006W        W74415   0.907  26.899   4.145
 8007W        W74416  43.254  19.068  13.944
 8008W        W74417  39.345  30.701   2.791
 8009W        W74418  25.022  35.813  10.704
 8010W        W74419  35.480  28.216  14.405
 8011W        W74420   2.025  29.162  12.932
 8012W        W74421  21.845  39.961   4.872
 8013W        W74422  36.051  17.796  10.261
 8014W        W74423  10.202  10.179  13.307
 8015W        W74424   6.296  35.081  11.731
 8016W        W74425  40.328  34.419   3.878
 8017W        W74426  29.649  25.189  12.390
 8018W        W74427  29.381  27.069   4.705
 8019W        W74428  27.399  43.927   4.093
 8020W        W74429  10.689  32.838   0.423
 8021W        W74430  24.210   5.034  14.959
 8022W        W74431  27.979   1.526  12.094
 8023W        W74432  27.456   9.223   4.070
 8024W        W74433  27.419  16.672   4.188
 8025W        W74434   1.295  22.566   0.779
 8026W        W74435   2.759   4.719   2.397
 8027W        W74436  23.907  39.082   2.201
 8028W        W74437  14.944   5.444  10.798
 8029W        W74438  10.244  34.809  11.503
 8030W        W74439  43.506  33.443   3.425
 8031W        W74440   5.955  44.932  14.878
 8032W        W74441  14.833  23.911   0.664
 8033W        W74442  26.215  30.438  11.568
 8034W        W74443  18.807  25.051  13.459
 8035W        W74444   0.311  43.097   5.321
 8036W        W74445  24.860   3.338  10.886
 8037W        W74446  10.286  40.615   0.759
 8038W        W74447  36.636  11.667  14.450
 8039W        W74448  33.011  36.024   4.959
 8040W        W74449  42.923  17.702   4.558
 8041W        W74450  44.346   0.966  11.116
 8042W        W74451  31.944  23.098  12.620
 8043W        W74452  31.144  40.703   1.507
 8044W        W74453  20.800   8.960   2.380
 8045W        W74454  16.291   0.936  14.124
 8046W        W74455  29.526  25.164   3.748
 8047W        W74456  41.842  20.545  10.860
 8048W        W74457  28.033  12.199   3.727
 8049W        W74458  23.734  33.446  10.636
 8050W        W74459   7.525  44.729  12.985
 8051W        W74460  44.447   2.810  10.739
 8052W        W74461  11.351   1.612   3.600
 8053W        W74462  33.499  31.133  14.291
 8054W        W74463  10.161   6.677  14.068
 8055W        W74464   4.292  32.827  11.994
 8056W        W74465  23.829  30.129   0.243
 8057W        W74466  21.444  31.402  11.921
 8058W        W74467   7.383  44.413  12.581
 8059W        W74468  28.154  44.442  13.275
 8060W        W74469   4.078  18.025  13.781
 8061W        W74470  18.824  26.186  14.032
 8062W        W74471  26.105  29.540   3.522
 8063W        W74472  29.929   0.227   4.384
 8064W        W74473  30.130   3.365   3.071
 8065W        W74474  15.305   7.953   4.088
 8066W        W74475  27.014  24.788   0.723
 8067W        W74476  21.673  32.233  12.502
 8068W        W74477  17.090  42.009  14.860
 8069W        W74478  38.232  26.028  14.505
 8070W        W74479  31.407   3.057  11.641
 8071W        W74480  29.014  24.197   2.981
 8072W        W74481  21.759   2.315  12.072
 8073W        W74482  14.039  40.851   2.799
 8074W        W74483  42.029  11.641  12.018
 8075W        W74484  24.262  34.812  14.226
 8076W        W74485   8.446  38.471  10.700
 8077W        W74486  14.771  13.817   4.260
 8078W        W74487  33.034  11.064   4.092
 8079W        W74488  17.737  16.728   1.727
 8080W        W74489  36.588  32.460   1.252
 8081W        W74490  13.140  37.284   5.501
 8082W        W74491  13.788  27.450   2.227
 8083W        W74492  15.951  24.711  13.368
 8084W        W74493  14.331  17.109   3.322
 8085W        W74494  16.782  31.885   0.846
 8086W        W74495   0.886   7.474   4.523
 8087W        W74496   2.041  41.764  13.246
 8088W        W74497  38.936  34.797   1.698
 8089W        W74498  24.950  14.343  11.202
 8090W        W74499  12.294  10.085  10.491
 8091W        W74500  38.263  18.498  14.041
 8092W        W74501  14.914   2.023   4.526
 8093W        W74502  43.889  23.430  12.011
 8094W        W74503  21.202   9.733  12.000
 8095W        W74504   2.599  23.779   1.783
 8096W        W74505  30.537  41.597  14.444
 8097W        W74506  26.622  36.665  13.834
 8098W        W74507   8.060  36.398   1.900
 8099W        W74508  18.196  43.306  13.173
 8100W        W74509  10.785  19.019  10.720
 8101W        W74510  34.564  43.397  13.891
 8102W        W74511  42.543  21.292  12.095
 8103W        W74512  30.287  24.386  12.922
 8104W        W74513  42.709  20.766  10.460
 8105W        W74514  21.075  12.656   1.743
 8106W        W74515  43.480  13.277   3.646
 8107W        W74516  25.633  40.984   2.208
 8108W        W74517  32.587  11.605  13.491
 8109W        W74518  17.394   2.953  14.892
 8110W        W74519  36.132  29.480  12.421
 8111W        W74520  27.180  28.318  12.485
 8112W        W74521  34.865  33.100  10.714
 8113W        W74522   6.760  27.480   2.132
 8114W        W74523  29.223  10.335  14.360
 8115W        W74524   3.505  32.004   0.369
 8116W        W74525  26.663   4.894  13.142
 8117W        W74526  20.184  31.856   1.473
 8118W        W74527  17.282   4.370   1.302
 8119W        W74528  32.943   1.980  11.422
 8120W        W74529  33.520  14.431   4.502
 8121W        W74530   3.502   9.338  13.495
 8122W        W74531  31.915  41.753  11.573
 8123W        W74532  19.865  42.999   2.730
 8124W        W74533   8.101  17.706   1.175
 8125W        W74534  37.401  44.524   9.988
 8126W        W74535  36.349   3.289   3.632
 8127W        W74536  34.450  26.388  14.966
 8128W        W74537   2.977  26.633  13.451
 8129W        W74538  25.542  14.227   2.580
 8130W        W74539  43.612  27.458  10.632
 8131W        W74540  25.668   3.918  10.510
 8132W        W74541  30.527  33.751   4.344
 8133W        W74542   4.458  22.028   1.357
 8134W        W74543  42.600  20.972  14.766
 8135W        W74544  16.790  16.538  12.046
 8136W        W74545   0.746   7.471  11.507
 8137W        W74546  29.928  22.487   2.795
 8138W        W74547  22.614  38.492   4.125
 8139W        W74548  40.565  21.515   0.892
 8140W        W74549  35.802  29.354   4.531
 8141W        W74550  39.740   4.759  10.831
 8142W        W74551  19.240   5.228  12.516
 8143W        W74552  41.454  32.856   2.716
 8144W        W74553   8.666  12.381   1.802
 8145W        W74554  27.177   7.954  14.016
 8146W        W74555   8.835   7.357   0.653
 8147W        W74556   3.285  40.401   4.035
 8148W        W74557  29.292  34.394  11.282
 8149W        W74558   5.742  38.955   0.838
 8150W        W74559  44.513   9.489   1.351
 8151W        W74560  36.500  39.802   1.405
 8152W        W74561  18.428  32.439   4.543
 8153W        W74562   9.449  26.458   0.471
 8154W        W74563  14.699   1.009   1.466
 8155W        W74564   9.758   6.827  12.768
 8156W        W74565  36.486   0.316  11.940
 8157W        W74566   2.733  42.822  12.974
 8158W        W74567  13.974  41.232  10.838
 8159W        W74568  31.500  28.578  11.602
 8160W        W74569  31.962  13.108  11.509
 8161W        W74570  33.843  24.640   3.582
 8162W        W74571  41.976  26.795  12.613
 8163W        W74572  21.299  15.306   2.744
 8164W        W74573   0.717  43.794  11.300
 8165W        W74574  32.296  14.421  12.963
 8166W        W74575  40.381  36.927  14.929
 8167W        W74576  35.634   8.851  13.541
 8168W        W74577  18.258  24.621   3.743
 8169W        W74578  19.316  13.352  11.595
 8170W        W74579   1.267  42.265   3.211
 8171W        W74580   4.767  34.779   0.866
 8172W        W74581  30.409   9.388  14.648
 8173W        W74582  33.749  15.530  11.626
 8174W        W74583  13.490  39.141  11.150
 8175W        W74584   9.723   6.868   3.031
 8176W        W74585   9.172  37.549  13.387
 8177W        W74586   8.240   1.264   0.714
 8178W        W74587  43.057  23.776  11.511
 8179W        W74588  11.166   2.265   4.087
 8180W        W74589  21.351  30.066  13.515
 8181W        W74590  40.564  10.486  10.924
 8182W        W74591  41.467  16.272  10.917
 8183W        W74592  31.147  42.015  11.990
 8184W        W74593  37.251   5.660  12.578
 8185W        W74594  10.144  31.128   3.529
 8186W        W74595  17.910  37.524   0.526
 8187W        W74596  44.813  22.173   3.673
 8188W        W74597  19.695  30.613  11.993
 8189W        W74598  14.120   1.531  12.007
 8190W        W74599  25.846  38.800  13.929
 8191W        W74600  24.705  24.467   3.614
 8192W        W74601  12.581  20.473   4.082
 8193W        W74602   5.751   1.875   0.085
 8194W        W74603  17.016   6.121  14.929
 8195W        W74604  23.258  10.620  11.151
 8196W        W74605  15.801  21.663  13.969
 8197W        W74606  25.172   8.293   5.040
 8198W        W74607  23.088   0.803  10.469
 8199W        W74608  33.414  33.141  11.657
 8200W        W74609  30.657  10.118  13.957
 8201W        W74610   2.489   4.251   2.324
 8202W        W74611  23.168  16.207  11.510
 8203W        W74612  37.362  29.551   3.149
 8204W        W74613  32.851  17.894  11.194
 8205W        W74614  11.986  25.490   1.848
 8206W        W74615  33.219   4.672   4.661
 8207W        W74616  11.684  30.437  11.151
 8208W        W74617  26.056  12.581   4.127
 8209W        W74618   7.770  43.304   1.369
 8210W        W74619   4.172  18.984   4.070
 8211W        W74620  10.146  36.354   2.853
 8212W        W74621  26.789  39.816   2.812
 8213W        W74622  24.622  16.183   4.117
 8214W        W74623  34.576   7.567  12.898
 8215W        W74624  33.921  43.491  14.762
 8216W        W74625  32.626  13.245   4.554
 8217W        W74626  14.137   8.544   0.274
 8218W        W74627  30.636  38.901  13.460
 8219W        W74628  27.161  20.768  12.868
 8220W        W74629  31.932  34.693   5.136
 8221W        W74630  38.684  36.643   0.975
 8222W        W74631   1.264  36.611  11.621
 8223W        W74632  13.340  26.491   3.678
 8224W        W74633   7.961  28.061   9.634
 8225W        W74634  39.118  43.987  11.863
 8226W        W74635   0.932  16.340   0.321
 8227W        W74636  43.577  27.163  13.854
 8228W        W74637  43.334   8.143   1.696
 8229W        W74638   7.143  19.202   0.931
 8230W        W74639   5.148  39.512   1.679
 8231W        W74640  28.463   1.450   3.701
 8232W        W74641  43.008  24.727  10.743
 8233W        W74642  41.842  39.974  14.006
 8234W        W74643  31.619  33.822  11.512
 8235W        W74644   4.915  44.013   3.249
 8236W        W74645  26.965  26.585  12.204
 8237W        W74646  16.565  22.634  11.231
 8238W        W74647   7.323  25.938   2.773
 8239W        W74648  12.161   3.887  10.724
 8240W        W74649  18.263  34.419   0.908
 8241W        W74650  23.114  22.715  12.998
 8242W        W74651  29.697  26.919  11.565
 8243W        W74652   6.991  42.083   3.727
 8244W        W74653  42.442  20.221  11.127
 8245W        W74654   5.192   7.411  11.172
 8246W        W74655  21.645   1.553  13.435
 8247W        W74656  34.089   2.189  13.925
 8248W        W74657  11.736  14.421   2.417
 8249W        W74658  26.640   0.942  12.329
 8250W        W74659  12.809  25.681   0.577
 8251W        W74660  19.445  21.564   0.282
 8252W        W74661  32.581  13.357   1.416
 8253W        W74662  13.337  23.237  14.649
 8254W        W74663  21.548  43.927  11.518
 8255W        W74664  35.386  19.850  11.059
 8256W        W74665   1.778   6.199  14.045
 8257W        W74666  17.665  39.947  11.218
 8258W        W74667  32.568   7.735  14.714
 8259W        W74668  44.454  26.040  13.862
 8260W        W74669   0.243  14.903   3.616
 8261W        W74670  33.793  20.589  10.742
 8262W        W74671  11.843   3.523   2.917
 8263W        W74672  10.056  27.248   0.806
 8264W        W74673  42.593   1.439   2.924
 8265W        W74674  22.532  23.105   1.968
 8266W        W74675  33.838  30.425  11.069
 8267W        W74676  40.489  27.277   2.619
 8268W        W74677   0.597   0.541  11.188
 8269W        W74678  23.280  19.658   9.917
 8270W        W74679  44.719  21.310   3.083
 8271W        W74680  22.421  39.023   0.992
 8272W        W74681   5.839  22.325  10.140
 8273W        W74682  28.758  34.911  13.553
 8274W        W74683  38.037   3.893  11.322
 8275W        W74684  22.790  23.954   4.047
 8276W        W74685  12.137  17.133   1.818
 8277W        W74686  19.262  28.510   4.234
 8278W        W74687  27.479   5.860  10.195
 8279W        W74688   9.916  36.394   0.234
 8280W        W74689  24.936  33.180   1.119
 8281W        W74690  33.204  38.040   0.889
 8282W        W74691  43.917  27.114   3.843
 8283W        W74692  27.118  23.789   0.477
 8284W        W74693   4.928  29.095  13.696
 8285W        W74694   4.095  16.367  11.665
 8286W        W74695  27.025  35.911  11.387
 8287W        W74696   3.832   4.957   4.570
 8288W        W74697  38.059  41.750   1.185
 8289W        W74698  12.294  26.450   2.767
 8290W        W74699  27.016   1.432  11.283
 8291W        W74700  18.737  43.801   3.433
 8292W        W74701   9.876  31.485  13.483
 8293W        W74702  25.674  11.275   0.943
 8294W        W74703   4.886  28.124  12.045
 8295W        W74704   9.164  23.542   0.129
 8296W        W74705  12.401  14.422  10.601
 8297W        W74706   9.113  26.689   2.343
 8298W        W74707  11.905  42.549   0.782
 8299W        W74708  31.906  27.430  12.433
 8300W        W74709  18.478   1.250  11.177
 8301W        W74710   2.806   8.933   2.783
 8302W        W74711  34.124   0.308  14.423
 8303W        W74712  29.198  20.177  12.952
 8304W        W74713  39.084  36.496   1.281
 8305W        W74714  42.088  37.512  13.324
 8306W        W74715  13.143  37.909  14.023
 8307W        W74716  37.784   2.533  10.784
 8308W        W74717  37.117  11.827  14.960
 8309W        W74718  29.957  27.940  10.730
 8310W        W74719  32.135  32.940   1.222
 8311W        W74720  15.761  42.016   1.354
 8312W        W74721  43.145   1.331  12.271
 8313W        W74722  15.252  26.484   4.969
 8314W        W74723  10.329  27.267   3.515
 8315W        W74724  26.381  22.974  13.804
 8316W        W74725   9.892  20.684  12.658
 8317W        W74726  24.358   8.926   1.365
 8318W        W74727  23.236  21.491  13.369
 8319W        W74728  43.389  44.854  14.388
 8320W        W74729  33.048  21.784  12.420
 8321W        W74730  42.724  40.021  10.165
 8322W        W74731  12.240   4.505  14.975
 8323W        W74732  13.272  15.186  12.057
 8324W        W74733  34.986   7.821   1.040
 8325W        W74734  33.893   1.847   3.259
 8326W        W74735  37.061  17.829  14.292
 8327W        W74736  32.639  38.947  10.188
 8328W        W74737   9.227  31.075   4.481
 8329W        W74738  13.369   4.081   4.915
 8330W        W74739  17.997  22.544  12.611
 8331W        W74740  31.579  42.744  11.252
 8332W        W74741  40.413  30.668  14.398
 8333W        W74742   9.825  17.516   0.959
 8334W        W74743  14.866  27.016   1.904
 8335W        W74744   4.373  12.240   2.560
 8336W        W74745  28.118   7.579   0.934
 8337W        W74746  28.481  39.552   3.565
 8338W        W74747  42.668  24.662  14.844
 8339W        W74748  27.664  32.907   3.306
 8340W        W74749  32.030  11.228   3.967
 8341W        W74750  24.327   3.010   4.884
 8342W        W74751  17.133  34.736   0.014
 8343W        W74752  19.692   6.354   1.209
 8344W        W74753  29.544  25.536   2.058
 8345W        W74754   4.691  23.359   4.519
 8346W        W74755   2.158  44.911   1.447
 8347W        W74756  24.976  18.985   0.477
 8348W        W74757  19.101   5.415  13.000
 8349W        W74758  15.573  18.688   0.934
 8350W        W74759  28.131   0.211   1.296
 8351W        W74760  28.488  30.288   1.404
 8352W        W74761  13.436  37.476  14.241
 8353W        W74762  13.472  25.632   1.981
 8354W        W74763  30.543  23.493  11.202
 8355W        W74764  26.991   4.341  10.686
 8356W        W74765   4.787  37.173  10.986
 8357W        W74766   7.599  38.191  13.112
 8358W        W74767  24.040  34.508  14.968
 8359W        W74768  15.774  19.359   3.930
 8360W        W74769  32.062   1.049  11.654
 8361W        W74770  14.091   4.504  11.866
 8362W        W74771  43.744   2.732   2.268
 8363W        W74772  36.891  19.190  14.367
 8364W        W74773   7.334  38.772   1.905
 8365W        W74774   4.272  19.975  13.459
 8366W        W74775  43.780  19.852  11.779
 8367W        W74776  26.717  24.521   1.064
 8368W        W74777  19.607  10.942  11.967
 8369W        W74778  37.389   6.473  13.918
 8370W        W74779  17.264  37.298  14.906
 8371W        W74780  40.995   1.298  14.043
 8372W        W74781  21.100  26.687   0.294
 8373W        W74782  31.442   3.692  12.470
 8374W        W74783  14.094  27.164  12.868
 8375W        W74784   8.644  22.900  12.083
 8376W        W74785  42.565  17.218   4.018
 8377W        W74786   7.290   5.183   3.878
 8378W        W74787  41.267  12.248  14.063
 8379W        W74788   1.244  28.822  14.051
 8380W        W74789  13.867   7.212  11.267
 8381W        W74790  28.495  20.211   1.772
 8382W        W74791  26.706  19.003   1.157
 8383W        W74792   5.616   2.934   3.720
 8384W        W74793  22.007   2.865   1.963
 8385W        W74794  41.403   1.528  14.889
 8386W        W74795  15.915  37.913  10.291
 8387W        W74796  24.672   3.223  12.943
 8388W        W74797  12.184  23.148   9.852
 8389W        W74798   9.338  21.637  12.308
 8390W        W74799  35.391   6.424   4.406
 8391W        W74800   1.284   0.760   0.797
 8392W        W74801  43.247  11.857   1.223
 8393W        W74802  34.536  27.224   2.726
 8394W        W74803   9.958   5.255  14.966
 8395W        W74804  30.922  35.811  13.625
 8396W        W74805   5.432  25.314   2.735
 8397W        W74806  15.951  27.085   9.903
 8398W        W74807  32.710  33.587  14.316
 8399W        W74808  10.233   0.538   4.010
 8400W        W74809  24.997  29.964   2.773
 8401W        W74810  18.033  29.895   0.448
 8402W        W74811  23.353  14.874   1.923
 8403W        W74812  33.815  18.507  12.971
 8404W        W74813  40.342  34.265  14.468
 8405W        W74814  18.309  23.559  14.881
 8406W        W74815   1.461   3.607   4.079
 8407W        W74816  35.016  29.720   0.270
 8408W        W74817   6.514  28.190   0.572
 8409W        W74818   5.362  14.658   1.401
 8410W        W74819  19.425  14.725  11.822
 8411W        W74820  23.807  17.806   2.216
 8412W        W74821   5.268  28.068   0.009
 8413W        W74822  25.615  14.351   0.744
 8414W        W74823  28.400  41.379   4.665
 8415W        W74824  41.288  17.284   3.608
 8416W        W74825  44.262  16.661  11.575
 8417W        W74826  25.675  12.629  12.442
 8418W        W74827  40.138  11.827   1.577
 8419W        W74828  43.089   7.678   5.495
 8420W        W74829   7.493  36.324   2.735
 8421W        W74830   3.894  20.143   2.446
 8422W        W74831   4.944   7.282   3.290
 8423W        W74832   6.765  42.620  10.454
 8424W        W74833  31.908  13.303   3.613
 8425W        W74834  13.634  14.537  11.969
 8426W        W74835  27.020  42.897   0.834
 8427W        W74836  37.682  27.547  13.393
 8428W        W74837  24.137  28.881  13.132
 8429W        W74838  18.305  16.144   4.573
 8430W        W74839  27.844   8.885   0.139
 8431W        W74840  34.986  18.497  14.318
 8432W        W74841  23.193  37.492  13.000
 8433W        W74842   7.489  31.873  14.027
 8434W        W74843  24.531  36.554  11.118
 8435W        W74844  34.043   5.875  13.087
 8436W        W74845  36.182   3.039   4.132
 8437W        W74846   7.505  12.461  11.948
 8438W        W74847  38.817   1.306  14.731
 8439W        W74848  19.589  18.328  14.775
 8440W        W74849  32.493   7.248  14.488
 8441W        W74850  14.597  18.774   4.440
 8442W        W74851   1.803  26.472  11.655
 8443W        W74852  34.857  29.843   2.334
 8444W        W74853   0.002  36.823   1.422
 8445W        W74854  27.543  16.636   3.244
 8446W        W74855  39.108  28.463  10.415
 8447W        W74856  37.083  24.637   2.637
 8448W        W74857  34.385   5.677   3.702
 8449W        W74858  27.970  44.959  13.396
 8450W        W74859  37.444  24.443  14.525
 8451W        W74860   0.369   8.858  12.548
 8452W        W74861  27.096  26.213  11.432
 8453W        W74862  40.994  25.046   4.229
 8454W        W74863   4.692  22.599   0.464
 8455W        W74864  30.521  28.198   4.642
 8456W        W74865   1.772  28.868  11.586
 8457W        W74866  12.651   6.461  11.670
 8458W        W74867  28.116   6.972  13.595
 8459W        W74868  34.946  21.773  11.109
 8460W        W74869  42.325  43.934  14.996
 8461W        W74870   1.665  40.370  12.508
 8462W        W74871  30.177  26.790  11.075
 8463W        W74872  17.192   9.406  10.407
 8464W        W74873  16.184  25.728  13.919
 8465W        W74874  13.597  12.687   4.845
 8466W        W74875  35.771  12.240  12.611
 8467W        W74876  41.891   4.091   1.818
 8468W        W74877  26.175   2.879   1.065
 8469W        W74878  34.047  37.933   2.271
 8470W        W74879  14.610  10.704   1.624
 8471W        W74880   7.183  39.246   0.549
 8472W        W74881  42.411  12.596  13.909
 8473W        W74882  36.913  21.284  14.344
 8474W        W74883  32.623  38.271  11.086
 8475W        W74884   0.214   8.562  13.931
 8476W        W74885  20.627  37.195  14.701
 8477W        W74886  44.460  34.175   3.179
 8478W        W74887  11.087  29.392  14.819
 8479W        W74888  11.859  17.553   3.928
 8480W        W74889   8.305   4.452  11.127
 8481W        W74890  30.318  29.159   0.743
 8482W        W74891  11.827   8.240  14.976
 8483W        W74892  10.934  29.184  14.355
 8484W        W74893  25.127  23.249   5.403
 8485W        W74894  30.495  42.087   3.154
 8486W        W74895  34.866  21.023   3.699
 8487W        W74896  24.816  29.054  11.156
 8488W        W74897  34.626  11.615  10.589
 8489W        W74898  31.699  43.997  13.421
 8490W        W74899  27.431  41.495   3.825
 8491W        W74900  26.181  10.769   1.422
 8492W        W74901  12.223  28.137  12.732
 8493W        W74902  31.562   8.535  12.899
 8494W        W74903  43.430  35.245   3.293
 8495W        W74904  21.326  33.032   1.009
 8496W        W74905  34.575  25.903  14.035
 8497W        W74906  37.937  11.707   3.249
 8498W        W74907   7.027  34.924  11.123
 8499W        W74908  34.322  10.229   1.273
 8500W        W74909   4.911  33.119  13.505
 8501W        W74910  20.733  44.009  12.982
 8502W        W74911  11.676   7.182   3.139
 8503W        W74912  16.353  34.838  13.588
 8504W        W74913  13.189   2.926   0.036
 8505W        W74914  14.873  23.053  13.942
 8506W        W74915  13.857  40.328  13.849
 8507W        W74916  41.953  18.319  14.245
 8508W        W74917  20.946  26.990   4.292
 8509W        W74918  21.146  11.757   2.169
 8510W        W74919  10.253  20.046  14.556
 8511W        W74920   7.828   5.730  12.280
 8512W        W74921  34.461  42.529  13.738
 8513W        W74922  39.109  23.805  11.969
 8514W        W74923  14.907  29.505   1.335
 8515W        W74924  25.675  19.959  11.544
 8516W        W74925  10.555  28.138   3.615
 8517W        W74926  38.304   2.872  14.101
 8518W        W74927   8.196  33.611   1.341
 8519W        W74928  40.281   9.183   4.291
 8520W        W74929  17.162  33.244   4.182
 8521W        W74930   1.784  29.412  12.436
 8522W        W74931  28.411  37.282  13.065
 8523W        W74932  12.393  41.597  11.090
 8524W        W74933  36.092  36.934  11.665
 8525W        W74934  28.391  11.636   2.411
 8526W        W74935  28.049  23.075  14.531
 8527W        W74936  33.978  28.532   2.210
 8528W        W74937  13.173  27.181  13.380
 8529W        W74938  26.116  19.032  12.220
 8530W        W74939  10.366  39.725  14.857
 8531W        W74940   6.727  34.483  11.127
 8532W        W74941   7.434  39.054  11.121
 8533W        W74942   7.317  41.900  12.026
 8534W        W74943  27.662  17.149   4.441
 8535W        W74944  38.415  17.155   0.332
 8536W        W74945  33.579  29.243   3.639
 8537W        W74946  11.834   2.892   1.293
 8538W        W74947  31.915  19.783   0.975
 8539W        W74948  29.569   2.208  11.483
 8540W        W74949  40.245   4.754  11.709
 8541W        W74950  42.909   8.780  12.536
 8542W        W74951  33.103  39.049  14.523
 8543W        W74952   5.926   3.679   2.824
 8544W        W74953  37.182   8.859   2.964
 8545W        W74954  43.985  27.048   2.799
 8546W        W74955  15.737   6.620  14.592
 8547W        W74956   4.394  35.600   2.004
 8548W        W74957  29.735  30.628   4.061
 8549W        W74958  22.229  26.503   2.717
 8550W        W74959  30.390  39.304   0.781
 8551W        W74960   2.911  27.376  14.798
 8552W        W74961   7.605  40.998  11.134
 8553W        W74962  22.599  12.860  10.857
 8554W        W74963  28.998  17.603   1.960
 8555W        W74964  26.490   4.650  11.529
 8556W        W74965  31.296  20.236   0.229
 8557W        W74966   9.560  31.205  12.030
 8558W        W74967  15.184  38.333  13.004
 8559W        W74968  27.572  31.910  11.600
 8560W        W74969  21.653  13.821   2.185
 8561W        W74970  30.455  12.774   2.366
 8562W        W74971  20.120   8.672   3.359
 8563W        W74972  35.484   9.158   2.862
 8564W        W74973   8.736  35.829  13.843
 8565W        W74974   8.069  23.723  12.887
 8566W        W74975  39.447  25.540  11.462
 8567W        W74976  40.489   1.259  13.873
 8568W        W74977  41.683   0.352  13.432
 8569W        W74978  32.143  33.195   3.802
 8570W        W74979  28.737  39.999   4.022
 8571W        W74980  26.142  36.491  14.075
 8572W        W74981   6.986  28.759  10.166
 8573W        W74982  38.906   6.379   0.664
 8574W        W74983  26.621   2.085   4.235
 8575W        W74984   2.240  30.901   0.764
 8576W        W74985  26.924   5.694   3.683
 8577W        W74986  37.111   9.691  12.538
 8578W        W74987  14.910  36.910   2.737
 8579W        W74988  19.822  42.904  13.076
 8580W        W74989  33.022  33.316  12.970
 8581W        W74990   7.448   9.364  12.885
 8582W        W74991   3.703  44.517   0.033
 8583W        W74992  11.448  34.464  12.059
 8584W        W74993   0.699   6.199  14.002
 8585W        W74994   5.169   3.067   1.504
 8586W        W74995  38.160  31.037   0.231
 8587W        W74996   0.987  34.398  14.241
 8588W        W74997  40.753  27.680   2.800
 8589W        W74998  12.198  22.067   4.408
 8590W        W74999  27.241  34.997   2.388
 8591W        W75000  27.988  10.562  13.403
 8592W        W75001  20.986  17.636   2.690
 8593W        W75002  33.127  35.422   2.643
 8594W        W75003  31.307   6.918  13.618
 8595W        W75004  27.862   2.880  13.208
 8596W        W75005   9.404  11.058   3.419
 8597W        W75006  33.185  32.324   2.902
 8598W        W75007   1.505  42.400   2.775
 8599W        W75008  35.010  13.515   1.981
 8600W        W75009  25.626  18.978   2.911
 8601W        W75010  28.737   7.275  13.877
 8602W        W75011  41.780  33.848  11.469
 8603W        W75012   7.880  32.104  12.996
 8604W        W75013  29.476  12.580  12.103
 8605W        W75014   3.744  44.457  13.648
 8606W        W75015   2.405  40.720  11.203
 8607W        W75016  30.110  11.001   3.223
 8608W        W75017  35.918  23.200  10.998
 8609W        W75018  18.303  41.669  12.179
 8610W        W75019  33.945  37.613   0.253
 8611W        W75020   0.506   5.195   0.456
 8612W        W75021  42.978   9.744  14.357
 8613W        W75022  34.534   8.118   1.576
 8614W        W75023  32.443   5.612   0.802
 8615W        W75024  33.556  35.872  12.025
 8616W        W75025  16.465   9.327   1.790
 8617W        W75026   2.802   2.932  11.698
 8618W        W75027   6.656  32.735   4.018
 8619W        W75028  28.717  30.695  13.340
 8620W        W75029  18.769  21.146   0.343
 8621W        W75030  25.256  32.921   4.569
 8622W        W75031  25.490   4.814   4.713
 8623W        W75032  16.432  23.558  11.544
 8624W        W75033   1.962  23.628   4.324
 8625W        W75034   2.453  16.251  14.397
 8626W        W75035  35.447   1.028  12.778
 8627W        W75036  27.665  38.522  11.569
 8628W        W75037  29.949  39.659   0.042
 8629W        W75038   4.694  29.933   0.822
 8630W        W75039  38.380  31.389  12.034
 8631W        W75040  22.677  42.001  12.588
 8632W        W75041  15.979  31.031  14.549
 8633W        W75042  34.406  43.005   0.308
 8634W        W75043  33.297   6.167   3.814
 8635W        W75044  21.981  10.187  13.033
 8636W        W75045  18.756  13.847   4.522
 8637W        W75046  32.593  31.359   0.569
 8638W        W75047  19.691   5.878   3.327
 8639W        W75048  43.906  30.641   3.214
 8640W        W75049   5.850  26.745  14.426
 8641W        W75050  19.678  32.930  10.604
 8642W        W75051  30.155  26.809   3.684
 8643W        W75052   6.935  18.765   1.142
 8644W        W75053  20.108  14.180   4.936
 8645W        W75054  23.969  36.037  12.158
 8646W        W75055   2.428  17.962   4.089
 8647W        W75056  41.326  12.210   1.510
 8648W        W75057   7.777  18.174   0.389
 8649W        W75058  22.778  23.088  12.982
 8650W        W75059  31.892  14.824  12.068
 8651W        W75060  40.592  30.466  13.962
 8652W        W75061   3.136  17.144   1.820
 8653W        W75062  15.720  30.980   1.597
 8654W        W75063  14.583   5.424  13.096
 8655W        W75064  28.530  29.515   1.889
 8656W        W75065  33.012  29.426   2.460
 8657W        W75066  16.356  27.939   2.263
 8658W        W75067  43.757  10.199   1.449
 8659W        W75068  17.547  44.977  12.590
 8660W        W75069  29.406  11.707   4.292
 8661W        W75070  35.628  21.720   2.283
 8662W        W75071   4.469  12.704   0.847
 8663W        W75072   4.208  26.971  10.057
 8664W        W75073  22.084  18.931   3.656
 8665W        W75074  27.124   5.200  12.403
 8666W        W75075   2.835  15.318   0.319
 8667W        W75076  16.189   3.267  14.499
 8668W        W75077  24.132  23.477  11.540
 8669W        W75078   6.691   7.951  13.380
 8670W        W75079  33.126   3.302  11.231
 8671W        W75080   8.906   2.837   4.122
 8672W        W75081  10.338   8.633  14.074
 8673W        W75082  17.126  12.171   2.711
 8674W        W75083   3.005  35.596   0.851
 8675W        W75084  24.512  40.753   0.302
 8676W        W75085   1.287  20.288   3.238
 8677W        W75086   6.387  42.822  12.368
 8678W        W75087  10.799  34.476   3.805
 8679W        W75088  33.737   6.395   2.017
 8680W        W75089  17.603  38.494   2.232
 8681W        W75090   3.454  23.219  13.726
 8682W        W75091   3.493  38.289   0.740
 8683W        W75092  31.956  16.638   2.288
 8684W        W75093  43.832  34.373   1.535
 8685W        W75094  37.009  29.999  12.234
 8686W        W75095  15.102  31.828   2.396
 8687W        W75096   8.343  12.253  11.206
 8688W        W75097  29.673  32.118  11.240
 8689W        W75098  43.811  23.492  10.440
 8690W        W75099  18.118  29.487  14.704
 8691W        W75100   3.262  28.213   1.367
 8692W        W75101  27.922  25.185  12.054
 8693W        W75102  12.954  15.567  10.390
 8694W        W75103  42.884  17.431  11.539
 8695W        W75104  16.142  20.606  13.910
 8696W        W75105   7.414   1.864  12.475
 8697W        W75106  27.463   6.685  14.038
 8698W        W75107  28.793  38.353   1.877
 8699W        W75108  23.065  25.646   4.596
 8700W        W75109  21.783  32.059  13.446
 8701W        W75110  32.920   4.299  11.442
 8702W        W75111   6.736  42.058   2.864
 8703W        W75112  13.995  20.517   0.394
 8704W        W75113  21.582  28.134  14.045
 8705W        W75114   9.219   7.431  12.559
 8706W        W75115  32.065  26.011   3.234
 8707W        W75116  23.752  40.589   2.614
 8708W        W75117  37.265  39.823   2.747
 8709W        W75118  19.601   6.304   2.980
 8710W        W75119  44.483   9.214   0.908
 8711W        W75120   6.354  30.919  11.684
 8712W        W75121  42.705  36.125   3.547
 8713W        W75122   3.054  13.870  11.020
 8714W        W75123  41.350   1.740   1.629
 8715W        W75124  29.487  35.826  10.701
 8716W        W75125  31.590  26.202   3.225
 8717W        W75126  26.489  29.634  13.067
 8718W        W75127  15.523  41.247  13.888
 8719W        W75128  12.130  24.218   2.313
 8720W        W75129  22.940  35.094   1.761
 8721W        W75130  27.642  30.205   1.260
 8722W        W75131  13.874  10.835  12.907
 8723W        W75132   6.730  19.351  12.949
 8724W        W75133  42.026  11.834   1.744
 8725W        W75134  30.683   4.955  13.107
 8726W        W75135   8.710  44.131  11.563
 8727W        W75136  30.391  36.033  12.309
 8728W        W75137  38.926  34.517   1.237
 8729W        W75138  44.437   7.414  12.946
 8730W        W75139  34.060  32.146   1.229
 8731W        W75140   5.558   4.521   1.397
 8732W        W75141  18.834  30.841  11.613
 8733W        W75142  18.312  32.026  11.722
 8734W        W75143  12.074  11.751  10.639
 8735W        W75144   2.253  44.257  14.427
 8736W        W75145  20.108   5.929   0.542
 8737W        W75146  42.398  11.088  12.837
 8738W        W75147  42.189   0.939  11.639
 8739W        W75148  17.001   3.913   1.346
 8740W        W75149  27.464  40.913  14.712
 8741W        W75150  41.469   5.433  14.399
 8742W        W75151  38.905  39.522   2.406
 8743W        W75152  17.733  19.768  11.093
 8744W        W75153   1.345  33.888   2.959
 8745W        W75154   4.408   5.547  14.202
 8746W        W75155  22.732   5.419  12.621
 8747W        W75156  41.789  34.188  12.383
 8748W        W75157  14.397   1.932   3.718
 8749W        W75158   5.662   5.862   3.291
 8750W        W75159  18.201  32.355   3.715
 8751W        W75160  35.502  11.519   0.391
 8752W        W75161  15.194  16.011   4.929
 8753W        W75162   0.363  29.249  13.091
 8754W        W75163  43.583  16.814   0.251
 8755W        W75164  12.922  31.093  14.856
 8756W        W75165  14.838   1.137  10.193
 8757W        W75166  25.251   2.182   4.316
 8758W        W75167  35.093  44.168  10.577
 8759W        W75168   7.627   5.765  10.665
 8760W        W75169  15.633  35.911   2.669
 8761W        W75170  26.525  39.930   4.340
 8762W        W75171  30.602   9.905   1.584
 8763W        W75172  38.492  41.775  11.994
 8764W        W75173  37.654  30.893  12.158
 8765W        W75174  39.061   2.934   3.796
 8766W        W75175  40.954  12.214  14.803
 8767W        W75176  39.058  27.209  12.331
 8768W        W75177  38.616   4.009   2.177
 8769W        W75178   0.045  34.221   1.748
 8770W        W75179   9.566  43.462   9.818
 8771W        W75180  44.283   3.141   9.804
 8772W        W75181  16.350  39.518  11.651
 8773W        W75182  43.008  41.341   1.701
 8774W        W75183  14.791  21.197   2.800
 8775W        W75184  43.903   2.891  11.592
 8776W        W75185  24.169  11.341  14.967
 8777W        W75186  22.142   8.345  11.716
 8778W        W75187  42.393  41.736  14.919
 8779W        W75188  15.059  29.231   1.760
 8780W        W75189   8.728   5.352  11.989
 8781W        W75190  29.968  39.643  13.427
 8782W        W75191  21.161  26.642  12.098
 8783W        W75192   5.008  34.417  12.445
 8784W        W75193  44.292  37.350  10.972
 8785W        W75194   4.774  26.590   0.727
 8786W        W75195   1.845  19.591  14.864
 8787W        W75196  21.563  38.605   0.477
 8788W        W75197   8.476   2.852  11.440
 8789W        W75198   4.431  11.350   2.745
 8790W        W75199  40.521  15.647  11.963
 8791W        W75200   4.255  36.253  13.372
 8792W        W75201   7.427  16.348  13.371
 8793W        W75202   0.543  29.194   3.163
 8794W        W75203  31.846  26.350   2.776
 8795W        W75204   9.097   9.316  11.507
 8796W        W75205   0.329   1.897  13.966
 8797W        W75206  15.570   5.363  14.913
 8798W        W75207  29.219  22.653   2.351
 8799W        W75208   3.311  43.300  11.999
 8800W        W75209  18.875  36.322   1.336
 8801W        W75210   4.181  30.584   1.422
 8802W        W75211   3.164  27.681  12.148
 8803W        W75212  13.322  21.033  11.655
 8804W        W75213   5.391  17.838  12.815
 8805W        W75214  20.624  34.119  12.855
 8806W        W75215  28.449  33.821  14.058
 8807W        W75216  30.250  38.487   1.898
 8808W        W75217   1.842  37.908   0.339
 8809W        W75218  32.630  24.576  10.888
 8810W        W75219  16.200  11.354   4.600
 8811W        W75220  44.299  14.600   3.844
 8812W        W75221   0.041   3.191  14.979
 8813W        W75222  40.772   7.604  11.314
 8814W        W75223   8.856  23.920  14.605
 8815W        W75224  21.163   4.169  13.456
 8816W        W75225  12.885  24.414  11.512
 8817W        W75226  42.476  23.936   0.283
 8818W        W75227  13.054  11.250  13.162
 8819W        W75228  22.900   7.743   1.162
 8820W        W75229  43.205  37.450  10.737
 8821W        W75230   7.836  27.137  13.518
 8822W        W75231  17.994  29.158  13.839
 8823W        W75232  43.207  31.490  13.116
 8824W        W75233  11.244  16.979   4.865
 8825W        W75234   7.025  10.405  14.461
 8826W        W75235  34.947  36.614  10.460
 8827W        W75236   8.437  43.276  12.318
 8828W        W75237  19.658  39.282   2.930
 8829W        W75238  17.231  42.791  11.844
 8830W        W75239  41.736  32.938   3.236
 8831W        W75240  43.985  14.097  10.122
 8832W        W75241   6.072  22.458  14.950
 8833W        W75242  27.213  32.440   0.421
 8834W        W75243  16.110  14.782  13.681
 8835W        W75244  39.317  43.989  11.251
 8836W        W75245  13.466   4.223   4.031
 8837W        W75246   5.446  22.575   3.664
 8838W        W75247  36.111  41.979   1.874
 8839W        W75248  21.823   8.937   3.131
 8840W        W75249   3.475  19.332  10.440
 8841W        W75250  29.378  19.678   0.676
 8842W        W75251   5.356   3.839  13.533
 8843W        W75252   3.803   3.968  10.850
 8844W        W75253  30.853  20.672  13.107
 8845W        W75254  11.905  13.263   1.952
 8846W        W75255  33.822   9.923  11.479
 8847W        W75256  13.551  33.446   4.667
 8848W        W75257  14.750  38.077  12.427
 8849W        W75258  18.182  12.097   1.394
 8850W        W75259  15.665  29.494  14.494
 8851W        W75260  22.695  17.921   0.335
 8852W        W75261  16.203  23.971  10.677
 8853W        W75262  41.809  15.965   3.744
 8854W        W75263  39.718   2.388  11.615
 8855W        W75264  25.540  23.217   1.328
 8856W        W75265  18.047  32.065  13.578
 8857W        W75266   3.210  11.757  12.267
 8858W        W75267  36.936   7.966  14.481
 8859W        W75268  24.306  40.393  11.129
 8860W        W75269  41.579  22.033   1.283
 8861W        W75270  19.645  29.826   0.923
 8862W        W75271  39.596  40.028   1.336
 8863W        W75272   0.734  17.773  13.078
 8864W        W75273   1.450   3.674   1.262
 8865W        W75274   1.742  14.088   0.036
 8866W        W75275  13.602  23.248   0.446
 8867W        W75276  24.170  29.145  14.003
 8868W        W75277  27.539   3.594   9.874
 8869W        W75278  26.078  27.722   5.003
 8870W        W75279  16.402  43.319  12.665
 8871W        W75280  22.563  26.063   4.170
 8872W        W75281   7.235  15.520   3.341
 8873W        W75282  32.600  29.270   2.768
 8874W        W75283  31.507  16.358  10.434
 8875W        W75284  17.698  14.004   1.834
 8876W        W75285   8.591  20.246   2.358
 8877W        W75286   2.582   8.288  11.707
 8878W        W75287  18.295  17.729   3.843
 8879W        W75288  12.018   2.768   1.804
 8880W        W75289  40.283  41.954   3.256
 8881W        W75290  23.188   0.379  11.804
 8882W        W75291  23.890  26.495   4.058
 8883W        W75292  38.507  14.653  14.968
 8884W        W75293  30.976  19.976   4.014
 8885W        W75294  10.339  37.904  13.303
 8886W        W75295  23.789   5.679   3.299
 8887W        W75296  23.628   1.864  13.284
 8888W        W75297  31.556  21.965   3.149
 8889W        W75298  25.668   1.862  13.791
 8890W        W75299  29.912   5.776   1.745
 8891W        W75300  18.232  24.464  11.026
 8892W        W75301   1.941  34.449   0.008
 8893W        W75302  38.590  24.331   1.918
 8894W        W75303   1.982  39.802   0.064
 8895W        W75304  11.166  40.837  14.871
 8896W        W75305  20.609  44.794  13.817
 8897W        W75306  31.627  13.688  14.799
 8898W        W75307  33.863  33.832   2.542
 8899W        W75308  21.381  21.082  13.283
 8900W        W75309  10.097  16.289   3.159
 8901W        W75310   0.833  25.626   4.896
 8902W        W75311   2.670  16.805  13.545
 8903W        W75312  27.002  44.392  13.865
 8904W        W75313   1.290   4.037  14.904
 8905W        W75314   1.373  36.629   0.433
 8906W        W75315  25.710   8.876  14.402
 8907W        W75316  21.635  39.484   4.857
 8908W        W75317   4.594  12.099   0.858
 8909W        W75318  24.674  15.182   3.093
 8910W        W75319  38.579  24.002   0.037
 8911W        W75320  15.147  41.327  12.929
 8912W        W75321  15.284   9.170   2.390
 8913W        W75322   6.938  29.242   0.803
 8914W        W75323   1.438  11.580   1.420
 8915W        W75324   4.669  34.029  13.399
 8916W        W75325   3.592  42.569   4.142
 8917W        W75326   6.775  38.766  14.134
 8918W        W75327   3.341   5.141   4.700
 8919W        W75328  21.413   7.583   1.784
 8920W        W75329  14.043  12.181   3.174
 8921W        W75330   1.829  39.153  14.328
 8922W        W75331  26.501  27.464  13.890
 8923W        W75332   3.704  26.807   3.261
 8924W        W75333  21.401  23.625  13.850
 8925W        W75334  17.145  32.481   3.142
 8926W        W75335  30.115  24.993   5.002
 8927W        W75336  37.549  10.429   0.706
 8928W        W75337  39.797  29.967   1.326
 8929W        W75338  39.073  42.819   1.315
 8930W        W75339  18.116  31.859   3.766
 8931W        W75340  24.581  21.887  12.583
 8932W        W75341  23.750  36.934  13.966
 8933W        W75342   0.240  25.681  11.149
 8934W        W75343  29.298  18.395   0.798
 8935W        W75344  20.039  26.088   2.876
 8936W        W75345  29.952  38.740  12.878
 8937W        W75346  16.337  41.368  13.323
 8938W        W75347   7.135  18.806  11.190
 8939W        W75348  13.374  20.194   1.754
 8940W        W75349   3.964  19.364   0.207
 8941W        W75350  15.548   8.744   4.366
 8942W        W75351  41.123   2.657   4.840
 8943W        W75352  14.636   9.791   1.381
 8944W        W75353  42.335   0.052   2.005
 8945W        W75354  21.879  42.547   3.642
 8946W        W75355  43.464  12.370  10.948
 8947W        W75356  33.778  43.485  11.205
 8948W        W75357  31.315  26.675  12.025
 8949W        W75358   0.225  16.878  11.690
 8950W        W75359  19.817  34.094  13.373
 8951W        W75360  23.683   9.846  13.590
 8952W        W75361  23.187   3.379  14.607
 8953W        W75362   4.231  28.829  11.765
 8954W        W75363  33.398  32.417  11.945
 8955W        W75364  16.888  41.379  12.534
 8956W        W75365   3.353  14.792   4.578
 8957W        W75366  22.638  35.381  10.746
 8958W        W75367  26.617  33.029  10.077
 8959W        W75368  13.219  23.593   1.362
 8960W        W75369  25.561   4.649  11.185
 8961W        W75370  25.477  15.557   3.213
 8962W        W75371  38.979   3.898   2.961
 8963W        W75372  34.909  12.228  11.787
 8964W        W75373   8.797   6.887   0.835
 8965W        W75374   8.737  37.221   4.596
 8966W        W75375  29.726  43.984  12.528
 8967W        W75376  43.361  11.183  13.510
 8968W        W75377  14.243   9.718   1.728
 8969W        W75378  10.960   3.504   4.131
 8970W        W75379  42.680  33.884   3.304
 8971W        W75380  23.312  37.986  11.251
 8972W        W75381  34.902  26.923   1.719
 8973W        W75382  18.774  10.897   1.018
 8974W        W75383  22.117  31.673  13.424
 8975W        W75384  36.063   8.086  12.036
 8976W        W75385  19.378   0.281   5.003
 8977W        W75386  32.653  11.178  10.727
 8978W        W75387   5.929  32.096   3.841
 8979W        W75388  13.295  20.944   9.881
 8980W        W75389  37.850  25.206   0.595
 8981W        W75390  26.483  22.472   1.868
 8982W        W75391  21.357   9.817   1.487
 8983W        W75392  32.581  17.139   3.955
 8984W        W75393   6.858  19.627  11.548
 8985W        W75394   2.708  39.583  11.589
 8986W        W75395  25.629   0.034  13.775
 8987W        W75396  39.867  34.596  11.560
 8988W        W75397  28.997  26.239  12.146
 8989W        W75398  32.881  15.746  13.626
 8990W        W75399  22.417   4.714   9.989
 8991W        W75400  36.194  24.822   3.859
 8992W        W75401  42.885  27.421  13.781
 8993W        W75402  28.478  18.355   4.718
 8994W        W75403  34.383   2.067   1.234
 8995W        W75404  13.323   3.423   3.625
 8996W        W75405  32.432  28.482  12.511
 8997W        W75406  19.360  42.491  11.274
 8998W        W75407  41.814  27.385   1.739
 8999W        W75408  10.418   2.083   2.406
 9000W        W75409  19.708  29.601  10.657
 9001W        W75410   9.045   0.037   3.702
 9002W        W75411  20.623  44.298  12.492
 9003W        W75412  19.470  35.576  13.414
 9004W        W75413  38.930  18.625   4.601
 9005W        W75414  13.769  17.371   1.154
 9006W        W75415  14.490  35.465   0.492
 9007W        W75416  23.797  12.307  12.447
 9008W        W75417  13.251  10.372  11.569
 9009W        W75418  44.365  10.635  13.916
 9010W        W75419   9.530  22.687   3.754
 9011W        W75420   0.684  38.113   1.339
 9012W        W75421  31.580  39.563   4.991
 9013W        W75422   8.751  38.842  10.227
 9014W        W75423  39.389  31.112  11.518
 9015W        W75424  35.648  13.847   0.707
 9016W        W75425   0.228   7.950   2.861
 9017W        W75426  33.427  29.011  10.194
 9018W        W75427  44.586  16.538   0.325
 9019W        W75428   6.582  15.134   2.650
 9020W        W75429  11.728  14.290   3.433
 9021W        W75430  38.657   8.613   3.155
 9022W        W75431  26.136  19.709  14.522
 9023W        W75432  16.962  13.821   0.714
 9024W        W75433  43.245  41.426  13.420
 9025W        W75434  14.538  27.898  13.908
 9026W        W75435  35.189  32.961  11.642
 9027W        W75436  22.726  34.114   1.493
 9028W        W75437  20.278  25.969   4.537
 9029W        W75438  17.148  29.562  13.072
 9030W        W75439  33.068   8.259  14.849
 9031W        W75440  29.616  41.471   4.644
 9032W        W75441   4.437  28.104  10.584
 9033W        W75442   8.911  25.483  13.868
 9034W        W75443   3.323   2.645   3.756
 9035W        W75444  20.872  40.837  11.029
 9036W        W75445  16.820  10.312   2.393
 9037W        W75446  11.201  34.361   4.405
 9038W        W75447   0.586  38.457   0.205
 9039W        W75448  30.823  13.262  13.013
 9040W        W75449  13.023   2.868  11.613
 9041W        W75450   2.250  26.235  11.622
 9042W        W75451   3.928   1.872  10.816
 9043W        W75452  23.188  14.123   2.203
 9044W        W75453  41.373   7.440   1.408
 9045W        W75454  10.283  31.759   0.946
 9046W        W75455  18.301  38.439  11.139
 9047W        W75456  41.973  25.707   4.712
 9048W        W75457  11.601  42.854  12.506
 9049W        W75458  20.512  15.742   2.230
 9050W        W75459  31.558  43.255   4.634
 9051W        W75460  21.182   0.505  14.066
 9052W        W75461  25.490  18.221   0.452
 9053W        W75462  26.920  30.229  11.635
 9054W        W75463  10.474  24.193   4.629
 9055W        W75464  38.031  31.944   2.281
 9056W        W75465  40.038  34.340  11.141
 9057W        W75466  22.166  22.742   0.490
 9058W        W75467  33.642   2.216  11.678
 9059W        W75468  22.539  11.099  11.956
 9060W        W75469  12.263  36.883   3.565
 9061W        W75470  30.311  23.529  10.754
 9062W        W75471  24.710  16.573  12.076
 9063W        W75472  19.594  38.280   4.133
 9064W        W75473  20.209  12.407  14.264
 9065W        W75474  23.728  28.610   3.216
 9066W        W75475  44.074  18.744   3.562
 9067W        W75476  23.655  34.024  12.416
 9068W        W75477  22.494  22.000   0.937
 9069W        W75478   3.411  16.701  11.060
 9070W        W75479  29.505   4.515   0.448
 9071W        W75480  39.506  27.565   1.180
 9072W        W75481  29.630  41.769   2.753
 9073W        W75482  39.841  14.297   0.295
 9074W        W75483  32.041   8.756  13.013
 9075W        W75484  25.178  16.658   3.834
 9076W        W75485  19.235   6.310   2.447
 9077W        W75486  22.132  29.401  13.345
 9078W        W75487  23.705  33.294   2.426
 9079W        W75488  11.976  18.552   4.083
 9080W        W75489  43.737  36.478   1.240
 9081W        W75490  29.545  32.566   2.813
 9082W        W75491   3.294  26.167  13.837
 9083W        W75492  42.344   4.200   3.711
 9084W        W75493   3.681  11.090   3.778
 9085W        W75494  44.387  22.754  11.150
 9086W        W75495  41.520  15.131  13.856
 9087W        W75496  35.559  39.934   2.245
 9088W        W75497  10.661  43.378   3.690
 9089W        W75498  40.174   5.404   2.758
 9090W        W75499   4.937  35.401  14.499
 9091W        W75500   3.994  31.422  12.896
 9092W        W75501  21.578  14.342   3.389
 9093W        W75502  42.336  12.404  11.520
 9094W        W75503  26.280  18.059  12.508
 9095W        W75504   7.329   1.995   0.695
 9096W        W75505  24.570  12.499   1.249
 9097W        W75506  26.938  23.554  12.507
 9098W        W75507  14.476   3.415  13.869
 9099W        W75508  35.470  16.215   5.002
 9100W        W75509  11.547  41.342   3.759
 9101W        W75510  16.379  40.354  10.776
 9102W        W75511  44.409  27.108  14.038
 9103W        W75512  31.676   1.198   5.053
 9104W        W75513   9.382  33.807   1.769
 9105W        W75514  31.637   5.111  14.973
 9106W        W75515  17.509  34.443  10.804
 9107W        W75516  38.580  21.776   5.363
 9108W        W75517  13.114  25.169  12.386
 9109W        W75518  11.562  26.085  11.108
 9110W        W75519   0.520  18.477   3.296
 9111W        W75520  42.972  29.888   3.898
 9112W        W75521  14.053  35.324   3.198
 9113W        W75522  32.168  27.497   1.456
 9114W        W75523   3.326  16.328  10.695
 9115W        W75524  17.904  30.454  14.312
 9116W        W75525  35.227  21.105   2.901
 9117W        W75526  41.118  31.536   1.905
 9118W        W75527  40.312  22.009   0.256
 9119W        W75528  14.224   6.153  12.071
 9120W        W75529   4.245  26.237  12.273
 9121W        W75530  33.670  42.922   4.160
 9122W        W75531  33.983  15.247  14.338
 9123W        W75532  11.924  10.413  14.382
 9124W        W75533   6.248  16.652  13.016
 9125W        W75534  27.649  29.608   0.736
 9126W        W75535  38.437   5.834  12.877
 9127W        W75536  35.159   9.151   2.345
 9128W        W75537  31.888  20.032  12.497
 9129W        W75538   0.752  23.757   1.762
 9130W        W75539   6.322  26.239   3.624
 9131W        W75540  12.733  18.126   4.727
 9132W        W75541  10.453  43.864   3.657
 9133W        W75542  19.774  19.533  14.525
 9134W        W75543  32.420   3.754   1.371
 9135W        W75544  36.230   5.420   1.899
 9136W        W75545  28.534  27.581  13.044
 9137W        W75546   9.182  11.809  14.008
 9138W        W75547  11.581  14.737   2.802
 9139W        W75548  27.988   5.430   4.777
 9140W        W75549   1.961  36.480  11.199
 9141W        W75550  19.521  17.181  14.795
 9142W        W75551  18.612  41.022  11.137
 9143W        W75552  24.629  36.288   2.197
 9144W        W75553  30.152  18.331   3.563
 9145W        W75554  35.205   7.504   5.095
 9146W        W75555   5.794   1.861  12.559
 9147W        W75556   5.008  44.790   1.361
 9148W        W75557   0.238  26.257   4.139
 9149W        W75558   6.351  21.056  11.552
 9150W        W75559  35.254  12.787   4.668
 9151W        W75560  43.344   4.473   0.292
 9152W        W75561   2.963  26.942  10.895
 9153W        W75562   1.226  42.706   0.016
 9154W        W75563   0.601   0.414  12.034
 9155W        W75564  17.485   7.658   1.046
 9156W        W75565  18.566   1.920   3.730
 9157W        W75566   8.620  39.045  11.661
 9158W        W75567  40.862  32.000   3.861
 9159W        W75568  15.773  13.907   4.213
 9160W        W75569   9.805   3.292  12.507
 9161W        W75570  13.250  29.147   4.647
 9162W        W75571  30.483  32.209   1.709
 9163W        W75572   6.861  31.520  14.990
 9164W        W75573  18.244  30.837   1.193
 9165W        W75574   6.857  40.255  12.896
 9166W        W75575  23.902   1.350   3.815
 9167W        W75576  26.842  40.586  11.265
 9168W        W75577  17.639  31.479  12.481
 9169W        W75578  37.567  11.324  12.564
 9170W        W75579  19.570  22.141  14.284
 9171W        W75580  22.170  28.117   1.850
 9172W        W75581  18.992   8.281  13.248
 9173W        W75582  12.922  43.345   4.326
 9174W        W75583  34.458  17.569  11.193
 9175W        W75584   2.382  13.110   2.230
 9176W        W75585  28.721  33.466   1.900
 9177W        W75586  43.220  39.254  10.994
 9178W        W75587   9.381  36.584  14.544
 9179W        W75588   3.361  40.887   0.508
 9180W        W75589   1.041  38.019  11.510
 9181W        W75590  17.793  37.857  12.877
 9182W        W75591  24.088  32.117  11.639
 9183W        W75592   9.297  37.475   0.027
 9184W        W75593  26.460  19.163   0.334
 9185W        W75594  22.608  30.981   2.267
 9186W        W75595  16.528  40.350  12.514
 9187W        W75596   0.511   8.743  10.695
 9188W        W75597  33.907  19.240   1.312
 9189W        W75598  32.085  33.902   3.191
 9190W        W75599  13.344  40.457  14.791
 9191W        W75600  40.500  27.759  11.943
 9192W        W75601  35.635  29.112  11.118
 9193W        W75602  34.890   9.605  13.573
 9194W        W75603  38.555  31.435   3.616
 9195W        W75604  32.916  17.116  14.829
 9196W        W75605  35.704  20.381   1.974
 9197W        W75606  27.082  32.319   3.573
 9198W        W75607  39.332   6.877   4.688
 9199W        W75608  13.031  34.363  14.475
 9200W        W75609  37.084  27.709  11.428
 9201W        W75610  15.652   4.902   3.188
 9202W        W75611  13.897  35.549   2.702
 9203W        W75612  29.538  38.544  14.428
 9204W        W75613   3.374  20.190  11.690
 9205W        W75614  41.729   3.826  13.941
 9206W        W75615  27.968  12.708   2.397
 9207W        W75616   7.305  21.082  14.407
 9208W        W75617  15.204  44.508   1.981
 9209W        W75618  44.107  13.289  12.107
 9210W        W75619   8.620  33.075   1.655
 9211W        W75620   3.746  27.873  13.096
 9212W        W75621   6.677  35.137   4.037
 9213W        W75622  18.627  34.656  11.480
 9214W        W75623  33.580   3.549  12.973
 9215W        W75624   1.691  11.387   0.982
 9216W        W75625  41.466  35.008   1.938
 9217W        W75626  35.111  39.263   3.179
 9218W        W75627  26.999  18.030  11.946
 9219W        W75628  41.489  36.545  11.799
 9220W        W75629  19.060  35.504   3.398
 9221W        W75630  36.008  12.178  12.151
 9222W        W75631  25.600   5.564  13.465
 9223W        W75632  38.997  42.516  12.178
 9224W        W75633   5.211  31.907  11.966
 9225W        W75634  32.621   5.718   4.165
 9226W        W75635  10.678  23.697   1.266
 9227W        W75636  29.247  41.411   0.811
 9228W        W75637  39.786  29.054  14.041
 9229W        W75638  11.763  42.716   2.788
 9230W        W75639  16.675   0.371   0.554
 9231W        W75640  29.305  19.874  13.375
 9232W        W75641  15.104  34.432   3.150
 9233W        W75642  23.750  28.050  11.178
 9234W        W75643   8.828   7.228  12.080
 9235W        W75644  13.348  11.864  14.863
 9236W        W75645   2.469  39.688   0.324
 9237W        W75646  35.944  17.741  11.859
 9238W        W75647  18.119  26.103  10.775
 9239W        W75648   0.897   6.934   1.292
 9240W        W75649  19.109  33.396   1.229
 9241W        W75650  16.596  17.099   1.236
 9242W        W75651  38.724   0.519  13.438
 9243W        W75652  13.652  26.987  13.586
 9244W        W75653  33.894   0.909   4.588
 9245W        W75654  16.761  24.950  12.587
 9246W        W75655  42.786  40.565  11.905
 9247W        W75656  40.450  44.473   2.143
 9248W        W75657  19.142  10.787   1.977
 9249W        W75658   1.198  17.979  14.767
 9250W        W75659  16.524  36.083  12.040
 9251W        W75660  19.062  33.398   1.754
 9252W        W75661   9.956  28.996  11.716
 9253W        W75662  18.336  33.505  14.973
 9254W        W75663   1.300   0.171   0.023
 9255W        W75664  27.512   1.043  12.967
 9256W        W75665   5.420   6.961   0.926
 9257W        W75666  10.178   1.331   3.909
 9258W        W75667  37.950  27.232   0.391
 9259W        W75668  29.696  15.300  14.897
 9260W        W75669  21.157   7.212   0.011
 9261W        W75670  18.363  41.059   2.780
 9262W        W75671  21.271  29.088  12.170
 9263W        W75672  23.702   5.906   0.088
 9264W        W75673  15.245  39.791   2.288
 9265W        W75674  24.572  20.119   5.557
 9266W        W75675  18.923  24.935  11.172
 9267W        W75676  12.146   9.572  10.400
 9268W        W75677  29.440  19.190   2.854
 9269W        W75678  12.740  35.594   4.968
 9270W        W75679   1.980  13.257  13.051
 9271W        W75680  28.160  29.400   2.778
 9272W        W75681  14.787   9.760   0.394
 9273W        W75682  33.221  22.827   3.026
 9274W        W75683  15.578   7.822  13.128
 9275W        W75684  35.063  11.144   1.241
 9276W        W75685  34.386   7.713   2.643
 9277W        W75686  10.288  17.279   4.532
 9278W        W75687  17.551  41.976  13.463
 9279W        W75688  39.620  40.479   1.048
 9280W        W75689  13.275  13.021   0.439
 9281W        W75690  22.182   8.945  14.410
 9282W        W75691  40.129  19.207   2.763
 9283W        W75692  24.256   5.656   4.232
 9284W        W75693  17.364  18.669   3.183
 9285W        W75694  44.777  44.068   3.258
 9286W        W75695  40.840  20.169   4.471
 9287W        W75696  22.755  16.189   3.510
 9288W        W75697  41.378  13.389   2.363
 9289W        W75698  15.466   5.400  10.799
 9290W        W75699  21.749  21.810  10.698
 9291W        W75700  35.842  16.389  11.570
 9292W        W75701  17.648  20.842   2.306
 9293W        W75702   7.998  34.918  10.797
 9294W        W75703   9.822  29.049   3.973
 9295W        W75704  42.308  31.085  11.252
 9296W        W75705   2.871  16.726   0.034
 9297W        W75706  38.295  33.464   1.139
 9298W        W75707  28.995  28.078   2.434
 9299W        W75708  17.068  18.244   2.294
 9300W        W75709  31.425  34.046  14.390
 9301W        W75710  27.558   0.094   4.547
 9302W        W75711  35.963  29.019   3.757
 9303W        W75712   1.011  18.079   4.201
 9304W        W75713  12.390  12.136   2.497
 9305W        W75714   1.452  10.211   1.928
 9306W        W75715  16.224  26.204   4.746
 9307W        W75716  12.190  37.461   0.753
 9308W        W75717  18.130  11.509   1.330
 9309W        W75718  36.009  10.035   3.706
 9310W        W75719  21.300  23.040  13.944
 9311W        W75720  29.135  16.112   0.784
 9312W        W75721  27.024  28.994   4.376
 9313W        W75722  23.675  20.522   0.036
 9314W        W75723  35.183  22.538  11.995
 9315W        W75724   3.215  13.358   3.270
 9316W        W75725  15.276   3.584  10.757
 9317W        W75726  33.034  34.441  14.875
 9318W        W75727   5.394  21.047   2.873
 9319W        W75728  42.722  21.282   0.176
 9320W        W75729  32.481  29.456   2.312
 9321W        W75730  34.162  14.874  14.013
 9322W        W75731   9.124  37.267   3.291
 9323W        W75732  44.264  19.441  12.566
 9324W        W75733  32.561  31.727   0.130
 9325W        W75734  24.269   3.827  12.141
 9326W        W75735   6.828  17.358   1.477
 9327W        W75736  29.991  18.008   3.941
 9328W        W75737  33.450  13.557  13.945
 9329W        W75738  41.290  20.815  12.853
 9330W        W75739  21.288   3.000  11.224
 9331W        W75740   3.031  13.839   3.365
 9332W        W75741  19.564  15.394  14.823
 9333W        W75742  35.848  32.352   0.698
 9334W        W75743  20.684  42.797   1.472
 9335W        W75744  31.042  32.507   4.676
 9336W        W75745  14.471  41.265  10.829
 9337W        W75746  18.093  26.753  14.584
 9338W        W75747   4.644  36.513  14.747
 9339W        W75748   3.287  33.487   4.501
 9340W        W75749   1.715  19.726  10.791
 9341W        W75750   6.876   1.601   2.634
 9342W        W75751   9.178  39.380  13.233
 9343W        W75752  35.535  27.407  14.838
 9344W        W75753   2.425  19.620   1.267
 9345W        W75754  38.235  36.913  11.047
 9346W        W75755  20.412  10.532   2.653
 9347W        W75756   8.864   7.683   3.345
 9348W        W75757  41.568  14.877  13.392
 9349W        W75758  31.109  11.830   4.839
 9350W        W75759  42.465   0.972   2.755
 9351W        W75760  13.161  29.020   1.265
 9352W        W75761  13.122  10.021  11.190
 9353W        W75762  42.427   3.886  12.583
 9354W        W75763  22.669  26.601   3.511
 9355W        W75764  36.335  29.524  13.233
 9356W        W75765  13.087  29.457  12.667
 9357W        W75766   5.464  21.723   1.089
 9358W        W75767  35.307  29.183  14.299
 9359W        W75768  40.781  21.196   1.775
 9360W        W75769  38.524  20.212  10.405
 9361W        W75770  43.311  40.911   1.451
 9362W        W75771  43.484  15.097   4.698
 9363W        W75772  28.239  43.910   2.572
 9364W        W75773  33.574  31.911   4.591
 9365W        W75774  25.444  24.175  12.969
 9366W        W75775   5.448  21.521  14.584
 9367W        W75776  32.269  33.971   0.841
 9368W        W75777  41.475  17.367  14.789
 9369W        W75778  15.998  38.901   0.473
 9370W        W75779  43.572  18.644  12.348
 9371W        W75780  13.085  14.261   4.491
 9372W        W75781  17.186  31.714  12.478
 9373W        W75782  18.731   6.652  13.954
 9374W        W75783  18.321  33.219   1.869
 9375W        W75784  19.539   2.679   4.271
 9376W        W75785  21.852  20.421   1.879
 9377W        W75786  34.481  36.378  11.227
 9378W        W75787  38.880  28.689  14.299
 9379W        W75788  39.633  42.271  12.980
 9380W        W75789  42.759   0.485   1.424
 9381W        W75790  22.268  22.940  11.462
 9382W        W75791  12.796  15.253  10.774
 9383W        W75792  10.113  27.172   4.408
 9384W        W75793  19.809  13.854  12.111
 9385W        W75794  29.054   2.988  10.768
 9386W        W75795  37.395  37.477   2.608
 9387W        W75796  27.989  26.090   4.488
 9388W        W75797  39.993  28.075   4.912
 9389W        W75798  26.825   1.926   0.805
 9390W        W75799  10.754  39.969  14.490
 9391W        W75800  18.757  35.815   1.185
 9392W        W75801   8.129  43.257  13.987
 9393W        W75802  16.725  29.964  12.406
 9394W        W75803  30.021  31.063   4.142
 9395W        W75804   4.113  23.197  13.865
 9396W        W75805  11.672  31.454   4.375
 9397W        W75806   9.596  13.906   1.728
 9398W        W75807  14.733  32.539  14.446
 9399W        W75808  40.850   2.032  14.457
 9400W        W75809  35.242  42.421  13.373
 9401W        W75810  14.791   7.724  11.638
 9402W        W75811  20.039  15.229   4.895
 9403W        W75812  19.373   0.494  13.768
 9404W        W75813  18.166  26.805  10.704
 9405W        W75814   5.217  43.508  10.760
 9406W        W75815  44.340  23.174  11.442
 9407W        W75816  14.350  41.562   1.649
 9408W        W75817  18.912  31.007  12.716
 9409W        W75818  14.051  10.344  13.415
 9410W        W75819  30.027  41.353  10.793
 9411W        W75820  24.560  22.852  13.521
 9412W        W75821  17.762  22.051  12.563
 9413W        W75822  14.571  36.918   4.011
 9414W        W75823  28.424   0.228  13.550
 9415W        W75824  31.015  32.792  11.955
 9416W        W75825  16.783  37.212   5.152
 9417W        W75826  34.112  10.320  11.050
 9418W        W75827  39.232  39.264   4.101
 9419W        W75828  45.000   9.452  14.446
 9420W        W75829   1.178  25.534  14.922
 9421W        W75830  38.912   1.528   3.582
 9422W        W75831  27.108  38.045   2.410
 9423W        W75832  14.875   8.919   0.917
 9424W        W75833   4.357  40.183   2.832
 9425W        W75834  10.099  14.458   5.207
 9426W        W75835  38.551  40.462   3.558
 9427W        W75836  15.775   7.944   3.844
 9428W        W75837  20.059   6.838  12.819
 9429W        W75838  27.599  24.127   3.995
 9430W        W75839  13.389  42.823   4.074
 9431W        W75840  39.762   9.842   0.738
 9432W        W75841  29.121   2.204  11.206
 9433W        W75842  25.001   6.393  13.081
 9434W        W75843  15.255  14.266  14.898
 9435W        W75844  43.386  42.802  12.221
 9436W        W75845  40.775  17.428   3.580
 9437W        W75846  26.467  23.643   0.889
 9438W        W75847  42.278  25.734  13.905
 9439W        W75848  34.410  33.044  11.386
 9440W        W75849  34.071  10.762  14.789
 9441W        W75850   7.455  39.963  12.034
 9442W        W75851  21.445   2.453  11.659
 9443W        W75852   9.699  42.304   2.280
 9444W        W75853  19.163  33.885  12.861
 9445W        W75854  41.906  32.619   2.837
 9446W        W75855  28.486  24.857   0.953
 9447W        W75856   4.292  27.001  12.325
 9448W        W75857  41.289   4.731  13.790
 9449W        W75858  27.030  21.444   3.706
 9450W        W75859   7.191  30.572   0.228
 9451W        W75860  22.327  30.627   4.591
 9452W        W75861  36.536   8.223   1.936
 9453W        W75862  21.989  22.097   4.759
 9454W        W75863  41.832  26.652  13.836
 9455W        W75864  16.573   1.763   3.754
 9456W        W75865   9.261   1.436   1.861
 9457W        W75866  13.141   8.740   4.992
 9458W        W75867   0.926  21.070   1.466
 9459W        W75868  41.935  35.075   2.917
 9460W        W75869   6.285   7.158  13.300
 9461W        W75870  23.177  19.527   0.379
 9462W        W75871   3.721  32.989   1.300
 9463W        W75872  32.908  13.485   2.295
 9464W        W75873  43.081  23.778   1.847
 9465W        W75874  11.780  24.924  10.761
 9466W        W75875  44.412  29.574   1.862
 9467W        W75876  32.609  42.342  14.415
 9468W        W75877  22.748   1.917  13.515
 9469W        W75878  26.171   0.884  14.796
 9470W        W75879   9.163  31.638   3.148
 9471W        W75880  22.007  31.023  14.432
 9472W        W75881   3.304   5.864   1.723
 9473W        W75882  33.641  29.396   4.153
 9474W        W75883  33.356   4.757  12.427
 9475W        W75884  32.598  34.534   4.158
 9476W        W75885   8.611  16.231   4.107
 9477W        W75886   1.450   8.690  13.488
 9478W        W75887  31.835  36.416  13.862
 9479W        W75888   5.681  13.946  11.030
 9480W        W75889  39.306  11.312  14.945
 9481W        W75890  17.689  32.995   4.579
 9482W        W75891  15.849  29.072   2.681
 9483W        W75892  11.882  44.633   3.045
 9484W        W75893   3.387  13.412  13.433
 9485W        W75894  32.923  39.431   2.357
 9486W        W75895  16.954  40.527  11.405
 9487W        W75896  21.599   1.732   2.683
 9488W        W75897  21.928  32.312  12.068
 9489W        W75898  14.152  16.036  14.261
 9490W        W75899   7.810  35.062  13.436
 9491W        W75900   1.020  15.139   4.256
 9492W        W75901  37.949   7.003   1.847
 9493W        W75902   4.775  18.104  10.618
 9494W        W75903  16.907  35.091  14.509
 9495W        W75904   3.385  38.773   4.040
 9496W        W75905  24.233  32.432   4.516
 9497W        W75906  28.889  38.427  10.999
 9498W        W75907  20.895  36.842   1.044
 9499W        W75908  22.582  31.193  13.346
 9500W        W75909   8.749  35.569  12.480
 9501W        W75910  34.606  43.051  11.232
 9502W        W75911  40.502  35.970   1.773
 9503W        W75912  44.482  24.149   4.751
 9504W        W75913  41.848  16.625  14.948
 9505W        W75914  31.328  18.643  10.519
 9506W        W75915  12.161  26.775  11.551
 9507W        W75916  28.430   8.911  13.828
 9508W        W75917   0.930  13.109  14.722
 9509W        W75918  29.925  30.450  13.942
 9510W        W75919  20.625  33.597  14.763
 9511W        W75920  12.560  21.200   1.029
 9512W        W75921  17.088  12.677   4.282
 9513W        W75922  42.540  37.890  13.347
 9514W        W75923   7.752  21.532   0.494
 9515W        W75924  34.825  36.465  13.006
 9516W        W75925  22.389  24.113   1.585
 9517W        W75926   4.404  36.148   0.779
 9518W        W75927   4.304  43.292  13.454
 9519W        W75928  24.718  12.085   2.644
 9520W        W75929   7.924  41.062  13.412
 9521W        W75930  15.661   2.941  13.949
 9522W        W75931  29.504  35.336   3.664
 9523W        W75932  13.420  28.476   1.105
 9524W        W75933  35.490   1.167  14.738
 9525W        W75934  33.988  33.176  12.144
 9526W        W75935  35.477  14.862   2.321
 9527W        W75936  26.541  21.016   4.518
 9528W        W75937  15.741  27.548  12.784
 9529W        W75938  19.699  16.566   2.285
 9530W        W75939  18.077  20.802   0.114
 9531W        W75940  27.212  30.996  11.244
 9532W        W75941  36.503   6.271  10.957
 9533W        W75942  38.507   3.330   1.809
 9534W        W75943   8.584  17.953  12.669
 9535W        W75944  36.314  31.450   2.808
 9536W        W75945  12.817  44.337   1.170
 9537W        W75946  35.605  19.192   1.559
 9538W        W75947  43.417   8.093   5.457
 9539W        W75948  35.930  33.982   3.705
 9540W        W75949  42.730  40.181  13.301
 9541W        W75950  21.992   5.913   0.328
 9542W        W75951   5.653   3.940  11.295
 9543W        W75952  31.297   4.331   4.029
 9544W        W75953  10.601   8.969   2.329
 9545W        W75954   8.628  33.834  13.860
 9546W        W75955   0.301  44.920   4.800
 9547W        W75956  39.440  33.326  11.179
 9548W        W75957   6.334  15.601   3.267
 9549W        W75958  29.555   3.960   1.448
 9550W        W75959  28.134  38.444   3.321
 9551W        W75960   8.215  38.454  13.420
 9552W        W75961  22.394  17.645   2.135
 9553W        W75962  42.021  43.870  14.289
 9554W        W75963  30.635   8.291   5.575
 9555W        W75964  10.201  35.581   3.339
 9556W        W75965  22.563  39.469   2.233
 9557W        W75966   3.343   3.726  12.960
 9558W        W75967  11.178  28.844  14.071
 9559W        W75968   0.389   3.594   5.058
 9560W        W75969  29.044   7.655   2.591
 9561W        W75970   4.683  17.506   1.876
 9562W        W75971  19.615  10.953   1.850
 9563W        W75972   4.953  40.423  12.015
 9564W        W75973  22.923  11.295   1.383
 9565W        W75974  26.670  12.436  10.202
 9566W        W75975   1.738  23.090   3.269
 9567W        W75976   2.913  39.343   0.272
 9568W        W75977   5.566  20.119  12.476
 9569W        W75978   3.186  26.389   4.170
 9570W        W75979  23.591   6.495   3.125
 9571W        W75980  20.171  12.260  14.763
 9572W        W75981  25.077   8.453   1.120
 9573W        W75982  40.223  13.205   1.242
 9574W        W75983  43.626  17.887  11.278
 9575W        W75984  11.208  18.528  14.373
 9576W        W75985  26.668  44.476  14.428
 9577W        W75986   9.820  14.789   4.584
 9578W        W75987  19.075   0.187  11.386
 9579W        W75988  32.669   4.377  12.646
 9580W        W75989  40.840  34.512   3.904
 9581W        W75990   5.707  38.127  14.914
 9582W        W75991  12.133  25.915  13.491
 9583W        W75992  29.451  33.605  12.072
 9584W        W75993   2.868   5.235   4.087
 9585W        W75994  34.404   7.037   4.452
 9586W        W75995   4.839   8.218  13.466
 9587W        W75996   9.308  11.426  11.965
 9588W        W75997   1.734  20.280   0.312
 9589W        W75998  15.567   8.430   0.349
 9590W        W75999   1.304   4.413   0.895
 9591W        W76000  32.678  19.143  11.319
 9592W        W76001  33.059  13.711  13.065
 9593W        W76002  11.751  23.745  13.375
 9594W        W76003  38.377   5.587  13.338
 9595W        W76004  13.007  31.835   3.663
 9596W        W76005   4.498  30.238   4.220
 9597W        W76006  33.409  15.508   0.838
 9598W        W76007  12.086   4.820  10.881
 9599W        W76008  36.630   2.346   2.694
 9600W        W76009  38.358   6.433  13.895
 9601W        W76010  20.341  28.044  13.007
 9602W        W76011  27.663   3.497   3.777
 9603W        W76012  33.645  29.132   1.348
 9604W        W76013  15.190  32.982   3.165
 9605W        W76014  18.162  23.203  12.316
 9606W        W76015  16.732  36.319   4.587
 9607W        W76016  22.551  25.539  10.002
 9608W        W76017  25.422  30.930  14.097
 9609W        W76018  23.713  34.481   0.366
 9610W        W76019  43.056  21.483   4.542
 9611W        W76020  17.120  12.700   1.341
 9612W        W76021  29.004  11.951   0.423
 9613W        W76022   2.906   1.420   0.687
 9614W        W76023  33.501  40.407   4.542
 9615W        W76024  25.761  26.091  12.471
 9616W        W76025  29.659  19.486  13.286
 9617W        W76026  34.557  13.383  11.075
 9618W        W76027  23.729  24.979   4.542
 9619W        W76028   0.286  29.507   4.234
 9620W        W76029  18.664  14.758  12.919
 9621W        W76030  38.766  33.500  14.845
 9622W        W76031  33.542  44.459  14.306
 9623W        W76032  41.320  26.615  12.422
 9624W        W76033  18.098  40.858  10.303
 9625W        W76034  28.938  24.668  13.955
 9626W        W76035  33.462   5.184  14.536
 9627W        W76036  36.575   6.922  12.475
 9628W        W76037  37.587  12.854   9.658
 9629W        W76038  11.410   0.966   0.893
 9630W        W76039  22.139  20.927   4.564
 9631W        W76040   9.229   5.258  12.637
 9632W        W76041   5.415  25.644   2.322
 9633W        W76042  33.485  16.321   1.350
 9634W        W76043  37.059  18.457  11.858
 9635W        W76044   0.830  31.489   0.617
 9636W        W76045  21.989  16.819   0.875
 9637W        W76046  19.520   2.727  14.443
 9638W        W76047  41.784  41.207   1.230
 9639W        W76048  43.678  11.068  10.667
 9640W        W76049  17.564  39.003  14.454
 9641W        W76050  40.233  40.581   1.847
 9642W        W76051  41.968  25.457   0.744
 9643W        W76052  35.256   2.777   0.806
 9644W        W76053  21.410   6.202   0.020
 9645W        W76054  41.427   1.004  13.994
 9646W        W76055  43.046  44.400  11.589
 9647W        W76056  25.665  29.005   3.981
 9648W        W76057   6.669  20.608   1.605
 9649W        W76058  17.326  44.484  12.480
 9650W        W76059   4.930  32.327   0.391
 9651W        W76060  39.782  37.965   0.423
 9652W        W76061  30.192  43.833   1.986
 9653W        W76062   2.742  29.746   3.043
 9654W        W76063  11.160  19.095  11.957
 9655W        W76064   7.610  23.286  14.059
 9656W        W76065   1.452  29.354   0.576
 9657W        W76066  16.669  32.223   2.343
 9658W        W76067   9.218   3.541   4.558
 9659W        W76068  22.929   0.399  14.532
 9660W        W76069  39.029  32.849   2.000
 9661W        W76070   9.589   2.282   2.351
 9662W        W76071  24.224  38.342  10.937
 9663W        W76072   8.226  26.597   3.278
 9664W        W76073  11.468  18.471   4.150
 9665W        W76074  25.023  43.988   4.697
 9666W        W76075  16.573  10.356   4.354
 9667W        W76076  28.781  12.715   2.700
 9668W        W76077  27.140  20.306  13.128
 9669W        W76078   9.387  12.736   3.799
 9670W        W76079  25.183   7.949   0.973
 9671W        W76080  42.622  26.965  13.918
 9672W        W76081  42.595  39.469  11.173
 9673W        W76082  16.505  36.180   1.396
 9674W        W76083  24.954   4.215   0.531
 9675W        W76084  20.542  39.555  10.657
 9676W        W76085  10.909  15.158  12.516
 9677W        W76086  31.512  39.456   1.934
 9678W        W76087  35.394  35.882  13.872
 9679W        W76088  23.244  23.759  13.821
 9680W        W76089   3.893  39.345   4.617
 9681W        W76090  25.685  12.301  13.031
 9682W        W76091   1.428  12.474   1.817
 9683W        W76092  12.817   9.557   1.690
 9684W        W76093  29.551   8.468   9.751
 9685W        W76094   8.279  16.115   1.499
 9686W        W76095  24.298  21.786  13.057
 9687W        W76096   0.002  10.423   3.997
 9688W        W76097  32.625  19.628  12.119
 9689W        W76098  41.067  43.531  10.577
 9690W        W76099  28.619  10.713  11.961
 9691W        W76100  37.884  28.171   3.773
 9692W        W76101  10.405  14.915   1.304
 9693W        W76102  42.057  40.934  11.502
 9694W        W76103   3.205  10.691  14.815
 9695W        W76104  34.001  27.071   1.913
 9696W        W76105   2.768  12.337  13.881
 9697W        W76106  40.518  29.780  12.048
 9698W        W76107   0.509  21.969   0.457
 9699W        W76108  19.311  31.186   2.222
 9700W        W76109  30.109   2.225  11.957
 9701W        W76110  14.346  31.979   4.600
 9702W        W76111   5.145  32.849   2.733
 9703W        W76112   8.896  24.059  13.166
 9704W        W76113  40.156   3.432   1.970
 9705W        W76114   2.078  36.405  12.079
 9706W        W76115  40.268  33.355   3.859
 9707W        W76116  40.732  23.692   2.119
 9708W        W76117  32.745  22.435  13.506
 9709W        W76118  23.550  22.533  13.955
 9710W        W76119  29.954   4.440  13.055
 9711W        W76120  41.377  39.774   4.146
 9712W        W76121  22.075  43.304   4.316
 9713W        W76122  36.358  38.586   3.856
 9714W        W76123   8.072  18.223   1.847
 9715W        W76124  26.199   6.550  10.993
 9716W        W76125  41.251  36.942   3.681
 9717W        W76126  32.445  21.902   2.808
 9718W        W76127  19.231   6.346  12.610
 9719W        W76128  18.465  32.004  12.620
 9720W        W76129   7.394  14.549   5.042
 9721W        W76130  44.615  40.774  12.944
 9722W        W76131  14.277  16.592  12.158
 9723W        W76132  14.604  26.213  12.568
 9724W        W76133  37.454  18.238   3.259
 9725W        W76134  18.724  17.766   2.830
 9726W        W76135  17.171  27.904   3.158
 9727W        W76136  34.297   6.647   0.331
 9728W        W76137  39.847  32.667  13.944
 9729W        W76138  30.078  17.505   3.773
 9730W        W76139   8.978  22.547  14.175
 9731W        W76140   1.365  34.302  11.244
 9732W        W76141   3.260   9.677   0.835
 9733W        W76142  20.473  26.703   9.868
 9734W        W76143  29.451  37.825  13.912
 9735W        W76144   5.864  23.338  13.365
 9736W        W76145  39.110  21.745  13.658
 9737W        W76146  12.878  42.691   2.748
 9738W        W76147  28.031  25.623   0.880
 9739W        W76148  38.525   0.759  10.468
 9740W        W76149  33.848  27.521   2.168
 9741W        W76150  10.669  23.578   3.743
 9742W        W76151  14.366  32.160  14.258
 9743W        W76152   8.233  29.271  12.286
 9744W        W76153  30.183   8.920  10.398
 9745W        W76154  44.032   9.474   0.905
 9746W        W76155  29.237  43.867  12.329
 9747W        W76156  10.428  22.634   1.276
 9748W        W76157  41.795  40.258  13.594
 9749W        W76158  40.287   6.362   5.053
 9750W        W76159  18.023   3.361   4.223
 9751W        W76160   1.444  42.931   2.763
 9752W        W76161   2.659   3.505   0.713
 9753W        W76162  15.418  22.558   3.194
 9754W        W76163  16.053  23.135   0.378
 9755W        W76164  19.079  38.849  10.647
 9756W        W76165   0.841   2.633   2.102
 9757W        W76166  35.323  19.337   5.454
 9758W        W76167  41.624  11.340  11.233
 9759W        W76168  30.589  13.034   0.853
 9760W        W76169  36.881  28.037   3.097
 9761W        W76170  21.988  12.638  13.571
 9762W        W76171   3.508   0.075  13.710
 9763W        W76172  25.105  37.848  13.342
 9764W        W76173  38.289  14.201   0.734
 9765W        W76174  40.473  16.799  14.047
 9766W        W76175  15.145  33.700  10.420
 9767W        W76176  41.767  26.978   4.376
 9768W        W76177  19.898  15.545   3.510
 9769W        W76178  44.613  16.073  14.937
 9770W        W76179  11.819  44.278  14.214
 9771W        W76180  19.641  32.427   4.953
 9772W        W76181  23.495  29.318   4.054
 9773W        W76182  41.586  25.239  14.341
 9774W        W76183  16.564  33.487  10.416
 9775W        W76184  20.779  31.868  11.635
 9776W        W76185  21.523   5.232   3.623
 9777W        W76186   5.692  12.651   2.739
 9778W        W76187  11.940   5.896   0.993
 9779W        W76188  13.772  34.075  13.491
 9780W        W76189  44.444  30.376   1.744
 9781W        W76190  35.637  36.041  10.714
 9782W        W76191  42.762  14.869   2.578
 9783W        W76192  24.789  37.494   3.623
 9784W        W76193  34.862  39.732  12.439
 9785W        W76194  10.966  29.785  12.309
 9786W        W76195  33.840  22.543  12.980
 9787W        W76196   9.836  15.694   4.587
 9788W        W76197  22.034  32.072   2.856
 9789W        W76198  39.376   5.000  10.526
 9790W        W76199   5.874  40.513   3.912
 9791W        W76200   3.453  38.342   3.641
 9792W        W76201   8.688  22.535  13.360
 9793W        W76202   0.161  26.058   2.643
 9794W        W76203  44.026   9.267   2.755
 9795W        W76204  23.082  22.584  12.050
 9796W        W76205  37.753  28.183   4.273
 9797W        W76206  40.355  21.325   4.123
 9798W        W76207   3.889   0.676  14.372
 9799W        W76208  35.451  15.380   1.275
 9800W        W76209  31.853  24.155   1.691
 9801W        W76210  12.960  31.102   3.452
 9802W        W76211  41.071   7.241  13.385
 9803W        W76212  10.447  32.077  14.837
 9804W        W76213  10.692  22.353   9.900
 9805W        W76214  27.989  27.198  13.691
 9806W        W76215  10.126   6.735   1.798
 9807W        W76216  23.569  12.611   2.678
 9808W        W76217   1.254  40.961   1.164
 9809W        W76218  21.028  40.324   4.649
 9810W        W76219   9.870  16.248  10.680
 9811W        W76220  23.978  16.714  11.651
 9812W        W76221  18.847  37.888   3.171
 9813W        W76222  36.854   1.770   0.064
 9814W        W76223   6.509  25.795   4.846
 9815W        W76224   6.126  28.711   2.728
 9816W        W76225  44.774  14.152   2.486
 9817W        W76226  35.828  17.129  12.369
 9818W        W76227  28.049   9.641   2.270
 9819W        W76228   5.352  36.887   4.746
 9820W        W76229  11.347  16.035   1.932
 9821W        W76230  20.310  26.691   1.042
 9822W        W76231  24.338  28.616   1.630
 9823W        W76232  42.512  24.228  13.846
 9824W        W76233  37.590  20.074   3.739
 9825W        W76234  27.096  32.968   0.971
 9826W        W76235   1.441  39.462   2.327
 9827W        W76236  13.685  15.143  13.848
 9828W        W76237   7.175  40.323  14.215
 9829W        W76238  25.767  21.089   4.982
 9830W        W76239  25.073  34.838  10.971
 9831W        W76240  35.510  15.898  12.815
 9832W        W76241  34.326  37.310  14.410
 9833W        W76242  24.394   0.988   3.277
 9834W        W76243   8.915  21.750  12.044
 9835W        W76244  14.181   1.531   4.096
 9836W        W76245  32.087  43.350  13.887
 9837W        W76246   3.291  29.932   3.646
 9838W        W76247  40.523  24.205  12.539
 9839W        W76248  43.712  15.067   2.107
 9840W        W76249  35.359  28.981  12.405
 9841W        W76250  36.598  17.685   3.286
 9842W        W76251  23.291  27.176  13.949
 9843W        W76252   5.672   4.898  14.433
 9844W        W76253  24.441   9.798   1.406
 9845W        W76254  35.074  27.394  11.207
 9846W        W76255  39.367  44.929   1.476
 9847W        W76256  29.573  14.844   3.813
 9848W        W76257  20.464  26.932   1.715
 9849W        W76258  15.886  27.550   1.374
 9850W        W76259  20.668   6.386  11.109
 9851W        W76260  10.250  28.638   4.166
 9852W        W76261  43.402  24.327   4.371
 9853W        W76262  42.365  25.205   0.981
 9854W        W76263   3.259   0.783   1.622
 9855W        W76264   6.845  41.236   4.693
 9856W        W76265  44.741  15.473  11.963
 9857W        W76266  30.526  15.354   0.789
 9858W        W76267   6.878  42.969   2.746
 9859W        W76268  30.390  15.871  11.970
 9860W        W76269   3.411   1.938   0.202
 9861W        W76270   6.270  43.755  12.979
 9862W        W76271  25.238  30.939   3.109
 9863W        W76272  31.490  41.467  11.625
 9864W        W76273  21.779  23.792  12.455
 9865W        W76274  29.984  18.167   1.993
 9866W        W76275  36.156  36.944  10.797
 9867W        W76276  10.619  36.882  14.024
 9868W        W76277  36.640  26.088   4.159
 9869W        W76278   8.861  38.124  11.495
 9870W        W76279   2.455  29.506  14.369
 9871W        W76280  23.542  43.475   1.259
 9872W        W76281   4.281  36.933   1.564
 9873W        W76282  40.574  27.645  14.485
 9874W        W76283   5.300  26.107   3.172
 9875W        W76284  34.167  40.154   1.451
 9876W        W76285  38.954  10.616   1.640
 9877W        W76286  36.493  21.960  11.094
 9878W        W76287  35.576   8.194   1.592
 9879W        W76288   0.759  27.944  12.375
 9880W        W76289  17.322  10.983  11.209
 9881W        W76290  11.138  14.100   0.418
 9882W        W76291  27.022  41.271   3.640
 9883W        W76292   9.492  27.926   1.826
 9884W        W76293  22.480  38.970   4.809
 9885W        W76294  26.966  13.073  13.913
 9886W        W76295   6.253  14.028  12.070
 9887W        W76296  37.394  10.144  10.449
 9888W        W76297  13.431  16.008  11.128
 9889W        W76298   1.959  32.062   4.498
 9890W        W76299  34.539  37.562   2.437
 9891W        W76300  24.105   8.118  10.731
 9892W        W76301  18.732  43.491  10.561
 9893W        W76302  36.495   4.545  12.459
 9894W        W76303  19.876  24.787   0.906
 9895W        W76304  28.251  34.304   9.941
 9896W        W76305  38.547  39.000   4.335
 9897W        W76306  31.126  29.659  12.138
 9898W        W76307  41.351  26.220   4.888
 9899W        W76308  43.584  29.429  12.197
 9900W        W76309  17.875  20.709   3.707
 9901W        W76310  35.871   8.301   3.200
 9902W        W76311  15.682  19.416   4.655
 9903W        W76312  37.895  22.588   4.059
 9904W        W76313  38.020  14.420  11.915
 9905W        W76314   5.766  23.786   2.581
 9906W        W76315  41.008   3.469  14.183
 9907W        W76316  23.723  37.279   2.191
 9908W        W76317  20.233   8.308   2.741
 9909W        W76318  11.152  11.903  13.859
 9910W        W76319  16.094  44.619  13.718
 9911W        W76320  41.247  10.040  11.001
 9912W        W76321  25.450  29.723   4.280
 9913W        W76322   0.404  10.096  14.903
 9914W        W76323  22.887  23.595  13.000
 9915W        W76324  34.626  34.845  13.305
 9916W        W76325  12.878   1.381  13.919
 9917W        W76326  21.546   3.823  11.345
 9918W        W76327   9.526  23.974  12.095
 9919W        W76328  27.231  24.304   3.534
 9920W        W76329  18.844  36.591   0.476
 9921W        W76330  16.252  36.965  13.054
 9922W        W76331  18.622   0.933  14.798
 9923W        W76332  24.983  40.291  10.742
 9924W        W76333   2.915  16.038   3.166
 9925W        W76334  11.301   7.741  10.523
 9926W        W76335   8.351  11.100  12.516
 9927W        W76336  13.697  40.991  12.591
 9928W        W76337  23.680  16.066   3.807
 9929W        W76338  23.715   6.390   2.619
 9930W        W76339  22.003  19.171  14.539
 9931W        W76340  10.537  27.140   4.742
 9932W        W76341  36.356  28.702   1.284
 9933W        W76342  11.451  23.082   0.574
 9934W        W76343  32.600  38.070  13.426
 9935W        W76344  22.074  30.132   0.512
 9936W        W76345  23.156   7.751  13.978
 9937W        W76346   9.244  19.566   1.695
 9938W        W76347  27.444   3.974   1.667
 9939W        W76348  15.225  22.300   4.530
 9940W        W76349   7.363  16.620   0.778
 9941W        W76350  33.507  31.691  14.392
 9942W        W76351  21.572  19.453  12.984
 9943W        W76352  32.674  40.954   4.484
 9944W        W76353  20.141  10.523  12.985
 9945W        W76354  15.140  29.742   1.776
 9946W        W76355   9.329  41.937  14.462
 9947W        W76356  11.880  13.902   4.268
 9948W        W76357  31.129  19.675   1.427
 9949W        W76358  34.447  44.709  14.504
 9950W        W76359   7.013  24.664  12.043
 9951W        W76360   2.832  35.376  14.341
 9952W        W76361   6.168  38.476   3.741
 9953W        W76362   1.906  13.339   4.950
 9954W        W76363  12.121  17.785   3.560
 9955W        W76364  38.118  30.806   2.739
 9956W        W76365  36.533  18.511   2.327
 9957W        W76366  25.484  28.114   3.286
 9958W        W76367   3.889   9.574  11.701
 9959W        W76368   8.003   1.283  14.449
 9960W        W76369   6.278   7.424  14.272
 9961W        W76370   6.683  14.147  11.597
 9962W        W76371   2.449  29.440   1.217
 9963W        W76372   2.217  28.064  14.518
 9964W        W76373  16.107  17.788   0.902
 9965W        W76374  12.428  13.279   1.949
 9966W        W76375   8.375   2.566  10.674
 9967W        W76376   5.650   2.322  14.748
 9968W        W76377   1.752  27.665  12.061
 9969W        W76378  15.826   0.178   0.723
 9970W        W76379   3.931  33.022  10.687
 9971W        W76380  24.962  14.201  10.704
 9972W        W76381  10.733  11.688  12.226
 9973W        W76382   7.870  41.770  10.777
 9974W        W76383   7.597  40.594  14.334
 9975W        W76384  30.983   9.374   0.998
 9976W        W76385   9.265  34.304   1.776
 9977W        W76386  26.584  25.507   0.931
 9978W        W76387  11.838  44.283  11.098
 9979W        W76388  38.669  32.972  11.601
 9980W        W76389  14.477  11.893   0.769
 9981W        W76390  31.361   3.804  13.467
 9982W        W76391  20.250  38.861  10.719
 9983W        W76392  16.283  26.609  10.446
 9984W        W76393  23.819  11.137   4.263
 9985W        W76394  24.728   9.887   1.840
 9986W        W76395  29.759  44.128  14.967
 9987W        W76396  18.455   6.941   0.260
 9988W        W76397  19.238  12.686  14.080
 9989W        W76398  35.539   4.200  10.750
 9990W        W76399  36.080  14.163  14.856
 9991W        W76400  42.303   5.467   0.791
 9992W        W76401   0.431  44.259  10.544
 9993W        W76402   8.384  28.445   1.266
 9994W        W76403  40.007   1.077  13.960
 9995W        W76404  26.618  30.984   0.611
 9996W        W76405   0.057  14.437  13.964
 9997W        W76406  42.930   1.522   0.875
 9998W        W76407   5.197  20.229  11.576
 9999W        W76408   5.177  30.723  14.941
10000W        W76409  14.319  16.512  12.682
10001W        W76410   8.266  39.804   0.003
10002W        W76411   8.235  25.195   3.800
10003W        W76412  39.480  24.645   3.326
10004W        W76413  18.030   7.002  10.739
10005W        W76414  43.440  27.781   1.474
10006W        W76415   6.826  43.922   1.416
10007W        W76416  12.426   4.686   4.726
10008W        W76417  32.892  17.175  13.272
10009W        W76418   5.094  25.202   5.289
10010W        W76419   9.320   8.929  11.733
10011W        W76420  14.060  34.649   4.985
10012W        W76421   2.011  41.339  11.145
10013W        W76422  37.064  39.438  11.266
10014W        W76423   8.920  37.168  14.822
10015W        W76424  13.571  28.369   4.649
10016W        W76425  27.245  25.988  12.512
10017W        W76426  27.091  32.548   3.125
10018W        W76427  12.632   3.756   4.142
10019W        W76428  15.782  32.671   4.967
10020W        W76429  21.122  43.445   1.031
10021W        W76430  15.803  43.942   0.313
10022W        W76431  16.902  13.574  10.858
10023W        W76432  32.880  34.375   4.576
10024W        W76433  29.852  22.021  14.737
10025W        W76434  14.325  26.060  14.362
10026W        W76435  41.705  28.955  12.568
10027W        W76436  26.035  19.725   4.430
10028W        W76437   8.829   0.499   3.806
10029W        W76438  10.385  33.452  12.495
10030W        W76439  16.044  42.821  13.427
10031W        W76440  39.501   0.267   0.435
10032W        W76441  10.619  21.709   3.735
10033W        W76442  18.860  40.301   2.646
10034W        W76443  32.368  20.444   1.348
10035W        W76444  25.125  16.016   3.423
10036W        W76445  39.115  41.429   0.808
10037W        W76446  33.682  20.078  13.325
10038W        W76447  18.976  39.942  10.610
10039W        W76448  42.687  41.754  14.487
10040W        W76449  15.052  35.326   3.393
10041W        W76450  21.471  18.808  10.715
10042W        W76451  40.383  13.200  11.694
10043W        W76452   9.634  32.312  11.659
10044W        W76453  32.540  22.164   0.012
10045W        W76454  40.981  19.667   2.660
10046W        W76455  43.665  37.499  12.787
10047W        W76456  37.381  35.192  13.084
10048W        W76457  21.700  16.131   2.662
10049W        W76458  39.946  28.507  11.902
10050W        W76459  27.847  19.116  14.220
10051W        W76460   2.435   1.725   2.856
10052W        W76461   0.494  10.152   4.754
10053W        W76462  33.739  34.273  13.976
10054W        W76463   2.883  15.131   2.190
10055W        W76464  33.707  34.228  14.926
10056W        W76465   5.744  11.698   3.588
10057W        W76466  18.582  28.211   5.023
10058W        W76467   6.423  31.372   1.451
10059W        W76468   5.786  16.382  11.155
10060W        W76469  28.891  29.054  14.142
10061W        W76470  41.796  42.726  10.059
10062W        W76471  31.519  13.623  13.750
10063W        W76472   8.613  21.765   3.341
10064W        W76473  10.116  41.336  11.016
10065W        W76474  29.625  31.062  12.859
10066W        W76475  39.992  17.773   0.465
10067W        W76476  43.420  31.547   1.923
10068W        W76477  13.232  12.061   4.143
10069W        W76478  40.746  30.835   2.280
10070W        W76479  37.643  41.855  11.488
10071W        W76480  34.655  19.550  12.772
10072W        W76481  32.196  37.855   0.849
10073W        W76482  39.442  13.733   1.165
10074W        W76483   8.172  25.964   0.367
10075W        W76484  42.833  21.051   0.977
10076W        W76485  44.431  11.118   2.218
10077W        W76486  21.704  12.756  14.259
10078W        W76487   6.821  32.211   4.456
10079W        W76488  35.894   7.120  12.365
10080W        W76489  31.738   8.748  14.956
10081W        W76490  16.188  33.949   2.766
10082W        W76491  33.050   3.478  12.974
10083W        W76492   2.287  26.456   3.735
10084W        W76493  42.481   1.357   1.518
10085W        W76494   7.468  30.459  13.868
10086W        W76495  11.795  35.925  13.940
10087W        W76496  36.509  34.931  12.967
10088W        W76497   9.926  43.032   3.152
10089W        W76498  44.931  44.251   4.256
10090W        W76499  21.165  14.842   2.885
10091W        W76500  31.449  18.292   3.278
10092W        W76501  16.368   4.293  10.638
10093W        W76502   8.713  26.073  12.911
10094W        W76503  25.543  20.209   4.568
10095W        W76504   3.208  32.097   3.172
10096W        W76505  32.543  16.643   1.636
10097W        W76506  26.309   2.768   1.580
10098W        W76507   1.356  31.557   4.162
10099W        W76508  21.399   1.725  11.268
10100W        W76509   8.519   8.443  14.469
10101W        W76510  44.338  30.472   3.479
10102W        W76511  27.903  32.476  13.825
10103W        W76512   6.645  18.757   3.707
10104W        W76513  44.954  10.380   1.090
10105W        W76514   0.515  22.470  12.618
10106W        W76515   9.108  27.749  13.235
10107W        W76516   8.789  29.987   2.371
10108W        W76517  11.007  32.421   0.379
10109W        W76518  30.478  26.150   2.314
10110W        W76519  33.105  37.415   4.582
10111W        W76520  34.761  29.901   0.935
10112W        W76521  44.639  15.666  10.750
10113W        W76522   5.866  22.148  12.567
10114W        W76523  34.225  39.904  13.988
10115W        W76524   2.108  13.004  10.821
10116W        W76525  37.056  11.773  12.065
10117W        W76526  11.766  34.820   1.863
10118W        W76527  33.400  25.772   4.217
10119W        W76528  20.073  31.875   0.457
10120W        W76529  30.028   9.375   1.165
10121W        W76530  38.421  38.931   2.854
10122W        W76531   0.412  18.716   4.713
10123W        W76532  29.108  42.754   3.253
10124W        W76533  32.127  19.629   3.298
10125W        W76534  13.292  29.470   2.904
10126W        W76535  31.802  31.436   2.096
10127W        W76536  43.001   0.210   0.159
10128W        W76537  29.328  23.490   3.298
10129W        W76538   8.844   8.819  11.542
10130W        W76539   2.605  35.815   5.231
10131W        W76540   6.006  42.979  14.951
10132W        W76541  16.744  36.983   4.206
10133W        W76542   4.171  15.341   2.088
10134W        W76543   7.340   4.369  14.017
10135W        W76544  33.027  17.158  12.414
10136W        W76545  43.556  22.304   2.347
10137W        W76546   1.298  24.843   4.788
10138W        W76547  33.516   0.511  12.565
10139W        W76548  29.563  11.945  12.607
10140W        W76549  13.040  24.913  12.814
10141W        W76550  40.866  30.511   0.545
10142W        W76551  24.508  16.740  11.616
10143W        W76552  42.877  24.210   1.643
10144W        W76553   2.281  24.902   3.758
10145W        W76554  39.855  31.379  12.256
10146W        W76555  26.393   3.392   4.692
10147W        W76556  13.228   7.287   0.648
10148W        W76557  16.035  21.060  13.571
10149W        W76558   0.288  15.288  12.468
10150W        W76559  11.271  24.084  13.723
10151W        W76560   3.820   8.492  13.409
10152W        W76561  34.969  36.995   2.846
10153W        W76562  33.485  14.823  11.217
10154W        W76563  16.384   9.727   1.352
10155W        W76564  15.666  18.479   4.204
10156W        W76565  40.508  21.816  11.022
10157W        W76566   7.949  35.320   2.637
10158W        W76567   1.286  36.929   3.695
10159W        W76568  32.379  33.314   4.998
10160W        W76569  36.146  13.842   2.652
10161W        W76570  28.043  36.517  13.220
10162W        W76571  37.210  33.956   1.883
10163W        W76572  18.187   2.427   0.365
10164W        W76573  26.960  15.800   3.211
10165W        W76574  17.247  38.324  14.753
10166W        W76575  13.070  40.548  11.985
10167W        W76576   4.436   3.872  12.984
10168W        W76577   4.635  18.833   4.225
10169W        W76578  28.661   4.793  13.268
10170W        W76579  10.391  35.450   4.572
10171W        W76580  41.373  41.272  12.615
10172W        W76581   6.029  44.253   4.182
10173W        W76582  25.709  18.922   5.055
10174W        W76583  22.586  43.347   0.030
10175W        W76584  17.733  30.843   0.986
10176W        W76585  32.807   4.496  14.902
10177W        W76586  43.224   5.812   2.234
10178W        W76587  12.025  14.266  13.594
10179W        W76588  27.092   8.915  13.859
10180W        W76589  32.052   1.892   2.840
10181W        W76590  28.696  25.824   0.688
10182W        W76591   8.134  13.086  11.231
10183W        W76592   4.441   8.752   4.536
10184W        W76593   2.118  35.042  12.803
10185W        W76594  26.012  22.255  12.673
10186W        W76595  17.263  34.341  13.550
10187W        W76596   3.710  42.919  14.736
10188W        W76597  33.832  34.399   1.257
10189W        W76598  43.420  10.785  12.131
10190W        W76599  21.328   4.370   3.304
10191W        W76600  15.379  23.130   4.951
10192W        W76601  17.384   6.297  13.024
10193W        W76602   4.287  36.613   4.554
10194W        W76603   5.681  20.633   0.798
10195W        W76604  17.184  31.204  12.451
10196W        W76605   7.895   2.289  11.031
10197W        W76606   8.096  44.857  10.871
10198W        W76607  24.955  26.399  12.931
10199W        W76608  24.530  10.670   4.676
10200W        W76609   7.348  31.546   1.315
10201W        W76610   3.890  33.211  14.773
10202W        W76611  26.207  31.027   1.791
10203W        W76612  22.091  19.780   1.233
10204W        W76613  42.127   3.053   0.405
10205W        W76614  28.860  12.416   0.149
10206W        W76615  13.286  20.175  14.830
10207W        W76616  23.135  13.396   2.689
10208W        W76617   3.052  30.866   0.316
10209W        W76618  23.736  39.784  14.487
10210W        W76619   4.496  35.536  14.141
10211W        W76620  44.967  26.051   1.742
10212W        W76621  16.679  14.810   4.628
10213W        W76622  32.089   8.635   2.782
10214W        W76623  27.906  17.654   5.055
10215W        W76624  16.422  35.052   0.714
10216W        W76625  13.004  36.996   4.638
10217W        W76626  25.495  17.667  11.502
10218W        W76627  30.993  42.094  12.882
10219W        W76628  34.109  28.461  11.638
10220W        W76629  35.825  22.302  14.381
10221W        W76630  32.627  25.219  14.817
10222W        W76631  14.558  18.569  10.255
10223W        W76632  36.408   1.901   2.140
10224W        W76633  28.968  22.717  14.560
10225W        W76634   2.325  22.695   4.552
10226W        W76635  10.072  24.020  10.208
10227W        W76636  15.184   1.327   3.093
10228W        W76637  25.470  41.766   2.740
10229W        W76638  28.214   1.046   0.519
10230W        W76639  32.716  39.628   3.337
10231W        W76640  35.850  32.113  11.011
10232W        W76641  26.188  40.354   0.830
10233W        W76642  30.941  37.809   4.213
10234W        W76643  22.990  17.809   2.733
10235W        W76644  42.345  21.719  13.064
10236W        W76645  27.026  44.752   0.493
10237W        W76646  31.863  12.764   1.906
10238W        W76647  38.361  15.880   4.455
10239W        W76648   2.255   2.213   2.835
10240W        W76649   3.866  43.475  10.701
10241W        W76650  18.522  12.246  14.490
10242W        W76651  23.607   4.159  14.376
10243W        W76652   4.688  35.753   0.607
10244W        W76653  26.524  36.723  12.834
10245W        W76654  31.916   6.327   3.132
10246W        W76655  42.457  12.876   4.292
10247W        W76656  36.770  25.009  14.947
10248W        W76657  31.106  25.044   1.137
10249W        W76658  35.068  30.296   2.190
10250W        W76659   8.322  29.618   4.014
10251W        W76660  42.367  15.837   1.929
10252W        W76661  16.101  40.051  12.510
10253W        W76662  11.197   1.495   2.341
10254W        W76663   0.471   3.977  12.989
10255W        W76664  18.831  17.165  12.595
10256W        W76665   1.016   8.441  12.612
10257W        W76666  13.658   5.324   1.384
10258W        W76667  37.342  28.912   0.436
10259W        W76668  39.649  44.539   3.657
10260W        W76669   5.204  43.773  13.341
10261W        W76670  26.474  26.462   3.666
10262W        W76671   2.957  16.170   1.341
10263W        W76672  36.531  20.565   2.112
10264W        W76673   4.396  19.463   4.042
10265W        W76674  10.680  13.844  11.256
10266W        W76675  33.981  37.523  12.982
10267W        W76676  25.556   2.093  11.861
10268W        W76677   9.936   2.508  11.154
10269W        W76678  42.683  34.944  14.315
10270W        W76679   1.766  13.252   3.946
10271W        W76680  25.505  37.466  14.399
10272W        W76681   9.565   0.069   3.730
10273W        W76682  12.676  43.217   2.793
10274W        W76683  12.744   3.163   5.301
10275W        W76684  19.636  44.794   4.570
10276W        W76685  28.469  28.458   0.928
10277W        W76686  43.437   9.340   0.261
10278W        W76687  22.607  24.053  12.867
10279W        W76688  13.048  32.176  11.016
10280W        W76689   0.838  16.155  12.453
10281W        W76690  32.948   8.653   3.201
10282W        W76691  31.022   5.576  13.850
10283W        W76692  35.342   4.511  11.115
10284W        W76693   9.221  44.775   4.617
10285W        W76694   7.165   6.237  13.368
10286W        W76695  34.991  34.881   2.639
10287W        W76696  19.338  30.419   3.672
10288W        W76697  34.920   1.395  13.549
10289W        W76698  29.972   1.177   2.206
10290W        W76699   5.166  26.446  13.887
10291W        W76700  38.802  41.532  14.913
10292W        W76701  12.731  29.988   3.705
10293W        W76702  29.100  27.805  10.795
10294W        W76703  26.788   0.606   3.301
10295W        W76704  12.086   8.178   2.765
10296W        W76705  24.912   8.758  10.206
10297W        W76706  24.139  18.001   1.443
10298W        W76707  11.759   3.001  12.310
10299W        W76708  40.880  20.013  11.163
10300W        W76709  19.369  34.428   1.874
10301W        W76710  19.042  28.664  14.454
10302W        W76711  23.857  28.975   2.901
10303W        W76712   8.789  38.587   3.181
10304W        W76713  37.458  39.873   0.413
10305W        W76714   8.817  42.438  10.950
10306W        W76715  15.827   9.304  11.904
10307W        W76716  31.552  26.090  13.840
10308W        W76717  39.512  36.843  10.655
10309W        W76718   0.688  21.140  11.007
10310W        W76719  16.565  19.748   2.894
10311W        W76720  15.840  22.138   0.803
10312W        W76721   1.737  43.464   0.981
10313W        W76722  16.221  41.727   5.469
10314W        W76723  22.715  35.361   0.011
10315W        W76724  32.609  11.725   3.399
10316W        W76725   6.800  28.013  11.328
10317W        W76726  35.279  41.264   2.503
10318W        W76727  38.636  31.191  14.356
10319W        W76728  41.199  28.607  13.901
10320W        W76729  28.991  27.222  11.941
10321W        W76730  33.869  36.926  11.192
10322W        W76731  19.982   7.276   4.405
10323W        W76732  21.727  11.643  13.440
10324W        W76733  28.716  15.649  14.968
10325W        W76734  37.931  42.496   3.562
10326W        W76735  25.312   0.314   0.653
10327W        W76736  20.857  26.606   5.180
10328W        W76737   8.562  31.067  14.798
10329W        W76738  38.355   0.414   3.188
10330W        W76739  41.389  38.129   2.823
10331W        W76740   8.298  26.132  11.117
10332W        W76741  29.272  12.835   3.764
10333W        W76742   3.760  19.371  12.541
10334W        W76743  22.569  29.403  10.705
10335W        W76744  34.051  25.513   3.900
10336W        W76745   1.489  24.719   0.429
10337W        W76746  15.802  15.737  14.869
10338W        W76747  19.545   9.884   3.409
10339W        W76748   6.636   5.795   1.822
10340W        W76749  16.002  24.526   1.439
10341W        W76750  10.594   6.924  14.178
10342W        W76751  28.756  21.068   0.505
10343W        W76752   0.935   8.156   1.891
10344W        W76753  27.241  42.535  14.920
10345W        W76754  22.598  36.294  13.185
10346W        W76755  33.672   1.384  12.479
10347W        W76756   4.184   3.774   0.330
10348W        W76757  11.315  39.939  13.359
10349W        W76758  29.638  42.816  13.666
10350W        W76759  35.809  25.968  14.556
10351W        W76760  24.254  40.792  12.034
10352W        W76761  19.359  35.404   1.746
10353W        W76762  22.617  31.852   0.909
10354W        W76763  32.572  24.797   0.614
10355W        W76764  32.721  32.915  12.101
10356W        W76765  31.930  15.467  13.999
10357W        W76766   9.622   7.537  10.190
10358W        W76767  33.684  34.453  11.745
10359W        W76768  39.112  12.718  14.557
10360W        W76769  15.797  33.543   4.657
10361W        W76770  13.423  24.517  12.885
10362W        W76771  19.146  30.346  14.739
10363W        W76772  14.249  41.946  10.381
10364W        W76773  18.247  40.098   4.853
10365W        W76774  21.494  11.263   4.540
10366W        W76775  13.866  44.735   4.403
10367W        W76776  18.201  14.694  11.130
10368W        W76777  33.272  33.520   4.512
10369W        W76778   2.859  15.353  10.807
10370W        W76779   7.351  31.364   2.303
10371W        W76780  25.131  40.974  14.570
10372W        W76781   4.754  42.588   5.019
10373W        W76782  42.128  20.631   3.742
10374W        W76783  41.479  42.706  10.494
10375W        W76784  28.543  31.707   0.975
10376W        W76785   0.588  10.196  11.691
10377W        W76786  23.097   9.016  14.995
10378W        W76787  43.807  34.321   2.370
10379W        W76788  19.769  14.410   1.654
10380W        W76789  14.181  26.806   0.706
10381W        W76790  44.739   5.982   1.143
10382W        W76791   6.640  17.575   3.706
10383W        W76792  15.633  39.171   5.014
10384W        W76793   9.641   3.945   2.826
10385W        W76794  40.615  26.465  14.308
10386W        W76795  24.702  14.370   0.861
10387W        W76796   9.782  44.197   0.024
10388W        W76797  12.494  44.850   2.352
10389W        W76798  37.864   8.183   0.280
10390W        W76799  35.583  38.393   0.080
10391W        W76800  17.827  23.702   0.082
10392W        W76801   3.398   8.147  14.814
10393W        W76802  27.843  34.467   1.215
10394W        W76803   7.621   6.304   2.704
10395W        W76804  12.144  27.081   0.993
10396W        W76805  29.629  29.873   0.744
10397W        W76806  40.202  11.648   0.770
10398W        W76807  39.613  37.516  14.480
10399W        W76808  30.923  28.169   0.463
10400W        W76809  23.478  17.627  11.625
10401W        W76810  34.991  40.027  11.582
10402W        W76811  21.483  19.115   3.256
10403W        W76812   9.207  30.118  13.468
10404W        W76813  17.367  26.628   2.795
10405W        W76814  16.281  13.877  13.907
10406W        W76815   2.678   6.169   1.363
10407W        W76816  40.529  41.025   1.824
10408W        W76817  18.528   9.907  12.146
10409W        W76818  40.673   3.006   2.728
10410W        W76819  21.646  40.585   3.924
10411W        W76820  33.506  19.165  10.523
10412W        W76821  27.144  14.308   4.649
10413W        W76822   0.354   8.228  14.838
10414W        W76823  36.056  29.644  13.811
10415W        W76824  39.612   2.212   1.513
10416W        W76825  21.269  38.282   0.793
10417W        W76826   3.460   4.893  12.220
10418W        W76827  27.900   5.723  13.972
10419W        W76828  30.615  42.921   1.917
10420W        W76829  26.160  10.822   0.351
10421W        W76830   1.219  34.534  13.316
10422W        W76831   6.233   1.732  14.405
10423W        W76832  44.695  24.012  11.707
10424W        W76833  36.415  17.612   5.574
10425W        W76834  29.064  39.081  12.436
10426W        W76835  26.211   9.188  13.516
10427W        W76836  39.156  30.277   3.407
10428W        W76837  30.679  43.969  11.410
10429W        W76838  25.248  35.341   4.811
10430W        W76839  42.049  25.489  14.349
10431W        W76840   5.434  20.844   2.139
10432W        W76841  40.224  33.374  13.489
10433W        W76842  26.195   2.340  10.993
10434W        W76843   6.718   6.756   0.473
10435W        W76844  18.730  29.917  11.541
10436W        W76845  10.271  38.858   4.669
10437W        W76846   3.552  33.648   1.462
10438W        W76847  21.701   4.363  10.684
10439W        W76848  13.607   9.111  14.833
10440W        W76849  30.015  16.249   1.179
10441W        W76850  25.396   9.987  10.747
10442W        W76851   8.467   8.251   2.358
10443W        W76852  44.065  42.546   1.662
10444W        W76853  27.774  15.479   0.111
10445W        W76854  25.603  43.552  11.557
10446W        W76855  12.913  21.331  11.685
10447W        W76856   9.389  25.263   4.052
10448W        W76857  36.420  26.548  12.257
10449W        W76858  29.433   4.868   0.839
10450W        W76859  19.522  18.378   4.213
10451W        W76860  22.181   8.204  14.870
10452W        W76861  12.200   2.714  13.519
10453W        W76862  24.423  15.114  11.035
10454W        W76863  12.679  34.069   3.942
10455W        W76864  35.828  22.077  12.165
10456W        W76865  37.859  16.033   2.717
10457W        W76866   3.875  27.185  11.755
10458W        W76867   9.101  34.189   4.990
10459W        W76868  37.067   2.934   0.386
10460W        W76869  30.467   9.482  12.512
10461W        W76870   0.397   8.618   1.816
10462W        W76871   7.683  36.003   1.689
10463W        W76872  20.980  17.680   4.590
10464W        W76873  18.802   4.278   2.248
10465W        W76874  36.928  37.560  13.375
10466W        W76875  13.370  39.331   3.083
10467W        W76876  42.670  24.691  12.573
10468W        W76877   2.215  31.885   0.783
10469W        W76878  44.464  21.275   2.170
10470W        W76879  14.062   1.369   2.223
10471W        W76880  19.063   0.525  11.918
10472W        W76881  22.100  38.316  12.979
10473W        W76882  29.527   2.439  14.671
10474W        W76883  39.889  29.883  14.271
10475W        W76884  23.546  41.581   2.243
10476W        W76885  20.390  18.777  13.317
10477W        W76886  44.451  22.714  11.679
10478W        W76887   7.474  20.700  14.734
10479W        W76888  12.667  32.386   2.272
10480W        W76889  34.615  19.039   0.940
10481W        W76890  12.190  33.578   0.550
10482W        W76891   3.432  40.816   2.291
10483W        W76892   7.083  37.552  11.887
10484W        W76893  21.979  40.429  14.865
10485W        W76894  14.757   0.630  10.206
10486W        W76895   0.834  22.340   4.592
10487W        W76896  30.125  37.074   3.259
10488W        W76897   2.186  43.781   3.275
10489W        W76898   4.737  36.366  11.563
10490W        W76899  40.539  39.983   3.149
10491W        W76900  41.292  23.294  10.815
10492W        W76901  39.368  42.273   2.406
10493W        W76902   9.608  17.829   1.477
10494W        W76903   3.737  34.159  14.834
10495W        W76904  26.769  22.016   2.605
10496W        W76905  11.859   7.980   4.918
10497W        W76906   0.718  16.795  13.544
10498W        W76907  23.428  32.141  12.565
10499W        W76908  35.912  35.867   2.281
10500W        W76909  27.949  42.299   0.203
10501W        W76910  15.734  28.296   4.955
10502W        W76911  13.233  42.010  12.982
10503W        W76912  21.040  44.044  12.293
10504W        W76913  22.634  11.223  14.801
10505W        W76914  34.428   3.396  11.689
10506W        W76915  15.858  23.275   0.842
10507W        W76916   8.432  43.453   3.355
10508W        W76917   5.348  22.313  10.730
10509W        W76918  32.935  36.268   2.241
10510W        W76919  36.501   5.160  13.930
10511W        W76920  38.372  41.198  11.141
10512W        W76921  31.220  38.890  11.253
10513W        W76922  33.861  10.336   0.380
10514W        W76923  32.953  38.467   0.990
10515W        W76924  40.815  32.493  13.553
10516W        W76925   0.172  38.390   1.553
10517W        W76926  30.602  19.529  12.087
10518W        W76927  43.861  41.095   1.760
10519W        W76928  11.293  21.988  10.906
10520W        W76929  24.738  32.494  10.574
10521W        W76930  36.707  23.091  14.406
10522W        W76931  42.451  23.064   0.156
10523W        W76932   2.849  16.861  14.075
10524W        W76933  26.483  36.690   4.289
10525W        W76934   3.437   6.230  13.767
10526W        W76935   1.019  35.980   2.273
10527W        W76936   3.040   3.116  14.036
10528W        W76937  25.056  33.382   2.109
10529W        W76938  38.462   4.701  11.425
10530W        W76939   4.271  19.408  12.629
10531W        W76940   0.499  39.872   1.728
10532W        W76941  12.800   6.349   1.903
10533W        W76942  36.695  36.863  10.804
10534W        W76943   8.958  35.645  10.725
10535W        W76944   6.035   3.179  13.133
10536W        W76945  18.237  21.127   2.913
10537W        W76946  25.497   0.557  12.873
10538W        W76947  31.498  35.058  14.518
10539W        W76948   7.064  23.428  12.996
10540W        W76949  40.797   6.920   0.272
10541W        W76950  19.759   9.527  13.956
10542W        W76951  40.435   0.965   1.281
10543W        W76952  35.939  16.058  13.033
10544W        W76953  21.349   2.991   3.326
10545W        W76954   4.277  33.861   0.003
10546W        W76955  25.958  15.500   4.362
10547W        W76956  16.268  38.888  14.816
10548W        W76957  31.903   7.224   2.722
10549W        W76958  36.352  40.092   0.986
10550W        W76959   8.729  38.922  10.746
10551W        W76960  17.196  27.201  13.949
10552W        W76961  16.620  11.283  11.235
10553W        W76962  20.838  28.415  13.418
10554W        W76963  15.139  28.907   2.158
10555W        W76964   4.174  24.457   0.805
10556W        W76965  27.565  36.160  12.052
10557W        W76966  16.860  14.706   3.236
10558W        W76967  35.111  20.709   3.347
10559W        W76968  10.853  42.962   3.305
10560W        W76969  12.888  30.297   0.393
10561W        W76970   5.878  40.103  13.836
10562W        W76971  27.992  34.285   5.027
10563W        W76972  44.010  16.725  12.942
10564W        W76973  32.045   8.259   4.125
10565W        W76974  27.207  26.288   0.769
10566W        W76975  13.500  44.625   1.881
10567W        W76976  27.762  22.617  14.911
10568W        W76977  11.146   4.372  12.994
10569W        W76978  35.477  36.996   0.020
10570W        W76979  11.580  13.606   0.245
10571W        W76980  28.502  38.610   3.656
10572W        W76981  40.714  18.105  13.731
10573W        W76982  32.010  14.183  13.598
10574W        W76983   1.723  44.326  14.592
10575W        W76984  40.170   6.213   3.011
10576W        W76985  16.671  37.201   9.638
10577W        W76986   9.336  22.226   2.710
10578W        W76987   5.264  34.092  11.256
10579W        W76988   1.375  28.894   0.308
10580W        W76989  24.469  26.580   0.873
10581W        W76990  23.709  12.735  13.984
10582W        W76991   7.726  24.244   1.328
10583W        W76992   9.302  14.026   1.287
10584W        W76993  31.144   2.508  13.600
10585W        W76994  18.755  29.121  13.168
10586W        W76995  35.423  17.224  10.237
10587W        W76996  33.897  34.061   1.676
10588W        W76997   9.371  31.527   0.500
10589W        W76998  23.930  32.125   2.797
10590W        W76999  43.632  10.486   5.365
10591W        W77000  30.465   5.400  11.408
10592W        W77001  38.021  21.347  13.014
10593W        W77002  40.503   2.239  13.446
10594W        W77003   0.717  37.618   2.689
10595W        W77004  34.622   4.846   0.798
10596W        W77005  36.436  40.052  14.481
10597W        W77006  14.267   0.423  10.247
10598W        W77007  42.543  25.508   2.836
10599W        W77008  43.366  30.129  14.857
10600W        W77009  20.059  38.013   2.797
10601W        W77010  34.441  18.986  11.178
10602W        W77011  40.209  36.365   4.508
10603W        W77012  37.799  10.715  12.913
10604W        W77013  27.565   2.753   2.645
10605W        W77014   7.238  27.957  13.459
10606W        W77015  34.580  19.848  11.512
10607W        W77016  37.870  13.586  13.767
10608W        W77017  24.614  41.516   0.910
10609W        W77018  30.972  30.415   1.853
10610W        W77019  11.829  36.354   1.369
10611W        W77020   9.492  19.791  14.293
10612W        W77021  34.766  12.838  12.991
10613W        W77022  35.370  17.523   4.389
10614W        W77023  21.605  37.377   1.150
10615W        W77024  27.583  22.133   0.311
10616W        W77025  32.619  30.687  11.661
10617W        W77026  39.594  22.987   4.895
10618W        W77027  43.489  39.109  10.130
10619W        W77028  40.053  25.895  12.016
10620W        W77029   2.439  25.032  12.379
10621W        W77030  39.856  19.069   1.940
10622W        W77031   0.895  22.063   3.712
10623W        W77032  14.843  11.153   2.837
10624W        W77033  23.767  23.556  12.746
10625W        W77034  32.938   0.346   4.794
10626W        W77035  23.796  32.068  11.189
10627W        W77036  30.488  18.327  12.741
10628W        W77037  23.374   1.819   2.658
10629W        W77038  16.934  31.599   3.196
10630W        W77039  37.413   5.677   2.674
10631W        W77040  30.892  17.646   2.424
10632W        W77041  22.071  21.039   3.575
10633W        W77042  21.343  43.420   0.571
10634W        W77043  40.044  18.689  11.305
10635W        W77044   3.888  27.688  11.671
10636W        W77045  26.517  31.596  13.592
10637W        W77046  16.710  22.873   4.566
10638W        W77047  27.547  34.615   4.132
10639W        W77048  20.995  34.678  11.164
10640W        W77049  23.581  28.921   1.427
10641W        W77050  36.656  16.782  12.962
10642W        W77051  27.072   6.769  12.166
10643W        W77052  22.291  34.644   0.956
10644W        W77053  12.677   9.361  12.993
10645W        W77054  37.208  26.954   1.294
10646W        W77055  28.549  44.714   3.707
10647W        W77056  44.041   1.358  11.267
10648W        W77057  12.843  11.657  14.847
10649W        W77058  29.663  29.217   1.120
10650W        W77059  30.138  17.624  14.373
10651W        W77060  21.061  39.570  10.582
10652W        W77061  10.695   0.737  12.011
10653W        W77062  32.096   6.882  10.361
10654W        W77063  23.614   5.920  13.924
10655W        W77064   3.351  27.161  11.742
10656W        W77065  39.903  39.285   4.663
10657W        W77066  10.964  16.690   4.489
10658W        W77067  39.491  20.680  13.877
10659W        W77068  33.065  20.117  14.861
10660W        W77069  17.304  13.327  13.085
10661W        W77070  26.117  24.117   4.565
10662W        W77071   1.342  28.399  11.930
10663W        W77072   1.929  31.440   3.096
10664W        W77073  26.013   6.005   4.288
10665W        W77074   9.733  41.611  11.223
10666W        W77075   6.953  12.740   3.308
10667W        W77076  19.911  10.175  11.114
10668W        W77077  27.985  17.841   4.187
10669W        W77078  15.191  38.960  11.571
10670W        W77079  41.952   5.850  11.625
10671W        W77080  22.563   4.429   4.861
10672W        W77081   8.048  35.105   1.968
10673W        W77082  10.662  26.263  13.522
10674W        W77083  12.665  35.056   0.828
10675W        W77084  43.747  33.495  14.929
10676W        W77085   9.433  29.833   4.993
10677W        W77086  41.917  29.444  14.982
10678W        W77087  24.687   6.124   3.643
10679W        W77088  42.461  33.476  12.380
10680W        W77089  28.897  23.964  11.883
10681W        W77090  44.818  34.087   3.540
10682W        W77091  22.154  37.094  11.799
10683W        W77092   9.924  17.333   0.330
10684W        W77093  14.538   0.481   1.593
10685W        W77094  41.308  29.647   0.686
10686W        W77095  32.619   4.294   1.310
10687W        W77096  19.006   5.404   2.935
10688W        W77097  29.557   3.644   4.126
10689W        W77098  19.508  21.285   4.987
10690W        W77099  31.426  34.238  10.518
10691W        W77100  24.605  44.459  10.551
10692W        W77101  39.184  12.115  10.724
10693W        W77102  27.199  38.047  12.856
10694W        W77103  42.962   3.988   0.812
10695W        W77104  40.920  42.873   1.829
10696W        W77105  33.926   6.267   4.358
10697W        W77106  18.601   9.149  13.032
10698W        W77107  32.533  19.716   3.604
10699W        W77108   7.853  16.069  11.035
10700W        W77109  30.954   7.164  12.718
10701W        W77110  35.660   4.431  10.294
10702W        W77111  11.256  16.723  10.831
10703W        W77112  11.075  13.179   0.837
10704W        W77113  23.888  24.300   1.977
10705W        W77114  37.174  33.634   3.719
10706W        W77115   2.201  10.790  13.578
10707W        W77116  36.770  40.865  12.604
10708W        W77117  24.177  25.215   3.697
10709W        W77118   9.652  25.141   4.558
10710W        W77119  20.862  37.435  11.175
10711W        W77120  39.664   9.092   1.239
10712W        W77121  25.611  32.878   2.786
10713W        W77122   7.731   2.955   0.953
10714W        W77123  15.337  33.999  13.444
10715W        W77124  24.245  42.019   4.681
10716W        W77125  24.215  21.240   4.948
10717W        W77126   2.049   3.307   2.181
10718W        W77127  24.419   8.227   3.187
10719W        W77128  18.093   4.261  14.236
10720W        W77129  25.583  34.815   2.673
10721W        W77130  13.543  13.285  10.715
10722W        W77131  27.989  19.029  11.014
10723W        W77132  42.966  26.014  13.783
10724W        W77133   3.037  23.406  10.452
10725W        W77134  44.995  29.891  14.867
10726W        W77135  38.464  28.967   2.369
10727W        W77136  15.704  18.008  14.593
10728W        W77137  39.422  41.035  14.720
10729W        W77138  10.664  43.378   4.520
10730W        W77139  27.612   2.788   0.325
10731W        W77140  26.162  29.543  11.604
10732W        W77141  22.000  12.078   3.278
10733W        W77142  39.319  43.546  12.572
10734W        W77143   3.701  20.078  13.089
10735W        W77144  14.506  33.497   5.024
10736W        W77145  13.659  25.593   2.478
10737W        W77146  11.027  32.424   3.709
10738W        W77147  18.031  22.141   2.386
10739W        W77148   8.816  22.252   1.452
10740W        W77149  23.222  43.507   2.702
10741W        W77150   0.267  43.443  11.113
10742W        W77151  16.695   9.919  12.033
10743W        W77152   4.261  16.546   4.111
10744W        W77153  17.608  18.551   2.713
10745W        W77154   5.980  32.546   1.291
10746W        W77155  17.625  19.659  14.929
10747W        W77156  12.153  44.661   5.339
10748W        W77157  28.489   5.337   0.806
10749W        W77158  25.220  17.905  11.061
10750W        W77159   6.090  34.915   1.989
10751W        W77160   1.982  34.715  11.305
10752W        W77161   2.744  40.758  10.821
10753W        W77162  43.110   2.343   1.159
10754W        W77163  30.874  31.698  14.568
10755W        W77164  32.675  40.461  10.521
10756W        W77165   6.870  42.405  14.840
10757W        W77166  38.797  41.452   2.259
10758W        W77167  19.176  14.199  14.954
10759W        W77168  14.728  31.881  10.741
10760W        W77169  26.314  38.993  13.818
10761W        W77170   6.297  40.849   3.852
10762W        W77171  19.650   5.136   0.445
10763W        W77172  12.676  22.225   4.558
10764W        W77173   2.406  18.803  12.721
10765W        W77174  35.062  39.815   2.132
10766W        W77175  26.027   1.287   1.354
10767W        W77176  11.560   6.308  14.310
10768W        W77177  34.604  35.337  13.515
10769W        W77178  30.380  11.224  12.263
10770W        W77179   0.428  41.520  13.311
10771W        W77180  19.142  37.972   2.713
10772W        W77181  10.607  19.343  13.499
10773W        W77182   8.900   5.814  14.334
10774W        W77183   1.296  14.042  12.683
10775W        W77184  44.259  35.649  13.450
10776W        W77185  30.248  33.618  14.727
10777W        W77186  14.808  44.111  12.609
10778W        W77187  36.465   2.454  11.668
10779W        W77188   2.245   4.357  14.027
10780W        W77189  10.667  37.054   2.734
10781W        W77190  23.696  29.499  14.177
10782W        W77191  25.456  31.001   3.765
10783W        W77192  14.757  37.292  11.727
10784W        W77193  13.817  26.246   0.579
10785W        W77194  25.621  22.221  12.081
10786W        W77195  18.812  19.224   0.148
10787W        W77196   5.795   5.130   0.317
10788W        W77197   3.278  21.039  10.169
10789W        W77198   1.930  35.600   3.750
10790W        W77199  28.013  39.717   4.842
10791W        W77200   8.130  43.068   3.187
10792W        W77201  18.267  28.068   4.634
10793W        W77202   5.385  10.994  14.383
10794W        W77203  15.864  44.803  14.777
10795W        W77204  26.106   3.939  13.063
10796W        W77205  15.462   4.657  13.607
10797W        W77206  43.914  26.219   3.763
10798W        W77207  38.672  34.917   3.212
10799W        W77208  42.457  22.979   3.728
10800W        W77209  39.320   8.748   2.394
10801W        W77210  24.134  44.885   2.740
10802W        W77211  44.463  29.904  12.158
10803W        W77212   4.276  21.867   4.625
10804W        W77213  37.476   8.827  13.258
10805W        W77214  12.215  16.144  14.528
10806W        W77215  30.829   2.879  13.374
10807W        W77216  38.228  24.675  14.083
10808W        W77217  41.765  35.741  11.499
10809W        W77218  23.713  20.767  13.586
10810W        W77219  30.623  44.070   0.704
10811W        W77220   5.419  23.115  14.505
10812W        W77221   6.625  33.022   2.678
10813W        W77222  27.475   0.512   2.496
10814W        W77223  25.932  10.843   3.606
10815W        W77224  20.139  27.559   4.735
10816W        W77225   9.353   3.771  11.996
10817W        W77226  28.951   4.471   4.977
10818W        W77227  32.735  30.823   0.700
10819W        W77228  29.101   1.832   1.582
10820W        W77229  41.142  11.375   2.638
10821W        W77230  28.546  20.112   0.387
10822W        W77231  30.507  30.440  11.178
10823W        W77232   6.882  29.164  14.344
10824W        W77233  41.958  25.234   0.276
10825W        W77234   6.881  39.226  12.924
10826W        W77235   4.277   7.017  14.339
10827W        W77236  10.634   5.271   4.732
10828W        W77237  38.608   5.661   4.147
10829W        W77238  33.884  12.281  12.824
10830W        W77239  19.066  10.216   2.865
10831W        W77240  43.179  39.940  13.096
10832W        W77241  35.803  19.726  14.535
10833W        W77242   2.024  43.676  11.502
10834W        W77243  27.447  38.273   3.225
10835W        W77244   1.504  19.469   4.517
10836W        W77245  33.571  17.351   2.402
10837W        W77246   8.159  13.110  10.697
10838W        W77247   2.455   5.712   2.369
10839W        W77248  10.304  43.401  13.717
10840W        W77249  26.522  14.098   3.513
10841W        W77250  19.317  14.798   3.377
10842W        W77251  23.047   0.602  12.359
10843W        W77252   1.925  30.906  12.169
10844W        W77253  34.154  34.584  14.041
10845W        W77254  22.093   8.717   1.735
10846W        W77255  42.911  41.936   3.837
10847W        W77256   3.283   3.754  14.878
10848W        W77257  20.239  23.402  13.526
10849W        W77258  41.498  21.784  12.892
10850W        W77259  23.907  11.545  13.656
10851W        W77260  40.291  21.570  11.415
10852W        W77261  16.552  20.603   3.264
10853W        W77262  37.462  29.655  13.845
10854W        W77263  14.252   5.411  11.756
10855W        W77264   9.164  13.709  14.326
10856W        W77265   6.238  17.114   2.075
10857W        W77266   4.181  16.959  11.839
10858W        W77267  17.356  34.871   3.237
10859W        W77268  32.450  40.731   4.086
10860W        W77269   7.637  13.718  11.629
10861W        W77270  21.447  38.809   0.924
10862W        W77271  24.096  37.572  12.835
10863W        W77272  21.995  30.558   0.229
10864W        W77273  21.567  30.761  10.737
10865W        W77274  28.921  22.223   0.934
10866W        W77275  26.561  32.067   3.677
10867W        W77276  24.083   5.249   4.509
10868W        W77277   3.228  36.952   4.692
10869W        W77278   4.939  10.042  11.186
10870W        W77279  30.699  18.680   4.170
10871W        W77280  10.339   1.011   2.380
10872W        W77281  31.547  14.906  10.695
10873W        W77282  13.890   3.939   4.238
10874W        W77283  32.108  39.880   3.392
10875W        W77284   5.384  24.761  12.390
10876W        W77285  18.523  24.248  13.542
10877W        W77286   6.178   4.036  13.427
10878W        W77287  43.798   3.522  11.592
10879W        W77288  18.020  29.411   0.644
10880W        W77289  22.552  43.919   3.641
10881W        W77290  31.641   0.227   3.776
10882W        W77291   1.332  22.406  12.632
10883W        W77292  19.287  16.842  13.382
10884W        W77293   0.795  44.847   0.316
10885W        W77294  12.111  23.049  12.557
10886W        W77295  23.738  32.322   4.548
10887W        W77296  17.624  16.261   2.991
10888W        W77297  25.951  36.863  13.385
10889W        W77298   5.667  23.764   0.088
10890W        W77299   9.687  26.620  13.817
10891W        W77300  20.295  44.236  13.351
10892W        W77301  32.462  12.838   1.820
10893W        W77302  25.522  40.902   4.153
10894W        W77303  36.825   2.071   3.371
10895W        W77304  37.595  20.136  13.812
10896W        W77305   2.161  27.094   0.932
10897W        W77306  31.942  38.891  11.992
10898W        W77307   4.708  15.104   2.392
10899W        W77308  15.069  24.149  10.574
10900W        W77309   0.541  20.194   1.919
10901W        W77310   7.942  36.480   1.013
10902W        W77311  44.826  38.843   4.092
10903W        W77312  10.624  27.101   3.138
10904W        W77313  10.121   2.487  14.574
10905W        W77314   2.407  33.862   3.337
10906W        W77315   3.117  41.980  10.610
10907W        W77316  12.391  11.641   2.922
10908W        W77317   6.654  31.060  14.791
10909W        W77318  36.841  15.244  10.189
10910W        W77319   5.717   2.106  13.897
10911W        W77320  37.487   0.442   9.971
10912W        W77321  39.794  16.391  13.571
10913W        W77322  38.153   9.762  13.412
10914W        W77323  25.564  14.543  10.288
10915W        W77324  14.669  11.517   0.034
10916W        W77325  38.263   9.286   4.709
10917W        W77326  32.330  26.680  13.872
10918W        W77327   6.991  28.084   1.876
10919W        W77328  42.559   9.765  13.018
10920W        W77329  23.154   3.823   4.494
10921W        W77330  13.849  16.248   0.377
10922W        W77331  36.537  15.141   4.286
10923W        W77332  29.448  22.289   2.701
10924W        W77333  37.104  43.445   3.418
10925W        W77334   9.850   0.511   0.482
10926W        W77335  31.597   8.421   4.991
10927W        W77336  27.403  29.691  13.080
10928W        W77337  11.631  26.697   2.319
10929W        W77338  10.172  26.336   3.347
10930W        W77339  14.491  23.918   3.692
10931W        W77340  30.157  19.608   4.663
10932W        W77341  34.119  20.376  12.477
10933W        W77342  42.952   4.757  14.447
10934W        W77343  24.094  22.015  12.618
10935W        W77344   3.577  41.948   4.435
10936W        W77345   6.598  43.621  10.749
10937W        W77346   3.673  16.999   3.978
10938W        W77347   3.421  39.036   2.618
10939W        W77348  44.753   4.363  11.518
10940W        W77349  12.553  17.795  10.692
10941W        W77350   6.231  28.117   3.766
10942W        W77351  42.376   8.743  14.848
10943W        W77352   2.033  33.273  12.446
10944W        W77353  23.753  38.443   3.776
10945W        W77354   6.032  41.613  11.668
10946W        W77355  11.998   5.708   4.904
10947W        W77356   7.205   0.708  13.305
10948W        W77357  34.619  17.784  10.493
10949W        W77358   8.730  40.945  11.491
10950W        W77359   3.851  30.622   3.526
10951W        W77360  17.215  16.582  14.558
10952W        W77361   8.944  31.460   4.723
10953W        W77362  35.615  23.482  12.001
10954W        W77363   6.730  39.514  10.682
10955W        W77364  35.439  27.633   0.799
10956W        W77365  43.545  42.230  13.111
10957W        W77366   2.991  15.770   1.697
10958W        W77367  23.978  12.419   2.443
10959W        W77368  41.251   3.892  12.121
10960W        W77369  32.582  40.114  14.830
10961W        W77370  36.664   7.660  14.823
10962W        W77371  30.202   4.183   3.283
10963W        W77372   1.340  44.683  14.774
10964W        W77373  14.634  32.026   4.168
10965W        W77374  23.600   5.001   2.879
10966W        W77375  23.728  21.447   4.961
10967W        W77376   6.869  12.509  10.794
10968W        W77377  37.699   3.664   3.615
10969W        W77378  37.818  12.760   4.041
10970W        W77379  40.079   6.399  13.314
10971W        W77380  12.907  35.297  12.607
10972W        W77381   0.198  40.880  14.314
10973W        W77382  15.898  20.189  11.951
10974W        W77383   9.412   9.325   1.218
10975W        W77384  18.157  34.820  11.456
10976W        W77385  32.670   4.373   4.628
10977W        W77386  32.921  14.994   2.194
10978W        W77387   5.744   9.135   0.561
10979W        W77388  29.395  28.395  14.953
10980W        W77389  41.844  34.358  11.334
10981W        W77390   2.321  10.816  12.412
10982W        W77391  11.103  41.489   1.889
10983W        W77392  22.855  33.751  13.406
10984W        W77393   1.507  19.711  12.140
10985W        W77394  18.704  18.770  13.053
10986W        W77395  12.151  29.430   1.834
10987W        W77396  15.042  32.435  13.571
10988W        W77397  17.598  40.577   2.185
10989W        W77398   9.332   0.850   2.176
10990W        W77399  24.061   5.751   0.450
10991W        W77400   8.351  38.585   3.720
10992W        W77401  36.359  24.714  14.911
10993W        W77402  22.456  41.403  13.569
10994W        W77403  31.923  26.928  12.632
10995W        W77404  30.679   9.669  12.951
10996W        W77405  17.041  41.457   3.705
10997W        W77406   6.850   2.143   0.852
10998W        W77407  27.132   6.122  14.733
10999W        W77408  19.998  22.659   3.179
11000W        W77409  16.871  18.343  12.449
11001W        W77410  26.204   2.336   1.921
11002W        W77411  13.304  29.969   3.044
11003W        W77412  28.487  33.105   0.260
11004W        W77413   4.655  12.767   0.358
11005W        W77414  12.176  43.533  10.303
11006W        W77415   6.473  32.894  14.852
11007W        W77416  38.440   6.776  13.085
11008W        W77417  27.463  44.965   0.719
11009W        W77418   9.123   1.815  13.871
11010W        W77419  42.475   6.450  14.481
11011W        W77420  18.494  27.325   2.644
11012W        W77421   7.789  13.138  13.434
11013W        W77422   3.793  39.542  13.311
11014W        W77423  17.977   1.872  14.423
11015W        W77424  31.925  21.822   4.502
11016W        W77425   3.697  22.086   2.719
11017W        W77426  22.553  33.317  10.757
11018W        W77427  24.222   9.145  11.183
11019W        W77428   7.600  26.662   1.322
11020W        W77429   9.264  36.414   2.858
11021W        W77430  23.358  43.022  14.873
11022W        W77431   6.844  11.865   3.055
11023W        W77432  24.695   2.855   4.134
11024W        W77433  33.322  10.306   9.807
11025W        W77434  23.503  24.232   0.917
11026W        W77435  27.939  41.066  11.151
11027W        W77436   2.402  44.510   0.745
11028W        W77437  33.715  30.744   0.832
11029W        W77438   1.922  17.707   1.318
11030W        W77439  37.432  22.560  14.507
11031W        W77440  17.452  24.658   2.196
11032W        W77441   8.438  24.253  13.402
11033W        W77442  38.316  28.628   0.483
11034W        W77443  39.506  40.239   2.415
11035W        W77444  18.248  10.133  13.053
11036W        W77445  27.270  12.605   2.882
11037W        W77446   7.390  19.128  14.561
11038W        W77447  40.244  16.841  12.469
11039W        W77448   1.261  11.930  11.034
11040W        W77449   6.393  35.639   2.978
11041W        W77450   9.798   8.233   4.805
11042W        W77451   7.122  28.962  11.812
11043W        W77452  25.728   2.814  14.811
11044W        W77453  38.131  31.553  12.464
11045W        W77454  14.650  25.196   0.380
11046W        W77455   3.686  13.810  12.478
11047W        W77456  25.747  42.275   1.777
11048W        W77457  41.159  25.238  10.290
11049W        W77458  40.058  34.049  10.708
11050W        W77459  21.513  34.114   3.212
11051W        W77460  15.292  44.246  12.832
11052W        W77461   0.962   6.405   4.570
11053W        W77462   5.234  18.349   4.595
11054W        W77463  42.824  32.900  12.960
11055W        W77464   7.375  44.634  10.151
11056W        W77465  28.021  11.230   3.689
11057W        W77466  26.520  39.222   1.429
11058W        W77467  44.291   8.240   1.968
11059W        W77468  22.606  27.577   4.414
11060W        W77469  20.674  35.997   2.636
11061W        W77470  20.154  39.568   0.198
11062W        W77471   7.719  36.997  10.623
11063W        W77472  13.851   3.994  13.527
11064W        W77473  14.626   3.315  12.423
11065W        W77474   4.820   7.821  14.279
11066W        W77475  40.936  26.633   3.704
11067W        W77476   6.087  26.286  14.331
11068W        W77477  33.919  20.687   1.342
11069W        W77478  36.589  36.550  14.281
11070W        W77479   9.166   7.988  11.598
11071W        W77480  28.404  13.835   3.253
11072W        W77481  22.196  36.966   3.825
11073W        W77482  26.052  39.380  11.653
11074W        W77483   3.897  13.688   3.961
11075W        W77484  23.044  17.560   0.867
11076W        W77485   4.919   9.389   2.258
11077W        W77486  32.075  36.014   2.349
11078W        W77487   1.463  39.769   1.718
11079W        W77488  38.777  33.367   1.892
11080W        W77489   0.273   3.691  13.388
11081W        W77490  16.729  13.063  10.789
11082W        W77491  31.509  26.639  12.521
11083W        W77492   0.465  31.152  11.163
11084W        W77493  38.116   3.925   1.281
11085W        W77494  20.349  36.635   4.754
11086W        W77495  13.148  35.952  13.305
11087W        W77496  33.414  20.653   0.386
11088W        W77497   8.361  17.210  11.933
11089W        W77498  15.933  40.548  11.111
11090W        W77499  11.136  21.554   2.873
11091W        W77500   1.307  39.591  12.050
11092W        W77501  23.286  32.520   1.916
11093W        W77502  39.906  40.720  11.684
11094W        W77503  14.796  20.338   4.619
11095W        W77504  38.115  18.135  13.411
11096W        W77505  28.502  40.326  13.994
11097W        W77506  27.125  29.522  10.410
11098W        W77507  19.181  22.967  10.533
11099W        W77508  30.615   9.739   0.002
11100W        W77509  23.476  19.516   3.217
11101W        W77510  40.017  36.572  11.548
11102W        W77511   1.159  22.313  11.609
11103W        W77512  42.128  15.041   4.065
11104W        W77513  12.314  44.931  10.626
11105W        W77514  33.423  26.241   3.339
11106W        W77515  40.948  19.225   4.037
11107W        W77516   0.198  26.584  12.110
11108W        W77517  43.178  24.576   1.382
11109W        W77518  30.698  35.825   2.504
11110W        W77519  15.459  25.126   2.260
11111W        W77520  31.366  33.030  11.066
11112W        W77521  39.930  35.129  11.527
11113W        W77522  43.907   9.475  14.540
11114W        W77523   8.152  12.556   1.793
11115W        W77524   1.440   5.549  13.082
11116W        W77525  14.449  38.018  12.010
11117W        W77526  28.229  16.712   3.226
11118W        W77527  19.050  41.733  13.329
11119W        W77528   5.889  34.167   2.338
11120W        W77529  16.699   8.983   2.219
11121W        W77530  10.520  33.995   2.717
11122W        W77531  14.072  13.741   4.922
11123W        W77532  19.054   0.285  10.874
11124W        W77533   2.886  17.838   2.478
11125W        W77534  44.260  25.492  11.320
11126W        W77535  20.946   5.408   0.114
11127W        W77536  14.745  16.051   3.258
11128W        W77537  14.674  38.464  12.101
11129W        W77538  39.361  19.291  11.257
11130W        W77539   8.698  16.224   1.779
11131W        W77540  13.144  10.755   0.289
11132W        W77541  41.337   8.802  11.610
11133W        W77542  38.020  10.108   4.096
11134W        W77543  27.934  10.719   3.745
11135W        W77544  43.747  38.551   3.884
11136W        W77545  20.596  29.439   3.394
11137W        W77546  29.186  34.615  12.708
11138W        W77547  22.247  17.661   3.259
11139W        W77548  24.120   7.012  14.772
11140W        W77549   3.539  16.758   3.498
11141W        W77550  28.631   6.601   4.460
11142W        W77551  30.628  30.894  14.928
11143W        W77552  39.033  41.718   2.905
11144W        W77553  38.038  27.398  12.513
11145W        W77554  12.682  38.823   4.975
11146W        W77555  13.285  37.910  14.503
11147W        W77556  29.249  38.413  12.563
11148W        W77557  38.783   5.935  13.292
11149W        W77558  39.592  24.724   1.949
11150W        W77559  16.369  24.119   3.293
11151W        W77560  40.022   4.270   2.237
11152W        W77561  20.686  33.736   3.767
11153W        W77562   5.428  15.227   3.699
11154W        W77563   6.857  43.001  14.470
11155W        W77564  12.913  36.025  12.631
11156W        W77565  12.847  39.556  10.733
11157W        W77566  29.415  13.198  13.277
11158W        W77567  12.324  44.364  14.364
11159W        W77568  41.147  38.528  11.631
11160W        W77569   6.469  15.566   0.803
11161W        W77570  36.341  31.398  11.529
11162W        W77571  29.562   7.660  11.972
11163W        W77572  36.323  18.982   2.746
11164W        W77573  15.552  24.316  10.670
11165W        W77574  10.909  36.540   5.180
11166W        W77575   9.432  35.944   4.576
11167W        W77576  32.821  21.031   0.876
11168W        W77577   6.044  42.396   4.677
11169W        W77578   4.872  22.573   4.569
11170W        W77579  27.153  43.854   3.218
11171W        W77580  31.550   2.077   3.746
11172W        W77581  16.458  26.646   3.754
11173W        W77582  35.027   3.007  14.422
11174W        W77583  14.261   3.978   5.042
11175W        W77584  24.451   4.280  12.299
11176W        W77585  36.828  29.505   3.227
11177W        W77586  13.074  32.050   4.130
11178W        W77587  26.958  43.571   4.219
11179W        W77588  37.493   0.342  11.878
11180W        W77589  26.006  17.716  12.758
11181W        W77590  37.629  38.975  11.478
11182W        W77591   5.790  37.424   0.801
11183W        W77592   3.667  24.646   1.715
11184W        W77593  33.566   6.704   2.446
11185W        W77594  35.015  25.481   1.020
11186W        W77595  29.916  31.686  11.128
11187W        W77596   0.266  11.840   3.434
11188W        W77597  13.867   2.483   3.481
11189W        W77598   9.820  40.872   3.392
11190W        W77599  38.435  39.540  10.712
11191W        W77600   6.429  29.142  12.097
11192W        W77601   0.346  40.382   2.456
11193W        W77602  24.370   3.799  14.945
11194W        W77603   9.124   4.215   3.189
11195W        W77604   2.364  36.335   3.752
11196W        W77605  18.273  18.232   4.622
11197W        W77606  16.630  29.078   0.933
11198W        W77607  30.485  38.301   0.371
11199W        W77608  35.184  44.641   0.050
11200W        W77609   2.075  37.454  10.337
11201W        W77610   8.392  16.468  13.536
11202W        W77611   8.317  35.576   0.180
11203W        W77612  26.140   9.185  12.135
11204W        W77613  15.729  42.817  10.116
11205W        W77614  42.111  44.890   0.047
11206W        W77615  41.795   2.445  14.796
11207W        W77616   8.416  15.128   4.575
11208W        W77617  33.467  29.945  12.769
11209W        W77618  40.060   9.187  10.395
11210W        W77619  40.090   4.480   0.801
11211W        W77620  28.843  44.195  12.142
11212W        W77621  12.868   7.797  14.790
11213W        W77622  40.291  17.581  13.085
11214W        W77623   6.687  14.691   0.853
11215W        W77624  15.651  34.124   1.143
11216W        W77625  28.605  29.259   1.303
11217W        W77626   8.063  16.165  14.457
11218W        W77627  23.655  43.538  13.118
11219W        W77628  28.100  25.107   9.856
11220W        W77629  23.605  18.554   1.818
11221W        W77630  36.099  20.143  12.462
11222W        W77631  33.539  43.360   1.838
11223W        W77632   7.671  25.505  12.709
11224W        W77633  43.329  21.766  14.308
11225W        W77634  24.197  17.664  13.399
11226W        W77635   0.462   5.283  11.249
11227W        W77636  42.561  15.300   2.768
11228W        W77637  37.935   7.781   2.454
11229W        W77638  24.188  42.888   4.594
11230W        W77639  39.119   3.882   0.258
11231W        W77640  31.678  23.575   4.062
11232W        W77641  42.545  22.792   1.853
11233W        W77642  44.978  33.024  11.053
11234W        W77643  34.997  23.508   3.211
11235W        W77644  22.876  14.209   1.308
11236W        W77645   8.280  10.827   2.730
11237W        W77646   3.810   0.877  14.843
11238W        W77647   6.877  29.408  11.051
11239W        W77648  11.770  12.379  14.432
11240W        W77649  40.767  23.165  14.316
11241W        W77650  40.286   8.457   0.781
11242W        W77651   9.316  36.530  13.033
11243W        W77652   4.835  32.195   3.743
11244W        W77653   9.386  11.488   4.196
11245W        W77654  13.692  28.204  13.121
11246W        W77655  24.998  21.788  13.870
11247W        W77656  42.314  14.465  14.313
11248W        W77657  11.720   8.259  13.328
11249W        W77658  12.157   3.878   1.265
11250W        W77659  13.507  39.051   3.938
11251W        W77660   7.417   3.258  11.109
11252W        W77661  21.138  39.236   2.467
11253W        W77662  36.889  36.203   2.176
11254W        W77663  20.118  30.443   2.227
11255W        W77664  18.783   6.825   2.695
11256W        W77665   5.210  33.813   1.874
11257W        W77666  14.498   0.924  14.939
11258W        W77667  37.658  39.304  14.555
11259W        W77668  33.173  35.043   4.938
11260W        W77669   7.949  14.661   1.246
11261W        W77670  11.378  36.097   2.161
11262W        W77671  37.401   5.229  10.595
11263W        W77672   1.746  36.016  11.073
11264W        W77673  36.266  13.154  11.544
11265W        W77674  18.639   0.484   1.472
11266W        W77675  15.636   0.398   9.899
11267W        W77676  39.334  34.061   2.412
11268W        W77677  25.662  15.843   0.910
11269W        W77678  22.080   4.509   3.893
11270W        W77679  10.517  41.460   3.209
11271W        W77680   8.937   2.671   3.300
11272W        W77681  37.605   3.368  14.538
11273W        W77682   3.175  21.911   1.821
11274W        W77683  17.556  37.457   3.219
11275W        W77684  15.715  13.925  11.590
11276W        W77685  38.262  43.899   0.311
11277W        W77686  26.849  10.385  12.620
11278W        W77687  10.603  14.697   0.411
11279W        W77688  24.151  19.984   4.631
11280W        W77689  40.232  31.823  13.050
11281W        W77690   7.149  18.007   4.570
11282W        W77691  15.166  37.434  11.439
11283W        W77692  33.598   1.979  12.142
11284W        W77693   4.019  19.892   3.296
11285W        W77694  26.473  17.745   2.034
11286W        W77695   7.238  40.033  11.579
11287W        W77696  33.495  17.885  14.971
11288W        W77697  38.655  25.134   0.744
11289W        W77698  40.417  29.667  13.610
11290W        W77699   3.159   2.298   0.764
11291W        W77700  30.554  15.850  14.952
11292W        W77701  36.122  11.820  10.791
11293W        W77702   1.818   4.867  11.126
11294W        W77703  11.738   6.832   1.482
11295W        W77704   4.324  40.825  13.169
11296W        W77705  13.406  41.776   1.969
11297W        W77706  24.544  35.509   4.191
11298W        W77707  17.167   8.235   4.399
11299W        W77708  32.018   3.467   1.758
11300W        W77709   3.525   6.374  11.491
11301W        W77710  31.468  10.051   0.055
11302W        W77711   3.787  29.905  11.085
11303W        W77712  44.150  19.841   4.294
11304W        W77713  40.321   2.685   2.917
11305W        W77714   6.426  21.225  14.384
11306W        W77715  18.916  32.494   4.429
11307W        W77716  38.087  38.456  14.869
11308W        W77717  37.252  23.526  11.726
11309W        W77718  44.516  33.356   5.040
11310W        W77719  11.389  32.795   3.779
11311W        W77720  26.673   1.637   0.380
11312W        W77721  17.806  21.688   1.838
11313W        W77722   8.280  23.080   2.203
11314W        W77723  43.048  26.689   1.422
11315W        W77724  15.303   6.161   2.151
11316W        W77725   3.510  24.918  11.552
11317W        W77726   2.335   0.950  11.649
11318W        W77727  34.603  31.457  14.812
11319W        W77728   2.485  33.887  10.802
11320W        W77729  16.552   2.766   3.300
11321W        W77730  39.458   4.241  11.487
11322W        W77731   5.400   4.472   3.746
11323W        W77732   3.111  21.954  12.214
11324W        W77733  41.673  37.111   1.909
11325W        W77734  43.722   2.709   4.139
11326W        W77735   9.149   2.701  12.095
11327W        W77736  28.298  40.724  10.263
11328W        W77737  26.388   7.966   3.223
11329W        W77738  32.398  41.507   0.709
11330W        W77739   1.819  35.087  13.953
11331W        W77740  41.336  39.381   1.089
11332W        W77741  25.932  20.184  14.732
11333W        W77742  33.856   1.335   1.355
11334W        W77743  41.234  32.789  13.785
11335W        W77744   6.141  10.888  12.130
11336W        W77745  44.379   0.516  13.896
11337W        W77746  29.186   9.935   3.158
11338W        W77747   1.218  33.064   2.619
11339W        W77748  13.147  16.101  14.467
11340W        W77749  37.069  41.853   2.635
11341W        W77750   9.114  40.514  11.007
11342W        W77751  28.662  16.764   3.620
11343W        W77752  27.210  23.080  13.345
11344W        W77753  35.371  11.569   3.129
11345W        W77754  23.960  39.937   2.774
11346W        W77755  26.417  40.768   3.036
11347W        W77756  40.297  26.921   3.300
11348W        W77757  31.100  18.269  12.574
11349W        W77758  35.584  18.875  13.039
11350W        W77759  22.326  44.820   0.693
11351W        W77760  19.792  20.533   2.531
11352W        W77761  26.991  13.403   0.371
11353W        W77762  36.081   6.260   2.788
11354W        W77763  11.017   1.991  11.710
11355W        W77764  19.510   0.429  14.537
11356W        W77765  27.969  27.948   1.366
11357W        W77766  24.648   8.406  11.373
11358W        W77767   9.629  21.985  13.095
11359W        W77768  27.544  37.998   4.311
11360W        W77769  28.558  41.519  10.724
11361W        W77770  43.363  15.107  11.918
11362W        W77771  29.891  21.731   0.182
11363W        W77772  26.475   6.382   1.909
11364W        W77773  22.962  10.308  12.801
11365W        W77774  36.240  44.608   4.959
11366W        W77775  15.186  40.723  13.842
11367W        W77776   1.420  28.731   4.617
11368W        W77777  25.410  23.599  10.952
11369W        W77778  41.586  10.404  11.137
11370W        W77779  33.598  42.865  11.276
11371W        W77780  20.503  24.253   4.593
11372W        W77781  12.220  40.640  11.007
11373W        W77782  11.181  41.880  13.835
11374W        W77783  16.683  18.041   3.177
11375W        W77784  41.175   5.121  11.623
11376W        W77785  25.515  39.014  10.612
11377W        W77786  42.309  22.837  14.277
11378W        W77787  37.013  17.518   2.366
11379W        W77788  20.116  27.130  14.803
11380W        W77789   7.805  43.663  14.006
11381W        W77790  25.706  27.107   4.406
11382W        W77791  21.406   0.912  13.876
11383W        W77792  25.533  38.970   1.795
11384W        W77793  34.440  19.125  12.060
11385W        W77794   3.654  36.498  14.934
11386W        W77795   1.527  32.016   1.381
11387W        W77796   1.444  39.044   3.161
11388W        W77797  11.381  14.388   0.792
11389W        W77798  21.964   9.728   2.177
11390W        W77799  18.162  30.067  11.434
11391W        W77800   2.881  43.299  13.150
11392W        W77801   2.523  41.455   1.255
11393W        W77802  27.227  41.345  10.713
11394W        W77803   0.524  16.268   1.434
11395W        W77804  40.888  43.513  11.437
11396W        W77805   7.811  28.476   0.325
11397W        W77806  32.452  38.873   3.604
11398W        W77807  28.116  44.308   4.557
11399W        W77808  23.260  29.754  12.604
11400W        W77809  40.559  18.489   3.149
11401W        W77810  14.166  36.655   9.933
11402W        W77811  29.523  37.970  12.635
11403W        W77812   2.034  25.057  14.705
11404W        W77813   9.755  33.133   0.267
11405W        W77814   7.151  30.778  12.090
11406W        W77815   6.458  36.480   2.926
11407W        W77816  28.436  32.629   0.468
11408W        W77817   9.355  38.582   3.701
11409W        W77818  44.508  42.302  12.927
11410W        W77819  41.394  28.555  12.496
11411W        W77820  36.390  13.259  11.057
11412W        W77821   9.361  44.257   0.648
11413W        W77822  36.476  33.056  12.585
11414W        W77823   2.039  13.839  11.142
11415W        W77824   0.302  23.610   3.957
11416W        W77825  37.588   4.545  11.566
11417W        W77826  18.115  33.838  13.505
11418W        W77827  19.351  13.142  13.838
11419W        W77828  33.901   4.727   0.028
11420W        W77829  37.508  19.140  11.550
11421W        W77830  26.782  25.587   4.068
11422W        W77831   4.684  29.482   4.158
11423W        W77832  41.709   3.618   2.157
11424W        W77833  32.508  33.181  10.621
11425W        W77834  17.100  11.570   3.685
11426W        W77835   4.306  22.036  11.111
11427W        W77836  12.181  41.337  11.911
11428W        W77837  20.086  33.813   0.833
11429W        W77838   9.418  22.680   0.716
11430W        W77839  43.962   0.040   3.814
11431W        W77840  21.269   8.277  14.954
11432W        W77841  32.579  33.539   3.729
11433W        W77842   0.505  14.762  14.990
11434W        W77843   0.214  28.887  12.267
11435W        W77844  14.067  38.237   1.340
11436W        W77845  15.611  35.755  13.571
11437W        W77846  40.933  28.115   4.028
11438W        W77847  13.595  24.940   4.545
11439W        W77848  37.470   3.679   2.748
11440W        W77849  41.652  25.298   3.774
11441W        W77850   0.051  36.128  12.947
11442W        W77851  13.350  10.702  12.982
11443W        W77852  33.263  23.441   0.898
11444W        W77853  18.479  28.172  14.836
11445W        W77854  15.279  43.011   0.612
11446W        W77855  22.976  14.542   0.509
11447W        W77856  17.053  32.862   0.972
11448W        W77857  23.929  26.123   1.350
11449W        W77858  39.384  43.477  11.140
11450W        W77859  37.603  30.859   0.311
11451W        W77860  41.953   1.979  12.432
11452W        W77861  27.212  13.694  11.172
11453W        W77862  44.244  11.234  13.162
11454W        W77863  38.249  13.778  14.034
11455W        W77864  25.179  13.103  10.805
11456W        W77865   4.831  21.089  10.883
11457W        W77866  43.023  34.680   4.531
11458W        W77867  34.447  13.040  13.619
11459W        W77868  32.472  43.315  11.925
11460W        W77869  18.578  15.538   2.426
11461W        W77870  19.956  15.774  13.845
11462W        W77871  24.283  37.887   0.994
11463W        W77872  44.788  22.465  13.576
11464W        W77873   1.034  27.717   3.967
11465W        W77874  43.850  17.935  12.844
11466W        W77875  30.899   7.197   2.630
11467W        W77876   1.906   5.368   2.917
11468W        W77877  24.741  13.723  12.195
11469W        W77878  10.322  30.271  14.906
11470W        W77879  14.128  14.813   1.482
11471W        W77880  43.787  44.478  14.448
11472W        W77881  27.195  28.145  12.971
11473W        W77882  38.409  39.762  12.544
11474W        W77883  13.623  37.066   3.382
11475W        W77884  16.880  34.727  11.673
11476W        W77885  25.987  32.862  11.645
11477W        W77886  14.252  17.564   2.343
11478W        W77887   2.431  21.748   2.756
11479W        W77888  38.361   4.351   1.893
11480W        W77889  39.289   2.283  13.861
11481W        W77890  30.987   2.402   1.867
11482W        W77891  43.815  40.868  12.430
11483W        W77892  18.691  23.467   3.567
11484W        W77893  35.906  13.397   2.475
11485W        W77894  29.288  28.477   3.791
11486W        W77895  31.426   1.672   3.439
11487W        W77896  18.838  40.832   2.722
11488W        W77897  43.515  25.759   4.727
11489W        W77898   9.359   6.828  13.083
11490W        W77899  29.617  38.501  11.601
11491W        W77900  35.455  10.991   0.288
11492W        W77901  32.574  27.418  14.354
11493W        W77902  35.954   6.972   2.301
11494W        W77903   8.376  39.504  13.945
11495W        W77904  42.422  14.205   1.878
11496W        W77905   2.409  37.393  12.166
11497W        W77906  17.750  41.033   1.986
11498W        W77907  41.221  44.335   1.747
11499W        W77908  39.425   9.863   1.730
11500W        W77909  44.969  42.089  10.646
11501W        W77910   8.642   7.726   1.492
11502W        W77911  37.495  39.908   1.799
11503W        W77912  10.219   0.039   1.231
11504W        W77913  15.811  35.887   0.328
11505W        W77914   8.233  27.877  13.394
11506W        W77915  36.360  22.692   1.832
11507W        W77916   4.343  13.332   4.712
11508W        W77917  15.808  36.601   2.117
11509W        W77918   6.681  30.916   2.825
11510W        W77919  31.065  32.179  14.555
11511W        W77920  12.182  38.840  14.086
11512W        W77921  16.619  44.484  13.511
11513W        W77922  37.863   1.436  12.006
11514W        W77923  40.440   5.171  11.253
11515W        W77924  29.790  25.155   1.779
11516W        W77925  24.014  23.908   2.312
11517W        W77926  10.098  17.378  13.636
11518W        W77927  26.291  31.927   1.755
11519W        W77928  17.327   6.506   3.275
11520W        W77929  29.682   5.889  11.489
11521W        W77930  28.189   6.213  12.310
11522W        W77931  19.054  20.154   1.487
11523W        W77932  14.581  37.107   1.489
11524W        W77933   7.405  43.844  11.465
11525W        W77934  19.171  44.026   0.180
11526W        W77935   7.966   9.219   4.366
11527W        W77936  19.914  38.344  14.027
11528W        W77937  12.137  38.163  12.982
11529W        W77938  22.129  36.150  13.373
11530W        W77939  43.797  37.805   3.244
11531W        W77940  29.230  30.114   4.692
11532W        W77941   8.076  29.035  10.464
11533W        W77942  25.705  24.794   2.684
11534W        W77943  33.902   3.309  11.676
11535W        W77944  44.520  33.710   3.386
11536W        W77945   0.207   5.773   4.839
11537W        W77946   9.671  33.640   0.294
11538W        W77947  40.085  18.158  11.846
11539W        W77948  36.429  15.867   2.673
11540W        W77949  13.317  39.591   1.397
11541W        W77950   2.794   2.884   2.424
11542W        W77951  23.186  27.452  13.233
11543W        W77952   3.809  18.694  14.466
11544W        W77953  33.677  17.131  10.715
11545W        W77954  34.508  29.629  13.595
11546W        W77955  18.839  12.292  14.056
11547W        W77956  15.286  35.350  13.711
11548W        W77957  19.160  21.445   3.871
11549W        W77958  27.321  44.531   0.950
11550W        W77959  44.018  26.530   0.462
11551W        W77960  32.725  12.465  10.761
11552W        W77961  11.123  31.286  14.860
11553W        W77962   4.781   9.703  14.949
11554W        W77963  15.106  30.973   2.710
11555W        W77964  14.636  36.689  12.346
11556W        W77965  27.622   8.273  10.977
11557W        W77966  42.212  30.021  14.299
11558W        W77967  33.398  22.765  14.799
11559W        W77968  13.057  24.760   4.146
11560W        W77969   4.748   6.635   3.739
11561W        W77970   2.071  36.404  13.008
11562W        W77971  18.110  16.587  13.815
11563W        W77972  26.564  35.068  11.160
11564W        W77973  44.763  31.119  12.917
11565W        W77974   2.432  27.604  13.371
11566W        W77975  13.069  22.035  11.364
11567W        W77976  34.098  24.065   2.355
11568W        W77977  15.873  10.241  14.100
11569W        W77978  16.563  24.949   3.775
11570W        W77979  35.858  18.182   4.944
11571W        W77980  36.083   5.868  14.310
11572W        W77981  32.058  27.473  14.858
11573W        W77982  40.013  29.625  12.073
11574W        W77983  21.650  15.373  13.105
11575W        W77984  18.422  22.047   0.630
11576W        W77985  42.974  29.850  13.006
11577W        W77986  35.154  20.884  13.021
11578W        W77987   6.128  37.915  11.098
11579W        W77988   6.150  40.018  14.583
11580W        W77989  23.073  25.677  11.464
11581W        W77990  40.182   5.023  12.156
11582W        W77991  23.638  31.663   2.709
11583W        W77992  32.096  27.581  14.321
11584W        W77993  27.705  28.460  12.454
11585W        W77994   0.786  17.731   3.720
11586W        W77995  18.589  22.610   3.441
11587W        W77996  41.420   6.174   1.358
11588W        W77997  21.423  17.145   1.347
11589W        W77998  39.411   3.721  11.644
11590W        W77999  23.664  13.367  14.888
11591W        W78000   1.563  32.599  14.406
11592W        W78001   0.886  15.993  10.558
11593W        W78002  17.191   1.200   4.818
11594W        W78003   6.847  39.990  14.468
11595W        W78004  34.381  39.826  14.514
11596W        W78005  19.311   4.329   4.467
11597W        W78006  29.398  29.900   3.774
11598W        W78007  36.943  23.521   1.640
11599W        W78008  12.910  19.275   0.224
11600W        W78009   2.234  42.913  13.113
11601W        W78010  35.294   9.318   1.356
11602W        W78011   6.864  41.095   0.320
11603W        W78012  33.390  34.597  12.607
11604W        W78013  39.743   1.227  12.046
11605W        W78014  37.798  39.835   2.804
11606W        W78015   2.930   7.127  12.214
11607W        W78016  39.929  29.331  14.457
11608W        W78017  23.795  35.707   2.371
11609W        W78018  35.487  10.868  11.254
11610W        W78019  42.465  11.704   3.616
11611W        W78020   7.008  17.833  11.068
11612W        W78021   7.599  32.122  12.550
11613W        W78022  11.201  21.164   1.680
11614W        W78023  10.756  25.236   0.364
11615W        W78024  27.248  21.733  10.606
11616W        W78025   7.434   0.898  11.413
11617W        W78026   7.647  12.385   1.818
11618W        W78027  15.171  42.457  11.143
11619W        W78028   9.361  39.846   3.286
11620W        W78029  44.056  20.263   5.115
11621W        W78030  13.947  23.234   3.733
11622W        W78031  31.891  28.359   0.391
11623W        W78032  20.115  39.770   0.668
11624W        W78033   8.373  26.291   4.617
11625W        W78034  20.815   3.354   1.703
11626W        W78035  35.503  37.872  13.781
11627W        W78036  13.038  40.569  10.695
11628W        W78037   6.669  33.504  12.938
11629W        W78038  10.309  20.521  12.417
11630W        W78039   3.754  39.302   0.776
11631W        W78040  39.582   1.304   2.439
11632W        W78041   4.181  40.074  10.728
11633W        W78042  29.226  43.988  14.887
11634W        W78043  32.930  26.562  12.120
11635W        W78044  19.059  31.878   0.291
11636W        W78045  33.889  20.791  12.689
11637W        W78046  14.822  12.276   0.863
11638W        W78047  21.149  27.332  14.505
11639W        W78048   9.130  21.230   0.074
11640W        W78049  28.554  27.888  14.067
11641W        W78050  21.584  26.458   3.606
11642W        W78051   1.019  28.106  13.872
11643W        W78052  17.780   3.938  14.493
11644W        W78053  27.606  14.388  11.533
11645W        W78054  11.489   2.288  12.077
11646W        W78055  21.453  26.042  13.361
11647W        W78056   2.527   1.062   2.277
11648W        W78057  29.561  27.635  10.592
11649W        W78058   9.177  22.236  10.745
11650W        W78059  24.118   0.255   4.110
11651W        W78060  36.374  27.968  13.611
11652W        W78061  34.833  38.709  11.222
11653W        W78062  11.320  42.983   5.022
11654W        W78063  15.207   3.816   4.593
11655W        W78064  33.013  32.420   3.417
11656W        W78065  36.217   1.721  11.528
11657W        W78066  18.185  36.363  11.631
11658W        W78067  11.346  31.816   3.690
11659W        W78068  19.724  39.961  14.222
11660W        W78069  21.812  28.543  13.824
11661W        W78070  39.584  19.153   5.205
11662W        W78071   9.769  20.686   4.652
11663W        W78072  16.557  41.134  13.738
11664W        W78073  35.012  31.411   4.106
11665W        W78074  16.641   4.470   4.540
11666W        W78075  29.059   0.721   0.322
11667W        W78076  38.824  44.916   0.381
11668W        W78077  32.981  27.879  13.551
11669W        W78078   8.780  34.407  14.728
11670W        W78079  29.591  24.024   0.874
11671W        W78080  33.013  19.147   4.422
11672W        W78081  26.615   7.711   4.511
11673W        W78082  19.494  14.772  11.319
11674W        W78083  43.937  19.789   4.900
11675W        W78084  11.440  19.159   0.239
11676W        W78085  34.568  19.708   0.508
11677W        W78086  37.598  16.990  12.202
11678W        W78087  18.752  44.196   0.403
11679W        W78088   8.902  27.529   4.281
11680W        W78089  37.344   0.718  13.314
11681W        W78090  24.796  27.535  11.091
11682W        W78091  35.771  31.020  12.633
11683W        W78092   8.175  25.090  10.171
11684W        W78093  28.744  31.525  10.501
11685W        W78094  34.170  32.653   2.815
11686W        W78095  39.649  22.590  14.908
11687W        W78096  11.334  15.727  14.687
11688W        W78097  37.996  13.054  11.628
11689W        W78098  20.504  10.897  12.896
11690W        W78099  17.303  17.354   0.421
11691W        W78100  15.562  18.747  12.404
11692W        W78101  25.676   7.397   1.819
11693W        W78102   3.672  20.556  14.362
11694W        W78103  37.828  32.325   2.529
11695W        W78104  26.871  42.865  14.522
11696W        W78105   0.876  40.562  12.941
11697W        W78106   3.001  16.592   0.990
11698W        W78107  31.896  12.738   2.445
11699W        W78108   6.066  23.586   4.967
11700W        W78109  16.139   7.883  12.478
11701W        W78110   5.892  18.229  11.536
11702W        W78111  40.346  12.559   0.478
11703W        W78112  27.612  38.051  13.179
11704W        W78113   9.400  37.005  13.361
11705W        W78114  41.137  40.689  12.012
11706W        W78115  30.611  24.122   4.075
11707W        W78116  32.593   1.439  12.488
11708W        W78117  28.876  21.267  13.412
11709W        W78118  12.646  15.576   2.330
11710W        W78119  28.996  18.400   3.811
11711W        W78120  11.680   0.159   2.339
11712W        W78121   4.231  44.000   1.017
11713W        W78122  12.163  15.385   0.601
11714W        W78123  12.915   8.093  12.586
11715W        W78124  13.558   9.434   0.446
11716W        W78125   3.944  38.163  11.087
11717W        W78126  18.208  40.754  11.909
11718W        W78127  17.433   7.357   2.290
11719W        W78128   5.172   9.959  13.819
11720W        W78129  26.146  23.011  14.285
11721W        W78130  20.482  22.144   4.554
11722W        W78131  14.434  41.780  14.393
11723W        W78132  22.603  40.891   2.446
11724W        W78133  28.527  38.175  13.826
11725W        W78134   4.988   0.673  11.930
11726W        W78135  12.414  29.654  13.320
11727W        W78136  43.282  39.464  14.454
11728W        W78137  42.979  14.138  14.232
11729W        W78138   9.126   7.471  13.534
11730W        W78139  27.370  44.531  12.822
11731W        W78140  10.149  36.888   1.294
11732W        W78141   2.911  27.050  12.063
11733W        W78142  32.850   2.662   0.765
11734W        W78143  13.791  38.419  13.883
11735W        W78144  31.100  29.909  13.899
11736W        W78145  15.870  40.031  11.020
11737W        W78146  37.708  29.688  12.407
11738W        W78147  19.541  21.203  14.666
11739W        W78148  11.310   2.650   3.775
11740W        W78149  20.897  10.364  12.338
11741W        W78150   6.087  25.345  12.231
11742W        W78151  38.883  26.028  13.006
11743W        W78152   8.725  15.638   3.786
11744W        W78153  35.979  35.019  12.973
11745W        W78154   4.803   8.375   4.580
11746W        W78155  16.583  31.277   1.228
11747W        W78156  17.332   0.680  11.436
11748W        W78157  25.946  27.033   3.272
11749W        W78158  41.939   8.061   4.367
11750W        W78159  16.818  11.747   4.100
11751W        W78160  36.955  36.412  11.617
11752W        W78161   5.290   5.368  12.961
11753W        W78162   9.176  32.613  14.873
11754W        W78163  39.811  20.164  13.032
11755W        W78164  43.998   1.153   1.258
11756W        W78165  26.941  31.979   0.984
11757W        W78166  13.262   6.275  14.575
11758W        W78167  34.698  28.612   0.412
11759W        W78168  35.406  38.471  10.990
11760W        W78169  39.369   7.981  11.370
11761W        W78170  28.917  33.638  11.002
11762W        W78171  40.301   7.148  12.914
11763W        W78172   6.095  19.048   0.374
11764W        W78173  30.675  29.109  11.498
11765W        W78174  24.566  19.004  13.985
11766W        W78175   1.357  26.070   0.044
11767W        W78176   7.396  44.790   4.097
11768W        W78177  27.503  22.203  14.466
11769W        W78178  32.132  38.218  10.628
11770W        W78179  12.452  24.017   1.024
11771W        W78180  39.863  31.929  13.461
11772W        W78181  10.602  29.929   3.199
11773W        W78182  14.464  14.163   5.298
11774W        W78183  21.498   6.055   1.330
11775W        W78184  34.099   1.548  14.809
11776W        W78185  44.407  31.161  13.899
11777W        W78186  40.390  12.717   3.113
11778W        W78187  16.775   6.938   4.459
11779W        W78188  42.693  23.937   3.770
11780W        W78189  26.567   2.917  13.759
11781W        W78190  35.288  16.724  10.174
11782W        W78191  20.231  20.955  12.444
11783W        W78192  44.844  42.878  14.159
11784W        W78193  14.391   7.772   3.736
11785W        W78194  28.440  23.584  11.467
11786W        W78195  37.943   2.044   2.827
11787W        W78196   2.735  21.643  11.508
11788W        W78197  15.692  28.858   0.131
11789W        W78198   2.890   2.158  14.425
11790W        W78199   3.357  38.511  14.187
11791W        W78200   1.327   7.984  11.446
11792W        W78201   0.833  29.377  13.306
11793W        W78202  30.526  29.932  11.165
11794W        W78203  15.082  28.379   2.142
11795W        W78204   4.819  11.857  14.069
11796W        W78205   2.113   9.177  11.526
11797W        W78206  37.357  14.011   5.001
11798W        W78207   0.476  18.259   1.922
11799W        W78208   8.834  39.981  12.006
11800W        W78209  25.985  28.683   9.764
11801W        W78210   1.996   6.172   0.839
11802W        W78211  14.278  40.249   2.454
11803W        W78212  12.467  38.437  14.220
11804W        W78213  16.775  44.876  14.779
11805W        W78214  22.410  38.031   3.898
11806W        W78215   3.917  17.331  12.146
11807W        W78216  36.464  12.332  14.870
11808W        W78217  36.692  36.471  11.173
11809W        W78218  35.587  26.180   2.396
11810W        W78219  34.945  39.412  14.896
11811W        W78220   7.346  24.080   3.764
11812W        W78221  42.934   1.007   0.678
11813W        W78222  10.797  13.099  12.063
11814W        W78223  18.865   0.802   4.295
11815W        W78224  18.669  33.974  12.222
11816W        W78225   1.286  10.136  12.847
11817W        W78226  30.110  40.888   1.523
11818W        W78227  18.210   6.201   0.368
11819W        W78228  39.054  22.013  11.960
11820W        W78229   1.060  31.009  13.031
11821W        W78230  15.066  34.474  14.466
11822W        W78231  31.558  28.497   3.780
11823W        W78232  33.395  27.961  13.033
11824W        W78233  38.446  13.153  14.354
11825W        W78234  14.882  38.604  14.516
11826W        W78235   9.269  22.937  13.928
11827W        W78236  33.371  37.450   4.138
11828W        W78237  38.100  28.775   0.015
11829W        W78238   9.788  16.729   1.650
11830W        W78239  31.623  38.291   2.389
11831W        W78240   4.561   3.528  11.463
11832W        W78241  30.971  33.327  14.047
11833W        W78242  41.232  18.978   0.534
11834W        W78243  15.018  17.064  13.945
11835W        W78244  33.099  42.758  11.062
11836W        W78245  23.466   8.189   2.926
11837W        W78246  17.285  44.773   0.327
11838W        W78247   8.685   4.251   0.048
11839W        W78248  18.004  11.294   2.380
11840W        W78249  12.683  20.681  11.073
11841W        W78250  16.081   5.214   4.272
11842W        W78251  32.594  36.577   0.368
11843W        W78252  29.948  36.437  14.550
11844W        W78253   9.746   0.350  13.595
11845W        W78254  20.188  24.167   1.956
11846W        W78255   5.940  16.864  11.054
11847W        W78256  19.120  38.032   1.275
11848W        W78257  24.922  10.744  11.900
11849W        W78258  43.372  44.434   0.393
11850W        W78259  36.587  13.305   0.962
11851W        W78260  24.181   9.327  13.950
11852W        W78261   3.675  11.513   4.678
11853W        W78262  10.407  24.806  11.926
11854W        W78263   9.898   2.865  14.851
11855W        W78264   9.750  30.197   0.839
11856W        W78265   2.292  36.469  11.615
11857W        W78266  42.158  36.902   2.853
11858W        W78267  23.695  39.499   1.049
11859W        W78268  33.476  21.128  11.537
11860W        W78269  17.033  30.046  14.349
11861W        W78270  24.150  36.590  13.945
11862W        W78271  42.488  39.833   0.883
11863W        W78272  39.575  11.325  11.980
11864W        W78273  25.441  20.470   5.127
11865W        W78274  32.671  11.086   0.919
11866W        W78275  18.638  28.527   3.635
11867W        W78276  29.945   9.932   2.268
11868W        W78277  38.390   2.249  11.938
11869W        W78278  20.583   1.126  11.753
11870W        W78279   5.699  19.371   0.230
11871W        W78280  32.509   8.902  13.365
11872W        W78281  32.621  13.740   3.640
11873W        W78282  17.192  33.996  13.932
11874W        W78283  23.131  26.214  14.673
11875W        W78284  43.753  16.630  11.643
11876W        W78285  21.812  15.328   4.150
11877W        W78286  21.625  39.631   1.337
11878W        W78287  42.305  34.732   0.981
11879W        W78288  16.108   9.117   3.237
11880W        W78289  43.341  13.493   2.696
11881W        W78290  10.294  42.777  13.995
11882W        W78291   4.714  19.681  12.587
11883W        W78292  11.864  43.525  11.495
11884W        W78293  17.004  24.718  10.864
11885W        W78294   1.990  22.945   0.390
11886W        W78295  25.603  39.462   0.384
11887W        W78296  43.588  15.182  13.807
11888W        W78297  31.696  28.932   2.353
11889W        W78298  14.907  40.034   4.607
11890W        W78299  27.086   2.362   3.503
11891W        W78300   3.707  20.857   3.161
11892W        W78301  10.473  12.635  14.824
11893W        W78302  19.440  16.117   2.252
11894W        W78303  41.137  18.401   3.781
11895W        W78304  14.369  10.866   3.266
11896W        W78305  10.659  37.246   0.542
11897W        W78306  36.070  20.475   5.220
11898W        W78307  38.134  17.986  14.790
11899W        W78308  30.448   8.576  10.095
11900W        W78309  33.555  25.299  11.956
11901W        W78310  33.425  21.845   1.038
11902W        W78311  14.761   1.273  14.688
11903W        W78312  32.496  24.642   3.243
11904W        W78313  42.994  26.238   3.110
11905W        W78314   1.239  12.956   1.803
11906W        W78315  23.012   5.188  10.966
11907W        W78316  37.071  19.269  14.922
11908W        W78317  13.087  40.976  14.913
11909W        W78318   8.280   3.123   4.561
11910W        W78319  23.641   1.840  13.808
11911W        W78320  37.325  30.020  11.273
11912W        W78321  25.981   6.306   0.466
11913W        W78322   9.313   1.870   2.820
11914W        W78323  31.858   1.259  12.072
11915W        W78324   6.726  43.734  13.837
11916W        W78325  21.563   4.443  12.608
11917W        W78326  39.852  35.268   3.867
11918W        W78327  34.071  31.718  12.990
11919W        W78328  38.143  14.726  13.954
11920W        W78329  28.039  32.564  12.419
11921W        W78330  44.968  35.160   0.827
11922W        W78331   7.887  19.264   4.663
11923W        W78332  40.985  13.407   0.731
11924W        W78333   2.082  14.962  13.883
11925W        W78334  38.673   4.291  13.559
11926W        W78335  34.799  10.840  13.419
11927W        W78336  27.494   2.613  10.654
11928W        W78337  26.913  39.079  10.540
11929W        W78338  12.174  28.230  11.303
11930W        W78339  27.618  31.438   3.067
11931W        W78340   7.048   9.867   0.216
11932W        W78341   7.124  18.132   1.613
11933W        W78342  39.952  36.109  13.038
11934W        W78343  24.334  41.908   0.694
11935W        W78344  30.068  15.094   3.890
11936W        W78345  21.621   7.889   3.656
11937W        W78346  41.624  44.847  14.815
11938W        W78347   9.157  30.031  12.572
11939W        W78348  33.999  12.799   0.477
11940W        W78349  11.319  18.452   1.158
11941W        W78350  26.323  32.119   2.667
11942W        W78351  18.909  26.419  14.868
11943W        W78352   2.724  43.979   2.170
11944W        W78353  17.596  27.272   2.227
11945W        W78354   7.911  10.085  14.865
11946W        W78355  43.258  39.716   2.307
11947W        W78356   2.533  12.643   2.422
11948W        W78357  19.026  14.011  14.131
11949W        W78358  39.445   3.979   4.408
11950W        W78359  25.942  43.942   0.807
11951W        W78360  35.582   0.551  12.839
11952W        W78361  27.080  19.108  11.133
11953W        W78362   1.532  23.103  13.749
11954W        W78363  16.780  19.154   0.833
11955W        W78364  40.389  42.251  12.499
11956W        W78365   4.713  22.728   3.214
11957W        W78366   5.263  18.707  14.238
11958W        W78367  24.082   4.722   2.707
11959W        W78368  34.042  44.870   0.321
11960W        W78369  38.005  25.952  12.447
11961W        W78370  17.527  27.209   1.724
11962W        W78371  28.032  33.644   1.834
11963W        W78372   3.993   3.892   1.774
11964W        W78373  36.463  37.334  10.980
11965W        W78374  17.205  41.273  11.044
11966W        W78375   7.761  22.373  14.119
11967W        W78376  25.172  38.764  11.909
11968W        W78377  38.652  19.096   0.387
11969W        W78378  27.706   2.857  12.378
11970W        W78379  34.052  17.297  13.402
11971W        W78380  27.620  21.289   0.819
11972W        W78381  34.207  22.718   0.355
11973W        W78382  14.366   7.178   0.216
11974W        W78383  21.967  31.564   2.737
11975W        W78384   3.382  41.635  13.036
11976W        W78385  39.057  28.607   2.789
11977W        W78386  11.076  11.661   2.721
11978W        W78387  36.554  14.020   2.378
11979W        W78388   2.486   0.929  12.126
11980W        W78389  22.733   4.764  12.102
11981W        W78390  38.148   5.185   2.829
11982W        W78391  13.137  19.774   3.178
11983W        W78392  37.147  18.369   0.931
11984W        W78393  26.136   3.725   0.642
11985W        W78394  39.313  43.393   0.492
11986W        W78395  27.172  26.183  10.476
11987W        W78396  37.886  40.305  10.211
11988W        W78397   5.250   0.043  10.628
11989W        W78398  20.003   3.906  13.143
11990W        W78399  20.064  28.478  12.901
11991W        W78400  43.952  23.725   3.232
11992W        W78401  38.358   5.595  14.173
11993W        W78402  41.503  10.932   1.114
11994W        W78403  25.442  12.744   1.615
11995W        W78404  14.908  37.899  12.864
11996W        W78405  17.117  11.807  10.940
11997W        W78406   6.037  37.879  12.608
11998W        W78407  23.419  33.303   3.209
11999W        W78408  33.627   6.343   3.455
12000W        W78409  36.838   5.327   2.368
12001W        W78410  37.234  15.221   3.113
12002W        W78411  25.701  12.497   0.330
12003W        W78412   6.184  31.918  11.634
12004W        W78413  23.220  33.845  12.209
12005W        W78414  17.278  32.183  11.017
12006W        W78415  22.177  23.653  14.534
12007W        W78416  10.351  32.459  13.512
12008W        W78417  12.809  33.167  14.799
12009W        W78418  40.351  10.955   2.633
12010W        W78419  27.689  44.259  13.119
12011W        W78420  15.066   8.448  12.469
12012W        W78421   8.215  15.309   3.731
12013W        W78422  29.655  18.626   0.480
12014W        W78423   0.732  34.908  11.324
12015W        W78424  32.576   4.497  13.481
12016W        W78425   1.912  37.062   2.164
12017W        W78426  17.840  21.619   4.008
12018W        W78427  25.489  41.727   0.660
12019W        W78428   0.973  40.955  12.568
12020W        W78429  31.637  44.719   3.624
12021W        W78430  24.591   8.854   4.690
12022W        W78431  27.555  16.359  14.455
12023W        W78432  22.752  38.889   5.266
12024W        W78433  11.756  22.629  13.309
12025W        W78434   6.798  21.094   4.314
12026W        W78435   1.786   4.931  12.189
12027W        W78436  33.757   5.982  14.384
12028W        W78437   0.042   4.723  12.677
12029W        W78438  18.106  27.282  14.528
12030W        W78439  27.899  35.798   2.370
12031W        W78440  38.759  31.323   3.143
12032W        W78441  11.033   6.760  13.946
12033W        W78442  14.764   6.811  13.975
12034W        W78443   5.963  31.257  11.054
12035W        W78444   3.964  31.415  13.786
12036W        W78445  21.505  13.300   3.134
12037W        W78446  23.305  42.020   4.179
12038W        W78447   2.565  10.736  12.863
12039W        W78448  25.855  20.073   3.201
12040W        W78449  12.641   6.977  11.588
12041W        W78450  31.950   4.731   2.283
12042W        W78451  16.605  44.497   4.907
12043W        W78452   7.932  22.547   1.836
12044W        W78453  39.255  15.593  12.520
12045W        W78454   8.295  11.876  14.412
12046W        W78455  12.714   3.208  13.085
12047W        W78456  43.662  21.408   1.366
12048W        W78457  30.544  10.374   1.761
12049W        W78458  44.526  32.344   1.409
12050W        W78459  23.257  16.625   2.142
12051W        W78460  41.583  28.888  10.543
12052W        W78461  31.055  43.217  12.058
12053W        W78462  16.140  22.788  14.449
12054W        W78463   9.398   6.345   4.594
12055W        W78464  10.019  29.553  11.463
12056W        W78465  28.693  32.453   2.366
12057W        W78466  20.708  39.432  11.613
12058W        W78467  38.806  36.585   3.763
12059W        W78468  32.144  39.462  12.085
12060W        W78469  27.133  31.505   0.891
12061W        W78470  42.475  43.189   3.227
12062W        W78471  39.483  21.948   2.929
12063W        W78472   7.283   2.379  14.877
12064W        W78473  22.991   3.945   3.714
12065W        W78474  40.073  14.288   2.809
12066W        W78475  39.548  37.997   3.624
12067W        W78476  43.440  19.724   5.009
12068W        W78477  27.641   9.756   1.481
12069W        W78478  42.465  12.266   4.525
12070W        W78479  32.983  35.076   3.437
12071W        W78480  38.692  11.826  14.016
12072W        W78481  25.186  16.116  10.803
12073W        W78482   7.857  37.958  13.949
12074W        W78483  10.678   9.627   4.627
12075W        W78484  11.000  10.131   0.440
12076W        W78485  26.946  21.173  13.676
12077W        W78486  37.158  34.736   0.711
12078W        W78487   8.450  28.169   3.638
12079W        W78488  41.759   3.926   1.337
12080W        W78489  15.126  26.910   1.469
12081W        W78490  43.787  27.277  11.603
12082W        W78491  34.254   7.434  14.992
12083W        W78492   4.883   8.770   4.988
12084W        W78493  28.840  39.794  11.996
12085W        W78494  44.793   8.357  14.923
12086W        W78495  36.574  21.042  10.971
12087W        W78496  16.790  14.202   3.735
12088W        W78497   2.325  10.341   1.450
12089W        W78498  33.593  13.927   4.628
12090W        W78499   0.360   1.159   2.952
12091W        W78500  19.622  41.842  13.952
12092W        W78501   2.257  38.874  14.347
12093W        W78502  33.597  37.353   2.806
12094W        W78503  15.041  31.192   1.913
12095W        W78504   8.866  37.765   1.158
12096W        W78505  39.529  11.881   0.773
12097W        W78506  18.736  37.084   3.674
12098W        W78507   6.170  19.240   1.353
12099W        W78508  42.204  25.541  12.654
12100W        W78509  39.544  38.557  14.947
12101W        W78510  18.179  25.135   3.658
12102W        W78511  17.558  44.511   2.478
12103W        W78512  35.043   4.023  12.344
12104W        W78513  12.402   4.267   2.248
12105W        W78514  18.096  44.884   3.174
12106W        W78515  24.219   0.765  14.987
12107W        W78516  43.609  35.102   0.405
12108W        W78517  31.968  37.496  14.749
12109W        W78518  23.514  23.290  13.652
12110W        W78519  24.565  18.722   1.700
12111W        W78520  12.823  31.375   3.038
12112W        W78521  31.837  33.409   4.155
12113W        W78522  36.911  44.419  12.071
12114W        W78523  15.741   7.186   3.741
12115W        W78524  19.525  22.989  11.507
12116W        W78525  22.594  21.541   4.624
12117W        W78526  42.300  38.606  12.503
12118W        W78527  38.830  22.929   4.319
12119W        W78528  26.012   4.259  10.707
12120W        W78529   2.069  40.878   2.279
12121W        W78530   6.853  24.646   2.303
12122W        W78531  18.723  22.170   3.209
12123W        W78532  29.788  41.614  12.021
12124W        W78533  13.500  42.852  10.520
12125W        W78534  39.764   6.801  13.304
12126W        W78535  36.442  16.063  10.440
12127W        W78536  19.706  27.968   1.398
12128W        W78537  25.758  16.110   0.452
12129W        W78538   2.310  12.372  12.957
12130W        W78539  20.057  24.198   4.975
12131W        W78540  25.199  43.872   1.641
12132W        W78541  26.020   1.389  14.912
12133W        W78542   6.985  29.933  11.077
12134W        W78543  34.907  28.400  13.377
12135W        W78544  39.149  43.486   3.318
12136W        W78545  29.544  31.020   1.656
12137W        W78546  41.815  17.020  11.982
12138W        W78547  33.350  11.882   0.933
12139W        W78548  36.565  37.541   3.163
12140W        W78549  22.771  33.086  11.202
12141W        W78550   6.922   0.851   2.148
12142W        W78551  31.011  28.523   2.171
12143W        W78552   9.629  43.446   3.747
12144W        W78553  27.192  15.682  12.612
12145W        W78554  22.775  44.781  12.834
12146W        W78555  14.384  18.730   5.189
12147W        W78556  38.535  23.153   4.704
12148W        W78557  32.066   5.279   0.271
12149W        W78558  34.125  22.121   1.676
12150W        W78559  26.156   3.254  10.478
12151W        W78560  26.176  27.466   3.053
12152W        W78561  28.552  20.622   4.914
12153W        W78562   9.698   5.799  10.639
12154W        W78563  24.439   0.998  10.592
12155W        W78564  11.517   6.401  12.632
12156W        W78565   2.767  16.785  12.247
12157W        W78566  14.740  26.099   1.788
12158W        W78567   7.261  32.021   3.205
12159W        W78568  34.405  18.557   1.843
12160W        W78569  29.680  26.383  11.532
12161W        W78570  20.270   4.136  14.746
12162W        W78571  21.176   9.572   3.858
12163W        W78572  18.238  34.301  12.551
12164W        W78573   1.791  38.613  14.331
12165W        W78574  21.468   6.907  11.938
12166W        W78575  14.754   0.472  14.739
12167W        W78576  39.922  17.625   3.211
12168W        W78577  19.229  43.250   2.851
12169W        W78578  42.007  41.082  11.992
12170W        W78579  44.112  18.276   4.241
12171W        W78580  36.196  32.118   1.029
12172W        W78581  11.061  15.955  11.506
12173W        W78582  22.496  13.401   3.205
12174W        W78583  22.141  26.888   4.033
12175W        W78584   4.257  44.447   4.626
12176W        W78585   2.939   8.531  14.420
12177W        W78586   0.398  27.321   1.356
12178W        W78587  24.792  10.903   0.768
12179W        W78588  10.360   6.908   0.956
12180W        W78589  40.363  13.829   4.623
12181W        W78590   7.206  31.177  10.671
12182W        W78591   3.274   4.659  11.280
12183W        W78592   5.162  26.000  14.576
12184W        W78593  24.600   0.239   1.941
12185W        W78594  23.450  32.433   3.690
12186W        W78595  19.604  41.353   1.243
12187W        W78596   6.243  24.021   4.355
12188W        W78597  17.659   1.865  14.864
12189W        W78598  39.406   2.919   3.284
12190W        W78599   6.382  31.870   3.773
12191W        W78600   7.653  19.574   3.094
12192W        W78601  23.277   1.105  13.573
12193W        W78602  14.622  10.327   1.165
12194W        W78603  38.993  13.815  12.024
12195W        W78604  35.344  37.419   0.282
12196W        W78605  44.774  14.394   1.463
12197W        W78606   3.340  13.852   0.791
12198W        W78607  33.386  29.358   0.847
12199W        W78608  27.780  27.393   3.795
12200W        W78609  41.336  42.755   1.004
12201W        W78610  22.778  22.924  14.380
12202W        W78611  35.842  44.981   2.368
12203W        W78612   6.200  42.454   0.292
12204W        W78613   3.953  24.445  12.459
12205W        W78614   7.160  40.817   4.187
12206W        W78615  41.856  22.530  11.470
12207W        W78616  38.489   9.283  13.907
12208W        W78617  41.030  40.964  11.584
12209W        W78618  32.984  32.796   0.799
12210W        W78619  17.544  35.454  12.976
12211W        W78620  32.577  24.088  12.588
12212W        W78621  22.400  37.462   4.653
12213W        W78622  13.256  44.075  14.445
12214W        W78623  26.468  31.628  14.147
12215W        W78624  35.375  26.643   1.745
12216W        W78625   2.758  24.633   2.213
12217W        W78626  17.216  23.182  12.374
12218W        W78627  23.941  27.075   0.317
12219W        W78628  17.021  33.584   2.553
12220W        W78629  41.469  41.521  13.103
12221W        W78630  34.374  42.928   1.918
12222W        W78631   3.436  20.696   2.742
12223W        W78632  27.546  41.081   1.675
12224W        W78633  33.087   4.412   0.342
12225W        W78634  20.168  44.024  13.815
12226W        W78635  38.835  44.359  12.128
12227W        W78636  19.628   1.957   1.795
12228W        W78637   9.087  40.585  12.741
12229W        W78638   6.257  19.542  13.000
12230W        W78639  13.114  36.593   0.552
12231W        W78640  23.650  26.156  14.864
12232W        W78641  30.042   7.935   1.850
12233W        W78642  17.608  36.483  14.071
12234W        W78643  40.340  10.377  14.729
12235W        W78644  42.351  26.241  11.147
12236W        W78645  32.629  21.019   3.315
12237W        W78646   4.682  33.774   0.984
12238W        W78647  43.853  10.958  13.418
12239W        W78648  32.252   5.514  10.472
12240W        W78649  24.662  19.795  13.517
12241W        W78650   3.458  25.120   1.671
12242W        W78651  43.670  12.639  14.657
12243W        W78652   0.833  33.015   1.774
12244W        W78653  18.958  26.107   0.736
12245W        W78654  10.262  20.727   4.518
12246W        W78655   9.610  28.959  12.103
12247W        W78656  22.979  13.094  11.132
12248W        W78657  18.698  16.332   2.917
12249W        W78658  20.017  16.186   1.588
12250W        W78659  43.910  11.164   2.819
12251W        W78660  41.898   9.161  13.432
12252W        W78661  23.338  36.517  14.449
12253W        W78662  33.413  15.311  13.285
12254W        W78663  19.276   2.272   4.108
12255W        W78664  34.047  14.538   1.348
12256W        W78665   2.921   2.367   1.647
12257W        W78666  15.308   9.325   0.818
12258W        W78667  28.908  34.164  11.020
12259W        W78668  18.810   0.177   4.871
12260W        W78669  39.380  38.353  12.954
12261W        W78670  12.669  17.547   0.279
12262W        W78671  13.712  23.679   2.662
12263W        W78672  15.599  42.946   0.209
12264W        W78673  15.111  34.477   0.892
12265W        W78674  24.400  18.499  11.137
12266W        W78675   4.863  34.426   0.489
12267W        W78676  38.863   1.779   1.379
12268W        W78677  33.019  14.854   0.823
12269W        W78678  42.121  44.096   1.196
12270W        W78679  34.318  13.848  10.988
12271W        W78680  41.322  16.803  13.352
12272W        W78681  10.350   3.720  11.250
12273W        W78682   8.808  36.429   5.046
12274W        W78683  37.469  15.672  11.031
12275W        W78684  28.232  34.525  12.110
12276W        W78685  34.941   1.892   4.331
12277W        W78686  11.670   0.814  12.946
12278W        W78687   5.370  17.166   2.328
12279W        W78688  30.575  19.547  13.500
12280W        W78689  17.700  21.540  11.652
12281W        W78690  16.892   9.702  10.729
12282W        W78691  41.947  13.742   0.313
12283W        W78692  38.947  20.143   0.059
12284W        W78693  12.915  13.186  12.598
12285W        W78694  24.064  39.592   3.793
12286W        W78695  31.075   6.447   1.796
12287W        W78696  40.291  21.596  14.804
12288W        W78697  17.558   8.262   2.122
12289W        W78698   7.832  16.995  14.459
12290W        W78699  12.713  23.504   1.337
12291W        W78700  36.163  19.355  11.462
12292W        W78701  20.238  24.106  11.924
12293W        W78702  13.380  36.410   0.953
12294W        W78703   7.303  37.159   0.606
12295W        W78704   5.233  36.988   2.736
12296W        W78705  28.136   0.676   2.201
12297W        W78706  32.663  39.479  12.011
12298W        W78707   6.491  20.350  12.094
12299W        W78708  10.663  18.035  11.586
12300W        W78709  11.651   5.918   1.452
12301W        W78710  22.731   5.754   4.100
12302W        W78711  41.226  41.380   3.331
12303W        W78712  42.677  25.908  11.365
12304W        W78713  41.034  22.529   2.815
12305W        W78714  26.650   6.502  10.739
12306W        W78715   9.882  30.911   5.566
12307W        W78716   0.926  15.390  13.861
12308W        W78717  31.844   2.195  12.902
12309W        W78718  15.825  32.613  12.405
12310W        W78719   1.541   8.375  13.880
12311W        W78720  29.270  31.716  12.143
12312W        W78721  42.783  42.319  12.392
12313W        W78722  18.785  27.681  11.592
12314W        W78723  16.319  25.415   0.359
12315W        W78724  21.511  39.308  10.390
12316W        W78725   4.738  29.065   1.798
12317W        W78726  32.388  26.683   2.383
12318W        W78727   3.045  18.801  13.782
12319W        W78728  13.268  15.351   3.049
12320W        W78729  24.640  37.867  12.176
12321W        W78730   0.913  36.585   4.681
12322W        W78731  35.545  39.639   3.908
12323W        W78732   8.373  14.363   0.829
12324W        W78733  16.197  29.703  13.235
12325W        W78734  38.295   7.959   4.193
12326W        W78735  23.718   7.189   2.313
12327W        W78736  41.494   9.610  11.282
12328W        W78737  29.948   7.412  13.292
12329W        W78738  25.062  20.525  10.407
12330W        W78739   3.911  13.683   2.975
12331W        W78740   1.298  44.487   4.029
12332W        W78741   4.365  41.096   1.842
12333W        W78742  10.316  21.454  14.363
12334W        W78743   9.184   3.508  11.566
12335W        W78744  29.433  30.764  13.833
12336W        W78745  21.492  30.402   1.958
12337W        W78746  29.541   1.005  10.713
12338W        W78747  27.538  20.504  13.525
12339W        W78748  26.180  14.354  14.388
12340W        W78749  15.686  10.764  13.397
12341W        W78750  24.995  12.207  11.403
12342W        W78751  16.737  37.288  13.830
12343W        W78752   7.343  36.825   2.818
12344W        W78753  27.925   9.097  12.893
12345W        W78754  11.806  40.796   4.160
12346W        W78755  14.288  19.103  14.553
12347W        W78756   4.101  42.276  11.009
12348W        W78757  10.567  24.760  13.961
12349W        W78758  44.000  34.750  14.435
12350W        W78759  34.478  32.471  10.656
12351W        W78760  39.027  27.921   4.596
12352W        W78761  26.013  18.669   3.603
12353W        W78762  11.649  40.159   2.798
12354W        W78763   0.329  25.916   1.149
12355W        W78764  33.865  13.078   9.979
12356W        W78765  26.466  33.076  10.647
12357W        W78766   6.266  19.822   3.737
12358W        W78767  40.995  24.756  10.696
12359W        W78768  37.138  13.157   1.366
12360W        W78769  23.754  44.830  13.987
12361W        W78770  44.470  13.338  11.036
12362W        W78771   2.742  25.436  12.931
12363W        W78772  36.980  26.701   0.560
12364W        W78773   7.641  39.392   1.238
12365W        W78774  26.416  25.071  11.375
12366W        W78775   5.781   9.717  11.520
12367W        W78776  42.089  18.801   5.374
12368W        W78777  36.356  40.782  13.902
12369W        W78778   6.737  22.073   4.653
12370W        W78779  18.330  23.716  11.680
12371W        W78780  16.851  38.957  13.703
12372W        W78781  16.639  21.626   3.530
12373W        W78782  40.052  44.438   2.526
12374W        W78783  33.054  26.283  10.612
12375W        W78784  17.176  25.928  11.328
12376W        W78785  15.261  20.004  11.124
12377W        W78786  26.817  43.610  12.212
12378W        W78787  37.084  12.339  13.175
12379W        W78788  36.523  17.736   2.262
12380W        W78789  29.538  38.455   0.979
12381W        W78790  40.916   2.208   3.238
12382W        W78791  19.968  11.161   2.778
12383W        W78792  27.490  11.148   1.429
12384W        W78793  19.483  22.100   4.605
12385W        W78794  29.722   8.186   3.728
12386W        W78795  14.145   3.341   0.922
12387W        W78796  31.647  24.590  13.282
12388W        W78797  16.130   0.025   1.937
12389W        W78798  44.801   9.140   0.515
12390W        W78799  31.743  23.529  12.363
12391W        W78800   3.742  39.320  11.575
12392W        W78801  24.673   8.145   0.989
12393W        W78802  17.971   5.344   2.875
12394W        W78803  22.882   8.869   1.032
12395W        W78804  35.508  18.744   4.813
12396W        W78805  13.287  13.044   2.319
12397W        W78806  43.888   2.963   1.839
12398W        W78807  40.526  10.788  12.557
12399W        W78808  31.117   8.956   1.280
12400W        W78809  35.809  21.199   4.105
12401W        W78810  20.416  10.797   1.404
12402W        W78811  33.601   0.803   0.713
12403W        W78812  10.824  40.532   3.142
12404W        W78813  39.530  41.120   0.239
12405W        W78814  39.364   7.427   1.496
12406W        W78815   1.895  41.681   3.725
12407W        W78816   4.971  21.952   1.404
12408W        W78817  13.579  27.493  13.540
12409W        W78818   1.931  41.880  14.490
12410W        W78819  21.336  30.733   4.391
12411W        W78820  13.715  21.108  14.336
12412W        W78821  37.078   8.835   2.252
12413W        W78822  10.609  41.859  13.126
12414W        W78823  30.234  29.821   0.678
12415W        W78824   5.621  39.087   3.724
12416W        W78825   9.969   5.885  12.977
12417W        W78826   6.028  24.095  13.302
12418W        W78827  42.451   8.878  14.363
12419W        W78828  18.330  16.203   3.551
12420W        W78829  10.671   2.335   4.049
12421W        W78830  24.721  10.346  14.514
12422W        W78831   3.175  42.241   1.589
12423W        W78832  28.178  39.793   1.795
12424W        W78833  28.854  38.426  10.469
12425W        W78834   9.613   3.012   1.831
12426W        W78835  39.995   7.361  11.118
12427W        W78836   3.983  37.627  11.087
12428W        W78837  25.269  28.672  11.649
12429W        W78838   3.702  18.527  11.178
12430W        W78839  25.416  23.327  12.989
12431W        W78840  35.608   0.964   0.336
12432W        W78841  44.826  14.608   0.848
12433W        W78842   6.256  27.567   3.299
12434W        W78843   8.919  41.433   1.216
12435W        W78844  21.500   6.605   1.325
12436W        W78845  29.508   6.335  12.968
12437W        W78846  29.886   8.828   3.233
12438W        W78847   5.580   2.302   1.353
12439W        W78848  38.414   1.883  13.079
12440W        W78849   5.878   4.161   1.773
12441W        W78850  33.564  33.904  12.526
12442W        W78851  30.058   7.628   3.371
12443W        W78852   1.317   7.108  12.523
12444W        W78853  16.216   0.616   3.708
12445W        W78854  24.317  42.830   4.092
12446W        W78855  44.575  18.205   1.828
12447W        W78856   2.513  38.417  11.957
12448W        W78857  11.182  26.632  11.903
12449W        W78858  32.353  20.370   2.264
12450W        W78859  13.669  41.864   1.497
12451W        W78860  43.264  24.840   0.085
12452W        W78861  41.053  36.247   0.205
12453W        W78862   9.791   0.269   4.146
12454W        W78863  28.418  16.181   1.164
12455W        W78864  15.311  20.572   3.399
12456W        W78865  42.194   0.372  14.736
12457W        W78866  13.772  22.880   4.533
12458W        W78867  24.644  29.500  12.233
12459W        W78868  36.643  29.150  10.503
12460W        W78869  41.374  21.811  10.647
12461W        W78870  20.558  15.890  14.910
12462W        W78871  17.781   3.477  11.622
12463W        W78872   4.669   0.940   4.109
12464W        W78873  41.456   4.351  12.020
12465W        W78874  27.945  23.591   4.294
12466W        W78875  33.553  19.285  12.942
12467W        W78876  12.717  16.739   3.319
12468W        W78877  43.682  23.716   3.683
12469W        W78878  15.282  22.336  12.031
12470W        W78879  44.752  32.591  11.197
12471W        W78880  19.896   6.356   3.408
12472W        W78881  32.266  16.644   4.639
12473W        W78882  29.227  13.285  12.150
12474W        W78883  32.918  13.968  11.227
12475W        W78884  27.274  23.023   3.197
12476W        W78885   6.136  26.146  11.215
12477W        W78886  26.263  36.744   3.067
12478W        W78887   7.294  11.444   3.659
12479W        W78888  28.583  28.414  14.201
12480W        W78889  39.170  25.903   0.672
12481W        W78890  27.159  25.575   2.689
12482W        W78891   7.790   9.422  11.982
12483W        W78892  38.302  42.226   3.255
12484W        W78893  21.589  30.860  14.158
12485W        W78894  31.745  38.077   3.842
12486W        W78895   6.770   2.264   1.652
12487W        W78896  18.704   3.301  10.677
12488W        W78897   7.313  27.044   0.676
12489W        W78898  41.559  22.317   4.513
12490W        W78899   9.210  11.339  12.863
12491W        W78900   6.715  43.959   4.452
12492W        W78901  23.299  21.737   0.916
12493W        W78902   0.566  22.078  11.312
12494W        W78903  33.946  25.575  13.894
12495W        W78904  43.773   7.390  10.283
12496W        W78905  32.738  44.605   2.855
12497W        W78906  29.916  14.243   0.714
12498W        W78907   9.293  36.745  10.908
12499W        W78908  39.086  20.564  14.797
12500W        W78909  27.151  16.774   2.196
12501W        W78910  42.725  13.133  13.423
12502W        W78911  15.296  15.576   4.626
12503W        W78912  31.169  40.416  12.163
12504W        W78913  44.336   5.246  11.979
12505W        W78914  23.313   9.873   0.478
12506W        W78915  23.025  16.671   0.835
12507W        W78916  12.627  14.594   2.114
12508W        W78917  11.603  26.037   3.624
12509W        W78918  39.033  28.490  10.922
12510W        W78919  16.347  26.244   2.571
12511W        W78920  13.485  10.247  13.476
12512W        W78921  16.377  13.604  12.961
12513W        W78922   0.376  20.197   2.798
12514W        W78923   2.149  27.130  10.757
12515W        W78924  29.477  40.155  10.812
12516W        W78925  20.152  39.527   2.720
12517W        W78926  29.347  19.240   1.445
12518W        W78927  15.013  34.101  10.737
12519W        W78928  23.106  29.019   1.228
12520W        W78929  26.141  23.528  14.238
12521W        W78930  23.958  11.871   3.134
12522W        W78931  27.416  43.104  12.393
12523W        W78932  41.461   7.959   1.540
12524W        W78933   1.926  21.530  12.001
12525W        W78934  14.596  26.343  11.090
12526W        W78935   0.638  19.621   4.169
12527W        W78936  25.645   3.154  11.642
12528W        W78937   5.425  24.041  12.459
12529W        W78938  36.482  17.680   1.756
12530W        W78939   2.810   2.681  14.365
12531W        W78940   5.253  28.931   2.638
12532W        W78941  43.806  20.157  12.174
12533W        W78942   7.815   8.855   2.701
12534W        W78943  33.967  18.867  12.548
12535W        W78944  36.867  19.246  12.552
12536W        W78945   6.551   0.837   4.545
12537W        W78946  18.149  16.037   1.250
12538W        W78947  14.441  17.945   4.523
12539W        W78948  43.233   5.486   2.637
12540W        W78949  20.967   0.995   1.604
12541W        W78950   0.541   8.384  13.345
12542W        W78951   4.891  43.409  12.001
12543W        W78952  18.514   3.899   3.708
12544W        W78953  24.123  41.066  10.622
12545W        W78954  38.048  43.516   4.356
12546W        W78955   6.818  25.652  11.711
12547W        W78956   9.580  20.178   4.654
12548W        W78957   3.699  37.400   0.866
12549W        W78958  19.657  11.178   0.497
12550W        W78959  26.006   5.115  14.395
12551W        W78960   7.906   6.709  11.363
12552W        W78961  41.129   9.689   2.838
12553W        W78962  24.252  42.885  10.689
12554W        W78963  15.685   1.761  11.160
12555W        W78964   1.807  30.923   3.788
12556W        W78965  37.860   8.849  13.601
12557W        W78966  40.294   9.813  12.995
12558W        W78967  27.638  38.893   4.944
12559W        W78968  24.724  30.900  13.336
12560W        W78969  15.249  28.953   4.618
12561W        W78970  37.470   0.345   3.327
12562W        W78971   4.237   9.232   4.561
12563W        W78972  31.529  16.861  14.018
12564W        W78973  41.758   4.792   5.075
12565W        W78974  35.985  21.778   4.531
12566W        W78975  18.608  33.283   3.831
12567W        W78976  29.110  39.689  13.293
12568W        W78977  37.991  24.079   0.223
12569W        W78978  43.566  16.033   1.351
12570W        W78979  30.110  19.677  14.473
12571W        W78980   4.444  11.860  11.779
12572W        W78981  12.186   3.864   3.858
12573W        W78982  15.569  14.744   1.781
12574W        W78983   4.963  34.503   2.280
12575W        W78984  17.788  24.978  13.402
12576W        W78985   6.264  14.236  12.550
12577W        W78986  42.576   3.463  13.506
12578W        W78987  30.621  24.763   2.793
12579W        W78988  18.064   1.489  11.460
12580W        W78989  44.556  39.391  14.023
12581W        W78990  36.083  31.108  11.145
12582W        W78991  26.927   7.683   0.352
12583W        W78992  25.465  27.702   2.955
12584W        W78993  27.392  11.362   4.173
12585W        W78994  41.411  37.850   4.599
12586W        W78995  34.723  44.727  11.809
12587W        W78996  18.583   5.635  12.584
12588W        W78997  25.161  12.313   1.732
12589W        W78998  34.844   4.609   3.200
12590W        W78999   7.376  28.996   0.955
12591W        W79000  26.631  21.483   5.126
12592W        W79001  38.464  15.922   9.782
12593W        W79002  30.864  29.397   4.141
12594W        W79003  12.823   6.112   2.357
12595W        W79004  37.457  26.328   2.067
12596W        W79005  39.348  16.688  11.262
12597W        W79006  17.342  21.208   3.136
12598W        W79007  13.917   6.855  14.468
12599W        W79008  21.210  37.644   2.756
12600W        W79009  27.087  19.941   0.875
12601W        W79010  35.921   9.173   2.587
12602W        W79011   7.397  35.541  13.088
12603W        W79012   4.554  37.009   3.606
12604W        W79013  34.541   4.278  14.467
12605W        W79014   4.957  38.120  11.979
12606W        W79015  27.194   0.533   1.707
12607W        W79016  28.224  40.981  11.633
12608W        W79017   6.677  34.684   1.330
12609W        W79018  19.341  31.638   1.997
12610W        W79019   7.739   3.675  11.094
12611W        W79020  40.253  34.995   0.294
12612W        W79021  10.812  28.024   4.587
12613W        W79022  26.647   2.363   1.657
12614W        W79023  42.346  38.140   4.271
12615W        W79024  31.412  21.293   2.761
12616W        W79025   7.271  19.693  10.616
12617W        W79026   9.930  11.341   0.029
12618W        W79027  12.172   6.985   3.231
12619W        W79028   4.226   9.762  10.594
12620W        W79029   6.694  10.891  14.827
12621W        W79030  14.648  35.471  14.450
12622W        W79031  11.765  20.106  11.902
12623W        W79032  29.878   3.902  10.595
12624W        W79033   0.363  40.402  12.966
12625W        W79034   8.762  36.496  11.177
12626W        W79035  40.495  40.296  14.826
12627W        W79036  38.446  33.100  11.139
12628W        W79037   2.281  31.510   1.670
12629W        W79038   3.419   6.719   0.945
12630W        W79039  42.386   5.971  14.327
12631W        W79040  31.046  34.882  14.720
12632W        W79041  11.236  41.840  14.770
12633W        W79042  19.516  35.002  14.244
12634W        W79043   1.486  41.433   0.661
12635W        W79044  44.707  39.312  13.549
12636W        W79045  39.046   5.775   3.943
12637W        W79046  23.659  30.219   4.377
12638W        W79047   5.701  16.524   0.295
12639W        W79048   2.810  19.840  14.635
12640W        W79049  14.563  28.443  14.707
12641W        W79050   9.370   5.926   2.840
12642W        W79051  44.244  29.161   2.653
12643W        W79052  42.904  44.397   3.206
12644W        W79053  26.622  40.070   3.346
12645W        W79054  27.935  23.505  14.857
12646W        W79055  17.576  22.582   1.406
12647W        W79056  35.853  15.113   3.126
12648W        W79057  27.651   2.017  13.941
12649W        W79058  25.584  33.415   2.813
12650W        W79059   9.601  17.731   2.388
12651W        W79060   2.364  14.569   0.424
12652W        W79061  27.762   1.807  12.455
12653W        W79062  33.695   0.377   3.241
12654W        W79063   2.980  26.257  12.610
12655W        W79064  38.547  39.921   2.334
12656W        W79065   4.667  39.045   3.781
12657W        W79066  20.092  13.416   1.544
12658W        W79067   6.484   5.189   1.153
12659W        W79068  35.090  14.283  11.015
12660W        W79069  17.045  20.273  14.524
12661W        W79070  26.748  19.785  12.096
12662W        W79071  12.618  31.857   4.254
12663W        W79072  44.808  44.508  11.525
12664W        W79073  15.178  29.222  13.838
12665W        W79074  21.030  13.459   4.329
12666W        W79075  42.598  30.032   2.150
12667W        W79076  16.489  43.724   1.378
12668W        W79077  43.263  24.973   2.375
12669W        W79078  21.189  17.169  11.643
12670W        W79079  28.469  36.029  11.402
12671W        W79080  28.887  44.701  12.962
12672W        W79081  30.726  18.492  11.931
12673W        W79082   0.676  37.021   4.531
12674W        W79083   1.432   1.447  11.656
12675W        W79084   2.883  11.537  14.869
12676W        W79085  18.415  37.021  10.785
12677W        W79086   2.856  37.064   2.693
12678W        W79087  19.187  43.041  14.963
12679W        W79088   2.827   0.958  13.047
12680W        W79089  40.458   1.364   2.173
12681W        W79090  42.032   0.144  12.896
12682W        W79091  28.381  36.438   0.408
12683W        W79092   7.348   6.211   3.578
12684W        W79093  35.070   2.371  11.716
12685W        W79094  33.215  42.478  10.601
12686W        W79095  20.616  21.121  11.526
12687W        W79096  34.233  32.218  12.418
12688W        W79097  39.763  12.798   0.497
12689W        W79098  15.967   7.213  14.830
12690W        W79099  21.502  15.983   1.745
12691W        W79100  38.017  35.521  14.781
12692W        W79101   6.220   0.212   2.221
12693W        W79102  12.774  42.405  13.874
12694W        W79103  27.583  25.504  13.996
12695W        W79104  42.946   9.849  13.452
12696W        W79105  41.239  17.743   3.227
12697W        W79106  12.372  35.020  11.916
12698W        W79107  39.544  24.244   1.731
12699W        W79108  21.826  37.050   4.741
12700W        W79109  27.072  23.931  11.673
12701W        W79110  12.177  25.651   3.753
12702W        W79111  35.026  23.174   0.823
12703W        W79112  22.485   2.206   0.073
12704W        W79113  17.497  18.131   4.944
12705W        W79114  10.429  11.627  12.894
12706W        W79115   2.379  43.243   0.161
12707W        W79116  44.543  16.728  12.036
12708W        W79117  40.926  27.674  11.670
12709W        W79118  35.044   2.912   2.726
12710W        W79119  13.663   7.160   0.883
12711W        W79120  16.716  15.597   0.324
12712W        W79121  42.348  26.535  14.020
12713W        W79122  39.127  22.662  13.553
12714W        W79123  26.977  27.528   2.867
12715W        W79124  13.293   9.186  11.589
12716W        W79125  14.713  33.368  14.888
12717W        W79126  35.288  25.231  13.527
12718W        W79127  43.973  44.844   0.086
12719W        W79128  14.316  30.195   1.227
12720W        W79129   2.315  27.212  13.003
12721W        W79130  16.650   5.807   3.142
12722W        W79131   4.388  22.201  12.053
12723W        W79132  30.159  25.007   2.874
12724W        W79133  33.860  40.070   1.867
12725W        W79134   6.732  32.917   2.046
12726W        W79135  36.471  22.425   2.268
12727W        W79136  41.205   3.898   2.816
12728W        W79137  34.785  21.618  12.902
12729W        W79138  44.202  28.048   3.632
12730W        W79139  34.950  40.841  10.931
12731W        W79140  27.098  13.188  11.063
12732W        W79141   0.284  21.658  11.180
12733W        W79142  17.403  42.481  13.477
12734W        W79143   9.612  13.167   3.654
12735W        W79144   0.726  14.214  12.888
12736W        W79145  27.646  18.158  14.820
12737W        W79146  27.444  11.332   5.218
12738W        W79147  15.924  40.248   4.276
12739W        W79148   0.075   5.812   2.877
12740W        W79149  38.853  34.195   2.177
12741W        W79150   0.173  16.164   2.400
12742W        W79151   4.375  29.747   2.068
12743W        W79152  22.707  27.036  10.480
12744W        W79153  37.821  22.950   3.433
12745W        W79154   8.093   2.017  14.033
12746W        W79155  28.552   5.988  11.471
12747W        W79156   0.854  20.034   4.418
12748W        W79157  17.563  16.744  11.596
12749W        W79158  25.199  24.532   9.878
12750W        W79159   0.971  23.662  13.561
12751W        W79160  26.551   6.441   1.378
12752W        W79161  30.573  18.045  13.501
12753W        W79162  29.580  12.347   2.857
12754W        W79163  12.717  30.377   1.699
12755W        W79164  22.876   7.372   1.674
12756W        W79165  19.070  10.305  11.489
12757W        W79166  27.469   8.922   1.397
12758W        W79167  19.198  38.470   4.539
12759W        W79168  34.280  25.639   2.503
12760W        W79169  36.077   5.307   0.022
12761W        W79170  14.043  28.092   3.508
12762W        W79171   6.697   6.280   0.242
12763W        W79172   4.422  26.849  11.054
12764W        W79173   2.462  23.176   4.395
12765W        W79174  33.943  31.120   4.353
12766W        W79175  30.003  34.579  10.767
12767W        W79176  43.355  29.110   3.714
12768W        W79177  12.273  40.574   3.227
12769W        W79178  41.924  21.006  11.043
12770W        W79179  10.513  24.016   9.898
12771W        W79180  22.805  37.608  12.606
12772W        W79181   9.483  20.122  11.511
12773W        W79182   2.944  40.985   4.718
12774W        W79183   6.804  15.611   4.591
12775W        W79184  18.188  10.086   1.227
12776W        W79185  44.097  35.492   4.663
12777W        W79186  21.048  31.150  13.651
12778W        W79187   4.496   9.637   4.952
12779W        W79188  43.429  15.048   1.058
12780W        W79189  32.403  26.677  12.975
12781W        W79190  41.849  23.069  14.490
12782W        W79191  14.938  10.261   2.833
12783W        W79192  39.543  28.929   3.158
12784W        W79193  13.239  41.134  10.071
12785W        W79194  36.774  33.586   2.742
12786W        W79195   9.296  34.502   0.484
12787W        W79196  44.973  12.294   3.526
12788W        W79197  27.515  44.004   0.268
12789W        W79198  44.960  10.647   2.671
12790W        W79199  23.526  10.763   4.504
12791W        W79200  32.502  25.183   3.952
12792W        W79201   1.769   0.524  11.036
12793W        W79202  14.569  19.371  12.940
12794W        W79203  21.755  29.121  10.928
12795W        W79204  10.001  19.081  11.146
12796W        W79205  14.022  30.228   2.611
12797W        W79206  11.735  11.612  14.938
12798W        W79207  25.692  43.291   3.516
12799W        W79208  11.878   1.496   3.562
12800W        W79209  18.135  42.485   0.229
12801W        W79210  31.166  25.685  13.412
12802W        W79211  35.947   8.187   2.259
12803W        W79212  23.850  12.589   0.421
12804W        W79213  41.118   8.817   3.647
12805W        W79214  43.824  11.935   1.854
12806W        W79215   2.318   1.926  11.456
12807W        W79216  33.606  40.032   3.619
12808W        W79217  26.518  33.158   1.703
12809W        W79218  18.153  26.972  11.451
12810W        W79219  16.845  23.575   3.725
12811W        W79220   1.297  44.421  11.594
12812W        W79221  28.634  38.853   1.790
12813W        W79222  28.560  18.896  11.506
12814W        W79223  17.289  21.844  14.015
12815W        W79224  34.093  30.521  12.066
12816W        W79225   8.703  13.155   5.007
12817W        W79226  15.356  25.680  12.924
12818W        W79227  33.895  39.666  10.982
12819W        W79228   0.652  26.223   0.714
12820W        W79229  40.254   3.187   2.940
12821W        W79230  21.410  32.985  13.874
12822W        W79231  35.943   0.035   0.506
12823W        W79232   7.104  22.719   0.678
12824W        W79233   8.740  29.300   0.789
12825W        W79234  24.384  21.046   9.764
12826W        W79235   9.633   8.127   1.868
12827W        W79236  43.447  34.968  11.240
12828W        W79237   3.717  32.514  10.640
12829W        W79238   2.483   3.705  14.540
12830W        W79239  35.168  43.058  11.193
12831W        W79240  14.293  37.796   0.421
12832W        W79241   7.894  13.575   4.095
12833W        W79242   7.146   3.458   0.268
12834W        W79243  15.745   8.403   3.467
12835W        W79244   2.844  35.149   3.540
12836W        W79245   1.757  37.475   0.934
12837W        W79246   2.517  18.497  13.116
12838W        W79247  11.105  40.803   0.629
12839W        W79248   3.224  26.907   1.098
12840W        W79249  30.634  32.089  11.006
12841W        W79250  20.200  16.933   4.929
12842W        W79251   6.821  43.760   3.219
12843W        W79252   2.685  32.863   2.701
12844W        W79253  22.944  41.875  13.941
12845W        W79254  23.064  38.819  12.405
12846W        W79255  42.851  44.177   2.661
12847W        W79256  23.592  19.518  12.441
12848W        W79257   3.397  33.973  13.903
12849W        W79258  25.528  31.443  12.328
12850W        W79259  40.386  30.604   2.663
12851W        W79260   7.691  28.346  10.587
12852W        W79261  19.623  30.628   1.413
12853W        W79262  24.742   0.314  12.182
12854W        W79263  15.685  28.691   4.443
12855W        W79264  36.929   3.502   4.731
12856W        W79265  28.146  22.771  11.008
12857W        W79266  19.549  24.718  10.641
12858W        W79267  28.582  16.088  14.736
12859W        W79268   3.314   0.762  13.112
12860W        W79269  16.374   9.916  11.624
12861W        W79270   1.862  32.605   3.287
12862W        W79271  37.021  38.027   1.859
12863W        W79272  39.849  21.599  10.529
12864W        W79273  35.473  35.092   2.724
12865W        W79274  26.438  28.465  12.969
12866W        W79275  44.753  35.778  11.669
12867W        W79276  42.480   1.821  12.994
12868W        W79277   8.924  12.676   2.458
12869W        W79278  34.073  20.599  11.605
12870W        W79279  13.161   5.623  10.681
12871W        W79280  38.660  18.323  11.524
12872W        W79281  12.246  10.904  12.567
12873W        W79282  26.772  12.627   2.804
12874W        W79283  17.479  34.337  14.937
12875W        W79284  40.507  30.486  10.611
12876W        W79285  32.559   0.588   0.326
12877W        W79286   1.717  11.670   3.234
12878W        W79287  32.865  37.892   1.894
12879W        W79288  15.949  39.125   5.430
12880W        W79289  32.811  10.854  11.178
12881W        W79290  40.464   7.275  14.338
12882W        W79291  29.173  17.597   1.210
12883W        W79292  25.149   1.670   4.678
12884W        W79293  11.790  15.768   1.897
12885W        W79294   6.474  38.788  12.417
12886W        W79295  30.631   5.184   1.950
12887W        W79296   3.957  36.961   0.808
12888W        W79297   5.716   9.236  12.548
12889W        W79298   3.398   5.916  12.007
12890W        W79299   3.774  13.078  12.136
12891W        W79300   4.415  42.131  14.933
12892W        W79301  37.663  44.080  11.021
12893W        W79302  11.795  15.926  13.257
12894W        W79303   3.682   5.266   1.235
12895W        W79304  36.592   0.449  12.422
12896W        W79305   7.178  38.120   0.777
12897W        W79306  25.891  20.217   2.267
12898W        W79307   1.396  26.238  13.915
12899W        W79308  29.934  37.276  10.800
12900W        W79309  32.864  16.642   3.768
12901W        W79310  33.948  38.266  12.514
12902W        W79311  26.096  16.507   4.174
12903W        W79312  24.106  38.352   0.908
12904W        W79313   9.787  25.536  12.791
12905W        W79314   0.797  15.151  12.489
12906W        W79315  30.573  17.915   2.793
12907W        W79316  25.080  16.804   2.784
12908W        W79317   7.626  26.608  12.010
12909W        W79318  28.989  38.394  14.455
12910W        W79319  11.589  16.792   2.621
12911W        W79320  39.821  20.739  12.278
12912W        W79321  33.074   9.388  12.096
12913W        W79322  27.377   6.991  14.904
12914W        W79323  10.049   3.769  11.717
12915W        W79324  10.171  27.001  10.667
12916W        W79325  17.464  43.133   0.343
12917W        W79326  41.989  36.920  11.116
12918W        W79327  10.286   9.446  14.716
12919W        W79328  40.654   3.186  13.461
12920W        W79329   3.506  11.292  14.556
12921W        W79330  17.660   9.797   2.909
12922W        W79331  21.110  25.664  13.432
12923W        W79332  30.151  31.612   0.966
12924W        W79333   0.785   3.834   2.224
12925W        W79334  24.234   8.241  11.627
12926W        W79335   7.808   3.065   2.781
12927W        W79336  18.064  33.544  12.963
12928W        W79337   4.277  13.848  14.475
12929W        W79338  26.605   3.768   2.957
12930W        W79339  42.573  44.533  13.817
12931W        W79340  37.101   9.916   3.748
12932W        W79341  44.312  23.062  12.557
12933W        W79342  21.052  22.126   2.386
12934W        W79343   9.379  39.722  14.491
12935W        W79344   8.268  27.126  10.912
12936W        W79345  27.033  14.149  14.920
12937W        W79346  29.446  12.797   2.123
12938W        W79347  16.723  32.800   0.410
12939W        W79348  29.706  39.319   1.362
12940W        W79349  32.434  30.227   1.923
12941W        W79350   8.625  40.351   2.836
12942W        W79351  34.074  27.661  14.608
12943W        W79352  35.478  17.628  11.600
12944W        W79353  42.996   8.783   3.241
12945W        W79354  32.450  41.915   0.390
12946W        W79355  18.213  10.659  14.803
12947W        W79356  28.828  29.943   1.806
12948W        W79357  19.171  33.013   2.363
12949W        W79358  25.155  39.040   3.820
12950W        W79359  35.664  43.863   3.606
12951W        W79360  38.554  40.329  14.692
12952W        W79361   8.127   1.178  13.368
12953W        W79362  42.710   7.721   3.667
12954W        W79363  43.964   1.418   1.753
12955W        W79364  39.884  28.069   2.892
12956W        W79365  13.394  15.027   2.228
12957W        W79366  38.917  13.893   0.329
12958W        W79367  30.029   8.847   1.037
12959W        W79368  18.567   2.310   2.404
12960W        W79369  42.003  25.967  12.872
12961W        W79370  28.936  27.150  14.460
12962W        W79371  19.775  13.901  11.157
12963W        W79372  27.612  15.640   2.122
12964W        W79373   5.093  11.618  13.640
12965W        W79374  23.052  11.034   3.613
12966W        W79375   6.969  23.066  12.628
12967W        W79376  27.664  24.327   2.494
12968W        W79377  24.497  43.438  12.830
12969W        W79378   5.952  21.230  13.517
12970W        W79379  35.843  19.095   9.733
12971W        W79380  27.510  19.181  12.340
12972W        W79381  43.834  18.121  11.845
12973W        W79382  21.314  10.280  12.023
12974W        W79383   8.402  33.050   2.735
12975W        W79384   5.324   1.424   0.860
12976W        W79385   6.915   7.208  14.703
12977W        W79386  36.389   6.166   0.028
12978W        W79387   0.908  21.953  10.831
12979W        W79388  16.371  13.807  10.936
12980W        W79389  43.865  19.076   0.796
12981W        W79390  39.174  15.653  13.095
12982W        W79391   2.497  22.476   1.276
12983W        W79392   8.903  33.073   2.575
12984W        W79393  34.468   0.905   1.644
12985W        W79394  43.714  18.443  11.185
12986W        W79395   9.778  40.596   1.151
12987W        W79396  42.407   8.000  10.713
12988W        W79397  30.159  18.602   2.178
12989W        W79398  11.606  30.707  14.899
12990W        W79399   1.288  28.379  11.162
12991W        W79400   8.170  18.009  11.115
12992W        W79401  22.141   1.915   3.410
12993W        W79402  26.548  30.172   4.640
12994W        W79403   4.829  24.730  13.598
12995W        W79404  44.303   9.743  14.370
12996W        W79405  24.979   1.755  11.649
12997W        W79406  34.121  16.213   1.722
12998W        W79407   4.094   2.305   2.222
12999W        W79408  43.229   9.867  10.306
13000W        W79409  24.636  41.030   2.188
13001W        W79410   7.561   2.305   0.329
13002W        W79411  42.102  10.578  14.713
13003W        W79412  28.959  33.038   0.030
13004W        W79413  42.946  33.846  13.775
13005W        W79414  13.837  36.445  10.629
13006W        W79415  41.364  27.495   3.382
13007W        W79416  23.673  19.768  13.503
13008W        W79417  28.086  30.637   4.627
13009W        W79418   7.430   9.891  12.793
13010W        W79419  23.562  25.605   0.473
13011W        W79420  23.812  42.613  12.420
13012W        W79421  19.984   3.483   2.751
13013W        W79422   7.362  32.314   3.651
13014W        W79423  43.302  37.337   4.544
13015W        W79424   6.211  21.701  10.531
13016W        W79425  13.668   9.377  14.375
13017W        W79426  38.384  12.408  13.259
13018W        W79427  22.981  32.864  13.317
13019W        W79428   7.225  36.418   4.633
13020W        W79429  29.586  21.644   1.014
13021W        W79430   1.705  33.182   2.333
13022W        W79431   1.710  32.221  13.123
13023W        W79432  44.974  36.145  10.519
13024W        W79433   9.343   8.432   4.561
13025W        W79434  37.299  40.810   0.175
13026W        W79435  42.393  16.996   1.395
13027W        W79436  23.486  24.161  12.660
13028W        W79437   1.450  41.302   1.854
13029W        W79438  25.704  14.350   3.607
13030W        W79439  21.148  37.502   5.068
13031W        W79440  22.224   0.798   0.786
13032W        W79441  28.087  33.707  10.476
13033W        W79442  37.943  28.033  11.938
13034W        W79443  36.866  11.135   3.579
13035W        W79444   6.361  31.232  12.106
13036W        W79445  11.663  22.762  10.895
13037W        W79446  25.732  34.617   4.611
13038W        W79447   9.590   2.482   1.856
13039W        W79448  28.549  23.597  12.018
13040W        W79449  14.658  19.617   0.270
13041W        W79450  23.488  12.277  14.225
13042W        W79451  16.139  18.489  11.709
13043W        W79452   2.535   1.989   2.413
13044W        W79453  36.666   9.316  11.270
13045W        W79454  19.846  13.266  13.774
13046W        W79455  11.335  13.800   4.663
13047W        W79456  24.263  22.541   0.265
13048W        W79457  24.710  42.860  11.588
13049W        W79458   1.907   8.716   1.637
13050W        W79459  30.664  13.183   2.637
13051W        W79460  22.533   3.669   2.280
13052W        W79461  26.891  35.447   0.847
13053W        W79462  23.645  30.400  11.653
13054W        W79463   7.494   1.036  14.711
13055W        W79464  24.243   8.675   2.670
13056W        W79465  18.469  31.381   1.866
13057W        W79466  30.980  15.051  13.899
13058W        W79467   7.826  44.294   1.198
13059W        W79468  28.468   1.431   1.208
13060W        W79469  42.954   7.407  13.136
13061W        W79470  43.746  37.407  14.204
13062W        W79471  21.017  42.968   4.006
13063W        W79472  10.237   3.210   4.079
13064W        W79473   4.714  25.934   1.963
13065W        W79474  32.088  15.346  11.166
13066W        W79475  19.601   5.247  13.699
13067W        W79476  36.300  24.121  13.032
13068W        W79477  14.618  18.778   2.179
13069W        W79478  44.749  15.149  12.377
13070W        W79479   6.914  15.163  10.576
13071W        W79480  33.897  20.757   2.178
13072W        W79481  24.671  23.066   3.274
13073W        W79482  24.170   4.837   1.298
13074W        W79483  22.780  13.161  11.635
13075W        W79484  16.724  23.008   2.609
13076W        W79485  31.014  27.118   4.647
13077W        W79486   3.972  31.947   3.643
13078W        W79487  34.433   0.748  11.126
13079W        W79488  33.629  30.452   2.218
13080W        W79489   3.709  24.239   0.542
13081W        W79490  32.571  33.350  12.344
13082W        W79491   7.610   1.314  12.480
13083W        W79492  38.985   9.726  12.291
13084W        W79493  19.825   4.159   2.398
13085W        W79494  32.679  24.170   3.136
13086W        W79495  37.815  44.450   0.933
13087W        W79496  32.199   4.329   3.611
13088W        W79497  40.847  16.151   2.391
13089W        W79498  38.980  38.076  13.151
13090W        W79499  19.734  28.625   0.282
13091W        W79500  23.516  12.035   1.495
13092W        W79501  19.584  43.640   4.553
13093W        W79502  15.526   5.435  12.435
13094W        W79503  27.203  15.752  13.507
13095W        W79504  21.580  12.399   1.478
13096W        W79505  25.857  18.314   2.522
13097W        W79506  17.714  28.979   4.522
13098W        W79507   0.783  42.462   3.162
13099W        W79508  27.375  18.339   1.207
13100W        W79509  10.830  39.076  14.004
13101W        W79510  29.432   3.002   1.448
13102W        W79511   6.855   9.107  14.493
13103W        W79512  41.899  37.662   2.625
13104W        W79513  22.975  31.052   3.475
13105W        W79514  33.105  21.227   4.713
13106W        W79515  42.612  21.165  10.775
13107W        W79516  43.385  11.124   3.596
13108W        W79517  32.958  40.378  13.966
13109W        W79518  32.477   6.193  12.991
13110W        W79519  42.694  41.229   9.672
13111W        W79520  24.304   3.921  13.220
13112W        W79521  41.357  32.726   4.207
13113W        W79522  11.875  26.939   3.566
13114W        W79523   7.969  36.766  14.933
13115W        W79524  14.698  10.884   0.611
13116W        W79525  33.930  21.907   3.691
13117W        W79526  15.277  39.610  13.373
13118W        W79527  29.128  35.318  12.667
13119W        W79528   1.340   2.526   2.919
13120W        W79529  43.996   5.768   3.339
13121W        W79530  42.306   7.468  10.734
13122W        W79531  37.331  32.236  14.058
13123W        W79532  27.747  31.786  13.223
13124W        W79533  14.883  22.040  11.560
13125W        W79534  17.970  20.060   2.729
13126W        W79535  34.825  27.151  10.813
13127W        W79536  21.275  23.617  14.515
13128W        W79537  24.619  31.626   1.570
13129W        W79538  24.348   4.209   3.251
13130W        W79539   3.803  35.010   3.274
13131W        W79540   6.286  30.465  11.453
13132W        W79541  39.726  23.064   0.199
13133W        W79542   5.382  32.203   0.199
13134W        W79543   1.544  43.935  11.599
13135W        W79544   1.395  44.352  13.888
13136W        W79545  42.321  14.620  12.921
13137W        W79546  13.185   2.975   1.030
13138W        W79547  23.360  40.171  12.646
13139W        W79548  22.171  14.253   2.248
13140W        W79549  13.314  38.571   1.752
13141W        W79550   6.241  42.772   3.716
13142W        W79551   3.289  18.031  14.307
13143W        W79552  17.510   7.932   3.274
13144W        W79553  38.791  16.340   2.861
13145W        W79554   0.707  29.117   4.574
13146W        W79555  19.557  43.935   1.438
13147W        W79556   6.221  35.945   0.685
13148W        W79557  24.613  44.789   2.958
13149W        W79558  26.696  13.882  11.538
13150W        W79559  36.582   6.350   3.641
13151W        W79560   2.487  39.332  13.705
13152W        W79561  18.977   0.081   1.001
13153W        W79562  41.463   8.183  11.423
13154W        W79563  19.520   7.443  10.750
13155W        W79564  10.604  22.235   0.442
13156W        W79565  38.415  39.406   2.328
13157W        W79566  16.777  20.226   3.677
13158W        W79567  37.563  40.758   3.666
13159W        W79568  44.769  34.820  13.413
13160W        W79569  24.243   0.141  13.373
13161W        W79570  22.876  42.377   2.041
13162W        W79571  29.790  26.435   2.786
13163W        W79572   6.720  42.077   1.442
13164W        W79573  35.190  42.871   3.574
13165W        W79574  17.593  37.932   2.985
13166W        W79575  13.698   1.417  13.317
13167W        W79576  41.430  19.578  11.557
13168W        W79577  15.489  14.692  12.133
13169W        W79578  23.493  21.504  14.932
13170W        W79579  19.024  27.968  10.505
13171W        W79580  36.861   2.496  14.348
13172W        W79581   6.805  19.978   3.807
13173W        W79582  42.015  16.709  13.186
13174W        W79583  21.806  20.729   2.748
13175W        W79584  39.011  36.032  12.697
13176W        W79585  43.258  10.770  11.611
13177W        W79586  39.877  12.938  11.630
13178W        W79587  29.598  28.894   3.651
13179W        W79588  40.067  25.457  14.588
13180W        W79589  14.333  17.742   4.066
13181W        W79590  12.456   4.666   0.868
13182W        W79591  40.971  21.344   0.522
13183W        W79592   9.427  38.023  12.860
13184W        W79593  34.604  22.791  11.100
13185W        W79594   0.669   5.378  14.397
13186W        W79595  16.835  20.162  14.991
13187W        W79596  13.137  19.346   4.558
13188W        W79597  28.977  42.136   4.122
13189W        W79598  11.738  27.139  13.283
13190W        W79599  19.839  41.804   3.119
13191W        W79600  36.846  16.626  13.906
13192W        W79601  40.732  42.073   4.218
13193W        W79602  28.709  10.740   2.633
13194W        W79603  24.996   7.341  13.113
13195W        W79604  37.182  43.506  12.768
13196W        W79605  26.692  33.478  11.875
13197W        W79606  33.042  27.020  11.399
13198W        W79607  34.067  25.565   2.955
13199W        W79608   7.860  40.298  12.696
13200W        W79609   5.758  36.892   1.943
13201W        W79610   6.703  40.548  13.446
13202W        W79611   8.824  15.711   1.846
13203W        W79612  36.532  41.101  12.056
13204W        W79613   1.839  13.647   3.126
13205W        W79614   9.796  39.845   0.862
13206W        W79615  11.580  26.970  13.903
13207W        W79616   0.447  34.766  13.691
13208W        W79617  27.728  25.217   2.639
13209W        W79618  38.704  18.198   2.830
13210W        W79619  29.009  19.260   4.411
13211W        W79620   4.624  41.534  11.113
13212W        W79621  16.827  19.430   4.173
13213W        W79622  39.948  41.278   3.433
13214W        W79623   4.696  40.226  11.487
13215W        W79624  18.653  40.950   0.364
13216W        W79625   7.374  33.928  13.352
13217W        W79626  14.560  35.004  13.902
13218W        W79627  21.077   8.413   1.335
13219W        W79628  30.039  21.562  11.440
13220W        W79629  37.532  26.484  13.013
13221W        W79630  10.416  14.191  10.826
13222W        W79631  41.394  34.431  14.387
13223W        W79632  13.274  30.707  12.894
13224W        W79633  17.014  13.350   4.902
13225W        W79634  33.368  11.128   3.691
13226W        W79635  27.410  21.248  10.679
13227W        W79636  31.788  35.562  11.780
13228W        W79637   6.848  27.506   4.122
13229W        W79638  40.597  16.334  14.956
13230W        W79639  12.458   3.791  12.131
13231W        W79640  30.553  34.629  12.093
13232W        W79641  37.396  25.879  11.680
13233W        W79642   6.320  41.571  10.280
13234W        W79643  31.392  15.137  12.485
13235W        W79644   7.189  14.412  11.610
13236W        W79645   2.096   9.866  14.764
13237W        W79646  29.991  13.025  13.912
13238W        W79647  36.835  23.735   2.665
13239W        W79648  38.596  23.853   1.702
13240W        W79649  29.281   9.348   3.098
13241W        W79650  37.658  39.148   4.871
13242W        W79651  39.930  15.880  13.587
13243W        W79652   1.319  21.124   0.545
13244W        W79653  16.420  33.947   1.749
13245W        W79654  35.166  11.279  11.986
13246W        W79655  35.276  39.333  12.581
13247W        W79656   6.777  34.665  13.434
13248W        W79657  34.130  43.215   2.804
13249W        W79658  40.380   7.226   3.633
13250W        W79659  42.766  23.459  13.863
13251W        W79660  15.088  29.188  11.117
13252W        W79661  32.099  10.925   4.821
13253W        W79662  43.137  43.336  13.874
13254W        W79663  14.903  22.196   1.213
13255W        W79664  31.571   5.640   2.509
13256W        W79665  24.733  21.039   4.053
13257W        W79666  36.358  12.120  14.359
13258W        W79667  36.347  20.804  11.422
13259W        W79668   1.342  15.798  10.750
13260W        W79669  14.213  18.711   0.948
13261W        W79670  32.449   7.193   4.979
13262W        W79671   6.905  39.952  12.035
13263W        W79672   7.883  39.419  12.590
13264W        W79673  16.238  21.935  14.764
13265W        W79674   7.365  41.765   1.877
13266W        W79675  41.085   8.355   2.179
13267W        W79676  33.050  13.403  12.102
13268W        W79677  23.360  13.629  14.536
13269W        W79678  40.792  11.843  11.576
13270W        W79679   8.954  38.007  14.504
13271W        W79680  11.634  37.585  12.544
13272W        W79681  31.725  14.440  14.246
13273W        W79682  20.698  31.348   2.186
13274W        W79683  17.132  23.731   4.304
13275W        W79684  30.968  25.236   5.174
13276W        W79685  10.656  34.878   2.932
13277W        W79686   6.930  40.515  11.555
13278W        W79687  40.982   5.582  14.795
13279W        W79688   0.389  22.759  13.895
13280W        W79689  33.846  28.338   1.727
13281W        W79690  27.989  37.066  14.079
13282W        W79691   3.480  34.562  11.609
13283W        W79692   2.648  37.050  13.566
13284W        W79693  40.648   8.897   0.983
13285W        W79694  13.741  24.807   3.192
13286W        W79695  43.869  14.957  11.442
13287W        W79696   6.482  12.669  10.395
13288W        W79697   1.467  38.575   4.804
13289W        W79698   4.455  22.101  13.551
13290W        W79699  26.555  37.868  14.534
13291W        W79700  23.533  31.605   1.714
13292W        W79701  31.505  35.516  14.754
13293W        W79702  30.876   7.809  14.021
13294W        W79703  24.556  28.514  11.970
13295W        W79704   5.729  10.607  14.542
13296W        W79705  15.065   7.053   0.772
13297W        W79706  35.516  26.166   0.476
13298W        W79707   1.303   7.671   3.882
13299W        W79708   0.073  24.042  10.756
13300W        W79709  32.939  30.890   2.352
13301W        W79710  24.530  26.654  14.447
13302W        W79711   9.479  32.815   1.349
13303W        W79712   4.259  26.756  10.564
13304W        W79713  25.470  15.701  11.697
13305W        W79714  26.834  12.545   4.309
13306W        W79715  13.250  41.299  11.243
13307W        W79716   9.466  43.486  11.566
13308W        W79717  26.713  28.739  11.642
13309W        W79718  36.878  27.956  13.424
13310W        W79719  28.388  17.517   4.107
13311W        W79720   2.350  13.295  11.225
13312W        W79721  29.728  40.598   0.813
13313W        W79722  38.385  36.546   4.581
13314W        W79723   8.764   4.406   4.794
13315W        W79724  26.530  36.420  14.450
13316W        W79725  20.016   4.747  11.550
13317W        W79726  43.505  24.797  14.262
13318W        W79727  19.962  32.859   0.440
13319W        W79728   2.465  37.148  14.589
13320W        W79729   2.394  17.191  10.722
13321W        W79730  25.175   0.548  12.056
13322W        W79731  39.012  18.016   1.255
13323W        W79732  12.333  33.560  14.067
13324W        W79733   3.486  15.215  13.722
13325W        W79734   1.907   5.188   1.519
13326W        W79735   7.852  19.520  13.322
13327W        W79736  11.508  36.582   2.376
13328W        W79737  41.995  21.213   4.552
13329W        W79738  31.824   0.128  14.810
13330W        W79739   2.457  30.048  12.424
13331W        W79740  22.006   9.344  11.586
13332W        W79741  34.839  13.018   4.924
13333W        W79742  40.970   7.188  11.058
13334W        W79743  36.292  33.872  12.763
13335W        W79744   9.235   8.892   2.898
13336W        W79745   0.944  14.609  14.771
13337W        W79746  11.714  10.295  11.443
13338W        W79747   8.390   7.426   4.620
13339W        W79748  13.838  27.834   2.592
13340W        W79749  36.002  31.350  12.323
13341W        W79750  34.684  22.683  13.385
13342W        W79751   0.490   3.959  11.622
13343W        W79752  44.531  30.496   5.000
13344W        W79753  41.751  37.869   3.107
13345W        W79754  21.720  13.243   0.871
13346W        W79755  44.196  39.694  12.209
13347W        W79756  33.578  27.160   4.519
13348W        W79757  44.253  15.555   3.606
13349W        W79758   5.946  20.681   2.154
13350W        W79759  39.115   4.753   0.547
13351W        W79760  20.006  16.502  10.661
13352W        W79761  22.049   1.246   1.859
13353W        W79762  19.006  19.718  12.123
13354W        W79763  36.960  31.431  14.894
13355W        W79764   6.588  13.125  12.502
13356W        W79765  31.701  32.585   3.168
13357W        W79766   2.516   3.349   2.408
13358W        W79767  38.973   3.727  11.109
13359W        W79768   3.665  19.527   3.142
13360W        W79769  37.554   8.627   4.606
13361W        W79770  29.372  32.564   1.906
13362W        W79771  26.228  40.886  13.935
13363W        W79772  24.648  39.113  13.588
13364W        W79773   4.706  31.045  14.940
13365W        W79774  24.066  33.552  13.068
13366W        W79775  18.590  34.442  10.619
13367W        W79776  22.796  38.500   1.781
13368W        W79777  41.782   2.026   4.887
13369W        W79778  20.161  19.008  11.083
13370W        W79779   2.832  31.612   3.412
13371W        W79780   8.882   4.968   2.361
13372W        W79781  42.542  29.912  13.830
13373W        W79782  35.848  40.651  12.457
13374W        W79783  19.072   7.073   1.038
13375W        W79784  10.955  32.487  14.458
13376W        W79785  37.598  43.113   4.181
13377W        W79786  21.107  42.249  11.163
13378W        W79787  33.716  12.314  14.645
13379W        W79788  17.507  12.589   0.176
13380W        W79789  31.125   8.255  14.126
13381W        W79790  31.935  23.683   4.543
13382W        W79791  22.914   6.375   4.102
13383W        W79792  30.526  14.405   1.302
13384W        W79793   3.720   7.769  14.623
13385W        W79794  37.570  14.333   1.873
13386W        W79795   6.900   8.794   0.829
13387W        W79796  41.557  43.336  13.910
13388W        W79797  13.307  18.968   3.696
13389W        W79798   0.043  37.455   0.460
13390W        W79799  23.257  29.107  11.074
13391W        W79800   3.839  13.149  13.084
13392W        W79801  27.730  11.258   0.985
13393W        W79802  34.394   1.398   0.707
13394W        W79803  42.790  17.010   0.747
13395W        W79804  27.982  29.095  13.423
13396W        W79805  23.739  18.675   0.181
13397W        W79806  14.112   4.384   4.121
13398W        W79807  10.292  30.904   0.590
13399W        W79808  34.954   7.799   1.562
13400W        W79809  15.536  25.581  10.308
13401W        W79810  21.621   4.744   4.050
13402W        W79811   8.435  20.219  13.796
13403W        W79812  29.023  27.065   1.480
13404W        W79813  41.361  42.488  11.933
13405W        W79814  13.939  41.719   1.916
13406W        W79815  23.970   8.071  11.227
13407W        W79816  43.954   7.481  11.160
13408W        W79817   1.361  10.659   2.547
13409W        W79818  34.517  12.485  14.387
13410W        W79819  38.573  19.968  11.478
13411W        W79820  36.399  43.954   3.283
13412W        W79821   9.322  15.746   1.773
13413W        W79822  16.540   6.416  14.862
13414W        W79823   5.674  25.151   2.258
13415W        W79824   7.762  32.039   4.015
13416W        W79825   8.934  20.966  11.067
13417W        W79826  20.253   8.725   2.433
13418W        W79827  32.144   5.274   3.530
13419W        W79828  40.090   9.368  12.493
13420W        W79829  14.569  12.272  12.502
13421W        W79830  13.536   0.801  14.192
13422W        W79831  13.261  40.094   0.266
13423W        W79832  40.823  44.815  12.548
13424W        W79833  37.471   0.376  12.928
13425W        W79834  40.261  21.809   1.251
13426W        W79835  32.124  12.493   3.367
13427W        W79836  35.094  40.553   3.619
13428W        W79837   0.490   9.188   2.383
13429W        W79838  30.728   6.828   4.881
13430W        W79839  24.882  19.228   3.258
13431W        W79840  39.469  35.488   3.151
13432W        W79841  21.758  36.096  11.697
13433W        W79842   2.768  10.361  13.865
13434W        W79843  38.068  18.936   3.927
13435W        W79844  27.944  12.857   4.136
13436W        W79845  34.000  39.873   0.976
13437W        W79846  38.470   9.927  10.997
13438W        W79847  33.902  17.014   2.648
13439W        W79848  17.188  36.033  14.737
13440W        W79849  30.855   3.356  13.877
13441W        W79850   6.649  20.837  12.001
13442W        W79851  12.824  29.542  13.646
13443W        W79852  16.061  40.576  12.431
13444W        W79853  20.698  34.390  10.822
13445W        W79854   0.810  12.818  11.341
13446W        W79855   1.257  13.881   0.000
13447W        W79856  15.547  29.438   1.843
13448W        W79857  28.654  30.122  14.791
13449W        W79858  41.101   4.202   0.899
13450W        W79859  33.209  10.659  14.451
13451W        W79860  38.646  12.669  13.626
13452W        W79861  10.334   0.344  13.866
13453W        W79862   6.140  40.218   1.080
13454W        W79863  33.502   2.157   1.477
13455W        W79864   1.906  17.670   4.548
13456W        W79865   5.222  36.514  11.458
13457W        W79866  39.733  14.078  13.777
13458W        W79867  35.834  35.927   4.056
13459W        W79868   9.180  15.878   0.872
13460W        W79869  23.143  26.046   2.902
13461W        W79870  30.866  32.938  12.429
13462W        W79871  44.675  42.810  11.165
13463W        W79872  12.731  30.355  10.428
13464W        W79873   5.915  36.471   2.201
13465W        W79874  43.124  34.503  11.449
13466W        W79875  28.447  42.156   1.865
13467W        W79876  19.229  16.887   2.065
13468W        W79877  42.568  36.226  13.148
13469W        W79878  34.153  24.133  13.417
13470W        W79879  25.443  26.167  14.382
13471W        W79880  28.424  23.308  14.888
13472W        W79881  17.183  10.508  11.472
13473W        W79882  24.845  44.726  11.534
13474W        W79883   3.354  17.354   5.518
13475W        W79884  30.925   5.653   0.957
13476W        W79885  26.445  34.447  14.326
13477W        W79886  34.903  11.876  13.428
13478W        W79887   6.281   8.995   3.306
13479W        W79888   5.621  42.323  13.488
13480W        W79889  26.735   9.798   0.121
13481W        W79890   7.906  42.579  11.930
13482W        W79891  32.226  35.542  11.531
13483W        W79892  22.534   1.452   1.803
13484W        W79893  18.947   6.459  12.205
13485W        W79894  18.675  37.786  14.800
13486W        W79895  21.574  37.257   4.340
13487W        W79896  23.011   7.854   4.096
13488W        W79897  19.030  12.870   1.256
13489W        W79898  23.174  27.321  12.387
13490W        W79899   9.469  24.219   0.870
13491W        W79900  33.185   4.874  14.181
13492W        W79901   2.558  23.179  10.378
13493W        W79902  24.482   9.903   9.888
13494W        W79903  24.748   2.929  12.500
13495W        W79904  27.027  42.938   3.682
13496W        W79905  20.663  13.362   2.304
13497W        W79906  11.657  34.932   4.119
13498W        W79907  21.637  42.042  12.014
13499W        W79908  24.021   2.747   1.632
13500W        W79909  34.338  23.198  11.232
13501W        W79910  26.020  17.215  11.895
13502W        W79911   6.069  44.800   4.519
13503W        W79912  25.966   1.764  13.268
13504W        W79913   2.301  14.812   1.643
13505W        W79914  44.956  21.761   0.403
13506W        W79915  25.017  37.310  14.450
13507W        W79916  34.068   9.604  11.815
13508W        W79917  26.628  36.886   0.263
13509W        W79918  33.390   4.880   1.377
13510W        W79919   8.737  40.459   0.386
13511W        W79920   7.899  16.606  13.470
13512W        W79921  18.010  17.044  10.748
13513W        W79922  29.425  22.012  14.380
13514W        W79923  39.023   3.864   1.476
13515W        W79924  28.596   0.882   2.369
13516W        W79925  18.310  25.174   2.330
13517W        W79926  28.486  40.629   0.465
13518W        W79927  38.894  28.415  12.835
13519W        W79928  18.156   2.209   3.581
13520W        W79929  15.245   9.509   3.201
13521W        W79930   2.259  29.195  12.154
13522W        W79931  16.091  12.722   2.418
13523W        W79932  37.842   5.029  12.037
13524W        W79933  17.257  27.788  11.452
13525W        W79934   3.849  22.943  11.937
13526W        W79935   5.178  36.567  14.770
13527W        W79936  42.114  27.105  13.781
13528W        W79937  25.024   3.348  12.349
13529W        W79938  38.145  41.689   0.110
13530W        W79939  18.484  14.544  11.609
13531W        W79940  13.106  40.536   1.681
13532W        W79941   0.618  38.174  12.672
13533W        W79942  37.129  35.119  12.077
13534W        W79943   7.938  36.860  12.931
13535W        W79944  35.292  21.557   4.918
13536W        W79945  11.305  28.949   2.630
13537W        W79946  19.594  34.780   2.177
13538W        W79947  34.032   9.304   0.662
13539W        W79948  38.457   2.239   2.762
13540W        W79949  19.263  31.275  13.503
13541W        W79950  39.645  41.372   0.878
13542W        W79951   2.513   5.762  14.001
13543W        W79952  16.172   4.027   0.939
13544W        W79953   6.320  30.403  12.905
13545W        W79954  35.360  31.257   0.244
13546W        W79955  44.700  13.644   3.800
13547W        W79956  30.117   8.954  14.793
13548W        W79957  16.350  24.682  10.288
13549W        W79958  16.752   4.362  11.467
13550W        W79959  14.665  42.340  11.421
13551W        W79960  32.229   9.702  12.894
13552W        W79961   9.450   6.295  10.715
13553W        W79962  35.369  18.242   4.775
13554W        W79963   4.288  42.382  13.099
13555W        W79964  20.974  30.974   1.791
13556W        W79965  30.581  41.273  12.928
13557W        W79966  39.403   0.767  11.753
13558W        W79967   7.123  35.383  12.694
13559W        W79968  14.230  30.305  13.801
13560W        W79969   0.038   5.453   0.300
13561W        W79970  39.053  26.528  14.450
13562W        W79971  31.582  23.627  11.378
13563W        W79972  42.902  11.037  14.573
13564W        W79973  19.086  15.655   1.896
13565W        W79974  22.065   4.531   0.745
13566W        W79975  17.878  18.769   2.298
13567W        W79976  42.752   5.857  11.181
13568W        W79977  43.253  29.927  13.445
13569W        W79978  27.922   4.729  10.545
13570W        W79979  24.001   7.614   4.983
13571W        W79980  30.810  19.169  14.785
13572W        W79981  36.755  15.294  11.568
13573W        W79982   5.652  41.100  11.634
13574W        W79983  27.211  25.798   0.988
13575W        W79984  17.365  43.750   3.254
13576W        W79985  43.058  32.443  12.266
13577W        W79986   3.185  15.731   4.268
13578W        W79987  20.175  15.746   4.814
13579W        W79988  10.461  27.213  11.067
13580W        W79989  11.643  21.415   3.581
13581W        W79990   9.916  22.817   0.855
13582W        W79991  41.981   0.066   1.593
13583W        W79992   2.969  16.048   0.832
13584W        W79993  29.138  24.465   1.335
13585W        W79994  23.035  35.515   0.990
13586W        W79995  31.691  39.036   1.695
13587W        W79996  29.089  29.863  14.702
13588W        W79997  28.148  24.463   0.068
13589W        W79998  23.149  44.475  14.862
13590W        W79999  31.936  11.723   4.149
13591W        W80000  24.841  36.979  12.716
13592W        W80001  22.694  22.661   2.689
13593W        W80002  14.487  27.672  12.091
13594W        W80003  40.380  38.567  14.831
13595W        W80004  44.492  32.498   3.229
13596W        W80005  27.185  35.311  13.845
13597W        W80006  41.882  43.892  12.396
13598W        W80007   4.432  22.610   4.972
13599W        W80008  42.123  25.902   0.555
13600W        W80009  25.022  16.905  11.234
13601W        W80010  11.130  40.476  11.700
13602W        W80011  42.945  44.578   2.333
13603W        W80012  18.376  36.500   9.681
13604W        W80013  21.119  10.594   0.923
13605W        W80014  40.546   3.402   5.173
13606W        W80015  30.019   0.163   0.168
13607W        W80016   1.446  26.947   2.707
13608W        W80017  43.746  14.253   3.276
13609W        W80018   0.793  44.015   1.619
13610W        W80019  43.425  25.109  14.687
13611W        W80020  16.639   8.108   1.277
13612W        W80021  18.190  43.412   5.006
13613W        W80022  32.581  32.480  14.309
13614W        W80023  42.805   7.207   1.859
13615W        W80024  14.236  24.389  10.727
13616W        W80025   1.399  27.942   4.260
13617W        W80026  12.128  43.919  14.006
13618W        W80027  43.492  28.582  13.956
13619W        W80028   9.574  15.378   1.529
13620W        W80029  38.808  18.155   1.718
13621W        W80030   8.755  21.772  12.953
13622W        W80031  14.601  43.907  11.195
13623W        W80032  31.835  21.245   1.407
13624W        W80033  31.530  16.860  12.650
13625W        W80034  29.876   9.858   5.122
13626W        W80035  11.905  19.304   2.236
13627W        W80036  38.920  40.957   2.260
13628W        W80037  24.672  20.537   4.144
13629W        W80038  29.625  17.016  12.492
13630W        W80039  39.104  27.572  11.493
13631W        W80040  30.943  19.959  12.026
13632W        W80041   9.696  38.335  12.552
13633W        W80042  14.550  30.658   1.311
13634W        W80043  40.542   1.478  14.755
13635W        W80044  14.163  25.686  11.281
13636W        W80045  14.665  29.943   0.900
13637W        W80046  17.339  33.476  13.882
13638W        W80047   6.171  21.174   3.252
13639W        W80048  38.880  13.029  13.344
13640W        W80049   3.193  21.056  14.545
13641W        W80050  42.474  30.994   4.443
13642W        W80051  15.278   3.501  13.480
13643W        W80052  27.932  36.461  14.072
13644W        W80053   4.251  39.287  12.485
13645W        W80054  25.592   2.897   4.218
13646W        W80055  15.421  18.986   2.715
13647W        W80056  11.722  35.172   2.227
13648W        W80057  41.656  39.141  13.790
13649W        W80058  30.064  14.217   4.424
13650W        W80059  23.427  27.007   0.311
13651W        W80060  13.414  14.830  12.726
13652W        W80061  20.396  36.678   1.214
13653W        W80062  33.761  26.931  12.469
13654W        W80063  16.088  43.962  14.828
13655W        W80064  40.110   1.677  14.998
13656W        W80065  22.814  44.986   0.588
13657W        W80066   5.452  12.874   4.774
13658W        W80067  10.114  13.919   0.325
13659W        W80068  14.704  32.142  10.291
13660W        W80069  10.775  27.698   1.988
13661W        W80070  12.605  14.641  13.082
13662W        W80071  19.705  34.521   4.214
13663W        W80072  28.566  19.192   0.489
13664W        W80073  19.707  44.243  12.450
13665W        W80074   5.024  11.800   0.765
13666W        W80075  25.055  15.285   1.461
13667W        W80076  40.244  23.762   3.508
13668W        W80077  18.672   8.896   0.363
13669W        W80078   6.283  42.431  11.700
13670W        W80079  34.485   8.643   2.831
13671W        W80080  41.362  28.664   1.998
13672W        W80081  28.476  18.654  14.773
13673W        W80082   2.407  10.113  11.647
13674W        W80083   5.744  15.050   2.779
13675W        W80084  19.739  14.723   2.437
13676W        W80085  18.740  36.464  10.978
13677W        W80086  26.960   6.905  11.668
13678W        W80087  39.482   9.117   4.875
13679W        W80088  43.760  29.355   3.513
13680W        W80089  18.071  28.516  12.585
13681W        W80090  15.631  13.657   3.788
13682W        W80091  21.183  23.494   2.818
13683W        W80092  29.515  10.916   3.811
13684W        W80093  14.595  11.732   1.294
13685W        W80094  10.760   5.464  11.193
13686W        W80095  14.122  19.588   2.513
13687W        W80096  19.180   6.271  14.347
13688W        W80097   3.353  37.092   2.839
13689W        W80098  21.030  34.556   4.317
13690W        W80099  21.563   8.022   2.816
13691W        W80100  38.121  11.061  11.970
13692W        W80101  16.394  32.640  13.983
13693W        W80102  16.474   9.156   1.294
13694W        W80103  24.726  28.577  13.407
13695W        W80104   3.927  34.035   0.337
13696W        W80105  18.044   5.090  12.584
13697W        W80106  22.709   1.029  10.762
13698W        W80107   5.157  17.131  14.427
13699W        W80108   6.821  13.256   2.740
13700W        W80109  10.347  37.299   5.063
13701W        W80110  21.544  40.102  13.487
13702W        W80111  22.209  15.349   1.212
13703W        W80112  44.426  17.442  11.606
13704W        W80113  43.304  28.098   3.843
13705W        W80114  38.034  11.654  10.301
13706W        W80115   2.859   3.269   3.085
13707W        W80116  20.826  36.812   2.358
13708W        W80117   8.850  25.286  14.365
13709W        W80118  19.169  11.616  12.398
13710W        W80119  15.607  17.273   0.340
13711W        W80120  23.931  31.302  14.964
13712W        W80121  23.211  39.407   4.698
13713W        W80122  36.802  13.621  14.797
13714W        W80123  20.238  30.832  11.007
13715W        W80124  15.169  43.955   0.714
13716W        W80125  38.363  26.055  13.073
13717W        W80126  19.618  23.084  12.619
13718W        W80127  12.798  25.502  13.080
13719W        W80128  10.060  42.906  12.287
13720W        W80129  13.413   3.900   4.432
13721W        W80130  22.340  41.475   0.798
13722W        W80131   9.181  40.093   1.664
13723W        W80132  33.628  17.532  13.188
13724W        W80133   4.480  23.406   2.289
13725W        W80134  19.720  21.145   3.228
13726W        W80135  23.107  34.596  10.686
13727W        W80136  21.141  15.813   4.456
13728W        W80137  44.236  11.426  14.590
13729W        W80138  17.637  22.128   1.129
13730W        W80139   7.188   4.732   4.133
13731W        W80140  36.017  11.097   3.530
13732W        W80141  44.946  44.069  14.717
13733W        W80142  36.324  23.597   2.798
13734W        W80143   1.008  25.447   3.391
13735W        W80144  30.113   1.417  13.093
13736W        W80145   0.083  15.387  11.124
13737W        W80146  11.606  41.830   2.529
13738W        W80147  22.167  15.421   2.118
13739W        W80148  11.137  39.974  11.062
13740W        W80149  33.675  35.099  14.669
13741W        W80150  31.520  30.170   3.313
13742W        W80151  40.705  16.842   0.039
13743W        W80152   7.486  37.782  14.427
13744W        W80153   4.494  31.146   1.454
13745W        W80154   0.713  36.117   0.919
13746W        W80155  31.041  28.871  12.611
13747W        W80156   9.608  30.052  10.853
13748W        W80157  35.918  12.496   2.705
13749W        W80158  29.429   2.925   3.916
13750W        W80159  31.022  31.544   4.596
13751W        W80160  37.032  14.820   2.745
13752W        W80161  20.701   0.436  13.940
13753W        W80162  13.092  15.213  12.542
13754W        W80163  25.700   2.431  10.938
13755W        W80164   6.285  27.974  10.238
13756W        W80165   3.024  15.215  12.773
13757W        W80166  37.240  11.445  13.477
13758W        W80167   5.668  31.851   4.207
13759W        W80168  10.765   7.774   3.490
13760W        W80169   1.541  17.581  13.446
13761W        W80170  29.191  23.815  11.468
13762W        W80171  33.679  11.904   4.118
13763W        W80172  23.490  44.928   1.249
13764W        W80173   9.612  36.410   0.648
13765W        W80174  21.163  40.353   0.054
13766W        W80175  44.544  35.319  12.157
13767W        W80176  34.164  22.154   2.194
13768W        W80177  35.233  11.623   1.311
13769W        W80178  26.620   0.284  11.140
13770W        W80179  32.500  15.205   1.463
13771W        W80180  21.268   5.115  11.273
13772W        W80181   2.388  22.914  14.608
13773W        W80182  10.366   7.190  11.415
13774W        W80183  34.926  43.413  14.859
13775W        W80184   4.842  27.665   1.771
13776W        W80185  15.857  20.575  13.467
13777W        W80186  38.801  38.940  11.151
13778W        W80187   7.414  40.265  14.694
13779W        W80188   6.263  33.862  10.414
13780W        W80189  18.363  12.699  14.281
13781W        W80190   0.853  33.847   3.247
13782W        W80191  21.124  19.811   1.783
13783W        W80192  26.701   8.625  12.412
13784W        W80193  20.123  16.417  12.598
13785W        W80194   8.640  19.254   4.125
13786W        W80195   1.725   3.657  11.159
13787W        W80196   2.809  39.060   0.714
13788W        W80197  23.626  20.205  12.121
13789W        W80198  36.081  23.590   3.267
13790W        W80199   4.109  25.865  14.367
13791W        W80200  35.557  18.290  11.085
13792W        W80201  23.060  25.416  14.571
13793W        W80202  15.822  22.878  12.889
13794W        W80203  10.862  34.647   4.669
13795W        W80204  32.121  20.529  14.838
13796W        W80205  28.017  29.195   4.589
13797W        W80206  13.748   8.659  14.028
13798W        W80207  38.349  14.346  11.508
13799W        W80208  12.647  11.370  11.991
13800W        W80209  40.947   7.156   3.176
13801W        W80210   1.047  14.051   4.135
13802W        W80211   2.027  24.689  12.456
13803W        W80212  17.253  28.912   2.722
13804W        W80213  14.093  34.545   3.870
13805W        W80214  24.945  37.445   4.996
13806W        W80215   5.114   2.730   4.557
13807W        W80216  35.914  36.021   0.946
13808W        W80217  37.135   1.533  11.715
13809W        W80218  14.142  38.643  12.030
13810W        W80219   5.830  34.131   0.318
13811W        W80220  38.367  10.261  14.843
13812W        W80221  36.183  31.008   3.058
13813W        W80222  32.051   3.002  13.545
13814W        W80223  41.267  36.081   0.645
13815W        W80224  28.192   1.851   2.292
13816W        W80225  36.461  11.621   4.397
13817W        W80226  44.953  44.243  14.213
13818W        W80227  28.013  27.384  14.238
13819W        W80228  11.409  44.205   4.109
13820W        W80229  17.029   7.934  10.437
13821W        W80230  34.920  39.018   3.608
13822W        W80231   1.035  32.186   4.005
13823W        W80232  13.035   5.288  14.110
13824W        W80233  12.848  24.757   0.715
13825W        W80234   7.321  41.015   4.632
13826W        W80235  37.069  40.541  14.781
13827W        W80236  40.802  12.307  14.288
13828W        W80237   5.637  38.584   3.704
13829W        W80238   2.606  31.707  12.453
13830W        W80239  32.353  20.180   1.786
13831W        W80240  10.503  16.267  14.332
13832W        W80241  13.521  31.034   0.803
13833W        W80242  44.329  10.825   4.031
13834W        W80243  35.482   5.114   4.961
13835W        W80244  21.778  26.517  14.401
13836W        W80245  23.682   8.423  10.985
13837W        W80246  42.061  23.219  11.095
13838W        W80247  16.358  39.995   4.444
13839W        W80248  15.005  15.814  13.061
13840W        W80249  39.138   0.969   0.869
13841W        W80250  26.943  24.443  11.553
13842W        W80251   6.394  16.293   4.679
13843W        W80252  42.997  17.251   4.285
13844W        W80253  12.815  37.382   3.184
13845W        W80254  32.521  38.331   2.701
13846W        W80255   5.166  30.891  13.999
13847W        W80256  37.417   6.569   2.901
13848W        W80257  27.140  16.360   1.401
13849W        W80258   5.332  31.144  11.627
13850W        W80259   1.696  18.730   2.205
13851W        W80260  11.188   7.153   4.042
13852W        W80261  31.223   1.340   4.463
13853W        W80262  12.912   5.656  11.787
13854W        W80263  22.569  37.410  14.854
13855W        W80264  29.839  16.734   4.571
13856W        W80265   0.493  11.790   0.322
13857W        W80266  44.392  27.894  10.521
13858W        W80267  32.938  12.031  13.424
13859W        W80268  44.303  44.438  11.483
13860W        W80269  23.508  38.284   2.259
13861W        W80270  44.429  43.322  11.997
13862W        W80271  35.587   5.957   4.218
13863W        W80272  10.565  16.751   2.782
13864W        W80273  24.550  26.807  12.873
13865W        W80274  15.605  28.702  13.860
13866W        W80275  27.552  36.909   0.773
13867W        W80276   7.794   3.941  13.202
13868W        W80277   2.334  44.279   0.250
13869W        W80278  38.708  11.692   4.181
13870W        W80279  28.109  34.046   2.154
13871W        W80280  31.557  25.452   4.189
13872W        W80281  28.824  12.196  11.159
13873W        W80282  44.945  32.428  14.078
13874W        W80283  38.317  20.998   0.841
13875W        W80284  42.926  24.590   3.231
13876W        W80285  36.570  38.128   0.860
13877W        W80286  29.819   4.336   1.835
13878W        W80287  27.031  40.422  12.500
13879W        W80288  12.096  39.953  14.697
13880W        W80289  44.437   5.536  11.033
13881W        W80290  30.602  26.134  12.782
13882W        W80291  27.742  39.479  13.262
13883W        W80292  42.791   9.744   1.190
13884W        W80293  16.157  44.054  12.883
13885W        W80294   9.309  23.846   4.268
13886W        W80295  24.529  39.510  13.907
13887W        W80296   2.033  43.955  11.926
13888W        W80297  16.437  36.400  14.274
13889W        W80298  28.643  38.997   2.684
13890W        W80299  36.479   4.784  13.405
13891W        W80300   2.696  18.717   4.521
13892W        W80301  33.962  44.487   3.301
13893W        W80302  44.956  17.275   0.381
13894W        W80303  30.867  42.960   2.891
13895W        W80304  33.508  33.447   2.188
13896W        W80305   6.603  21.745  14.375
13897W        W80306  19.158  24.968  12.477
13898W        W80307   1.400  16.300   1.453
13899W        W80308  21.934   9.655  13.317
13900W        W80309  38.963  11.115   1.810
13901W        W80310   5.468  36.592  14.313
13902W        W80311  36.176  21.933  14.384
13903W        W80312  18.251  27.592  12.941
13904W        W80313  39.566  29.342  12.220
13905W        W80314  13.907  42.300   1.375
13906W        W80315  22.208  27.554  11.029
13907W        W80316  27.554  43.017   1.804
13908W        W80317  44.012  22.544  11.451
13909W        W80318  23.219  24.768  12.870
13910W        W80319  24.722  32.004  13.002
13911W        W80320  15.991  11.287   2.425
13912W        W80321   2.209  22.178   0.804
13913W        W80322  22.281  37.982   1.313
13914W        W80323  11.205  35.999   3.649
13915W        W80324  15.693  19.106  12.783
13916W        W80325  34.699   5.736   4.114
13917W        W80326  16.558  16.124   0.262
13918W        W80327   6.017  11.926   0.687
13919W        W80328   3.746  15.619  11.581
13920W        W80329  10.111   4.984  10.808
13921W        W80330  40.212   0.930   1.750
13922W        W80331  22.557  21.434  14.604
13923W        W80332  39.800  25.990   0.511
13924W        W80333  40.507  19.101  10.679
13925W        W80334   0.507  21.451  14.769
13926W        W80335  42.611   9.676  14.864
13927W        W80336   1.478  19.794  13.017
13928W        W80337  40.893  10.617   1.787
13929W        W80338  27.617   0.405   0.949
13930W        W80339  39.301  40.643   5.028
13931W        W80340   1.115  19.677  13.913
13932W        W80341  20.457   1.871  14.487
13933W        W80342  33.145  22.649   1.349
13934W        W80343  42.377  36.328  10.528
13935W        W80344  19.611  35.933   0.950
13936W        W80345   4.244   1.345  11.877
13937W        W80346  29.007  39.571  14.966
13938W        W80347  38.929  26.490  13.508
13939W        W80348  27.465  22.342   0.781
13940W        W80349  22.183  19.713   0.302
13941W        W80350  24.785   0.730  14.303
13942W        W80351   8.357  12.794   3.839
13943W        W80352  12.806  26.580   1.261
13944W        W80353  28.459  21.454   5.511
13945W        W80354  11.683  13.839  10.916
13946W        W80355   1.743  26.219   2.392
13947W        W80356   2.138  19.782   0.814
13948W        W80357   7.699   7.620  11.704
13949W        W80358  18.508   6.226  12.095
13950W        W80359  27.026  21.211  12.613
13951W        W80360   2.783   1.295  14.327
13952W        W80361  12.699  10.932  13.423
13953W        W80362  35.036   6.916   2.821
13954W        W80363  16.190  35.107  12.985
13955W        W80364  24.620  34.484  10.588
13956W        W80365  43.895  19.463   2.268
13957W        W80366  12.175  29.851  12.911
13958W        W80367   9.065  41.248   3.290
13959W        W80368   7.363  39.866  14.361
13960W        W80369  37.870  32.759  11.086
13961W        W80370   0.231  19.147   1.936
13962W        W80371  17.861   9.309   0.750
13963W        W80372  16.640  44.908   1.961
13964W        W80373  22.228  15.586   3.420
13965W        W80374  28.280  32.046  11.188
13966W        W80375  18.090  12.599  10.612
13967W        W80376  25.391  19.114  10.596
13968W        W80377   8.709  13.190  12.614
13969W        W80378   8.161  13.729  14.372
13970W        W80379  31.359  38.399  11.120
13971W        W80380   4.061  42.728   4.072
13972W        W80381  15.547  36.290   3.087
13973W        W80382  39.551  31.702   3.830
13974W        W80383  10.592  18.110   1.647
13975W        W80384  43.246  18.809   2.314
13976W        W80385  25.077   1.841   0.567
13977W        W80386   1.726  41.452   2.257
13978W        W80387  35.913  36.945   2.401
13979W        W80388  43.806  37.003   0.467
13980W        W80389  26.298  37.415  13.525
13981W        W80390  24.009   1.255  10.409
13982W        W80391  36.930  23.564  14.346
13983W        W80392   7.658  38.828   2.637
13984W        W80393  18.120  36.428  14.126
13985W        W80394   5.681  37.039  12.071
13986W        W80395  38.144  26.669   1.015
13987W        W80396   1.155  16.679  11.042
13988W        W80397  13.824  34.098   2.820
13989W        W80398   3.323  24.985   0.807
13990W        W80399  17.225  14.562   2.276
13991W        W80400  27.132   0.463   3.679
13992W        W80401  39.506  26.179  14.815
13993W        W80402  32.268   0.873  11.228
13994W        W80403  21.750  22.368  13.619
13995W        W80404  44.318  20.138  13.570
13996W        W80405  25.135  42.830   3.125
13997W        W80406  42.098  35.848   0.322
13998W        W80407  43.470  40.037  13.542
13999W        W80408   0.131  11.095   0.630
14000W        W80409  18.528  22.199  10.629
14001W        W80410  33.859  19.092  14.502
14002W        W80411   0.923   2.534  11.576
14003W        W80412  25.718  42.897   4.470
14004W        W80413  40.102  34.468   2.051
14005W        W80414  24.021  25.484  14.517
14006W        W80415  41.488  41.405   2.437
14007W        W80416  31.848  41.209   3.794
14008W        W80417   5.341   8.266   3.811
14009W        W80418  25.525   5.608   2.665
14010W        W80419  14.257  11.780  12.339
14011W        W80420   4.848  38.172  11.109
14012W        W80421   1.882  18.616  14.402
14013W        W80422   9.811  19.272  12.499
14014W        W80423  34.689  43.001  11.987
14015W        W80424  38.029  44.378   0.402
14016W        W80425  15.398   0.855   3.118
14017W        W80426   7.317  20.258  11.463
14018W        W80427   9.533  33.398   0.759
14019W        W80428  44.883  38.525  13.840
14020W        W80429  44.659   9.148   1.721
14021W        W80430  26.132  41.914  12.022
14022W        W80431  34.472  19.763   1.357
14023W        W80432   0.935   7.061   3.221
14024W        W80433  16.017  41.558   1.934
14025W        W80434  25.553  42.170   0.936
14026W        W80435  39.439  32.270  14.361
14027W        W80436   4.528  43.727   0.661
14028W        W80437  20.834  29.876  14.450
14029W        W80438  35.903  42.801  10.753
14030W        W80439  17.787  18.711  12.809
14031W        W80440  27.681   6.715   3.032
14032W        W80441  33.981  23.882   1.408
14033W        W80442  44.250  34.429   0.864
14034W        W80443   0.287  44.529   3.487
14035W        W80444  14.330  20.615   3.367
14036W        W80445  31.916  34.195   3.574
14037W        W80446  38.697  27.678   2.333
14038W        W80447  11.829  42.854  14.493
14039W        W80448  29.942  19.985  14.086
14040W        W80449  17.355  44.751   1.230
14041W        W80450  19.527  23.946   0.229
14042W        W80451  28.689  41.878  11.639
14043W        W80452  40.968  18.772   3.293
14044W        W80453  23.205  38.352  11.597
14045W        W80454  15.346   0.504  10.929
14046W        W80455  39.321  23.850   3.736
14047W        W80456  27.535  12.807  14.308
14048W        W80457  13.072  44.937   1.824
14049W        W80458  26.180  12.148   1.861
14050W        W80459  42.126  34.827  12.920
14051W        W80460  13.750  29.702   0.993
14052W        W80461  13.162  42.054   1.503
14053W        W80462  28.949  15.601   1.278
14054W        W80463  18.370   4.777  14.887
14055W        W80464  44.268   4.802   1.228
14056W        W80465  28.035  34.721   4.061
14057W        W80466   4.380  34.135  12.985
14058W        W80467   8.638  12.330  11.631
14059W        W80468  41.838  40.407  10.655
14060W        W80469  14.584  40.373   0.669
14061W        W80470  27.019  31.471  13.462
14062W        W80471  40.378   3.604  12.914
14063W        W80472   3.421   8.596   4.614
14064W        W80473  30.849  41.168   5.029
14065W        W80474  40.186  24.547  13.900
14066W        W80475   8.853   9.186  11.065
14067W        W80476   7.654  16.186   0.782
14068W        W80477  42.790  37.038  12.974
14069W        W80478  22.739  41.854  12.093
14070W        W80479  43.001  20.680  11.643
14071W        W80480  24.210   4.501  13.908
14072W        W80481  38.623  26.681   5.076
14073W        W80482  19.147  28.514  11.780
14074W        W80483  33.623  30.296  14.543
14075W        W80484   8.820   5.730   4.788
14076W        W80485  20.671  15.240  14.024
14077W        W80486  30.760  18.550   5.004
14078W        W80487  14.807   2.644  14.671
14079W        W80488   0.939  37.865   0.920
14080W        W80489   1.519  41.825  11.578
14081W        W80490  10.198   5.495  11.289
14082W        W80491   6.935   6.797   0.939
14083W        W80492  33.274   5.974  13.668
14084W        W80493  38.842  13.964   2.688
14085W        W80494   4.633  35.591  10.004
14086W        W80495  32.587   5.139   2.602
14087W        W80496  17.337  14.780   4.157
14088W        W80497  43.363  31.426  12.161
14089W        W80498   1.406  34.656  14.426
14090W        W80499  25.446  22.851   1.684
14091W        W80500   5.843  22.513  10.625
14092W        W80501   4.247  18.163  10.520
14093W        W80502  28.119  28.024   4.033
14094W        W80503  15.090  11.324  12.235
14095W        W80504  28.002  14.025   0.846
14096W        W80505   2.212  21.681   0.927
14097W        W80506  39.946  14.135   4.674
14098W        W80507  10.344  28.529   1.788
14099W        W80508  34.926  17.844  13.542
14100W        W80509  10.266  21.452  11.966
14101W        W80510   6.065  32.700  12.888
14102W        W80511  15.790  21.084   1.851
14103W        W80512  20.625  36.156   3.148
14104W        W80513  12.596  23.693  13.535
14105W        W80514  41.781  10.767  11.913
14106W        W80515  42.125  18.129   2.281
14107W        W80516  32.432   4.437   0.268
14108W        W80517  24.103  44.342   1.192
14109W        W80518  34.526  22.301   4.757
14110W        W80519  40.845  41.215   0.554
14111W        W80520  13.772  14.132   1.450
14112W        W80521  20.333  13.836   1.742
14113W        W80522  29.524  25.587  12.058
14114W        W80523  36.882  28.910  14.884
14115W        W80524  22.426  20.547  13.977
14116W        W80525   2.421   7.410  14.922
14117W        W80526  32.901  31.203   3.625
14118W        W80527  28.855  43.035  14.555
14119W        W80528   5.390  39.380  13.406
14120W        W80529  22.103  11.710   2.043
14121W        W80530  22.673  17.109  12.987
14122W        W80531  39.155   5.246   2.762
14123W        W80532  31.439  33.890   1.716
14124W        W80533   4.153  32.559  11.506
14125W        W80534   5.640   3.344   2.313
14126W        W80535  31.476   0.310   2.072
14127W        W80536   3.177  36.428  14.734
14128W        W80537  26.652  13.216  13.543
14129W        W80538  36.380  43.370  12.476
14130W        W80539  40.730  36.539  12.540
14131W        W80540  10.219  21.108  11.001
14132W        W80541  19.482  28.703   3.382
14133W        W80542   3.526  30.100  12.378
14134W        W80543  36.555  21.401   2.430
14135W        W80544  29.146  17.468   2.793
14136W        W80545  27.550   6.419  11.087
14137W        W80546  40.876   7.126  11.978
14138W        W80547   0.384  36.107  11.694
14139W        W80548  19.186  36.820   1.887
14140W        W80549  35.341   5.108   2.188
14141W        W80550  20.577  39.228   2.656
14142W        W80551  21.170  22.496   0.325
14143W        W80552   7.112   3.211   3.200
14144W        W80553  22.010  39.458  11.132
14145W        W80554  31.353  24.109   0.819
14146W        W80555  41.228  21.350  12.973
14147W        W80556  40.486   4.110  13.026
14148W        W80557  37.077  26.763   3.841
14149W        W80558  31.605  40.451   3.648
14150W        W80559   1.168  17.489   0.887
14151W        W80560  42.777  41.850   1.811
14152W        W80561   3.194  34.169  13.428
14153W        W80562  31.858  36.888   0.706
14154W        W80563  35.367  24.491   3.915
14155W        W80564   2.806  26.415  13.914
14156W        W80565   8.689  41.670   0.004
14157W        W80566  25.877  10.383   4.582
14158W        W80567  22.999   9.669   3.600
14159W        W80568  39.818  21.185  13.027
14160W        W80569   1.466  42.618  13.521
14161W        W80570  38.783   6.730   1.026
14162W        W80571  27.240  11.776   4.536
14163W        W80572  25.504  17.316  13.340
14164W        W80573  26.029  33.862   3.455
14165W        W80574  34.934  17.245   1.236
14166W        W80575  13.649   2.795  12.663
14167W        W80576  18.188   8.273  11.485
14168W        W80577  18.782  34.359  14.037
14169W        W80578  21.234  33.929   0.959
14170W        W80579  34.399  43.148   2.367
14171W        W80580  20.494  26.220   0.863
14172W        W80581  44.362   2.160   2.859
14173W        W80582  31.069  25.043   2.691
14174W        W80583  15.603  36.588   1.337
14175W        W80584  40.962  17.544  11.575
14176W        W80585  42.827  13.161   4.548
14177W        W80586  22.322  37.910   2.202
14178W        W80587  36.512  43.302   4.586
14179W        W80588  14.178  26.125   4.735
14180W        W80589   7.295  20.740   1.834
14181W        W80590   9.865  10.571  12.480
14182W        W80591  10.246   1.518  12.230
14183W        W80592   1.483   3.222  12.005
14184W        W80593  18.342   6.729   0.729
14185W        W80594  27.542  20.048   1.083
14186W        W80595   9.154  40.370  11.943
14187W        W80596  43.532  15.496   1.324
14188W        W80597   3.778  43.747  11.323
14189W        W80598  14.067  29.874  12.428
14190W        W80599  41.190  13.182  11.260
14191W        W80600  13.712  43.576  12.533
14192W        W80601  33.138   2.232  11.871
14193W        W80602  40.398  39.568  11.662
14194W        W80603  18.056  38.452  14.994
14195W        W80604  42.262   5.744  13.886
14196W        W80605  17.609  41.372   0.837
14197W        W80606  32.881  43.661  12.017
14198W        W80607  19.080  23.560  12.030
14199W        W80608  36.660  34.325  12.500
14200W        W80609  15.632   7.651   4.460
14201W        W80610   9.600  16.562  12.904
14202W        W80611   1.585  11.613   4.183
14203W        W80612   9.352  44.907   1.755
14204W        W80613   4.343  32.880  12.901
14205W        W80614   9.389  21.889   1.722
14206W        W80615  28.441  10.231  11.819
14207W        W80616   5.803  35.389  13.936
14208W        W80617  12.692  17.666  12.120
14209W        W80618  25.198   6.471   4.524
14210W        W80619  22.864  11.249   4.048
14211W        W80620   5.623  33.079  12.816
14212W        W80621  39.048  44.019  10.526
14213W        W80622  14.049  22.606  13.772
14214W        W80623  26.190  20.900  13.052
14215W        W80624   7.602  17.810   3.416
14216W        W80625  13.956  39.483   2.768
14217W        W80626  24.291  14.559  14.224
14218W        W80627   1.219  22.219   3.322
14219W        W80628  38.760  39.090   2.106
14220W        W80629  16.461  33.868  12.048
14221W        W80630  18.273  26.488  12.503
14222W        W80631  22.607  35.617  12.013
14223W        W80632  30.923  33.807   4.024
14224W        W80633  20.269  17.790  13.905
14225W        W80634  36.948  17.430   3.571
14226W        W80635  41.765  13.610  13.434
14227W        W80636  20.559  38.297   1.567
14228W        W80637  19.748  37.261   3.864
14229W        W80638  27.314  42.702   4.418
14230W        W80639  39.445  33.693   1.430
14231W        W80640  19.523  17.708   1.403
14232W        W80641  18.675   3.283   2.188
14233W        W80642   9.938  39.505   1.224
14234W        W80643   0.306  11.876   2.918
14235W        W80644   3.723  32.141   3.214
14236W        W80645  34.905  37.485  10.703
14237W        W80646  18.266  30.224   1.501
14238W        W80647  21.255  26.417  14.350
14239W        W80648  35.382  23.502   2.764
14240W        W80649  14.295  35.918   4.718
14241W        W80650   5.469  27.572   0.005
14242W        W80651   4.006  30.083   4.186
14243W        W80652  37.327   8.494   3.328
14244W        W80653  17.784  43.877   0.805
14245W        W80654  19.935  37.219   2.976
14246W        W80655  19.077  20.581   1.803
14247W        W80656  41.519  17.054   5.008
14248W        W80657  13.605   4.823   1.248
14249W        W80658   6.658  23.316  14.550
14250W        W80659  14.619  34.366   0.931
14251W        W80660  40.296  32.960   3.220
14252W        W80661  41.409   7.209  10.800
14253W        W80662  34.014  13.026   2.222
14254W        W80663  21.482  40.368   3.468
14255W        W80664  26.643   8.246   1.714
14256W        W80665  24.935  32.861   3.325
14257W        W80666   2.177  19.838   2.953
14258W        W80667  19.249  34.843  10.682
14259W        W80668   0.982  12.392   3.242
14260W        W80669  32.560  37.562   0.561
14261W        W80670   6.733  41.827  12.965
14262W        W80671  20.670  39.537   4.123
14263W        W80672  21.930  16.803   4.158
14264W        W80673  13.473   4.884  13.371
14265W        W80674   5.182  17.547  14.763
14266W        W80675  18.520  23.070   0.036
14267W        W80676  11.347  38.358   2.706
14268W        W80677  43.387  38.621   3.529
14269W        W80678  18.036  32.289  11.173
14270W        W80679  32.118  42.024   0.008
14271W        W80680  25.668   6.943   4.136
14272W        W80681  21.060  21.238   1.609
14273W        W80682   8.808   8.552   3.196
14274W        W80683  27.964  25.509  14.907
14275W        W80684  23.612  26.585  12.075
14276W        W80685  26.516  21.131  13.388
14277W        W80686  13.926  15.672   0.432
14278W        W80687  26.143   9.621  12.574
14279W        W80688   5.425  36.437  10.975
14280W        W80689  40.513  19.361  11.115
14281W        W80690  34.112  23.215  12.453
14282W        W80691  11.126  23.709  10.666
14283W        W80692   9.882   7.181   2.647
14284W        W80693   0.963  37.352   2.294
14285W        W80694  32.067   3.378   1.235
14286W        W80695  36.038   0.502   3.204
14287W        W80696   0.939  27.454   1.790
14288W        W80697  43.222  24.705   1.909
14289W        W80698  18.315  36.489  14.614
14290W        W80699   6.675  17.960   0.813
14291W        W80700  33.512  36.492   4.147
14292W        W80701  20.050   2.968  10.679
14293W        W80702  27.621  34.009   1.364
14294W        W80703  14.169   4.262   1.811
14295W        W80704   5.779  37.786   1.823
14296W        W80705  35.519  33.853  14.481
14297W        W80706  40.361  29.883   2.253
14298W        W80707  23.288  20.238   0.885
14299W        W80708  23.009  44.848   1.437
14300W        W80709  43.436  28.603   4.726
14301W        W80710  29.191  12.216  12.979
14302W        W80711  11.873  27.508  14.713
14303W        W80712   8.213   1.750   2.812
14304W        W80713  22.265  40.669  10.446
14305W        W80714   9.248  10.962   1.062
14306W        W80715  15.106  33.037   4.130
14307W        W80716   9.371  26.703   4.558
14308W        W80717  28.404   0.598  10.207
14309W        W80718  19.714  17.722  13.948
14310W        W80719  28.328   1.343  10.755
14311W        W80720  20.735  36.610   4.402
14312W        W80721   9.875  43.012   0.733
14313W        W80722  25.697  38.857  13.415
14314W        W80723  41.121  15.267   4.441
14315W        W80724  23.640  12.245  11.958
14316W        W80725  20.070  43.296  14.877
14317W        W80726  11.246   5.386   4.677
14318W        W80727  16.741  12.605  12.577
14319W        W80728  28.197   6.654  14.461
14320W        W80729  43.245   1.770   3.955
14321W        W80730  10.291  30.364   4.009
14322W        W80731  10.685  22.842   2.719
14323W        W80732  26.987  14.429   1.883
14324W        W80733   6.675  37.358  12.125
14325W        W80734   0.771  23.578  11.741
14326W        W80735  29.834  37.762  14.796
14327W        W80736  22.675  21.638  13.797
14328W        W80737  23.865  15.078  12.828
14329W        W80738  40.755  15.139  12.531
14330W        W80739  44.189  26.482   1.889
14331W        W80740  33.285  23.564  13.943
14332W        W80741   8.139  32.499  10.063
14333W        W80742   0.308  19.648   1.234
14334W        W80743  24.727  33.227   4.253
14335W        W80744  18.062  36.194   1.774
14336W        W80745  26.547   5.643   4.073
14337W        W80746  37.318   6.337   1.941
14338W        W80747   0.847   2.968   2.491
14339W        W80748  42.996  31.889  14.878
14340W        W80749  23.115  31.788  14.936
14341W        W80750   4.867   0.575   4.998
14342W        W80751  31.156  16.639  12.107
14343W        W80752  15.720  41.843   2.293
14344W        W80753  41.826  17.072   2.226
14345W        W80754  29.236  33.491  10.634
14346W        W80755  10.126  21.665   3.829
14347W        W80756  42.475   3.780   0.804
14348W        W80757  10.274  15.679   4.283
14349W        W80758  21.483  19.431   4.139
14350W        W80759   6.285   0.302   0.836
14351W        W80760  41.877  39.978   4.080
14352W        W80761  28.747  23.512   1.417
14353W        W80762  20.156  33.596  10.836
14354W        W80763  17.691  32.403   4.157
14355W        W80764  32.518   6.772   4.698
14356W        W80765  33.836  15.242   2.645
14357W        W80766  33.545  40.833   0.332
14358W        W80767  36.737  10.867   2.249
14359W        W80768  15.830   1.826  11.628
14360W        W80769  31.887  15.103  14.972
14361W        W80770  11.457  29.190  14.505
14362W        W80771  39.578  26.474  11.355
14363W        W80772  10.933  16.074  10.701
14364W        W80773  22.145  20.703  11.787
14365W        W80774  18.529  15.044  11.656
14366W        W80775   0.765  30.735  11.168
14367W        W80776  17.128  19.412  13.061
14368W        W80777  11.249  10.687   1.302
14369W        W80778  32.195  31.578  14.292
14370W        W80779   2.809  43.879   4.459
14371W        W80780  12.163   0.431   3.168
14372W        W80781  42.951   6.919  14.260
14373W        W80782  12.366  16.388   4.756
14374W        W80783  16.265  14.895  14.171
14375W        W80784  44.441   7.403  14.997
14376W        W80785  13.656   4.285  12.093
14377W        W80786  12.293  14.642  11.049
14378W        W80787  11.588  38.751   4.125
14379W        W80788  16.991  16.895  14.108
14380W        W80789  26.495   6.668   4.168
14381W        W80790  32.638  27.108  12.110
14382W        W80791  29.867  12.789   2.435
14383W        W80792   8.898  44.155  14.501
14384W        W80793  38.818  28.220   3.590
14385W        W80794  24.584  20.232  14.431
14386W        W80795  25.976  22.179   2.301
14387W        W80796  22.657   2.100  11.128
14388W        W80797  21.693  20.012  13.997
14389W        W80798  29.532  17.886  10.705
14390W        W80799  22.348  29.210  11.131
14391W        W80800  27.129  29.507   2.663
14392W        W80801  42.495   5.371   3.253
14393W        W80802  44.490  39.956   1.974
14394W        W80803  35.338  35.966   4.699
14395W        W80804   7.247  14.146   1.643
14396W        W80805  24.674  15.246   0.199
14397W        W80806   2.405  20.570  13.422
14398W        W80807   5.326  11.683  11.635
14399W        W80808   0.935  34.025  10.732
14400W        W80809   1.420   4.961   3.629
14401W        W80810   7.931  24.245   3.169
14402W        W80811  29.152  40.899  13.567
14403W        W80812  13.964   3.364  13.982
14404W        W80813  11.142  34.077  12.221
14405W        W80814  29.162  19.329  13.256
14406W        W80815  13.444  12.009   0.815
14407W        W80816  38.470  12.662  10.455
14408W        W80817  36.601   5.929  14.446
14409W        W80818  38.495  43.343   4.072
14410W        W80819  30.966  29.180   0.742
14411W        W80820   2.548  19.337  12.773
14412W        W80821  36.567  20.707   0.710
14413W        W80822  22.525   4.358   1.670
14414W        W80823  17.111   9.855  14.106
14415W        W80824  24.590  43.537  13.825
14416W        W80825  32.169  44.912  14.072
14417W        W80826  20.128  42.728  14.839
14418W        W80827  11.749  44.473   3.522
14419W        W80828  23.091  12.758  14.885
14420W        W80829  42.771  38.041  11.998
14421W        W80830   1.898  42.710  11.469
14422W        W80831  30.508  35.769   0.863
14423W        W80832  39.912  35.616   0.107
14424W        W80833  12.761  44.371   2.529
14425W        W80834  25.626  31.748   0.822
14426W        W80835  22.660   8.379  14.801
14427W        W80836  31.707   9.126  13.964
14428W        W80837  14.554  29.982  13.354
14429W        W80838  40.843  11.773   2.807
14430W        W80839   2.611  16.963   1.008
14431W        W80840  27.374  14.065   2.605
14432W        W80841  19.153  15.059  12.947
14433W        W80842   6.852  32.918   3.141
14434W        W80843  40.312  12.662   4.012
14435W        W80844  19.014  35.214   0.246
14436W        W80845  30.581  22.504  13.015
14437W        W80846  30.504  12.025   0.333
14438W        W80847  13.416   1.274  14.989
14439W        W80848  10.490  29.638  12.438
14440W        W80849  10.101  38.595  11.555
14441W        W80850  30.827  17.280   0.792
14442W        W80851  21.392  29.558  14.747
14443W        W80852   7.303  18.671  14.839
14444W        W80853   9.190   8.044   0.744
14445W        W80854  14.658   7.609   3.315
14446W        W80855  37.851  13.283   2.199
14447W        W80856  39.942   7.082  14.284
14448W        W80857   8.366  44.550   4.682
14449W        W80858  42.253  25.971  14.431
14450W        W80859  34.975  16.778   3.814
14451W        W80860   9.307  29.460   1.831
14452W        W80861  21.017   6.903  14.125
14453W        W80862  21.705  38.935  10.727
14454W        W80863  32.623   7.738   3.634
14455W        W80864  18.641  12.817   4.024
14456W        W80865   2.868   6.100  11.164
14457W        W80866  42.343  32.113   4.736
14458W        W80867  35.420  17.249  12.648
14459W        W80868  25.545  41.242   0.476
14460W        W80869   1.962  26.665  14.745
14461W        W80870  40.447  44.438  11.678
14462W        W80871  42.167  38.360   0.370
14463W        W80872   4.925  31.361  14.209
14464W        W80873  37.857  10.361  10.275
14465W        W80874  16.748  34.668   3.739
14466W        W80875  37.901  27.637  11.133
14467W        W80876   8.398  43.470  14.881
14468W        W80877  43.830  40.933   2.703
14469W        W80878  15.043  16.704  14.793
14470W        W80879  40.573   4.332  11.692
14471W        W80880  24.971   0.020   0.901
14472W        W80881   8.568  38.333  12.152
14473W        W80882  40.714  10.132   4.693
14474W        W80883  11.960  34.020  13.405
14475W        W80884   7.184  10.283   1.411
14476W        W80885  25.081  28.235  14.514
14477W        W80886  16.256   7.841  10.474
14478W        W80887  28.425  15.056  14.515
14479W        W80888  17.870  28.342  11.710
14480W        W80889  15.434  38.783  13.119
14481W        W80890  35.339  21.959   2.837
14482W        W80891  23.821  36.553   0.840
14483W        W80892   8.456   6.504   1.405
14484W        W80893  13.295  44.480  12.134
14485W        W80894  44.575  27.757   1.413
14486W        W80895  16.335  37.616   0.481
14487W        W80896  22.340   3.386  14.375
14488W        W80897  32.714  25.607  11.855
14489W        W80898  40.287  24.360  12.093
14490W        W80899  38.491  32.929  14.865
14491W        W80900  33.599  30.399  13.057
14492W        W80901  29.382  12.035  13.911
14493W        W80902  23.975  17.312   2.137
14494W        W80903  29.652  33.412  13.549
14495W        W80904   6.242  23.556  12.478
14496W        W80905   0.927  28.872  12.462
14497W        W80906  34.419   2.234  13.500
14498W        W80907  16.085  14.548  14.516
14499W        W80908   5.691  32.670   2.272
14500W        W80909  29.475  35.779  14.801
14501W        W80910  38.760  15.502   1.371
14502W        W80911  28.517   1.430  11.219
14503W        W80912  26.558  32.695  11.027
14504W        W80913   9.255  21.334  11.194
14505W        W80914  14.934  21.554   0.818
14506W        W80915  29.923   8.797  12.515
14507W        W80916   9.223  36.289  11.165
14508W        W80917  17.313   9.417   3.161
14509W        W80918   5.233  14.193   0.434
14510W        W80919  22.605  41.491  12.521
14511W        W80920  24.594  39.788   1.975
14512W        W80921  27.208  19.010  14.180
14513W        W80922   4.326  41.713  12.443
14514W        W80923  22.379  18.472   5.012
14515W        W80924   9.622  23.300  11.112
14516W        W80925   2.193   4.852   4.113
14517W        W80926  18.656  30.261  13.033
14518W        W80927  42.398  12.869  14.365
14519W        W80928  41.887  22.161   1.779
14520W        W80929   9.225  19.525  13.933
14521W        W80930  44.462  30.016  13.930
14522W        W80931  21.195  16.523   4.618
14523W        W80932  12.112   7.664  11.542
14524W        W80933   3.577  34.655  14.661
14525W        W80934  16.690  17.754  13.346
14526W        W80935  29.605  36.604  11.711
14527W        W80936   0.872   1.508  10.740
14528W        W80937   9.888  43.169  10.132
14529W        W80938  43.181  11.713  10.149
14530W        W80939  17.803  13.328   2.792
14531W        W80940  29.922  24.918  14.095
14532W        W80941  33.074   0.498   0.975
14533W        W80942   0.497  26.662   2.366
14534W        W80943  26.937  35.396   0.229
14535W        W80944  42.166   9.887  11.670
14536W        W80945   0.797   2.412  14.702
14537W        W80946  38.937  21.578   0.493
14538W        W80947  42.826  28.060  11.467
14539W        W80948  28.127  20.622  11.469
14540W        W80949  17.554   7.580  11.508
14541W        W80950  12.424  44.948  12.155
14542W        W80951  20.324  36.016  10.547
14543W        W80952  40.718  35.335  12.947
14544W        W80953  16.814   0.258  12.073
14545W        W80954  40.455  40.852  14.919
14546W        W80955  22.952  40.443   1.932
14547W        W80956  19.344  13.791  12.829
14548W        W80957  18.609  37.424  10.080
14549W        W80958  18.653   5.776  14.826
14550W        W80959  34.801   8.427  10.980
14551W        W80960  29.783  14.981   4.304
14552W        W80961  14.625  31.167   2.826
14553W        W80962  25.987  43.579   2.173
14554W        W80963   9.320  16.547   1.504
14555W        W80964  25.374  13.361   4.800
14556W        W80965  39.422   2.682  14.548
14557W        W80966  21.329  14.588  10.665
14558W        W80967  19.771  40.839   2.867
14559W        W80968  23.470   6.179  13.458
14560W        W80969  31.192  11.779  12.784
14561W        W80970  38.934  34.397  12.661
14562W        W80971  32.882  27.845   0.352
14563W        W80972  16.275  23.099   5.148
14564W        W80973  26.477  21.149   2.323
14565W        W80974  42.808  35.533  13.834
14566W        W80975  41.222  29.602   1.614
14567W        W80976  28.626  35.204  13.952
14568W        W80977  32.457  10.545  12.828
14569W        W80978  18.365  35.311  12.487
14570W        W80979  19.167   7.903  11.542
14571W        W80980  42.896  18.642   1.010
14572W        W80981   4.680  35.618  12.024
14573W        W80982  17.283   1.168   1.145
14574W        W80983   2.146   4.371   0.785
14575W        W80984  22.260  30.172  11.668
14576W        W80985  16.086   9.797   3.630
14577W        W80986  30.595  18.676  14.199
14578W        W80987   7.193   1.319   1.398
14579W        W80988  36.575  35.503   0.498
14580W        W80989  39.067  20.061  11.655
14581W        W80990  33.380  39.349   4.635
14582W        W80991  34.031   5.232   1.024
14583W        W80992  31.147  29.168  11.226
14584W        W80993  25.802   3.913   4.116
14585W        W80994  38.916  25.445   2.310
14586W        W80995  22.537  10.215   2.803
14587W        W80996  42.486  26.040   2.929
14588W        W80997  22.696  27.291  11.495
14589W        W80998  24.968  10.371   4.577
14590W        W80999  35.187  17.206   0.771
14591W        W81000  24.762  43.565  14.295
14592W        W81001  29.449  43.229   1.773
14593W        W81002  44.487  43.574  12.433
14594W        W81003   9.193  19.233   1.100
14595W        W81004   8.155  18.256   0.793
14596W        W81005  15.635  37.782   0.827
14597W        W81006  18.642  43.555  12.937
14598W        W81007  27.772  17.687   0.525
14599W        W81008  30.145  10.704   1.762
14600W        W81009  43.253   9.236   3.148
14601W        W81010  27.686  11.068   0.497
14602W        W81011  29.645  16.269   2.853
14603W        W81012  26.679  15.343   0.037
14604W        W81013  14.482  34.045   0.226
14605W        W81014  31.510   6.548   2.866
14606W        W81015   1.003  31.152  11.049
14607W        W81016   1.964  37.494   1.407
14608W        W81017  42.667   3.441  12.541
14609W        W81018  22.987  22.825   1.866
14610W        W81019  23.034  11.879   1.709
14611W        W81020  12.651  25.268  12.628
14612W        W81021  26.216   9.400   2.364
14613W        W81022  37.123  30.654   0.399
14614W        W81023  39.935  23.446  14.735
14615W        W81024  41.823  42.007   1.619
14616W        W81025   7.418  15.016  13.719
14617W        W81026   7.199  12.133   1.697
14618W        W81027   2.215  13.161   4.212
14619W        W81028  33.602  27.564   1.319
14620W        W81029  37.109  44.956   1.330
14621W        W81030  22.248  25.009   2.747
14622W        W81031  20.076   0.863  13.512
14623W        W81032  35.120  28.212  11.637
14624W        W81033  20.576  20.594  14.335
14625W        W81034  37.821  26.059  12.939
14626W        W81035  19.103  40.565   4.575
14627W        W81036  35.369  29.871   2.251
14628W        W81037   4.884  21.087  11.889
14629W        W81038  10.947  39.492  14.465
14630W        W81039   6.693  25.352   3.203
14631W        W81040  21.246  34.442   0.909
14632W        W81041  34.959  36.369   4.620
14633W        W81042  39.427  27.526   3.297
14634W        W81043  26.421  38.768  11.575
14635W        W81044   8.926  43.712  10.697
14636W        W81045  14.979  43.693   3.671
14637W        W81046   0.903   5.195   0.841
14638W        W81047  21.759   5.922  13.936
14639W        W81048  11.984  35.075   2.740
14640W        W81049  20.301  22.241  11.142
14641W        W81050   9.835  39.575   3.156
14642W        W81051   0.670  16.781  14.470
14643W        W81052   8.361  20.084   2.793
14644W        W81053  24.859   0.583  13.803
14645W        W81054   3.875  42.364   4.535
14646W        W81055  11.851   8.616   3.597
14647W        W81056  39.051   8.639  14.764
14648W        W81057  24.461  42.506   4.811
14649W        W81058  29.573   2.828   4.404
14650W        W81059  23.143  33.120  13.863
14651W        W81060   6.178  16.332   1.191
14652W        W81061   7.248  36.904   1.047
14653W        W81062  25.005  26.657  12.419
14654W        W81063  18.362  19.992   3.706
14655W        W81064   9.684  44.840  13.684
14656W        W81065  43.878   5.301  11.710
14657W        W81066  20.878  25.977  14.809
14658W        W81067  38.743  30.711  12.572
14659W        W81068  40.172  18.411  14.822
14660W        W81069  35.567   2.331  11.465
14661W        W81070  23.115  26.883  12.078
14662W        W81071  37.608  27.604  14.839
14663W        W81072   6.762  19.982   0.662
14664W        W81073  21.772  16.313   4.103
14665W        W81074  43.247  15.659   2.312
14666W        W81075  21.049  10.086  11.058
14667W        W81076  14.375   9.111   2.289
14668W        W81077   3.770   0.191  14.269
14669W        W81078  35.685  42.854   1.877
14670W        W81079  35.921   3.908  11.351
14671W        W81080  36.395  19.092  10.311
14672W        W81081  40.007  16.028  12.695
14673W        W81082   7.198  39.486   0.994
14674W        W81083  37.431  19.235   4.484
14675W        W81084  15.797  13.302   2.482
14676W        W81085  44.825  44.482   1.507
14677W        W81086  12.060  26.478  12.051
14678W        W81087  20.597  19.590   1.778
14679W        W81088  37.103  23.472  13.019
14680W        W81089  34.951  23.751  12.444
14681W        W81090  36.600   0.309   4.601
14682W        W81091  25.684  20.387   2.802
14683W        W81092   8.718   6.867   3.638
14684W        W81093  21.521  21.004   2.400
14685W        W81094  10.106  12.533   4.987
14686W        W81095   1.605  29.157  13.309
14687W        W81096   0.020  15.670   1.179
14688W        W81097  30.891  40.497   3.043
14689W        W81098   4.825  33.716   3.625
14690W        W81099  41.833  17.045  11.106
14691W        W81100  34.985  29.982   4.008
14692W        W81101  13.884  10.686  11.037
14693W        W81102  17.063  39.441  12.310
14694W        W81103  21.178  36.162  10.161
14695W        W81104  38.834  25.026  10.374
14696W        W81105  35.281   4.847  10.332
14697W        W81106  17.488  38.263  13.873
14698W        W81107  27.759  31.523  13.871
14699W        W81108  12.320  36.400   2.381
14700W        W81109  15.639   1.973  10.345
14701W        W81110  34.477  21.091   4.474
14702W        W81111  32.010  41.467   4.597
14703W        W81112   4.803  30.365   3.029
14704W        W81113   1.257  14.728  14.381
14705W        W81114   9.889   3.308   1.438
14706W        W81115  42.271  25.437   3.807
14707W        W81116  26.123   2.956  11.560
14708W        W81117  34.904  13.257  12.723
14709W        W81118  40.013  34.022   1.812
14710W        W81119  26.209  16.904  10.603
14711W        W81120  29.919   8.244  10.978
14712W        W81121  16.960  40.363  14.003
14713W        W81122   2.174   6.721   4.886
14714W        W81123  19.746  21.495   1.426
14715W        W81124  22.550   8.197  11.441
14716W        W81125  44.044  39.071   4.677
14717W        W81126   6.731  43.491  14.508
14718W        W81127   4.397   4.716   0.781
14719W        W81128  28.487   9.135  11.169
14720W        W81129  33.311  30.907  13.831
14721W        W81130  27.111   3.473   2.384
14722W        W81131   4.167  41.274  11.099
14723W        W81132  26.420   8.648   2.327
14724W        W81133   2.298  20.657   1.865
14725W        W81134  33.981  14.626  14.435
14726W        W81135  36.292  41.404  13.370
14727W        W81136   2.386  25.647  14.275
14728W        W81137  36.212  20.294   1.776
14729W        W81138  30.192  44.373   0.715
14730W        W81139  15.807  35.846   3.152
14731W        W81140  39.825   6.869   1.978
14732W        W81141  17.510   0.442   1.795
14733W        W81142   4.962  36.125  14.908
14734W        W81143  11.084  13.085   3.885
14735W        W81144  15.871  34.419  10.672
14736W        W81145  10.841  41.278  14.760
14737W        W81146  17.297   9.831  12.583
14738W        W81147  42.824   7.724  10.587
14739W        W81148  28.678  32.340  12.476
14740W        W81149  38.278  23.012  11.672
14741W        W81150  23.214  34.078  12.675
14742W        W81151   7.188   9.854  14.733
14743W        W81152  30.436  44.440   1.467
14744W        W81153  38.957   5.981  11.970
14745W        W81154  31.535  23.238   0.976
14746W        W81155  25.854  26.232   0.882
14747W        W81156  15.264   6.177  12.985
14748W        W81157  11.301  14.928  13.963
14749W        W81158  11.562  18.050  10.774
14750W        W81159  10.902  29.476  13.870
14751W        W81160  14.848  27.448   0.942
14752W        W81161  11.929  14.207  10.656
14753W        W81162  40.324  23.594   4.023
14754W        W81163   1.470  33.822  12.155
14755W        W81164  32.868  11.596   4.175
14756W        W81165  22.071  38.859   2.272
14757W        W81166  30.390  18.101   0.823
14758W        W81167  27.692  10.940   4.955
14759W        W81168   9.816  26.074   3.078
14760W        W81169  43.828  17.080   2.219
14761W        W81170  41.528  13.170   4.173
14762W        W81171   6.405   1.355  14.893
14763W        W81172  43.524   9.854   9.863
14764W        W81173  31.178  18.050   2.581
14765W        W81174  28.613  29.008   3.728
14766W        W81175  13.381  38.117  13.168
14767W        W81176  13.609   8.687  12.221
14768W        W81177  32.385  14.212   2.854
14769W        W81178  26.625  43.331   2.857
14770W        W81179  30.182  13.758  13.459
14771W        W81180  38.648  37.160  11.977
14772W        W81181   2.247   3.000   0.174
14773W        W81182  23.726  32.533  10.565
14774W        W81183  35.363  11.751   2.218
14775W        W81184  30.937  17.522  12.035
14776W        W81185   4.498  11.375   3.462
14777W        W81186  44.354  26.922   0.354
14778W        W81187  13.224  26.382  12.937
14779W        W81188  25.015  24.747  12.477
14780W        W81189  14.122  14.539   4.277
14781W        W81190  26.903   9.830  12.482
14782W        W81191   5.277  29.473  13.743
14783W        W81192  37.414  42.294   1.469
14784W        W81193  33.798  20.118  12.767
14785W        W81194  34.464  12.313  11.068
14786W        W81195   3.305   4.488   1.453
14787W        W81196  28.566  11.947  12.439
14788W        W81197  24.509  41.964  13.868
14789W        W81198  14.568  30.563  13.477
14790W        W81199  23.590  24.000  11.963
14791W        W81200  22.724  34.104  11.169
14792W        W81201  26.374  43.370  13.265
14793W        W81202   0.470  21.701   4.468
14794W        W81203   9.222   6.181   0.851
14795W        W81204  19.489   8.348  11.009
14796W        W81205  19.014  30.548   3.301
14797W        W81206  32.930  11.135  11.591
14798W        W81207  31.482   8.430   2.922
14799W        W81208  12.231  11.094  14.809
14800W        W81209   8.287  12.118   2.049
14801W        W81210  10.988   4.104   5.898
14802W        W81211  41.563  14.388   2.767
14803W        W81212  17.550  34.404   3.181
14804W        W81213   1.242  27.020  11.817
14805W        W81214  41.792  13.124   2.250
14806W        W81215   2.198  39.515  12.416
14807W        W81216  28.206  32.290   2.496
14808W        W81217  29.592  20.092   4.217
14809W        W81218  19.525  22.664   4.375
14810W        W81219  40.080  21.113  13.476
14811W        W81220   8.825  40.387   1.917
14812W        W81221  10.818  37.800  13.020
14813W        W81222  15.522  34.012  10.693
14814W        W81223  29.614  41.811  12.942
14815W        W81224  34.848  24.462   0.878
14816W        W81225  23.048   0.632  12.986
14817W        W81226  33.357  12.272  13.795
14818W        W81227  42.914  39.839  14.511
14819W        W81228  31.086   2.193   4.942
14820W        W81229  14.999  14.626   0.205
14821W        W81230  29.351   6.245   1.890
14822W        W81231  14.672  19.553   4.925
14823W        W81232  44.316  44.146   0.449
14824W        W81233  15.132  12.149   4.149
14825W        W81234  18.170  12.561  12.338
14826W        W81235  35.065  42.586  12.879
14827W        W81236  32.096  32.451  11.506
14828W        W81237  13.249  30.055  14.734
14829W        W81238  18.213  14.684  12.051
14830W        W81239  41.057  42.263   1.005
14831W        W81240  20.057  11.008   3.709
14832W        W81241  42.002  20.566  11.337
14833W        W81242   6.860  18.837   3.052
14834W        W81243   0.893  44.870  12.814
14835W        W81244  16.793  40.099   2.740
14836W        W81245   2.429  27.803  14.117
14837W        W81246   4.178  17.386  12.854
14838W        W81247  22.074  42.610  11.505
14839W        W81248   2.825  29.954   4.658
14840W        W81249  44.644  13.944  12.052
14841W        W81250  21.605  16.642  13.073
14842W        W81251  32.198  42.382   0.396
14843W        W81252  29.135  33.986   3.937
14844W        W81253  37.422  38.513  11.585
14845W        W81254  16.571  37.676  12.504
14846W        W81255  32.338  12.125  11.669
14847W        W81256  22.851  41.543   0.936
14848W        W81257   6.489   4.877  10.931
14849W        W81258   5.314  21.751  13.148
14850W        W81259   6.314  40.362   4.112
14851W        W81260  13.632  26.152  13.173
14852W        W81261  29.925  35.869   1.898
14853W        W81262  28.354  28.877   0.664
14854W        W81263   3.774  21.679   2.264
14855W        W81264  15.510  43.777  14.058
14856W        W81265   5.272  38.652  14.492
14857W        W81266  31.975  44.523  11.597
14858W        W81267  25.989  44.376  12.540
14859W        W81268  23.954  20.953  14.902
14860W        W81269  31.131  28.279  14.623
14861W        W81270  35.141  32.260   2.120
14862W        W81271   7.844  34.837   2.805
14863W        W81272  18.929  44.561   1.200
14864W        W81273  27.671  42.261  12.118
14865W        W81274  18.406  35.817   1.916
14866W        W81275   1.687  12.817  11.154
14867W        W81276  39.317  43.004   0.855
14868W        W81277  23.762  39.357  11.707
14869W        W81278  15.621  41.392  11.676
14870W        W81279  40.568   3.317  13.958
14871W        W81280  33.202  11.845   2.813
14872W        W81281  36.343   0.881   3.867
14873W        W81282  30.109  43.737  14.993
14874W        W81283   7.925  31.673   3.221
14875W        W81284  13.915  27.047   4.150
14876W        W81285  43.520  13.259  10.456
14877W        W81286  12.078   3.074  10.615
14878W        W81287   4.616  24.727   2.845
14879W        W81288   6.232   5.253   4.916
14880W        W81289  32.969   6.046   1.544
14881W        W81290  30.931   0.594  13.503
14882W        W81291  23.404  12.253  12.810
14883W        W81292   4.891  33.837  14.630
14884W        W81293  31.147  44.588   1.796
14885W        W81294  14.287   3.676   4.582
14886W        W81295  15.505  24.634   1.664
14887W        W81296   9.570  23.950  10.265
14888W        W81297  31.928  10.836   4.314
14889W        W81298  30.778  12.356  11.631
14890W        W81299  15.815  17.499   2.796
14891W        W81300  12.276  25.779  11.590
14892W        W81301  25.556  21.967  12.552
14893W        W81302  13.063   9.201   2.632
14894W        W81303  39.549   7.878  14.853
14895W        W81304  28.160  20.074  14.399
14896W        W81305   9.675  22.778  10.772
14897W        W81306  25.649  33.228   5.391
14898W        W81307  13.731  31.076   2.796
14899W        W81308  22.106  33.574  10.794
14900W        W81309  10.269   1.664  12.779
14901W        W81310  23.992  35.756   3.744
14902W        W81311  21.267  27.168  13.504
14903W        W81312  34.834  11.967  10.948
14904W        W81313  30.571  30.554   4.659
14905W        W81314  21.166   0.336   4.673
14906W        W81315  12.730  23.601  11.720
14907W        W81316   7.932  37.214   2.796
14908W        W81317   4.494   6.192  11.406
14909W        W81318  25.238  17.308   4.526
14910W        W81319  43.934  32.008   2.162
14911W        W81320  17.327  39.471  10.600
14912W        W81321  27.727   5.611  12.027
14913W        W81322  40.524  34.947  10.382
14914W        W81323  16.664  12.561   1.103
14915W        W81324  27.508   1.779   4.083
14916W        W81325  13.312   2.618   4.190
14917W        W81326  27.774   9.581  11.561
14918W        W81327  36.161  37.877  10.513
14919W        W81328  13.498  18.557  13.895
14920W        W81329  18.909   0.958   0.403
14921W        W81330  10.562  14.174   0.348
14922W        W81331  35.754   5.423   9.209
14923W        W81332  24.042  42.879   5.080
14924W        W81333  38.970   2.869  12.062
14925W        W81334   0.256   1.854   0.949
14926W        W81335  18.615  34.333  11.873
14927W        W81336   7.088  14.669   3.333
14928W        W81337  43.556  31.702   0.890
14929W        W81338  27.628   9.941  11.898
14930W        W81339  41.477  10.409   1.219
14931W        W81340  28.323  44.729  13.687
14932W        W81341  34.775  19.913   5.000
14933W        W81342  11.335  42.427  11.486
14934W        W81343  11.886  21.990  10.628
14935W        W81344  43.024  44.302  13.663
14936W        W81345  36.796  19.004   2.307
14937W        W81346   3.839  20.587  13.898
14938W        W81347   1.990  29.722   1.284
14939W        W81348  21.211  30.416   2.601
14940W        W81349   0.872  19.663   0.462
14941W        W81350  11.876   9.174  11.217
14942W        W81351   3.839  29.924   2.756
14943W        W81352  43.314  26.095  13.082
14944W        W81353  30.448  30.642  13.913
14945W        W81354   9.589  11.791  11.674
14946W        W81355   3.915  36.887  10.576
14947W        W81356  18.116  22.613   2.622
14948W        W81357  23.643  20.515   0.559
14949W        W81358   8.614  15.047  11.491
14950W        W81359  17.808  35.380   4.234
14951W        W81360  25.645   5.168   4.366
14952W        W81361   7.885  36.073  11.733
14953W        W81362  15.181  39.417   1.930
14954W        W81363  37.385   4.282   3.651
14955W        W81364  11.198  10.359  11.203
14956W        W81365  22.084  18.476   1.547
14957W        W81366  30.160  35.585   0.485
14958W        W81367  23.638  35.868   4.137
14959W        W81368  24.124  20.603   9.925
14960W        W81369  40.766  39.662  13.794
14961W        W81370  38.516  15.029   3.219
14962W        W81371  15.080  36.436  11.778
14963W        W81372  43.982  44.253  14.917
14964W        W81373   5.442  33.315  10.664
14965W        W81374  16.396  28.745  13.534
14966W        W81375  14.554  28.021   4.937
14967W        W81376  10.238  41.361   1.473
14968W        W81377  32.293  15.758  10.100
14969W        W81378  24.064  42.227   2.166
14970W        W81379  35.291  23.293  14.939
14971W        W81380   0.831  38.478  13.741
14972W        W81381   4.549   2.963   0.069
14973W        W81382   8.827  10.587  14.159
14974W        W81383  17.628   3.621  14.120
14975W        W81384  36.937  17.272   1.103
14976W        W81385  22.786  43.970   2.337
14977W        W81386  26.650  14.864   3.981
14978W        W81387  25.655   8.605   2.877
14979W        W81388   9.282  25.465   0.356
14980W        W81389  12.103  41.765  10.674
14981W        W81390  37.941  26.245   1.923
14982W        W81391   9.830   3.719  12.217
14983W        W81392  27.080  30.981   0.870
14984W        W81393  16.241  12.155  13.855
14985W        W81394   2.194  32.864  12.893
14986W        W81395   1.188   2.346  12.067
14987W        W81396  34.900  26.276  14.234
14988W        W81397   2.467  10.188   4.887
14989W        W81398  40.410  38.402   1.379
14990W        W81399   5.962   7.079   1.836
14991W        W81400  11.825  36.229  13.492
14992W        W81401  32.292  35.846   1.618
14993W        W81402  29.164   9.696   1.775
14994W        W81403   1.429  37.030  11.906
14995W        W81404  19.117  15.159  10.652
14996W        W81405  32.427   7.202   3.717
14997W        W81406  13.233  34.968   5.209
14998W        W81407   6.798  17.620   2.792
14999W        W81408  21.306  29.180  13.005
15000W        W81409  31.636  21.607  10.479
15001W        W81410  29.346  41.776   1.932
15002W        W81411  13.101  32.821  11.989
15003W        W81412   5.170  21.718  11.667
15004W        W81413   4.738  43.380   0.328
15005W        W81414   6.018  31.586  11.994
15006W        W81415  12.614  22.095  13.576
15007W        W81416  23.764   5.893   2.491
15008W        W81417  38.984  19.099  10.977
15009W        W81418  36.600  41.969   4.121
15010W        W81419  16.145   2.224   2.191
15011W        W81420  13.164  26.244   3.269
15012W        W81421  23.835  20.105  13.061
15013W        W81422  13.719   3.439  11.022
15014W        W81423  22.959   4.178   1.898
15015W        W81424  29.052   8.314  13.801
15016W        W81425  26.470  16.673   0.249
15017W        W81426  22.398   9.843   1.327
15018W        W81427  22.465  19.177   3.278
15019W        W81428  13.060   7.727  10.677
15020W        W81429  43.933  17.249  10.807
15021W        W81430  35.007  30.286   1.198
15022W        W81431  41.030  34.691  11.983
15023W        W81432  29.891   1.876   0.907
15024W        W81433   5.475  25.636  11.486
15025W        W81434   3.167   1.274   3.900
15026W        W81435  19.203  26.565   3.591
15027W        W81436  40.398  17.139   0.956
15028W        W81437  13.091  31.505   4.863
15029W        W81438  10.778   8.420   4.083
15030W        W81439  19.686  33.630   2.897
15031W        W81440   6.116  35.968  10.646
15032W        W81441  38.461  36.966  14.819
15033W        W81442  14.710  17.809   2.391
15034W        W81443  36.667  43.975  11.227
15035W        W81444  12.833   7.766  13.892
15036W        W81445   0.862   6.531   3.241
15037W        W81446  33.563   1.723   0.204
15038W        W81447  11.241  29.237  11.333
15039W        W81448  25.827   1.940   0.763
15040W        W81449  26.335   1.832   0.747
15041W        W81450  32.645  19.477  13.950
15042W        W81451   0.903  24.913  14.016
15043W        W81452  28.027  29.602  12.092
15044W        W81453  30.629  39.122  14.424
15045W        W81454  40.646  33.158   3.554
15046W        W81455  17.702  27.553  14.868
15047W        W81456  23.266  26.142   4.599
15048W        W81457   3.498  23.233   0.517
15049W        W81458  31.386   7.809  14.018
15050W        W81459  10.848  10.907   2.279
15051W        W81460  28.522   2.881   2.362
15052W        W81461  29.359  25.396  11.620
15053W        W81462  26.897  44.312  14.857
15054W        W81463   3.955  38.860  11.629
15055W        W81464  12.441  38.940  13.127
15056W        W81465  16.523  40.452  11.666
15057W        W81466   3.153  16.685  13.700
15058W        W81467  23.676  44.513   0.927
15059W        W81468  10.268   8.565   2.320
15060W        W81469  17.000  13.113  11.217
15061W        W81470  36.738   5.555  12.614
15062W        W81471  31.322  17.612  13.769
15063W        W81472  21.234  25.728   1.399
15064W        W81473  13.843  21.433  12.908
15065W        W81474  31.140  31.372   0.799
15066W        W81475  28.442  25.315   5.021
15067W        W81476  15.833  14.893  12.520
15068W        W81477  42.437  14.883  14.600
15069W        W81478  24.179  29.448   1.793
15070W        W81479  22.180  36.175  10.827
15071W        W81480  18.407  12.674   0.687
15072W        W81481  25.242  19.153  13.576
15073W        W81482  37.096  40.363  12.196
15074W        W81483  32.201  27.325   2.807
15075W        W81484  42.906  11.454   9.799
15076W        W81485  33.906  28.928   1.741
15077W        W81486   6.502   7.716   2.343
15078W        W81487  22.098   4.631   0.001
15079W        W81488  36.300  16.755   1.246
15080W        W81489  20.582  24.443  12.090
15081W        W81490  26.557  30.143  13.192
15082W        W81491   1.435  21.085  11.516
15083W        W81492  17.131  19.688  11.544
15084W        W81493  15.821  20.727  14.360
15085W        W81494  15.317  21.069   2.086
15086W        W81495  41.258  19.101   4.844
15087W        W81496  12.760  37.223   5.142
15088W        W81497  27.963  38.478  12.040
15089W        W81498  20.307  20.201  13.758
15090W        W81499   0.483  30.213  12.366
15091W        W81500  13.294  41.608  13.318
15092W        W81501  39.117  24.976  14.804
15093W        W81502   8.803  44.996  13.506
15094W        W81503  13.412  25.259  11.551
15095W        W81504  28.312  31.003   2.128
15096W        W81505  27.932  16.708   4.101
15097W        W81506   8.499  16.143   2.943
15098W        W81507  17.143  14.161  10.218
15099W        W81508   2.111  24.110  13.925
15100W        W81509  43.748  40.452   4.110
15101W        W81510  35.487  20.809  12.634
15102W        W81511  44.386  36.776   3.688
15103W        W81512  14.779  21.285   1.266
15104W        W81513  39.412  10.366   1.745
15105W        W81514  39.306  38.058   1.368
15106W        W81515  22.339  30.178  12.374
15107W        W81516  22.640  30.664   5.011
15108W        W81517  31.093  33.437  10.790
15109W        W81518   3.671   3.606   0.347
15110W        W81519   8.911  39.898  11.511
15111W        W81520  20.087   9.335   1.173
15112W        W81521   3.442   1.769   2.867
15113W        W81522   3.349  24.520   2.996
15114W        W81523  37.904  36.107  11.296
15115W        W81524  15.713  26.614  10.624
15116W        W81525  43.917   2.383   3.329
15117W        W81526  10.807  39.389  11.599
15118W        W81527  15.554  19.605  11.716
15119W        W81528  35.241  25.944  12.923
15120W        W81529  11.218   8.240   1.425
15121W        W81530  13.392  41.511  12.055
15122W        W81531  23.305  44.416   3.741
15123W        W81532  42.849   9.837   3.734
15124W        W81533  33.622  35.915  12.530
15125W        W81534  40.351   6.300   1.483
15126W        W81535  40.834  35.085  12.412
15127W        W81536   5.141  30.610   2.219
15128W        W81537   9.290  29.234   4.111
15129W        W81538  32.113   4.329   1.411
15130W        W81539  39.959  44.448  13.997
15131W        W81540   1.844  36.342  10.695
15132W        W81541  15.241  32.265   1.901
15133W        W81542  44.516  27.042  10.921
15134W        W81543  31.596  35.211   0.264
15135W        W81544  26.665   5.509  10.548
15136W        W81545  42.544  28.829  10.996
15137W        W81546   5.440  22.217   4.038
15138W        W81547  14.226  13.702  11.492
15139W        W81548   7.796   8.431  12.093
15140W        W81549  11.868  33.308   2.843
15141W        W81550  27.863  32.814  13.388
15142W        W81551  17.696  19.518  11.539
15143W        W81552  16.889  10.762  12.753
15144W        W81553  35.105  25.207  10.586
15145W        W81554   1.958  44.888  13.542
15146W        W81555   7.198  26.055   1.415
15147W        W81556  25.173  26.950  11.961
15148W        W81557   2.828   9.963   3.773
15149W        W81558  15.765  33.650  11.053
15150W        W81559  29.979  16.641  12.944
15151W        W81560  14.475  29.697   4.744
15152W        W81561  33.386  18.677   3.739
15153W        W81562   8.457  35.341   0.691
15154W        W81563   4.872  26.302   1.284
15155W        W81564  43.737   6.355  12.349
15156W        W81565  24.782  36.336   2.700
15157W        W81566  20.387  39.883  11.477
15158W        W81567  39.090   1.955   1.830
15159W        W81568  17.629  36.476   1.871
15160W        W81569  30.433  18.260  14.490
15161W        W81570   3.340  33.810  12.099
15162W        W81571  28.684   1.685  11.636
15163W        W81572  22.125  33.952   1.373
15164W        W81573  20.845  20.566   0.338
15165W        W81574   7.357  12.274  14.292
15166W        W81575  44.228  30.627  10.414
15167W        W81576  28.199  24.824  11.270
15168W        W81577   6.300  18.356   1.521
15169W        W81578  33.299  12.315   2.622
15170W        W81579  35.437   2.516   1.800
15171W        W81580  25.431  15.045  14.456
15172W        W81581  15.329  33.549  14.455
15173W        W81582  43.430  29.901   0.781
15174W        W81583   4.930  29.454   1.502
15175W        W81584   9.121  23.181  11.151
15176W        W81585  22.884  37.799  14.933
15177W        W81586   6.408  17.535  14.904
15178W        W81587   2.930  39.639   0.682
15179W        W81588  17.096  40.468   4.538
15180W        W81589  28.018  43.307  10.665
15181W        W81590  16.607  38.450  10.822
15182W        W81591  10.302   1.531   2.365
15183W        W81592  20.257   7.704  11.637
15184W        W81593  23.286  15.580  12.236
15185W        W81594  44.651  44.913   1.763
15186W        W81595   7.407   8.110   3.908
15187W        W81596  26.895  10.696  13.406
15188W        W81597   3.973  36.868   0.249
15189W        W81598  41.622  29.780   4.471
15190W        W81599  34.001   6.850  13.968
15191W        W81600  26.536  21.389  10.289
15192W        W81601  33.183  42.981  13.417
15193W        W81602  17.744  43.537   4.249
15194W        W81603  23.377  13.425  11.042
15195W        W81604  29.792  20.700  12.277
15196W        W81605  17.769  36.756  10.314
15197W        W81606  34.541  18.111  12.637
15198W        W81607  18.064  16.687  11.538
15199W        W81608  41.030  15.720  14.429
15200W        W81609  30.788  28.223  13.746
15201W        W81610  26.730  29.029  10.956
15202W        W81611   1.794  14.824   1.775
15203W        W81612  22.113   2.912  14.448
15204W        W81613   9.536  41.304   3.066
15205W        W81614  25.429  24.638  13.565
15206W        W81615   4.158  26.480   3.215
15207W        W81616  38.605  41.397   2.795
15208W        W81617  30.203  31.399   3.169
15209W        W81618   0.864   7.803   4.118
15210W        W81619   4.904   3.830   0.784
15211W        W81620  43.569  25.739  13.447
15212W        W81621  40.155  16.999   1.903
15213W        W81622  14.134  23.034  12.091
15214W        W81623  34.361  25.300  14.045
15215W        W81624  22.217   1.506  11.682
15216W        W81625  44.422  24.663   3.236
15217W        W81626  23.769  27.538  11.075
15218W        W81627   0.076   8.370   4.525
15219W        W81628  19.140  30.045  10.619
15220W        W81629  31.057   4.787   4.071
15221W        W81630  11.249  10.981  13.286
15222W        W81631  33.876  38.918   4.185
15223W        W81632  10.714  13.328  14.861
15224W        W81633  42.325  26.044  10.676
15225W        W81634   2.903   0.027  12.006
15226W        W81635  34.045  15.047  11.419
15227W        W81636   5.338  13.724  10.717
15228W        W81637  38.640  28.616  10.623
15229W        W81638  26.893  13.915   0.372
15230W        W81639  17.185   2.832   0.341
15231W        W81640  13.690  12.313   0.429
15232W        W81641   9.398  35.852  10.932
15233W        W81642  31.668  21.066   0.520
15234W        W81643  43.266   6.187  12.519
15235W        W81644  19.861   2.338   4.028
15236W        W81645  27.655  11.648   2.928
15237W        W81646   1.965  19.096   1.940
15238W        W81647   2.997  37.387   2.303
15239W        W81648  29.556  30.055   1.849
15240W        W81649  42.759   2.685   3.671
15241W        W81650  15.293  24.135  10.102
15242W        W81651   3.806  22.815   4.689
15243W        W81652  26.505  40.930   2.528
15244W        W81653  12.288  35.890   2.257
15245W        W81654  24.047  32.631  11.553
15246W        W81655  24.574  24.300  11.000
15247W        W81656  17.289   7.872   2.340
15248W        W81657  10.768  35.996  10.729
15249W        W81658  10.327   8.994  14.457
15250W        W81659  29.878  12.466  11.486
15251W        W81660  22.844  19.635  12.580
15252W        W81661  43.634  20.459   3.824
15253W        W81662  10.114   4.676   1.097
15254W        W81663   3.316  17.866   4.028
15255W        W81664   2.245   0.411  12.066
15256W        W81665  19.648  41.036  13.398
15257W        W81666  24.299  35.438  13.440
15258W        W81667  30.669   6.668   4.032
15259W        W81668  33.996   8.129  11.882
15260W        W81669  17.826  23.225  10.646
15261W        W81670  36.820  23.603   0.673
15262W        W81671  15.600  33.861   3.452
15263W        W81672  41.892  43.456   1.951
15264W        W81673  17.019  30.520   4.030
15265W        W81674  30.160  33.306   1.477
15266W        W81675   6.816  15.090  12.315
15267W        W81676  31.831  18.572   2.877
15268W        W81677  31.371  41.401   1.514
15269W        W81678  40.412  35.076   0.774
15270W        W81679   5.709  14.084  11.524
15271W        W81680  30.365  39.848   4.422
15272W        W81681  39.588  33.986   3.852
15273W        W81682  31.528  11.048  13.457
15274W        W81683  28.093  24.471   4.664
15275W        W81684   1.899  14.988  11.491
15276W        W81685  36.811  27.213  14.293
15277W        W81686   1.266  27.737   4.905
15278W        W81687  34.128  40.340  10.681
15279W        W81688  20.468  24.235  10.664
15280W        W81689  33.935  15.794  13.494
15281W        W81690  29.885  22.476   1.858
15282W        W81691  30.498  29.558   2.433
15283W        W81692  18.040  28.442   2.828
15284W        W81693  40.951  38.967   3.173
15285W        W81694  34.054  42.291   2.844
15286W        W81695   1.293  22.555  14.479
15287W        W81696   9.334  10.702  14.994
15288W        W81697  34.405  28.766  12.461
15289W        W81698  44.709   3.756  11.988
15290W        W81699  14.863  30.605   3.724
15291W        W81700  22.044  14.184  13.431
15292W        W81701  29.049   1.177  13.435
15293W        W81702  10.627  11.782  11.690
15294W        W81703  44.530  13.293   2.190
15295W        W81704  12.606  35.003   2.336
15296W        W81705  28.630  15.738  13.302
15297W        W81706  18.623  32.053  14.453
15298W        W81707  11.870  11.995  12.158
15299W        W81708  20.190   9.437   3.991
15300W        W81709  12.510  17.820   1.599
15301W        W81710  35.126  21.937   2.235
15302W        W81711  32.625  18.269  10.918
15303W        W81712   6.338  21.712  12.329
15304W        W81713  41.333  37.638  13.962
15305W        W81714  10.397  35.433  14.340
15306W        W81715  20.203   1.494   0.233
15307W        W81716  19.354  44.405   2.318
15308W        W81717  17.656   6.839  12.564
15309W        W81718  24.549  21.537  13.965
15310W        W81719  25.618  16.709   1.987
15311W        W81720   5.745  36.034  14.939
15312W        W81721  23.387  30.439  11.201
15313W        W81722  14.605  12.955   3.706
15314W        W81723   2.270  43.749   0.220
15315W        W81724   9.719  31.664   5.016
15316W        W81725  11.850   3.292   5.040
15317W        W81726   4.362  17.317   3.233
15318W        W81727  37.920  12.550  11.568
15319W        W81728  23.019  44.543  13.335
15320W        W81729  15.197  31.700   1.893
15321W        W81730  30.561  35.532  12.469
15322W        W81731  10.841   9.177   4.368
15323W        W81732  20.117  18.626   4.736
15324W        W81733   6.692  18.599  12.574
15325W        W81734  17.849   8.586   3.661
15326W        W81735  25.056  42.986   0.755
15327W        W81736  19.154  41.214  13.404
15328W        W81737  28.226  23.140   4.145
15329W        W81738  38.545   3.372   3.619
15330W        W81739  15.692  33.062   3.279
15331W        W81740  33.388  37.551   2.366
15332W        W81741  27.460  37.163   2.288
15333W        W81742  11.326  37.018   2.170
15334W        W81743  24.518   3.379   3.137
15335W        W81744  35.155   7.400   2.785
15336W        W81745  36.937  13.831  14.134
15337W        W81746  26.648  11.104   4.869
15338W        W81747   1.433  16.637  13.826
15339W        W81748   9.632  36.923   2.129
15340W        W81749  22.493   1.891  14.537
15341W        W81750   7.783  22.913  12.054
15342W        W81751  11.383   8.643   3.808
15343W        W81752  44.356  34.567  10.612
15344W        W81753  14.588   8.799  13.800
15345W        W81754  10.772  12.164  10.507
15346W        W81755   5.381  37.337   3.549
15347W        W81756  40.997  35.494  11.756
15348W        W81757  35.393   0.414   0.329
15349W        W81758  40.364  29.359   0.800
15350W        W81759  19.509  33.955  14.347
15351W        W81760  12.737  36.846  11.546
15352W        W81761  16.655  28.699  14.933
15353W        W81762  31.106  39.636  11.698
15354W        W81763  35.468  29.393   0.535
15355W        W81764  36.945  12.847   4.265
15356W        W81765  19.732  32.220  13.430
15357W        W81766  18.718  12.387  12.100
15358W        W81767  41.863  22.039  12.346
15359W        W81768  29.171  22.063   3.375
15360W        W81769   4.510  35.333   3.343
15361W        W81770  16.597  30.326   2.995
15362W        W81771  21.276  44.714  10.529
15363W        W81772  29.520  41.493   4.131
15364W        W81773   6.333  39.868   3.922
15365W        W81774   7.104  17.804  13.562
15366W        W81775  44.693  24.603   1.442
15367W        W81776  25.941  14.847   0.484
15368W        W81777  26.105  19.256  14.793
15369W        W81778   2.728   4.763   3.287
15370W        W81779  44.320  21.373   3.425
15371W        W81780  23.403  38.969  14.980
15372W        W81781  23.127  27.909   0.358
15373W        W81782   6.985   1.863   2.179
15374W        W81783  29.220  24.202  11.115
15375W        W81784  30.433  11.156   1.905
15376W        W81785  25.023   0.257  12.966
15377W        W81786  36.982  22.366  14.107
15378W        W81787  27.679  40.056  11.124
15379W        W81788   0.410   4.965   0.921
15380W        W81789  18.681   7.079   4.816
15381W        W81790  32.833   0.793  12.095
15382W        W81791  36.196  26.022  13.805
15383W        W81792  20.753  31.869  10.610
15384W        W81793  20.458  18.556  11.912
15385W        W81794  24.571   9.693   5.480
15386W        W81795  41.418  10.454   4.995
15387W        W81796   8.988   4.477   1.041
15388W        W81797  39.028  36.174   4.011
15389W        W81798  24.981  43.329   2.329
15390W        W81799  28.892  20.452  13.958
15391W        W81800   3.395  15.345   2.885
15392W        W81801  28.446   6.111   1.942
15393W        W81802  17.971  20.015  12.494
15394W        W81803   7.173   8.891   2.367
15395W        W81804  44.240  37.515   4.067
15396W        W81805  29.206  44.888  11.643
15397W        W81806  29.547  37.299  13.930
15398W        W81807   7.368  43.459  11.940
15399W        W81808  23.680  12.399  13.215
15400W        W81809   7.885  14.182  12.114
15401W        W81810  25.178  21.512   4.550
15402W        W81811  12.182  16.500  12.434
15403W        W81812  44.378  16.554  13.548
15404W        W81813   5.177   6.821   3.242
15405W        W81814  36.378  27.860  11.165
15406W        W81815  40.560  39.853  10.748
15407W        W81816  18.002   9.127  12.953
15408W        W81817  37.141  41.878   1.604
15409W        W81818  39.963   2.980   1.472
15410W        W81819  26.851  10.848  11.093
15411W        W81820  25.254  31.855   1.764
15412W        W81821   1.601  32.154  10.232
15413W        W81822  44.783  44.574   3.366
15414W        W81823  10.394   0.428  12.970
15415W        W81824  43.982  37.275   0.012
15416W        W81825  41.637   7.181  11.271
15417W        W81826  35.855  37.475   1.629
15418W        W81827  23.523  25.620   1.012
15419W        W81828  43.405  26.248  10.999
15420W        W81829   6.635   2.691   3.714
15421W        W81830   1.445  28.695  12.489
15422W        W81831  25.399  37.913   2.227
15423W        W81832  18.170  40.967   2.294
15424W        W81833   3.498  10.846   2.241
15425W        W81834   3.830  37.072   1.786
15426W        W81835  29.495  25.390   4.621
15427W        W81836  38.548  11.358  11.066
15428W        W81837   8.709   9.742  14.795
15429W        W81838  39.136  37.153   2.652
15430W        W81839  42.317  20.954   0.191
15431W        W81840  27.620  31.548  14.774
15432W        W81841  37.480  13.189  12.182
15433W        W81842  44.401   0.812  13.431
15434W        W81843  33.063   7.709   3.320
15435W        W81844  17.770  30.881   1.896
15436W        W81845   9.345  15.653  11.088
15437W        W81846  35.082  27.680   2.338
15438W        W81847  16.002   5.059   5.059
15439W        W81848  43.438  19.377   0.796
15440W        W81849  33.635  15.571   0.361
15441W        W81850  32.068   2.340   2.553
15442W        W81851  21.475  42.822   4.212
15443W        W81852  30.942  31.008  12.458
15444W        W81853   3.398  11.654  13.743
15445W        W81854  20.270  41.036  11.623
15446W        W81855  44.283   5.169  12.489
15447W        W81856  18.162   1.399  11.957
15448W        W81857   0.564  42.898   4.705
15449W        W81858  12.912  10.130   3.681
15450W        W81859  20.190  40.042   1.362
15451W        W81860  33.677  33.887  11.927
15452W        W81861  40.758  20.100   3.533
15453W        W81862  12.904   7.572  13.408
15454W        W81863   5.159  43.190   2.280
15455W        W81864  39.495  15.260   4.649
15456W        W81865   6.208  27.296  14.448
15457W        W81866  13.853  17.730  14.280
15458W        W81867  21.984   4.182  13.382
15459W        W81868  35.902  22.251   0.773
15460W        W81869  28.627  16.261   1.842
15461W        W81870   6.336  16.122   3.299
15462W        W81871   1.539   4.937  11.559
15463W        W81872  38.508  19.719  13.437
15464W        W81873  11.916  37.643  14.377
15465W        W81874  20.817  14.852  14.936
15466W        W81875  38.518   0.344   0.473
15467W        W81876  37.190  26.445   0.970
15468W        W81877  42.814  12.092   1.417
15469W        W81878  43.366   9.405  12.034
15470W        W81879  20.957  43.809   2.934
15471W        W81880  19.140   8.651   3.318
15472W        W81881   0.690  24.993  11.558
15473W        W81882  18.100  22.558   3.673
15474W        W81883  36.915   8.500   1.278
15475W        W81884  12.525   1.406   1.568
15476W        W81885   0.301  10.889  11.648
15477W        W81886  38.948   9.181  14.744
15478W        W81887   3.562  43.613  13.974
15479W        W81888  44.806  14.877  11.119
15480W        W81889   4.973  30.433   1.745
15481W        W81890  22.317  41.384  14.468
15482W        W81891  21.216  31.223   4.259
15483W        W81892  10.306  22.004  14.411
15484W        W81893  38.519   8.503  14.103
15485W        W81894  31.021  28.197  11.544
15486W        W81895   1.236  20.135  12.047
15487W        W81896   3.833   3.792   4.659
15488W        W81897  30.453  10.645   3.425
15489W        W81898  38.585  41.985  14.927
15490W        W81899  19.377  24.209   3.107
15491W        W81900  44.831  16.200  13.094
15492W        W81901  19.194  44.692  11.500
15493W        W81902  36.027  39.099   4.373
15494W        W81903  39.822  44.526  14.852
15495W        W81904  33.166  24.962   3.229
15496W        W81905   2.443  26.492  14.879
15497W        W81906  31.446   2.523  12.959
15498W        W81907  27.390  14.573  14.064
15499W        W81908  43.842   4.570   4.138
15500W        W81909   0.764  26.692   2.872
15501W        W81910  37.567  14.254  14.879
15502W        W81911  26.019  25.636  10.308
15503W        W81912  21.358  29.065   0.993
15504W        W81913  16.655  14.809   2.770
15505W        W81914  35.422  22.240  12.565
15506W        W81915  13.203  34.248  12.347
15507W        W81916   4.765   2.257   1.786
15508W        W81917  42.243  36.888   3.756
15509W        W81918  17.316  41.289  14.467
15510W        W81919  22.208  16.297  14.001
15511W        W81920  12.819  40.333   0.984
15512W        W81921  32.315  33.826   2.474
15513W        W81922  39.838   0.251  10.593
15514W        W81923  24.944   2.440   3.297
15515W        W81924  28.058  37.105   3.108
15516W        W81925  32.727   9.003  11.998
15517W        W81926  21.079  40.647   5.080
15518W        W81927  38.717   3.900  14.314
15519W        W81928  44.610  14.577   0.329
15520W        W81929   1.652   7.852  11.047
15521W        W81930  35.455   7.896   0.786
15522W        W81931  17.768  20.177  14.010
15523W        W81932   5.671  17.108   1.291
15524W        W81933  44.305  23.465  14.938
15525W        W81934  23.044   2.746   3.087
15526W        W81935  33.818  19.566  10.739
15527W        W81936  33.855  34.429  14.462
15528W        W81937  34.039  22.788   4.240
15529W        W81938  35.565  28.699   0.758
15530W        W81939   0.016   5.236   2.278
15531W        W81940  37.450  20.208  11.793
15532W        W81941  34.933   3.921   2.804
15533W        W81942  10.725  24.579   3.446
15534W        W81943   9.287  41.945  11.215
15535W        W81944  25.489   2.521   2.411
15536W        W81945  29.405   1.763   3.671
15537W        W81946  20.994   2.278  11.851
15538W        W81947  20.270  40.439  12.431
15539W        W81948   7.775   4.690   4.970
15540W        W81949  13.101  43.674   2.385
15541W        W81950  35.604  35.021  10.676
15542W        W81951  22.119   6.753  13.624
15543W        W81952   9.410   0.067  11.131
15544W        W81953  37.771  29.674   0.098
15545W        W81954  18.283  29.493   0.210
15546W        W81955  13.160  19.263   3.259
15547W        W81956  19.049   4.783   3.114
15548W        W81957  18.107  23.207  11.309
15549W        W81958  38.360  38.069   4.616
15550W        W81959  24.293  23.962   1.871
15551W        W81960   9.038  11.719   2.973
15552W        W81961   4.422   6.478  13.925
15553W        W81962  34.336  13.863   2.388
15554W        W81963  20.538   2.760  12.509
15555W        W81964  35.320  12.890   2.791
15556W        W81965  17.865   2.424  12.430
15557W        W81966  23.400  24.206  13.587
15558W        W81967  27.728   7.132   4.242
15559W        W81968  15.179  11.430   3.765
15560W        W81969  20.073  29.148  14.842
15561W        W81970   8.177  43.341   1.934
15562W        W81971  41.479  24.644   4.655
15563W        W81972  38.268  24.139  12.046
15564W        W81973  21.003   9.175  12.843
15565W        W81974   1.185  26.703  13.819
15566W        W81975  24.236  19.892  14.191
15567W        W81976  20.798  37.306   3.830
15568W        W81977  14.260   4.230  11.416
15569W        W81978  22.752  28.586   4.697
15570W        W81979  22.191  33.410  12.855
15571W        W81980   0.837  21.512  12.041
15572W        W81981  39.619  30.617  12.684
15573W        W81982  40.149   3.333  13.517
15574W        W81983   5.701  13.879   2.307
15575W        W81984  35.413  31.321  13.810
15576W        W81985  37.429  31.555   1.263
15577W        W81986   8.429  22.754   0.500
15578W        W81987  12.352  20.174  10.680
15579W        W81988  38.938  27.203   2.279
15580W        W81989  29.520  33.306   0.327
15581W        W81990   5.638  43.763   0.306
15582W        W81991  10.790  13.054   4.367
15583W        W81992   1.398  12.748  14.019
15584W        W81993  26.799   8.223   3.081
15585W        W81994  26.455   8.190  12.887
15586W        W81995  25.009  21.030  14.324
15587W        W81996  15.088  26.434   1.276
15588W        W81997   3.717  28.948  11.019
15589W        W81998  39.452  34.782  12.371
15590W        W81999  44.367   5.199  13.970
15591W        W82000   7.927  40.074  12.169
15592W        W82001   1.504  31.360   3.719
15593W        W82002  26.948  30.435   2.809
15594W        W82003  27.441  19.699   1.448
15595W        W82004   9.567  31.803  11.698
15596W        W82005  27.040  39.501   0.218
15597W        W82006  24.989  23.497  13.218
15598W        W82007   5.833  18.762   4.146
15599W        W82008  38.268  26.592   4.688
15600W        W82009  13.569  13.724   2.147
15601W        W82010  43.724   5.896  12.931
15602W        W82011   1.166   5.810  12.359
15603W        W82012  40.546  36.282   0.470
15604W        W82013  43.210   7.637  11.131
15605W        W82014  20.681  44.790   2.780
15606W        W82015  11.473  36.976   4.141
15607W        W82016   3.588  44.827   4.600
15608W        W82017  42.456  38.103   0.809
15609W        W82018  36.417  15.469  12.865
15610W        W82019  42.005   3.193   1.381
15611W        W82020  41.284  10.633  13.907
15612W        W82021  29.022  36.043  10.544
15613W        W82022  21.056  25.133  14.928
15614W        W82023  16.517  19.088  11.173
15615W        W82024  19.649  12.480  10.761
15616W        W82025  10.322   4.202   0.641
15617W        W82026  36.492  16.240   1.942
15618W        W82027  29.388  20.776   1.320
15619W        W82028  14.397  20.210   0.725
15620W        W82029  34.014  19.552  14.247
15621W        W82030  19.578  20.614   2.059
15622W        W82031  29.504  10.054  14.701
15623W        W82032  44.428  25.135  12.815
15624W        W82033  25.160  19.503  14.598
15625W        W82034   0.199  26.028  14.363
15626W        W82035   6.372   5.367   4.444
15627W        W82036  15.115  15.728  11.758
15628W        W82037   6.331   4.682   3.751
15629W        W82038  30.659  16.633  11.194
15630W        W82039  44.490  23.740   4.108
15631W        W82040  44.538  39.981   0.833
15632W        W82041   6.416  40.510   0.763
15633W        W82042  25.909  42.641  10.768
15634W        W82043  22.187   6.140  11.220
15635W        W82044  31.289  23.543  10.415
15636W        W82045  30.456  31.105  12.819
15637W        W82046  30.489  25.661   4.462
15638W        W82047  14.427  14.376   4.827
15639W        W82048   5.833  41.015   4.125
15640W        W82049  27.103  41.010  13.836
15641W        W82050  36.346  24.656  11.523
15642W        W82051  16.167   0.458  11.179
15643W        W82052  23.003   6.725  14.303
15644W        W82053  35.879  39.287   3.697
15645W        W82054  17.501  17.465   1.281
15646W        W82055  28.721  20.412  14.987
15647W        W82056  31.420  32.196   0.459
15648W        W82057   9.735  21.913  12.151
15649W        W82058  11.529  21.770  13.992
15650W        W82059  17.461  20.004   2.573
15651W        W82060  25.927  38.792   2.180
15652W        W82061  16.963  20.019   2.393
15653W        W82062  23.638   2.228   2.863
15654W        W82063  19.371  33.257  14.695
15655W        W82064  21.670   4.736  11.350
15656W        W82065   1.174  41.441   1.428
15657W        W82066  22.521  15.112  11.371
15658W        W82067   1.703   7.812   0.006
15659W        W82068  27.862  12.223   1.799
15660W        W82069  15.931   9.870  13.285
15661W        W82070  18.373  32.133  14.002
15662W        W82071  34.999  16.826  14.913
15663W        W82072  25.116  18.080   1.972
15664W        W82073   1.089  13.103  14.250
15665W        W82074   4.902   5.253  11.366
15666W        W82075  29.432  19.726  12.897
15667W        W82076  10.350  24.827   1.185
15668W        W82077  15.549  14.395  11.688
15669W        W82078  37.992   2.867  14.929
15670W        W82079  35.206  13.647  12.932
15671W        W82080  42.812  13.231  12.643
15672W        W82081  27.480   1.387  12.054
15673W        W82082  41.995  43.069   3.142
15674W        W82083  39.129  31.558  11.548
15675W        W82084   5.666  33.521  13.057
15676W        W82085  37.894  23.490  12.525
15677W        W82086  37.917   1.530  12.519
15678W        W82087  15.385   8.829   0.882
15679W        W82088   2.160   9.707   3.153
15680W        W82089  17.373  25.052   4.129
15681W        W82090  26.075   3.237  12.349
15682W        W82091  32.902  43.967  11.430
15683W        W82092  30.069  24.971  12.624
15684W        W82093  17.630  10.579  11.215
15685W        W82094  21.765  27.918  11.134
15686W        W82095  16.338   7.499   1.902
15687W        W82096  11.184  32.172  11.583
15688W        W82097  44.261  18.740   0.850
15689W        W82098  22.081   3.636   4.037
15690W        W82099   5.391  38.384   0.911
15691W        W82100  44.038  44.917   0.599
15692W        W82101  21.522  10.404  10.619
15693W        W82102  34.931  34.313  12.385
15694W        W82103  35.655  36.441   2.408
15695W        W82104  41.736  31.662   0.305
15696W        W82105   2.549  25.532  12.444
15697W        W82106  14.552  35.823  10.761
15698W        W82107  20.787  21.554   1.250
15699W        W82108  30.206   8.186   0.705
15700W        W82109  10.485  39.606   1.183
15701W        W82110  39.108  10.446   3.905
15702W        W82111  37.763  22.078  12.466
15703W        W82112   6.948  25.898   4.073
15704W        W82113  39.374  44.509   3.212
15705W        W82114  24.197  26.707   2.095
15706W        W82115  14.440  10.141   5.020
15707W        W82116  35.676  21.030  14.749
15708W        W82117  14.521   4.980  11.620
15709W        W82118   4.577  17.366  10.663
15710W        W82119  16.271  39.280   0.672
15711W        W82120  13.882  18.226  10.738
15712W        W82121   9.382  35.873   0.777
15713W        W82122  29.441   5.726   1.966
15714W        W82123   1.037  44.829   3.143
15715W        W82124   1.888  41.112  13.796
15716W        W82125   6.709  44.991  12.023
15717W        W82126   5.060  18.840   4.498
15718W        W82127   1.165  37.525  11.680
15719W        W82128  14.354  28.567   4.297
15720W        W82129   5.692  33.725  11.643
15721W        W82130   4.401  32.552  13.445
15722W        W82131  16.191  10.124   3.227
15723W        W82132  14.745  42.881   4.300
15724W        W82133  15.803  24.211  13.774
15725W        W82134  22.108  43.179   0.164
15726W        W82135  13.840  38.370  14.436
15727W        W82136  10.548  11.296  10.607
15728W        W82137  37.355  25.496   1.359
15729W        W82138   0.728   1.899  14.838
15730W        W82139  26.682  35.206  13.989
15731W        W82140  24.668   6.300  14.850
15732W        W82141  42.530  37.009  12.514
15733W        W82142   7.867   6.188  14.085
15734W        W82143  19.375  19.746   2.720
15735W        W82144  13.048  30.410   2.395
15736W        W82145   3.751  39.419  12.468
15737W        W82146  10.120  13.124   3.592
15738W        W82147   3.892  22.022   4.307
15739W        W82148  35.471   7.655  12.936
15740W        W82149  27.422  22.402   2.161
15741W        W82150  40.989  28.537   4.355
15742W        W82151  28.380  13.037   2.395
15743W        W82152  23.551  41.067   2.385
15744W        W82153  15.650  12.891  10.837
15745W        W82154  39.591  14.038   3.693
15746W        W82155  41.962   8.527   9.928
15747W        W82156   1.507  14.678  11.570
15748W        W82157  33.066  34.616   3.646
15749W        W82158  26.617  31.428   0.929
15750W        W82159  40.829  37.343  12.366
15751W        W82160  28.445  36.967   0.240
15752W        W82161   0.752   5.360   1.406
15753W        W82162  13.793  39.365  11.556
15754W        W82163   2.751  13.675   4.832
15755W        W82164  19.133  19.576   4.253
15756W        W82165  37.268  38.279   0.775
15757W        W82166  44.096  25.809  13.324
15758W        W82167  25.420   5.989  11.086
15759W        W82168  45.000  23.231  14.433
15760W        W82169   9.743  43.920   1.843
15761W        W82170   9.443  10.648   1.466
15762W        W82171  44.793  13.031  12.600
15763W        W82172   8.240  29.413   2.207
15764W        W82173  17.667   3.263  11.149
15765W        W82174  13.592  22.233  14.467
15766W        W82175   7.759  25.114  12.121
15767W        W82176  36.003  32.981   4.202
15768W        W82177  36.044  26.102   3.168
15769W        W82178   0.717  38.840   3.301
15770W        W82179  22.776  19.337  11.195
15771W        W82180  28.312  32.076  12.077
15772W        W82181   3.510   9.377  11.394
15773W        W82182  20.764  26.261   3.337
15774W        W82183  38.207  28.725  11.365
15775W        W82184  15.867  18.025   2.753
15776W        W82185  32.621  13.272  13.591
15777W        W82186  24.632  29.053   4.749
15778W        W82187  34.076   3.720   0.056
15779W        W82188  25.722  16.739   3.874
15780W        W82189   3.300  13.368  11.576
15781W        W82190  20.417  33.303  11.596
15782W        W82191  40.324   9.132   9.939
15783W        W82192  15.924   9.948  12.383
15784W        W82193  39.416  22.112  14.920
15785W        W82194   4.216  28.544   1.172
15786W        W82195  21.584  32.891  12.029
15787W        W82196  28.901  12.138   3.187
15788W        W82197  14.035  13.968  11.882
15789W        W82198   8.478  29.880  11.171
15790W        W82199  18.388   5.545  14.430
15791W        W82200   8.667  42.782   4.133
15792W        W82201   8.690  10.410  10.708
15793W        W82202  31.429  41.357  14.531
15794W        W82203  36.989   6.391   2.333
15795W        W82204   7.935  15.698   0.248
15796W        W82205  33.454  35.838  14.054
15797W        W82206  10.407  24.228   1.995
15798W        W82207  29.985  19.237   1.811
15799W        W82208  26.568  43.518  11.760
15800W        W82209  31.393  33.149   4.252
15801W        W82210   0.137  25.579   1.502
15802W        W82211   2.031   2.240  12.926
15803W        W82212  15.481  15.015  10.073
15804W        W82213   0.203  12.688  14.971
15805W        W82214  27.245  13.568   2.655
15806W        W82215   2.959   5.646  12.053
15807W        W82216  20.254  19.039  11.950
15808W        W82217  18.708  36.789   0.014
15809W        W82218  40.194  30.105   2.707
15810W        W82219  39.635  26.105   4.744
15811W        W82220   7.981   5.253  14.765
15812W        W82221   2.317  19.065  13.760
15813W        W82222  27.935   0.005   1.780
15814W        W82223  39.507  27.202  14.792
15815W        W82224  42.290  40.020  13.725
15816W        W82225   2.344  33.131  10.395
15817W        W82226   0.179  25.592  14.744
15818W        W82227  35.889  43.668   4.558
15819W        W82228   1.307  34.122  14.560
15820W        W82229   6.655  28.070   1.449
15821W        W82230  43.355   6.708  13.220
15822W        W82231  13.299  39.549  14.434
15823W        W82232  13.138  31.928  14.773
15824W        W82233  10.324  30.220  13.075
15825W        W82234  25.608  33.549   3.314
15826W        W82235  26.698  13.029   3.551
15827W        W82236   5.824  43.452  13.983
15828W        W82237  25.564  41.510  11.523
15829W        W82238  37.832  39.868   0.053
15830W        W82239  26.963  42.520   1.255
15831W        W82240  37.567  36.105   4.263
15832W        W82241  20.866  37.438  12.067
15833W        W82242  24.301   2.929   0.341
15834W        W82243  18.112  27.073   2.911
15835W        W82244  22.216  10.337  11.791
15836W        W82245  39.766  39.868   4.785
15837W        W82246  15.587  40.347  13.768
15838W        W82247   0.750  11.341   4.055
15839W        W82248  13.308  36.550  14.580
15840W        W82249   7.126   4.652  12.994
15841W        W82250  26.067   7.403  11.706
15842W        W82251  38.640  41.580   4.813
15843W        W82252  11.117  22.605   3.647
15844W        W82253   3.284  21.699  12.630
15845W        W82254  30.049  38.242  12.935
15846W        W82255  17.507  37.811  11.074
15847W        W82256  10.044  14.928   0.361
15848W        W82257   6.650  21.876   2.651
15849W        W82258  25.016  21.998  11.683
15850W        W82259   8.966  25.027   2.827
15851W        W82260  24.208  41.591  11.681
15852W        W82261  34.538  15.074  11.282
15853W        W82262   0.914  28.036   3.135
15854W        W82263  29.103  16.062   4.136
15855W        W82264  26.549   4.664   2.728
15856W        W82265  11.227  34.450  14.967
15857W        W82266   3.029  28.880   3.753
15858W        W82267   7.777  20.468  11.533
15859W        W82268  29.605  36.068  14.392
15860W        W82269  32.459  15.673   0.264
15861W        W82270  33.546  36.871  12.562
15862W        W82271   6.862   8.873   4.385
15863W        W82272  29.768  44.864  14.802
15864W        W82273   6.912  35.089  14.791
15865W        W82274  39.719  12.694   4.106
15866W        W82275  18.181  43.370   4.489
15867W        W82276  41.790  40.442   0.825
15868W        W82277  23.932  26.805   5.074
15869W        W82278  42.622   2.180   4.577
15870W        W82279  15.773   9.918  14.549
15871W        W82280  29.562   5.691  12.395
15872W        W82281  11.089  23.532   0.858
15873W        W82282  38.838  39.108  12.945
15874W        W82283  18.761   2.369  10.648
15875W        W82284   3.968  27.591   2.839
15876W        W82285  35.597  20.589   0.456
15877W        W82286  18.244  16.354   4.067
15878W        W82287  16.628   4.837   3.657
15879W        W82288  20.181  10.560   0.986
15880W        W82289  26.594  22.760  14.275
15881W        W82290  17.195  41.975  11.401
15882W        W82291  23.122  38.612   4.058
15883W        W82292  39.041  17.663  13.874
15884W        W82293  24.894  27.326   4.245
15885W        W82294  15.838   6.662   2.946
15886W        W82295  44.821  25.948   1.251
15887W        W82296  11.816  11.677  12.577
15888W        W82297  24.011  41.290  13.451
15889W        W82298  34.880  12.348  12.275
15890W        W82299   0.447  22.741  13.043
15891W        W82300   1.257  18.548   4.943
15892W        W82301  27.540  19.143   4.337
15893W        W82302  43.410  37.983  14.792
15894W        W82303  41.043   4.802  12.499
15895W        W82304  34.447   3.778  13.504
15896W        W82305   1.393   8.999   1.412
15897W        W82306  24.438  29.177  14.504
15898W        W82307  44.828  29.561   0.858
15899W        W82308  18.124   8.424   4.515
15900W        W82309  26.397   4.887   3.588
15901W        W82310  21.109   2.899   4.352
15902W        W82311  37.532   0.716   1.696
15903W        W82312  25.989   2.429   2.386
15904W        W82313   8.253  21.032   4.571
15905W        W82314  24.134   3.740   3.146
15906W        W82315  42.689  32.535   4.706
15907W        W82316  33.133  42.008  13.988
15908W        W82317  13.777  11.040  13.891
15909W        W82318   1.905  34.956  11.808
15910W        W82319  12.098  39.381  13.355
15911W        W82320  14.313  34.079   2.094
15912W        W82321  32.032  20.826  13.304
15913W        W82322   3.989   4.220   2.222
15914W        W82323  44.207   1.329   2.251
15915W        W82324  29.703  44.884  11.461
15916W        W82325  15.586  23.739   0.886
15917W        W82326  28.944   1.114  11.267
15918W        W82327  34.818   8.136   3.284
15919W        W82328   8.193  24.253  12.926
15920W        W82329  37.313  43.272  13.221
15921W        W82330  25.682  10.732   3.135
15922W        W82331  36.154  34.770  14.440
15923W        W82332  20.310  17.442  11.203
15924W        W82333   6.707   6.128   2.617
15925W        W82334  34.809  22.508  10.733
15926W        W82335   7.278  26.249  14.094
15927W        W82336   7.786  28.574  14.466
15928W        W82337  12.627  24.092   4.833
15929W        W82338  36.545  30.990   2.672
15930W        W82339   9.314  31.441  12.598
15931W        W82340  40.761  21.643   0.020
15932W        W82341   9.137  38.885   0.328
15933W        W82342  23.635  34.515  10.654
15934W        W82343  28.646  40.022   1.849
15935W        W82344  16.032  19.069   4.821
15936W        W82345  29.931   2.201   2.372
15937W        W82346  28.609  21.556  14.050
15938W        W82347  12.282  35.846  14.538
15939W        W82348  18.820  31.103  13.212
15940W        W82349   3.315   6.209  12.845
15941W        W82350  42.501  20.110  14.394
15942W        W82351  20.541   9.324   4.585
15943W        W82352  25.114  42.986  13.295
15944W        W82353   1.046  39.491   0.408
15945W        W82354  40.706  40.889  10.776
15946W        W82355  10.422  31.595   3.600
15947W        W82356  25.248  36.055   3.281
15948W        W82357   8.762   0.921  11.306
15949W        W82358  35.471   6.845  11.532
15950W        W82359   0.403  39.870   1.215
15951W        W82360  26.018  39.491   2.684
15952W        W82361  43.341  44.016  13.999
15953W        W82362  41.511  28.217   3.777
15954W        W82363  33.326   7.369   0.914
15955W        W82364   3.465   0.445  12.731
15956W        W82365  39.729  35.649   1.395
15957W        W82366  19.633   8.958   0.333
15958W        W82367  29.696  21.165  11.423
15959W        W82368  15.502  13.884  11.133
15960W        W82369  15.244  29.266  12.483
15961W        W82370  30.687  30.167  14.333
15962W        W82371  31.459  19.774  12.646
15963W        W82372  37.414  39.012   5.308
15964W        W82373  21.693  35.959   2.103
15965W        W82374  41.585   6.257   2.907
15966W        W82375  42.928  44.752   4.520
15967W        W82376  23.947   4.022   1.350
15968W        W82377   4.393  41.612   1.686
15969W        W82378  10.185   6.826  11.938
15970W        W82379  17.305  39.992   2.680
15971W        W82380   3.889  32.447  11.935
15972W        W82381  35.192  30.706   0.198
15973W        W82382  35.041  40.388  10.715
15974W        W82383  34.142   8.356  13.351
15975W        W82384  27.033  19.605   2.745
15976W        W82385  24.340  35.647  11.632
15977W        W82386  38.510   4.440   4.578
15978W        W82387   8.961  28.252   3.780
15979W        W82388   4.311  34.279  11.192
15980W        W82389  37.312  17.001   1.354
15981W        W82390  40.228   9.742   3.114
15982W        W82391   3.519  18.766  14.008
15983W        W82392  14.104   7.462   0.929
15984W        W82393  16.803  17.836   3.652
15985W        W82394  44.412  12.853   2.900
15986W        W82395   3.817  30.614  13.329
15987W        W82396  25.933  13.410   2.173
15988W        W82397  42.925  30.474   2.695
15989W        W82398  34.549  19.094   4.112
15990W        W82399  26.020  30.997   4.538
15991W        W82400  25.740   6.167  11.480
15992W        W82401  31.337  24.229   1.605
15993W        W82402  44.991  14.173   4.168
15994W        W82403   3.685  19.248  13.535
15995W        W82404  11.315  19.351  14.217
15996W        W82405  43.439  16.708   0.775
15997W        W82406  12.607  23.109   4.358
15998W        W82407  38.553   2.503  13.287
15999W        W82408  21.711   7.791  10.693
16000W        W82409  42.732  25.543  12.583
16001W        W82410  27.668  15.049  13.227
16002W        W82411  31.057  44.640  12.120
16003W        W82412   7.995  41.720  12.572
16004W        W82413   5.422  34.340  12.956
16005W        W82414  13.339  24.577   0.960
16006W        W82415  36.833  27.762  14.390
16007W        W82416   6.916  40.483   0.961
16008W        W82417  34.417  37.914   0.250
16009W        W82418  43.981  23.488   0.530
16010W        W82419  13.058  34.047   4.333
16011W        W82420  42.492  36.616  12.828
16012W        W82421  33.374  10.599   0.288
16013W        W82422  15.615  16.051   3.331
16014W        W82423   0.286  33.352   0.727
16015W        W82424  24.162  24.091  10.763
16016W        W82425   2.759  29.290   3.940
16017W        W82426  27.415   9.618   0.061
16018W        W82427  21.583  24.029  10.785
16019W        W82428  25.357  14.043   1.176
16020W        W82429  13.944  43.981  12.340
16021W        W82430  16.783  12.430   3.864
16022W        W82431  42.585  44.465   3.615
16023W        W82432   5.482  16.848   3.629
16024W        W82433   8.401  27.754   0.977
16025W        W82434  32.530  24.498   4.289
16026W        W82435  17.787  22.562  13.467
16027W        W82436  15.121  30.867  11.211
16028W        W82437  28.779   3.224   3.572
16029W        W82438  25.275   7.466   0.381
16030W        W82439  25.698  23.096   3.182
16031W        W82440  28.685  40.016   1.003
16032W        W82441  29.371  33.540   2.692
16033W        W82442  14.351   5.480  14.437
16034W        W82443  17.544   4.948  14.434
16035W        W82444   6.890  44.434   0.687
16036W        W82445  40.743   2.372  13.009
16037W        W82446  21.109  23.516  11.121
16038W        W82447  14.302  34.998   1.777
16039W        W82448   8.991   2.804   0.252
16040W        W82449  25.502  20.283   4.024
16041W        W82450   2.967  30.274   4.232
16042W        W82451   8.594  41.070   3.216
16043W        W82452  44.666  28.902  14.845
16044W        W82453  21.700   6.648   0.219
16045W        W82454  10.536  17.319  12.990
16046W        W82455   7.821  19.571  13.840
16047W        W82456   2.730  38.361   2.263
16048W        W82457  21.041  21.296  10.342
16049W        W82458   5.967   2.124  11.700
16050W        W82459  22.492  10.987  10.607
16051W        W82460  25.859  27.036  14.689
16052W        W82461  20.089   0.766   2.165
16053W        W82462  40.791   0.785  11.639
16054W        W82463  19.729   2.065   2.612
16055W        W82464  44.029  43.935   0.834
16056W        W82465   4.342  18.898  12.789
16057W        W82466  34.716  44.403   0.924
16058W        W82467   9.917  26.367  14.673
16059W        W82468  17.341   2.525   9.942
16060W        W82469  25.766   1.938  11.089
16061W        W82470  17.027   8.019  13.599
16062W        W82471  37.335   1.858   1.255
16063W        W82472  31.512   9.271   3.574
16064W        W82473  31.148   7.425  14.251
16065W        W82474  17.335   7.330   3.603
16066W        W82475  22.696  36.562   1.439
16067W        W82476   2.358  35.617   2.899
16068W        W82477  34.439  41.766  13.581
16069W        W82478  18.727   2.293   2.909
16070W        W82479  11.074   1.758   0.573
16071W        W82480  18.779  31.851  11.624
16072W        W82481  22.936  41.508  11.190
16073W        W82482  23.188  22.801   2.733
16074W        W82483  29.462   7.423   2.322
16075W        W82484   6.252  16.083   4.215
16076W        W82485   8.112  23.995   2.177
16077W        W82486  28.906  31.344   0.351
16078W        W82487  19.205  32.488   2.025
16079W        W82488  42.547  42.273  11.514
16080W        W82489   3.000  28.956  11.437
16081W        W82490   8.256  25.998   1.224
16082W        W82491  15.113  18.673  10.776
16083W        W82492  33.436  20.783  12.941
16084W        W82493  17.599  23.427   0.473
16085W        W82494   0.306  34.098  14.381
16086W        W82495  32.074  42.443  13.281
16087W        W82496  37.590  22.043  14.499
16088W        W82497  42.209  26.958  12.163
16089W        W82498  33.110   8.300  13.714
16090W        W82499  36.110  23.176   0.491
16091W        W82500  36.263   1.259  12.055
16092W        W82501  25.105  36.326  14.357
16093W        W82502  39.333  27.935   3.762
16094W        W82503  33.423  25.216  11.088
16095W        W82504   6.787  36.850   3.427
16096W        W82505  16.853  24.556   0.114
16097W        W82506  31.248  34.995   4.896
16098W        W82507  36.108   0.503   4.644
16099W        W82508  20.794  38.786   4.173
16100W        W82509  17.555  12.055  11.138
16101W        W82510  19.548  25.993  10.735
16102W        W82511   3.361  29.510   1.797
16103W        W82512  42.357  29.620   2.410
16104W        W82513   1.779  14.114  13.830
16105W        W82514   5.031   1.332   2.787
16106W        W82515  38.083  10.324   1.402
16107W        W82516  12.825   2.048   3.674
16108W        W82517  27.971  36.893  12.194
16109W        W82518  31.829  41.306  13.362
16110W        W82519  23.065  37.800   0.421
16111W        W82520   5.689   7.996   2.691
16112W        W82521  16.713  17.853  12.397
16113W        W82522   2.686   6.447  11.660
16114W        W82523   3.415  22.167   4.108
16115W        W82524  14.099  43.396  11.013
16116W        W82525  17.793  13.111   1.325
16117W        W82526  14.767   8.900   3.745
16118W        W82527   3.903   4.548   4.926
16119W        W82528  44.131  19.614  10.710
16120W        W82529  28.793  10.899   0.448
16121W        W82530  17.094  14.001  11.611
16122W        W82531  40.356  22.056  11.597
16123W        W82532  35.217  29.185  11.398
16124W        W82533  24.376  33.122  12.507
16125W        W82534   3.731  14.594   3.722
16126W        W82535  15.373   2.028   3.588
16127W        W82536  41.867  36.390   1.209
16128W        W82537  42.900  30.767   1.876
16129W        W82538  11.684  28.255  13.430
16130W        W82539  29.648  31.010  13.371
16131W        W82540  13.377  26.325   0.921
16132W        W82541  33.652  15.052  12.904
16133W        W82542  42.019  34.134   2.823
16134W        W82543  12.301  36.425  13.471
16135W        W82544  18.160  15.572  14.809
16136W        W82545  33.148  30.017   0.405
16137W        W82546  12.589   0.042  14.534
16138W        W82547  34.627  25.448  14.559
16139W        W82548  34.038  17.579   1.785
16140W        W82549  24.261  18.149   2.277
16141W        W82550   0.018  21.473   1.302
16142W        W82551  12.378  39.332  13.955
16143W        W82552  14.428   7.678   4.236
16144W        W82553  38.896  20.815  10.946
16145W        W82554  29.021   2.297   4.466
16146W        W82555  12.492  25.447   1.869
16147W        W82556  41.060  20.098   4.013
16148W        W82557  41.155  11.074   1.948
16149W        W82558  18.147  19.572   2.728
16150W        W82559  19.597   3.671   0.389
16151W        W82560  11.347  34.866   0.878
16152W        W82561   2.960  15.145   4.294
16153W        W82562  15.517   9.967   2.362
16154W        W82563  41.429  32.063   3.304
16155W        W82564  36.894   9.752   3.267
16156W        W82565   1.691  32.105   3.235
16157W        W82566  13.031  26.041  11.184
16158W        W82567  37.125  38.362   4.168
16159W        W82568  21.228  39.394  11.520
16160W        W82569  16.702  42.988   3.537
16161W        W82570   1.337  34.003   4.330
16162W        W82571  33.235  15.720   4.079
16163W        W82572  12.615  30.100  13.484
16164W        W82573  26.220  12.650  11.523
16165W        W82574   2.613  17.394  14.839
16166W        W82575   9.715  38.272  11.648
16167W        W82576  18.916   8.008   3.941
16168W        W82577  12.045  18.073   1.667
16169W        W82578  14.703  38.927   2.568
16170W        W82579   6.337  37.040   4.325
16171W        W82580  35.538  28.819  10.685
16172W        W82581   5.923  13.757  12.369
16173W        W82582  10.816  17.105   0.726
16174W        W82583  43.426   2.939  12.989
16175W        W82584  21.936  21.937   9.704
16176W        W82585  32.402  20.520  13.832
16177W        W82586   7.780  39.800   4.533
16178W        W82587  16.799  22.100   3.284
16179W        W82588  44.155   7.745   2.833
16180W        W82589  27.617  10.880   3.328
16181W        W82590  25.745  19.009  13.577
16182W        W82591  16.271  28.024  11.903
16183W        W82592   4.575  38.458  12.110
16184W        W82593  19.143   7.808  13.414
16185W        W82594  26.954   7.195   3.583
16186W        W82595  30.667  41.479   4.630
16187W        W82596  44.984  44.935  14.776
16188W        W82597  22.983  37.109  11.114
16189W        W82598  21.710  34.017  11.514
16190W        W82599  11.454  26.393  10.455
16191W        W82600   6.256  41.634  14.584
16192W        W82601   1.400  23.908  12.220
16193W        W82602   7.118  43.469   0.374
16194W        W82603  24.662  32.356  12.441
16195W        W82604  23.702  14.789   4.453
16196W        W82605  43.173  41.387   3.163
16197W        W82606  33.462  36.419  14.315
16198W        W82607   3.153  17.622   0.595
16199W        W82608  25.758   4.685   1.311
16200W        W82609   1.384  42.876   1.400
16201W        W82610   5.828  12.807  13.735
16202W        W82611  44.588  13.448  11.999
16203W        W82612   9.972  30.080   2.263
16204W        W82613  20.560   9.115   0.238
16205W        W82614  40.110  41.800  10.764
16206W        W82615  42.006  30.117   4.608
16207W        W82616  16.003  13.683  12.074
16208W        W82617  26.738  39.008  12.871
16209W        W82618  33.050  44.244  14.380
16210W        W82619  43.294  35.329  10.656
16211W        W82620  41.398  29.530  12.484
16212W        W82621  37.570   0.911   0.213
16213W        W82622  39.898   1.405  13.492
16214W        W82623  42.861  44.807  13.482
16215W        W82624  33.528   4.434   3.234
16216W        W82625   9.835  14.137  13.965
16217W        W82626  43.679   7.280   4.492
16218W        W82627  37.457  38.827   1.332
16219W        W82628  16.306  30.418  14.394
16220W        W82629  42.060  16.527   0.430
16221W        W82630  26.923  17.077  14.464
16222W        W82631  33.405  14.825  13.492
16223W        W82632  33.097  33.603   3.645
16224W        W82633  40.611  24.936  11.025
16225W        W82634  19.454  12.809  12.804
16226W        W82635  27.706  39.741  14.095
16227W        W82636   5.408  15.156   4.391
16228W        W82637  38.496  22.013  12.832
16229W        W82638  40.723  39.394   1.807
16230W        W82639  41.319  33.295  13.523
16231W        W82640   8.351  11.034  11.679
16232W        W82641  35.062  18.182  12.035
16233W        W82642  42.531  11.730   1.750
16234W        W82643  42.279  39.671   4.175
16235W        W82644   6.373  30.612  13.884
16236W        W82645  40.897  14.665  12.331
16237W        W82646   9.895  22.510  11.153
16238W        W82647   2.462  17.737  14.478
16239W        W82648  37.255   4.686  12.867
16240W        W82649   5.854   7.338   2.254
16241W        W82650  14.546  26.149   1.317
16242W        W82651  29.740  20.963   2.223
16243W        W82652  22.686  27.913   1.721
16244W        W82653  13.842  14.762   2.731
16245W        W82654  15.019  43.427   0.434
16246W        W82655  24.504   8.449   4.367
16247W        W82656  12.776  18.640  14.437
16248W        W82657  32.626  10.034  12.775
16249W        W82658  34.915  19.159  11.053
16250W        W82659   4.657  38.064  13.496
16251W        W82660  18.595  12.247   2.340
16252W        W82661  10.791  31.028  13.116
16253W        W82662   0.204  27.712   1.620
16254W        W82663  25.057   4.603   4.582
16255W        W82664  10.852   1.804  14.466
16256W        W82665  36.003  43.369   0.907
16257W        W82666   5.069  34.346  14.721
16258W        W82667  33.696  35.665  11.557
16259W        W82668  33.536  26.011  10.516
16260W        W82669   6.038  12.564  13.331
16261W        W82670  22.505   6.732  14.439
16262W        W82671  19.276  12.361  11.121
16263W        W82672   0.862  10.588  12.499
16264W        W82673  25.497   6.937   1.638
16265W        W82674  24.015  42.063   2.939
16266W        W82675  40.863  38.317  12.013
16267W        W82676   2.843  20.671  13.039
16268W        W82677  23.271   4.952   3.703
16269W        W82678  22.983  28.108   4.050
16270W        W82679   8.277  18.324   2.328
16271W        W82680  31.953  25.199   5.304
16272W        W82681  38.855  25.098  12.969
16273W        W82682  29.209  21.659  10.337
16274W        W82683  22.781  11.947  12.055
16275W        W82684  23.961   7.408   0.826
16276W        W82685   8.185  12.987   2.078
16277W        W82686  10.867  26.525   1.664
16278W        W82687  33.576   7.312  12.958
16279W        W82688   6.784  21.565  10.342
16280W        W82689  22.516  25.155  12.408
16281W        W82690  20.242  35.492  12.965
16282W        W82691  20.621  15.638  14.404
16283W        W82692  36.365  33.381  14.991
16284W        W82693  30.995   0.379  12.581
16285W        W82694  39.844  19.829  10.591
16286W        W82695  15.988  21.275   0.391
16287W        W82696  19.863  41.344   2.229
16288W        W82697  25.994  12.880  14.383
16289W        W82698   7.035   4.470  14.424
16290W        W82699  19.125  11.877  11.039
16291W        W82700   0.855  33.802   4.176
16292W        W82701   2.005  31.632   2.125
16293W        W82702  38.645  32.267   4.708
16294W        W82703  42.912  31.867  11.463
16295W        W82704  25.242  20.035  12.461
16296W        W82705  28.983  23.992  10.706
16297W        W82706   8.666  19.810  12.074
16298W        W82707  33.564  44.774  13.828
16299W        W82708  23.198   4.366  14.631
16300W        W82709  40.456  20.517  10.155
16301W        W82710  19.285  15.236   2.142
16302W        W82711  24.984   0.588  12.559
16303W        W82712   0.307  15.206   2.867
16304W        W82713  30.431   9.619   2.380
16305W        W82714  16.253  38.946  12.501
16306W        W82715  43.743  16.824   4.561
16307W        W82716  14.019  42.033  13.396
16308W        W82717  44.359   2.895   3.893
16309W        W82718   8.024  28.693  14.919
16310W        W82719   9.053   7.260  13.046
16311W        W82720  36.561  35.821   9.883
16312W        W82721   3.483  43.337   0.663
16313W        W82722   5.127  42.434  12.063
16314W        W82723  40.389  21.697   2.781
16315W        W82724  23.023  29.409  14.473
16316W        W82725  43.916   2.440   4.888
16317W        W82726   1.777  14.282  11.048
16318W        W82727  36.933  14.681   2.242
16319W        W82728   3.462  12.573  13.419
16320W        W82729  12.973  19.592   4.087
16321W        W82730  25.492  20.475  12.451
16322W        W82731   5.354   5.738  13.297
16323W        W82732   8.503   4.662   2.245
16324W        W82733  22.251   4.340  14.252
16325W        W82734  39.425   4.337  13.163
16326W        W82735   6.918  44.040   1.924
16327W        W82736  29.633  12.531  10.825
16328W        W82737  29.553  17.916   4.227
16329W        W82738  34.913  22.993  11.915
16330W        W82739  44.544  41.519  10.284
16331W        W82740   3.424  26.396  13.378
16332W        W82741  22.850  35.027   5.022
16333W        W82742  43.085  15.750  10.786
16334W        W82743   2.757   8.804  10.961
16335W        W82744  28.556   6.382   2.853
16336W        W82745  43.582  19.150   4.200
16337W        W82746  20.182  39.369   3.830
16338W        W82747  40.985  13.119  13.888
16339W        W82748  13.921  23.075   1.317
16340W        W82749   9.943  30.563  13.333
16341W        W82750  13.248  39.979  11.934
16342W        W82751  36.778   0.161   9.952
16343W        W82752  31.515  18.033  13.550
16344W        W82753  14.779  20.263   2.827
16345W        W82754  24.869  43.734   1.263
16346W        W82755  19.224  25.764   0.405
16347W        W82756   4.899  36.964  14.866
16348W        W82757  18.338  13.411   2.600
16349W        W82758  22.610   5.340  14.273
16350W        W82759  25.003  25.723   1.798
16351W        W82760  29.957  26.333  12.320
16352W        W82761  18.246  37.574  10.478
16353W        W82762   0.318  26.994   4.607
16354W        W82763  10.870   9.553  11.179
16355W        W82764  18.601  15.826  10.654
16356W        W82765  32.001   2.005   1.499
16357W        W82766  26.502   6.329  12.929
16358W        W82767  40.023  11.625  11.991
16359W        W82768  11.712   3.010   2.667
16360W        W82769  43.062  36.059  12.977
16361W        W82770  37.444  30.761   5.171
16362W        W82771  14.762  17.068   0.947
16363W        W82772  25.630  36.857   1.322
16364W        W82773   1.424   9.219  14.877
16365W        W82774  11.376  41.805   3.149
16366W        W82775  43.258  19.498  11.973
16367W        W82776  42.991  26.324  11.270
16368W        W82777  28.063  38.475  11.174
16369W        W82778   3.241  40.438   0.723
16370W        W82779  15.419  24.120   4.621
16371W        W82780  18.557  30.640   1.570
16372W        W82781  16.626  19.679  13.763
16373W        W82782  33.892   5.981   0.734
16374W        W82783  33.044  12.027   3.273
16375W        W82784  19.621  39.592   3.347
16376W        W82785  38.841  32.984   4.287
16377W        W82786  38.872  37.363  11.103
16378W        W82787  18.573  37.961  14.308
16379W        W82788  10.666   3.750   1.538
16380W        W82789   5.931  13.396  14.250
16381W        W82790  24.217  26.656   1.303
16382W        W82791  34.431  31.178   4.239
16383W        W82792  20.453   8.253   2.212
16384W        W82793  16.802   6.041   4.729
16385W        W82794  38.379  34.378   3.856
16386W        W82795  37.912   4.530  14.940
16387W        W82796  36.430  14.294  10.114
16388W        W82797  17.041  23.789  12.112
16389W        W82798   9.150  10.012   4.496
16390W        W82799  16.180  13.182   2.142
16391W        W82800  19.757  39.920   0.208
16392W        W82801   0.302  34.193   3.531
16393W        W82802   3.688   5.993  12.513
16394W        W82803  23.246  30.105  13.073
16395W        W82804  30.750   7.302  14.544
16396W        W82805   3.076  25.450   2.755
16397W        W82806  34.054  28.007  11.413
16398W        W82807  36.904  42.300   2.377
16399W        W82808   5.211  27.415  14.254
16400W        W82809  19.585   7.387   4.050
16401W        W82810  24.230   1.776   5.015
16402W        W82811  24.734  23.149   2.145
16403W        W82812  42.047   0.725   0.910
16404W        W82813  40.356   5.224   0.471
16405W        W82814  30.534  36.701  13.372
16406W        W82815  42.069  19.252   5.110
16407W        W82816  38.982  43.500  11.838
16408W        W82817  42.895  20.698  13.639
16409W        W82818  27.791  41.894  11.195
16410W        W82819  41.568  44.516  11.506
16411W        W82820  33.078  26.508  14.423
16412W        W82821  13.245   3.489   0.977
16413W        W82822  14.083  30.349  14.863
16414W        W82823  36.731  25.041   0.817
16415W        W82824  17.562  23.730   0.996
16416W        W82825  34.104   7.816  14.072
16417W        W82826  41.622  25.454   1.861
16418W        W82827   1.542  12.773   1.373
16419W        W82828   6.664   8.406  11.100
16420W        W82829  16.091   8.595  14.057
16421W        W82830   8.176  10.950   3.571
16422W        W82831  28.062  24.713   1.757
16423W        W82832  29.606  34.955  11.956
16424W        W82833  17.852  36.350   1.329
16425W        W82834  23.902  42.327  12.961
16426W        W82835   3.527  12.713  10.735
16427W        W82836   3.915  40.780  11.352
16428W        W82837  31.159   5.861   0.330
16429W        W82838  44.061   7.021   4.210
16430W        W82839  34.514  30.945  14.139
16431W        W82840   0.097   5.972   0.234
16432W        W82841  15.786  16.082   1.919
16433W        W82842  37.472  18.240   2.324
16434W        W82843   6.793   0.639  14.074
16435W        W82844  12.715  20.512  10.528
16436W        W82845   1.499  33.375  11.508
16437W        W82846   8.743  29.446  11.971
16438W        W82847  15.903  30.029  11.915
16439W        W82848  33.844  14.768  10.820
16440W        W82849  27.153  43.293   1.635
16441W        W82850   5.472  12.704  10.739
16442W        W82851  21.338   4.306   4.201
16443W        W82852  13.659  16.709   2.841
16444W        W82853  12.478   9.620  11.722
16445W        W82854  11.319  21.809   0.710
16446W        W82855  16.318   1.397  13.374
16447W        W82856   8.909  42.519  13.809
16448W        W82857   6.356  19.457   2.689
16449W        W82858  36.083   4.216   0.688
16450W        W82859  20.993  23.990   4.548
16451W        W82860  19.545  13.195  12.495
16452W        W82861  33.452  20.159   0.219
16453W        W82862  35.883  43.495  11.170
16454W        W82863  30.114  40.932   2.027
16455W        W82864  44.739  40.387  13.703
16456W        W82865  40.915   4.947  11.225
16457W        W82866  27.472   1.941  14.437
16458W        W82867   1.815  25.097   1.245
16459W        W82868  38.808  31.911   1.877
16460W        W82869  10.857   9.134   1.106
16461W        W82870  11.125   0.584   3.550
16462W        W82871  19.704  38.688   3.813
16463W        W82872  12.118   0.677   2.700
16464W        W82873  40.802  28.430   3.209
16465W        W82874   7.999  31.897  11.167
16466W        W82875   5.350  42.010  13.954
16467W        W82876  35.090   5.895   0.297
16468W        W82877   4.491  11.684  14.944
16469W        W82878  33.850  20.880   2.681
16470W        W82879  12.617  44.939  12.686
16471W        W82880  12.815  11.862  11.123
16472W        W82881  35.473  44.268   4.285
16473W        W82882   3.899  26.279   0.495
16474W        W82883   7.341  17.496   2.191
16475W        W82884   9.100  10.120   3.231
16476W        W82885  36.359  13.102   2.424
16477W        W82886  23.255   4.155   2.759
16478W        W82887  16.882  42.793  14.420
16479W        W82888  33.050   1.478  13.872
16480W        W82889  36.652  30.918   4.638
16481W        W82890  15.207  18.521   1.284
16482W        W82891  43.014  33.327  12.184
16483W        W82892  40.844  20.610  13.095
16484W        W82893  26.592  35.998   3.663
16485W        W82894   7.693  13.016  12.438
16486W        W82895   3.304  35.480  14.972
16487W        W82896   9.181  37.781   3.289
16488W        W82897   2.629  33.464   3.748
16489W        W82898  33.836   9.983  14.574
16490W        W82899  32.164  29.569   3.541
16491W        W82900  43.613  26.051  12.368
16492W        W82901  43.319  31.247   3.868
16493W        W82902   4.697  27.911  12.519
16494W        W82903  35.440   2.518   5.158
16495W        W82904  27.471   7.118   0.908
16496W        W82905  28.422  27.212  11.561
16497W        W82906  27.425  34.291   4.503
16498W        W82907   6.147  14.812  14.960
16499W        W82908   5.655  39.267   4.205
16500W        W82909   2.815  12.373   1.784
16501W        W82910   4.244  13.283   3.129
16502W        W82911  37.568  12.396   2.719
16503W        W82912  44.082  38.679   2.740
16504W        W82913   3.326  20.925   0.925
16505W        W82914  29.611  41.100  13.454
16506W        W82915  43.157   6.253   1.840
16507W        W82916  21.400  29.633  12.745
16508W        W82917  31.269   4.742  10.535
16509W        W82918   6.224  44.341   3.706
16510W        W82919  28.482  35.073  12.079
16511W        W82920  20.293  17.571   0.817
16512W        W82921  20.934   7.080  12.480
16513W        W82922   9.858  16.701  10.945
16514W        W82923  16.469   5.529  13.351
16515W        W82924   5.482   5.965   3.767
16516W        W82925   5.378  12.258   2.254
16517W        W82926  12.803   2.501  12.600
16518W        W82927  17.307  29.703   4.208
16519W        W82928   1.951  32.363   1.349
16520W        W82929  29.568   3.894   2.618
16521W        W82930  42.892  34.069   0.966
16522W        W82931   3.115   6.695   1.361
16523W        W82932  12.024  37.280  12.411
16524W        W82933  21.321  32.232  14.350
16525W        W82934   0.272  28.066  13.531
16526W        W82935   2.574  10.056   2.444
16527W        W82936  13.610   9.391  10.858
16528W        W82937   5.257   0.351   3.670
16529W        W82938  34.111  39.575  13.135
16530W        W82939  33.163  27.707   2.709
16531W        W82940   5.359   7.477  12.053
16532W        W82941  24.418  19.651  11.546
16533W        W82942   0.918  42.679   3.857
16534W        W82943  41.964  12.206  13.316
16535W        W82944  43.789  15.240  12.314
16536W        W82945  25.497  43.408   2.225
16537W        W82946  10.265   0.007   2.199
16538W        W82947   2.526  10.328   3.979
16539W        W82948  14.186  28.295  13.043
16540W        W82949   3.406   8.919  11.619
16541W        W82950  10.560  28.156  11.749
16542W        W82951  10.233  26.754   0.840
16543W        W82952  42.802   0.229   4.739
16544W        W82953  44.250  21.185   2.896
16545W        W82954  37.051  42.388  10.821
16546W        W82955   4.410  33.976  10.732
16547W        W82956   9.126  40.060  12.648
16548W        W82957  16.776  15.480  11.173
16549W        W82958  24.539  11.695  12.908
16550W        W82959  43.553  13.851  13.574
16551W        W82960  12.730   0.734  13.782
16552W        W82961  19.787  16.604  10.194
16553W        W82962  35.216  31.203   1.331
16554W        W82963   6.874  39.823   1.194
16555W        W82964  12.571   7.966   1.641
16556W        W82965  34.024  43.285  10.793
16557W        W82966  16.138  12.913  14.971
16558W        W82967  34.799   4.207  11.293
16559W        W82968   4.864  20.981   9.938
16560W        W82969  42.202   7.679   3.706
16561W        W82970   5.315   9.862   0.664
16562W        W82971  36.221  26.772  12.685
16563W        W82972  39.826   2.902   2.935
16564W        W82973  30.965  19.827   0.966
16565W        W82974  36.939  20.074   0.306
16566W        W82975  17.923   6.235   1.913
16567W        W82976  20.448  17.154  13.504
16568W        W82977  39.475   0.367   3.964
16569W        W82978   0.330  38.373  10.945
16570W        W82979  39.100   4.886  12.350
16571W        W82980   6.147  20.535   1.686
16572W        W82981  11.628  36.332  12.138
16573W        W82982  16.880   5.925  11.636
16574W        W82983  12.059  21.117  12.840
16575W        W82984   9.735  14.746   4.080
16576W        W82985   5.319  24.976  13.762
16577W        W82986  16.005  29.622  10.783
16578W        W82987  43.616  11.233   4.964
16579W        W82988  29.956  27.624  13.155
16580W        W82989  20.292   7.353   2.323
16581W        W82990  14.642  22.481   0.862
16582W        W82991  33.439  25.777  13.872
16583W        W82992  23.149   4.455   3.682
16584W        W82993  18.103  25.205  10.763
16585W        W82994   3.469  23.683   1.382
16586W        W82995  37.334  30.573  14.062
16587W        W82996  17.062  13.644   2.345
16588W        W82997  26.593  25.538   3.587
16589W        W82998  36.417   9.337   2.683
16590W        W82999   7.223  20.357   5.199
16591W        W83000   3.695  23.538  14.512
16592W        W83001   6.749  19.823   2.055
16593W        W83002   5.939  40.629   0.531
16594W        W83003  19.195   0.816  14.707
16595W        W83004  15.038   0.329   5.091
16596W        W83005   7.004   0.447   3.797
16597W        W83006  40.036  39.856  14.499
16598W        W83007   4.331  34.341   1.377
16599W        W83008  42.131  32.014  12.099
16600W        W83009   1.645  17.717  14.841
16601W        W83010  22.443  34.106  13.354
16602W        W83011  29.858   4.321   4.573
16603W        W83012  41.742  31.149  11.232
16604W        W83013  28.162  42.409   4.656
16605W        W83014  35.782  41.302   2.414
16606W        W83015   3.716  44.301   0.488
16607W        W83016   9.903   5.322  10.461
16608W        W83017   6.045   8.753   2.893
16609W        W83018   7.842   2.507   1.930
16610W        W83019   1.602  24.263  13.965
16611W        W83020   6.931  10.604  13.926
16612W        W83021  40.405  15.791   1.667
16613W        W83022  32.299   6.516  14.537
16614W        W83023   4.008  15.152  11.536
16615W        W83024  33.789  40.954   3.662
16616W        W83025  19.229  11.716  13.382
16617W        W83026  39.534   2.172   2.029
16618W        W83027  23.992  40.365   1.114
16619W        W83028   9.800  19.123  14.397
16620W        W83029  29.613  43.555   3.121
16621W        W83030  31.273   8.261   4.599
16622W        W83031  28.139  27.778  12.022
16623W        W83032  16.935  34.902   2.934
16624W        W83033  39.746  29.644  11.070
16625W        W83034   5.343   0.055   4.101
16626W        W83035  34.900  35.985   2.390
16627W        W83036   0.896  14.131  13.858
16628W        W83037   6.430  27.447  12.432
16629W        W83038   9.086   6.962   2.923
16630W        W83039   7.126  39.171  14.517
16631W        W83040  28.044  30.185   0.330
16632W        W83041   5.980   6.304   1.328
16633W        W83042  15.715   9.443   2.375
16634W        W83043  42.750  24.649   0.746
16635W        W83044  14.832  25.535   3.777
16636W        W83045  35.803  23.162  12.380
16637W        W83046  28.121  16.228   4.118
16638W        W83047  27.466   9.368   4.562
16639W        W83048   8.460  18.158  14.475
16640W        W83049  37.556   4.867   2.230
16641W        W83050  34.111  19.711   3.514
16642W        W83051  43.413  34.334   4.438
16643W        W83052  39.939  18.098   1.894
16644W        W83053   0.655  38.287   3.309
16645W        W83054   1.273  34.119   3.395
16646W        W83055  43.212   8.639   4.773
16647W        W83056  18.461  12.876   1.652
16648W        W83057   9.142  16.365  14.180
16649W        W83058  43.487   3.217   2.220
16650W        W83059  21.614  41.533  13.925
16651W        W83060  35.665  30.139  12.573
16652W        W83061   2.899  41.785  13.016
16653W        W83062  23.495   8.151  12.449
16654W        W83063  11.347  43.558  11.450
16655W        W83064  32.573  33.653   0.494
16656W        W83065  42.390   5.325   1.276
16657W        W83066  30.023  39.019   3.122
16658W        W83067  40.276  14.562   0.186
16659W        W83068  12.544  34.182  11.065
16660W        W83069  12.197   3.470   4.173
16661W        W83070  10.089  18.724   3.235
16662W        W83071   1.953  10.864   0.526
16663W        W83072  40.660  34.359   1.304
16664W        W83073  10.734   3.758   1.025
16665W        W83074  11.945  14.271  14.972
16666W        W83075  13.256  41.428   0.677
16667W        W83076  36.649  12.216  11.188
16668W        W83077  11.287  36.477   4.828
16669W        W83078  43.343  26.183   2.713
16670W        W83079  21.030  39.550   3.743
16671W        W83080   0.882  21.499   4.219
16672W        W83081  39.299  15.352  11.419
16673W        W83082   7.736  44.311  11.618
16674W        W83083  22.116  22.502   4.018
16675W        W83084  27.073   5.457  13.862
16676W        W83085   0.502  35.541   1.717
16677W        W83086  25.589  26.117   4.422
16678W        W83087  43.405   0.412   0.436
16679W        W83088  24.504  40.741  10.766
16680W        W83089  26.986  13.121  12.945
16681W        W83090  32.043  33.342  12.074
16682W        W83091  37.430  36.808   4.625
16683W        W83092  13.169  33.154  12.396
16684W        W83093   2.757  23.204   1.436
16685W        W83094  26.512  12.288  12.368
16686W        W83095  22.365   8.953   0.320
16687W        W83096  39.926  23.373   3.682
16688W        W83097  34.696  14.107   3.658
16689W        W83098  33.115  13.015  14.450
16690W        W83099   4.306   5.157  13.388
16691W        W83100  16.234   8.801  10.699
16692W        W83101   5.909  11.068   0.481
16693W        W83102  13.190  34.416   1.998
16694W        W83103  10.407  43.846   2.762
16695W        W83104  44.937  20.440   1.452
16696W        W83105  29.022  38.320   4.008
16697W        W83106  19.614  20.067   1.224
16698W        W83107  31.717  37.847   2.671
16699W        W83108  27.078  20.031  14.976
16700W        W83109  31.824   5.380  13.072
16701W        W83110  15.293  33.150  13.134
16702W        W83111   8.247   1.335   4.534
16703W        W83112   7.264  21.525   3.177
16704W        W83113  32.112  11.785  13.293
16705W        W83114   0.920  29.650  10.738
16706W        W83115   1.009  31.585  12.137
16707W        W83116  32.278   6.547  13.303
16708W        W83117  28.567  23.457  10.421
16709W        W83118  44.692  13.627  10.682
16710W        W83119  43.986  33.593  11.904
16711W        W83120  29.217  19.690  14.979
16712W        W83121  12.245  10.382  12.573
16713W        W83122  12.619  35.971  11.643
16714W        W83123  41.911   8.741  14.156
16715W        W83124   5.216   8.228  10.784
16716W        W83125  13.812  20.471   5.397
16717W        W83126  42.588   5.341  14.114
16718W        W83127  27.054  27.959   1.910
16719W        W83128  14.680  37.894  14.654
16720W        W83129  11.867   9.320   3.201
16721W        W83130  23.942  24.724   3.190
16722W        W83131  18.034  35.150   2.818
16723W        W83132  31.637   1.312   1.102
16724W        W83133  36.031   5.404  14.022
16725W        W83134  39.378  40.781   2.435
16726W        W83135   4.243  28.221   2.063
16727W        W83136   3.361  27.226  12.265
16728W        W83137  37.581  26.495   3.626
16729W        W83138   5.858   4.669   1.818
16730W        W83139  38.339  12.879  13.012
16731W        W83140  15.997   5.468  14.602
16732W        W83141  43.410   0.465   3.552
16733W        W83142  28.210  43.464  13.439
16734W        W83143   8.197  19.616  12.093
16735W        W83144  28.113  18.655  12.683
16736W        W83145  20.586  37.111   0.720
16737W        W83146  26.612   4.181   0.398
16738W        W83147  22.610  41.071   1.462
16739W        W83148  12.112  40.291  10.182
16740W        W83149   4.898  33.904   0.518
16741W        W83150  32.729  29.584  11.072
16742W        W83151  35.236   1.195   1.699
16743W        W83152  30.958  16.768   2.264
16744W        W83153  33.449  34.402   1.700
16745W        W83154  44.259  38.027   3.212
16746W        W83155  27.870  37.913   4.726
16747W        W83156  12.515   6.020  14.388
16748W        W83157   1.338  24.542   2.428
16749W        W83158  21.878  29.231   4.517
16750W        W83159  16.019  32.410  11.379
16751W        W83160   7.468  33.719  14.238
16752W        W83161  24.939   6.622  11.662
16753W        W83162  33.203  20.969   1.676
16754W        W83163   3.006  11.379  14.407
16755W        W83164   5.557  22.341  14.922
16756W        W83165   8.721   6.360   5.091
16757W        W83166  11.900  21.590  12.633
16758W        W83167  40.888  44.303   4.236
16759W        W83168  42.395   9.097   0.781
16760W        W83169  19.763  28.535   4.381
16761W        W83170  42.142  34.544  11.702
16762W        W83171  25.096   4.088   4.643
16763W        W83172  30.239  33.614   1.880
16764W        W83173  41.541  33.883   2.814
16765W        W83174  25.683  21.212  14.362
16766W        W83175  44.815  28.749   3.134
16767W        W83176  12.298  43.390  10.790
16768W        W83177  17.794  38.383   2.804
16769W        W83178  36.449  25.989   4.631
16770W        W83179  17.598   9.163  13.737
16771W        W83180  32.363  14.662   3.770
16772W        W83181   9.190  24.088  11.226
16773W        W83182  26.440   1.024   3.204
16774W        W83183  18.557  32.078  13.525
16775W        W83184  11.753  27.994  11.156
16776W        W83185  25.705   2.496   0.368
16777W        W83186   2.086  23.704  10.696
16778W        W83187  33.276  32.786   2.683
16779W        W83188  32.933  39.027  12.586
16780W        W83189  44.404   0.520   1.898
16781W        W83190  12.894   6.857   4.548
16782W        W83191   7.062   1.771  12.896
16783W        W83192  25.027   8.891  14.942
16784W        W83193   2.289  33.332  13.866
16785W        W83194  32.080  16.182  10.773
16786W        W83195  30.148   9.732  12.961
16787W        W83196  10.382  37.069  13.616
16788W        W83197   8.944  13.617  14.792
16789W        W83198  27.434  24.299  12.146
16790W        W83199  17.163  38.258  13.169
16791W        W83200  20.671  37.551   1.646
16792W        W83201  40.531  18.523   0.959
16793W        W83202  19.479  25.154  13.944
16794W        W83203  42.424  33.989  12.485
16795W        W83204  31.679   2.799   2.044
16796W        W83205   4.096  25.625   5.010
16797W        W83206  31.507  28.872  12.065
16798W        W83207  36.660  25.689  11.998
16799W        W83208  39.361  20.675  12.490
16800W        W83209  23.773  26.087   4.604
16801W        W83210  32.604  23.283   0.453
16802W        W83211   8.837  38.397  11.027
16803W        W83212  25.213  41.905  10.414
16804W        W83213   9.805  23.666   3.587
16805W        W83214  12.855  34.142  13.044
16806W        W83215  23.078  14.377   0.029
16807W        W83216  21.044  19.559  12.108
16808W        W83217  16.754   3.413   2.946
16809W        W83218  39.952  30.523  13.158
16810W        W83219  28.720  25.099  14.530
16811W        W83220   9.761  37.013  11.591
16812W        W83221  32.943  37.513  14.458
16813W        W83222  13.188   8.816  14.923
16814W        W83223  17.070  36.932   3.795
16815W        W83224  25.685  28.539   1.172
16816W        W83225  24.612  21.290  13.505
16817W        W83226  16.777  24.951  13.498
16818W        W83227   7.200  31.587   0.398
16819W        W83228  38.817  44.411   1.240
16820W        W83229  38.892   3.203  13.004
16821W        W83230  38.035  16.821  12.575
16822W        W83231  36.086   1.044  11.140
16823W        W83232  43.833  32.259   4.879
16824W        W83233  10.252  11.713  12.025
16825W        W83234  43.754  33.375  11.517
16826W        W83235  43.275   3.527  11.463
16827W        W83236  36.424  13.791  10.995
16828W        W83237  44.006  16.333  14.290
16829W        W83238  22.616  23.429  14.361
16830W        W83239   6.616   1.458  14.198
16831W        W83240   3.030  10.224   5.003
16832W        W83241   8.639   3.269   4.170
16833W        W83242  27.725  28.255  12.916
16834W        W83243  34.461   4.620   3.693
16835W        W83244  13.531  36.220   1.832
16836W        W83245  26.494  29.110   2.223
16837W        W83246  37.824  11.754  12.664
16838W        W83247   2.832  43.356   0.402
16839W        W83248  18.750  31.939  10.100
16840W        W83249   1.312  17.651   3.846
16841W        W83250  22.167  24.641   0.371
16842W        W83251   5.520  37.260   1.219
16843W        W83252  37.415   4.939   0.758
16844W        W83253  42.385  19.019  11.554
16845W        W83254  32.032  21.022  11.686
16846W        W83255  18.554  33.035   0.114
16847W        W83256  16.580  34.947   4.716
16848W        W83257   3.183   6.504  14.495
16849W        W83258  33.125  26.218  13.903
16850W        W83259  35.098  22.432   1.336
16851W        W83260  39.238  27.182   4.229
16852W        W83261   8.812   8.611   2.698
16853W        W83262  27.267  18.240   3.840
16854W        W83263  14.767   3.467  11.497
16855W        W83264  31.990   1.643  14.776
16856W        W83265  14.254   5.395   3.142
16857W        W83266  22.156  31.690   1.884
16858W        W83267  35.370   9.669  11.162
16859W        W83268   4.243   3.473   1.441
16860W        W83269  24.122  40.312  12.028
16861W        W83270  10.248  33.782  10.825
16862W        W83271  20.570  28.963   4.125
16863W        W83272  22.703  25.268   4.516
16864W        W83273   7.612  37.633  13.167
16865W        W83274   8.630  37.972  10.547
16866W        W83275  44.005  39.742  14.382
16867W        W83276  18.832  43.747   0.703
16868W        W83277  30.580  17.835   0.043
16869W        W83278  37.924   3.739  10.271
16870W        W83279  25.109   7.813   1.836
16871W        W83280  25.689  33.009   4.295
16872W        W83281  41.063   8.035  11.123
16873W        W83282  19.221  29.642   3.144
16874W        W83283   5.234  15.406   0.043
16875W        W83284  19.210  25.003   3.731
16876W        W83285  37.609  33.610  11.029
16877W        W83286  22.026  20.071  12.524
16878W        W83287  19.115  15.132  14.901
16879W        W83288   2.038   3.629   1.746
16880W        W83289  22.005  23.605   1.548
16881W        W83290  31.059  24.767  11.090
16882W        W83291  33.153  19.240   4.904
16883W        W83292  41.484  16.367   1.756
16884W        W83293  12.596  17.274   3.255
16885W        W83294   8.963  18.260   2.689
16886W        W83295  10.236  21.832  11.580
16887W        W83296  22.579  18.794   3.612
16888W        W83297  15.528  10.974  14.860
16889W        W83298  41.784  24.817  11.381
16890W        W83299   4.037  20.709   1.336
16891W        W83300  22.953  42.491  10.698
16892W        W83301  14.723   3.571  12.897
16893W        W83302  28.390  35.115   0.810
16894W        W83303  19.006  34.041  14.415
16895W        W83304  34.413  24.299  13.004
16896W        W83305   6.328  44.732   4.061
16897W        W83306  34.090  25.408  13.159
16898W        W83307   7.440  11.886  12.953
16899W        W83308  44.787   9.275  12.297
16900W        W83309   4.620  21.566  14.265
16901W        W83310  11.457  11.727  11.362
16902W        W83311  43.003  18.521  12.041
16903W        W83312  36.358  19.064  11.052
16904W        W83313   9.568  24.603   2.267
16905W        W83314  44.287  22.285  10.654
16906W        W83315  41.290  23.243  12.198
16907W        W83316  19.244   5.330   4.865
16908W        W83317  34.905   4.716  11.248
16909W        W83318  38.649  10.250   3.777
16910W        W83319  22.518   0.287   2.660
16911W        W83320   8.975  36.954  11.974
16912W        W83321  28.430  29.149  11.667
16913W        W83322  11.174  27.425   1.131
16914W        W83323  25.291   8.644   3.294
16915W        W83324  37.788  36.611   3.621
16916W        W83325   7.695   6.067  10.251
16917W        W83326  36.504  14.664   0.038
16918W        W83327  22.824  36.360  11.620
16919W        W83328   7.927  22.299   1.326
16920W        W83329  27.244   9.346  11.602
16921W        W83330  21.592  25.622  12.029
16922W        W83331  13.161  36.514   4.792
16923W        W83332  30.201  12.225  14.933
16924W        W83333  19.246  29.157   0.370
16925W        W83334  30.571   5.339  14.324
16926W        W83335  44.017  14.185   2.830
16927W        W83336   1.951  32.144   2.286
16928W        W83337  38.545  37.336  14.018
16929W        W83338  16.311  25.424   4.104
16930W        W83339  39.035  19.225  12.922
16931W        W83340  11.127   3.205   0.845
16932W        W83341  37.530  39.755   1.302
16933W        W83342  41.207  42.942   3.538
16934W        W83343  30.408  18.668  11.584
16935W        W83344  44.865  33.902   0.269
16936W        W83345  20.127  23.219   3.836
16937W        W83346  32.681   9.766   4.561
16938W        W83347   0.412  24.170   1.809
16939W        W83348  42.160  34.390   4.117
16940W        W83349  37.440  22.707   5.281
16941W        W83350  21.945   2.413  13.680
16942W        W83351  39.766  31.659  13.898
16943W        W83352  44.923   2.514   4.715
16944W        W83353  20.226  10.389   4.471
16945W        W83354  27.521  12.167   3.793
16946W        W83355  18.920  41.239   0.755
16947W        W83356   3.824   8.093  10.638
16948W        W83357  19.754  31.037  11.699
16949W        W83358   3.938  27.131   1.019
16950W        W83359  29.200   2.028  14.759
16951W        W83360  30.581   2.495   9.856
16952W        W83361  20.316  43.227   4.258
16953W        W83362   8.665   2.838  10.041
16954W        W83363  33.416  17.274   1.417
16955W        W83364  24.617  16.656  13.855
16956W        W83365   6.861  26.127  14.805
16957W        W83366   8.342  34.550  12.910
16958W        W83367  18.050  11.010   1.404
16959W        W83368  20.233  22.428   0.827
16960W        W83369   4.632  15.840  14.000
16961W        W83370   0.548  24.894  10.747
16962W        W83371  34.154   3.290  12.120
16963W        W83372  24.938  38.379   1.638
16964W        W83373  15.634  23.395  10.322
16965W        W83374  14.539  26.468   0.520
16966W        W83375  23.260  38.504  14.786
16967W        W83376  16.189  20.174   1.317
16968W        W83377  13.781   8.398   3.384
16969W        W83378  42.193   8.918   1.889
16970W        W83379  43.289  31.451  14.369
16971W        W83380   1.041  33.200  11.616
16972W        W83381   1.348  32.838   2.171
16973W        W83382  35.497  24.655   4.873
16974W        W83383  41.321  24.082  14.688
16975W        W83384  44.383  40.275  10.764
16976W        W83385  31.445   0.515  10.781
16977W        W83386  26.563  30.716   2.561
16978W        W83387   1.331  33.492   4.400
16979W        W83388   4.490  43.506  14.437
16980W        W83389  19.948  18.895   3.406
16981W        W83390  20.330  12.594   3.632
16982W        W83391   7.575  18.301   4.475
16983W        W83392  22.117  35.931  13.887
16984W        W83393  25.241   3.811   3.133
16985W        W83394  11.738  39.776   4.137
16986W        W83395   5.003  36.841  14.355
16987W        W83396   2.583  41.782  14.948
16988W        W83397  43.527  35.851  11.559
16989W        W83398  38.377  36.021   4.585
16990W        W83399  41.884   8.667   1.441
16991W        W83400  36.103   7.207   2.744
16992W        W83401  23.627  41.910  12.157
16993W        W83402  16.598  44.393  10.370
16994W        W83403  23.202  29.538   3.636
16995W        W83404  30.471  15.313   3.589
16996W        W83405   1.417   9.355  10.126
16997W        W83406  25.047  41.562   2.343
16998W        W83407  35.501  44.845   2.749
16999W        W83408  17.027  44.779  13.913
17000W        W83409  41.937  37.112  10.644
17001W        W83410   7.913  18.234   2.694
17002W        W83411   9.287   6.847   4.713
17003W        W83412   4.810   1.299   3.773
17004W        W83413   6.364   9.608   2.206
17005W        W83414  44.770  26.912  12.757
17006W        W83415  25.598  23.721   1.453
17007W        W83416   8.566  20.577  13.069
17008W        W83417  14.636  33.917   3.877
17009W        W83418  16.654   9.625  14.791
17010W        W83419  28.217   4.332  10.197
17011W        W83420  40.822   1.612   3.567
17012W        W83421  14.023   6.939   1.733
17013W        W83422  27.440   5.776  13.625
17014W        W83423  33.619  13.092  12.126
17015W        W83424  19.191  44.302  12.469
17016W        W83425  33.681   1.560   4.050
17017W        W83426  30.585  24.984  11.345
17018W        W83427  37.265  40.344  11.240
17019W        W83428  20.045   9.657   0.735
17020W        W83429  17.742  28.737   2.519
17021W        W83430   5.286  31.894   1.107
17022W        W83431  28.733  40.538   4.777
17023W        W83432  41.026   6.378  13.387
17024W        W83433  23.294  34.581   3.108
17025W        W83434  22.020  32.183   1.881
17026W        W83435  14.324  33.413  10.994
17027W        W83436  15.586  36.777   3.955
17028W        W83437  15.852  43.458   5.011
17029W        W83438  34.496  39.512   4.389
17030W        W83439  22.573   6.691  13.008
17031W        W83440  22.616  44.812   3.769
17032W        W83441  12.439   5.020   0.103
17033W        W83442   8.112  18.827   3.233
17034W        W83443   7.995  26.522   0.423
17035W        W83444  36.789  31.537   2.603
17036W        W83445  10.802  14.502   2.077
17037W        W83446   3.699  41.091  11.002
17038W        W83447  12.089  30.602  14.733
17039W        W83448   1.195   1.601   3.013
17040W        W83449   8.915  32.505   3.805
17041W        W83450  15.708  33.995  13.813
17042W        W83451  38.961  29.094  14.626
17043W        W83452  21.606   2.155  14.831
17044W        W83453  29.353   1.330   2.856
17045W        W83454  41.854  34.328   2.209
17046W        W83455  11.864  20.035  13.675
17047W        W83456   5.252   2.572   3.800
17048W        W83457  30.355  25.607  14.468
17049W        W83458  27.883  19.659  11.560
17050W        W83459  23.168   7.289   1.216
17051W        W83460  33.879   7.230  11.528
17052W        W83461  31.991  25.283  12.337
17053W        W83462  14.112  40.796  13.884
17054W        W83463   9.157   4.918  10.801
17055W        W83464   7.486  23.278   3.142
17056W        W83465  14.110   3.488   4.130
17057W        W83466   4.524   0.446  11.998
17058W        W83467  12.198  26.177   0.315
17059W        W83468  16.281  19.649  13.388
17060W        W83469   5.652  31.912   1.495
17061W        W83470  31.032  33.198  11.645
17062W        W83471   8.640  12.573  13.811
17063W        W83472   0.530  41.910   3.694
17064W        W83473  18.654  20.626   0.835
17065W        W83474  40.102  42.438   1.971
17066W        W83475  42.805  20.801   2.894
17067W        W83476   7.664   7.253   4.086
17068W        W83477  41.812   3.320  10.074
17069W        W83478  20.853  23.042   4.213
17070W        W83479   6.232  32.024  14.765
17071W        W83480  40.885  34.857   3.524
17072W        W83481  11.197   5.785  13.902
17073W        W83482  44.558  43.324  12.872
17074W        W83483   3.551   4.438  13.844
17075W        W83484  31.708  24.955   4.261
17076W        W83485   8.985   4.789   1.885
17077W        W83486   2.419  16.434  14.913
17078W        W83487   5.153  18.587   1.687
17079W        W83488  29.153   5.737  10.990
17080W        W83489  19.294  25.615  10.504
17081W        W83490  18.641  25.981   2.510
17082W        W83491  29.518   4.775  10.996
17083W        W83492  28.388  33.018  13.385
17084W        W83493   0.465  17.728   4.140
17085W        W83494  38.652   2.272   4.565
17086W        W83495  11.428  30.410   2.196
17087W        W83496  13.606  14.141  11.654
17088W        W83497  23.938  26.492   0.906
17089W        W83498   6.456   0.671   2.414
17090W        W83499  14.239   0.495   2.430
17091W        W83500   8.121  32.296  12.546
17092W        W83501  21.881  27.079  12.722
17093W        W83502  19.511  33.082   1.362
17094W        W83503  17.068  42.909  13.538
17095W        W83504  14.333  10.162  13.819
17096W        W83505   7.736  10.666   3.817
17097W        W83506  25.700  23.279  14.352
17098W        W83507  39.569  27.673   4.197
17099W        W83508  42.860  34.453   0.603
17100W        W83509  27.598   8.740   4.057
17101W        W83510  17.294  23.769  11.633
17102W        W83511  38.378  18.622  10.318
17103W        W83512   9.205   7.251   3.340
17104W        W83513  13.779   6.805  11.637
17105W        W83514   6.836  13.047  10.782
17106W        W83515  27.955   7.157  10.088
17107W        W83516  42.288   0.720   4.107
17108W        W83517  20.639   3.601  14.131
17109W        W83518  12.628  10.070   1.287
17110W        W83519  11.032   8.603  11.536
17111W        W83520  28.005  18.600   4.630
17112W        W83521  31.220  14.625   2.962
17113W        W83522  16.062  32.831   2.138
17114W        W83523   7.718  15.864  10.571
17115W        W83524  30.748  37.867   0.880
17116W        W83525  10.956  30.520  11.515
17117W        W83526   5.134   9.832   3.705
17118W        W83527  11.584  10.970  11.999
17119W        W83528   6.707   5.135  11.367
17120W        W83529  26.638  32.099  11.589
17121W        W83530   1.510   0.487   0.406
17122W        W83531  42.387  27.169   3.831
17123W        W83532  16.746  16.644   3.660
17124W        W83533  31.957  36.632  14.328
17125W        W83534  26.281   9.243   3.752
17126W        W83535  44.332   3.197  13.805
17127W        W83536  32.092   9.276  10.710
17128W        W83537  32.868   9.646   3.868
17129W        W83538  20.486  30.787  14.075
17130W        W83539  31.658  28.843   1.394
17131W        W83540   0.767  15.198  14.828
17132W        W83541  13.652  40.462   0.210
17133W        W83542  26.550   3.980  12.349
17134W        W83543  30.654  22.649   0.472
17135W        W83544  12.947  40.878  11.131
17136W        W83545   8.780   9.106   1.799
17137W        W83546  27.626   3.875   0.768
17138W        W83547  33.039  13.602  13.586
17139W        W83548  27.960  19.560   3.671
17140W        W83549  13.057  42.388   3.203
17141W        W83550  25.091   9.372  12.892
17142W        W83551   9.702  34.836  13.068
17143W        W83552   3.442  10.244  13.444
17144W        W83553  17.663  27.192   3.697
17145W        W83554  12.402   3.930  12.897
17146W        W83555  39.307  17.191  11.496
17147W        W83556  22.628  31.738  14.384
17148W        W83557  16.696  20.054   1.350
17149W        W83558   1.955  16.460  12.511
17150W        W83559   1.431  18.309  13.846
17151W        W83560   2.832  32.530   3.361
17152W        W83561  21.085  10.139  10.553
17153W        W83562   5.843  40.268  11.142
17154W        W83563  24.227  37.062   1.331
17155W        W83564  40.766   0.973   4.131
17156W        W83565  22.798  17.214  12.073
17157W        W83566   4.830  23.721   3.462
17158W        W83567  39.887  27.539  11.995
17159W        W83568  10.703  21.279   3.038
17160W        W83569  17.563  28.459  12.747
17161W        W83570  26.182  20.130   0.823
17162W        W83571  23.538  33.496  12.417
17163W        W83572   0.964  39.218  12.005
17164W        W83573  25.484   9.917  13.407
17165W        W83574  11.220   8.631  13.866
17166W        W83575  36.853  29.932  14.923
17167W        W83576   5.618  33.554  11.106
17168W        W83577  14.103  33.384   4.642
17169W        W83578  28.950  20.259  10.598
17170W        W83579   9.771  11.779  13.673
17171W        W83580   3.929   4.445  10.967
17172W        W83581   2.702  27.642   4.627
17173W        W83582   4.470  15.796  11.205
17174W        W83583   4.961  23.468   1.536
17175W        W83584  41.874  19.092   3.255
17176W        W83585  19.937  10.177  12.150
17177W        W83586   3.880   4.292   4.475
17178W        W83587  36.083  36.245   3.209
17179W        W83588  32.791  44.301  13.429
17180W        W83589  11.572   4.701   2.319
17181W        W83590  32.782  29.480  10.553
17182W        W83591   3.802  27.907  11.206
17183W        W83592  40.225  24.609   4.075
17184W        W83593   3.131  31.698  12.553
17185W        W83594  18.662  19.259   0.741
17186W        W83595  32.955   4.101   4.033
17187W        W83596  35.756   6.666  12.057
17188W        W83597   2.265  14.555   3.197
17189W        W83598  39.301  38.962  14.702
17190W        W83599  21.376   0.972   1.235
17191W        W83600  19.747  16.243   0.758
17192W        W83601  15.491  40.645  11.606
17193W        W83602  10.293  15.780  11.973
17194W        W83603  29.071  15.915  13.549
17195W        W83604  30.553   1.988   3.019
17196W        W83605  42.974  39.049   1.452
17197W        W83606  25.708  44.778  14.243
17198W        W83607  10.793  11.055   0.005
17199W        W83608  25.741  24.160   0.321
17200W        W83609  13.411  34.231  11.422
17201W        W83610  43.967   3.843  13.631
17202W        W83611  19.553   4.387   1.067
17203W        W83612  34.009  41.041   1.385
17204W        W83613  17.485  38.859   1.313
17205W        W83614  38.059   8.123  11.205
17206W        W83615  16.213   0.506   0.702
17207W        W83616  34.026  35.915  13.294
17208W        W83617  30.481   9.037   5.060
17209W        W83618  43.076  11.784  12.009
17210W        W83619  33.277   6.398  13.399
17211W        W83620   8.301  32.432   0.033
17212W        W83621  13.684  40.750  13.093
17213W        W83622   3.215  17.113  12.492
17214W        W83623  28.011  14.337  14.846
17215W        W83624  22.693  37.155   3.705
17216W        W83625  36.431  43.498  11.176
17217W        W83626  26.327  26.306  11.630
17218W        W83627  26.902  17.866   3.394
17219W        W83628  26.064  21.182  10.406
17220W        W83629  12.166  19.001  14.451
17221W        W83630  37.157   1.164   4.465
17222W        W83631  32.228  36.260   0.203
17223W        W83632  17.049   8.734   3.213
17224W        W83633  23.934  29.422  12.053
17225W        W83634  27.553  14.108  14.867
17226W        W83635  14.275   7.876  13.936
17227W        W83636   3.696  31.647  12.540
17228W        W83637   4.429  12.312   0.374
17229W        W83638  34.300  35.022  11.995
17230W        W83639  18.204  40.880   1.282
17231W        W83640   7.743  42.946  13.382
17232W        W83641   3.842  38.879  10.255
17233W        W83642   9.867  35.969   3.048
17234W        W83643  24.769  30.534  13.719
17235W        W83644  16.096  36.573   0.448
17236W        W83645  12.173  41.742   0.452
17237W        W83646  29.377  21.809   2.509
17238W        W83647  30.467  11.582  11.529
17239W        W83648  34.126   7.766   2.174
17240W        W83649  40.018  15.340   3.705
17241W        W83650   7.911   5.360  13.842
17242W        W83651  19.717  10.308   1.194
17243W        W83652  34.912  41.792   4.665
17244W        W83653  13.835  29.281   2.738
17245W        W83654   6.828  35.108  11.562
17246W        W83655   1.299   5.434   1.733
17247W        W83656  41.202  18.027   1.366
17248W        W83657  39.285   6.805  13.570
17249W        W83658  36.701  42.822  14.605
17250W        W83659  10.559  13.378   4.700
17251W        W83660  10.149  27.503  10.776
17252W        W83661  18.306  40.509  13.906
17253W        W83662  12.352   9.152  12.222
17254W        W83663  34.251  21.970   4.459
17255W        W83664  31.987  31.666   2.656
17256W        W83665  14.643  23.246   2.620
17257W        W83666  27.441   8.730  13.526
17258W        W83667   8.655  14.586  10.720
17259W        W83668  31.965  16.137  10.276
17260W        W83669  31.254   1.444   2.677
17261W        W83670  17.192   2.350   4.136
17262W        W83671  14.907  36.140   9.807
17263W        W83672  34.004  26.406   4.567
17264W        W83673   4.005  42.375   2.185
17265W        W83674  16.496  36.459  11.671
17266W        W83675  19.205  29.276   2.785
17267W        W83676  26.070   7.262   2.174
17268W        W83677  12.298  23.926  13.148
17269W        W83678  42.364  37.101   3.289
17270W        W83679  35.984  33.622  12.193
17271W        W83680  25.083  11.436  10.239
17272W        W83681  21.319  33.192  13.420
17273W        W83682  25.415   6.259   0.451
17274W        W83683  34.347  35.615   0.003
17275W        W83684  29.525  23.642   4.172
17276W        W83685  17.051   8.842   4.105
17277W        W83686  40.905  42.044  14.637
17278W        W83687  14.070  22.144   0.815
17279W        W83688  38.175  42.517   1.786
17280W        W83689  42.608   7.299   5.630
17281W        W83690  32.214  22.851   2.181
17282W        W83691   0.833  25.534  13.092
17283W        W83692  17.092  26.108   0.341
17284W        W83693  15.437  27.729   3.377
17285W        W83694  21.560  41.314   4.679
17286W        W83695  25.811  13.824   4.193
17287W        W83696  21.660   2.141   4.527
17288W        W83697   3.659  12.421   3.708
17289W        W83698  33.947  30.898  12.900
17290W        W83699  11.957  23.184   0.780
17291W        W83700  15.598   9.684  10.229
17292W        W83701  19.230  21.916   1.720
17293W        W83702  28.478  43.741   0.346
17294W        W83703  22.633  44.366  14.984
17295W        W83704  13.625  39.870   1.758
17296W        W83705  22.236  10.109   1.927
17297W        W83706  43.667  11.893  10.229
17298W        W83707   5.936   5.319   0.934
17299W        W83708  39.620  28.584   4.507
17300W        W83709  18.763  44.453  14.474
17301W        W83710  38.654   7.728  14.375
17302W        W83711  17.650  42.364   2.196
17303W        W83712  25.024  39.178  13.166
17304W        W83713  44.457  16.744   2.752
17305W        W83714  22.485  42.425  11.276
17306W        W83715  35.247   6.007  14.817
17307W        W83716  43.831   6.640   0.364
17308W        W83717  31.078  37.412   1.647
17309W        W83718  42.347  20.537   2.848
17310W        W83719  15.355  22.987  14.109
17311W        W83720  24.489   9.676   0.066
17312W        W83721  39.383  29.015   0.919
17313W        W83722  32.114  32.006   2.276
17314W        W83723   6.745  36.771   2.335
17315W        W83724  23.902  14.444   0.564
17316W        W83725  22.745  19.155   1.330
17317W        W83726  30.661  33.241   2.633
17318W        W83727  32.382  22.339  11.594
17319W        W83728  23.324   2.484   1.584
17320W        W83729  25.028  29.172  11.605
17321W        W83730   0.951   8.650   2.695
17322W        W83731  38.955  41.895  13.428
17323W        W83732  26.808  27.701   3.843
17324W        W83733  17.799  26.862  11.068
17325W        W83734  33.589  28.044   3.696
17326W        W83735   3.011  20.755   0.555
17327W        W83736  42.874  28.055  13.356
17328W        W83737  21.806  36.837  14.003
17329W        W83738  13.099  23.135   4.586
17330W        W83739  33.324  32.088  11.086
17331W        W83740  35.301  44.387  10.983
17332W        W83741  14.271  29.476  14.338
17333W        W83742   7.901  17.569  11.118
17334W        W83743  14.622   2.033   2.400
17335W        W83744   6.394  21.802   3.406
17336W        W83745  31.658  18.675  12.333
17337W        W83746  27.234  35.823   0.320
17338W        W83747  42.923  41.427  11.328
17339W        W83748  44.329  19.255   0.955
17340W        W83749  13.014   7.887   3.624
17341W        W83750  17.132  24.238  10.711
17342W        W83751  29.858   9.620  13.794
17343W        W83752  25.629  15.600  12.462
17344W        W83753  11.664  44.829   0.776
17345W        W83754  21.118  31.468  12.316
17346W        W83755  38.369   6.478   0.800
17347W        W83756  15.202   2.369  11.197
17348W        W83757  15.922  40.541   5.274
17349W        W83758  25.432  40.496  11.612
17350W        W83759  32.567  21.956  13.468
17351W        W83760  24.994  10.590   1.956
17352W        W83761   9.396  10.503  12.284
17353W        W83762  30.368  15.273   1.269
17354W        W83763  30.092  40.435   2.777
17355W        W83764  34.096  23.625   3.672
17356W        W83765  43.502  16.497  13.018
17357W        W83766  11.197   7.787   2.766
17358W        W83767  40.554  27.805  13.940
17359W        W83768  26.006  18.280   4.301
17360W        W83769  28.213   0.403   3.239
17361W        W83770  21.461  38.850  12.707
17362W        W83771   3.863  26.110   2.949
17363W        W83772   7.299  35.844  13.510
17364W        W83773  38.398  32.996  14.331
17365W        W83774  39.106  34.517   2.488
17366W        W83775  18.195  35.150   0.765
17367W        W83776  42.346   0.445  10.413
17368W        W83777  35.914  34.782  13.592
17369W        W83778  35.857  38.551  12.509
17370W        W83779  29.169  29.697  10.813
17371W        W83780  18.041   1.766  10.892
17372W        W83781  44.438  13.205  10.536
17373W        W83782  34.331   1.395   2.865
17374W        W83783  28.968  15.583   2.738
17375W        W83784   8.664   2.220   3.272
17376W        W83785  44.137  22.513  12.531
17377W        W83786  22.058   7.905   1.285
17378W        W83787  10.733  32.247   1.361
17379W        W83788  40.055  27.766  11.521
17380W        W83789  37.127  36.912  13.983
17381W        W83790  19.130  35.081  11.976
17382W        W83791  25.516  20.280  10.311
17383W        W83792  30.945  22.137   2.366
17384W        W83793  27.433  44.557   1.844
17385W        W83794  27.106  36.277  11.723
17386W        W83795  31.571  32.191   0.944
17387W        W83796  13.305  42.844  14.465
17388W        W83797   1.332  29.802  14.042
17389W        W83798  27.491  27.906  14.999
17390W        W83799  15.343  27.834   1.923
17391W        W83800  13.620  27.899   3.756
17392W        W83801  16.202   9.412  14.913
17393W        W83802   3.337  23.734  12.905
17394W        W83803  37.997   0.981  12.724
17395W        W83804  29.218  14.754   1.224
17396W        W83805  24.234  32.606   0.730
17397W        W83806   6.699  41.035   4.230
17398W        W83807  25.900  22.047   3.814
17399W        W83808  13.237  42.659  11.502
17400W        W83809  39.377   1.760   4.623
17401W        W83810  14.924  11.105   1.435
17402W        W83811  21.756  24.091  14.038
17403W        W83812   0.747   4.007  11.202
17404W        W83813   0.013  15.951  10.530
17405W        W83814  21.302  26.563  13.462
17406W        W83815  22.485   5.128   3.178
17407W        W83816  24.554  32.009   3.405
17408W        W83817   0.539   1.832  10.992
17409W        W83818  13.683  41.624   1.004
17410W        W83819   1.722  43.509  13.514
17411W        W83820  35.150  32.637   3.768
17412W        W83821  17.836  40.277   1.804
17413W        W83822  33.544  37.041   2.375
17414W        W83823  42.010  33.444  11.265
17415W        W83824   1.880  26.730   3.932
17416W        W83825  40.667  37.593  14.316
17417W        W83826  18.516  32.543  14.346
17418W        W83827  44.729  32.029  11.881
17419W        W83828   5.664  23.051  12.982
17420W        W83829  38.561  42.432   0.206
17421W        W83830  29.223   7.241  12.874
17422W        W83831  37.288  41.426  13.311
17423W        W83832  22.637  38.424   1.293
17424W        W83833  23.020  18.887   3.895
17425W        W83834  14.823  20.467  12.752
17426W        W83835  23.558  34.325  13.243
17427W        W83836  25.923  39.041   0.303
17428W        W83837   7.803   9.436  14.096
17429W        W83838   3.377  13.879   2.978
17430W        W83839   3.421  12.047   2.820
17431W        W83840  29.887   2.295   0.031
17432W        W83841  44.720   8.343  10.342
17433W        W83842  42.972  24.690  11.584
17434W        W83843  38.579   9.428  11.203
17435W        W83844  21.623  39.419   3.299
17436W        W83845  10.667  40.065  10.819
17437W        W83846  19.084  11.188  14.858
17438W        W83847   9.421  16.064   3.871
17439W        W83848  28.500  34.234   4.652
17440W        W83849  38.507  15.766   0.998
17441W        W83850  44.532  10.290   2.564
17442W        W83851  26.905  34.829  12.967
17443W        W83852  19.155   7.945  14.894
17444W        W83853  20.189  31.077  13.436
17445W        W83854  28.201   1.275  12.475
17446W        W83855   9.977  38.925  13.467
17447W        W83856  29.566  44.614  10.528
17448W        W83857   1.044  24.161   3.722
17449W        W83858  20.044  33.504   1.609
17450W        W83859  18.140  12.083  12.530
17451W        W83860   5.805  26.229   2.987
17452W        W83861  10.276  26.776  13.031
17453W        W83862   2.989   4.945  12.438
17454W        W83863  17.776  35.042  11.679
17455W        W83864  27.455  43.565   4.465
17456W        W83865  29.389   8.676  13.601
17457W        W83866  25.975  15.170   1.685
17458W        W83867  17.118  11.728  13.041
17459W        W83868  19.806  26.948  11.994
17460W        W83869  35.708  42.978  13.507
17461W        W83870  11.874   8.514  10.203
17462W        W83871  37.948  27.142   0.921
17463W        W83872  32.035  10.580   1.659
17464W        W83873  44.838  35.603   0.271
17465W        W83874  19.673   8.026  12.573
17466W        W83875   1.936  35.913   0.312
17467W        W83876   7.303  28.831   1.485
17468W        W83877  15.272  17.237   0.753
17469W        W83878  25.917  30.872  13.990
17470W        W83879  27.061  34.269  13.897
17471W        W83880  25.547  31.439  14.283
17472W        W83881  15.034  30.256  12.534
17473W        W83882  31.496   7.672  10.470
17474W        W83883  34.315  37.689  10.811
17475W        W83884   8.271  35.576  13.873
17476W        W83885  11.442  32.477  12.283
17477W        W83886  40.254  30.712   4.471
17478W        W83887   0.226  41.858   1.242
17479W        W83888  39.139  40.599   4.542
17480W        W83889  21.234  39.735   4.186
17481W        W83890   5.409  29.260   0.457
17482W        W83891  36.034  16.870  11.580
17483W        W83892  30.618  43.531   3.237
17484W        W83893   8.270   4.502  12.126
17485W        W83894  38.824  11.218  10.610
17486W        W83895  34.814  41.896   0.807
17487W        W83896  24.498  28.367  10.726
17488W        W83897   0.850   1.012  14.964
17489W        W83898   4.927  23.035  10.771
17490W        W83899  34.331   0.422   0.365
17491W        W83900  10.598  39.363  12.387
17492W        W83901  23.199   1.347  11.187
17493W        W83902  11.237  30.778   3.727
17494W        W83903  44.491  36.647  12.479
17495W        W83904  37.368   9.028   3.410
17496W        W83905  18.361   0.562   1.930
17497W        W83906  41.952  44.990   3.000
17498W        W83907  24.170  30.547   4.527
17499W        W83908  31.559   8.218  13.759
17500W        W83909  24.220  23.325  12.915
17501W        W83910  13.841   4.295   3.680
17502W        W83911  14.706  31.244  11.765
17503W        W83912  32.388  43.552   4.507
17504W        W83913  38.057   8.665  14.475
17505W        W83914  26.702  14.355  14.316
17506W        W83915   3.168  22.208   2.678
17507W        W83916  34.060   1.752   3.743
17508W        W83917  11.834  29.944   3.652
17509W        W83918  37.943  19.708   3.877
17510W        W83919  40.588  44.270  14.059
17511W        W83920  15.610  10.137   0.976
17512W        W83921  33.927   5.489   3.850
17513W        W83922  28.141  39.338  12.411
17514W        W83923  23.718  39.980  13.524
17515W        W83924  30.642  20.301  13.414
17516W        W83925  38.873  17.564   4.037
17517W        W83926  27.239   1.442   1.642
17518W        W83927  11.718  24.867   2.680
17519W        W83928   4.019   6.315   1.660
17520W        W83929  30.027  40.988   0.471
17521W        W83930  39.992  22.703  13.753
17522W        W83931  27.918  30.135   4.775
17523W        W83932  13.649  44.955  11.537
17524W        W83933  44.102  14.557   0.430
17525W        W83934  10.137   2.370  11.629
17526W        W83935  22.568  23.119   2.902
17527W        W83936  23.855  34.629  14.496
17528W        W83937  18.261  25.227  11.287
17529W        W83938  32.216  33.104  13.016
17530W        W83939  26.911  21.683   0.451
17531W        W83940  15.271   1.482   0.461
17532W        W83941  35.647   5.490   1.844
17533W        W83942   9.022  28.904   0.991
17534W        W83943  44.486  14.356   2.095
17535W        W83944   5.944  12.702   3.275
17536W        W83945  29.592  13.812  14.070
17537W        W83946  39.571  25.714   2.731
17538W        W83947  43.278  12.980  14.556
17539W        W83948  29.881  32.567   1.819
17540W        W83949  29.372  28.626  10.725
17541W        W83950   1.202  12.843  11.017
17542W        W83951  39.002  15.171   4.730
17543W        W83952  26.009  31.617  13.506
17544W        W83953  40.787  28.954  13.043
17545W        W83954  13.560  43.867   2.187
17546W        W83955  29.156  41.033  11.293
17547W        W83956  21.399   8.160  10.875
17548W        W83957  32.805  23.296   1.397
17549W        W83958   4.968  21.759   4.969
17550W        W83959   7.561  23.606  12.828
17551W        W83960  41.041  10.119  12.109
17552W        W83961  32.560  26.152   3.229
17553W        W83962   9.747  36.936  11.076
17554W        W83963   8.924  29.116  11.581
17555W        W83964   8.253   8.423   1.870
17556W        W83965  14.643  10.889  12.392
17557W        W83966  14.228  26.239   2.739
17558W        W83967  21.056  41.091   2.853
17559W        W83968  29.529  14.089   4.507
17560W        W83969  43.728   1.196  12.986
17561W        W83970   6.653  32.432   2.287
17562W        W83971  34.544  18.061  11.247
17563W        W83972  14.141  36.073   0.686
17564W        W83973  30.494   7.298   4.803
17565W        W83974   8.112  39.540   3.562
17566W        W83975  23.590  20.033  12.606
17567W        W83976   0.349  36.113  12.490
17568W        W83977  17.893  13.139   4.101
17569W        W83978  32.464  38.366   3.609
17570W        W83979  25.255  18.998   4.121
17571W        W83980   4.038   2.265   1.394
17572W        W83981  29.590  32.628  11.185
17573W        W83982  42.973  36.525   4.881
17574W        W83983  16.799  24.890   0.951
17575W        W83984  34.454  22.486   4.226
17576W        W83985  38.365   6.203  11.582
17577W        W83986  25.991  26.495   2.754
17578W        W83987  43.379  44.624   3.231
17579W        W83988  42.830  17.054  12.347
17580W        W83989  22.699  25.159  14.249
17581W        W83990  25.614   1.764   4.982
17582W        W83991  31.638   5.334   2.071
17583W        W83992  37.532  34.980   0.394
17584W        W83993  33.091   0.216  11.137
17585W        W83994  11.324   9.613  13.960
17586W        W83995   9.708  16.558   0.770
17587W        W83996   4.772  24.498   1.660
17588W        W83997  25.137  27.455  12.866
17589W        W83998  27.592  29.140  11.035
17590W        W83999  16.129  33.684  10.178
17591W        W84000  31.170  39.528   2.333
17592W        W84001  40.327  39.950   2.698
17593W        W84002  12.292  32.496   3.577
17594W        W84003  20.626  30.371  14.396
17595W        W84004   8.792  38.306   2.727
17596W        W84005  23.270   0.783  14.472
17597W        W84006  43.177  21.678   3.212
17598W        W84007   7.189  23.641   2.915
17599W        W84008  16.088   7.209   0.922
17600W        W84009  18.088  15.023   4.624
17601W        W84010   9.852  21.720  14.439
17602W        W84011  42.466  38.601   3.349
17603W        W84012   0.918  29.902  13.371
17604W        W84013   6.081  30.119   4.933
17605W        W84014  31.445  43.466   2.688
17606W        W84015  29.508  25.652   1.566
17607W        W84016  40.713  26.712   4.187
17608W        W84017  17.186  42.356   4.136
17609W        W84018  22.684  17.719  12.115
17610W        W84019  37.347   5.366   2.255
17611W        W84020  12.461  14.083   0.011
17612W        W84021  13.507  14.326  13.390
17613W        W84022  16.496   4.814  11.626
17614W        W84023  24.947  37.652   2.242
17615W        W84024  37.016   1.734  14.103
17616W        W84025  19.654   5.972   0.848
17617W        W84026  19.910  30.842  12.459
17618W        W84027  18.658  15.643   9.956
17619W        W84028  29.029  30.439   0.501
17620W        W84029  10.136  40.411  10.962
17621W        W84030  27.010  25.589   1.800
17622W        W84031  36.696  22.011  14.359
17623W        W84032   6.599  41.573  11.636
17624W        W84033  27.251  31.706  13.051
17625W        W84034  15.783  30.443   3.226
17626W        W84035  44.428  20.808  10.909
17627W        W84036  40.831  43.049  10.559
17628W        W84037  10.227  33.057  14.238
17629W        W84038  19.696  39.472   0.457
17630W        W84039   5.830   7.906  13.191
17631W        W84040  16.624  33.642   0.822
17632W        W84041  35.381  39.070   1.140
17633W        W84042  44.672  39.880  13.860
17634W        W84043  40.841  34.216  11.651
17635W        W84044  40.341   4.089   2.600
17636W        W84045  14.261  18.079   0.286
17637W        W84046  13.146  27.863   0.942
17638W        W84047  36.265  20.455   1.127
17639W        W84048  12.168  44.888  13.035
17640W        W84049  23.585   9.218   2.282
17641W        W84050  43.549  44.574  14.904
17642W        W84051  14.129  31.880  13.841
17643W        W84052  13.132  19.376   0.958
17644W        W84053  15.751  37.559  14.518
17645W        W84054   6.459  43.818   1.790
17646W        W84055  42.094  39.966  10.574
17647W        W84056   5.708   6.007   2.340
17648W        W84057  32.209  26.718  10.421
17649W        W84058   6.729  15.650  10.641
17650W        W84059  15.094  26.412   4.094
17651W        W84060  40.724  32.808  11.668
17652W        W84061  25.481  13.382  13.958
17653W        W84062  40.738   1.102   0.904
17654W        W84063  12.855  12.574   3.117
17655W        W84064  30.375  21.192  14.985
17656W        W84065  39.507  12.141   1.236
17657W        W84066  39.047   6.919  14.435
17658W        W84067   3.851  34.332   2.800
17659W        W84068  23.429  18.674   3.658
17660W        W84069  29.742  39.999  13.803
17661W        W84070  12.687  43.313  10.447
17662W        W84071  39.563  11.314   4.234
17663W        W84072   0.373  10.410  12.476
17664W        W84073  23.300  16.076  10.637
17665W        W84074  15.891  15.225  11.347
17666W        W84075  10.590  34.599  12.833
17667W        W84076   6.878  12.226   1.262
17668W        W84077   5.169  33.354  13.895
17669W        W84078  22.230   1.642  12.600
17670W        W84079  27.716   6.879   5.361
17671W        W84080   4.990  16.869  11.707
17672W        W84081  40.418   1.422  10.660
17673W        W84082  35.364  28.975   2.128
17674W        W84083   1.046  43.900   4.497
17675W        W84084   5.846  26.193   1.223
17676W        W84085  15.770   4.975  13.327
17677W        W84086  38.053  11.546  11.806
17678W        W84087   3.188  15.118   3.835
17679W        W84088  12.570   4.709   3.755
17680W        W84089  11.667   7.723  13.080
17681W        W84090  19.243  40.600  11.194
17682W        W84091  11.367  35.061   3.616
17683W        W84092  32.126  13.784  14.754
17684W        W84093   9.982  32.612  14.436
17685W        W84094   7.255   0.393   1.396
17686W        W84095  24.567   5.614  14.311
17687W        W84096  33.089   4.977  11.979
17688W        W84097  19.050  30.244  13.386
17689W        W84098   5.334  31.469   1.400
17690W        W84099  42.699  24.496   3.728
17691W        W84100  32.577   9.604  11.074
17692W        W84101  12.080   5.587   2.250
17693W        W84102  35.089  17.689   3.992
17694W        W84103  12.857  28.206   2.688
17695W        W84104  11.433  26.661   3.682
17696W        W84105  12.353   7.247   2.717
17697W        W84106  34.445  16.199  12.433
17698W        W84107  25.557  33.167   0.443
17699W        W84108  15.820  32.333   0.352
17700W        W84109  30.176  39.266   0.294
17701W        W84110  12.313   5.676   1.293
17702W        W84111  40.458  40.590  11.117
17703W        W84112   8.803  28.594   2.920
17704W        W84113  33.646  29.978   1.368
17705W        W84114  24.547  13.660  10.756
17706W        W84115   7.737  10.149   2.301
17707W        W84116  13.833  28.477  12.086
17708W        W84117  38.319   3.854  10.604
17709W        W84118  26.441   4.778   4.928
17710W        W84119   2.923   8.844  13.412
17711W        W84120  22.281  26.644  14.332
17712W        W84121  15.360  14.096   4.444
17713W        W84122  35.129   7.722   3.374
17714W        W84123  36.087  17.790   4.687
17715W        W84124   5.638  17.215   1.869
17716W        W84125  28.424  22.253  13.003
17717W        W84126  43.034   6.456   5.216
17718W        W84127  26.899  44.451  12.535
17719W        W84128  37.462   8.109   4.547
17720W        W84129  36.427  41.061   0.338
17721W        W84130  33.222   5.903   2.824
17722W        W84131  34.488  19.536   0.017
17723W        W84132   5.340   7.233   2.330
17724W        W84133  13.249  23.485   2.813
17725W        W84134  29.058   1.334   0.981
17726W        W84135  19.371   8.633   2.824
17727W        W84136  26.659  22.727   1.125
17728W        W84137   9.355  13.101  11.411
17729W        W84138   4.981  34.567   1.276
17730W        W84139  14.310  23.946   2.147
17731W        W84140  27.702  10.647  13.837
17732W        W84141  14.755  29.595  10.995
17733W        W84142  10.890   3.168  14.529
17734W        W84143   5.601  23.067   3.595
17735W        W84144  41.980  33.943  11.012
17736W        W84145  16.860  39.327   3.650
17737W        W84146  26.962  42.357   0.357
17738W        W84147  32.550  36.835  12.404
17739W        W84148  34.068  44.399   4.714
17740W        W84149  39.438   4.772   3.613
17741W        W84150  32.249  19.119   1.703
17742W        W84151  40.507  30.667   1.874
17743W        W84152  14.748  40.925  12.571
17744W        W84153  13.646  28.454  13.830
17745W        W84154  38.327   7.818   0.297
17746W        W84155  18.329  12.349   2.770
17747W        W84156   2.851  19.244   4.600
17748W        W84157  16.120  34.398   1.883
17749W        W84158  27.459  34.016  12.033
17750W        W84159  14.106  25.205  11.018
17751W        W84160  27.151  15.430   2.807
17752W        W84161  19.583  33.007   4.596
17753W        W84162   9.206  32.048  10.897
17754W        W84163   3.888  36.337   1.460
17755W        W84164   3.455  36.874  12.826
17756W        W84165  38.286  36.053   3.745
17757W        W84166  38.479  28.915  13.286
17758W        W84167  27.744  12.946   0.648
17759W        W84168  36.530  43.554   0.745
17760W        W84169  27.169   1.387   2.986
17761W        W84170   9.776   2.850   0.869
17762W        W84171  32.369  12.432   2.889
17763W        W84172  29.989  19.955   2.801
17764W        W84173  28.545  16.933   2.302
17765W        W84174   6.812  26.109   3.631
17766W        W84175  10.444  44.380  13.893
17767W        W84176  16.392  23.313   0.773
17768W        W84177  18.017  19.693  13.980
17769W        W84178  13.248  18.524   1.387
17770W        W84179  39.136  25.549  13.006
17771W        W84180  16.395  39.562  14.242
17772W        W84181  39.542   5.333   4.494
17773W        W84182  21.705   7.963  14.956
17774W        W84183   3.758  44.771   3.572
17775W        W84184  14.553  44.946  11.634
17776W        W84185  24.211   8.219   4.715
17777W        W84186   0.928  27.631   0.783
17778W        W84187   8.479  21.132  10.904
17779W        W84188  44.980  42.365   0.439
17780W        W84189  44.848  24.945   0.033
17781W        W84190   4.779  17.827   4.015
17782W        W84191  22.647   2.169   3.178
17783W        W84192   8.113   9.456  10.658
17784W        W84193  17.857  41.807   3.787
17785W        W84194  11.039  41.315  11.354
17786W        W84195  44.236  31.168   0.280
17787W        W84196  12.936  24.418  12.796
17788W        W84197  20.540   9.246   2.723
17789W        W84198  26.000  41.377  11.285
17790W        W84199  10.799  28.378   1.406
17791W        W84200  17.270  22.297  11.621
17792W        W84201  23.413   0.537   3.019
17793W        W84202  38.017   0.251   2.175
17794W        W84203  37.974   4.221  14.209
17795W        W84204  37.033  41.953  13.092
17796W        W84205  26.515  15.664   1.631
17797W        W84206  32.134  26.579   4.047
17798W        W84207   9.788  22.423  12.119
17799W        W84208  35.008  37.194   3.720
17800W        W84209  13.651  25.266  12.533
17801W        W84210  44.272  25.567   2.837
17802W        W84211  25.562  29.545  13.089
17803W        W84212  43.247   6.706  12.396
17804W        W84213  26.528   1.521   1.153
17805W        W84214   3.487  33.019   2.299
17806W        W84215  39.490  24.200   2.274
17807W        W84216   6.264  40.155  11.407
17808W        W84217  35.125   2.716  10.795
17809W        W84218  39.525  35.939  12.508
17810W        W84219  10.366  22.491  10.898
17811W        W84220  26.779  12.318  11.141
17812W        W84221  39.534  32.345   5.073
17813W        W84222  32.113  25.599   4.607
17814W        W84223   5.566  35.017  12.133
17815W        W84224  31.704   0.946   0.229
17816W        W84225  27.205  31.369   1.712
17817W        W84226  36.780  39.390   3.251
17818W        W84227  41.574  26.542  13.361
17819W        W84228  33.251  29.477  12.671
17820W        W84229  19.294  25.595  11.900
17821W        W84230  21.032   9.919  13.340
17822W        W84231   9.260  44.084  12.823
17823W        W84232  29.182  28.732   1.887
17824W        W84233  10.840   0.687  13.761
17825W        W84234  12.289  28.008   4.571
17826W        W84235  12.867  21.330   5.487
17827W        W84236  18.318   1.170   1.841
17828W        W84237   0.512  26.448   3.724
17829W        W84238  17.472  23.578  10.439
17830W        W84239  21.080  41.740   4.870
17831W        W84240   5.692  14.135   0.699
17832W        W84241   8.197  26.471  14.362
17833W        W84242   6.664   5.234   2.125
17834W        W84243  44.537  19.763   1.559
17835W        W84244  20.256  34.947  12.110
17836W        W84245  42.227  13.914   0.887
17837W        W84246  12.229  44.380  12.809
17838W        W84247  12.120   5.630  11.539
17839W        W84248  19.662  37.832  10.734
17840W        W84249  30.942  33.817  12.803
17841W        W84250  30.887  18.111   2.162
17842W        W84251  13.356  28.659   3.477
17843W        W84252  25.779  15.761   2.320
17844W        W84253  33.357   5.427  12.049
17845W        W84254  10.350  34.112   1.425
17846W        W84255  39.714  26.150   2.492
17847W        W84256  26.269  27.862   4.516
17848W        W84257  22.481  27.232   0.392
17849W        W84258   2.427   6.352  12.442
17850W        W84259   9.674   0.305  10.329
17851W        W84260  31.524  25.081  12.586
17852W        W84261  25.883  22.731  12.514
17853W        W84262  10.713  35.696  10.295
17854W        W84263  27.628  28.433   1.318
17855W        W84264  26.985  14.180  10.747
17856W        W84265  41.999  24.086  13.654
17857W        W84266  28.982  38.826   0.411
17858W        W84267  21.517  40.570  13.239
17859W        W84268   1.612  31.881   0.488
17860W        W84269  34.196  28.119  14.876
17861W        W84270  21.085  15.405  11.393
17862W        W84271   9.934  25.025  14.365
17863W        W84272  29.977  29.222  12.783
17864W        W84273  39.555  26.544  10.847
17865W        W84274   7.373  10.372  13.023
17866W        W84275  31.060  10.612  11.160
17867W        W84276  38.175  34.748   3.256
17868W        W84277  31.608  27.665   0.422
17869W        W84278  15.609  39.809   4.232
17870W        W84279   5.139  36.449  13.340
17871W        W84280  17.107  24.695  11.858
17872W        W84281   6.346   7.411   0.327
17873W        W84282  16.313   8.854   0.457
17874W        W84283  22.270  35.903   4.605
17875W        W84284   4.911  12.625   3.136
17876W        W84285  11.830  13.716   3.259
17877W        W84286  34.296  10.642   0.270
17878W        W84287  26.997  41.591  12.998
17879W        W84288  21.637  24.704   1.191
17880W        W84289  21.059  26.161   2.687
17881W        W84290   0.388  12.195   4.391
17882W        W84291  27.939   9.307   0.408
17883W        W84292  20.767   6.282   0.922
17884W        W84293  34.180  37.430  12.022
17885W        W84294   6.190  43.860   4.501
17886W        W84295   0.947  38.898  14.071
17887W        W84296  11.452  33.680  13.080
17888W        W84297  37.087  37.437  14.740
17889W        W84298  44.499  42.998  11.607
17890W        W84299  26.008  32.883  10.721
17891W        W84300  21.439  26.916  14.362
17892W        W84301  22.537  42.831   3.684
17893W        W84302  20.366  42.185  13.439
17894W        W84303  13.266  11.335  11.682
17895W        W84304  26.553  12.300   0.059
17896W        W84305  32.472   8.784  12.472
17897W        W84306   2.822  36.201   0.026
17898W        W84307  34.535  23.344   3.776
17899W        W84308  34.098  38.105  13.512
17900W        W84309  40.511  20.821   4.895
17901W        W84310  27.683  32.575  10.943
17902W        W84311  29.597  27.568  13.533
17903W        W84312  27.192  20.055   3.619
17904W        W84313   5.522  20.061   1.682
17905W        W84314  41.510  19.122  13.614
17906W        W84315  33.545  42.487   0.973
17907W        W84316  26.250  13.022  11.088
17908W        W84317  17.810  25.060   2.222
17909W        W84318  37.354  25.498  11.285
17910W        W84319  20.547  19.553   4.444
17911W        W84320  14.790  22.608  10.780
17912W        W84321  15.829  14.866   0.433
17913W        W84322   0.428  16.156  11.203
17914W        W84323   7.003  28.004   0.640
17915W        W84324  38.936  40.691  11.467
17916W        W84325  40.686  11.227   2.934
17917W        W84326  42.224  30.006   3.624
17918W        W84327  13.244  23.662  12.440
17919W        W84328  16.159  17.789   1.816
17920W        W84329  19.146  42.790  14.499
17921W        W84330  36.287  35.947   1.301
17922W        W84331  41.804   5.082   2.111
17923W        W84332  28.085  32.108   4.157
17924W        W84333  21.505   1.785   4.923
17925W        W84334   4.802   2.538  12.039
17926W        W84335  18.939  25.532   1.361
17927W        W84336  39.409  35.683  11.014
17928W        W84337  13.448  19.816   4.067
17929W        W84338   8.851  23.658   3.525
17930W        W84339   1.755   3.013  13.829
17931W        W84340  17.052  31.440  12.896
17932W        W84341  32.697  38.645   1.888
17933W        W84342   1.148  37.343  10.632
17934W        W84343  32.505  17.213  12.499
17935W        W84344   1.902  13.160   1.402
17936W        W84345  21.472   4.172  13.897
17937W        W84346  10.604  43.270  13.017
17938W        W84347  19.000  28.464   3.265
17939W        W84348  44.330  29.616  14.954
17940W        W84349  28.661  42.283  11.210
17941W        W84350   2.935  28.714   0.825
17942W        W84351  36.531  42.390  11.540
17943W        W84352   7.139  14.490  11.106
17944W        W84353  44.408  11.325   1.681
17945W        W84354  14.284   8.173  11.159
17946W        W84355  33.047  31.490  12.151
17947W        W84356  16.520  29.075   3.243
17948W        W84357  12.203   9.144  14.793
17949W        W84358  23.984  43.521  12.724
17950W        W84359  41.290  21.057   1.735
17951W        W84360  11.354  19.053   1.925
17952W        W84361   7.277  35.623   3.355
17953W        W84362  34.340  25.747  12.685
17954W        W84363  15.818  23.123  11.559
17955W        W84364  20.576  12.234  10.644
17956W        W84365   7.866   7.634  12.488
17957W        W84366  37.247   3.213   2.774
17958W        W84367  38.013  11.393  11.223
17959W        W84368  32.465  34.315  14.364
17960W        W84369   2.023   9.823  12.607
17961W        W84370  36.555  24.443  14.473
17962W        W84371   1.858  35.469  14.968
17963W        W84372   5.799  31.464   0.292
17964W        W84373  19.618  27.737   1.857
17965W        W84374  44.289   4.301  12.548
17966W        W84375   1.950  14.147   2.308
17967W        W84376  26.952   2.423  11.524
17968W        W84377  27.117  33.143   2.320
17969W        W84378  16.704  12.861  13.489
17970W        W84379   4.039  27.071   0.510
17971W        W84380  15.657  22.535   2.600
17972W        W84381  30.526  26.235  13.908
17973W        W84382  15.756   1.750   3.406
17974W        W84383  25.180  31.685   4.230
17975W        W84384  35.094  12.247  11.315
17976W        W84385  14.315  27.178   3.145
17977W        W84386   7.991  25.210  13.833
17978W        W84387   5.250  19.522  14.885
17979W        W84388   5.332  37.835  14.629
17980W        W84389  13.095  30.686  11.196
17981W        W84390  20.636   3.775  14.618
17982W        W84391  17.024  10.977  11.624
17983W        W84392   7.221  34.435  11.154
17984W        W84393  41.842  19.620  12.124
17985W        W84394  33.361   3.289  12.571
17986W        W84395  18.634  39.997   2.273
17987W        W84396  17.081  25.725  13.844
17988W        W84397   9.619  17.821  12.366
17989W        W84398  35.281   1.242   1.193
17990W        W84399  14.628  28.575  12.513
17991W        W84400   4.199  43.217   4.084
17992W        W84401  36.796  19.187   0.478
17993W        W84402  18.869  37.635  13.112
17994W        W84403  10.118  22.390   4.560
17995W        W84404  22.507  10.426  10.599
17996W        W84405  23.249   2.779  12.388
17997W        W84406   8.765   7.662  12.385
17998W        W84407   8.168  30.368   3.213
17999W        W84408  33.872  43.757   1.650
18000W        W84409  20.868  16.831  14.924
18001W        W84410  34.420  24.813  13.113
18002W        W84411  16.664  11.401  12.118
18003W        W84412   4.810  35.987   1.063
18004W        W84413  26.988  44.812  14.964
18005W        W84414  35.986  11.501  13.016
18006W        W84415  21.857   9.718   1.361
18007W        W84416  21.708  24.604  10.752
18008W        W84417  42.083  43.429  13.950
18009W        W84418  41.909  12.367  12.334
18010W        W84419   8.763  13.339   1.390
18011W        W84420  35.542   0.684  14.459
18012W        W84421  12.223   7.945   0.648
18013W        W84422  34.426   9.917   4.210
18014W        W84423   3.238   5.327   0.842
18015W        W84424   9.295  31.045  12.951
18016W        W84425  20.213  15.343   1.317
18017W        W84426   1.146   1.315   0.874
18018W        W84427  38.855  31.480   0.848
18019W        W84428   4.777  44.491  13.553
18020W        W84429  29.499  35.323  10.817
18021W        W84430   4.810  43.548   2.377
18022W        W84431   0.920   9.979  13.178
18023W        W84432  23.484  30.965  10.582
18024W        W84433  13.197  33.839  10.660
18025W        W84434  41.257  17.570   2.726
18026W        W84435  18.208   3.570  11.933
18027W        W84436   4.096  23.209  11.536
18028W        W84437  11.199  25.061   0.148
18029W        W84438  10.713  20.307  11.145
18030W        W84439  18.547   1.310  13.714
18031W        W84440  10.296   0.263  14.386
18032W        W84441  44.799  14.651   2.691
18033W        W84442  38.097  37.937  14.951
18034W        W84443  28.136  21.724  12.902
18035W        W84444  13.089  16.198  12.140
18036W        W84445  41.736  18.229   4.531
18037W        W84446   8.701  30.619   2.764
18038W        W84447  24.872  24.640   4.658
18039W        W84448  34.477   4.723  13.085
18040W        W84449  18.755  33.356  10.715
18041W        W84450  42.755  42.906  10.393
18042W        W84451  26.544  28.876   4.124
18043W        W84452  18.528  26.454  13.407
18044W        W84453  36.882  25.549   3.279
18045W        W84454  14.287  14.866   1.967
18046W        W84455  32.830  35.922   3.413
18047W        W84456  31.152  12.287  12.963
18048W        W84457  27.333  42.746   0.376
18049W        W84458  13.174   2.933   2.675
18050W        W84459   4.490  34.168  14.504
18051W        W84460  39.926   2.448   2.698
18052W        W84461  20.635  28.317   4.985
18053W        W84462  35.630  31.790  12.162
18054W        W84463   1.728   9.675  11.145
18055W        W84464  35.840  31.976  14.301
18056W        W84465  44.196  28.416   0.709
18057W        W84466   3.821  33.054   0.282
18058W        W84467   7.865  35.803  10.395
18059W        W84468  43.871   3.215  11.184
18060W        W84469  24.641  39.438  10.324
18061W        W84470   1.707  27.550   3.320
18062W        W84471   7.384  32.212   5.146
18063W        W84472  15.280  41.310  10.880
18064W        W84473   2.999  44.928  10.621
18065W        W84474  29.669  15.579   2.348
18066W        W84475  36.530  38.886  13.422
18067W        W84476  38.411  32.319   0.765
18068W        W84477  30.906  17.656   3.446
18069W        W84478  12.660  12.151   1.227
18070W        W84479  26.227  16.718   3.693
18071W        W84480   6.992   6.370   2.249
18072W        W84481  34.448   2.080   3.603
18073W        W84482  15.888  33.954  13.327
18074W        W84483  42.228  39.796  11.040
18075W        W84484   4.184  21.216   3.586
18076W        W84485  22.498  25.539  11.966
18077W        W84486   9.809  18.271  10.477
18078W        W84487   2.615  31.448   2.115
18079W        W84488  28.961   1.964  12.970
18080W        W84489  15.293  13.912   3.426
18081W        W84490  38.885   4.901  12.818
18082W        W84491  31.009   2.239  14.434
18083W        W84492  11.526  14.565  13.665
18084W        W84493  23.240   0.430  14.974
18085W        W84494  26.790  42.380  11.041
18086W        W84495  23.785  16.800   1.860
18087W        W84496  42.679   0.328  13.417
18088W        W84497  31.317   7.520   2.681
18089W        W84498  10.181  26.909  12.471
18090W        W84499  22.684  18.035   2.361
18091W        W84500  30.856  24.218   0.857
18092W        W84501  39.981  36.965  14.351
18093W        W84502  38.448  27.002   2.177
18094W        W84503  11.853   2.394   2.168
18095W        W84504   1.224  43.599  14.400
18096W        W84505  39.487  34.230  11.528
18097W        W84506  25.998  15.776   4.861
18098W        W84507  32.179   0.995  13.447
18099W        W84508  35.181  15.777  11.664
18100W        W84509  37.524   8.297  11.470
18101W        W84510  28.594   8.554   3.110
18102W        W84511  15.663   3.598   4.972
18103W        W84512  22.928  20.514   4.137
18104W        W84513  15.234  35.001   0.705
18105W        W84514  34.980   8.728  12.560
18106W        W84515  28.191  23.117   1.956
18107W        W84516  19.491  43.319  11.858
18108W        W84517  22.987  18.199  13.963
18109W        W84518  12.572  22.744   2.678
18110W        W84519  30.727  36.560  13.823
18111W        W84520  27.404  37.771  14.146
18112W        W84521   0.144  28.424   2.886
18113W        W84522  25.979  13.954   3.370
18114W        W84523  43.021  26.731   2.377
18115W        W84524  33.555  17.790   3.813
18116W        W84525  31.959  39.964  12.141
18117W        W84526  30.621  12.558  14.863
18118W        W84527  41.506  26.512   3.056
18119W        W84528  29.620  24.745   4.118
18120W        W84529  25.207  42.058   0.300
18121W        W84530  29.885  36.769  11.256
18122W        W84531   8.668  23.486   3.067
18123W        W84532  24.233   8.291  12.932
18124W        W84533   3.070   7.636  11.374
18125W        W84534   2.400  13.154  14.421
18126W        W84535  33.534  22.540  12.473
18127W        W84536  18.044  23.126  14.834
18128W        W84537  34.517  34.632  12.837
18129W        W84538  29.045   9.161   1.785
18130W        W84539  44.367   0.764   3.529
18131W        W84540  30.233  24.600  14.360
18132W        W84541  38.497  44.749  10.675
18133W        W84542  44.182  12.682  14.830
18134W        W84543  38.523  39.962   1.294
18135W        W84544  18.133  20.511   4.430
18136W        W84545  26.692  20.424  10.576
18137W        W84546  26.581  21.712  14.464
18138W        W84547  33.943   0.739  10.575
18139W        W84548  27.657  41.136  12.489
18140W        W84549  17.815  18.937  11.556
18141W        W84550  41.880   6.334   0.544
18142W        W84551  22.441   4.409  12.685
18143W        W84552   6.611  28.828   0.690
18144W        W84553  38.934   7.302   3.834
18145W        W84554   1.089  11.794  10.170
18146W        W84555  23.467  29.617   3.174
18147W        W84556  42.808  42.404   2.570
18148W        W84557  38.722  11.720   1.238
18149W        W84558   8.971  17.969  14.443
18150W        W84559  36.011  12.899  14.368
18151W        W84560  30.126  38.341  10.778
18152W        W84561  11.900  21.724   3.258
18153W        W84562   5.140   9.414  11.771
18154W        W84563  38.558  23.336   1.733
18155W        W84564  17.338  24.167   0.642
18156W        W84565  44.487  27.162   2.939
18157W        W84566  14.935   2.234   1.078
18158W        W84567   3.922  27.421  13.946
18159W        W84568  23.813  42.780  11.056
18160W        W84569  27.705   6.612   2.508
18161W        W84570  13.353   5.002   2.792
18162W        W84571  33.912   7.907   1.714
18163W        W84572  32.529  28.642  14.519
18164W        W84573   8.880  33.587   2.135
18165W        W84574   8.788   4.940   3.656
18166W        W84575  26.111   9.278  14.461
18167W        W84576  39.851  11.401   1.496
18168W        W84577   5.472  13.461   3.462
18169W        W84578  25.594  26.126   3.890
18170W        W84579  44.929  40.867   4.439
18171W        W84580  31.635   4.829  13.334
18172W        W84581  12.589  10.859   1.923
18173W        W84582  22.536  14.316  12.069
18174W        W84583  23.244  18.017  14.436
18175W        W84584  41.543   7.451  13.435
18176W        W84585  28.018  12.674   3.308
18177W        W84586   1.772  33.909   4.581
18178W        W84587  19.098  16.345   4.178
18179W        W84588  43.427   7.644   3.182
18180W        W84589  34.490  12.888   2.347
18181W        W84590   8.940  15.169   2.254
18182W        W84591  18.063  31.189   0.815
18183W        W84592   5.889  20.190   2.028
18184W        W84593  36.406   1.702   3.661
18185W        W84594   0.792  24.255  14.371
18186W        W84595  44.199  19.513  14.790
18187W        W84596  39.413  17.714   3.348
18188W        W84597  22.488  17.549  14.519
18189W        W84598  15.804  13.674  13.859
18190W        W84599  19.084  36.522   3.232
18191W        W84600  32.177  23.704  13.369
18192W        W84601  34.751  23.285  14.294
18193W        W84602  20.595  13.313  10.973
18194W        W84603  31.543  44.443  10.536
18195W        W84604  39.975  44.805  14.358
18196W        W84605  18.661  11.180  11.168
18197W        W84606  41.532  19.257   2.284
18198W        W84607   1.861  31.615  13.987
18199W        W84608  44.939   2.905  14.517
18200W        W84609  12.638  30.004   0.740
18201W        W84610  13.494  20.546   1.203
18202W        W84611  26.104  20.514   3.070
18203W        W84612  38.949  16.824   2.616
18204W        W84613  26.198  28.038  14.965
18205W        W84614  21.285  22.485   2.711
18206W        W84615  22.161  32.465   4.200
18207W        W84616  16.168  24.918  12.075
18208W        W84617  21.560  32.929   2.827
18209W        W84618  36.890  41.211   4.327
18210W        W84619   8.528  24.832  12.108
18211W        W84620  39.176  41.556  12.542
18212W        W84621   1.760  15.525   2.019
18213W        W84622  15.638  10.675   2.784
18214W        W84623  19.376  37.690  11.272
18215W        W84624  41.873  20.235  13.518
18216W        W84625  17.603  44.524   1.966
18217W        W84626  20.770  10.314  14.143
18218W        W84627   1.888  12.375  11.345
18219W        W84628  13.854   8.856   3.594
18220W        W84629   0.016  25.721   3.284
18221W        W84630  27.703  28.726  11.338
18222W        W84631  22.511  21.269  10.994
18223W        W84632  22.598  19.793   1.398
18224W        W84633   6.719   3.570  14.562
18225W        W84634  25.426  26.651  12.740
18226W        W84635  42.742  13.672   1.927
18227W        W84636  15.900   5.790  11.609
18228W        W84637  24.827  27.452   1.366
18229W        W84638  38.429  24.738  13.111
18230W        W84639   2.769   8.933   1.766
18231W        W84640  37.784   6.758   4.673
18232W        W84641  11.402  23.966  11.756
18233W        W84642  18.232  38.982  13.949
18234W        W84643  12.290  42.347   3.641
18235W        W84644  42.592  23.517  11.542
18236W        W84645  26.346   4.344   1.060
18237W        W84646   1.719  28.919   2.644
18238W        W84647   1.337  44.099  14.354
18239W        W84648  32.311   0.325  14.929
18240W        W84649  10.763  27.511  12.875
18241W        W84650   7.240  38.517  12.880
18242W        W84651  11.845   6.704   2.984
18243W        W84652   7.141  34.681  14.439
18244W        W84653  32.133  41.005  12.113
18245W        W84654  11.285  16.919  12.547
18246W        W84655  22.764  42.949  11.974
18247W        W84656  12.670  43.564  12.951
18248W        W84657  43.336  16.063  14.981
18249W        W84658  11.520   2.937   5.250
18250W        W84659  30.408  32.234   2.630
18251W        W84660  38.592  19.138  11.917
18252W        W84661   3.943  43.751   3.171
18253W        W84662   4.457   1.716  14.907
18254W        W84663   1.300  36.104  14.489
18255W        W84664  25.949   1.929  14.263
18256W        W84665   2.821  27.028   0.171
18257W        W84666  26.663  24.755  11.051
18258W        W84667  22.409  20.728   3.309
18259W        W84668  25.659   4.544  11.745
18260W        W84669  32.483  11.789  14.872
18261W        W84670   0.887   1.804   0.407
18262W        W84671  42.941  33.510   2.868
18263W        W84672  36.663   7.741   4.065
18264W        W84673  42.750   5.654   2.166
18265W        W84674   3.612  24.163  12.778
18266W        W84675  16.283  11.561  12.442
18267W        W84676  17.053   0.983   2.075
18268W        W84677  27.562  35.579  14.394
18269W        W84678  40.702   3.907  14.063
18270W        W84679   0.944  22.701  12.433
18271W        W84680  37.423  38.087  11.276
18272W        W84681  39.752  32.666   2.346
18273W        W84682  33.415  13.263   3.600
18274W        W84683  44.424  20.710  12.875
18275W        W84684  42.162   4.832  11.612
18276W        W84685  17.853  23.326   3.806
18277W        W84686   5.518  42.135  12.207
18278W        W84687  43.422  14.293  11.554
18279W        W84688  39.941  23.960   0.249
18280W        W84689   0.778   4.547  14.351
18281W        W84690  13.223   3.175  12.869
18282W        W84691   3.456  40.345  10.726
18283W        W84692  11.684  34.673  14.806
18284W        W84693   3.257   5.175  11.284
18285W        W84694  24.455  33.686   4.184
18286W        W84695  19.513   6.667  12.118
18287W        W84696  32.617  27.166   2.310
18288W        W84697   8.668  34.538  12.503
18289W        W84698  26.462  41.516  11.143
18290W        W84699  41.460  35.358  14.414
18291W        W84700  38.013   3.789   2.672
18292W        W84701   7.937  40.276  11.574
18293W        W84702   7.542   5.838   1.753
18294W        W84703   1.020   7.235  12.930
18295W        W84704  44.777  39.340   4.190
18296W        W84705  11.690  18.540   2.774
18297W        W84706  11.063   1.954   3.245
18298W        W84707  41.341  44.001   2.141
18299W        W84708  24.909  18.323   1.568
18300W        W84709  13.672   5.073   3.623
18301W        W84710  14.784  20.576  13.447
18302W        W84711  27.715   6.667  11.492
18303W        W84712   8.496   7.427   0.236
18304W        W84713  33.096  20.549   3.828
18305W        W84714  15.219  42.901   4.050
18306W        W84715  34.569  19.016   0.018
18307W        W84716  33.684  32.656  12.833
18308W        W84717  16.375   4.478  11.123
18309W        W84718   1.955  18.101  10.487
18310W        W84719  19.679  13.561  10.752
18311W        W84720  31.083  35.377  14.490
18312W        W84721  25.235   5.594   2.221
18313W        W84722  35.409  24.400  13.004
18314W        W84723  26.773  16.134   4.653
18315W        W84724   8.935   5.658  11.160
18316W        W84725  19.003  42.462   1.786
18317W        W84726  14.765  27.238  12.512
18318W        W84727  40.795   1.796   4.923
18319W        W84728  24.253  40.000   1.356
18320W        W84729   8.579   0.258   5.525
18321W        W84730  25.679  28.162  13.301
18322W        W84731  42.911  37.040   4.092
18323W        W84732   6.831   5.311   0.762
18324W        W84733  31.989  19.100   2.210
18325W        W84734  24.188  25.734   3.722
18326W        W84735   1.039  15.383   0.396
18327W        W84736  18.851  41.509   4.968
18328W        W84737  23.175   4.273  14.074
18329W        W84738  23.042   9.867  10.725
18330W        W84739  41.527  41.299  10.691
18331W        W84740  19.456   5.669  10.684
18332W        W84741   4.341  23.267   4.174
18333W        W84742  14.883  25.584   2.315
18334W        W84743  14.699  24.390  13.851
18335W        W84744  37.166  26.588   0.083
18336W        W84745  17.373  41.874   3.566
18337W        W84746  29.244   1.475  10.541
18338W        W84747  42.562  22.092  13.443
18339W        W84748   4.108   5.001  11.701
18340W        W84749  36.384  31.019   0.836
18341W        W84750  31.232   2.123  13.928
18342W        W84751   6.358   7.188  11.938
18343W        W84752  13.418   9.308   4.701
18344W        W84753   7.266  22.251   0.502
18345W        W84754  18.575   5.797   2.430
18346W        W84755  10.280  23.721   1.981
18347W        W84756   8.419   9.857   2.372
18348W        W84757  39.435  15.685  13.608
18349W        W84758   5.249  33.871  13.866
18350W        W84759   5.409  19.873  13.044
18351W        W84760  39.005  25.970  12.486
18352W        W84761  39.957  23.737   2.954
18353W        W84762  26.003   7.130  13.385
18354W        W84763  17.133  30.203  12.159
18355W        W84764  22.186  22.526   5.047
18356W        W84765  38.503  19.745   2.208
18357W        W84766   6.502  32.638   1.306
18358W        W84767   0.761   9.727   2.764
18359W        W84768  35.151  34.763   3.968
18360W        W84769  36.342  11.800   0.970
18361W        W84770  14.214  19.121   4.246
18362W        W84771   8.170  36.059  14.943
18363W        W84772  44.302   8.789  13.491
18364W        W84773   0.813   3.098  10.723
18365W        W84774  18.053   2.676  10.844
18366W        W84775   7.443  23.157   4.104
18367W        W84776  43.979  31.124  12.570
18368W        W84777  27.639  14.670  12.090
18369W        W84778  11.887  28.494  13.858
18370W        W84779  37.042  39.293   1.688
18371W        W84780  34.046   6.713  11.417
18372W        W84781  30.183   0.520  11.121
18373W        W84782  38.829  41.367   4.008
18374W        W84783   4.971   8.794  12.384
18375W        W84784   0.021  27.519   0.596
18376W        W84785   5.450  43.410  13.035
18377W        W84786  15.605   8.875   3.226
18378W        W84787  26.000  21.098   3.684
18379W        W84788  38.078  34.332  12.298
18380W        W84789  12.982  42.981  12.900
18381W        W84790   0.944  13.150  10.548
18382W        W84791   7.811   6.337   4.126
18383W        W84792  13.320   5.732  13.902
18384W        W84793  32.378   9.701   1.457
18385W        W84794  19.313   2.354   1.673
18386W        W84795  42.817  44.905  12.390
18387W        W84796   8.250  33.005  11.189
18388W        W84797  39.599  38.948  10.588
18389W        W84798  11.691  19.491  11.236
18390W        W84799  26.724   3.363  11.715
18391W        W84800  11.697  33.606  12.646
18392W        W84801   9.917   5.808   1.975
18393W        W84802  13.309  31.591   2.314
18394W        W84803  30.859  41.426   1.791
18395W        W84804   5.609  43.822  13.696
18396W        W84805   4.230   1.928  13.450
18397W        W84806  28.739   0.268   3.184
18398W        W84807  21.690  19.169  14.105
18399W        W84808  33.004   1.838  14.794
18400W        W84809  37.611  36.526   2.859
18401W        W84810  16.502  10.291   2.839
18402W        W84811   7.165  26.487   4.602
18403W        W84812  27.279  38.066  11.523
18404W        W84813  35.165  29.193  12.911
18405W        W84814  37.059  27.149  12.180
18406W        W84815   5.641   9.785   3.591
18407W        W84816   6.389  26.080  13.961
18408W        W84817   9.718  21.313   3.737
18409W        W84818  30.213  39.906  11.633
18410W        W84819  20.684   9.946   1.920
18411W        W84820  10.550  36.613  13.345
18412W        W84821  41.885  40.453   3.354
18413W        W84822  23.528  27.365  10.671
18414W        W84823  15.614  23.250  13.714
18415W        W84824  10.794   7.943   2.478
18416W        W84825  25.953  27.874  10.597
18417W        W84826  43.699  19.666  12.248
18418W        W84827  14.318  41.058   4.571
18419W        W84828  33.737  43.385   4.895
18420W        W84829  33.355  39.129   2.436
18421W        W84830  27.329   1.361  10.554
18422W        W84831   3.503  36.354  11.232
18423W        W84832  43.321  25.565   1.761
18424W        W84833   5.512   6.516   1.224
18425W        W84834  34.344  42.839  10.829
18426W        W84835   0.378  19.399   3.333
18427W        W84836  12.296  24.103  12.073
18428W        W84837  41.888  22.024  14.504
18429W        W84838   5.326  42.375   3.637
18430W        W84839   5.545   9.262  14.713
18431W        W84840  36.673  42.992  11.201
18432W        W84841  36.621  38.319   4.253
18433W        W84842  31.157  11.624  11.095
18434W        W84843  35.874  10.141  11.932
18435W        W84844  21.298  27.162   3.329
18436W        W84845   0.340  13.165   1.166
18437W        W84846   7.904   1.540   4.152
18438W        W84847  11.650  38.962   2.353
18439W        W84848  23.733  34.451  12.737
18440W        W84849  35.927  38.929   2.960
18441W        W84850  12.768  41.008   4.729
18442W        W84851  19.462  15.830  14.574
18443W        W84852  44.994   9.096   3.044
18444W        W84853   2.784   5.901   1.834
18445W        W84854  26.038   7.881  11.504
18446W        W84855   7.913  11.164  12.787
18447W        W84856  26.632  34.401   5.031
18448W        W84857  40.173  12.850   2.169
18449W        W84858  26.168  26.601   4.053
18450W        W84859   2.764  17.079  11.631
18451W        W84860  23.804  28.023   0.966
18452W        W84861  35.049  21.082  12.220
18453W        W84862  40.758  24.406   0.864
18454W        W84863  35.502  10.932  11.759
18455W        W84864  27.525  41.406   2.166
18456W        W84865   4.168  41.270  13.374
18457W        W84866  36.197  36.275  11.184
18458W        W84867  17.211  21.981  14.558
18459W        W84868   4.587  25.414  14.993
18460W        W84869  32.791  19.551   4.693
18461W        W84870  17.208  29.763   3.398
18462W        W84871  36.346  35.479  14.951
18463W        W84872  43.976  27.863  13.820
18464W        W84873  39.501   0.835  13.221
18465W        W84874  41.934  40.381   2.181
18466W        W84875  19.690  25.959   1.224
18467W        W84876   6.222  40.886  13.993
18468W        W84877  20.538  14.080  11.675
18469W        W84878  16.955  22.062   0.318
18470W        W84879  17.314  33.691   0.247
18471W        W84880   7.414   3.596   1.760
18472W        W84881   7.051  41.006  13.048
18473W        W84882  13.367  27.009   1.692
18474W        W84883  33.413  26.990  13.326
18475W        W84884  36.581  21.580   1.892
18476W        W84885  33.918  24.703  11.991
18477W        W84886  22.632  30.943   1.737
18478W        W84887  18.926   5.450  10.922
18479W        W84888  16.842  39.314  14.064
18480W        W84889   2.371  43.435   0.662
18481W        W84890  33.485   9.415  13.023
18482W        W84891  17.180  34.797  10.600
18483W        W84892   3.430  15.660   5.202
18484W        W84893  41.804  13.299   3.294
18485W        W84894   9.957  12.678  14.803
18486W        W84895  11.273  21.115   3.805
18487W        W84896  17.234   7.777   4.609
18488W        W84897  12.968  12.601   0.262
18489W        W84898  42.741  43.860   2.244
18490W        W84899  28.883  16.763  14.549
18491W        W84900  44.168  30.768   1.354
18492W        W84901  16.311  43.273   1.491
18493W        W84902  38.034  42.093   2.819
18494W        W84903  23.082  27.296  11.185
18495W        W84904  15.289  32.138  13.177
18496W        W84905  31.495  20.733   3.689
18497W        W84906  43.377   5.190   2.239
18498W        W84907  12.255   3.726   3.318
18499W        W84908   5.458  42.932   0.005
18500W        W84909  37.474  34.670   1.413
18501W        W84910  16.229  27.700   1.800
18502W        W84911  43.752  31.928  11.605
18503W        W84912  18.524  12.713   3.536
18504W        W84913  22.185  35.640  10.795
18505W        W84914  16.528  30.712   1.787
18506W        W84915   7.296  15.079  14.758
18507W        W84916  42.244  31.567  12.916
18508W        W84917  25.140  44.283  13.955
18509W        W84918  16.796  13.138  13.048
18510W        W84919  30.535  19.264   3.556
18511W        W84920   7.135  25.627   2.426
18512W        W84921  42.736   3.234   0.279
18513W        W84922  10.391  25.917   1.247
18514W        W84923  14.150   5.472  14.917
18515W        W84924  27.163  33.364  12.071
18516W        W84925  32.828  40.403  12.196
18517W        W84926  24.011   7.860  11.932
18518W        W84927  39.001  37.412  14.249
18519W        W84928  13.341  38.334  14.196
18520W        W84929  42.702  26.157  14.224
18521W        W84930  18.080  24.505  13.793
18522W        W84931  18.481  38.912  11.445
18523W        W84932   2.640  38.278   1.752
18524W        W84933   9.400  33.159   2.742
18525W        W84934  44.884  10.173   0.241
18526W        W84935  28.652  42.965   2.202
18527W        W84936  15.588  19.887  10.750
18528W        W84937  14.644  13.059  13.100
18529W        W84938  39.870   2.106  10.800
18530W        W84939  25.031  35.388   4.333
18531W        W84940  34.444  12.212  12.004
18532W        W84941  19.681  26.044   0.376
18533W        W84942  32.073  30.560   4.781
18534W        W84943  44.422  40.755  13.911
18535W        W84944  24.419  35.779  13.798
18536W        W84945  38.002  14.237  14.038
18537W        W84946  23.057  29.139   1.720
18538W        W84947   7.257  10.100   4.634
18539W        W84948  16.485   5.295  14.539
18540W        W84949  26.829  32.590   4.931
18541W        W84950  43.834   9.924  13.535
18542W        W84951  20.261  40.549  10.758
18543W        W84952  24.322   6.411  14.033
18544W        W84953  42.849   2.593   1.553
18545W        W84954   9.297  32.347   0.303
18546W        W84955  15.973  25.233  13.932
18547W        W84956   9.687  26.449   4.077
18548W        W84957   0.961  15.468  12.860
18549W        W84958  40.205   5.030  14.892
18550W        W84959  17.302  40.399  14.370
18551W        W84960  17.580  40.751   4.744
18552W        W84961   9.668  31.945  14.569
18553W        W84962   6.522  36.931   4.799
18554W        W84963  32.768  21.034  11.991
18555W        W84964  19.364  28.440   4.744
18556W        W84965  44.458  25.870   3.837
18557W        W84966  17.254  30.906   0.794
18558W        W84967  31.580  19.110  10.635
18559W        W84968   1.242  39.800  11.173
18560W        W84969   5.905  20.421   1.239
18561W        W84970  11.913  10.819   4.215
18562W        W84971  13.642  16.974   3.273
18563W        W84972  23.623   2.581  13.474
18564W        W84973  31.121  30.985   3.135
18565W        W84974  40.831   6.391   3.795
18566W        W84975  30.891   5.366  10.973
18567W        W84976  10.543  11.743   2.814
18568W        W84977  44.391  36.167  11.669
18569W        W84978  29.068  19.065  10.866
18570W        W84979  22.675  27.040   3.856
18571W        W84980  41.782  21.670   2.080
18572W        W84981  25.845  12.695  11.161
18573W        W84982  37.130   8.393  14.801
18574W        W84983  36.855  28.994   3.188
18575W        W84984  36.855  28.878  13.560
18576W        W84985  33.614  26.683   4.749
18577W        W84986   2.467   6.377   1.797
18578W        W84987   7.724  27.930   4.429
18579W        W84988  36.826   4.447  11.182
18580W        W84989  17.119  39.816  11.918
18581W        W84990  32.602  22.813  12.340
18582W        W84991  23.737  17.511  13.932
18583W        W84992  37.385  44.098   2.258
18584W        W84993  43.196  13.017  13.604
18585W        W84994   2.347  37.844   0.517
18586W        W84995  11.704  44.148   4.528
18587W        W84996  23.562   4.754  13.399
18588W        W84997  29.688  39.906  11.657
18589W        W84998   2.792   8.458  10.496
18590W        W84999  17.397  27.755   4.555
18591W        W85000  31.591   9.653  13.814
18592W        W85001  15.190  11.854  14.972
18593W        W85002   4.888  13.142   4.821
18594W        W85003  27.193  22.141  13.555
18595W        W85004  28.375  43.386   0.810
18596W        W85005   5.953   7.398   4.689
18597W        W85006   2.931   4.649   0.416
18598W        W85007  30.150   2.879   3.168
18599W        W85008  39.412   6.347   4.668
18600W        W85009  33.963  15.291  12.448
18601W        W85010  13.773  18.291   0.310
18602W        W85011  10.942   4.278  12.509
18603W        W85012   4.332  11.205   4.004
18604W        W85013  13.555  23.728  11.434
18605W        W85014   6.749  28.673  13.792
18606W        W85015  44.915   4.840  14.502
18607W        W85016   7.130  13.084  12.519
18608W        W85017   1.299  24.110   3.204
18609W        W85018  11.687  35.337  12.520
18610W        W85019   7.340  23.710   3.404
18611W        W85020  25.485  26.460   1.877
18612W        W85021  35.552  18.614  10.680
18613W        W85022  42.772  41.445  11.805
18614W        W85023  10.012   1.957   4.534
18615W        W85024  21.960   9.890  11.597
18616W        W85025   8.276  20.661  13.510
18617W        W85026  29.901  24.914   0.826
18618W        W85027  41.466   0.750   2.659
18619W        W85028  19.592  11.750  13.010
18620W        W85029  40.245  17.305   3.628
18621W        W85030  25.187   1.970  13.987
18622W        W85031  29.743   9.075   4.121
18623W        W85032   9.792  38.833   3.848
18624W        W85033  37.946  30.455   5.132
18625W        W85034  13.077  33.982   1.720
18626W        W85035  34.689  42.030  10.684
18627W        W85036   8.114  27.966   2.337
18628W        W85037  44.289   5.260  14.950
18629W        W85038  38.853  13.168   4.456
18630W        W85039  38.314  11.651   3.609
18631W        W85040   1.721  26.645  13.804
18632W        W85041  14.901  14.450  13.469
18633W        W85042  44.555  34.192  13.840
18634W        W85043  21.710  10.323  11.700
18635W        W85044  27.630  32.105   0.433
18636W        W85045  23.740  33.633   2.809
18637W        W85046  40.885   0.290   3.246
18638W        W85047  26.260  33.117  11.121
18639W        W85048  17.012  27.052   1.559
18640W        W85049  29.019  35.716   1.743
18641W        W85050  43.791  39.591  13.506
18642W        W85051  25.480  19.066   0.439
18643W        W85052   5.144  20.828  12.873
18644W        W85053  33.516  42.017  12.313
18645W        W85054  27.967   2.657   3.826
18646W        W85055  37.162  10.277  13.393
18647W        W85056  39.600  27.550  11.477
18648W        W85057  25.495   5.383   0.440
18649W        W85058   5.323  23.962  14.543
18650W        W85059  30.061  31.924   3.248
18651W        W85060  22.528  32.670  14.934
18652W        W85061  34.114   3.350   0.422
18653W        W85062  10.751  33.646  10.208
18654W        W85063  39.888  32.629   2.852
18655W        W85064   0.081   6.284   0.645
18656W        W85065  23.485  40.455   0.236
18657W        W85066  38.551   9.710  12.614
18658W        W85067   2.291   3.011  13.731
18659W        W85068  39.329  21.547  10.517
18660W        W85069  31.423  41.005   3.607
18661W        W85070  42.787   4.726  11.980
18662W        W85071  23.998   5.072   4.994
18663W        W85072  23.555   4.937   1.439
18664W        W85073  32.430  18.497  13.829
18665W        W85074  22.816  14.542   5.137
18666W        W85075  12.741  19.107  12.301
18667W        W85076  31.624   7.277  13.426
18668W        W85077  30.100  11.709   0.247
18669W        W85078  36.431  29.095  12.311
18670W        W85079  10.333  17.514  11.072
18671W        W85080   3.947  11.250  12.378
18672W        W85081  15.671  20.133   5.065
18673W        W85082  30.597   3.867  14.092
18674W        W85083  14.274  34.123   0.671
18675W        W85084  21.286  21.938   0.333
18676W        W85085  40.054   8.255  11.133
18677W        W85086  31.396   9.705   1.441
18678W        W85087  23.105  26.202  11.431
18679W        W85088  40.048  27.121   2.844
18680W        W85089  37.340  31.722   4.141
18681W        W85090   7.350  20.509   2.308
18682W        W85091   3.897  40.888  12.354
18683W        W85092   5.434  35.349   1.265
18684W        W85093  22.709  25.078  13.745
18685W        W85094  11.192   2.705  11.201
18686W        W85095  30.393  27.882  14.792
18687W        W85096  24.058  22.337  13.915
18688W        W85097  19.205  43.626  14.105
18689W        W85098  24.526  26.219   5.314
18690W        W85099  32.574  18.646   4.122
18691W        W85100   1.144  26.484  12.475
18692W        W85101  26.026  37.889   4.405
18693W        W85102   7.145  37.900   4.816
18694W        W85103  30.740   7.346  10.646
18695W        W85104  21.246  24.404  10.614
18696W        W85105  33.906  36.059  11.254
18697W        W85106  32.838  12.739  12.398
18698W        W85107  12.324  35.549   4.242
18699W        W85108  34.899  24.525  13.049
18700W        W85109   6.347  18.383   2.829
18701W        W85110  30.714   7.040   4.393
18702W        W85111   7.372   1.796   2.604
18703W        W85112  21.320  31.051  11.528
18704W        W85113  35.442   3.208  12.491
18705W        W85114  33.463   4.811   2.244
18706W        W85115  42.312  13.884   4.272
18707W        W85116  22.651  42.326  14.019
18708W        W85117  14.376  39.234  10.754
18709W        W85118  13.638  42.345   4.047
18710W        W85119   7.243   8.712  13.175
18711W        W85120   2.459   7.309   1.767
18712W        W85121  12.202  24.144  14.133
18713W        W85122   5.826  43.432   1.747
18714W        W85123  11.754  16.299  12.018
18715W        W85124  13.324  13.839  14.847
18716W        W85125  37.148  40.821  14.351
18717W        W85126  35.065  35.538   2.140
18718W        W85127   0.894  41.599  13.041
18719W        W85128   4.667  32.076   4.205
18720W        W85129  20.689   9.923  12.587
18721W        W85130  22.532  39.532  14.258
18722W        W85131  32.060   5.172   1.280
18723W        W85132  37.296  23.729  14.704
18724W        W85133  27.964  37.660   1.660
18725W        W85134  21.723  20.335   0.665
18726W        W85135  11.353   4.223   2.280
18727W        W85136  41.299  21.902  12.456
18728W        W85137  43.439  15.614  14.750
18729W        W85138  27.107   9.808   1.901
18730W        W85139  30.475  16.799  11.661
18731W        W85140  36.872   2.049   1.921
18732W        W85141  44.952  39.019  13.890
18733W        W85142  28.125  30.687   0.285
18734W        W85143  26.094   0.445   1.961
18735W        W85144   5.727  35.067   1.632
18736W        W85145  40.414   4.046  14.876
18737W        W85146  19.996  38.853  11.208
18738W        W85147  28.811  17.126   1.903
18739W        W85148  24.738  17.078   5.181
18740W        W85149  17.565  23.273  14.970
18741W        W85150  31.586  40.541  10.644
18742W        W85151  41.067  40.037  12.314
18743W        W85152  19.270  40.354   0.924
18744W        W85153  43.886   2.718  12.934
18745W        W85154  36.878  42.825   0.777
18746W        W85155  16.585  12.401  11.946
18747W        W85156   5.403  19.700   3.057
18748W        W85157  40.561  44.290   3.809
18749W        W85158   2.375  23.428  12.577
18750W        W85159  41.157   8.831   1.907
18751W        W85160  14.848   4.912  12.353
18752W        W85161  26.498  30.493  12.809
18753W        W85162  16.443  24.903   5.509
18754W        W85163   1.782  33.711   2.324
18755W        W85164  31.292  26.961   3.108
18756W        W85165  42.319   5.519  14.551
18757W        W85166  42.915  17.826   3.122
18758W        W85167  23.426  42.972  12.398
18759W        W85168  24.216  27.896   4.428
18760W        W85169  20.022  38.866   4.617
18761W        W85170  22.652  10.658   4.800
18762W        W85171   7.064   7.392   3.028
18763W        W85172  11.235  32.087   1.158
18764W        W85173   4.171  12.109  14.892
18765W        W85174   0.423  26.709   0.014
18766W        W85175   2.035  10.374  11.399
18767W        W85176  11.656  42.812  13.034
18768W        W85177   9.425  20.807  11.170
18769W        W85178  21.617  25.227  10.831
18770W        W85179   8.236  27.493  12.710
18771W        W85180  43.526  27.481   0.499
18772W        W85181  25.982   4.604   3.650
18773W        W85182  11.692  13.593  13.885
18774W        W85183  28.009   2.004  14.319
18775W        W85184  39.986  38.341   0.130
18776W        W85185  33.447  20.485   1.548
18777W        W85186   7.248  17.947  12.619
18778W        W85187   1.917  44.450   0.563
18779W        W85188  17.583  39.925  14.457
18780W        W85189   7.406  34.053   2.989
18781W        W85190  20.933   6.558  13.248
18782W        W85191  12.464  18.226   2.382
18783W        W85192  19.540  16.095   4.145
18784W        W85193  28.106   0.527   1.705
18785W        W85194  38.650  11.980  13.051
18786W        W85195  26.915   1.117   3.361
18787W        W85196   0.727   5.940   4.710
18788W        W85197  18.992  25.580  11.475
18789W        W85198  43.406  41.804   0.922
18790W        W85199  16.988  38.157   0.744
18791W        W85200  18.254   9.435  14.834
18792W        W85201  19.107   8.213  13.758
18793W        W85202  43.282  44.671   1.806
18794W        W85203   0.346  10.726   0.970
18795W        W85204  31.410   2.284   0.327
18796W        W85205   6.806  17.846   3.282
18797W        W85206   7.395  26.433   2.836
18798W        W85207  13.997  28.928   4.145
18799W        W85208  10.479  37.318   1.220
18800W        W85209  14.754  13.807   2.133
18801W        W85210   5.345   0.379   4.942
18802W        W85211  28.988  27.721  13.310
18803W        W85212  29.517  13.321  13.797
18804W        W85213   4.653  13.321  10.644
18805W        W85214   5.480   2.994   2.875
18806W        W85215   6.093  41.390  13.771
18807W        W85216  26.955  36.735  11.532
18808W        W85217  11.830  43.262   1.863
18809W        W85218  43.208  40.420  13.306
18810W        W85219   7.324  35.329  13.654
18811W        W85220   6.758   6.999   4.211
18812W        W85221  26.223  43.292  13.760
18813W        W85222  26.160  20.642  13.517
18814W        W85223   5.755  36.846   1.442
18815W        W85224  28.411  25.491  10.782
18816W        W85225  22.851  31.709   1.366
18817W        W85226  29.019  10.795  14.983
18818W        W85227   9.874   6.364   2.108
18819W        W85228  27.113  20.531   3.794
18820W        W85229  12.584  36.519   1.571
18821W        W85230  14.589  17.173   3.762
18822W        W85231  35.070  43.363   4.920
18823W        W85232  42.693   6.473  10.688
18824W        W85233  41.919   1.301   0.655
18825W        W85234   4.490  22.770  10.687
18826W        W85235  17.102  32.366   0.130
18827W        W85236  43.014  14.655   3.534
18828W        W85237  40.093  15.437   1.034
18829W        W85238  43.380  40.832   0.947
18830W        W85239   4.423  15.220  11.839
18831W        W85240  15.116  33.690   2.090
18832W        W85241  40.402  17.259   2.759
18833W        W85242  33.375  26.073  14.337
18834W        W85243  31.463   8.918   3.947
18835W        W85244   5.790   0.799  14.445
18836W        W85245  27.021  40.185  13.421
18837W        W85246  43.856   2.162  14.493
18838W        W85247  34.575  29.198   4.031
18839W        W85248  26.302   4.719  12.809
18840W        W85249   1.526  28.485  14.995
18841W        W85250  44.040  19.423  11.167
18842W        W85251  25.513  20.282   1.399
18843W        W85252  17.328   9.956   2.553
18844W        W85253  36.446   7.897  12.343
18845W        W85254   3.291  31.979  14.906
18846W        W85255   3.248  11.840   3.310
18847W        W85256   8.811  20.604   4.098
18848W        W85257   8.797  44.727   1.163
18849W        W85258  25.137  35.016  13.232
18850W        W85259   7.895  14.188   0.976
18851W        W85260  21.604   3.923   3.325
18852W        W85261  19.478   7.085  11.640
18853W        W85262  36.266  12.084   2.243
18854W        W85263  29.530  25.881  11.578
18855W        W85264   8.310  26.093  14.013
18856W        W85265   8.566  31.588  13.043
18857W        W85266  26.156  15.341  10.366
18858W        W85267  27.384  44.574   2.815
18859W        W85268  41.439   2.913   4.531
18860W        W85269   6.358   4.406  12.617
18861W        W85270  23.126  28.122  13.084
18862W        W85271  43.063   5.393  11.144
18863W        W85272  29.693  16.869  14.950
18864W        W85273  17.122   6.924  11.366
18865W        W85274  28.000  37.486   0.839
18866W        W85275  42.590  11.610  11.995
18867W        W85276  43.313  18.246   3.779
18868W        W85277  17.219   9.045   2.270
18869W        W85278  34.599  16.196  13.796
18870W        W85279   1.455  17.057  14.603
18871W        W85280   9.670  24.145   5.096
18872W        W85281   7.160  33.678   2.750
18873W        W85282  17.206  12.863   4.786
18874W        W85283   8.481  26.799   3.684
18875W        W85284  20.153   0.693   4.574
18876W        W85285   7.439  42.217   1.622
18877W        W85286  22.058  35.357  11.213
18878W        W85287  14.207   8.265  12.906
18879W        W85288  34.844  40.347   0.297
18880W        W85289  17.151  16.338  13.543
18881W        W85290  29.482  13.281   0.403
18882W        W85291  43.393  27.982  13.293
18883W        W85292   5.422  23.978   0.504
18884W        W85293   8.317  39.947  14.494
18885W        W85294   2.098   7.153   4.061
18886W        W85295  21.470  17.564   1.934
18887W        W85296  28.952  25.920   2.419
18888W        W85297  32.141   9.830  12.000
18889W        W85298   8.937  36.186   4.571
18890W        W85299  16.755   3.222   3.467
18891W        W85300   3.965  22.765   3.775
18892W        W85301  40.523   0.526   4.815
18893W        W85302  43.520   6.398  14.868
18894W        W85303  37.338  19.013   2.254
18895W        W85304  28.903  11.254   1.838
18896W        W85305  23.527  25.794  14.483
18897W        W85306  18.796  16.667  14.759
18898W        W85307  32.496  30.951   4.170
18899W        W85308  17.744  34.869  13.919
18900W        W85309  39.463  23.618  12.317
18901W        W85310  28.372  25.063  11.739
18902W        W85311  43.219   6.741   2.200
18903W        W85312  20.486   6.840   2.299
18904W        W85313  33.644  23.471   2.354
18905W        W85314   1.644   8.296   2.544
18906W        W85315  29.248  38.119   1.817
18907W        W85316  17.241  23.111  11.861
18908W        W85317   0.988  33.350  12.563
18909W        W85318  37.709  43.905   3.684
18910W        W85319  18.273  39.035   2.934
18911W        W85320  18.976  21.732   0.446
18912W        W85321  43.859  20.827  11.628
18913W        W85322  22.333  11.840   2.981
18914W        W85323  17.107  29.278   3.312
18915W        W85324  35.858   7.670   1.524
18916W        W85325  38.639  23.500   0.180
18917W        W85326  23.415   7.341  13.755
18918W        W85327  16.326  29.911   0.511
18919W        W85328   6.902  39.910   2.220
18920W        W85329  18.532  21.996  11.532
18921W        W85330   7.946  11.250   4.201
18922W        W85331  23.010  20.596  11.888
18923W        W85332  27.660   4.805   4.468
18924W        W85333  22.605  26.699   1.295
18925W        W85334   5.691  43.407  14.909
18926W        W85335  31.275  30.621   3.637
18927W        W85336  36.191  42.525   3.612
18928W        W85337  40.035  43.395  14.320
18929W        W85338  12.566  26.152  12.100
18930W        W85339  14.125   1.011  12.114
18931W        W85340   3.420  34.465  13.789
18932W        W85341   0.378  26.995  11.904
18933W        W85342  20.604   1.857  12.595
18934W        W85343   6.464  40.381  10.587
18935W        W85344  24.922  24.833   0.424
18936W        W85345  38.207  17.552   0.046
18937W        W85346  34.844  35.931  10.333
18938W        W85347  13.075   7.245  11.562
18939W        W85348  22.646  14.127   4.369
18940W        W85349  34.819  20.890  12.627
18941W        W85350   9.670  12.141   4.153
18942W        W85351   5.079   3.857   4.248
18943W        W85352  36.593  35.233  12.153
18944W        W85353  10.217  38.534   3.858
18945W        W85354  26.273  38.143  13.278
18946W        W85355  38.328  33.074  12.000
18947W        W85356  23.483  10.858  12.214
18948W        W85357  35.706   1.777  11.568
18949W        W85358   1.500  42.562  10.465
18950W        W85359  16.947  10.737   2.142
18951W        W85360   1.356  29.559   0.069
18952W        W85361   5.900  36.150   4.938
18953W        W85362  18.597  43.850  13.897
18954W        W85363  42.373  26.211   1.383
18955W        W85364  11.608  30.903   1.270
18956W        W85365   9.026  29.546  12.409
18957W        W85366  12.129  18.636   0.226
18958W        W85367   3.815  40.342  11.645
18959W        W85368  23.967  38.031   3.554
18960W        W85369  37.347   3.903   0.751
18961W        W85370  23.701  19.560   0.297
18962W        W85371   9.950  41.911  11.578
18963W        W85372   2.850  24.544  14.471
18964W        W85373  24.167   9.326   0.315
18965W        W85374  36.137  37.103   2.847
18966W        W85375   3.444  11.138   0.592
18967W        W85376  33.093  44.537  10.635
18968W        W85377   6.189  16.578   2.135
18969W        W85378  10.575  14.470   3.764
18970W        W85379   9.926  15.656   2.893
18971W        W85380  37.901   7.206   0.834
18972W        W85381  32.830  40.717   0.832
18973W        W85382  39.742  11.416   3.320
18974W        W85383  39.955  26.406  12.115
18975W        W85384  17.205   3.666  13.326
18976W        W85385   2.317   1.069  10.319
18977W        W85386  38.383   5.892  11.999
18978W        W85387  33.338  33.632  11.606
18979W        W85388  23.046  37.572  14.026
18980W        W85389   7.521  13.785  10.751
18981W        W85390  12.173   2.290   5.415
18982W        W85391  15.245  13.289  11.930
18983W        W85392  16.137  25.263   2.725
18984W        W85393  20.481   0.420   4.184
18985W        W85394   9.241  30.977   1.680
18986W        W85395  41.418  38.905  14.764
18987W        W85396  37.186   0.252   0.816
18988W        W85397  14.536  18.048  10.155
18989W        W85398   7.445  21.769  11.519
18990W        W85399  23.354  11.061   4.047
18991W        W85400  27.564  33.354   4.177
18992W        W85401  24.988   8.856  12.935
18993W        W85402  40.516  31.932   3.044
18994W        W85403   1.420  33.061   0.204
18995W        W85404  29.055   0.831  10.772
18996W        W85405   0.546  27.175  14.837
18997W        W85406  34.210  37.888  12.716
18998W        W85407  22.839   7.370  11.389
18999W        W85408  17.245  43.850  11.892
19000W        W85409  11.223  36.984   2.708
19001W        W85410  13.242  32.417  13.953
19002W        W85411  42.709  29.075  12.483
19003W        W85412   6.557   8.727   3.674
19004W        W85413  13.166  22.437  14.233
19005W        W85414  22.753  27.947   3.596
19006W        W85415  12.612   6.714   0.792
19007W        W85416  37.077  29.627  12.613
19008W        W85417  13.156  27.625  12.464
19009W        W85418  17.501  11.499  11.116
19010W        W85419   7.445  42.203   2.157
19011W        W85420   9.440  37.254  10.149
19012W        W85421  43.845  20.489   3.248
19013W        W85422  19.116  40.205  13.451
19014W        W85423   0.486  20.697   0.253
19015W        W85424  16.025  37.033   3.819
19016W        W85425  28.767  16.922  10.971
19017W        W85426   8.912  17.690  13.998
19018W        W85427  28.749  23.926  12.420
19019W        W85428  14.987  26.038  12.239
19020W        W85429  38.342  23.515  11.662
19021W        W85430   1.533  40.860   3.629
19022W        W85431  30.771  23.967  11.115
19023W        W85432   0.119  34.748   4.207
19024W        W85433  43.626  42.505  12.622
19025W        W85434  27.974  40.260  11.492
19026W        W85435  23.517   1.875   3.213
19027W        W85436  23.561   1.008  10.618
19028W        W85437  27.045  30.267   3.745
19029W        W85438  37.659  41.533   3.128
19030W        W85439  11.152  14.638  11.222
19031W        W85440  32.904  28.445   2.655
19032W        W85441  23.995   3.781  10.635
19033W        W85442  38.698  37.450  14.815
19034W        W85443  39.906  19.736   3.607
19035W        W85444  44.063  10.936  14.730
19036W        W85445  20.698  13.808  12.888
19037W        W85446   3.264  31.548  13.572
19038W        W85447  39.370   8.261  14.552
19039W        W85448  36.417  21.013  14.384
19040W        W85449  36.998  23.934   3.943
19041W        W85450  27.482  15.408  11.558
19042W        W85451   3.195  32.211  11.213
19043W        W85452  41.292   3.192   3.332
19044W        W85453  38.024   5.852  10.799
19045W        W85454  23.094  26.118   0.769
19046W        W85455  15.183   4.326  13.890
19047W        W85456  21.284  14.350   0.324
19048W        W85457  33.411  18.669  11.218
19049W        W85458   5.300  27.533   3.144
19050W        W85459  12.731  18.650   9.830
19051W        W85460  29.485   4.798  11.869
19052W        W85461  15.696   2.300  11.363
19053W        W85462  35.212  37.352  11.104
19054W        W85463   6.630  39.063  13.356
19055W        W85464  44.956  35.894   1.320
19056W        W85465   3.111  25.030  14.478
19057W        W85466  29.342  18.689   3.568
19058W        W85467  21.551  34.021  12.893
19059W        W85468  26.534   7.728   1.633
19060W        W85469  25.124  16.597   0.247
19061W        W85470  33.513  41.335   0.472
19062W        W85471  24.122  31.596  12.490
19063W        W85472  39.467   9.247   4.388
19064W        W85473  17.361  42.698   4.620
19065W        W85474  23.534   1.415   3.451
19066W        W85475  22.817   9.132  12.019
19067W        W85476  43.328  43.169  13.381
19068W        W85477  19.576  14.229   2.667
19069W        W85478  33.052  32.033  13.594
19070W        W85479   6.435   0.347  13.778
19071W        W85480  36.428   2.231  13.034
19072W        W85481  35.111  36.817  12.620
19073W        W85482  37.049   5.160  12.696
19074W        W85483  28.631   2.741   0.740
19075W        W85484  14.203  18.586   0.364
19076W        W85485  33.990  16.463  13.877
19077W        W85486  18.683  11.040   1.887
19078W        W85487  37.842  39.691  14.270
19079W        W85488  37.582  17.735   1.777
19080W        W85489  20.112  31.117  10.604
19081W        W85490  22.469   3.424   4.325
19082W        W85491   2.383  20.625  11.613
19083W        W85492   3.274   1.764   1.233
19084W        W85493  12.239  22.287   3.942
19085W        W85494   5.343   5.858   2.842
19086W        W85495  29.548  21.346   2.862
19087W        W85496   9.370  25.626   0.844
19088W        W85497  31.732  38.416  11.443
19089W        W85498  42.157  30.678   5.134
19090W        W85499  12.245  43.792   2.227
19091W        W85500   5.336  23.575   2.782
19092W        W85501  37.785  31.487   2.299
19093W        W85502  37.799   2.310  13.004
19094W        W85503  16.603  35.073   2.115
19095W        W85504  34.494  38.067   3.702
19096W        W85505  20.796  39.940  11.071
19097W        W85506  10.344  31.405   2.279
19098W        W85507   1.933  22.055   0.359
19099W        W85508  11.291  41.936   0.280
19100W        W85509  37.519   3.389  13.134
19101W        W85510   8.255  20.175  13.309
19102W        W85511  33.926  40.101  14.425
19103W        W85512   7.801  40.748  10.705
19104W        W85513  24.720  16.136  13.483
19105W        W85514   3.979  10.800   4.079
19106W        W85515  41.528  17.489  11.941
19107W        W85516  42.774  19.757  13.527
19108W        W85517  10.291  28.572  14.303
19109W        W85518  10.436  42.300   0.968
19110W        W85519  21.734  20.586  11.017
19111W        W85520  37.428  37.999   0.016
19112W        W85521  19.004  17.733   2.341
19113W        W85522   3.528  33.163  13.424
19114W        W85523  14.761  29.460  11.945
19115W        W85524  42.924   9.156  12.162
19116W        W85525  28.559  37.567  12.646
19117W        W85526   2.434  36.154   4.242
19118W        W85527   5.217   3.390   4.097
19119W        W85528   5.710  39.452   2.317
19120W        W85529  41.082  22.946  13.883
19121W        W85530  14.656   3.930   3.703
19122W        W85531  40.298  22.039   1.848
19123W        W85532   1.423  26.517   4.086
19124W        W85533   7.149  23.340   2.190
19125W        W85534  33.370  22.475   3.362
19126W        W85535  23.582  19.816   2.215
19127W        W85536  30.898   1.775   0.751
19128W        W85537  11.245  38.703  12.799
19129W        W85538   0.745  23.726  14.899
19130W        W85539  19.906  15.755  10.453
19131W        W85540   8.709  35.385  14.801
19132W        W85541  23.501  15.603   1.263
19133W        W85542  39.257  39.325   2.069
19134W        W85543  29.943  21.653   1.391
19135W        W85544  23.103  20.252   4.629
19136W        W85545   4.465   7.194  12.484
19137W        W85546   8.660  25.446   3.706
19138W        W85547  28.189  32.434   3.278
19139W        W85548   6.412  10.028   1.231
19140W        W85549  35.831   9.070  11.136
19141W        W85550  24.628  37.806  12.677
19142W        W85551  24.020  33.830   1.773
19143W        W85552  36.957  24.622   5.041
19144W        W85553  41.971  22.327  14.915
19145W        W85554  31.465  21.211  14.431
19146W        W85555  29.386   2.514   4.758
19147W        W85556  43.369   7.008  13.986
19148W        W85557  35.957  17.865  14.892
19149W        W85558   8.434   9.857  11.054
19150W        W85559  21.518  16.643   1.928
19151W        W85560  26.521  18.470   2.767
19152W        W85561  39.777  16.645   1.828
19153W        W85562   6.448  27.905  14.814
19154W        W85563   0.302   3.689  11.158
19155W        W85564  10.322  21.537   3.351
19156W        W85565   0.900  39.952   1.334
19157W        W85566  34.397  27.468  14.258
19158W        W85567   7.490  39.007   0.905
19159W        W85568  42.833  34.288  12.593
19160W        W85569  39.960   2.593  10.659
19161W        W85570  42.480  31.556  13.885
19162W        W85571  11.738   5.264   4.780
19163W        W85572  34.297  40.001  10.317
19164W        W85573   1.881  23.136   1.259
19165W        W85574  43.583   9.190   3.542
19166W        W85575  32.929   1.813   4.989
19167W        W85576  44.914  18.782  12.434
19168W        W85577  19.257  10.318  14.774
19169W        W85578  12.480  10.360  14.293
19170W        W85579  10.722  26.924   4.253
19171W        W85580  11.286  43.577   0.266
19172W        W85581  36.523  40.782   2.226
19173W        W85582  32.608  14.410  11.179
19174W        W85583  32.495   0.530  10.197
19175W        W85584  20.218   9.619   2.868
19176W        W85585  18.047  16.029  10.699
19177W        W85586  38.975  25.000   1.149
19178W        W85587  12.166  15.833  14.104
19179W        W85588  24.850  19.915   4.051
19180W        W85589  28.476  24.528  13.771
19181W        W85590  42.758   1.223   0.222
19182W        W85591  15.800   4.172  12.778
19183W        W85592  14.825  20.048   4.060
19184W        W85593  27.177  37.606   3.729
19185W        W85594   3.727  22.772   3.319
19186W        W85595  41.435  20.447  12.008
19187W        W85596  21.970  33.637  14.955
19188W        W85597  10.913  40.149  12.055
19189W        W85598  24.116  20.656  12.853
19190W        W85599  11.191  37.374  14.795
19191W        W85600  12.099  39.529  12.146
19192W        W85601  12.367  41.051   3.452
19193W        W85602   9.397  17.811   0.969
19194W        W85603   9.451   2.676  11.166
19195W        W85604  10.527  34.963   4.918
19196W        W85605  34.580   9.262  12.426
19197W        W85606  38.643  38.415  11.915
19198W        W85607  37.111  10.966  10.535
19199W        W85608  24.150  18.040  10.631
19200W        W85609   0.620  34.722   4.171
19201W        W85610  29.587  21.675  11.173
19202W        W85611  44.464  17.619  14.555
19203W        W85612  33.464  43.021   4.623
19204W        W85613   3.352  15.142  10.902
19205W        W85614  24.147  12.056  11.183
19206W        W85615  41.764  43.372  14.964
19207W        W85616  36.531  25.165   4.059
19208W        W85617  37.910  25.390  13.721
19209W        W85618   7.079  32.598  13.091
19210W        W85619  37.578  16.152  11.970
19211W        W85620  42.552  10.926   4.434
19212W        W85621  29.098  42.840   0.955
19213W        W85622   1.846  28.977   0.755
19214W        W85623   0.979  18.150   1.827
19215W        W85624  21.297  11.106  11.715
19216W        W85625   7.596  31.371   0.863
19217W        W85626   3.829  10.835  11.077
19218W        W85627  44.583  20.161  14.549
19219W        W85628  38.899  29.962  12.007
19220W        W85629  26.286   2.852   2.489
19221W        W85630  18.609  44.950  12.491
19222W        W85631  28.537  27.954   1.775
19223W        W85632  30.764   3.763   2.664
19224W        W85633  16.476  18.613  12.995
19225W        W85634  15.158  38.495   3.538
19226W        W85635  20.385  44.250   3.616
19227W        W85636  41.544  37.416   3.320
19228W        W85637  10.157  28.542   0.341
19229W        W85638  14.143  15.998   4.829
19230W        W85639   2.016  44.249   3.425
19231W        W85640  15.267  11.199  11.785
19232W        W85641  31.599  11.801   5.068
19233W        W85642  35.409  42.905  12.591
19234W        W85643  38.119  11.421  13.383
19235W        W85644  14.040  15.879   0.898
19236W        W85645  26.829   9.739  10.706
19237W        W85646  38.774  24.572  11.637
19238W        W85647  25.572  40.700  14.692
19239W        W85648   7.045  41.844   2.311
19240W        W85649  38.275  29.608   0.024
19241W        W85650  29.233  38.716   4.233
19242W        W85651  39.381  28.185  12.603
19243W        W85652  40.305  43.351   1.358
19244W        W85653  41.727  38.951   4.470
19245W        W85654  42.000  19.719   0.927
19246W        W85655  33.860  34.538   3.317
19247W        W85656  17.060  28.082  10.783
19248W        W85657   1.655   5.798   3.038
19249W        W85658  13.792  33.775  10.407
19250W        W85659  27.235  21.218  11.180
19251W        W85660  19.637  18.836  14.854
19252W        W85661  11.229   5.977  12.573
19253W        W85662  38.989  43.669  10.145
19254W        W85663  38.790  30.468  13.971
19255W        W85664  28.485  19.633   1.262
19256W        W85665  21.539   4.952  12.598
19257W        W85666  43.869  16.863  14.798
19258W        W85667  42.428   3.400   1.687
19259W        W85668  21.668  15.279  13.804
19260W        W85669  17.511  41.497  13.190
19261W        W85670  40.442  37.975  12.911
19262W        W85671  43.772  20.836  14.488
19263W        W85672  30.237  44.943   4.051
19264W        W85673   7.528  10.297  13.521
19265W        W85674   8.701  17.749   2.912
19266W        W85675   8.723  27.161  11.567
19267W        W85676  15.580   8.423   3.959
19268W        W85677  39.067  33.530  14.028
19269W        W85678  34.982   0.439  12.369
19270W        W85679  21.194  13.951   4.390
19271W        W85680   0.424   8.819   0.466
19272W        W85681  16.197  36.133  11.401
19273W        W85682  26.084  39.629  13.409
19274W        W85683  42.837  30.600  10.838
19275W        W85684  40.005  35.915  11.132
19276W        W85685  20.137  23.696   1.761
19277W        W85686  39.650  43.850   4.265
19278W        W85687   7.210  40.936   0.834
19279W        W85688  30.539  20.613   1.680
19280W        W85689  18.022  41.853  14.028
19281W        W85690  11.669  44.759  10.422
19282W        W85691  41.615  17.566   4.944
19283W        W85692  14.153   1.707   0.999
19284W        W85693  31.566  32.446   4.666
19285W        W85694  22.984  31.072  10.479
19286W        W85695   5.909  26.691  13.486
19287W        W85696   4.350  16.253   0.933
19288W        W85697   6.682  11.423   2.192
19289W        W85698  41.926  17.738  12.208
19290W        W85699  15.056  18.725   0.803
19291W        W85700  21.424   3.356   4.190
19292W        W85701  44.675  37.432  10.583
19293W        W85702  14.803  12.328  10.424
19294W        W85703  35.515  18.775   0.007
19295W        W85704  42.039  10.984   4.599
19296W        W85705   0.278  36.964   3.683
19297W        W85706  20.807  24.753   1.785
19298W        W85707  41.778  37.435  11.012
19299W        W85708  15.825   7.006   1.330
19300W        W85709  16.248  28.281  12.908
19301W        W85710  16.693  33.901  14.039
19302W        W85711  28.141  27.723   3.614
19303W        W85712  13.179  44.663  11.608
19304W        W85713  41.039  20.571   0.734
19305W        W85714  12.716  21.396   2.037
19306W        W85715  10.045  23.771  12.819
19307W        W85716  38.336   9.344  12.991
19308W        W85717  29.746  32.363  12.544
19309W        W85718  37.000   1.260   0.021
19310W        W85719  12.624   5.518  14.345
19311W        W85720  27.393  40.318   1.856
19312W        W85721  13.834  21.365  12.400
19313W        W85722  35.059   7.361   1.259
19314W        W85723  21.945  16.982   3.679
19315W        W85724  35.926  30.099  14.068
19316W        W85725  26.971  18.069  11.103
19317W        W85726  28.255  36.445   4.365
19318W        W85727  14.883   2.292   3.628
19319W        W85728  18.142  32.841   2.860
19320W        W85729   9.418  44.529  11.023
19321W        W85730  37.369   8.291  13.327
19322W        W85731  11.237  14.271  12.941
19323W        W85732  36.732  42.296  13.389
19324W        W85733  43.307  21.651  13.348
19325W        W85734  13.600  33.997   0.001
19326W        W85735  32.337  27.176   4.086
19327W        W85736  34.394   4.120  12.076
19328W        W85737  10.120   1.495   1.005
19329W        W85738  18.912  25.903  14.942
19330W        W85739  29.157  18.055   3.453
19331W        W85740  14.819  13.613   1.156
19332W        W85741  17.242  43.252   1.908
19333W        W85742  42.587   7.731  14.797
19334W        W85743   9.861   2.796  12.609
19335W        W85744  39.824  39.907   2.650
19336W        W85745   9.153  15.549   1.289
19337W        W85746   2.213   5.880  12.381
19338W        W85747  21.337  25.065   0.475
19339W        W85748  42.302  20.566  14.583
19340W        W85749  23.579  33.819  14.266
19341W        W85750  14.255  13.834   0.888
19342W        W85751   4.414  20.254   0.497
19343W        W85752  14.551  19.549   1.750
19344W        W85753   6.263  19.179   0.846
19345W        W85754  21.737  38.407  10.564
19346W        W85755  39.835  17.814  13.123
19347W        W85756  20.562  11.539  14.497
19348W        W85757  30.089  43.359   0.920
19349W        W85758  41.578  11.416  13.076
19350W        W85759   9.428  25.578  13.808
19351W        W85760  24.189  26.610   0.452
19352W        W85761  13.400  23.729  13.516
19353W        W85762   4.626  27.315  11.153
19354W        W85763  31.280  25.784   1.948
19355W        W85764   0.939  16.895  11.931
19356W        W85765  36.127  20.516   0.517
19357W        W85766  40.988   2.342   1.000
19358W        W85767  10.249  13.740  10.998
19359W        W85768  44.465   5.718  13.964
19360W        W85769  23.271  44.986  10.524
19361W        W85770  17.332  18.706   2.311
19362W        W85771  12.428  37.584  14.308
19363W        W85772  18.092  36.615  11.189
19364W        W85773   0.227  37.554   1.833
19365W        W85774  42.955   2.849   4.709
19366W        W85775  15.585  38.101   1.239
19367W        W85776   1.302  30.142   1.327
19368W        W85777  35.983  44.520   0.704
19369W        W85778   3.336  40.954  14.990
19370W        W85779  13.269   1.417   0.872
19371W        W85780   4.344  18.150  13.355
19372W        W85781  16.804   5.733   0.234
19373W        W85782  19.772  38.878  13.140
19374W        W85783  26.261   9.633   0.263
19375W        W85784   7.674  38.097  12.271
19376W        W85785   8.895  29.791   0.888
19377W        W85786  34.443   0.219  11.092
19378W        W85787   8.951   9.219   0.487
19379W        W85788  17.117  32.334   9.916
19380W        W85789  22.029  34.607  12.492
19381W        W85790   2.457  16.222  11.135
19382W        W85791  10.909  27.939  10.961
19383W        W85792  39.904  32.736  14.858
19384W        W85793  15.816  34.379   2.802
19385W        W85794   0.564  16.514   4.077
19386W        W85795  44.247  23.690  10.689
19387W        W85796  21.345   1.739   2.234
19388W        W85797   4.452  30.565   2.677
19389W        W85798  27.729  35.361  13.888
19390W        W85799   3.716  43.992   0.877
19391W        W85800   8.942  28.414  11.056
19392W        W85801   8.363  12.082   4.410
19393W        W85802  43.374  31.901  13.452
19394W        W85803  20.998  29.356  11.017
19395W        W85804  12.076  38.102  12.142
19396W        W85805  31.393  19.260  12.602
19397W        W85806  43.752  36.956  11.240
19398W        W85807  42.714  32.348  11.409
19399W        W85808  16.676  26.490   4.621
19400W        W85809  11.621  18.134   3.175
19401W        W85810  19.595  41.435   1.783
19402W        W85811  31.095  11.599   1.294
19403W        W85812  30.647  21.961   3.312
19404W        W85813  19.591   7.610  11.617
19405W        W85814  41.367  43.712  13.509
19406W        W85815  16.071  27.495   4.422
19407W        W85816  31.371  14.662  11.549
19408W        W85817  19.069  43.828   4.303
19409W        W85818  20.264  20.257   1.901
19410W        W85819  43.396  28.564   1.888
19411W        W85820  15.698  42.819  10.637
19412W        W85821  34.880  11.095  14.712
19413W        W85822  12.651  40.915  10.708
19414W        W85823  25.972  16.781   3.159
19415W        W85824  42.963  32.000   2.942
19416W        W85825   2.339  30.918  12.797
19417W        W85826  31.425  23.209  12.597
19418W        W85827  11.111   2.819  13.638
19419W        W85828  41.882  31.655  11.142
19420W        W85829  40.379   0.452   3.322
19421W        W85830  37.295  13.651   1.360
19422W        W85831  31.138  38.427  12.872
19423W        W85832  31.712  37.616   0.937
19424W        W85833  37.992   9.807  14.419
19425W        W85834   2.545  18.041   5.067
19426W        W85835  20.158  20.826   4.837
19427W        W85836  21.088  36.383  10.630
19428W        W85837  27.146  30.367   1.185
19429W        W85838  22.038  37.328  14.088
19430W        W85839   0.907  16.971   3.316
19431W        W85840  13.258  11.684  13.392
19432W        W85841   3.886  39.518   3.313
19433W        W85842  37.789  38.236   3.382
19434W        W85843  17.767   0.552  11.673
19435W        W85844   4.793  38.149  12.499
19436W        W85845  17.155  27.558   2.319
19437W        W85846  15.144  28.284  11.139
19438W        W85847  15.297  22.105   2.099
19439W        W85848   4.449  32.150  10.745
19440W        W85849  33.462  15.347  14.483
19441W        W85850  15.645   9.415  13.245
19442W        W85851  28.894  14.077  13.430
19443W        W85852  36.839  20.268   0.793
19444W        W85853  33.021   4.914  14.681
19445W        W85854  22.530  36.340   1.877
19446W        W85855  27.134   0.494  14.388
19447W        W85856  15.725  34.172   0.628
19448W        W85857  12.152  10.603  11.262
19449W        W85858  19.706  17.243   1.527
19450W        W85859  37.574  16.491   3.676
19451W        W85860  27.965   4.020  14.249
19452W        W85861  26.347  40.535   1.815
19453W        W85862  13.273  41.237  12.472
19454W        W85863   6.777  29.927   4.335
19455W        W85864  21.114  19.930  13.681
19456W        W85865  31.365  42.902  12.697
19457W        W85866   3.191  26.690   2.369
19458W        W85867  14.389  26.146  10.660
19459W        W85868  15.198  21.201   3.510
19460W        W85869  13.121  39.471   4.576
19461W        W85870   5.725  14.756   1.768
19462W        W85871   4.264   4.225  12.066
19463W        W85872  19.346  16.304  14.301
19464W        W85873  18.219  12.599  14.762
19465W        W85874  22.000   1.975  12.894
19466W        W85875  38.604  27.936   4.293
19467W        W85876  15.623  19.749   2.985
19468W        W85877  23.586   5.763  10.379
19469W        W85878  31.107  44.727  11.634
19470W        W85879  15.618  35.031  12.014
19471W        W85880  31.106  18.273  10.804
19472W        W85881  10.791  40.014   3.086
19473W        W85882  31.905  26.456   3.576
19474W        W85883   5.745   2.155   2.681
19475W        W85884  11.768  37.823  12.991
19476W        W85885  26.738   7.378   9.855
19477W        W85886  39.699  39.275  12.996
19478W        W85887  28.161  35.443   1.222
19479W        W85888   1.335  19.493   3.636
19480W        W85889   0.524  17.782  11.742
19481W        W85890  17.810  43.249   1.227
19482W        W85891  14.705  42.748   2.776
19483W        W85892   5.531  18.067   3.647
19484W        W85893  24.047  26.745   3.081
19485W        W85894  23.483  39.768   3.733
19486W        W85895   8.113   2.683   3.705
19487W        W85896   9.097  31.181  11.189
19488W        W85897  13.244   1.420  13.567
19489W        W85898  22.008   5.256   1.730
19490W        W85899  25.819  37.094  12.483
19491W        W85900   9.940  31.470   1.315
19492W        W85901   2.744  28.388  12.494
19493W        W85902  15.278  25.577   4.594
19494W        W85903  43.740   5.900   1.365
19495W        W85904   9.618  35.533  14.391
19496W        W85905   9.281  21.045  14.595
19497W        W85906  30.419  22.139  10.993
19498W        W85907  34.377  19.806   4.708
19499W        W85908   5.888  13.512   2.665
19500W        W85909  37.005  33.822  14.786
19501W        W85910  34.833  22.663   4.997
19502W        W85911  41.889  17.603  13.598
19503W        W85912  11.450  18.986  11.111
19504W        W85913   9.883  24.594   3.834
19505W        W85914  22.190  37.609  10.610
19506W        W85915  36.142  10.414   1.804
19507W        W85916  25.121  36.845   4.508
19508W        W85917  21.944  41.996   3.835
19509W        W85918  29.367  41.903   0.564
19510W        W85919  30.027  14.354   1.230
19511W        W85920  10.093  34.536   3.237
19512W        W85921  36.251   5.701  14.756
19513W        W85922  14.257  28.957  12.459
19514W        W85923   3.045  12.752   4.725
19515W        W85924   2.744  39.080  14.299
19516W        W85925  10.254  30.202   0.856
19517W        W85926  36.677   0.336   0.867
19518W        W85927  33.602  19.542   1.791
19519W        W85928  41.491  31.025  13.656
19520W        W85929  39.190  42.562   3.815
19521W        W85930  12.267  13.759   2.134
19522W        W85931  26.414   4.820  14.571
19523W        W85932  36.095   6.358   0.982
19524W        W85933  32.924   0.431   1.889
19525W        W85934  14.831  32.219   5.200
19526W        W85935  35.294   6.852   4.680
19527W        W85936  17.728   9.734   0.477
19528W        W85937  13.836  34.831   3.523
19529W        W85938  17.736  40.900  11.689
19530W        W85939  28.994   7.913   4.061
19531W        W85940  25.159  22.106   5.059
19532W        W85941  22.657  33.339  11.630
19533W        W85942  10.909   7.922   4.053
19534W        W85943  39.523  42.828   4.557
19535W        W85944  10.394  33.917   0.424
19536W        W85945   8.942  41.834  11.619
19537W        W85946  26.950   6.906   4.048
19538W        W85947  18.256   6.903   4.532
19539W        W85948   4.944  20.000   4.092
19540W        W85949   3.271  39.547  11.578
19541W        W85950  16.940   9.847  10.235
19542W        W85951  13.179  41.650  13.822
19543W        W85952  19.733  11.566  14.513
19544W        W85953  32.952  16.217  14.630
19545W        W85954  17.068  29.545  14.433
19546W        W85955  42.792  24.929   0.296
19547W        W85956  44.440   9.154  12.686
19548W        W85957  30.314   1.336  14.462
19549W        W85958  37.403   6.732   4.115
19550W        W85959   1.409  41.012  14.452
19551W        W85960  31.935   8.801   4.165
19552W        W85961  30.708  24.710   0.996
19553W        W85962   9.625   5.813   4.154
19554W        W85963  28.621  33.159   2.322
19555W        W85964   5.412  41.648  12.086
19556W        W85965   7.000  20.049   3.318
19557W        W85966  37.899  41.520   4.263
19558W        W85967  41.018  35.368   4.536
19559W        W85968  20.114  30.458   5.108
19560W        W85969  14.549  23.912   4.672
19561W        W85970  28.381  11.263  13.884
19562W        W85971  38.524  23.159   2.242
19563W        W85972  26.188  11.338  11.323
19564W        W85973  21.757   5.073  12.154
19565W        W85974   9.741   8.756  12.537
19566W        W85975   9.697  14.311   4.369
19567W        W85976  32.912  26.911   1.659
19568W        W85977  16.749   0.889  14.393
19569W        W85978  25.958  42.649   2.818
19570W        W85979  35.075   3.155   0.470
19571W        W85980  39.460  27.529  12.928
19572W        W85981   7.616  39.503   0.695
19573W        W85982  23.008  16.171   3.036
19574W        W85983  14.366  24.145  12.910
19575W        W85984  25.621   9.885   4.543
19576W        W85985  31.950  14.563  10.565
19577W        W85986  44.893  12.594  11.914
19578W        W85987  14.334  17.872   2.774
19579W        W85988  21.079  30.148   0.401
19580W        W85989   6.108  20.979   0.818
19581W        W85990  28.723  35.379   0.452
19582W        W85991  25.976  12.954   3.087
19583W        W85992  21.227  43.251  10.994
19584W        W85993  16.528   0.274   4.395
19585W        W85994   9.216  12.109   1.355
19586W        W85995  23.719  41.392   0.734
19587W        W85996  15.902  42.894   2.220
19588W        W85997   1.362  18.261  12.876
19589W        W85998  34.263  13.422   1.853
19590W        W85999  35.571  39.026   2.223
19591W        W86000  37.996   8.667   0.818
19592W        W86001  23.631   3.287   3.704
19593W        W86002  22.445  20.714  13.478
19594W        W86003  20.804  16.220  11.642
19595W        W86004  39.626  24.217  11.605
19596W        W86005  42.031   0.292  11.142
19597W        W86006   2.346  32.791  13.799
19598W        W86007  36.007  17.410  11.460
19599W        W86008   7.623  33.036  12.431
19600W        W86009  25.049  11.400  14.935
19601W        W86010  14.203  16.030  12.818
19602W        W86011  12.391  44.240  11.733
19603W        W86012  19.303  32.048   2.318
19604W        W86013  13.225  22.888  13.484
19605W        W86014  28.845   3.413   4.372
19606W        W86015   3.481  25.615  11.052
19607W        W86016  10.146  40.859  11.190
19608W        W86017   9.735  33.046  12.067
19609W        W86018  21.098  36.100   2.905
19610W        W86019  18.592   0.505  10.672
19611W        W86020  13.030  25.220  11.879
19612W        W86021  44.838  31.473   4.598
19613W        W86022  32.033  38.994   2.444
19614W        W86023  24.704  11.540   2.659
19615W        W86024   9.735  35.904   0.329
19616W        W86025   1.746  28.620  13.788
19617W        W86026  18.216  42.530   3.399
19618W        W86027  39.173   5.220   1.367
19619W        W86028   2.241  22.561  11.497
19620W        W86029   6.791  41.822  12.038
19621W        W86030  16.255  18.647   5.031
19622W        W86031  27.111  25.714  10.704
19623W        W86032  34.910  23.750   4.668
19624W        W86033   6.142   5.961  10.900
19625W        W86034  28.426  32.131   0.198
19626W        W86035  42.581  32.122   0.818
19627W        W86036  12.778  42.730   0.954
19628W        W86037  11.420  38.936  14.837
19629W        W86038  25.518  15.237   4.192
19630W        W86039   8.636  10.077   2.966
19631W        W86040  20.211  43.936  12.937
19632W        W86041  39.833   6.795   2.489
19633W        W86042   8.576  21.483   0.706
19634W        W86043  18.667  33.844  14.076
19635W        W86044   1.656   2.684  12.964
19636W        W86045  41.327  13.739   3.310
19637W        W86046  13.814   0.008  13.952
19638W        W86047  12.847  21.563  12.816
19639W        W86048  24.151  44.713  10.995
19640W        W86049  30.115  42.654  12.842
19641W        W86050  26.515  36.754  10.748
19642W        W86051   9.346  25.578  10.952
19643W        W86052  40.855  40.426   3.249
19644W        W86053   9.743  25.034  12.926
19645W        W86054  40.329  23.425   1.282
19646W        W86055   2.413  17.979   3.164
19647W        W86056  34.236  19.587  11.837
19648W        W86057  37.558   4.452  13.998
19649W        W86058  13.436   0.515   2.594
19650W        W86059  41.179  25.694   0.290
19651W        W86060  36.635   9.064  13.454
19652W        W86061  13.550  24.174   0.195
19653W        W86062  43.558  35.854   4.057
19654W        W86063  38.947  42.791  14.421
19655W        W86064  32.661  37.704   2.823
19656W        W86065  32.688   6.496   0.424
19657W        W86066  32.555   8.256   3.736
19658W        W86067  10.818  12.981  13.061
19659W        W86068   7.372  43.250   0.810
19660W        W86069  36.400  32.593  12.819
19661W        W86070   0.962  12.296   4.533
19662W        W86071  17.235  36.608  12.381
19663W        W86072  10.258  42.455  12.408
19664W        W86073  23.955  22.390   0.722
19665W        W86074  21.657  10.192   0.698
19666W        W86075  41.941  34.453   1.245
19667W        W86076  18.735   5.141  12.564
19668W        W86077  21.004  38.872   1.362
19669W        W86078   1.445   2.292   3.651
19670W        W86079   5.146  28.655  13.515
19671W        W86080   3.747  25.530   2.715
19672W        W86081  14.003  42.315   0.231
19673W        W86082  31.614  18.685   0.089
19674W        W86083  40.393  32.123   0.435
19675W        W86084  32.935  12.309  12.990
19676W        W86085  34.377  31.413  14.334
19677W        W86086  44.755   7.918  12.566
19678W        W86087  26.415  32.479  14.444
19679W        W86088  34.397  34.610   0.510
19680W        W86089  41.235   9.984   3.643
19681W        W86090  14.854  31.755  12.526
19682W        W86091   2.929  32.843   0.526
19683W        W86092  16.119  30.668   2.875
19684W        W86093   7.287   4.805   1.111
19685W        W86094  30.910  13.250   3.335
19686W        W86095  29.957  13.770   4.653
19687W        W86096  34.308  44.386  11.193
19688W        W86097  15.594  30.478   1.460
19689W        W86098  44.022  11.683  11.870
19690W        W86099  42.548  11.465   2.239
19691W        W86100  19.074  44.189   0.843
19692W        W86101   7.705  43.465   3.848
19693W        W86102  10.164  36.531   2.375
19694W        W86103  14.777   0.579   0.233
19695W        W86104  29.377  23.043  10.748
19696W        W86105  30.567  36.690   2.231
19697W        W86106  17.274  30.558  13.260
19698W        W86107  32.188  14.693  13.785
19699W        W86108  28.176  26.201  10.638
19700W        W86109   8.155  19.876   2.364
19701W        W86110  39.125  33.528   1.013
19702W        W86111  38.459   0.259  10.632
19703W        W86112  12.743  32.710   3.655
19704W        W86113  23.384  19.195  11.915
19705W        W86114  29.378   0.841  11.173
19706W        W86115  32.079  38.077   2.948
19707W        W86116  15.845   8.085   0.752
19708W        W86117  27.729  34.480  12.150
19709W        W86118  13.212   0.488   0.780
19710W        W86119  42.862  39.876  12.086
19711W        W86120  28.891  43.817   4.044
19712W        W86121  21.773   2.738  11.202
19713W        W86122   6.633  36.104  10.696
19714W        W86123   5.652  29.635   2.676
19715W        W86124  39.050  30.334  11.158
19716W        W86125   2.282  30.064  10.579
19717W        W86126  37.703  16.080   4.953
19718W        W86127  20.600  20.725   0.850
19719W        W86128  27.631  29.521   4.551
19720W        W86129   5.511  38.078  13.734
19721W        W86130  34.192   8.291   1.926
19722W        W86131   9.425  21.482   3.344
19723W        W86132  20.738  41.253  11.544
19724W        W86133  42.861  38.035   4.064
19725W        W86134  29.727  44.908   4.033
19726W        W86135  31.591  36.408  12.787
19727W        W86136  18.072  18.568   1.685
19728W        W86137  15.924  16.874  11.893
19729W        W86138   2.400  37.998  12.279
19730W        W86139   2.974  25.955   2.641
19731W        W86140   3.298  27.993  13.534
19732W        W86141  38.039  10.653   3.340
19733W        W86142  25.636  36.890  11.120
19734W        W86143  25.949  32.500  12.905
19735W        W86144  18.078  43.766  12.976
19736W        W86145  29.493  40.927   0.375
19737W        W86146  28.568  14.569  14.318
19738W        W86147  15.783  26.172   0.722
19739W        W86148  25.546  39.589   2.454
19740W        W86149  20.600  39.397   0.789
19741W        W86150  15.658  23.695  12.936
19742W        W86151  35.204  24.211   4.635
19743W        W86152  27.484  10.274  13.523
19744W        W86153  35.365  21.962   3.699
19745W        W86154   3.934  16.551   0.827
19746W        W86155  33.191  38.112  12.577
19747W        W86156  14.177  12.347  10.831
19748W        W86157   3.895  11.594  14.369
19749W        W86158  42.919  25.956   3.535
19750W        W86159   5.659  15.688   4.820
19751W        W86160   0.754  11.921   3.222
19752W        W86161  40.510  19.349  12.808
19753W        W86162  25.341  39.799   3.350
19754W        W86163   0.349  29.475  14.858
19755W        W86164  14.150  38.789   2.125
19756W        W86165  43.409   1.527  13.214
19757W        W86166  19.856  17.943  12.989
19758W        W86167  17.815   1.765  12.010
19759W        W86168  37.097  35.501   4.253
19760W        W86169  39.807  38.443  11.170
19761W        W86170  39.209  20.656   1.236
19762W        W86171   7.926  38.534   3.037
19763W        W86172  11.125   7.616   2.222
19764W        W86173  27.607  29.375   1.746
19765W        W86174  41.195   5.478   4.676
19766W        W86175  13.835  18.212  11.247
19767W        W86176  37.037  38.926   0.394
19768W        W86177  26.567   2.047   1.236
19769W        W86178  16.565  20.250   2.156
19770W        W86179  41.051  20.044  13.976
19771W        W86180   4.683  19.162   1.545
19772W        W86181  18.049  11.890   2.753
19773W        W86182  23.736  17.062  14.741
19774W        W86183   5.707   8.260  14.485
19775W        W86184   1.259  42.827   4.220
19776W        W86185   4.337  15.993   1.957
19777W        W86186  37.758   9.350   4.593
19778W        W86187  13.613   0.054  13.467
19779W        W86188  10.393   6.173  11.590
19780W        W86189  21.413  28.155   3.160
19781W        W86190   7.407  15.644   1.550
19782W        W86191  28.203  39.169  11.937
19783W        W86192  20.318  24.653   1.869
19784W        W86193  36.088  35.389   2.398
19785W        W86194   9.014  32.956   3.566
19786W        W86195  23.154  21.560   1.389
19787W        W86196  27.503  43.962   2.255
19788W        W86197  38.876  19.135  11.472
19789W        W86198  23.649  35.106  14.635
19790W        W86199  17.717  36.831   1.240
19791W        W86200  31.485  15.534  13.628
19792W        W86201   7.775  12.177   0.871
19793W        W86202  13.863  23.679  13.320
19794W        W86203  44.053  34.050   4.122
19795W        W86204  40.316  42.857  13.039
19796W        W86205  38.985  20.759  10.390
19797W        W86206  35.941  29.368   3.349
19798W        W86207  20.837  28.137  12.977
19799W        W86208   7.740  17.777  13.373
19800W        W86209  36.470   0.830   3.367
19801W        W86210  30.381  29.961   1.157
19802W        W86211   0.406  38.003  10.595
19803W        W86212   6.293  11.309   1.836
19804W        W86213   7.810  22.040   1.782
19805W        W86214  14.238  35.065  10.370
19806W        W86215   4.923  30.425   4.453
19807W        W86216   9.942  20.879   0.700
19808W        W86217   6.596   6.693   4.649
19809W        W86218  32.506   7.458  12.112
19810W        W86219  19.210  28.654   0.278
19811W        W86220  35.263  14.108   0.425
19812W        W86221  13.276  39.300  11.610
19813W        W86222  27.037  19.849  13.378
19814W        W86223  12.648  37.866  13.910
19815W        W86224  11.438  13.025  14.066
19816W        W86225  21.439  33.906   4.060
19817W        W86226  22.482  19.726   3.203
19818W        W86227  11.197   7.432   3.153
19819W        W86228  21.856  16.294   2.186
19820W        W86229  23.073  38.626  12.895
19821W        W86230  41.202   2.941   2.708
19822W        W86231  40.985  42.880   0.192
19823W        W86232  12.046  24.252  11.265
19824W        W86233  44.195  18.701   3.043
19825W        W86234  27.482   3.974  14.394
19826W        W86235  35.057   7.291  12.034
19827W        W86236  38.185  43.081  11.625
19828W        W86237  38.638  29.019  13.803
19829W        W86238  44.802  26.675  14.449
19830W        W86239  35.548   9.814   3.938
19831W        W86240   8.623  11.875  11.885
19832W        W86241  23.379  35.431   2.475
19833W        W86242  41.475   2.306  12.387
19834W        W86243  36.037  29.883   3.095
19835W        W86244  12.854  24.113   2.961
19836W        W86245   9.638  15.164  11.567
19837W        W86246   5.940   4.202   2.759
19838W        W86247  35.893  20.646   1.500
19839W        W86248  17.556  41.088  13.576
19840W        W86249  22.146  13.775   2.475
19841W        W86250  24.041  18.337   4.104
19842W        W86251  13.726  40.903   1.573
19843W        W86252  30.716   6.054   0.522
19844W        W86253  29.221  26.255   2.800
19845W        W86254   0.215  26.620   1.844
19846W        W86255  17.754  36.622  11.597
19847W        W86256  10.612  13.000   3.455
19848W        W86257  42.348   1.822   1.278
19849W        W86258  34.005   6.815   3.702
19850W        W86259  22.748  36.975  13.922
19851W        W86260   7.662  18.264  12.601
19852W        W86261  16.124   1.696   0.331
19853W        W86262  21.270  16.981  13.291
19854W        W86263  18.070  39.090  14.459
19855W        W86264  44.707  20.259  12.858
19856W        W86265  42.307   3.145   3.732
19857W        W86266  29.354  21.915   0.259
19858W        W86267  18.734  28.131  11.793
19859W        W86268  31.876  24.954  14.464
19860W        W86269  25.237   1.967  11.088
19861W        W86270  18.236  16.098  12.913
19862W        W86271  20.268   1.286   2.189
19863W        W86272  42.894   9.386  13.179
19864W        W86273  41.878   0.959  14.289
19865W        W86274  23.704  33.396  13.430
19866W        W86275  20.980   6.453   4.206
19867W        W86276  38.140   9.721   2.252
19868W        W86277  42.601  30.436   3.163
19869W        W86278   1.855   3.211   2.658
19870W        W86279  13.854  12.572  13.817
19871W        W86280   7.064  23.950  11.607
19872W        W86281  37.898  23.635  13.421
19873W        W86282  44.461  40.003  14.481
19874W        W86283  30.783  35.239  12.100
19875W        W86284  12.890  15.254   4.242
19876W        W86285  40.422  15.769   4.100
19877W        W86286   0.928   1.494  11.653
19878W        W86287  26.931  35.343   4.467
19879W        W86288   9.235  34.004   2.252
19880W        W86289  27.390  30.875  13.512
19881W        W86290  25.293   6.364  13.519
19882W        W86291  17.065  12.182   1.322
19883W        W86292  37.843  28.720   2.285
19884W        W86293  17.055   8.367   0.013
19885W        W86294  26.088  43.837   2.934
19886W        W86295   6.559  32.124   1.202
19887W        W86296  24.926  26.025   1.327
19888W        W86297  39.343  23.950  12.949
19889W        W86298  21.301  38.081   1.369
19890W        W86299  28.063  43.124  13.090
19891W        W86300   7.993   6.838   4.103
19892W        W86301  43.040  31.192   3.240
19893W        W86302  36.013  36.300   3.726
19894W        W86303  16.586  27.658  14.778
19895W        W86304   6.474  35.462  11.437
19896W        W86305  14.886  12.814   4.127
19897W        W86306  29.385  21.110   1.852
19898W        W86307   3.708  39.408  14.578
19899W        W86308   4.202  24.873   5.480
19900W        W86309  20.349  24.353  12.531
19901W        W86310  31.341   1.040  13.029
19902W        W86311  15.574   4.338  14.852
19903W        W86312  37.909  32.196  14.736
19904W        W86313  41.060   6.108  14.821
19905W        W86314   2.196  28.536   3.708
19906W        W86315  13.288  20.544   3.926
19907W        W86316  31.035  32.507   3.706
19908W        W86317  15.211  44.362  14.649
19909W        W86318  14.161  10.317  12.814
19910W        W86319  20.286  11.759  10.568
19911W        W86320  32.508  14.958   3.376
19912W        W86321  14.082  13.333  10.662
19913W        W86322   7.565  31.694  12.965
19914W        W86323   7.737  25.676  14.573
19915W        W86324   9.154  34.320   0.944
19916W        W86325  23.986  11.835  14.971
19917W        W86326  22.623   6.230  12.034
19918W        W86327  24.233  38.893  10.935
19919W        W86328  41.550  18.179   4.053
19920W        W86329  39.479  23.502   4.125
19921W        W86330  23.449  39.781  11.670
19922W        W86331  27.131  38.558  11.543
19923W        W86332  37.837   4.787   2.691
19924W        W86333  18.641  11.782   0.537
19925W        W86334  14.019  44.354   3.976
19926W        W86335  42.678   3.807   2.366
19927W        W86336  13.194  15.651  11.398
19928W        W86337  20.081  41.097   0.422
19929W        W86338  28.749  40.300   2.277
19930W        W86339  32.971  41.082   3.340
19931W        W86340  17.639  26.132  14.963
19932W        W86341  24.471   2.421  11.067
19933W        W86342  26.621   2.046   5.097
19934W        W86343  30.417   8.147  11.903
19935W        W86344   3.276  16.645   0.437
19936W        W86345   6.628  26.711  12.892
19937W        W86346  18.209  11.176  12.092
19938W        W86347  13.487   1.140   3.214
19939W        W86348  16.213  31.937   2.341
19940W        W86349   9.587  11.818  12.207
19941W        W86350  16.391  12.766  12.257
19942W        W86351   8.917  43.868   2.751
19943W        W86352  27.190  20.459   0.931
19944W        W86353  23.237  10.206  13.207
19945W        W86354  33.872  28.043  13.267
19946W        W86355  14.014  42.373   4.451
19947W        W86356  29.020  36.457  14.142
19948W        W86357  31.147   8.013   0.909
19949W        W86358  43.201  29.573  11.220
19950W        W86359  36.947  37.852   0.022
19951W        W86360  22.537  18.191  11.304
19952W        W86361  32.894   7.767  13.525
19953W        W86362   4.700  20.107  11.375
19954W        W86363  22.328  21.979  12.095
19955W        W86364  41.562  28.763   4.972
19956W        W86365  36.842  12.201   3.116
19957W        W86366  20.575  17.059  13.991
19958W        W86367  28.142  42.899  14.978
19959W        W86368  27.527  18.802  14.529
19960W        W86369  27.292  36.269  14.896
19961W        W86370   5.510  43.396   1.287
19962W        W86371  31.920  19.793  13.782
19963W        W86372  18.589  13.534  10.825
19964W        W86373  33.950  30.657   4.584
19965W        W86374   0.856  34.631   0.879
19966W        W86375   5.990  39.219   1.940
19967W        W86376  23.064  10.438   1.718
19968W        W86377  24.324  29.842  13.383
19969W        W86378  44.945   1.051   4.703
19970W        W86379  25.590  38.135   0.745
19971W        W86380   9.255  33.141  14.856
19972W        W86381   0.278   4.762   3.408
19973W        W86382  34.020  34.583  12.095
19974W        W86383  38.102  20.810  14.837
19975W        W86384  13.371  16.618   4.429
19976W        W86385   1.820  19.086   4.443
19977W        W86386  27.060  25.881   2.239
19978W        W86387  20.744  28.669   1.606
19979W        W86388  40.359  32.553  14.664
19980W        W86389  20.120  35.834   0.865
19981W        W86390   2.910   1.916   2.819
19982W        W86391  18.281  30.901   0.262
19983W        W86392  28.498   6.360  10.423
19984W        W86393  29.269  12.887  13.942
19985W        W86394  40.561  21.259   2.253
19986W        W86395  38.610  40.401   0.936
19987W        W86396  43.603  17.732  12.077
19988W        W86397  44.497  36.467  12.959
19989W        W86398  26.202   1.022  11.412
19990W        W86399  27.085  42.308  14.476
19991W        W86400  17.222  14.236   3.137
19992W        W86401  39.948   8.840  14.422
19993W        W86402  43.384  34.428  13.382
19994W        W86403   8.937  37.346   2.375
19995W        W86404   7.427  30.855   2.345
19996W        W86405  12.310  26.951  12.004
19997W        W86406  29.917  26.458   1.253
19998W        W86407  21.510  14.034   2.637
19999W        W86408  21.225  17.163   2.657
20000W        W86409  30.201  32.144  11.252
20001W        W86410  25.464  27.872   2.462
20002W        W86411  39.291   8.472  11.582
20003W        W86412  39.350   5.730   2.709
20004W        W86413  34.057  35.819  12.784
20005W        W86414   2.988  15.880  11.997
20006W        W86415   5.668   1.595  14.001
20007W        W86416  24.565   8.489   9.509
20008W        W86417   3.361  19.253   4.340
20009W        W86418  20.617  44.080  14.429
20010W        W86419   3.642   8.231  12.021
20011W        W86420  18.005  31.199  13.425
20012W        W86421  12.595  14.066  14.447
20013W        W86422  19.512  29.342   0.774
20014W        W86423  21.774  41.388   2.877
20015W        W86424  35.253  40.381  14.951
20016W        W86425   2.700  28.007   4.078
20017W        W86426   3.523  14.749   5.054
20018W        W86427  16.756  27.184   2.412
20019W        W86428  13.662  29.498   4.599
20020W        W86429   5.645  25.022   0.613
20021W        W86430  14.875  10.612   0.217
20022W        W86431  20.682  34.376  12.396
20023W        W86432  21.304   7.508  11.613
20024W        W86433  33.517  35.899   0.028
20025W        W86434   2.493   6.293   0.833
20026W        W86435  29.366  40.313  14.551
20027W        W86436   7.351  24.685   2.125
20028W        W86437  41.588  12.690  12.096
20029W        W86438  16.118  42.570   3.142
20030W        W86439  13.192  28.183   3.661
20031W        W86440  40.950  19.666   3.753
20032W        W86441  41.331  12.217   3.645
20033W        W86442  36.576   9.823  11.213
20034W        W86443   2.759  19.176   0.444
20035W        W86444   4.193  36.911   2.645
20036W        W86445  34.510  37.143   4.565
20037W        W86446  34.486  32.515   4.386
20038W        W86447  33.891  38.777  12.431
20039W        W86448  28.426   2.637   2.838
20040W        W86449  25.542  14.218  12.837
20041W        W86450   5.869  38.332   0.681
20042W        W86451  39.157  27.202   1.152
20043W        W86452  14.512  17.560   4.848
20044W        W86453  35.589  22.453   2.795
20045W        W86454  12.267  22.901   2.298
20046W        W86455  26.981  24.194  12.905
20047W        W86456  19.880   1.185  12.360
20048W        W86457  43.286   6.859   4.485
20049W        W86458  13.183  14.744  11.771
20050W        W86459  21.227  26.660   2.681
20051W        W86460  14.067  29.109  11.130
20052W        W86461  11.351  39.913  14.412
20053W        W86462  36.656  44.041   1.157
20054W        W86463  43.228  27.846  12.370
20055W        W86464  13.565  35.068   4.374
20056W        W86465  32.852  35.335   0.853
20057W        W86466  11.271  29.931   1.421
20058W        W86467   4.108   3.051  14.143
20059W        W86468  28.637  35.391  12.469
20060W        W86469  20.623   6.251  12.886
20061W        W86470   5.338  14.235   5.190
20062W        W86471  13.657  43.161  11.210
20063W        W86472  18.273  24.666   0.378
20064W        W86473  39.516   3.703   1.823
20065W        W86474   3.949   6.678  14.097
20066W        W86475  25.072  35.287  10.734
20067W        W86476  10.901  29.595  13.338
20068W        W86477  13.044  11.299   3.047
20069W        W86478  26.386  31.435  11.182
20070W        W86479   1.357   0.479  12.611
20071W        W86480  21.502  42.160   3.644
20072W        W86481  13.188  29.636   2.007
20073W        W86482  27.172  18.760   1.876
20074W        W86483  27.532  24.188  11.636
20075W        W86484   1.177  17.285   2.962
20076W        W86485  27.675  11.768  11.428
20077W        W86486  11.025  42.627   4.764
20078W        W86487  22.602  24.660  14.055
20079W        W86488  20.328  42.286   4.690
20080W        W86489  21.177  41.455  10.287
20081W        W86490  17.755   2.114   0.351
20082W        W86491  23.997  34.363   4.515
20083W        W86492  15.869   8.704  13.602
20084W        W86493   6.343  26.339  13.506
20085W        W86494  30.517  11.045   0.222
20086W        W86495  13.170  33.934  14.179
20087W        W86496  39.253  11.535  11.560
20088W        W86497   1.509  13.736  11.889
20089W        W86498   2.692  32.052   3.171
20090W        W86499   8.952  25.227  12.646
20091W        W86500  37.331  42.049   0.488
20092W        W86501  33.498   9.581   0.326
20093W        W86502   7.523  16.735   4.863
20094W        W86503  12.654  26.638   2.139
20095W        W86504   5.255  32.924  11.033
20096W        W86505  26.525  12.284   1.464
20097W        W86506  42.060  29.122  11.253
20098W        W86507   6.330  32.139  14.273
20099W        W86508  27.669  25.999   0.812
20100W        W86509  33.368  24.267  11.990
20101W        W86510  28.756   2.414  12.007
20102W        W86511  32.123  30.915  11.594
20103W        W86512   4.345   7.892  13.035
20104W        W86513  41.477  13.572   1.417
20105W        W86514   2.924  42.930  14.506
20106W        W86515  15.375  29.562   3.250
20107W        W86516  28.493  11.220   3.341
20108W        W86517  24.538  31.416   2.610
20109W        W86518  32.568   3.156   2.641
20110W        W86519  25.058  26.970   1.406
20111W        W86520  10.706  25.239  12.659
20112W        W86521  36.496  18.538   5.006
20113W        W86522  21.642  18.643  12.497
20114W        W86523  36.076  10.856  10.672
20115W        W86524  35.458  13.885   1.431
20116W        W86525  37.991  36.775   2.232
20117W        W86526  24.936  26.149   0.280
20118W        W86527  24.969  37.464  12.130
20119W        W86528   3.988   3.345  10.812
20120W        W86529   1.545  30.842  13.103
20121W        W86530  44.952  25.071   1.495
20122W        W86531  19.329  15.284   1.626
20123W        W86532  38.392  17.617  12.210
20124W        W86533   8.949  39.858   4.201
20125W        W86534  15.878  35.794   4.221
20126W        W86535  41.227  26.211   3.748
20127W        W86536  36.338  43.738   0.291
20128W        W86537  41.519  18.639  13.405
20129W        W86538  24.602  42.446   4.299
20130W        W86539   6.906  18.302  14.842
20131W        W86540  18.764  29.104  12.658
20132W        W86541  31.194  32.980   3.818
20133W        W86542  43.426  22.398  14.927
20134W        W86543   8.847  12.234  13.409
20135W        W86544  40.975  29.162   1.475
20136W        W86545  43.539  15.501  13.219
20137W        W86546   4.821   0.846  12.410
20138W        W86547  41.292  17.730  14.472
20139W        W86548   5.415  18.755   3.129
20140W        W86549  39.428  40.595  14.459
20141W        W86550   7.405  33.418  14.685
20142W        W86551  20.150  32.138   4.911
20143W        W86552  33.473  40.535   2.419
20144W        W86553  12.827  26.129  12.588
20145W        W86554   9.211   3.079  13.788
20146W        W86555   1.924  17.563   2.733
20147W        W86556  41.118   3.361  14.690
20148W        W86557   2.269  32.081  11.284
20149W        W86558  32.422  27.966  10.999
20150W        W86559  41.922  40.575  12.096
20151W        W86560  30.879  22.690   0.942
20152W        W86561  26.960  41.561   4.122
20153W        W86562  22.484  42.831   2.769
20154W        W86563   1.581  18.521  11.568
20155W        W86564  36.402   0.802   1.912
20156W        W86565   7.318  44.418   0.407
20157W        W86566   5.685  39.765   1.798
20158W        W86567  26.489  22.590   0.643
20159W        W86568   5.329  34.180   0.478
20160W        W86569  32.812  20.774   4.823
20161W        W86570  28.410  41.962   3.231
20162W        W86571  16.354  32.774   3.412
20163W        W86572   3.658  19.916   4.561
20164W        W86573   2.194  21.359  11.084
20165W        W86574  34.212  29.622  12.423
20166W        W86575  30.745  38.953  11.536
20167W        W86576  15.025  24.657  11.301
20168W        W86577  38.529  38.585  10.898
20169W        W86578  34.093   5.801   3.076
20170W        W86579   4.669   8.303  12.133
20171W        W86580  33.130  30.425   3.182
20172W        W86581  29.883   0.956  11.113
20173W        W86582   4.522  12.730  13.530
20174W        W86583  41.437  35.061   1.405
20175W        W86584  42.720   8.844   1.744
20176W        W86585   8.469  44.321  12.501
20177W        W86586  22.178  24.580   1.377
20178W        W86587  14.622  35.373   1.927
20179W        W86588  25.988  27.865   3.374
20180W        W86589  34.308   4.450  14.895
20181W        W86590   8.906  26.551  10.752
20182W        W86591  32.654  42.555   2.558
20183W        W86592  36.949   6.954   4.220
20184W        W86593   6.856  11.531  11.740
20185W        W86594  42.229   4.924   3.299
20186W        W86595  42.438  37.618   4.224
20187W        W86596  39.638   0.434  12.471
20188W        W86597  11.034  10.384   0.913
20189W        W86598  39.113  19.433  14.519
20190W        W86599  12.459  30.613   1.296
20191W        W86600   9.280   1.983   1.805
20192W        W86601  15.068   7.768  14.463
20193W        W86602  42.002  17.608  10.928
20194W        W86603   2.504  38.044  14.336
20195W        W86604  24.492  42.351  10.827
20196W        W86605  20.582  19.487   3.427
20197W        W86606   4.026  18.127  11.038
20198W        W86607  39.775  27.892  11.096
20199W        W86608  31.428  17.422  12.799
20200W        W86609   1.691  16.682  13.394
20201W        W86610   4.710  14.825   1.972
20202W        W86611  27.293  31.139  14.373
20203W        W86612  19.983  33.750   4.147
20204W        W86613  42.370  11.446   3.117
20205W        W86614   0.885  31.082   0.947
20206W        W86615  29.601  16.575  13.323
20207W        W86616  22.561  17.841  13.480
20208W        W86617  14.256  40.184  12.622
20209W        W86618  16.195  30.095   1.785
20210W        W86619   7.438   8.213  10.985
20211W        W86620  26.752   2.002   3.348
20212W        W86621  44.844  18.030   1.184
20213W        W86622   9.312  27.277   4.141
20214W        W86623   9.204  33.151  13.629
20215W        W86624  11.126  39.907  10.549
20216W        W86625  32.091  10.126  14.858
20217W        W86626  39.418   3.710   2.708
20218W        W86627  16.134  17.210  14.541
20219W        W86628  13.731  21.300  11.912
20220W        W86629  42.889  16.253   0.298
20221W        W86630  30.605  33.173  12.041
20222W        W86631  19.036  35.135  11.080
20223W        W86632  17.982   2.912  11.530
20224W        W86633   9.364  11.672   0.158
20225W        W86634  14.694  28.409   2.506
20226W        W86635  44.192   6.610  12.342
20227W        W86636  37.846  38.925  14.851
20228W        W86637  16.734  29.180   3.689
20229W        W86638  19.491  20.868   2.806
20230W        W86639  28.485  40.186  11.986
20231W        W86640   8.732  41.611  13.256
20232W        W86641  37.521  43.613   4.104
20233W        W86642  29.174   8.004  14.586
20234W        W86643  23.259   6.011   1.713
20235W        W86644   0.555   8.359  12.360
20236W        W86645  32.794   6.328  14.417
20237W        W86646  26.971  15.021   3.616
20238W        W86647  22.622   7.723  11.713
20239W        W86648  14.836  44.511   2.341
20240W        W86649  16.181  10.045  13.714
20241W        W86650   6.210  29.460  10.734
20242W        W86651  17.524  33.057  11.130
20243W        W86652  19.629  40.440  14.460
20244W        W86653  44.963  20.297  11.641
20245W        W86654  22.218  18.126  14.515
20246W        W86655  42.002  12.679   1.364
20247W        W86656  18.160  43.709  11.730
20248W        W86657  22.027   3.728   2.181
20249W        W86658  19.248  14.654  13.295
20250W        W86659  17.230  40.584  12.876
20251W        W86660  36.641   6.041   4.122
20252W        W86661  15.889  22.458  13.395
20253W        W86662  21.077  26.774   2.191
20254W        W86663   0.537  36.454   1.934
20255W        W86664  16.897  10.181  12.440
20256W        W86665  25.481  10.283   3.799
20257W        W86666   1.526   5.263   2.236
20258W        W86667  18.194  35.143  13.823
20259W        W86668  21.215  37.207  10.876
20260W        W86669   4.905  38.504  13.378
20261W        W86670  15.536  34.001  14.778
20262W        W86671  31.277  42.817  13.230
20263W        W86672   1.998   2.741   0.903
20264W        W86673  42.782  35.553   1.538
20265W        W86674  38.460  21.736  14.557
20266W        W86675   5.383  31.417   2.398
20267W        W86676  27.656  40.617  11.216
20268W        W86677  26.618  42.249  12.308
20269W        W86678   4.665   0.894  11.602
20270W        W86679   1.437  44.017   4.169
20271W        W86680   8.692  40.256  12.895
20272W        W86681  32.173   1.262   4.936
20273W        W86682   8.597  22.071   0.216
20274W        W86683  40.905  32.599  11.238
20275W        W86684   0.878  44.057  10.818
20276W        W86685  31.883   5.243   2.528
20277W        W86686  32.344  42.248   3.318
20278W        W86687  40.453  26.250  12.134
20279W        W86688  15.042  39.946  10.654
20280W        W86689  33.115   5.886  11.973
20281W        W86690  14.559   1.412   1.133
20282W        W86691  11.834  30.126   0.660
20283W        W86692  36.105  43.482   2.400
20284W        W86693   8.369  44.416  13.935
20285W        W86694  24.944  19.608  12.411
20286W        W86695  42.241  28.427  14.062
20287W        W86696  22.040  24.780   3.160
20288W        W86697  24.775  26.942   2.230
20289W        W86698  37.088  31.213  11.707
20290W        W86699  12.630   4.589   0.348
20291W        W86700  42.433  36.573   0.857
20292W        W86701   4.228   6.351   2.541
20293W        W86702   9.852  34.584   2.421
20294W        W86703  27.569  37.397   1.850
20295W        W86704   6.164  44.776   0.661
20296W        W86705  27.517  33.534   1.614
20297W        W86706  39.999  14.331   3.811
20298W        W86707  10.089  34.324  11.611
20299W        W86708  42.322  40.813   0.889
20300W        W86709  10.654  26.645  12.489
20301W        W86710  23.429  29.814   4.054
20302W        W86711  24.066   4.211   2.811
20303W        W86712  26.135  10.679  12.035
20304W        W86713  35.170  14.254   2.211
20305W        W86714  27.712   2.408   1.702
20306W        W86715   0.309  17.402   0.733
20307W        W86716  23.878  33.061  12.631
20308W        W86717  11.471  31.106  12.428
20309W        W86718  41.052  37.916   3.675
20310W        W86719  35.126   5.406   2.698
20311W        W86720  11.201  22.050  12.032
20312W        W86721  33.456   6.324   0.086
20313W        W86722  23.543  26.511   4.804
20314W        W86723   9.407  15.444  13.877
20315W        W86724  42.935  31.586   1.205
20316W        W86725  18.599  33.006  14.095
20317W        W86726   1.810  31.590   2.611
20318W        W86727   8.690  41.814   1.462
20319W        W86728  26.680  31.819   0.574
20320W        W86729  27.524  18.805  11.107
20321W        W86730  31.557  40.803  12.998
20322W        W86731  25.927  25.050   3.187
20323W        W86732  39.548  24.070  13.447
20324W        W86733  20.272  21.176   0.389
20325W        W86734   2.965  33.846   0.414
20326W        W86735  41.434  19.064  14.122
20327W        W86736  33.057   2.372   2.208
20328W        W86737   9.929  25.580   3.302
20329W        W86738  13.707  23.188   2.841
20330W        W86739  29.091  38.376   1.370
20331W        W86740  18.083   5.928   4.685
20332W        W86741  27.208  25.673   0.459
20333W        W86742  10.747  37.415  12.080
20334W        W86743  12.286  10.584  14.732
20335W        W86744   8.453  31.370   4.076
20336W        W86745   0.518  16.462  11.608
20337W        W86746  16.315   2.681  10.530
20338W        W86747  16.751  27.255   3.407
20339W        W86748   5.702   9.709  14.927
20340W        W86749   1.798  39.555  10.761
20341W        W86750  16.743  30.042  10.967
20342W        W86751  18.838  10.300   3.770
20343W        W86752  14.986  26.517  12.018
20344W        W86753  41.597  16.840  12.907
20345W        W86754  12.587  29.891   0.229
20346W        W86755   7.208  32.533   3.189
20347W        W86756  11.658  14.600   0.381
20348W        W86757   7.985  23.124   4.097
20349W        W86758  31.056  42.001   4.504
20350W        W86759  14.151   7.924  14.498
20351W        W86760  28.904  30.842  13.787
20352W        W86761  21.500  39.822  10.489
20353W        W86762  13.238  21.985  12.469
20354W        W86763  42.706   7.793  11.075
20355W        W86764  40.597  29.198   0.364
20356W        W86765  20.321  34.409  14.497
20357W        W86766  11.531  41.454   0.925
20358W        W86767  42.918  11.951   3.780
20359W        W86768  42.499  18.550   4.347
20360W        W86769  27.599  38.928   1.828
20361W        W86770   5.506  12.931   3.595
20362W        W86771   4.828  15.097  14.873
20363W        W86772   1.685  14.022  11.470
20364W        W86773  29.991  11.379  11.535
20365W        W86774  28.355  30.601  10.490
20366W        W86775  14.827   0.002  14.954
20367W        W86776  39.544  28.433   3.710
20368W        W86777  14.805  34.753  12.166
20369W        W86778  34.032   4.997  12.999
20370W        W86779  18.802  39.067   0.766
20371W        W86780  40.565  43.502  10.732
20372W        W86781   5.273  10.260   1.519
20373W        W86782  21.957  18.011   3.879
20374W        W86783  21.243  20.309   4.092
20375W        W86784  40.089   8.179   4.300
20376W        W86785  44.633  37.094   3.323
20377W        W86786  30.313   2.401   3.182
20378W        W86787   5.758  35.360  13.431
20379W        W86788  29.906   3.704   0.339
20380W        W86789   1.024  10.202   4.684
20381W        W86790  22.758  25.448   1.492
20382W        W86791  31.824  17.766  14.520
20383W        W86792  25.600  34.182  10.559
20384W        W86793  20.711  28.890   0.451
20385W        W86794   5.831  28.017  12.927
20386W        W86795   8.110  14.041  11.662
20387W        W86796  13.120  25.121  11.123
20388W        W86797  12.328  37.083  11.865
20389W        W86798   7.816  22.784  14.985
20390W        W86799  12.317  26.620   1.730
20391W        W86800   6.623   3.113   3.439
20392W        W86801  10.280  30.404   4.551
20393W        W86802  37.908  13.102   1.042
20394W        W86803  30.626   2.232  10.303
20395W        W86804  43.931  29.876  14.018
20396W        W86805  43.757  41.382  13.388
20397W        W86806  22.466   3.420  12.381
20398W        W86807  30.016  17.863   3.387
20399W        W86808  18.484  39.579   1.921
20400W        W86809  40.993  15.390  10.703
20401W        W86810  15.103  39.504  14.584
20402W        W86811  26.713  36.634  11.975
20403W        W86812   1.206  17.079  11.482
20404W        W86813   2.890  25.084   2.427
20405W        W86814  25.183   4.938  10.235
20406W        W86815   5.012   5.243  10.336
20407W        W86816  38.095  14.292  14.917
20408W        W86817  20.694  41.063   2.482
20409W        W86818   1.689  38.760  14.817
20410W        W86819  28.118   6.257  11.464
20411W        W86820  42.996  39.477   1.900
20412W        W86821  36.408  37.616   2.224
20413W        W86822  38.412  31.984  11.822
20414W        W86823   6.007  10.752   2.708
20415W        W86824  37.632   1.606   2.862
20416W        W86825  44.716  38.031  13.830
20417W        W86826  37.059  23.933   1.957
20418W        W86827  26.052  28.503   0.487
20419W        W86828   6.538   2.794  14.017
20420W        W86829  42.886  11.288  10.802
20421W        W86830  39.879  36.104   4.210
20422W        W86831  17.164  11.392   0.793
20423W        W86832   1.748  27.422   0.798
20424W        W86833  43.902  28.417  10.661
20425W        W86834  19.984   4.469   1.325
20426W        W86835  35.980   3.919  11.852
20427W        W86836   8.145   0.387   5.184
20428W        W86837  41.471  13.272   0.942
20429W        W86838  29.663   4.950   1.332
20430W        W86839  44.413   0.288   3.852
20431W        W86840  31.147   1.818   2.203
20432W        W86841  36.451  11.189   0.172
20433W        W86842   4.781  44.567  13.009
20434W        W86843  41.103  26.178   3.169
20435W        W86844  24.008  15.732  10.686
20436W        W86845   1.728  38.244  14.700
20437W        W86846   2.114  13.828  14.758
20438W        W86847   3.671  42.918  11.404
20439W        W86848  21.131  13.575   0.662
20440W        W86849  34.178  30.885   1.423
20441W        W86850  16.307  19.874   0.873
20442W        W86851   9.376   1.407   2.382
20443W        W86852   5.676   8.726  14.793
20444W        W86853  38.809  37.789  13.963
20445W        W86854  30.514  30.064   4.841
20446W        W86855  44.402  27.635  14.073
20447W        W86856  16.590  26.216   0.430
20448W        W86857   2.539  30.973   3.602
20449W        W86858   3.984  32.096  12.626
20450W        W86859  40.410  29.706   0.404
20451W        W86860   0.176  25.747   4.111
20452W        W86861  17.995  12.698   3.581
20453W        W86862  41.494   5.208  12.969
20454W        W86863  35.035  28.166   3.732
20455W        W86864  16.305   5.823   1.206
20456W        W86865  30.016  28.656   3.392
20457W        W86866   0.796  37.761  14.801
20458W        W86867   2.345  31.056   1.906
20459W        W86868  24.515  23.270  14.611
20460W        W86869  10.311  23.975   1.538
20461W        W86870  29.128  27.969   4.916
20462W        W86871  17.570  31.396   0.941
20463W        W86872   9.331  28.618   0.269
20464W        W86873  34.968  22.709   1.767
20465W        W86874  41.504  38.803   3.279
20466W        W86875   5.228   7.768   2.763
20467W        W86876   9.906  20.992   4.142
20468W        W86877  42.779  30.117  12.611
20469W        W86878  42.504  11.444   4.105
20470W        W86879  13.238  44.322   2.247
20471W        W86880  10.984   3.340  11.917
20472W        W86881   7.327  11.160   3.158
20473W        W86882  10.544   1.007  14.790
20474W        W86883  35.570  15.176   0.341
20475W        W86884  15.613  24.388  12.424
20476W        W86885  30.369  36.625  11.315
20477W        W86886  13.784   9.673   4.562
20478W        W86887  30.416  25.557   2.234
20479W        W86888  31.412   0.723  12.610
20480W        W86889  10.346  25.370   1.241
20481W        W86890   7.851  44.788   3.150
20482W        W86891  41.844  37.920  13.062
20483W        W86892  14.889   1.335  12.296
20484W        W86893  21.538  34.826  14.798
20485W        W86894  32.822   4.709   2.819
20486W        W86895  18.689  21.366   2.753
20487W        W86896  33.006   1.084  10.775
20488W        W86897  13.286   4.488  12.386
20489W        W86898  29.647  23.760   4.724
20490W        W86899  42.018  32.822  14.048
20491W        W86900   7.800  20.980   0.514
20492W        W86901  42.953   2.724  12.948
20493W        W86902  37.054  24.685  13.418
20494W        W86903  44.440  20.247   1.360
20495W        W86904  22.219  40.632  11.802
20496W        W86905  40.992  18.673  11.629
20497W        W86906  36.577  44.442   1.528
20498W        W86907  18.684  18.708  11.170
20499W        W86908  27.694  44.916  11.777
20500W        W86909   4.336   0.837  14.880
20501W        W86910   3.919  26.117  10.572
20502W        W86911  24.301  17.016   0.647
20503W        W86912  12.554  20.139   2.318
20504W        W86913  42.224  26.579  11.840
20505W        W86914  25.186  16.192  13.820
20506W        W86915   7.134  25.886   1.910
20507W        W86916   0.509   3.303   4.635
20508W        W86917  24.603   4.685   3.808
20509W        W86918  33.634  19.243   3.040
20510W        W86919  18.771  29.498   2.634
20511W        W86920  10.722  19.764   2.753
20512W        W86921   7.325   8.261   4.503
20513W        W86922  35.024  22.628  14.443
20514W        W86923  30.822  42.227  11.018
20515W        W86924  28.599   4.799   2.980
20516W        W86925  39.071  19.241  10.495
20517W        W86926  39.085  39.581   3.707
20518W        W86927  43.617  20.703   0.785
20519W        W86928   2.541  19.782  11.999
20520W        W86929   2.092  37.911  13.029
20521W        W86930  34.911  26.146  10.571
20522W        W86931  11.898  44.185   1.385
20523W        W86932  11.712  44.232   5.040
20524W        W86933  12.204  20.263   0.296
20525W        W86934  43.838  21.617  14.413
20526W        W86935  33.503  37.972   4.143
20527W        W86936  41.602  37.434   4.835
20528W        W86937  33.728  22.824  13.399
20529W        W86938  24.673  44.293  14.966
20530W        W86939  39.206  28.468   3.315
20531W        W86940  15.300  25.634  12.066
20532W        W86941  15.625  20.704   0.492
20533W        W86942  12.211  23.307   4.020
20534W        W86943  23.953  20.135   0.361
20535W        W86944  39.413  15.789   1.816
20536W        W86945   4.225  30.464  11.981
20537W        W86946  37.512  22.303   1.455
20538W        W86947  36.070   3.172   1.816
20539W        W86948   0.971  12.576   4.990
20540W        W86949   8.310  43.887  13.338
20541W        W86950   6.398  29.433  11.689
20542W        W86951  12.389  18.500   4.574
20543W        W86952  12.837  31.972  10.558
20544W        W86953  33.702  24.072   4.485
20545W        W86954  40.402  31.397  11.609
20546W        W86955  21.059  38.876   4.604
20547W        W86956   3.757  27.403   0.257
20548W        W86957  29.121  38.202  13.552
20549W        W86958  37.084  21.291  11.736
20550W        W86959  34.832  30.943   0.536
20551W        W86960  28.591  24.212   0.085
20552W        W86961  31.672  24.572   2.475
20553W        W86962  18.170   5.365   2.414
20554W        W86963  16.188   4.168  13.475
20555W        W86964  41.869  40.445   4.375
20556W        W86965  11.318  35.942  14.410
20557W        W86966  11.278  22.799  11.520
20558W        W86967   1.388  29.245   3.211
20559W        W86968  36.516  35.602   2.666
20560W        W86969   3.321  34.618  12.477
20561W        W86970   1.918   4.742   3.620
20562W        W86971  43.736  32.226  14.474
20563W        W86972  28.379   5.852  10.539
20564W        W86973  19.818   8.165  12.073
20565W        W86974  16.240   1.187   0.290
20566W        W86975  29.956   8.320  12.295
20567W        W86976  14.078  15.235  10.960
20568W        W86977  44.805  41.301   4.167
20569W        W86978  18.142  37.837   0.158
20570W        W86979  36.911  20.763   2.812
20571W        W86980  19.683  18.265   2.299
20572W        W86981   5.688  35.875   3.971
20573W        W86982  34.192   5.895   4.117
20574W        W86983  26.273   7.800  11.996
20575W        W86984   0.178  18.631  13.892
20576W        W86985   2.953  14.196   4.161
20577W        W86986  44.259   3.278  11.546
20578W        W86987   2.301   4.355   3.344
20579W        W86988  40.306  14.842   4.623
20580W        W86989  17.111   5.790   1.758
20581W        W86990  12.110  21.730   4.811
20582W        W86991  23.998  12.288  14.036
20583W        W86992  26.620  14.348   3.056
20584W        W86993  16.285  18.016  14.957
20585W        W86994   9.341  13.809  10.701
20586W        W86995  18.101   9.235   2.818
20587W        W86996  12.962  37.927   9.979
20588W        W86997   9.255   3.201  12.900
20589W        W86998  44.032  38.143   4.631
20590W        W86999  33.666   1.177  10.618
20591W        W87000  33.599  15.831  14.442
20592W        W87001  43.894  16.141  12.899
20593W        W87002  30.963   8.950   5.028
20594W        W87003  41.539  11.882  14.303
20595W        W87004  30.900  13.463  12.264
20596W        W87005  34.609  39.774   3.692
20597W        W87006  33.529  32.835  10.704
20598W        W87007  22.102  24.246   2.360
20599W        W87008  31.726  23.972  12.620
20600W        W87009   5.253  39.161   3.380
20601W        W87010  18.430   5.317  10.967
20602W        W87011   9.079  14.809   2.592
20603W        W87012  27.105  11.115  10.327
20604W        W87013  24.645   0.010   1.420
20605W        W87014  20.140  23.466   0.327
20606W        W87015  33.089   6.101   4.664
20607W        W87016  15.819  31.087   4.527
20608W        W87017  39.860   9.337   0.798
20609W        W87018  41.892  40.729  13.403
20610W        W87019  12.457   0.857  14.237
20611W        W87020  24.602  18.543   2.185
20612W        W87021  14.905  30.246   0.366
20613W        W87022   0.773  10.657  11.563
20614W        W87023  27.661   0.517   2.005
20615W        W87024  32.624  28.022  13.916
20616W        W87025   3.497  17.520   4.738
20617W        W87026  32.198  40.864  14.383
20618W        W87027  12.004  17.990  12.483
20619W        W87028  20.676   2.236   2.721
20620W        W87029   3.415  32.452   1.571
20621W        W87030   8.881  38.783   1.712
20622W        W87031   6.235  36.945   1.639
20623W        W87032  30.932  32.590  10.908
20624W        W87033  31.528  26.178   0.236
20625W        W87034   0.598  22.038  13.458
20626W        W87035   9.295  23.601  11.429
20627W        W87036   4.425  43.256   0.811
20628W        W87037  42.344  40.322  11.912
20629W        W87038  36.829  21.079   3.293
20630W        W87039   6.546  18.719  11.721
20631W        W87040  24.722  41.548   1.894
20632W        W87041   9.429  39.886   2.430
20633W        W87042  43.799  26.856  12.854
20634W        W87043  10.814  25.976  14.904
20635W        W87044  41.800  31.319   2.346
20636W        W87045  38.887  13.915  10.283
20637W        W87046   8.951  28.980   3.795
20638W        W87047  43.033  35.543  12.886
20639W        W87048  15.688  30.252  14.759
20640W        W87049  22.274  17.702  13.892
20641W        W87050  10.699  24.997   0.837
20642W        W87051  19.881  13.349   0.327
20643W        W87052   0.404  26.364   1.425
20644W        W87053   1.819  25.639  10.452
20645W        W87054   2.767  14.312   0.182
20646W        W87055  15.700   6.732   4.000
20647W        W87056   3.828  43.932   2.681
20648W        W87057  26.708  29.463  10.704
20649W        W87058  22.722  36.045   3.574
20650W        W87059  17.147  22.848   1.272
20651W        W87060   4.739  33.531  11.335
20652W        W87061  22.939  36.032  12.009
20653W        W87062   2.379  23.579  11.622
20654W        W87063   6.816  18.129   0.326
20655W        W87064   4.480  37.485   0.343
20656W        W87065  16.712  22.498   2.630
20657W        W87066   2.914   0.764   4.521
20658W        W87067  18.236  27.159  13.230
20659W        W87068  41.587  41.473  13.630
20660W        W87069   8.880  19.005  14.239
20661W        W87070  18.525  28.678  14.564
20662W        W87071  13.594  36.595  13.907
20663W        W87072  38.797  26.874  13.110
20664W        W87073  24.559  18.290   4.123
20665W        W87074  11.901  11.948  11.199
20666W        W87075  36.873  34.416   3.178
20667W        W87076  21.753   8.464  14.983
20668W        W87077   8.025  15.277  12.094
20669W        W87078  22.280  32.628   4.699
20670W        W87079  12.684   9.847   2.167
20671W        W87080  25.180  16.687  14.685
20672W        W87081  16.530  12.222  14.307
20673W        W87082  10.068   1.779  10.773
20674W        W87083  41.372  22.088   1.775
20675W        W87084  39.373  21.903   0.482
20676W        W87085  18.350  18.104   1.670
20677W        W87086  42.296  43.622   2.395
20678W        W87087  16.692  35.487  10.459
20679W        W87088  36.011  33.178  14.673
20680W        W87089  38.667  30.470   9.910
20681W        W87090  25.015  40.564   5.167
20682W        W87091   2.317  43.771  14.280
20683W        W87092  10.657  23.731  14.461
20684W        W87093   0.198   4.859  11.128
20685W        W87094   7.353  19.676   0.091
20686W        W87095  37.889  35.252  14.325
20687W        W87096  37.312  13.659  12.026
20688W        W87097  25.694  23.726  12.848
20689W        W87098  40.023  17.013  13.837
20690W        W87099  21.239  13.656   2.857
20691W        W87100  39.898  27.032  14.012
20692W        W87101  13.573   8.873   0.837
20693W        W87102  17.156   5.835  13.036
20694W        W87103  28.374   0.995  12.862
20695W        W87104  26.205   7.396   4.562
20696W        W87105  44.558  11.055  14.873
20697W        W87106  40.789  15.640  13.962
20698W        W87107  20.301  15.085  14.413
20699W        W87108  39.315   2.880  14.079
20700W        W87109  24.974  39.853   2.781
20701W        W87110  37.990  21.266  14.028
20702W        W87111  14.717  30.414  12.093
20703W        W87112   6.358  27.909   2.636
20704W        W87113  29.514   3.738  14.991
20705W        W87114  28.100  18.747   0.156
20706W        W87115  43.766   9.649   3.716
20707W        W87116  34.378  32.616   1.242
20708W        W87117  24.674  37.208   2.260
20709W        W87118  19.479   9.902  12.064
20710W        W87119  32.154  16.304   1.754
20711W        W87120   4.319  40.258   3.623
20712W        W87121  34.890  13.850  14.550
20713W        W87122  12.421  18.648  14.806
20714W        W87123  28.577  22.508   3.602
20715W        W87124  31.422   1.166  14.603
20716W        W87125  28.433  18.822  13.297
20717W        W87126  37.126  19.981  13.928
20718W        W87127  21.656  34.962   4.258
20719W        W87128  33.639  34.635   2.829
20720W        W87129   3.064  43.966  14.789
20721W        W87130   3.070  25.678   4.434
20722W        W87131  35.544  17.562  14.851
20723W        W87132  43.888  28.881  13.817
20724W        W87133  30.916  22.109  13.068
20725W        W87134  25.071  42.335   1.038
20726W        W87135  40.379  23.440  13.356
20727W        W87136  16.781  35.396  13.142
20728W        W87137  28.721  28.990   4.239
20729W        W87138  23.735  28.485   2.171
20730W        W87139  24.573  20.568   9.686
20731W        W87140  39.788   3.788   0.970
20732W        W87141  43.639  42.394  11.137
20733W        W87142  39.076  33.406  12.787
20734W        W87143  43.262  18.226  11.140
20735W        W87144  19.152   9.745   0.420
20736W        W87145   6.476   6.434   2.256
20737W        W87146  19.215   8.191   0.358
20738W        W87147  40.720  33.796   0.225
20739W        W87148  19.604  40.091   3.591
20740W        W87149  44.357   8.760  12.345
20741W        W87150  13.787  24.653   2.323
20742W        W87151   3.336   9.804   3.776
20743W        W87152  20.516  23.070   0.315
20744W        W87153  35.421   2.653   1.290
20745W        W87154  14.407   3.966  13.037
20746W        W87155  40.946  10.539  12.422
20747W        W87156  37.465  12.064  11.897
20748W        W87157  10.546   7.435  13.576
20749W        W87158  42.425  14.165  14.840
20750W        W87159   2.384  34.157   2.856
20751W        W87160  13.859  27.362  11.160
20752W        W87161  31.829  32.150   2.853
20753W        W87162  37.388  13.549   2.234
20754W        W87163  37.609  20.727   0.724
20755W        W87164  10.217  24.747  11.033
20756W        W87165  29.418  18.722  11.677
20757W        W87166   0.961  15.883   3.248
20758W        W87167  26.726   7.900   9.778
20759W        W87168  42.059  13.560   4.591
20760W        W87169  30.565   7.919  12.357
20761W        W87170  23.106  10.744   0.400
20762W        W87171   3.334   9.620   4.635
20763W        W87172   7.850  26.165   4.516
20764W        W87173  36.250  33.659   2.759
20765W        W87174  20.108  41.596  13.863
20766W        W87175  28.604  29.476  14.176
20767W        W87176   2.698  12.183   4.106
20768W        W87177  37.594  29.824   3.995
20769W        W87178  19.086  33.971  11.107
20770W        W87179  10.321  29.511   1.071
20771W        W87180  18.672  28.937  10.629
20772W        W87181  44.526  14.020   1.699
20773W        W87182  39.894  17.729  12.137
20774W        W87183  20.767   3.446  11.559
20775W        W87184  30.873  44.548   4.568
20776W        W87185  17.674  34.328   0.904
20777W        W87186   3.260  32.380   1.086
20778W        W87187  41.987   8.106   3.347
20779W        W87188   4.331  25.386  12.602
20780W        W87189  30.984  30.487  12.501
20781W        W87190  29.594  33.346  13.016
20782W        W87191  24.901  39.686   0.817
20783W        W87192  20.794   1.776   3.692
20784W        W87193  23.243  10.107  12.384
20785W        W87194  17.988  32.464  12.077
20786W        W87195  23.251  42.518   2.390
20787W        W87196   6.359  21.770   4.824
20788W        W87197   2.710  41.644  13.475
20789W        W87198  35.432   3.199   2.530
20790W        W87199  33.323   6.457   1.620
20791W        W87200  30.797   8.236   2.298
20792W        W87201  25.314  37.424  13.532
20793W        W87202  13.087  28.225  10.713
20794W        W87203   5.149   8.653  13.476
20795W        W87204   9.056  31.009   1.186
20796W        W87205  37.449  33.095   3.016
20797W        W87206  16.349  10.737  11.996
20798W        W87207   5.825  10.671   0.065
20799W        W87208  44.523  36.950  10.718
20800W        W87209  34.560  22.117  13.053
20801W        W87210  24.546  28.137  13.171
20802W        W87211  42.900   7.228  11.764
20803W        W87212  24.756  32.979   4.717
20804W        W87213  35.845  38.483  10.714
20805W        W87214  38.332  34.655   4.812
20806W        W87215   3.410   2.328  10.671
20807W        W87216  14.816  26.073   0.330
20808W        W87217  19.632  25.692   0.783
20809W        W87218   5.122  12.267  13.889
20810W        W87219  19.912  38.306   0.970
20811W        W87220  29.240  24.832   0.364
20812W        W87221  16.649   5.746  11.164
20813W        W87222  39.644  42.724   3.609
20814W        W87223  33.450  21.720  11.033
20815W        W87224  14.737  16.790   0.477
20816W        W87225   6.443  27.866  13.448
20817W        W87226  20.079  15.337  14.806
20818W        W87227  13.448  18.535  11.428
20819W        W87228   4.577  42.403  11.127
20820W        W87229  10.240  44.001  12.898
20821W        W87230  29.485  14.260  12.762
20822W        W87231  12.947  37.935  14.883
20823W        W87232  30.171  34.418   2.259
20824W        W87233  19.093  36.800   2.729
20825W        W87234  17.075  18.784   2.765
20826W        W87235  37.971  41.954  12.180
20827W        W87236  16.970  21.252  13.491
20828W        W87237  19.769  39.569  13.532
20829W        W87238  36.586  22.626  10.511
20830W        W87239  34.239   0.302   4.879
20831W        W87240  15.473  43.595   3.803
20832W        W87241  26.165  11.558  12.186
20833W        W87242  39.578  37.459   4.617
20834W        W87243  19.652  32.707  12.859
20835W        W87244  14.324   0.933  10.268
20836W        W87245  25.672   5.106   2.849
20837W        W87246  38.727  27.977   1.704
20838W        W87247  42.815  20.504  14.570
20839W        W87248  21.279  22.530  13.790
20840W        W87249   5.173  40.370  11.563
20841W        W87250  31.361  17.941  12.916
20842W        W87251  19.318  39.231  11.583
20843W        W87252   0.964  17.188   1.352
20844W        W87253  28.478  21.258   0.871
20845W        W87254  19.422  16.147   4.647
20846W        W87255   9.793  10.795  13.730
20847W        W87256  15.624  37.514  11.699
20848W        W87257  42.033   6.465  12.627
20849W        W87258  37.185  43.971  11.184
20850W        W87259   1.449  32.881   3.639
20851W        W87260  32.149  43.811  14.936
20852W        W87261  30.044  34.953   4.365
20853W        W87262   5.311  42.846  12.488
20854W        W87263  32.782  14.824  12.145
20855W        W87264  32.368   6.001  14.370
20856W        W87265  24.550   8.112  12.588
20857W        W87266  16.593  19.442   3.324
20858W        W87267  13.028  38.333  12.833
20859W        W87268  42.295  41.433  13.746
20860W        W87269  23.673  21.269  13.553
20861W        W87270  35.408  35.441   4.569
20862W        W87271   5.904  35.101   1.162
20863W        W87272   5.187  17.149   2.818
20864W        W87273  29.586  17.797   3.687
20865W        W87274  24.948  15.552  11.893
20866W        W87275   5.118  35.793  12.223
20867W        W87276   0.981  23.210  12.532
20868W        W87277   5.724   0.427  11.447
20869W        W87278  37.629  39.464   4.083
20870W        W87279  34.017  37.051   2.880
20871W        W87280  40.537  36.897   4.346
20872W        W87281  41.991  17.660   1.101
20873W        W87282  15.957  29.258  14.916
20874W        W87283  40.923  29.008  14.596
20875W        W87284   7.907  12.042   2.402
20876W        W87285  29.208   7.520   1.220
20877W        W87286  30.928  15.793   3.558
20878W        W87287  43.151  30.460   1.157
20879W        W87288  21.795  31.205  11.616
20880W        W87289  43.820   6.375  13.895
20881W        W87290  18.559  34.501  12.915
20882W        W87291  37.463   7.974   1.965
20883W        W87292   4.992  12.178   1.889
20884W        W87293  14.599   1.466   5.308
20885W        W87294  34.772  39.247  12.549
20886W        W87295  21.717  30.892   0.534
20887W        W87296  34.633  29.862  11.536
20888W        W87297  32.934  23.819  11.054
20889W        W87298  42.589  31.092   2.959
20890W        W87299  19.592  42.826   1.731
20891W        W87300  36.296   6.840  10.607
20892W        W87301  14.358  30.733   3.483
20893W        W87302  44.507  39.320   3.689
20894W        W87303  27.401   2.229   2.097
20895W        W87304  16.058  19.458   3.130
20896W        W87305  24.086  19.918   1.838
20897W        W87306   9.161   6.436  12.796
20898W        W87307  20.529  18.270  12.413
20899W        W87308   4.165  24.072  11.137
20900W        W87309  34.397   0.393   2.718
20901W        W87310  27.755   4.422   4.119
20902W        W87311  43.416  32.466  12.987
20903W        W87312   6.002  11.638  14.901
20904W        W87313  18.589   6.552   3.618
20905W        W87314   0.217  13.929   4.552
20906W        W87315  10.656   5.042  14.094
20907W        W87316   4.795   6.329  12.855
20908W        W87317  10.814  31.898  12.865
20909W        W87318  35.163  42.776  14.374
20910W        W87319  24.603  12.173  12.007
20911W        W87320  29.387  25.066   0.854
20912W        W87321   5.369  39.812   1.267
20913W        W87322   8.794  34.796  13.783
20914W        W87323  37.129   3.889   2.223
20915W        W87324  28.285  42.431  14.818
20916W        W87325  31.407  29.690  10.776
20917W        W87326   9.195   5.824  10.740
20918W        W87327  10.184  34.634  13.258
20919W        W87328  18.629  26.345   2.872
20920W        W87329  12.416  27.098   1.928
20921W        W87330   5.607  36.988   3.841
20922W        W87331  20.712  35.671   4.320
20923W        W87332  34.643  22.007  10.740
20924W        W87333   3.691  28.030   2.738
20925W        W87334  29.594  30.975   0.718
20926W        W87335  27.511   0.972   1.699
20927W        W87336  18.713   5.203   0.674
20928W        W87337  22.932  21.029  10.790
20929W        W87338  23.772  34.888  14.045
20930W        W87339  24.251  20.663   3.800
20931W        W87340  40.785  42.691   0.981
20932W        W87341   5.526  19.101  12.568
20933W        W87342  34.364  23.175  14.694
20934W        W87343   8.322  30.265  12.688
20935W        W87344  38.452  32.193   1.385
20936W        W87345  31.409  33.162   2.975
20937W        W87346  22.018  10.217  10.821
20938W        W87347  34.878  30.930   4.186
20939W        W87348  20.143  42.420   3.668
20940W        W87349   8.641  27.533   1.412
20941W        W87350  30.883   6.232  13.380
20942W        W87351  13.839   9.687   2.087
20943W        W87352  42.953   7.842   3.248
20944W        W87353  31.439   1.871  12.151
20945W        W87354   2.784  36.100   0.895
20946W        W87355  11.700  33.083  13.421
20947W        W87356  20.086  24.923  11.661
20948W        W87357   5.793  37.986  12.153
20949W        W87358   6.304  42.402   4.198
20950W        W87359  10.269  12.687  14.352
20951W        W87360  32.934   3.887  14.519
20952W        W87361  36.961  11.126   4.075
20953W        W87362  30.116  43.069   3.215
20954W        W87363  26.059  41.056   0.413
20955W        W87364  29.169  44.252   4.051
20956W        W87365  34.391  30.334  14.816
20957W        W87366   9.626  37.345   0.842
20958W        W87367   1.117  42.609  14.057
20959W        W87368  32.464  14.164  11.625
20960W        W87369  13.858  24.464   4.545
20961W        W87370   9.244  44.659  11.470
20962W        W87371  36.422   1.413   0.222
20963W        W87372  17.121  44.490  14.896
20964W        W87373  35.521  22.049  11.674
20965W        W87374  43.886  26.628   4.070
20966W        W87375  43.047  13.820   3.386
20967W        W87376  17.110   8.888   0.023
20968W        W87377  21.378   7.110   2.162
20969W        W87378  17.166  10.773   2.627
20970W        W87379  34.942  23.041   4.566
20971W        W87380  22.725  11.887   4.329
20972W        W87381  27.223   5.151  10.976
20973W        W87382  23.421  38.334  12.062
20974W        W87383  44.652  30.851   0.401
20975W        W87384   4.782  28.496   3.637
20976W        W87385  14.198   7.852   2.272
20977W        W87386  33.885   4.979  14.280
20978W        W87387  13.356  31.936   5.062
20979W        W87388  12.209  26.486  14.375
20980W        W87389  37.520  41.771  14.397
20981W        W87390  15.700   5.016   0.342
20982W        W87391  23.461  14.700   0.637
20983W        W87392  14.441  14.682  13.461
20984W        W87393  39.850  40.941   1.178
20985W        W87394   9.769   8.580   2.222
20986W        W87395  39.597   4.814  12.409
20987W        W87396   1.339   3.747  13.492
20988W        W87397  24.781  19.611   2.931
20989W        W87398   3.495  16.127  11.127
20990W        W87399  43.424  38.770  11.001
20991W        W87400  32.551  13.325   3.322
20992W        W87401  44.485  14.675  11.507
20993W        W87402  30.626  15.675  10.938
20994W        W87403  30.756  11.812  13.885
20995W        W87404   9.336  40.863   1.275
20996W        W87405  31.051  36.613  12.957
20997W        W87406  23.633  10.250   4.723
20998W        W87407  22.491   3.480  11.038
20999W        W87408  27.173  41.272  13.404
21000W        W87409  42.062  18.312   4.136
21001W        W87410  29.204  21.204  11.660
21002W        W87411  23.028  21.074   4.998
21003W        W87412  26.990  10.590   0.844
21004W        W87413  14.827  36.270  10.663
21005W        W87414  16.368  23.787  13.587
21006W        W87415  39.999  36.867  12.412
21007W        W87416  34.489  33.752   0.010
21008W        W87417  24.981  32.698   4.191
21009W        W87418   5.415   3.488   2.771
21010W        W87419   0.762   2.152   0.776
21011W        W87420  23.122   6.047  10.485
21012W        W87421   0.083  18.058   4.108
21013W        W87422  22.254  35.427  12.933
21014W        W87423   5.386  34.810   4.089
21015W        W87424  20.286   2.342  14.323
21016W        W87425   7.233  33.096   4.154
21017W        W87426   1.404  39.540  14.443
21018W        W87427  32.489  43.768  11.676
21019W        W87428  13.654  12.875   0.786
21020W        W87429  41.007  25.943  13.007
21021W        W87430   4.042  11.780  12.082
21022W        W87431   7.856  15.071  10.734
21023W        W87432  40.296   3.906  11.650
21024W        W87433  22.788  26.813  11.679
21025W        W87434  19.652   4.864  14.697
21026W        W87435  42.353  40.871  14.329
21027W        W87436  18.695  38.039  12.233
21028W        W87437  27.970  16.674  14.354
21029W        W87438   4.696   8.470  14.301
21030W        W87439  26.795  23.330   4.861
21031W        W87440  31.476  27.043  10.654
21032W        W87441  10.018   8.402  12.791
21033W        W87442   9.182   1.374   1.316
21034W        W87443  43.732  43.733  12.857
21035W        W87444  25.196  24.485  12.082
21036W        W87445  33.906  32.201  12.850
21037W        W87446  22.704   1.899  12.516
21038W        W87447   4.949  22.115   2.372
21039W        W87448  40.403  44.540   4.329
21040W        W87449  17.738  12.377  13.906
21041W        W87450  29.556   6.777  10.398
21042W        W87451  11.695  44.315  11.870
21043W        W87452  31.746  16.933   4.484
21044W        W87453   2.304   2.502  14.486
21045W        W87454  27.685  43.047   4.246
21046W        W87455  23.103  41.049   3.181
21047W        W87456  22.684  28.938   3.241
21048W        W87457   5.106   0.520  10.739
21049W        W87458  41.472  14.437  11.581
21050W        W87459  35.097  14.039  14.072
21051W        W87460   5.818  33.789  12.590
21052W        W87461  34.288  16.616  12.157
21053W        W87462  13.094   4.734   3.169
21054W        W87463  14.610   6.391   3.395
21055W        W87464  27.144  16.810   1.663
21056W        W87465  31.917   3.403  13.880
21057W        W87466  44.773  42.931  12.098
21058W        W87467  22.634  36.484   4.370
21059W        W87468  23.969  43.299   1.542
21060W        W87469  42.511  28.882  14.015
21061W        W87470   4.688   4.837  11.072
21062W        W87471  21.547  40.834   4.931
21063W        W87472  12.802  15.090   1.416
21064W        W87473  37.939  36.831   4.479
21065W        W87474  24.078  20.657   0.321
21066W        W87475  42.567   7.740   5.364
21067W        W87476  37.810  29.154   0.244
21068W        W87477  44.976  23.654   2.281
21069W        W87478  44.960   4.507  13.670
21070W        W87479  10.099  27.528   1.253
21071W        W87480   3.276  14.648   4.070
21072W        W87481  23.623  14.057   0.774
21073W        W87482  18.178  29.947  14.961
21074W        W87483  31.855  14.647   3.666
21075W        W87484  10.926   9.111   0.589
21076W        W87485  23.918   6.767   1.357
21077W        W87486  16.333  11.140  13.863
21078W        W87487  23.031  36.165   4.223
21079W        W87488   3.655  44.189  14.634
21080W        W87489  20.857  42.012  13.581
21081W        W87490  30.549  23.049  14.513
21082W        W87491  10.400  11.054  13.515
21083W        W87492  38.004  16.941   1.284
21084W        W87493  24.436  30.366  12.244
21085W        W87494  35.639  27.442   1.239
21086W        W87495  11.323  29.893   2.438
21087W        W87496  21.299  24.569   2.696
21088W        W87497  15.293  19.915   3.680
21089W        W87498  20.508   7.447  12.528
21090W        W87499   5.474  30.090   0.513
21091W        W87500  26.398  37.673  12.882
21092W        W87501  28.707  14.630   1.381
21093W        W87502   2.412  40.906  14.508
21094W        W87503  20.146   0.195   1.282
21095W        W87504  34.883  35.962  12.926
21096W        W87505  13.670  43.769   0.391
21097W        W87506  37.591  44.911   3.063
21098W        W87507  10.211   6.365  11.133
21099W        W87508  11.595   6.234   0.226
21100W        W87509  40.708   4.393  10.828
21101W        W87510  26.535   7.640   2.858
21102W        W87511  41.465  21.824  14.275
21103W        W87512   0.294  37.626  11.484
21104W        W87513  37.474   4.008  13.758
21105W        W87514  20.593   8.182   1.284
21106W        W87515  42.614   0.688   0.957
21107W        W87516   0.749  12.544   2.431
21108W        W87517   2.905  29.154  12.910
21109W        W87518   0.128   8.805   2.298
21110W        W87519  43.406  10.196  10.673
21111W        W87520   1.480  38.727   0.350
21112W        W87521  40.409  22.688   4.598
21113W        W87522  19.469   9.315  10.736
21114W        W87523  35.553  10.334   4.645
21115W        W87524  44.748  25.010   3.406
21116W        W87525   2.995  35.763   3.148
21117W        W87526  33.491   5.201   0.854
21118W        W87527  38.922  28.013  11.692
21119W        W87528  35.280   8.921  11.555
21120W        W87529   7.460  34.532  14.865
21121W        W87530  43.657  32.908  11.685
21122W        W87531  17.658   3.669   1.911
21123W        W87532  39.270  36.758  11.969
21124W        W87533  42.127  42.090   1.206
21125W        W87534  37.379  39.387  11.669
21126W        W87535  27.536  42.524  10.830
21127W        W87536  26.141   0.224   0.351
21128W        W87537   2.310  43.011  10.159
21129W        W87538  14.843  25.492  14.684
21130W        W87539  21.517  42.469   4.600
21131W        W87540  39.568   6.669   4.272
21132W        W87541  19.090   2.138   0.723
21133W        W87542  24.256  41.496  13.875
21134W        W87543  26.875  28.477   4.248
21135W        W87544  41.005  43.976   2.750
21136W        W87545   5.606   0.060   4.558
21137W        W87546   0.912   3.270  13.086
21138W        W87547  12.502  37.954   1.817
21139W        W87548  19.721  29.448   3.874
21140W        W87549  11.744   3.474  10.756
21141W        W87550   1.388  14.709  13.336
21142W        W87551  28.098  18.148  14.440
21143W        W87552  32.004  35.506   4.602
21144W        W87553  26.483  16.001   3.357
21145W        W87554  28.031  38.991  11.185
21146W        W87555  32.919   1.244   1.792
21147W        W87556  35.371  27.002   2.924
21148W        W87557  21.053  12.032  11.462
21149W        W87558  19.219  32.403  12.652
21150W        W87559  16.740   3.623   3.803
21151W        W87560  38.371  31.070  11.627
21152W        W87561  24.056  28.385   0.682
21153W        W87562  11.080  23.833  11.388
21154W        W87563  38.080  29.402   1.530
21155W        W87564  36.527  35.311  14.297
21156W        W87565  25.971  13.670   1.693
21157W        W87566  34.454  44.335   3.308
21158W        W87567  25.719  37.179  14.786
21159W        W87568   1.760  39.637   1.276
21160W        W87569  27.264  39.958  13.839
21161W        W87570  12.623  22.656  13.391
21162W        W87571   0.405  17.220   2.178
21163W        W87572  23.573  43.280   0.299
21164W        W87573  14.342  34.382  12.950
21165W        W87574   1.403  25.604   0.915
21166W        W87575  13.563  17.282  11.160
21167W        W87576  33.389  18.517   1.904
21168W        W87577  34.725  17.521   2.329
21169W        W87578  12.661  37.596   9.731
21170W        W87579  33.886   8.873   1.663
21171W        W87580  27.962  37.325   0.351
21172W        W87581  23.894  11.406   3.334
21173W        W87582   3.874  23.900  12.438
21174W        W87583   7.851  42.817  14.720
21175W        W87584   3.817  43.913  11.805
21176W        W87585   6.005   3.268   3.639
21177W        W87586  32.388  29.137   0.931
21178W        W87587  13.677   4.375  13.088
21179W        W87588   1.723  23.031  11.974
21180W        W87589  25.740  31.565  10.406
21181W        W87590   0.653  21.905   2.194
21182W        W87591  35.683   0.045  12.824
21183W        W87592  30.943  10.293   5.499
21184W        W87593  11.213  17.546   4.759
21185W        W87594  32.368   4.452   1.837
21186W        W87595  39.960  11.188  14.509
21187W        W87596  15.727   0.758   3.577
21188W        W87597   9.973  22.377  14.992
21189W        W87598  30.475  23.333   4.563
21190W        W87599  39.739  21.182  13.907
21191W        W87600  21.750   1.212   4.497
21192W        W87601  20.679  27.191  14.027
21193W        W87602  26.701  13.835   2.215
21194W        W87603  27.235  14.750   3.971
21195W        W87604  39.849  15.114   1.395
21196W        W87605  31.152  13.645  12.987
21197W        W87606  15.725  29.516   4.194
21198W        W87607  30.415  20.527  14.445
21199W        W87608  11.392  22.423   2.348
21200W        W87609  39.046  24.987   3.244
21201W        W87610  31.611  41.519   0.525
21202W        W87611  39.887  12.179  13.307
21203W        W87612  10.998  44.059   2.279
21204W        W87613  10.801  44.848   0.458
21205W        W87614   2.434  26.784  12.085
21206W        W87615  16.645  44.749   3.723
21207W        W87616  27.109  14.166  11.611
21208W        W87617  38.154  31.014  14.462
21209W        W87618   8.846  44.457  12.869
21210W        W87619  35.990  32.465   0.208
21211W        W87620  19.274  26.037   3.439
21212W        W87621  23.267  37.283  12.531
21213W        W87622   8.800  41.572  12.064
21214W        W87623   1.921  23.415  11.125
21215W        W87624   1.463  29.164  14.395
21216W        W87625   7.300  40.554  12.823
21217W        W87626  26.680  40.974   3.425
21218W        W87627  30.086  12.498   1.578
21219W        W87628   2.846  12.358   2.732
21220W        W87629  18.020  32.343   0.107
21221W        W87630   4.671  17.299   4.082
21222W        W87631  12.907  13.836   1.476
21223W        W87632  36.561  13.566  11.450
21224W        W87633  28.832  28.985  12.914
21225W        W87634  24.540  24.745   4.031
21226W        W87635  44.675  36.116   0.946
21227W        W87636  30.894  43.446   2.664
21228W        W87637  41.286  36.060  12.992
21229W        W87638  19.883  23.655   2.216
21230W        W87639   0.989   4.930   1.265
21231W        W87640  11.805  40.548  13.045
21232W        W87641   7.714  16.738   4.379
21233W        W87642  13.884   1.961   3.587
21234W        W87643  20.505  15.190  12.517
21235W        W87644  18.719  17.570   4.358
21236W        W87645   8.787  17.651   1.931
21237W        W87646  14.378   5.879  14.074
21238W        W87647   4.911  14.372   2.840
21239W        W87648  11.853  17.558  14.039
21240W        W87649  31.137  35.557   3.605
21241W        W87650  21.430  33.551  11.480
21242W        W87651  37.007  37.370   2.925
21243W        W87652   4.462  23.567  14.710
21244W        W87653   6.232   2.785  14.425
21245W        W87654  24.273   6.407  11.708
21246W        W87655  42.862   3.329   4.561
21247W        W87656   1.005  16.824  12.857
21248W        W87657  36.592  30.004   1.718
21249W        W87658  36.821  40.700   4.281
21250W        W87659  34.403  43.965  12.334
21251W        W87660  28.955  28.255  11.511
21252W        W87661   3.506  12.871  11.541
21253W        W87662  16.477  21.471  14.755
21254W        W87663  27.147  31.396  10.493
21255W        W87664  20.053  35.884  11.999
21256W        W87665  10.476   3.901  10.339
21257W        W87666   2.902  26.043  13.535
21258W        W87667  18.587  39.170  10.006
21259W        W87668  36.085  23.209   4.331
21260W        W87669  13.610   0.249   1.342
21261W        W87670  26.439   9.487   3.107
21262W        W87671  21.341  23.599   5.046
21263W        W87672  29.723  24.257   1.390
21264W        W87673  37.782   1.839   1.513
21265W        W87674  34.828   2.750   2.271
21266W        W87675   6.230  31.389   3.682
21267W        W87676  29.161   7.348  11.125
21268W        W87677  32.217  44.978   2.139
21269W        W87678   4.084  28.106  13.994
21270W        W87679  11.059  11.516  11.835
21271W        W87680  25.948  25.965   2.672
21272W        W87681  27.078  11.226  10.818
21273W        W87682  20.009   3.322   3.290
21274W        W87683   2.349  35.340  13.888
21275W        W87684  42.988  23.778  12.487
21276W        W87685  10.587  26.609  13.990
21277W        W87686   2.692  36.566   2.696
21278W        W87687  27.078  29.392  11.074
21279W        W87688  26.918  31.795  13.875
21280W        W87689  31.655  42.368   0.434
21281W        W87690   8.879   0.522  11.598
21282W        W87691  39.988  10.406   3.322
21283W        W87692  40.070  38.874   2.350
21284W        W87693   8.815  21.988   0.698
21285W        W87694   0.433  25.288  13.291
21286W        W87695  15.416   3.120   2.152
21287W        W87696   1.888  35.588  13.920
21288W        W87697  43.061  36.236  11.044
21289W        W87698  18.192  13.124  12.217
21290W        W87699   2.504  31.776  10.315
21291W        W87700   9.126  31.002   9.586
21292W        W87701  27.066  21.797   1.351
21293W        W87702   9.041  39.343  14.585
21294W        W87703  20.237  26.455  11.604
21295W        W87704  28.080  22.008  11.638
21296W        W87705  10.222   7.776  13.989
21297W        W87706  26.420  38.714   1.375
21298W        W87707   9.758   5.781   1.457
21299W        W87708  17.151   5.886  14.426
21300W        W87709  32.397   4.290   0.787
21301W        W87710   3.733  27.002  14.915
21302W        W87711  36.798   5.880   2.448
21303W        W87712  33.059  19.120  12.784
21304W        W87713   2.082   0.331   4.066
21305W        W87714  27.928  16.275   1.250
21306W        W87715   2.883  20.723  11.716
21307W        W87716   9.813  28.056   1.370
21308W        W87717   6.164  33.147   0.205
21309W        W87718  28.934  13.227   3.674
21310W        W87719   4.389   4.418   4.528
21311W        W87720  13.214   6.886  12.958
21312W        W87721  20.139  42.707   3.059
21313W        W87722  40.562  25.121   2.424
21314W        W87723  18.683  42.992   5.140
21315W        W87724   2.745  26.294  14.466
21316W        W87725  25.606   4.296   3.836
21317W        W87726   2.118  13.217  12.548
21318W        W87727  29.040  36.112  12.080
21319W        W87728  18.191  26.319   3.818
21320W        W87729   6.183  24.924  11.895
21321W        W87730   5.511  30.956  11.079
21322W        W87731  24.693   8.827   5.210
21323W        W87732  19.900  25.020   4.413
21324W        W87733  23.695  38.764  14.563
21325W        W87734  18.508  33.837   2.851
21326W        W87735  43.595  13.072  11.532
21327W        W87736   1.057   3.444   2.435
21328W        W87737  29.269  18.713  14.535
21329W        W87738   0.690  11.104   0.815
21330W        W87739   9.953   5.660   0.738
21331W        W87740   0.725  22.455  10.711
21332W        W87741  22.899  16.399   1.653
21333W        W87742   0.238  29.004   3.668
21334W        W87743  42.322  37.347   1.810
21335W        W87744  10.822  23.759  12.537
21336W        W87745  23.342  17.294  12.093
21337W        W87746  11.227  37.894   4.643
21338W        W87747  32.035  28.623   2.611
21339W        W87748  21.551  29.493   1.755
21340W        W87749   8.106  35.812   3.737
21341W        W87750   1.165  15.564  10.308
21342W        W87751  36.548  18.258   3.326
21343W        W87752  30.385  18.408   1.755
21344W        W87753   6.502   2.304   2.416
21345W        W87754   1.242   8.222   5.346
21346W        W87755  21.548  40.310  10.770
21347W        W87756  42.544  16.520   1.505
21348W        W87757   5.990  42.329  12.130
21349W        W87758   2.446   6.805  13.832
21350W        W87759  17.366  27.214   1.235
21351W        W87760   1.634  18.482  13.314
21352W        W87761  15.595  31.086  13.505
21353W        W87762  20.194  10.274  13.442
21354W        W87763  41.336   6.680   1.521
21355W        W87764  43.494  30.542  11.639
21356W        W87765   3.922  43.188   1.979
21357W        W87766  29.557  30.444  14.793
21358W        W87767   7.353  44.591   2.488
21359W        W87768  39.393   8.843   3.835
21360W        W87769  44.074  22.038  13.296
21361W        W87770  44.911  17.483  12.543
21362W        W87771  11.839  34.027  12.901
21363W        W87772  19.741  33.498  12.183
21364W        W87773   3.293  12.759   0.955
21365W        W87774  41.487  40.614   2.803
21366W        W87775  31.998  13.610  10.770
21367W        W87776   5.192  14.518  14.105
21368W        W87777  39.248  30.493  13.703
21369W        W87778   3.417  25.821   2.365
21370W        W87779   7.400  18.431  11.658
21371W        W87780  23.130  44.914  14.571
21372W        W87781  41.075  33.607   2.730
21373W        W87782  14.960   1.465  11.542
21374W        W87783  43.839  15.911  11.038
21375W        W87784   7.499  37.617  12.172
21376W        W87785   6.495  19.666  11.155
21377W        W87786   8.940  24.053   1.768
21378W        W87787  35.233  42.914   4.439
21379W        W87788  25.981  26.212  12.925
21380W        W87789  13.101  43.957  12.156
21381W        W87790  28.110  28.081  12.452
21382W        W87791   0.095  41.486   0.409
21383W        W87792  35.282  44.871  14.158
21384W        W87793  43.229   4.942  11.408
21385W        W87794  12.842  32.167   1.795
21386W        W87795  20.606  36.150  13.079
21387W        W87796   6.618  26.287   4.975
21388W        W87797  33.426  11.688   2.360
21389W        W87798  25.248   3.181  10.565
21390W        W87799  26.215  10.058  11.197
21391W        W87800  36.863  40.013   1.106
21392W        W87801  13.786  26.070   0.027
21393W        W87802   2.938  35.353   1.766
21394W        W87803  44.428   1.560  10.437
21395W        W87804  33.537  39.449   1.186
21396W        W87805  24.399   9.185   5.547
21397W        W87806  17.580  38.402  12.857
21398W        W87807  14.787  24.770   4.625
21399W        W87808   9.614   8.701  13.040
21400W        W87809  34.877  18.335   4.585
21401W        W87810  20.017   5.331  14.003
21402W        W87811  17.048  23.253   4.116
21403W        W87812  41.256  29.860  12.120
21404W        W87813   8.213  22.094   4.647
21405W        W87814  19.230  35.097   2.395
21406W        W87815  22.754  20.237   0.676
21407W        W87816  14.602  12.520  12.053
21408W        W87817  10.304  30.390   5.087
21409W        W87818  29.194   1.897   3.152
21410W        W87819  37.970  27.910  12.436
21411W        W87820  27.128  43.344  14.538
21412W        W87821  18.134  38.685   1.999
21413W        W87822  27.722  18.500  13.518
21414W        W87823   4.513  31.435  11.962
21415W        W87824  26.421  20.455  11.029
21416W        W87825   1.780  18.989  11.244
21417W        W87826  19.444   1.441  11.033
21418W        W87827   4.143  41.960  10.552
21419W        W87828  19.344  44.910   2.859
21420W        W87829  21.006  37.871   3.200
21421W        W87830  36.840  38.811  12.599
21422W        W87831  13.744  16.642   1.521
21423W        W87832   2.780  34.765   3.143
21424W        W87833  27.156  14.749   2.269
21425W        W87834  18.263  29.688  12.585
21426W        W87835  12.116  29.930  13.812
21427W        W87836  23.034  29.647  10.811
21428W        W87837  13.865  32.653  11.324
21429W        W87838  36.452   2.372   3.178
21430W        W87839  43.632  12.692  13.494
21431W        W87840  26.923  27.147   0.488
21432W        W87841  42.920  28.473  14.734
21433W        W87842   3.209   8.680  10.269
21434W        W87843  13.217  10.155  13.028
21435W        W87844  27.575  33.155  14.313
21436W        W87845  42.984  40.848   4.768
21437W        W87846  39.777   6.211   4.328
21438W        W87847  17.026   9.170  13.295
21439W        W87848  11.260   4.020  10.723
21440W        W87849  41.571  37.343   0.351
21441W        W87850   4.257   9.697  14.885
21442W        W87851   5.121  37.013  12.732
21443W        W87852  11.332   0.844   3.135
21444W        W87853   4.767  37.924   2.402
21445W        W87854  10.755  14.138  13.858
21446W        W87855  39.999   0.457  11.557
21447W        W87856   4.704  39.029  14.956
21448W        W87857   2.020  16.182   4.033
21449W        W87858   2.736  12.147   1.309
21450W        W87859  39.537  10.142  14.530
21451W        W87860   6.835  44.503   3.669
21452W        W87861  28.381  13.127  10.768
21453W        W87862   3.698  42.873   1.153
21454W        W87863  43.997  22.484  14.034
21455W        W87864  15.871   3.725  14.580
21456W        W87865   0.986  12.181   1.984
21457W        W87866   4.804  37.089   4.063
21458W        W87867   0.125  12.106   1.666
21459W        W87868  19.236   1.715  14.846
21460W        W87869  17.709  26.350  11.033
21461W        W87870   6.880   8.102  11.986
21462W        W87871   9.284  22.640   0.198
21463W        W87872  13.734  39.005  12.480
21464W        W87873  40.854  25.737   1.221
21465W        W87874   1.271  25.308  12.989
21466W        W87875  43.312  18.089  11.648
21467W        W87876  24.916  13.730  14.464
21468W        W87877  18.300  41.539  14.319
21469W        W87878  39.747   0.372  13.370
21470W        W87879  33.327  43.907   4.493
21471W        W87880  36.312   5.207   3.249
21472W        W87881  25.511  11.182   0.040
21473W        W87882  37.555  12.759   4.874
21474W        W87883   4.397  25.465   2.369
21475W        W87884  11.460   3.165  11.941
21476W        W87885  18.499   3.408  12.889
21477W        W87886  40.325  33.301   2.794
21478W        W87887  10.739   9.652  12.819
21479W        W87888  14.594  44.761   0.863
21480W        W87889  42.006  14.611  13.365
21481W        W87890  19.519  22.637  11.153
21482W        W87891   5.431  23.443   1.325
21483W        W87892   5.812  16.361   4.253
21484W        W87893  44.322  14.715  12.882
21485W        W87894  15.663  37.050  14.375
21486W        W87895  44.937  21.542   4.108
21487W        W87896  24.721  23.835   1.440
21488W        W87897  10.341  21.407  10.591
21489W        W87898  37.433  32.960   1.557
21490W        W87899   5.835  20.675   3.483
21491W        W87900  36.656  38.182  11.993
21492W        W87901  10.211  38.943   4.174
21493W        W87902   0.709  34.614  13.270
21494W        W87903   2.377  19.762  13.070
21495W        W87904   3.681  10.192  12.603
21496W        W87905  15.081  32.530   2.943
21497W        W87906  32.422  28.141   0.336
21498W        W87907  19.849  29.575   5.224
21499W        W87908   5.339  33.614  14.333
21500W        W87909  32.080  29.173  14.982
21501W        W87910  42.216  41.945   4.706
21502W        W87911  16.119  36.514   3.804
21503W        W87912   6.922  17.045   1.067
21504W        W87913  30.220  15.609   3.229
21505W        W87914  37.397  19.044   3.678
21506W        W87915  27.384   4.809  12.591
21507W        W87916  32.947  40.484   2.290
21508W        W87917  21.503  35.898   4.120
21509W        W87918  36.311  23.602   0.705
21510W        W87919  41.432  16.985   9.906
21511W        W87920  13.840  35.924   5.437
21512W        W87921  15.510  42.864  11.123
21513W        W87922  35.455   1.726   1.099
21514W        W87923  41.416  44.648  14.373
21515W        W87924   5.741   3.600  12.224
21516W        W87925  23.949   8.844   3.564
21517W        W87926  40.208  14.130   1.498
21518W        W87927  27.930  21.504   2.367
21519W        W87928  19.562   9.424   3.654
21520W        W87929  20.266   1.980   1.324
21521W        W87930  30.122   7.934  10.608
21522W        W87931  16.099  31.514  13.946
21523W        W87932   3.413  30.097  11.413
21524W        W87933  26.940  34.551  13.458
21525W        W87934   6.735  39.762   2.699
21526W        W87935  13.083  28.996  12.946
21527W        W87936  19.242  31.567   2.583
21528W        W87937   4.508  16.114   4.236
21529W        W87938  21.428  17.568   4.352
21530W        W87939  26.794  18.313   3.646
21531W        W87940  44.884  32.975   4.971
21532W        W87941  42.942   8.119  13.409
21533W        W87942  29.597  14.701   2.213
21534W        W87943  25.528  16.453  11.004
21535W        W87944   8.086   7.600  12.988
21536W        W87945  40.870  19.829   1.206
21537W        W87946   9.652  25.688  13.284
21538W        W87947  17.683   7.497  12.493
21539W        W87948  44.535  37.490   0.511
21540W        W87949  28.612  29.629  14.663
21541W        W87950  41.548  26.663   0.503
21542W        W87951  16.016  40.110   3.188
21543W        W87952  41.847  23.539   1.314
21544W        W87953  42.939  42.696   4.593
21545W        W87954  15.019  31.456   3.638
21546W        W87955   2.406  33.185  12.108
21547W        W87956  42.038  16.651  10.667
21548W        W87957  19.118  28.117  10.995
21549W        W87958  18.160  28.718  12.095
21550W        W87959   8.115  39.403   2.150
21551W        W87960  11.528  28.872  12.933
21552W        W87961  26.685  33.034   4.109
21553W        W87962  13.659  27.612  12.548
21554W        W87963  10.829  15.749  11.939
21555W        W87964  44.364  24.102  11.025
21556W        W87965  39.114  40.509   0.952
21557W        W87966  38.322  10.886   4.387
21558W        W87967  11.963   4.732  13.029
21559W        W87968   9.093  42.396   0.322
21560W        W87969  40.066  17.135   3.170
21561W        W87970  25.812  20.000  14.251
21562W        W87971  36.080  21.415  10.542
21563W        W87972  34.838  13.587  14.130
21564W        W87973  42.862   3.708   3.348
21565W        W87974  43.927  40.053  10.856
21566W        W87975  12.052  22.247   1.571
21567W        W87976   8.529  28.077  12.148
21568W        W87977   6.751  25.861   3.129
21569W        W87978   4.001   1.253  13.547
21570W        W87979  35.587  15.321  14.052
21571W        W87980  30.667  44.068   1.212
21572W        W87981  37.005  43.497  13.599
21573W        W87982  12.691  22.131   1.788
21574W        W87983  16.543  41.530   1.953
21575W        W87984  36.933  35.588  14.423
21576W        W87985  44.800  27.388   1.696
21577W        W87986  39.950  19.210  14.507
21578W        W87987   9.490   1.872  10.076
21579W        W87988  41.698  11.604   2.483
21580W        W87989  38.284  14.631   0.437
21581W        W87990  19.657  23.454  14.459
21582W        W87991   5.311   3.227   0.929
21583W        W87992  13.980  33.305   0.344
21584W        W87993  10.157  36.064   3.709
21585W        W87994   4.683  40.292   4.529
21586W        W87995  44.898  27.904  10.641
21587W        W87996  13.808   8.195   4.871
21588W        W87997  26.253  25.622   3.975
21589W        W87998   1.432   4.662   1.374
21590W        W87999  44.854  22.299   4.447
21591W        W88000  20.373   9.225   0.732
21592W        W88001  35.595  21.512   3.747
21593W        W88002   8.355   7.895  12.653
21594W        W88003   0.449   6.547   0.342
21595W        W88004   6.603  33.531  11.346
21596W        W88005  38.031  30.043   1.075
21597W        W88006  26.117  30.945   0.390
21598W        W88007  41.783  36.615  12.226
21599W        W88008  27.490  42.512  13.481
21600W        W88009  43.129  39.905  10.535
21601W        W88010  25.318  25.114  14.320
21602W        W88011  29.090  29.420  12.830
21603W        W88012  40.530  22.191   2.303
21604W        W88013  24.641  41.107  14.377
21605W        W88014   1.471  31.851   2.318
21606W        W88015  17.675   9.938   4.161
21607W        W88016   3.999  39.501  12.024
21608W        W88017  41.900  23.869  11.829
21609W        W88018  33.923  12.740  13.093
21610W        W88019  44.922  39.548  10.345
21611W        W88020   3.288  28.753  14.026
21612W        W88021  39.180  30.056  10.705
21613W        W88022  18.652  15.814  12.093
21614W        W88023  38.129   3.246   3.941
21615W        W88024  20.723  39.791  12.439
21616W        W88025  44.143   5.349   4.725
21617W        W88026  42.958  25.199   2.966
21618W        W88027  25.126   2.837   2.210
21619W        W88028  25.100  16.378  11.258
21620W        W88029  10.804  19.497   3.270
21621W        W88030   9.226  10.000  12.950
21622W        W88031  40.671  23.253  13.792
21623W        W88032   3.790  17.023   3.128
21624W        W88033  10.330  42.715  14.976
21625W        W88034  28.097  32.791   1.139
21626W        W88035  22.648  12.297  13.917
21627W        W88036  43.719  22.475   4.146
21628W        W88037  27.216  27.086  12.994
21629W        W88038   2.931   0.501  12.845
21630W        W88039   8.139  42.647  14.297
21631W        W88040  36.880  40.517   3.803
21632W        W88041  17.470  18.355  14.468
21633W        W88042  13.788  38.058   0.415
21634W        W88043  19.555  30.355   4.134
21635W        W88044  11.326  41.447   0.451
21636W        W88045  33.103  43.880   0.196
21637W        W88046   7.281  30.155   2.892
21638W        W88047  10.380  28.537  13.783
21639W        W88048  25.437   8.392  11.216
21640W        W88049  16.834  36.925   0.035
21641W        W88050  29.127  26.520   3.708
21642W        W88051  15.345   8.347  13.002
21643W        W88052  34.341  44.476   2.343
21644W        W88053   4.048  38.595  12.134
21645W        W88054  23.164  40.383  14.835
21646W        W88055  24.601   8.796   1.808
21647W        W88056   7.819   3.984   0.024
21648W        W88057  36.603  32.423  10.404
21649W        W88058  33.505  44.816  10.904
21650W        W88059   5.344  18.828  12.141
21651W        W88060  30.542  14.145  13.457
21652W        W88061   9.854   3.568  11.203
21653W        W88062  21.756  35.475  12.966
21654W        W88063  36.762  40.573  11.276
21655W        W88064  10.452  30.958  12.540
21656W        W88065  38.777   0.975   5.023
21657W        W88066  18.637  24.509   4.078
21658W        W88067  20.223   0.303  11.920
21659W        W88068  27.103   9.754   1.364
21660W        W88069  39.564   4.502   3.137
21661W        W88070  27.967  30.917  11.193
21662W        W88071  16.770   5.097  10.387
21663W        W88072  22.662  18.326  13.577
21664W        W88073  16.549  38.506   2.225
21665W        W88074   5.895  35.461  10.767
21666W        W88075   0.435  22.651   3.206
21667W        W88076   6.745  33.150   4.365
21668W        W88077  18.171  21.014   4.543
21669W        W88078  18.540  15.557  12.515
21670W        W88079   4.871  21.634  10.739
21671W        W88080  25.813  19.436  10.667
21672W        W88081  12.320  10.565   4.510
21673W        W88082  41.996  27.996  13.930
21674W        W88083  33.079  10.200  12.557
21675W        W88084  36.052   8.535   3.640
21676W        W88085  15.291   5.966   2.672
21677W        W88086  40.454  21.987  13.924
21678W        W88087  16.818  43.304   1.299
21679W        W88088  20.251   1.207   3.622
21680W        W88089   2.320  14.243  13.160
21681W        W88090  12.203   8.185   4.563
21682W        W88091  11.305   5.541  10.937
21683W        W88092  33.512  36.560   0.823
21684W        W88093   4.861  42.925   2.594
21685W        W88094  25.756   2.363   4.152
21686W        W88095  12.283  24.761   1.442
21687W        W88096  29.758   7.233   4.112
21688W        W88097  17.665  30.561  14.787
21689W        W88098   8.735  42.837   2.322
21690W        W88099  38.210  11.792   4.153
21691W        W88100  16.789   3.940   4.647
21692W        W88101  10.956  37.831  11.068
21693W        W88102  26.719  29.547   4.963
21694W        W88103  11.277   9.780  14.943
21695W        W88104  39.119  26.490   0.918
21696W        W88105  39.101  43.734   2.869
21697W        W88106   0.559   4.825  11.521
21698W        W88107  19.249  28.442  10.444
21699W        W88108  31.189  24.988   4.232
21700W        W88109  32.003  40.731   3.822
21701W        W88110  42.739  42.453   2.013
21702W        W88111  40.419  13.788   3.304
21703W        W88112   6.662  12.258  14.849
21704W        W88113  34.564  28.790   4.982
21705W        W88114  36.372  23.709   4.645
21706W        W88115  10.363  28.668   4.683
21707W        W88116  14.497  14.009  11.140
21708W        W88117  23.120   4.204   4.150
21709W        W88118  44.830  12.848   1.842
21710W        W88119  14.228  40.498   1.420
21711W        W88120  27.809  15.211  11.160
21712W        W88121  41.053  22.570  11.072
21713W        W88122   0.681  35.047  14.756
21714W        W88123  34.366  13.471  13.903
21715W        W88124   1.055  26.982  12.447
21716W        W88125   9.381  31.461  10.292
21717W        W88126   2.125   1.299  12.087
21718W        W88127  22.916  15.231   0.697
21719W        W88128  32.546  41.999  11.574
21720W        W88129  36.062  15.927   4.778
21721W        W88130   6.593  16.667   1.214
21722W        W88131   6.423  10.393   1.839
21723W        W88132   5.222  22.130   4.521
21724W        W88133  32.555  42.389  11.920
21725W        W88134  30.118  19.208   0.923
21726W        W88135  40.780  32.568  13.037
21727W        W88136  23.060  15.372   3.636
21728W        W88137  35.666  27.678   3.193
21729W        W88138  41.589  42.027  12.974
21730W        W88139  16.609  35.511  14.417
21731W        W88140  30.348  42.936  14.383
21732W        W88141   6.759  35.145  10.727
21733W        W88142   0.215  11.876   4.762
21734W        W88143  19.675  44.471   2.722
21735W        W88144  37.842  13.535   3.083
21736W        W88145   4.996  14.281  13.033
21737W        W88146  16.009  16.787   4.322
21738W        W88147  19.913  25.986  13.449
21739W        W88148  23.377  19.086   0.924
21740W        W88149  13.684  26.304   2.746
21741W        W88150  39.292  14.647   9.852
21742W        W88151   3.479  21.123   5.083
21743W        W88152  31.771  34.424   3.118
21744W        W88153  38.007   0.199   0.512
21745W        W88154   3.042  43.768  13.867
21746W        W88155   7.238  39.290   0.023
21747W        W88156  25.256   5.480   4.183
21748W        W88157  42.547   0.880  10.689
21749W        W88158  28.574  37.452  10.687
21750W        W88159  20.097   3.434  10.492
21751W        W88160   9.103   4.288   1.945
21752W        W88161   5.722  14.588  11.580
21753W        W88162  38.430   3.886  13.852
21754W        W88163  13.266  13.657   4.207
21755W        W88164  16.188   5.240  11.649
21756W        W88165   5.236  34.575   0.152
21757W        W88166   3.246  10.130  13.946
21758W        W88167  39.541  34.617  11.163
21759W        W88168   2.769  43.033   3.136
21760W        W88169  15.442  32.952   3.700
21761W        W88170   2.968  32.443  13.046
21762W        W88171  35.294   0.286  11.137
21763W        W88172   8.198  31.706  13.469
21764W        W88173  11.914   7.251  14.522
21765W        W88174  23.888  33.098  14.850
21766W        W88175  29.733  24.079  11.121
21767W        W88176  29.066   8.189   1.723
21768W        W88177  15.329   2.030   1.358
21769W        W88178  41.491  15.091  11.254
21770W        W88179  15.387  36.498   1.828
21771W        W88180  41.031  36.768  13.348
21772W        W88181  16.043  33.861   2.097
21773W        W88182  10.822  25.664   3.351
21774W        W88183  40.461   8.601  11.166
21775W        W88184  36.495  30.554   2.383
21776W        W88185  17.315  17.806   2.254
21777W        W88186  11.096   8.832   0.146
21778W        W88187   9.839  23.484   2.137
21779W        W88188  34.480   5.767  11.461
21780W        W88189  36.795   8.216   4.168
21781W        W88190  10.699  34.891  13.933
21782W        W88191  11.344  18.815   3.327
21783W        W88192  24.495   4.918   0.775
21784W        W88193  34.022  35.913   0.274
21785W        W88194   4.742  18.576  14.459
21786W        W88195  43.091  38.626   2.380
21787W        W88196  43.889   6.974   3.217
21788W        W88197   1.181  14.387   0.192
21789W        W88198   3.323   4.352  11.676
21790W        W88199  18.694  21.597  11.221
21791W        W88200  16.129  13.626   4.003
21792W        W88201  39.500  37.009   3.318
21793W        W88202  23.980   0.809   0.996
21794W        W88203  15.533  30.487   0.945
21795W        W88204  26.550   4.159   2.550
21796W        W88205  25.255  28.384  13.548
21797W        W88206  15.099  26.458   1.821
21798W        W88207  28.225   2.231  10.324
21799W        W88208  31.581  23.266   1.860
21800W        W88209  33.483  11.620  12.903
21801W        W88210  41.029  16.339  11.224
21802W        W88211  44.443  42.241   1.801
21803W        W88212  12.535  24.316  11.133
21804W        W88213   2.483   7.732  12.326
21805W        W88214  30.457  33.243   0.021
21806W        W88215  26.585  41.745   1.289
21807W        W88216  25.459   8.617  14.847
21808W        W88217  36.231   1.322   1.853
21809W        W88218  28.947  35.613   2.836
21810W        W88219  23.040  10.640   3.997
21811W        W88220  20.276  39.525  12.894
21812W        W88221  37.597  40.294  11.649
21813W        W88222  13.664  30.457   4.861
21814W        W88223  28.888   1.766   3.582
21815W        W88224  22.812  29.446   2.326
21816W        W88225   4.620  17.748  11.859
21817W        W88226  36.916  44.904   1.850
21818W        W88227   6.439  33.086  11.121
21819W        W88228  15.466  22.138   0.389
21820W        W88229  27.904  11.410   4.170
21821W        W88230  14.336  26.991  12.424
21822W        W88231  39.508  27.196   2.894
21823W        W88232  16.236  44.916   0.517
21824W        W88233   1.719  34.794  13.538
21825W        W88234  15.946   0.372  14.380
21826W        W88235  40.127  37.490  14.311
21827W        W88236   6.403  11.428  13.916
21828W        W88237  20.160  33.162  10.537
21829W        W88238   5.803  10.835   1.421
21830W        W88239  26.689  31.012  12.005
21831W        W88240   6.595  33.144   4.880
21832W        W88241  23.626  39.040   3.188
21833W        W88242  21.745  19.589  11.064
21834W        W88243  43.847   8.972   3.143
21835W        W88244  37.459  30.762   1.812
21836W        W88245  42.482   2.324   2.355
21837W        W88246  31.086  33.317  12.710
21838W        W88247  28.012  36.074  12.679
21839W        W88248   3.476   4.692   3.730
21840W        W88249  19.562  41.392   3.273
21841W        W88250  21.004  21.656   1.968
21842W        W88251  33.060  41.040   0.369
21843W        W88252   3.799   4.118   0.371
21844W        W88253  18.719  41.834  11.840
21845W        W88254  24.710   7.346   3.359
21846W        W88255  16.363  12.364   0.710
21847W        W88256  12.707  35.245   1.294
21848W        W88257  17.587  30.104   0.623
21849W        W88258  19.027  34.084   3.610
21850W        W88259  42.603  25.991   4.347
21851W        W88260  14.946   5.781  12.887
21852W        W88261   4.712  33.663   2.680
21853W        W88262  44.471   2.256  13.605
21854W        W88263   1.652  20.754   0.727
21855W        W88264  15.283   1.408  13.996
21856W        W88265  43.786  25.563  12.530
21857W        W88266   2.367   5.781  14.516
21858W        W88267  37.467   2.287  11.566
21859W        W88268  13.748  41.954   2.349
21860W        W88269  44.102  21.620   4.728
21861W        W88270   5.248  11.283  10.406
21862W        W88271   9.267  41.611   1.997
21863W        W88272  34.153  14.331  13.862
21864W        W88273  36.493   3.390   0.903
21865W        W88274  32.933  27.324   0.305
21866W        W88275  35.726  32.920   1.415
21867W        W88276   3.287  14.261   1.783
21868W        W88277  38.541  11.587  10.374
21869W        W88278  10.241   8.428   4.558
21870W        W88279  20.291  25.201   2.986
21871W        W88280  31.097  19.327   0.724
21872W        W88281  33.353  24.812  12.053
21873W        W88282  37.164  11.722  14.423
21874W        W88283  25.531   5.771  11.686
21875W        W88284  19.634  35.874  11.081
21876W        W88285  23.957   8.375   3.338
21877W        W88286  34.321  29.908   2.400
21878W        W88287  15.205   3.453   1.178
21879W        W88288  34.967  19.937  14.471
21880W        W88289  28.715  24.324   1.641
21881W        W88290  43.055  40.064   4.439
21882W        W88291  40.438   2.596  12.131
21883W        W88292   2.252  12.726   0.757
21884W        W88293  22.071  36.071   2.735
21885W        W88294  36.000  26.829   2.574
21886W        W88295  37.268   1.286   0.906
21887W        W88296  32.387  25.990  13.433
21888W        W88297  23.688  13.698  10.717
21889W        W88298  22.246   4.422  13.747
21890W        W88299  26.944  16.328   3.286
21891W        W88300  32.532  17.750  11.563
21892W        W88301  28.827  30.715   1.421
21893W        W88302  26.430  11.642  13.044
21894W        W88303   1.928  39.077  11.579
21895W        W88304  41.659  30.442  11.470
21896W        W88305  10.320  24.822   4.155
21897W        W88306  38.925  17.247   0.193
21898W        W88307   4.786   5.643  10.599
21899W        W88308  39.211   7.639   4.248
21900W        W88309  44.068  20.640   1.037
21901W        W88310  26.126  14.684   1.451
21902W        W88311  18.671  21.277   3.264
21903W        W88312  42.599  43.004  13.487
21904W        W88313   3.212  32.384  11.679
21905W        W88314  21.587  28.733  12.825
21906W        W88315   9.726  34.214   2.025
21907W        W88316  12.199  22.608  14.618
21908W        W88317  32.953  34.513  11.585
21909W        W88318  33.073  16.781   3.300
21910W        W88319   2.184  30.639   2.635
21911W        W88320  15.254  27.793   0.919
21912W        W88321  25.693   3.475   1.823
21913W        W88322   4.731  28.585   4.622
21914W        W88323   4.296  34.039  11.654
21915W        W88324   6.702  40.235   4.698
21916W        W88325  32.200  17.940   3.740
21917W        W88326   2.746   8.083   2.338
21918W        W88327  22.631  16.641   5.128
21919W        W88328  22.258  26.003  11.800
21920W        W88329  20.683  33.629  13.761
21921W        W88330  15.750  15.827   0.398
21922W        W88331  33.616  32.693  11.541
21923W        W88332  43.225   9.029   1.276
21924W        W88333  22.202   7.206   0.055
21925W        W88334  13.536  30.483  13.293
21926W        W88335  21.219   8.491  11.602
21927W        W88336  12.153  13.778   2.676
21928W        W88337   4.449  22.569   1.377
21929W        W88338  33.399  15.596   1.809
21930W        W88339   2.367  24.743   0.439
21931W        W88340  13.321   5.708   1.744
21932W        W88341   4.028  12.883  12.651
21933W        W88342   2.707  21.312  11.127
21934W        W88343   1.195  40.007   2.720
21935W        W88344  43.512  23.802  14.359
21936W        W88345   7.940  13.801   1.613
21937W        W88346  23.712  43.051  10.646
21938W        W88347   1.278  16.850  10.580
21939W        W88348  37.642  21.649   4.103
21940W        W88349  40.219  16.674   0.017
21941W        W88350   0.817  15.855  14.080
21942W        W88351  15.047  23.762   4.614
21943W        W88352   9.461  10.607   2.324
21944W        W88353  20.280  42.859  10.400
21945W        W88354  33.031  10.272  13.064
21946W        W88355  40.917  23.100   1.479
21947W        W88356  17.638  16.135  13.519
21948W        W88357  33.489  44.342  11.531
21949W        W88358  38.604   5.451   4.625
21950W        W88359  27.189  24.531   2.531
21951W        W88360   9.358  15.305  13.365
21952W        W88361  22.300  36.994  12.273
21953W        W88362   6.557  22.184   3.076
21954W        W88363  20.694  32.865  11.537
21955W        W88364  22.434   8.977   5.089
21956W        W88365  25.648  19.299  14.549
21957W        W88366  41.427  23.894   1.807
21958W        W88367  13.538  43.351   3.085
21959W        W88368   9.833  40.343   0.703
21960W        W88369  11.181  31.405  13.138
21961W        W88370  27.406  25.132  11.356
21962W        W88371  16.559  12.584  10.790
21963W        W88372  35.911   7.139  13.354
21964W        W88373  37.283   4.664  14.387
21965W        W88374  18.278  29.968  14.457
21966W        W88375  31.084  17.953   4.422
21967W        W88376  41.980  35.075  12.411
21968W        W88377  27.196  41.098   4.089
21969W        W88378  28.028  32.731   2.880
21970W        W88379  28.224   7.322  13.977
21971W        W88380  36.603  22.100  10.600
21972W        W88381  36.988  30.218   3.672
21973W        W88382   8.425  14.751  14.294
21974W        W88383  19.458  24.113   3.614
21975W        W88384   6.214  39.852   1.859
21976W        W88385  36.587  24.470   3.850
21977W        W88386  41.864  40.644  11.123
21978W        W88387  39.912  10.843  11.567
21979W        W88388  42.633   1.299  11.212
21980W        W88389  12.894  24.756   2.343
21981W        W88390   2.278  16.312  13.448
21982W        W88391  25.813  16.309  11.443
21983W        W88392  17.135   7.004   0.526
21984W        W88393  30.685   3.483  12.020
21985W        W88394   5.093  19.067   1.212
21986W        W88395  24.753   2.630  11.598
21987W        W88396  14.601  10.696   2.723
21988W        W88397   1.371  16.880  12.474
21989W        W88398  23.986  31.745   0.784
21990W        W88399  17.699   6.705  12.030
21991W        W88400  15.714   4.003  12.292
21992W        W88401   6.813   5.843   0.942
21993W        W88402  19.009  14.144   2.644
21994W        W88403  22.692  32.465   3.198
21995W        W88404  23.918   1.736  14.669
21996W        W88405  42.537  34.144  14.092
21997W        W88406  28.990  20.020  11.107
21998W        W88407  33.749  32.003  10.221
21999W        W88408   5.772   6.983  14.037
22000W        W88409   6.464  13.362  13.373
22001W        W88410  25.983  36.908   2.650
22002W        W88411   3.705  24.628   4.129
22003W        W88412   6.954  16.839  13.457
22004W        W88413  30.860  23.491   1.439
22005W        W88414   0.014   0.449   0.461
22006W        W88415  22.483  12.715   0.764
22007W        W88416  32.072  32.171   3.911
22008W        W88417  22.527   9.004   1.719
22009W        W88418  26.679   7.279   4.789
22010W        W88419  28.034  20.036   1.964
22011W        W88420  24.059  32.101   0.421
22012W        W88421  34.454  26.157  12.339
22013W        W88422   2.201  27.531   4.637
22014W        W88423  33.935  21.805  13.790
22015W        W88424  32.771  13.686  14.025
22016W        W88425  32.155  32.514   0.879
22017W        W88426  19.861  26.999  14.349
22018W        W88427  23.210  18.577   3.160
22019W        W88428   9.707  43.799   2.356
22020W        W88429  34.130  16.778   1.986
22021W        W88430  40.740   1.082  12.035
22022W        W88431   3.362   1.346   0.948
22023W        W88432  24.122   1.511   0.275
22024W        W88433  41.044   2.145  12.620
22025W        W88434  14.391  12.004  10.466
22026W        W88435  18.305  31.992  14.865
22027W        W88436  34.111  22.897   1.221
22028W        W88437  41.169  11.637  10.670
22029W        W88438  35.039  44.407   9.681
22030W        W88439   7.332  41.815   4.034
22031W        W88440   2.370  14.394  11.909
22032W        W88441  11.861  31.310  12.088
22033W        W88442  34.695   8.793  11.669
22034W        W88443  11.280  40.212   3.191
22035W        W88444  26.703  24.914  10.508
22036W        W88445  30.104  27.460   1.492
22037W        W88446  41.506  11.354  12.583
22038W        W88447  20.970  22.054   4.724
22039W        W88448   8.869  37.283   3.752
22040W        W88449  42.527  37.594   3.280
22041W        W88450  17.837  30.973   4.298
22042W        W88451  43.058  23.163   4.110
22043W        W88452  30.925  10.788   1.056
22044W        W88453  17.355   9.734  11.618
22045W        W88454   5.785  36.090  11.022
22046W        W88455   0.086  14.993  13.993
22047W        W88456   5.000  17.106   1.967
22048W        W88457  28.546  32.902   4.154
22049W        W88458  33.052   9.359  11.101
22050W        W88459  13.848   3.295  12.024
22051W        W88460  37.992   3.548  12.986
22052W        W88461  22.998   5.668  10.798
22053W        W88462  10.436  19.303  14.963
22054W        W88463  15.105  35.573   3.840
22055W        W88464  35.324  29.458   1.923
22056W        W88465  43.563  35.556  11.975
22057W        W88466   4.148  42.934  13.058
22058W        W88467  15.893  33.523   3.210
22059W        W88468   1.410  23.192   4.552
22060W        W88469  14.798  35.947   5.369
22061W        W88470  17.954  25.133   2.704
22062W        W88471  17.024  13.159  14.446
22063W        W88472   4.182  42.792  11.090
22064W        W88473   3.386  40.414   1.993
22065W        W88474  24.196  38.081  12.613
22066W        W88475  13.790  41.543  11.200
22067W        W88476  26.424  18.956   3.229
22068W        W88477  10.151  12.916  12.562
22069W        W88478  23.210  26.505  12.415
22070W        W88479  39.263  26.251   1.978
22071W        W88480   5.554  28.666   5.235
22072W        W88481  16.805  10.151  11.517
22073W        W88482  38.870   6.404  11.623
22074W        W88483  29.681  39.024  11.571
22075W        W88484  22.029  21.503   0.342
22076W        W88485  17.621  18.515   1.345
22077W        W88486   4.123   2.777  11.615
22078W        W88487  28.158   0.842   2.673
22079W        W88488  44.657  23.598   1.802
22080W        W88489  24.119  42.860  14.161
22081W        W88490   6.574   2.190  10.543
22082W        W88491  13.741  25.788  14.543
22083W        W88492  30.255  44.733  14.956
22084W        W88493  37.145  24.335   1.641
22085W        W88494  14.667  39.936  13.966
22086W        W88495  28.015  12.842  12.560
22087W        W88496   2.749  33.093  13.883
22088W        W88497   9.572   8.862   0.862
22089W        W88498  21.602  16.517  12.040
22090W        W88499   7.095  26.526   2.412
22091W        W88500  29.746  39.551  14.418
22092W        W88501  26.466  44.566  14.937
22093W        W88502   3.487  38.612  11.097
22094W        W88503   7.755  17.230   4.666
22095W        W88504   0.279  17.067  11.196
22096W        W88505  35.451  16.653   3.559
22097W        W88506  38.454  13.674  12.544
22098W        W88507  27.697   1.063   4.885
22099W        W88508  42.315   8.885   3.261
22100W        W88509  17.062  40.912   4.873
22101W        W88510  11.649   0.357   1.860
22102W        W88511  40.775  17.487  12.947
22103W        W88512  24.122  31.638  13.833
22104W        W88513   9.745  37.246   2.715
22105W        W88514  40.182  35.156  14.282
22106W        W88515  24.703   2.965  14.817
22107W        W88516  24.602  20.120   1.190
22108W        W88517  27.164  19.868  10.727
22109W        W88518  21.993  43.734   2.753
22110W        W88519  27.566  33.208   2.866
22111W        W88520  24.469  32.596   1.295
22112W        W88521  20.597   6.899   1.752
22113W        W88522  44.467   2.972  14.293
22114W        W88523  38.256  23.057   0.901
22115W        W88524  38.496  14.340   2.817
22116W        W88525   9.400  27.456  12.894
22117W        W88526   2.718  28.471  11.978
22118W        W88527  27.338  37.611   0.412
22119W        W88528  33.845  27.156   4.067
22120W        W88529  21.025  11.211   1.835
22121W        W88530   6.437  33.070  13.073
22122W        W88531  19.711  34.884   4.591
22123W        W88532  32.865   9.324  13.354
22124W        W88533  32.137  15.255  14.476
22125W        W88534  14.795  34.144   2.823
22126W        W88535  28.275  32.786   2.407
22127W        W88536  24.420  24.438   4.467
22128W        W88537  20.421  29.200   4.577
22129W        W88538  36.045  40.666  14.741
22130W        W88539  24.644  14.285  13.919
22131W        W88540  27.120  31.086  11.732
22132W        W88541   3.564   2.460   4.160
22133W        W88542  36.019  32.334  12.471
22134W        W88543  15.902  21.172  12.403
22135W        W88544  41.830  14.578  12.044
22136W        W88545  37.576   5.470   1.509
22137W        W88546  22.193  13.172   3.613
22138W        W88547  12.170  43.231  11.801
22139W        W88548  27.464  41.012   3.643
22140W        W88549  10.239  40.774   2.170
22141W        W88550   0.853  20.625   4.565
22142W        W88551  42.052  30.660   1.878
22143W        W88552   3.928  30.400   1.839
22144W        W88553   8.302  23.173   0.790
22145W        W88554   6.622  44.999   3.666
22146W        W88555  28.980   3.890  11.107
22147W        W88556  43.537   1.419   3.683
22148W        W88557  10.602   9.681  10.749
22149W        W88558  22.451  21.207   3.860
22150W        W88559  20.205  31.482   2.263
22151W        W88560  12.817  37.102   9.782
22152W        W88561  15.209  25.836   5.057
22153W        W88562  36.127   3.890  10.333
22154W        W88563  10.705  36.230  10.266
22155W        W88564  16.837  44.422  12.648
22156W        W88565  14.348  43.071  12.941
22157W        W88566  22.905   6.876   1.456
22158W        W88567  25.404  30.065  14.341
22159W        W88568  20.691  14.208   1.686
22160W        W88569  43.892  38.848  11.177
22161W        W88570  26.661  24.716  11.965
22162W        W88571  28.600  30.828   0.429
22163W        W88572   4.541  15.725  10.267
22164W        W88573  29.144  28.959  12.474
22165W        W88574  38.147  20.385  11.257
22166W        W88575  25.044  34.337  12.557
22167W        W88576   3.358  15.738   2.060
22168W        W88577  37.477  12.884   0.693
22169W        W88578  42.310  27.555   1.521
22170W        W88579  29.381  19.145  14.291
22171W        W88580  38.213  37.700   4.964
22172W        W88581  35.353  43.728  10.790
22173W        W88582  41.457  29.443   4.882
22174W        W88583  18.252   5.830  12.992
22175W        W88584  42.011  27.448  10.795
22176W        W88585  14.896  26.105   0.888
22177W        W88586  41.788  39.206  11.563
22178W        W88587  40.557  38.897  12.588
22179W        W88588  10.095  13.466   4.490
22180W        W88589  19.469  42.916   4.063
22181W        W88590  35.147  33.533   3.915
22182W        W88591  10.343  27.969   1.156
22183W        W88592  11.626  24.502  11.082
22184W        W88593   9.389  17.547  10.983
22185W        W88594   1.492  32.105   4.754
22186W        W88595  40.067  29.546  14.927
22187W        W88596  19.717  28.503   1.399
22188W        W88597  17.124   7.441  10.637
22189W        W88598   9.963   5.736  12.474
22190W        W88599  29.222  13.751  13.745
22191W        W88600  14.133  27.439   0.354
22192W        W88601  27.015  22.945  11.438
22193W        W88602  17.568  40.044  11.704
22194W        W88603  15.674   2.303   1.924
22195W        W88604   9.693   6.311  11.176
22196W        W88605   3.100  41.536  14.605
22197W        W88606   5.129  33.014   0.219
22198W        W88607   7.900  27.562   3.276
22199W        W88608  43.933   7.494  12.900
22200W        W88609  16.645  34.993  12.069
22201W        W88610  26.397  17.094  14.466
22202W        W88611  10.843   6.204  12.977
22203W        W88612  38.829  32.630   0.801
22204W        W88613   6.366   1.930   1.762
22205W        W88614   9.394  41.578   2.506
22206W        W88615  40.484  25.911   4.448
22207W        W88616  17.361  43.756  14.573
22208W        W88617  44.251  34.946  14.853
22209W        W88618  29.996   5.091   9.934
22210W        W88619   3.730  32.793   2.702
22211W        W88620  12.592  41.474   2.681
22212W        W88621  10.780  26.235   2.102
22213W        W88622  29.201   0.309  10.808
22214W        W88623  38.561  38.080   2.770
22215W        W88624   2.305  37.599   0.989
22216W        W88625  26.144   3.661  14.425
22217W        W88626   2.742   1.422  12.793
22218W        W88627   5.542  29.914  13.881
22219W        W88628  42.385  36.398   2.864
22220W        W88629   4.388   9.855  14.391
22221W        W88630  44.748   0.286   0.895
22222W        W88631  19.704   4.312  14.868
22223W        W88632  25.384  26.917   2.192
22224W        W88633   6.816  31.943  12.995
22225W        W88634  13.867  36.276   1.412
22226W        W88635  31.293  25.546   1.475
22227W        W88636  20.170  33.678  13.481
22228W        W88637  24.661  10.129   2.359
22229W        W88638  37.965  40.468   4.333
22230W        W88639   2.687  23.240   1.942
22231W        W88640  37.393  28.957   4.921
22232W        W88641  10.285  37.003   3.702
22233W        W88642   7.617  29.218  13.264
22234W        W88643  20.619  11.321   3.148
22235W        W88644  11.772   4.762  12.529
22236W        W88645   1.458   6.175  10.569
22237W        W88646   9.840  13.908   4.692
22238W        W88647   7.270  35.140   4.955
22239W        W88648  30.020   3.804   4.831
22240W        W88649   8.352   6.760  12.870
22241W        W88650  44.839  10.861   0.963
22242W        W88651  33.896  43.783   0.758
22243W        W88652  28.148  42.425   4.084
22244W        W88653  36.954  28.496  10.655
22245W        W88654  43.037  16.748  12.980
22246W        W88655   2.800  43.029   2.206
22247W        W88656  44.277  43.250   2.205
22248W        W88657  43.605   2.510   1.273
22249W        W88658  43.799  42.220  14.855
22250W        W88659   1.215  29.144   2.702
22251W        W88660  35.614  22.665  12.354
22252W        W88661  39.228  14.774   0.316
22253W        W88662  35.738   7.213  14.717
22254W        W88663  35.433  42.348   1.424
22255W        W88664  41.372   1.267  12.634
22256W        W88665  29.884  15.311   1.401
22257W        W88666  35.519  23.252   2.314
22258W        W88667  25.659  29.694  13.580
22259W        W88668  42.030  20.755   1.877
22260W        W88669  37.624   8.303  10.965
22261W        W88670  40.001  42.898   2.266
22262W        W88671  36.942  30.100  10.934
22263W        W88672  30.611  10.332  11.139
22264W        W88673  25.690  17.190  11.461
22265W        W88674  22.315  28.784   4.487
22266W        W88675  33.165   5.455  14.858
22267W        W88676  17.324  36.057  14.236
22268W        W88677   5.657  20.566  11.776
22269W        W88678  15.663  18.545   1.855
22270W        W88679   3.274  41.815  11.066
22271W        W88680  13.799  30.631  13.780
22272W        W88681  43.414  30.941   5.289
22273W        W88682  13.270   0.822  12.989
22274W        W88683   7.817   3.827   4.406
22275W        W88684   9.657  37.685   1.786
22276W        W88685  31.042  29.419  14.024
22277W        W88686  31.363  32.963  12.468
22278W        W88687  27.976  33.316  13.294
22279W        W88688  36.624  36.074   0.388
22280W        W88689  11.675  43.731  10.251
22281W        W88690  37.591  23.021  14.200
22282W        W88691  31.174  16.199  11.590
22283W        W88692  38.876  11.747  12.152
22284W        W88693  38.087  40.560  14.541
22285W        W88694   5.174  13.852   4.847
22286W        W88695  40.335  37.623  13.866
22287W        W88696   3.025  31.673   2.934
22288W        W88697  19.519  34.092   3.749
22289W        W88698  37.562  36.075   0.306
22290W        W88699  39.069   3.896   1.974
22291W        W88700  36.393  18.358  10.802
22292W        W88701   4.273  14.354  14.612
22293W        W88702  43.959  14.704   3.063
22294W        W88703  14.216  40.018   3.818
22295W        W88704   0.785  13.575  14.971
22296W        W88705  18.533   4.788  10.840
22297W        W88706  36.037   3.453  14.403
22298W        W88707  27.897  26.649  10.674
22299W        W88708  14.619  39.044  12.797
22300W        W88709  18.836  12.757  11.178
22301W        W88710  25.048  13.344  11.532
22302W        W88711   8.735   2.902  11.875
22303W        W88712  25.755   4.388  12.256
22304W        W88713  35.544  38.611   1.375
22305W        W88714  16.727   6.991   0.854
22306W        W88715  16.857  35.289   2.575
22307W        W88716  37.499  21.051   4.941
22308W        W88717  33.087   1.502   0.839
22309W        W88718  12.426  43.927   4.742
22310W        W88719  30.078   2.026   1.377
22311W        W88720  20.597  25.637  11.392
22312W        W88721   8.103  18.570   0.350
22313W        W88722  17.831  14.832   0.851
22314W        W88723  26.241  37.680  11.003
22315W        W88724  42.870   4.247   0.351
22316W        W88725  28.204  10.970   4.128
22317W        W88726  19.536  42.338   0.766
22318W        W88727  18.021  29.002   4.108
22319W        W88728   7.734  40.459  11.130
22320W        W88729   8.659  25.493   2.839
22321W        W88730  16.100  37.461   0.922
22322W        W88731  10.315  12.808  12.060
22323W        W88732  16.017  21.546   1.742
22324W        W88733   6.698  33.644   3.614
22325W        W88734   6.233  43.427   0.207
22326W        W88735  11.736  11.455  12.103
22327W        W88736   0.795  36.880  14.728
22328W        W88737  29.485  29.064  12.887
22329W        W88738  34.507   9.334  11.901
22330W        W88739   0.888  29.100   2.241
22331W        W88740  37.285  12.831  13.083
22332W        W88741  30.928  26.036   3.210
22333W        W88742   2.977  12.240  12.352
22334W        W88743  43.437  14.935  12.524
22335W        W88744  37.942  27.180  13.100
22336W        W88745  10.167   7.644   4.167
22337W        W88746  39.774   3.282   3.271
22338W        W88747  21.045   2.903  13.783
22339W        W88748  33.298  24.812   0.888
22340W        W88749  21.599   5.991  13.436
22341W        W88750  35.663  41.282   2.920
22342W        W88751  41.510  26.445  11.655
22343W        W88752  22.755   9.007  13.458
22344W        W88753  32.066   0.333   4.704
22345W        W88754  28.021  33.307  11.922
22346W        W88755  41.986   0.732  12.060
22347W        W88756  34.660  44.107   2.104
22348W        W88757   1.036  12.073   5.090
22349W        W88758  40.408  13.945  12.944
22350W        W88759  36.340  37.889  13.939
22351W        W88760  43.722  22.125  11.536
22352W        W88761  37.351  12.680  10.954
22353W        W88762  10.644  19.802  13.744
22354W        W88763  35.433  43.439  13.404
22355W        W88764  30.698  18.719   0.223
22356W        W88765   7.190  17.137  13.857
22357W        W88766  18.414   0.865   0.303
22358W        W88767   5.804   3.453   0.510
22359W        W88768  14.886  24.019   1.603
22360W        W88769  12.105  18.582   1.684
22361W        W88770   7.382  42.583  14.850
22362W        W88771  26.108  35.455  12.875
22363W        W88772  23.498  28.008   2.227
22364W        W88773  27.440   3.434  12.452
22365W        W88774   2.438  41.304   3.584
22366W        W88775  16.797  14.323  14.725
22367W        W88776  15.964  32.906  14.841
22368W        W88777   0.111  10.399   3.103
22369W        W88778  12.408  36.015  12.631
22370W        W88779  32.972  21.784   2.185
22371W        W88780  24.065   3.867   4.659
22372W        W88781  26.269  25.171  10.300
22373W        W88782  29.806   9.321  13.157
22374W        W88783  17.721  40.272   2.787
22375W        W88784   4.865   2.312   3.589
22376W        W88785  14.322  33.667   3.398
22377W        W88786  10.107  35.293   4.122
22378W        W88787  35.521  39.764  10.631
22379W        W88788  18.615   8.308  13.606
22380W        W88789   3.247  27.753  13.055
22381W        W88790   1.250   2.407   1.900
22382W        W88791   1.402  36.811  13.932
22383W        W88792   7.903  21.098  14.093
22384W        W88793  13.579   7.289  11.689
22385W        W88794  14.677  32.973  14.007
22386W        W88795  26.663  41.052   3.969
22387W        W88796  35.099  37.598  10.230
22388W        W88797   3.566   7.497   4.008
22389W        W88798  12.676  28.367   4.592
22390W        W88799   4.703   6.163   0.925
22391W        W88800   4.649   3.705  12.430
22392W        W88801  25.679  44.784  12.415
22393W        W88802  27.437  30.069  11.621
22394W        W88803  36.380  41.580   0.214
22395W        W88804  12.908  41.923  12.115
22396W        W88805  15.135  10.330  14.324
22397W        W88806  16.070  30.478   1.201
22398W        W88807  34.076  12.151   4.763
22399W        W88808  34.651  30.387  12.981
22400W        W88809  32.968  21.977   0.801
22401W        W88810  13.182   9.032  11.066
22402W        W88811  17.797  29.214   3.683
22403W        W88812   0.783  23.768   0.815
22404W        W88813  25.733  10.686   2.619
22405W        W88814  13.951  39.071   4.241
22406W        W88815  42.798  37.125  10.759
22407W        W88816  28.335   5.472   3.527
22408W        W88817  36.606  36.353   1.236
22409W        W88818  10.231  19.278  13.108
22410W        W88819  27.693  38.933   4.426
22411W        W88820  27.640  14.666   1.341
22412W        W88821  31.219   6.914  11.706
22413W        W88822  24.696  25.145  10.851
22414W        W88823  14.656  10.368  12.477
22415W        W88824  37.392  23.631   4.069
22416W        W88825   6.779  24.982  11.218
22417W        W88826  22.702  10.239  14.758
22418W        W88827  19.312   2.551  13.597
22419W        W88828  42.081   7.339   0.972
22420W        W88829  18.143  14.670   3.791
22421W        W88830  26.098  37.003   1.130
22422W        W88831  26.629  40.045   0.972
22423W        W88832  15.194   8.365  14.992
22424W        W88833  32.110  37.641   3.746
22425W        W88834   9.661  22.970  10.287
22426W        W88835   5.199   6.750  11.503
22427W        W88836   0.336  43.555  14.460
22428W        W88837   5.770  19.785   3.386
22429W        W88838  33.315   5.502  12.817
22430W        W88839  44.880   1.651  13.996
22431W        W88840  32.126  24.750   2.627
22432W        W88841  20.815   4.922  11.550
22433W        W88842  42.830  30.856  13.101
22434W        W88843   3.486  29.574  10.800
22435W        W88844  26.976  32.873   1.878
22436W        W88845  35.157  24.032  14.722
22437W        W88846  21.267  32.529   4.518
22438W        W88847   4.772   0.332   2.798
22439W        W88848  26.716   3.209  11.198
22440W        W88849  30.028  14.265  13.478
22441W        W88850   0.851  27.829  10.624
22442W        W88851   9.858  30.367  10.563
22443W        W88852   1.946  36.138   4.003
22444W        W88853  30.108  15.234  13.740
22445W        W88854   9.892  24.755   1.853
22446W        W88855   6.809  39.000  14.979
22447W        W88856  13.190   0.756   3.489
22448W        W88857  39.511  14.389   4.529
22449W        W88858  21.067  41.857  14.110
22450W        W88859  23.586  11.592   2.399
22451W        W88860  27.760  24.136   1.049
22452W        W88861  16.690  34.614  14.417
22453W        W88862  11.595  38.434  14.030
22454W        W88863   9.131  34.572  13.447
22455W        W88864   1.742  37.995   4.355
22456W        W88865   0.835  38.517   2.876
22457W        W88866   2.840  38.657  13.328
22458W        W88867   0.870  28.717   4.884
22459W        W88868  31.863   1.150  12.996
22460W        W88869   8.750   1.286  10.950
22461W        W88870  14.153  26.570  14.330
22462W        W88871   7.799  35.341  13.881
22463W        W88872  22.261  38.759   1.477
22464W        W88873  43.865  15.787  14.472
22465W        W88874  25.831  24.981  14.378
22466W        W88875  21.068  20.120   0.470
22467W        W88876  16.559  37.761   3.068
22468W        W88877  41.322  17.149  11.451
22469W        W88878  37.093  18.975  13.938
22470W        W88879   1.793  11.601  12.529
22471W        W88880   6.505   0.835  14.944
22472W        W88881  26.947  22.601   2.095
22473W        W88882   4.746  17.536  14.484
22474W        W88883   4.285   2.535   4.534
22475W        W88884  31.590  29.913  12.117
22476W        W88885  28.956  35.856  11.623
22477W        W88886  34.481  26.105  14.502
22478W        W88887   7.093  31.685   5.053
22479W        W88888   7.321  41.489  12.991
22480W        W88889  30.043   0.523  13.982
22481W        W88890  24.440  25.672  10.245
22482W        W88891   8.586  16.671   2.598
22483W        W88892   7.561  43.088  12.558
22484W        W88893  25.067  17.231   2.476
22485W        W88894  38.076   6.708   1.459
22486W        W88895  26.483  25.198  10.875
22487W        W88896  24.247  30.634   2.818
22488W        W88897   3.850  16.032   0.843
22489W        W88898   6.403  38.809   0.244
22490W        W88899  32.086  17.519  12.410
22491W        W88900  44.881  30.023  11.237
22492W        W88901  21.474  15.102   4.519
22493W        W88902  35.437  38.613   1.915
22494W        W88903  25.647   2.230   3.677
22495W        W88904  38.506  20.188   1.473
22496W        W88905  31.945  33.947   2.136
22497W        W88906  26.094  32.918   1.869
22498W        W88907  27.505  29.160  11.540
22499W        W88908  24.055  10.102  10.825
22500W        W88909  44.375   1.648   0.884
22501W        W88910  20.702   7.508   4.021
22502W        W88911  42.550  36.770  13.332
22503W        W88912  41.405  31.001   3.197
22504W        W88913  37.005   6.218   4.542
22505W        W88914   6.686  10.709  13.458
22506W        W88915  34.619  34.880   3.007
22507W        W88916  43.441  44.058  14.984
22508W        W88917  37.513   9.736  11.238
22509W        W88918  18.682  12.727   3.048
22510W        W88919  25.751   5.837   0.412
22511W        W88920   1.793  43.466   3.310
22512W        W88921  30.421   6.736   2.576
22513W        W88922  22.067  10.592   1.928
22514W        W88923   3.441  41.936  14.698
22515W        W88924   2.447  24.055  11.465
22516W        W88925  24.274   9.353   3.514
22517W        W88926  28.573   1.435  14.250
22518W        W88927   2.499  22.931   4.996
22519W        W88928  34.116  20.184  10.742
22520W        W88929   7.743  17.336  10.685
22521W        W88930  39.072  38.344   4.136
22522W        W88931  23.638   3.171  14.435
22523W        W88932   8.352   5.232   3.656
22524W        W88933   7.449  11.123  12.546
22525W        W88934  17.062  25.173   2.738
22526W        W88935  24.002  35.943   2.812
22527W        W88936  43.823  37.281   3.257
22528W        W88937  35.432   3.791  14.518
22529W        W88938  15.230  18.166   4.814
22530W        W88939  39.650  20.260  12.420
22531W        W88940  37.897   9.855  10.435
22532W        W88941  17.459   6.420   5.155
22533W        W88942  20.022   5.632   0.996
22534W        W88943  19.177  26.031   4.737
22535W        W88944  39.059  41.327   0.307
22536W        W88945  35.426   5.253   3.126
22537W        W88946  44.316  19.630  13.396
22538W        W88947   1.310   5.331  10.777
22539W        W88948  39.454  30.331   1.139
22540W        W88949   4.455  19.290   0.105
22541W        W88950   8.836  12.275   0.229
22542W        W88951  38.706  11.634  13.503
22543W        W88952   2.818  41.242   2.558
22544W        W88953   0.572  32.463   3.886
22545W        W88954  34.059   0.466   2.337
22546W        W88955  23.487  13.866   1.845
22547W        W88956  13.173   6.933  11.142
22548W        W88957   7.208   9.438  11.507
22549W        W88958  41.578  37.844  13.540
22550W        W88959  40.318  44.904  12.506
22551W        W88960  33.637  16.045  11.575
22552W        W88961  28.980  34.928   0.394
22553W        W88962   7.979  12.632   0.025
22554W        W88963  24.582  31.332  12.529
22555W        W88964  10.666  19.568  12.439
22556W        W88965  13.876  41.903   4.212
22557W        W88966  19.263  27.698  14.296
22558W        W88967  43.232  41.752   4.677
22559W        W88968  12.560   1.793  12.738
22560W        W88969  15.344   6.914  11.679
22561W        W88970  13.395  29.002   2.702
22562W        W88971  22.968  28.526  14.839
22563W        W88972  36.035  15.654   2.429
22564W        W88973  12.283  12.648  13.842
22565W        W88974  31.045  31.436  11.616
22566W        W88975  40.989  17.048   1.964
22567W        W88976  35.716  13.718  13.017
22568W        W88977  27.014  18.655   1.395
22569W        W88978  14.020  40.170  13.092
22570W        W88979   9.906  26.192   2.586
22571W        W88980   1.704  20.352  11.067
22572W        W88981  44.412  35.415   4.205
22573W        W88982  40.343  39.342  13.809
22574W        W88983  11.888  30.623  11.575
22575W        W88984   1.197  15.034   3.656
22576W        W88985  34.345  17.083  11.274
22577W        W88986  28.255  31.427   3.655
22578W        W88987  18.666  13.166   4.853
22579W        W88988  41.749  27.868  13.488
22580W        W88989  35.060  33.929  13.928
22581W        W88990  34.770   8.100   4.259
22582W        W88991  30.375  33.946  14.356
22583W        W88992  18.145  20.043  11.139
22584W        W88993  35.889  33.523   0.090
22585W        W88994  11.383  43.143  14.469
22586W        W88995  22.986  19.220  10.610
22587W        W88996  23.040  23.344  12.561
22588W        W88997  42.419  16.245   0.107
22589W        W88998   7.729  23.058   4.527
22590W        W88999  39.733  44.535  13.438
22591W        W89000  28.006  22.080  11.120
22592W        W89001  18.280   1.436   4.047
22593W        W89002  35.388  19.189  10.144
22594W        W89003  33.180   2.280  12.519
22595W        W89004  22.788  28.935   0.821
22596W        W89005  41.348  10.853  12.530
22597W        W89006  10.239  36.265   4.169
22598W        W89007   6.322   9.701  11.556
22599W        W89008  13.459  15.435   5.097
22600W        W89009   2.796  29.034   1.229
22601W        W89010  14.660  19.842   4.505
22602W        W89011  32.847  15.222  13.245
22603W        W89012   0.350  19.158   1.419
22604W        W89013  20.125   2.294   4.511
22605W        W89014  38.355  12.772  14.025
22606W        W89015   8.936  36.224  11.586
22607W        W89016  30.570  37.625   1.713
22608W        W89017  20.786  40.036   4.233
22609W        W89018  12.869  19.081   4.204
22610W        W89019  37.443   3.499  14.069
22611W        W89020  12.142  17.127  14.118
22612W        W89021  30.424  29.110   4.218
22613W        W89022  15.691   2.855   2.601
22614W        W89023   6.920  30.372   3.720
22615W        W89024  25.594  16.076   3.218
22616W        W89025  30.413  30.898  11.992
22617W        W89026  24.670  38.565  10.868
22618W        W89027  24.402   1.521  14.760
22619W        W89028  10.260  33.592   1.374
22620W        W89029  13.633   2.258   0.769
22621W        W89030  27.116  18.116  14.737
22622W        W89031  26.170  26.783   2.341
22623W        W89032  24.290  40.582   0.759
22624W        W89033   2.261   2.034  14.796
22625W        W89034  10.110   9.766   4.424
22626W        W89035   1.728  36.981   0.639
22627W        W89036  17.277  10.817  13.084
22628W        W89037  19.995  25.274   0.674
22629W        W89038  31.726   6.681  13.341
22630W        W89039  32.887  38.890   2.354
22631W        W89040   1.344   7.675  10.527
22632W        W89041  35.293   4.179   4.005
22633W        W89042  27.457  30.088  12.712
22634W        W89043  25.395  37.512  11.015
22635W        W89044   3.164  13.756  12.450
22636W        W89045  36.175  35.908   4.453
22637W        W89046  40.001  42.800  13.447
22638W        W89047  23.228   9.196   3.659
22639W        W89048  31.055  29.775  14.409
22640W        W89049  35.064  34.801   1.804
22641W        W89050  10.378  27.493   2.225
22642W        W89051  44.283  14.474   4.701
22643W        W89052  20.249   1.443  12.618
22644W        W89053  24.638   9.748   3.593
22645W        W89054   5.429   8.678   4.178
22646W        W89055  24.476  13.035   1.366
22647W        W89056  35.962   9.734   3.248
22648W        W89057   1.281   7.960   2.309
22649W        W89058  12.618  22.939  12.406
22650W        W89059  12.027  25.624   4.287
22651W        W89060  39.868  32.158  10.599
22652W        W89061  11.307  27.727  11.184
22653W        W89062  36.626   9.578   1.436
22654W        W89063  15.240  22.176   4.025
22655W        W89064  17.619  40.710  10.182
22656W        W89065  25.966  22.987   2.722
22657W        W89066  21.079   4.458  10.694
22658W        W89067  20.804  10.376   3.617
22659W        W89068  40.350   8.779  10.332
22660W        W89069   8.248  19.760  14.634
22661W        W89070  41.498   5.435  12.504
22662W        W89071  41.394  29.052  13.279
22663W        W89072   0.948  36.567  13.927
22664W        W89073  27.125  27.875   2.528
22665W        W89074  19.032  24.597   1.324
22666W        W89075  39.269  36.581   3.503
22667W        W89076  43.037  42.095  13.087
22668W        W89077  24.738   4.929   4.844
22669W        W89078  25.187  21.774   0.803
22670W        W89079   8.825  14.603  12.438
22671W        W89080  24.452   4.646  12.709
22672W        W89081  24.689   5.335   1.833
22673W        W89082  34.072  44.327  14.455
22674W        W89083   8.233  17.541  13.379
22675W        W89084  17.218  43.930   0.853
22676W        W89085  39.181  31.637  12.384
22677W        W89086  18.362  40.667   4.997
22678W        W89087  17.009  33.384  10.669
22679W        W89088  34.513   5.973   4.526
22680W        W89089  12.599   4.258  10.096
22681W        W89090  23.213  29.667  14.050
22682W        W89091  35.878  30.885  12.155
22683W        W89092  17.364  18.462  12.627
22684W        W89093  36.405  29.953  12.885
22685W        W89094  14.693  24.501  10.477
22686W        W89095  15.332  39.537  10.814
22687W        W89096  35.136  19.158  12.913
22688W        W89097  31.645  24.472  12.391
22689W        W89098   1.420  19.509  14.379
22690W        W89099  30.960  20.638   1.323
22691W        W89100  41.523  39.394  14.548
22692W        W89101   9.012   2.031  12.866
22693W        W89102   3.786  17.175   4.460
22694W        W89103  44.074   0.344   2.286
22695W        W89104  40.443  19.312   4.177
22696W        W89105   3.200  20.669  10.975
22697W        W89106  30.133   5.448   3.648
22698W        W89107   2.749  29.990   1.400
22699W        W89108   5.930  25.202   2.705
22700W        W89109  25.856  10.116   4.131
22701W        W89110   2.381  23.893  14.347
22702W        W89111  16.195  38.186  13.979
22703W        W89112  27.255  31.388  13.900
22704W        W89113  30.107  33.933   0.675
22705W        W89114  33.624   8.625  10.310
22706W        W89115   6.803  33.976  11.130
22707W        W89116   9.186  23.002   4.648
22708W        W89117  43.555   6.674  11.985
22709W        W89118  42.410  21.240  11.237
22710W        W89119  28.454  28.173  10.724
22711W        W89120   5.505   6.898  14.887
22712W        W89121   0.757  29.102  13.994
22713W        W89122  22.104  21.990   2.662
22714W        W89123  25.237   6.168  14.029
22715W        W89124  42.729  32.565  13.605
22716W        W89125   3.814  35.315   2.818
22717W        W89126  15.320  38.043  12.569
22718W        W89127  14.546  42.831  11.436
22719W        W89128   9.433  11.093   2.525
22720W        W89129  29.898  37.919  14.305
22721W        W89130  43.254  13.777  13.072
22722W        W89131  21.492  11.802  11.724
22723W        W89132  28.841  41.356   3.644
22724W        W89133   9.899  15.985   4.087
22725W        W89134  36.051  15.366  12.080
22726W        W89135  22.459  20.718   0.931
22727W        W89136   8.205  13.985   3.265
22728W        W89137   2.523  18.867   1.741
22729W        W89138  35.968  40.121   3.226
22730W        W89139  18.221  31.967   4.669
22731W        W89140  19.646  32.743  13.388
22732W        W89141   1.577  14.159   3.601
22733W        W89142  24.898   7.273  13.634
22734W        W89143  35.073   8.930   3.614
22735W        W89144  21.770  19.767  11.638
22736W        W89145  22.509  13.539  13.152
22737W        W89146  22.442  28.486  12.713
22738W        W89147  10.163  37.375   0.729
22739W        W89148   5.715  42.773  10.571
22740W        W89149  28.947  32.981   1.084
22741W        W89150   9.983  12.712   0.760
22742W        W89151  31.048  19.557   2.297
22743W        W89152  17.730  33.020   1.219
22744W        W89153  16.083  42.794   0.300
22745W        W89154  18.161  42.799  11.386
22746W        W89155   5.875  19.572   2.889
22747W        W89156  39.122  29.694  12.411
22748W        W89157   1.012  41.542   2.733
22749W        W89158  12.405  36.345  10.738
22750W        W89159  44.960  17.031   4.143
22751W        W89160  38.071  31.932   0.774
22752W        W89161  18.404  20.413  14.801
22753W        W89162  36.452  30.416  11.585
22754W        W89163  14.610  16.977   2.888
22755W        W89164   2.801  42.094   1.240
22756W        W89165  35.287  43.782  14.972
22757W        W89166  11.539  19.785  14.021
22758W        W89167  40.829  27.727   3.693
22759W        W89168  12.181  43.547  12.222
22760W        W89169  16.735  31.464  12.464
22761W        W89170  21.317  21.129  14.343
22762W        W89171  20.285  35.036   3.822
22763W        W89172   6.640  36.613  13.283
22764W        W89173   0.456  11.233   3.611
22765W        W89174   7.176   2.775  14.499
22766W        W89175   8.589  23.733  12.907
22767W        W89176  43.952  17.242   0.225
22768W        W89177  11.209  20.522   0.462
22769W        W89178  25.032   3.384   4.976
22770W        W89179  10.284  15.811   4.839
22771W        W89180  11.724  34.626   2.829
22772W        W89181  24.066  43.367   1.033
22773W        W89182   7.281  22.708  10.651
22774W        W89183   3.439  20.077   3.382
22775W        W89184  26.451   8.884  13.190
22776W        W89185  19.063  13.697  10.696
22777W        W89186   8.196  21.689   3.839
22778W        W89187   6.571  17.713  13.565
22779W        W89188  42.535  23.983  12.050
22780W        W89189  19.630  24.222  12.103
22781W        W89190   1.814   4.474   4.077
22782W        W89191  26.077  29.730   1.725
22783W        W89192   1.400  42.224   2.219
22784W        W89193   0.880   7.915   3.555
22785W        W89194   4.673  10.610   0.680
22786W        W89195  24.002   8.244   4.238
22787W        W89196  11.348  34.183  13.025
22788W        W89197  24.724  33.810  14.171
22789W        W89198  34.877  27.485  12.018
22790W        W89199  25.211  44.347  11.551
22791W        W89200  25.391  26.899  10.613
22792W        W89201  36.380  39.556   4.499
22793W        W89202  21.804   1.014   3.194
22794W        W89203  30.563  39.805   2.358
22795W        W89204  11.686  26.977   1.848
22796W        W89205  32.449   7.761   0.978
22797W        W89206  41.928  20.420  14.034
22798W        W89207   9.145  39.095  11.602
22799W        W89208   7.433   3.904  10.728
22800W        W89209  12.965  18.564  11.160
22801W        W89210  16.740   1.374   2.143
22802W        W89211  20.112  25.455  11.517
22803W        W89212  44.419  34.046   0.035
22804W        W89213  19.558  39.402  12.047
22805W        W89214  42.867   9.292   0.916
22806W        W89215  30.970  30.902   1.755
22807W        W89216   9.436  44.995  14.863
22808W        W89217   7.398  16.100   1.850
22809W        W89218  11.401  32.448   1.972
22810W        W89219  42.490  39.295   0.017
22811W        W89220  41.203   9.081  14.223
22812W        W89221  24.030  12.565  12.826
22813W        W89222  10.806  11.215  11.034
22814W        W89223  37.673  21.609   0.687
22815W        W89224   9.801  19.995  13.258
22816W        W89225  15.591  44.454  12.452
22817W        W89226  42.003   9.185   0.354
22818W        W89227  43.049  14.649  12.385
22819W        W89228  20.801  30.458  13.242
22820W        W89229   5.165   6.645   2.160
22821W        W89230  27.192  38.490   3.686
22822W        W89231  30.401   6.948  10.790
22823W        W89232  26.374  14.237  10.271
22824W        W89233  28.174   6.923   4.415
22825W        W89234  31.990  44.542   1.725
22826W        W89235   2.212  43.308  13.440
22827W        W89236   6.770  29.124  11.479
22828W        W89237  40.150  29.603   4.254
22829W        W89238  27.712  40.958  11.630
22830W        W89239  23.671  12.485   1.294
22831W        W89240  30.963  33.425   3.662
22832W        W89241  19.854  23.702  14.883
22833W        W89242  32.846  34.056  14.590
22834W        W89243  33.347  14.754   4.864
22835W        W89244  41.176   7.802  11.606
22836W        W89245   3.192  41.037  10.482
22837W        W89246   1.576  12.392  14.949
22838W        W89247  13.167  35.157   4.725
22839W        W89248  38.770  24.552   2.347
22840W        W89249  36.708  25.507   2.757
22841W        W89250  29.263  25.024  10.314
22842W        W89251  17.421   3.212   1.716
22843W        W89252  16.027  23.128  10.137
22844W        W89253  43.240  14.229   4.572
22845W        W89254  24.568  34.041   0.981
22846W        W89255  36.925  16.232  12.238
22847W        W89256   5.391  41.335   1.273
22848W        W89257  40.825  39.694  12.594
22849W        W89258  22.615  19.720  12.138
22850W        W89259  13.628   3.734   0.241
22851W        W89260   9.331  30.565  14.895
22852W        W89261  16.564  31.509  14.905
22853W        W89262  33.634  28.206   4.668
22854W        W89263   4.763   3.841   3.266
22855W        W89264   4.894  16.081   1.235
22856W        W89265   2.176   7.793  10.962
22857W        W89266  29.931  28.723   1.237
22858W        W89267  23.996   2.686   4.611
22859W        W89268  30.224   0.879   0.756
22860W        W89269  41.319  32.612   3.296
22861W        W89270   7.140  40.004   4.561
22862W        W89271  43.857   2.841   3.114
22863W        W89272  10.619  19.614   4.194
22864W        W89273  40.296   9.458  13.949
22865W        W89274  41.379  17.868  11.588
22866W        W89275  44.418   6.194   4.352
22867W        W89276  39.362  31.537   2.364
22868W        W89277  28.236  23.108   4.986
22869W        W89278  40.841  23.703  13.611
22870W        W89279  31.313   4.350   1.021
22871W        W89280  31.541   7.278  11.848
22872W        W89281  31.514  14.193  14.698
22873W        W89282  40.004   1.105  10.627
22874W        W89283  27.400  30.705   2.544
22875W        W89284  13.771  18.835   2.213
22876W        W89285  24.974  36.517   3.285
22877W        W89286  22.110   2.440   3.672
22878W        W89287  44.780   2.449   0.453
22879W        W89288  29.593  24.558  10.970
22880W        W89289  15.365  23.929  13.830
22881W        W89290   4.885   2.267  12.511
22882W        W89291   0.666  11.410  12.627
22883W        W89292  13.569  28.062  10.891
22884W        W89293  31.031   5.975  14.826
22885W        W89294  39.533  16.084   3.686
22886W        W89295  34.834  11.878   2.240
22887W        W89296  43.019  34.584   2.781
22888W        W89297  26.829  24.247   2.749
22889W        W89298  37.142   7.674   3.061
22890W        W89299  12.212  24.965  13.421
22891W        W89300  44.918  36.286  11.589
22892W        W89301  40.793  33.405   3.125
22893W        W89302  32.520  39.041  11.514
22894W        W89303  36.006  38.966   1.906
22895W        W89304   6.936  37.516  10.734
22896W        W89305  28.108   8.747  11.446
22897W        W89306   5.021  37.219   4.518
22898W        W89307  33.146  13.808   0.847
22899W        W89308  36.869  40.835   0.510
22900W        W89309  14.748  15.404  14.422
22901W        W89310  42.342  13.141   4.719
22902W        W89311  22.520  41.554  10.803
22903W        W89312  28.366  23.573   0.694
22904W        W89313  38.095   2.221  11.010
22905W        W89314  24.054   5.115  11.957
22906W        W89315  18.246  27.766   1.422
22907W        W89316  14.525  17.582  13.082
22908W        W89317  39.532  15.622   2.740
22909W        W89318  38.910  31.189  12.477
22910W        W89319  22.704  40.583  13.010
22911W        W89320  30.043   1.376  10.259
22912W        W89321  24.488  29.330   3.338
22913W        W89322   1.825  29.172   0.255
22914W        W89323   1.032  34.389   0.373
22915W        W89324  11.696  37.183  10.190
22916W        W89325  17.126  26.592   2.342
22917W        W89326  17.087  29.901   2.680
22918W        W89327  17.832  26.056  14.098
22919W        W89328  32.029  35.703   2.763
22920W        W89329  29.939  18.007  12.861
22921W        W89330  26.042   2.230  13.427
22922W        W89331  37.648  28.480  13.445
22923W        W89332  28.183  42.550  11.282
22924W        W89333   6.251  34.292   5.047
22925W        W89334  38.788  19.260   0.861
22926W        W89335  36.099   4.737   0.708
22927W        W89336  19.542  43.885   4.092
22928W        W89337  35.653  17.696  10.571
22929W        W89338  28.869  33.989  11.859
22930W        W89339  18.169  44.577  13.648
22931W        W89340  39.401  34.984   1.878
22932W        W89341  38.933  30.947  13.784
22933W        W89342   8.637  33.512   2.690
22934W        W89343   7.341   8.900  10.358
22935W        W89344  40.514  27.997  11.490
22936W        W89345  29.442  35.374   1.049
22937W        W89346   0.093  21.408  14.028
22938W        W89347   2.497  37.757  11.813
22939W        W89348  12.186  41.472   4.647
22940W        W89349  42.471  11.106   0.750
22941W        W89350  25.744  25.189   0.560
22942W        W89351  34.900  26.191  14.779
22943W        W89352  36.761  30.600  11.211
22944W        W89353  40.307  19.190  14.132
22945W        W89354  16.604   3.697  12.487
22946W        W89355  41.852  30.232   1.671
22947W        W89356  33.948  13.205  12.854
22948W        W89357  40.470   1.727  13.341
22949W        W89358  17.674  19.354   0.899
22950W        W89359  10.272  40.424  11.465
22951W        W89360  17.128   7.847  10.949
22952W        W89361  38.290  29.999  10.767
22953W        W89362  14.366  23.698  13.345
22954W        W89363  16.811  41.070   1.562
22955W        W89364  30.391  40.985  10.676
22956W        W89365  44.682  40.457   5.094
22957W        W89366  43.876  41.228   2.267
22958W        W89367  33.301   1.504  10.761
22959W        W89368  10.633  19.084   2.131
22960W        W89369  43.539  13.509  11.266
22961W        W89370  35.423  30.984  13.009
22962W        W89371   8.578  13.116  10.986
22963W        W89372   2.488  24.890   3.257
22964W        W89373  10.343  16.810  11.161
22965W        W89374   3.662  12.288   4.216
22966W        W89375  18.019   3.582  14.781
22967W        W89376   6.961  33.093  13.002
22968W        W89377   3.755  35.693  12.082
22969W        W89378  13.040  38.450  12.018
22970W        W89379  38.433   2.930  13.049
22971W        W89380   1.567   3.849   1.808
22972W        W89381  20.671  26.706  11.390
22973W        W89382  12.651   2.954   0.302
22974W        W89383  41.390   6.076   5.123
22975W        W89384   7.773  29.653   2.151
22976W        W89385  24.523   7.111   3.824
22977W        W89386  24.289  18.119  12.431
22978W        W89387   6.377  13.175   0.896
22979W        W89388   5.927  24.045   3.702
22980W        W89389  11.933  34.323   4.948
22981W        W89390  38.743  27.062   0.257
22982W        W89391  25.401   1.515  13.044
22983W        W89392  36.427   9.679   0.915
22984W        W89393  37.662  23.860  13.858
22985W        W89394  13.457  30.625  14.213
22986W        W89395  23.218  10.236  14.665
22987W        W89396   8.873  17.822   4.176
22988W        W89397   2.334  25.384   3.304
22989W        W89398  23.096  33.600  11.578
22990W        W89399   1.627   1.303   2.910
22991W        W89400  22.285  18.042  11.715
22992W        W89401  36.948  20.841  13.450
22993W        W89402  22.759  35.474   1.423
22994W        W89403  30.349  41.336   1.722
22995W        W89404  12.885  27.942   4.239
22996W        W89405   3.220  34.903   1.781
22997W        W89406  15.719  38.948  14.213
22998W        W89407  44.946  36.879  12.359
22999W        W89408  17.608  25.556   3.256
23000W        W89409   5.680  16.537  10.683
23001W        W89410  13.765  39.596   2.205
23002W        W89411  43.941   1.749  11.624
23003W        W89412  25.461  19.608  14.188
23004W        W89413  11.211  32.861  13.402
23005W        W89414  32.064  30.597   1.804
23006W        W89415  17.168  17.101   1.062
23007W        W89416  38.646  27.135   1.104
23008W        W89417  41.307  31.600  11.986
23009W        W89418   8.287   1.999   2.201
23010W        W89419  18.170  37.111  12.111
23011W        W89420  17.730   0.031  11.640
23012W        W89421  21.037   4.818   3.188
23013W        W89422  15.524  13.866  14.708
23014W        W89423  19.783  25.658  12.909
23015W        W89424  41.767  28.924  11.671
23016W        W89425  36.855   9.939   2.282
23017W        W89426   7.607  33.877  14.761
23018W        W89427   9.791  34.323  14.009
23019W        W89428   2.214   3.452   0.954
23020W        W89429  41.784  15.889  13.852
23021W        W89430  33.442  38.453  13.157
23022W        W89431  24.721  40.035  11.118
23023W        W89432   8.664  26.640  14.809
23024W        W89433   3.695   7.839   1.877
23025W        W89434  18.634  10.505  11.755
23026W        W89435  15.203   5.151   2.269
23027W        W89436  15.734   8.411  14.394
23028W        W89437  23.272   1.893  12.304
23029W        W89438  11.453  15.246  14.809
23030W        W89439   1.913  10.730   1.535
23031W        W89440  15.517  22.470  13.013
23032W        W89441  43.794  25.546   2.632
23033W        W89442   7.505  14.173   4.645
23034W        W89443   1.893  21.253   0.797
23035W        W89444  29.498  22.795   2.815
23036W        W89445  25.462   4.728  12.573
23037W        W89446  16.255   6.685  13.989
23038W        W89447  26.503  17.115   1.206
23039W        W89448  32.187  21.662   1.218
23040W        W89449  41.315  31.792   3.733
23041W        W89450  22.791  25.592  12.398
23042W        W89451  16.427  36.462  12.947
23043W        W89452  15.494  32.484  12.036
23044W        W89453  38.473  38.784  14.058
23045W        W89454   7.745  21.781  13.815
23046W        W89455  14.716  33.876   1.823
23047W        W89456   2.132  28.425   4.544
23048W        W89457  38.458   3.160  14.991
23049W        W89458  14.014  15.724  12.121
23050W        W89459  17.745  20.176   1.690
23051W        W89460  34.805  38.377   2.404
23052W        W89461  41.442  16.777   2.060
23053W        W89462  29.815   8.220  10.116
23054W        W89463  17.978   7.668  13.088
23055W        W89464  28.468  23.603   4.173
23056W        W89465  39.576  35.367  14.793
23057W        W89466  29.228  16.215  13.106
23058W        W89467   8.928  44.734   0.274
23059W        W89468  26.417  18.157  10.647
23060W        W89469  38.038  15.996  12.123
23061W        W89470   6.053  10.382  12.822
23062W        W89471  42.471   8.239   4.503
23063W        W89472   7.373  18.247  13.588
23064W        W89473   8.954  21.069   1.548
23065W        W89474  10.068  37.791   4.103
23066W        W89475  43.482   2.364   2.648
23067W        W89476   1.256  29.589  11.105
23068W        W89477  37.336  44.664   2.651
23069W        W89478   5.333  19.274  14.338
23070W        W89479   8.387  18.719  12.081
23071W        W89480  40.785  15.656   4.454
23072W        W89481   2.429  41.570   4.025
23073W        W89482   7.449   6.176   1.285
23074W        W89483  14.789   3.478   4.655
23075W        W89484  23.979   4.933   0.840
23076W        W89485   7.924   5.754  14.816
23077W        W89486   7.823  37.253   4.696
23078W        W89487  18.323  22.114  10.172
23079W        W89488   9.468   7.995  10.634
23080W        W89489  23.463  23.127   5.001
23081W        W89490  35.849  29.688   1.340
23082W        W89491  24.152   2.288   2.813
23083W        W89492  10.632  27.872   2.506
23084W        W89493  33.869  28.519  14.915
23085W        W89494  15.367  13.319  13.518
23086W        W89495  44.474  18.939  11.723
23087W        W89496  42.406  12.623  14.849
23088W        W89497   9.493  36.993   4.936
23089W        W89498  40.350  27.491  12.891
23090W        W89499  28.149   2.895   4.246
23091W        W89500  24.143  19.525   1.525
23092W        W89501  26.207  28.610  11.660
23093W        W89502  15.317  31.698   1.041
23094W        W89503   8.128   5.575   2.435
23095W        W89504  27.625  23.089  10.198
23096W        W89505  10.420  43.029   3.026
23097W        W89506  37.988  13.415   0.099
23098W        W89507  43.108  25.518  13.626
23099W        W89508  25.055  35.452   2.651
23100W        W89509  23.700   7.296   1.269
23101W        W89510   2.747  28.885   0.378
23102W        W89511  16.046  18.217   3.791
23103W        W89512  10.038  13.822  11.456
23104W        W89513   7.776  23.828  14.896
23105W        W89514  18.239   1.231  12.455
23106W        W89515  16.189  10.771   4.597
23107W        W89516  39.550  21.732  10.066
23108W        W89517   7.044  40.968  13.567
23109W        W89518  40.110   2.327   3.689
23110W        W89519  17.330  40.653  13.393
23111W        W89520  42.530  44.301  10.367
23112W        W89521  39.877  17.298   2.704
23113W        W89522  39.889   5.293   3.158
23114W        W89523  20.790  21.736  14.809
23115W        W89524  39.747  27.398  14.363
23116W        W89525   1.441  22.952   0.419
23117W        W89526  16.222  28.550   2.748
23118W        W89527  28.030   1.310   2.828
23119W        W89528  41.993  16.836   9.807
23120W        W89529   7.678  27.110  12.992
23121W        W89530  25.492   1.066   0.473
23122W        W89531  27.669   4.886  10.997
23123W        W89532   1.648  33.762   3.613
23124W        W89533  29.636   2.768   0.054
23125W        W89534  21.800  42.970  10.267
23126W        W89535  22.297   1.658   1.270
23127W        W89536  11.875  16.565   2.232
23128W        W89537   0.531  37.266   4.084
23129W        W89538  34.364  30.536   1.755
23130W        W89539  22.785  19.694   2.776
23131W        W89540  14.518  25.045  12.903
23132W        W89541  43.598  22.589  11.774
23133W        W89542   6.956   3.461   2.722
23134W        W89543  34.425  28.397  10.731
23135W        W89544  36.349  23.085  11.891
23136W        W89545   8.048  42.984  12.469
23137W        W89546  36.837  16.766   1.254
23138W        W89547  16.589  41.770  13.111
23139W        W89548   8.874  12.085   4.220
23140W        W89549  20.951   1.391  12.009
23141W        W89550  19.049  14.393  11.709
23142W        W89551  42.342  18.597  11.195
23143W        W89552  19.631  31.656  10.360
23144W        W89553  40.895  34.056   4.293
23145W        W89554  39.890   2.479   4.120
23146W        W89555  18.510  35.055  11.123
23147W        W89556  30.979  12.116  11.190
23148W        W89557  12.223  39.449  14.848
23149W        W89558  32.584   5.998   4.605
23150W        W89559  23.083  24.623   1.802
23151W        W89560  14.390   6.229   2.175
23152W        W89561   1.966  40.695   2.783
23153W        W89562  14.851  20.554   4.151
23154W        W89563  19.434   6.321  14.851
23155W        W89564  40.784  32.572  14.943
23156W        W89565  26.255  29.208  11.005
23157W        W89566   6.765  21.312  12.167
23158W        W89567  23.044  19.696  14.833
23159W        W89568  40.286  15.383  14.798
23160W        W89569  16.719  26.787  12.871
23161W        W89570  39.339  20.011  10.722
23162W        W89571  14.402  28.074  14.375
23163W        W89572  18.588  13.126  14.473
23164W        W89573   2.281   0.655  12.518
23165W        W89574   9.142   0.950   3.741
23166W        W89575  27.477  17.764  14.551
23167W        W89576  23.748  39.035  11.023
23168W        W89577  36.573  21.312   3.706
23169W        W89578  36.573  43.314  13.840
23170W        W89579   8.759  44.246   1.363
23171W        W89580  23.551  35.979  13.077
23172W        W89581  13.014  38.900   4.128
23173W        W89582  23.584  22.215  14.455
23174W        W89583  18.756   5.822   3.859
23175W        W89584  10.090  21.984   3.129
23176W        W89585   9.328  42.161   3.121
23177W        W89586  27.100  40.863  10.908
23178W        W89587  11.104   9.099  11.692
23179W        W89588  41.317  16.112   3.771
23180W        W89589   1.879   8.989   0.826
23181W        W89590  12.486  15.754   3.228
23182W        W89591   2.074  44.843  10.468
23183W        W89592  21.074  31.061  10.556
23184W        W89593  14.775  30.017   1.421
23185W        W89594  39.099  28.353   1.737
23186W        W89595   6.675   1.007  14.460
23187W        W89596   0.935   8.003  12.350
23188W        W89597   3.027  17.126  14.749
23189W        W89598  40.397  38.371   3.950
23190W        W89599  44.746  27.950   0.743
23191W        W89600  17.332  16.244  12.043
23192W        W89601  24.658  34.174  10.988
23193W        W89602  23.793  39.527   3.354
23194W        W89603  10.997  35.309  14.864
23195W        W89604  19.706  33.104   0.054
23196W        W89605  41.229  18.047  13.812
23197W        W89606  27.685  16.098   2.346
23198W        W89607   1.518   8.376  11.143
23199W        W89608   8.864  14.596  11.528
23200W        W89609  29.340  17.433   4.138
23201W        W89610  41.825   7.010  13.447
23202W        W89611  35.761   4.283   4.157
23203W        W89612  31.167  37.288  13.264
23204W        W89613  22.535  20.992  12.544
23205W        W89614  44.492  37.665  12.440
23206W        W89615   4.609  32.627  14.741
23207W        W89616   0.274  44.378  13.266
23208W        W89617  40.383  10.414  10.455
23209W        W89618  27.886  44.979   3.145
23210W        W89619  18.799  39.874   1.454
23211W        W89620   5.802   3.062   4.528
23212W        W89621  36.684  19.303   4.121
23213W        W89622   6.398   5.382  11.027
23214W        W89623  40.977   5.426  12.449
23215W        W89624  41.553  33.371  11.570
23216W        W89625  18.160  44.026  12.125
23217W        W89626  32.927  15.019   2.719
23218W        W89627  34.118  41.066  14.556
23219W        W89628  14.264  17.965  11.074
23220W        W89629  10.210  31.585  12.629
23221W        W89630  11.402  44.406   2.234
23222W        W89631   4.385  13.930   3.759
23223W        W89632   2.097  26.926  12.517
23224W        W89633  24.033  44.011   4.623
23225W        W89634  32.317  13.830  14.279
23226W        W89635  38.045  35.008  11.649
23227W        W89636  18.663   9.355   1.349
23228W        W89637  17.792   0.938  10.513
23229W        W89638  28.129  37.838   0.483
23230W        W89639  39.936  41.764   2.636
23231W        W89640  14.376   9.838  10.701
23232W        W89641  18.121  40.927  10.921
23233W        W89642  13.546  28.011  13.576
23234W        W89643   4.900   0.051   2.337
23235W        W89644  31.033  10.143  14.335
23236W        W89645   1.575  32.371   3.649
23237W        W89646  36.618  44.855  14.275
23238W        W89647  17.676  30.605   1.442
23239W        W89648  13.015   7.784  11.517
23240W        W89649  27.514  32.696  12.532
23241W        W89650  42.442  35.967  13.583
23242W        W89651   5.821   3.920   4.714
23243W        W89652  21.730   0.335   4.607
23244W        W89653  25.695  16.535  14.445
23245W        W89654  43.843  20.944  12.589
23246W        W89655   8.713   3.714   3.336
23247W        W89656  33.040  29.457  11.867
23248W        W89657  24.698  42.937   4.518
23249W        W89658   1.267  11.385  11.979
23250W        W89659  41.091  40.892   3.254
23251W        W89660  25.931  22.712  13.928
23252W        W89661  20.911  20.216  14.432
23253W        W89662  12.986  12.236  12.623
23254W        W89663   5.143  27.607  12.882
23255W        W89664  25.463  21.334   2.692
23256W        W89665  39.363  27.258  11.106
23257W        W89666  13.131  31.695   0.557
23258W        W89667  20.808  29.022   3.673
23259W        W89668  37.444  16.872   2.777
23260W        W89669  35.546   2.697  12.477
23261W        W89670  42.929  18.097  10.780
23262W        W89671   1.508  16.643  12.914
23263W        W89672  14.219  24.874   4.570
23264W        W89673  32.505   0.595  13.407
23265W        W89674  41.831   0.154  13.884
23266W        W89675   0.276  14.451   4.519
23267W        W89676  20.469  40.282  14.756
23268W        W89677   3.682  32.051  11.218
23269W        W89678   4.761  25.171  12.416
23270W        W89679   5.953   5.713   3.695
23271W        W89680  38.042  16.676  11.388
23272W        W89681   3.399  22.602   2.910
23273W        W89682  22.560  33.741   1.137
23274W        W89683  28.674  15.686  13.830
23275W        W89684   9.883  25.588   5.088
23276W        W89685  31.053  42.892  11.652
23277W        W89686   4.830  35.829   2.137
23278W        W89687  27.544  44.430  11.844
23279W        W89688   3.001   4.908   1.624
23280W        W89689  33.730  43.322   0.950
23281W        W89690  10.269  42.279   4.145
23282W        W89691  43.755  28.952  14.936
23283W        W89692   1.769  24.009   2.851
23284W        W89693   6.761  37.046   0.798
23285W        W89694  34.761   8.798   2.372
23286W        W89695  38.135  27.703   4.188
23287W        W89696  36.391   1.802  14.855
23288W        W89697   7.203  17.990   2.096
23289W        W89698   5.912  40.771  11.335
23290W        W89699  24.191  43.777   4.186
23291W        W89700  40.852  37.436  14.777
23292W        W89701   2.956   3.250   4.581
23293W        W89702   8.455  16.618  11.252
23294W        W89703   4.246  35.858   0.340
23295W        W89704  38.783  10.870  13.040
23296W        W89705  13.387   7.764  11.872
23297W        W89706  32.155   1.772  13.835
23298W        W89707  30.024  41.555  13.777
23299W        W89708  28.882   8.302  14.289
23300W        W89709   5.882   8.837  12.916
23301W        W89710  11.912  37.880   2.243
23302W        W89711   0.230  39.473   2.992
23303W        W89712  38.469   0.918  14.670
23304W        W89713  11.119  44.522  14.447
23305W        W89714  11.166  24.938   3.185
23306W        W89715  23.400  14.642   2.891
23307W        W89716   6.586  18.667  13.438
23308W        W89717  11.348  29.556  12.579
23309W        W89718  43.255   5.044   4.153
23310W        W89719  12.360  28.497   1.952
23311W        W89720  28.964   3.906  13.122
23312W        W89721  21.587  21.365   2.031
23313W        W89722  12.669  31.403   4.015
23314W        W89723  36.463  34.178   0.528
23315W        W89724   5.005   4.906  13.566
23316W        W89725  33.660   6.853  11.867
23317W        W89726  44.705  11.348  13.395
23318W        W89727  16.689  24.476  11.612
23319W        W89728   2.535   2.300  13.017
23320W        W89729  37.600  14.839  11.634
23321W        W89730   0.398  15.748  10.897
23322W        W89731  29.090  41.964  13.791
23323W        W89732  21.678  26.125   1.499
23324W        W89733  26.168  38.968   2.843
23325W        W89734  19.271  38.978   0.961
23326W        W89735  39.411  38.469   0.444
23327W        W89736  16.538  39.654   3.958
23328W        W89737  25.980   5.640   1.810
23329W        W89738  30.434   4.407  12.820
23330W        W89739   5.040  11.379  14.116
23331W        W89740   5.719  22.164   1.817
23332W        W89741  13.791   2.742  14.406
23333W        W89742  25.616   5.007   0.811
23334W        W89743  22.648  23.991   3.186
23335W        W89744  20.653  32.427   1.028
23336W        W89745  44.997   5.283   0.820
23337W        W89746  34.087  40.674  11.097
23338W        W89747  40.907  44.319  13.068
23339W        W89748  36.577  32.534  14.370
23340W        W89749   2.486  22.476  14.839
23341W        W89750  22.257  13.630  14.517
23342W        W89751  32.517  30.478   1.000
23343W        W89752  44.706  11.344   0.825
23344W        W89753  33.148  12.679   0.219
23345W        W89754  18.682  24.010   0.537
23346W        W89755  29.965  18.644   3.152
23347W        W89756   1.805   7.465   2.399
23348W        W89757  41.939  16.165   1.927
23349W        W89758  31.877  42.506  14.975
23350W        W89759  25.916  19.203   0.803
23351W        W89760  20.614  25.915  14.365
23352W        W89761  31.922  19.246   1.322
23353W        W89762  39.099  35.735  11.426
23354W        W89763  40.312  43.164   5.112
23355W        W89764   3.286  23.034   2.662
23356W        W89765  34.458  40.810  10.737
23357W        W89766  12.534  20.770  14.008
23358W        W89767  27.677  14.882   0.871
23359W        W89768  19.015  13.634   3.520
23360W        W89769  24.494  18.716  12.930
23361W        W89770   3.421  36.262   3.148
23362W        W89771   2.907  40.290   2.183
23363W        W89772  23.051  11.688  12.443
23364W        W89773  32.595  24.255  14.482
23365W        W89774   3.827  34.590  13.067
23366W        W89775  25.718  16.220   3.882
23367W        W89776   4.716  14.341   3.660
23368W        W89777  40.336  41.510   1.809
23369W        W89778  18.170   0.229  11.410
23370W        W89779  40.354  33.120  10.771
23371W        W89780  11.049   1.410   3.150
23372W        W89781  13.386  36.183  14.158
23373W        W89782  42.851   9.355   1.920
23374W        W89783  20.443  18.201   0.861
23375W        W89784  44.702  42.301  14.976
23376W        W89785  18.017  25.422  13.504
23377W        W89786  15.809  14.145  12.041
23378W        W89787  39.251  17.622   2.847
23379W        W89788  20.140  26.208   1.274
23380W        W89789  43.805  32.493   1.997
23381W        W89790  22.194  17.201   0.283
23382W        W89791   9.777  16.384  11.446
23383W        W89792  11.845   3.708  14.891
23384W        W89793  27.164  29.655  11.894
23385W        W89794   3.077  14.620  12.349
23386W        W89795  25.705  40.776   3.686
23387W        W89796   6.156  35.803   4.193
23388W        W89797  40.632   5.669   0.439
23389W        W89798  26.364   0.372  13.966
23390W        W89799   2.334  32.232  14.807
23391W        W89800   5.196  37.091  10.605
23392W        W89801  37.485  28.954   1.971
23393W        W89802  37.968   8.927  12.516
23394W        W89803   4.065  26.599   0.020
23395W        W89804   3.703  20.617  10.828
23396W        W89805   7.097  25.606   5.412
23397W        W89806   9.413  28.260   4.183
23398W        W89807  38.088  28.097   0.744
23399W        W89808  20.545  21.811  11.048
23400W        W89809  22.199  15.599  12.091
23401W        W89810  42.470  15.740  14.850
23402W        W89811  40.601  16.795   1.721
23403W        W89812  25.009   3.693   1.235
23404W        W89813  33.398  23.724  14.416
23405W        W89814  40.516  19.484   0.527
23406W        W89815  24.694  38.080  14.755
23407W        W89816  30.989  43.865  12.546
23408W        W89817  33.339  33.852   2.480
23409W        W89818  20.247  22.509   0.304
23410W        W89819   1.218  42.238   4.114
23411W        W89820  26.352  29.392  12.645
23412W        W89821   2.770  42.758   3.602
23413W        W89822  27.939  42.939   9.524
23414W        W89823  39.565  15.573   3.755
23415W        W89824  28.144  34.026   2.675
23416W        W89825  14.718  44.925  10.739
23417W        W89826  31.616   7.526   0.401
23418W        W89827   5.519  26.198   0.790
23419W        W89828  20.681   1.046   4.324
23420W        W89829  18.926  35.942  11.426
23421W        W89830  18.581  39.004   1.987
23422W        W89831   8.462   0.420   0.731
23423W        W89832  16.278  44.855  13.274
23424W        W89833  27.926  43.879   4.028
23425W        W89834  39.146  17.860  10.753
23426W        W89835   2.337  24.442  14.311
23427W        W89836  31.177  30.278  14.290
23428W        W89837  16.351  44.759   1.520
23429W        W89838  42.894  29.428   4.182
23430W        W89839  40.282   1.895   5.049
23431W        W89840   9.249  26.584  11.130
23432W        W89841  30.099  25.519   2.700
23433W        W89842  37.846  10.574   2.844
23434W        W89843  11.345  44.994   5.039
23435W        W89844  11.195  12.507   1.948
23436W        W89845  17.986  24.553   1.352
23437W        W89846  31.597   1.278  11.610
23438W        W89847   9.868  35.982  14.399
23439W        W89848  26.133   8.133   0.318
23440W        W89849   2.377  35.633  14.334
23441W        W89850   8.716   2.219   2.382
23442W        W89851  24.969  32.000  10.732
23443W        W89852  12.386   9.829   4.168
23444W        W89853   0.100  10.787   1.441
23445W        W89854   0.386  43.236   1.689
23446W        W89855  20.587  23.441  10.953
23447W        W89856  10.578  38.356  14.962
23448W        W89857  14.290  15.178  13.265
23449W        W89858   8.152  10.678   1.851
23450W        W89859  20.778  25.290  13.273
23451W        W89860  35.370  26.345  10.764
23452W        W89861  13.284   4.225  10.585
23453W        W89862  25.945  35.383  10.672
23454W        W89863  38.178  22.069   2.886
23455W        W89864  32.343  41.410  13.360
23456W        W89865  40.041  23.111  11.186
23457W        W89866  11.758  38.386   2.353
23458W        W89867   8.191  21.017  11.290
23459W        W89868  37.434  32.414  13.586
23460W        W89869   4.298   1.268   4.018
23461W        W89870  34.596   2.708  14.400
23462W        W89871  28.136  12.173   1.350
23463W        W89872   3.229   0.904   3.191
23464W        W89873  26.507  42.171  11.811
23465W        W89874  36.023  36.998   1.418
23466W        W89875  29.077  37.503  14.099
23467W        W89876  18.649  14.283  13.825
23468W        W89877  33.417  37.500  10.757
23469W        W89878  20.179  43.809  14.936
23470W        W89879  32.428  34.660  11.355
23471W        W89880  37.634   8.616   2.948
23472W        W89881   9.700  27.577  14.982
23473W        W89882  29.986  20.739  14.608
23474W        W89883   9.387  20.034   3.703
23475W        W89884  18.781   5.034  11.198
23476W        W89885  15.793   4.663  14.142
23477W        W89886  20.418  32.676  11.924
23478W        W89887  25.710  19.211  10.210
23479W        W89888  17.121  37.938  13.584
23480W        W89889  17.065  44.529  10.102
23481W        W89890   9.316  22.139   0.758
23482W        W89891  19.577  12.809  12.133
23483W        W89892   5.517   8.240  13.990
23484W        W89893  35.318   9.165  11.062
23485W        W89894  36.491  28.231  10.590
23486W        W89895  23.137  29.624   1.878
23487W        W89896  41.789  33.489  10.809
23488W        W89897   0.438   9.340   3.662
23489W        W89898  20.067  38.037   4.234
23490W        W89899   5.278  41.059   4.870
23491W        W89900  25.661  33.551  14.200
23492W        W89901  42.385  14.606  10.633
23493W        W89902  19.683  39.282  12.547
23494W        W89903  42.031   5.996   4.732
23495W        W89904   5.462  29.706   0.166
23496W        W89905  12.771   3.671   0.828
23497W        W89906  42.562  23.301  12.878
23498W        W89907  28.439  39.488   2.623
23499W        W89908  24.162  19.159  12.515
23500W        W89909  24.276  28.912  10.301
23501W        W89910  36.245  41.833   1.387
23502W        W89911  25.557  29.249  10.541
23503W        W89912  35.304  21.598  11.540
23504W        W89913  16.700  20.093  12.081
23505W        W89914   6.189  17.815   0.850
23506W        W89915  44.998   1.783   3.187
23507W        W89916  36.978   6.224  13.342
23508W        W89917  27.205  32.091  12.503
23509W        W89918  28.172  43.874  11.567
23510W        W89919  21.736  26.960   3.569
23511W        W89920   2.453  12.766   2.917
23512W        W89921   9.684   2.373   4.094
23513W        W89922  29.735  24.134  10.239
23514W        W89923  43.636  23.862   1.995
23515W        W89924  39.307  38.448  12.461
23516W        W89925  11.397   9.728   4.187
23517W        W89926  23.333  41.751   0.947
23518W        W89927  22.081  26.765  12.347
23519W        W89928  13.991  43.346   0.406
23520W        W89929  23.036  21.810   4.437
23521W        W89930  43.779  17.606   2.234
23522W        W89931   8.428   7.924   4.828
23523W        W89932  30.183  43.218   4.193
23524W        W89933  41.963   5.344   2.575
23525W        W89934  21.964   5.870   2.263
23526W        W89935   2.832  11.547  13.527
23527W        W89936  36.391   9.456   4.297
23528W        W89937  42.538  15.321   3.852
23529W        W89938  29.556  41.364  13.894
23530W        W89939   7.225  31.055  13.456
23531W        W89940   8.304  30.908   0.245
23532W        W89941   8.278   3.146  11.819
23533W        W89942  23.140  26.349   5.125
23534W        W89943   7.820  19.968  11.663
23535W        W89944   6.294  37.530  13.434
23536W        W89945  11.718  24.257  13.469
23537W        W89946   7.119  44.391  13.046
23538W        W89947  39.101  36.260  14.848
23539W        W89948  34.087  19.215  12.965
23540W        W89949  29.959  37.725   1.374
23541W        W89950  44.758  31.698   3.624
23542W        W89951  17.186   3.604   0.957
23543W        W89952   4.662  23.266  12.961
23544W        W89953  23.589  32.928   3.785
23545W        W89954  44.477   5.905  13.451
23546W        W89955  40.214  27.154  13.282
23547W        W89956   2.243  38.627   2.244
23548W        W89957  42.681   8.350  13.785
23549W        W89958   1.144  31.577   0.213
23550W        W89959  44.888  34.938   2.901
23551W        W89960  11.605  12.212  10.244
23552W        W89961  31.298  32.887  14.880
23553W        W89962  39.975  12.278  12.462
23554W        W89963   3.390  24.727  13.338
23555W        W89964   6.657  29.038  13.337
23556W        W89965  36.530  35.057   0.229
23557W        W89966  10.586   7.969   0.919
23558W        W89967  40.747  17.682   2.643
23559W        W89968  17.232  33.305  13.400
23560W        W89969  21.370  39.012  11.173
23561W        W89970   3.966  39.888   3.695
23562W        W89971  19.163  37.168   0.769
23563W        W89972  41.409   9.762  12.247
23564W        W89973  40.236   2.407  11.701
23565W        W89974  38.895  24.729  13.476
23566W        W89975  38.043  12.072   1.973
23567W        W89976  21.687  30.048  13.912
23568W        W89977  40.193  18.142  12.377
23569W        W89978  38.469   8.315  11.631
23570W        W89979  23.030  35.810   2.575
23571W        W89980   0.846   1.357   2.294
23572W        W89981  26.731  27.720  11.661
23573W        W89982  29.890  25.032  13.599
23574W        W89983  41.331  32.419  13.384
23575W        W89984  42.668  16.072  12.339
23576W        W89985  28.582  40.423   4.272
23577W        W89986  18.654  33.697   1.820
23578W        W89987   6.006  35.609   4.684
23579W        W89988  31.088  26.515   2.382
23580W        W89989  23.693   1.478   2.880
23581W        W89990  41.093  15.930  10.763
23582W        W89991  13.212  16.176  11.617
23583W        W89992  16.625  40.847  13.331
23584W        W89993  39.027  44.514   2.408
23585W        W89994  12.495  13.663   1.138
23586W        W89995  42.284  21.464   3.303
23587W        W89996  22.991  37.970  10.850
23588W        W89997  30.873  19.149  12.746
23589W        W89998  35.073  31.731   0.869
23590W        W89999  20.012  44.333  14.997
23591W        W90000  21.147  30.498   3.569
23592W        W90001   7.726  15.606  12.556
23593W        W90002  41.064   2.176   4.707
23594W        W90003   9.626  26.237  11.222
23595W        W90004  32.444  29.955   3.813
23596W        W90005   7.706   5.581   0.664
23597W        W90006  10.688  22.063  11.073
23598W        W90007  10.550  23.785  12.007
23599W        W90008  43.791  22.027  12.457
23600W        W90009   9.939  44.278   2.392
23601W        W90010  37.862  33.807   4.268
23602W        W90011  12.557  34.198  11.962
23603W        W90012   7.488  13.719   1.837
23604W        W90013  28.528  20.250  10.924
23605W        W90014  39.879   4.307   0.356
23606W        W90015  41.274  32.366   4.604
23607W        W90016  31.171  20.788  14.298
23608W        W90017  34.170  14.829  12.248
23609W        W90018  31.449  22.030   2.313
23610W        W90019  13.837   9.848  13.417
23611W        W90020  34.237  27.770   4.146
23612W        W90021  10.294  28.016   1.645
23613W        W90022   4.414  23.168   0.019
23614W        W90023  36.421  21.104   1.989
23615W        W90024  43.917  24.231   1.746
23616W        W90025  35.122  34.961   3.131
23617W        W90026  20.767  39.916  14.495
23618W        W90027  27.271  21.127  12.166
23619W        W90028  23.546   8.715  14.366
23620W        W90029  13.153   7.655   2.351
23621W        W90030  23.167  40.910   4.235
23622W        W90031   5.885  11.186  13.401
23623W        W90032   5.777  40.581   2.387
23624W        W90033  42.746  33.421  10.368
23625W        W90034  33.070  13.191   3.191
23626W        W90035  30.472  40.104  12.185
23627W        W90036  14.621  11.384   0.527
23628W        W90037   3.272  21.767  13.143
23629W        W90038   0.794   8.765   4.097
23630W        W90039  44.816  32.511   4.666
23631W        W90040  10.702  13.404   3.991
23632W        W90041  34.327   8.942   3.244
23633W        W90042  30.999   1.267   0.499
23634W        W90043  13.224  25.176   1.774
23635W        W90044   5.892  39.844   1.331
23636W        W90045  10.873  30.531   9.809
23637W        W90046  19.644  39.902   4.738
23638W        W90047  18.688   7.149   4.270
23639W        W90048  28.457  22.872   4.566
23640W        W90049  11.472  21.929   2.224
23641W        W90050  34.896  25.483   3.312
23642W        W90051  44.512   7.751   2.114
23643W        W90052  26.075  39.043   1.194
23644W        W90053  12.734   9.889  14.322
23645W        W90054  20.130   5.685  11.725
23646W        W90055  15.854  27.979  12.473
23647W        W90056  44.176   6.950   0.066
23648W        W90057  17.028   2.749  13.484
23649W        W90058  14.587  40.026  14.930
23650W        W90059  36.538  25.947  12.468
23651W        W90060   9.270   1.371   2.981
23652W        W90061  37.852  26.234  11.099
23653W        W90062  38.762  14.885   0.507
23654W        W90063  25.483  20.224   0.000
23655W        W90064  30.433  33.009  14.511
23656W        W90065  35.616   3.485  14.094
23657W        W90066  29.961  22.981   3.691
23658W        W90067  31.869  34.706  14.378
23659W        W90068  12.279   3.807   0.735
23660W        W90069  11.200   4.632   0.280
23661W        W90070  17.270  34.158  12.138
23662W        W90071  39.163  23.749   4.465
23663W        W90072  10.623   4.181   2.980
23664W        W90073   4.223   8.458   0.452
23665W        W90074   5.817   3.322  14.991
23666W        W90075  14.434  23.668   2.956
23667W        W90076  41.510  25.968   2.888
23668W        W90077  20.490   5.843   4.146
23669W        W90078   7.087  31.856   3.712
23670W        W90079  19.668  42.353  10.840
23671W        W90080  35.723  22.077   4.102
23672W        W90081  37.081  15.109   0.762
23673W        W90082   2.824   4.384  11.607
23674W        W90083  40.753  21.636   4.099
23675W        W90084  39.948  14.550   3.326
23676W        W90085  14.757  40.813  11.660
23677W        W90086   9.351  12.185  13.462
23678W        W90087   5.165  43.272  14.745
23679W        W90088  19.735  22.680  14.799
23680W        W90089  43.170  34.137  11.841
23681W        W90090  25.985  25.754   5.390
23682W        W90091  18.371  25.291  14.400
23683W        W90092  37.786  15.347  10.747
23684W        W90093  33.827  37.823  11.144
23685W        W90094  19.129  21.249  14.976
23686W        W90095  37.429  26.994  10.943
23687W        W90096   8.889  43.537  12.304
23688W        W90097  41.346   6.986   3.467
23689W        W90098   6.461   3.421  12.797
23690W        W90099   1.239  11.887  11.948
23691W        W90100  39.371  11.347   0.764
23692W        W90101  11.732   3.969  13.445
23693W        W90102  35.324  42.438  14.851
23694W        W90103  11.287  28.481  12.035
23695W        W90104  15.078  17.035  12.312
23696W        W90105  26.667  21.621   0.898
23697W        W90106  10.364  41.962  14.336
23698W        W90107  44.814  12.823   5.014
23699W        W90108  41.453  25.242   1.416
23700W        W90109  13.643   3.166   0.891
23701W        W90110  32.440  13.801  10.543
23702W        W90111  41.513  18.663  14.451
23703W        W90112  26.573  33.529  14.697
23704W        W90113  16.846   1.641   1.724
23705W        W90114   1.432  43.354  12.289
23706W        W90115  34.636  37.126  14.822
23707W        W90116  11.152  26.053  10.703
23708W        W90117   1.832   1.773  13.061
23709W        W90118  39.724  15.998  11.916
23710W        W90119  43.591  42.099  13.932
23711W        W90120  40.462  42.009   1.947
23712W        W90121   2.240  11.420   3.300
23713W        W90122  23.107  30.061   0.569
23714W        W90123   9.664  14.121  12.971
23715W        W90124  19.689  19.706   3.546
23716W        W90125  36.699  29.075   4.224
23717W        W90126  21.175   0.552   3.809
23718W        W90127  17.722  37.550   0.035
23719W        W90128  18.503  42.990   4.313
23720W        W90129  35.641  11.420  11.930
23721W        W90130  15.434  43.434  14.476
23722W        W90131  12.279  29.546  11.161
23723W        W90132   7.596  33.517   0.194
23724W        W90133  31.527  26.225  12.039
23725W        W90134  25.999  15.763  14.022
23726W        W90135  10.222  11.527   4.477
23727W        W90136  32.541  29.053  10.679
23728W        W90137   3.569  23.099   3.686
23729W        W90138  35.423   0.878  11.635
23730W        W90139  21.738  18.713   1.908
23731W        W90140  33.577   2.231   0.979
23732W        W90141  22.027  35.981   4.154
23733W        W90142  17.159   1.850  11.247
23734W        W90143  41.191  18.204  10.435
23735W        W90144   7.599  15.375   1.946
23736W        W90145  25.330  10.857  10.627
23737W        W90146  25.307   7.190  14.018
23738W        W90147   1.001  44.453   1.769
23739W        W90148  18.536  42.620  12.907
23740W        W90149  32.678   9.731  11.968
23741W        W90150   0.501   4.700   4.301
23742W        W90151  26.937  13.360   2.314
23743W        W90152  42.050  36.273  14.045
23744W        W90153  33.091   0.177  12.866
23745W        W90154  28.432   7.275  10.651
23746W        W90155   3.365  29.047  12.383
23747W        W90156  39.026  31.112   2.733
23748W        W90157  24.542  10.335   4.298
23749W        W90158  21.067  24.949   3.713
23750W        W90159  16.582  14.607  13.705
23751W        W90160  13.086  36.897  13.037
23752W        W90161   5.328  20.280   0.410
23753W        W90162  39.855  30.910   3.860
23754W        W90163   2.900  17.170  10.628
23755W        W90164  25.110  26.064  14.791
23756W        W90165  34.106  24.641  11.205
23757W        W90166  33.260   1.096  11.209
23758W        W90167  38.500  34.151  12.545
23759W        W90168   6.701  38.215   4.839
23760W        W90169  26.191  43.198   0.278
23761W        W90170  15.691  17.705  13.835
23762W        W90171  25.326   6.250  12.493
23763W        W90172  12.695   8.191   4.376
23764W        W90173  32.077  28.006  14.037
23765W        W90174  13.310  33.551   5.105
23766W        W90175  34.616  23.370  10.823
23767W        W90176   4.184   3.021   3.794
23768W        W90177  40.450  23.233  14.743
23769W        W90178  22.489  16.622   0.868
23770W        W90179  42.845   0.925  14.790
23771W        W90180  34.131  11.802   0.291
23772W        W90181  27.662  14.611   0.090
23773W        W90182  25.365  12.087  14.275
23774W        W90183   6.183   9.996  11.986
23775W        W90184   2.449  37.515  13.657
23776W        W90185  21.195  31.157   2.220
23777W        W90186  26.791  22.513  11.611
23778W        W90187  44.465   1.914   2.055
23779W        W90188  43.087  17.812  12.025
23780W        W90189  40.209  32.869   5.102
23781W        W90190  29.304   2.428   3.158
23782W        W90191  12.049  10.092   4.612
23783W        W90192  20.567   1.736   1.988
23784W        W90193  25.082  13.677   1.440
23785W        W90194   5.410  13.829  12.163
23786W        W90195   8.651  21.273  11.390
23787W        W90196  14.245  27.603   4.790
23788W        W90197  30.937  13.627   4.448
23789W        W90198  25.958  19.703   0.560
23790W        W90199  14.359  42.285   1.091
23791W        W90200  16.100  10.431   0.937
23792W        W90201   1.853  27.650   0.284
23793W        W90202  33.825  42.072  13.287
23794W        W90203  27.550  19.316  11.053
23795W        W90204   7.505  38.370  10.510
23796W        W90205  35.230  40.856   3.192
23797W        W90206  43.016  31.547   4.183
23798W        W90207   3.932  13.542   4.462
23799W        W90208  41.481  29.691  14.755
23800W        W90209   2.532  34.132   0.404
23801W        W90210  25.707   1.224  14.543
23802W        W90211   5.127  23.245   1.977
23803W        W90212  16.511   2.053  14.389
23804W        W90213  15.766  35.270  13.542
23805W        W90214  14.270  41.079  11.515
23806W        W90215  34.566  33.468  13.350
23807W        W90216  43.768  13.721  14.051
23808W        W90217   3.808  37.269   2.651
23809W        W90218  25.565  35.134   1.702
23810W        W90219  20.112  42.549   2.549
23811W        W90220  22.416  25.501  13.976
23812W        W90221  29.892   7.962   1.359
23813W        W90222  25.653   6.159   4.626
23814W        W90223  12.397  41.347  10.632
23815W        W90224  32.045   4.575   4.128
23816W        W90225  18.313  34.592  11.035
23817W        W90226   9.456  38.465   0.318
23818W        W90227   3.276  44.080   3.684
23819W        W90228  23.243  11.243  12.924
23820W        W90229  21.315  24.462   3.745
23821W        W90230  23.945  41.831   2.484
23822W        W90231  15.118  30.475   4.670
23823W        W90232  32.705  41.850   2.004
23824W        W90233  26.111  24.136  12.534
23825W        W90234   7.398  11.195  13.485
23826W        W90235   2.014  21.202   3.833
23827W        W90236  33.815   9.899   0.075
23828W        W90237   8.992  10.832   2.401
23829W        W90238  29.062  43.704   3.164
23830W        W90239  25.430  25.033  11.520
23831W        W90240  27.321  29.332   2.174
23832W        W90241  37.352  32.045  12.606
23833W        W90242   7.579  23.589   3.861
23834W        W90243   3.374  23.538   4.611
23835W        W90244  31.706  24.384   5.005
23836W        W90245  32.563  34.892  14.991
23837W        W90246   5.811   9.403   1.413
23838W        W90247  24.901   0.825   3.173
23839W        W90248  32.874  34.827  11.197
23840W        W90249  32.569   8.520  12.025
23841W        W90250  33.575  26.153   4.827
23842W        W90251   5.236  17.211   0.485
23843W        W90252  31.516  15.289   4.770
23844W        W90253  16.637  40.988   2.052
23845W        W90254   8.891  15.413   0.022
23846W        W90255   2.712  33.667  11.211
23847W        W90256  29.821  36.721  12.165
23848W        W90257   3.477  40.307  12.226
23849W        W90258  40.815   1.488   2.750
23850W        W90259  10.074  39.361   4.723
23851W        W90260  38.246  14.206   3.255
23852W        W90261  18.935  42.319   4.997
23853W        W90262  22.583  25.985  14.840
23854W        W90263  23.293  28.225  11.048
23855W        W90264   5.221  21.697  13.671
23856W        W90265  38.232  12.245   2.431
23857W        W90266  15.065  14.828   4.097
23858W        W90267   4.756  26.213  12.544
23859W        W90268   4.883  20.226   2.302
23860W        W90269  38.243  15.628  12.400
23861W        W90270  42.550   5.164   4.682
23862W        W90271  33.298   3.704  13.384
23863W        W90272  41.987  24.341  11.586
23864W        W90273   0.821  28.562  13.331
23865W        W90274  36.032  22.040   1.264
23866W        W90275  15.242  16.310  10.609
23867W        W90276  10.389   9.778   2.717
23868W        W90277  40.082  32.719   1.939
23869W        W90278  16.070  39.811   4.036
23870W        W90279  21.435  14.090  12.592
23871W        W90280  30.661   0.479   1.970
23872W        W90281   9.811  14.281   0.033
23873W        W90282  36.986  10.847   1.235
23874W        W90283  17.274   1.699   1.152
23875W        W90284  23.544  15.153   0.925
23876W        W90285   9.594  16.858   1.181
23877W        W90286   6.848  31.688   1.387
23878W        W90287  15.384  14.975  12.811
23879W        W90288  35.954   2.065  11.223
23880W        W90289  44.960  25.711  11.638
23881W        W90290  29.130  41.145   4.001
23882W        W90291  11.301  24.010   0.767
23883W        W90292  36.844  38.588   0.767
23884W        W90293   0.536   4.274  12.044
23885W        W90294  33.081  11.501  13.368
23886W        W90295  11.830   6.298  10.677
23887W        W90296  15.160  31.749   4.039
23888W        W90297  15.193  42.255  10.669
23889W        W90298  11.337   8.840  12.560
23890W        W90299  25.189  37.831   3.844
23891W        W90300  43.988   5.003  10.322
23892W        W90301  26.173  15.596   2.002
23893W        W90302  15.858  35.481  11.983
23894W        W90303  44.935   2.778  12.619
23895W        W90304  37.460   2.023   0.294
23896W        W90305  10.658  15.699   0.728
23897W        W90306  18.736  37.376  10.626
23898W        W90307   3.739   3.731   4.159
23899W        W90308  42.251  43.258  14.815
23900W        W90309   4.767  37.104  11.921
23901W        W90310  18.997  22.545  12.108
23902W        W90311  25.368  35.782  13.919
23903W        W90312  11.110   1.229   1.854
23904W        W90313  13.769   4.643   2.667
23905W        W90314  20.109  23.123  12.496
23906W        W90315  19.646  13.261   0.845
23907W        W90316  36.589  28.710  14.487
23908W        W90317  18.628  39.490  13.612
23909W        W90318  38.654  32.326  12.950
23910W        W90319  40.015  41.780  11.262
23911W        W90320  25.982  21.855   0.331
23912W        W90321  44.397  43.266  11.103
23913W        W90322  44.636  34.618   0.001
23914W        W90323  14.507  14.122  11.631
23915W        W90324  41.295  24.589  13.174
23916W        W90325   1.814   1.802  10.553
23917W        W90326   6.988  28.590  11.436
23918W        W90327   5.273  36.199  14.011
23919W        W90328  30.235  10.571   0.240
23920W        W90329  17.218  18.853  14.688
23921W        W90330   8.692  11.638  12.324
23922W        W90331  34.982  19.174   1.336
23923W        W90332  26.545  23.073  11.658
23924W        W90333  28.143  11.257   0.682
23925W        W90334  26.070  44.525   2.401
23926W        W90335  31.956  41.531   2.260
23927W        W90336   1.950  34.571  12.604
23928W        W90337  25.184  36.411  13.476
23929W        W90338  25.901   1.408  12.902
23930W        W90339  27.509  24.928  13.350
23931W        W90340   7.683  34.575   1.290
23932W        W90341  11.770  30.119  11.551
23933W        W90342  33.956  10.981  13.436
23934W        W90343  29.763  20.946   4.136
23935W        W90344  36.951  38.854   4.367
23936W        W90345  33.719  32.938   0.435
23937W        W90346  14.359  42.388  13.670
23938W        W90347  14.142  19.027  12.045
23939W        W90348   8.914  39.591   3.283
23940W        W90349  19.894  12.730  12.550
23941W        W90350  40.480  38.788  12.067
23942W        W90351  33.446  22.563  10.685
23943W        W90352  26.828   8.754  11.578
23944W        W90353  27.379   2.150  11.637
23945W        W90354  32.560   4.497  10.791
23946W        W90355  37.308  18.755  13.524
23947W        W90356  34.648  13.054  11.459
23948W        W90357  41.851  22.155   2.688
23949W        W90358  24.196  40.694  14.883
23950W        W90359  25.200  28.739   1.315
23951W        W90360  15.059  25.971  13.259
23952W        W90361  43.992  12.300  13.550
23953W        W90362  28.076   2.388  12.956
23954W        W90363  10.519  39.577   0.331
23955W        W90364  15.370   1.719   4.482
23956W        W90365   8.867   6.946  14.824
23957W        W90366  15.234   6.113  12.018
23958W        W90367  27.429  31.048  14.857
23959W        W90368   9.361  12.213   0.348
23960W        W90369   8.363  22.169   3.034
23961W        W90370   7.359   9.113  11.967
23962W        W90371   6.392   8.749   0.980
23963W        W90372  27.532  25.622   1.776
23964W        W90373  17.433  24.488  11.067
23965W        W90374  43.286  39.792  14.873
23966W        W90375   1.543   5.689   2.545
23967W        W90376  29.457  39.778   1.310
23968W        W90377  28.328  36.318  13.585
23969W        W90378  29.744   1.177   4.905
23970W        W90379  36.844  37.822  14.052
23971W        W90380  26.912  41.368  11.649
23972W        W90381  17.465   0.678  12.813
23973W        W90382  44.742  36.678   2.249
23974W        W90383  11.898  19.998  10.427
23975W        W90384  18.493  30.291   2.201
23976W        W90385   2.814  17.808  14.075
23977W        W90386   7.870  37.991  11.431
23978W        W90387  16.725  25.035  11.619
23979W        W90388   8.769  30.564   1.405
23980W        W90389  43.965  26.635   0.971
23981W        W90390  35.582  31.522  12.605
23982W        W90391  24.569  30.168  14.835
23983W        W90392   4.451  28.400  12.819
23984W        W90393  43.530   8.233  12.287
23985W        W90394  44.027   4.922   0.793
23986W        W90395  15.559   6.794   1.737
23987W        W90396  44.755  34.388   0.457
23988W        W90397  35.090  19.795   2.167
23989W        W90398   6.743  20.560   2.493
23990W        W90399  28.878   5.235   4.588
23991W        W90400  42.449  41.492   2.729
23992W        W90401  28.929  11.651   0.901
23993W        W90402  23.286   3.094   4.046
23994W        W90403  19.097  22.756   2.709
23995W        W90404  18.174  18.503   3.347
23996W        W90405   0.125  22.958  13.488
23997W        W90406  22.069  43.857   0.268
23998W        W90407  11.114  20.362  12.081
23999W        W90408  27.896  24.430  12.494
24000W        W90409  29.034  10.919  11.148
24001W        W90410  36.997  30.619   2.474
24002W        W90411  41.097  44.901   1.454
24003W        W90412  18.841   8.652   2.887
24004W        W90413  17.884  26.543  11.532
24005W        W90414  37.940  44.911   4.279
24006W        W90415   3.726  17.494  13.058
24007W        W90416  34.911  23.612   1.116
24008W        W90417   0.483  40.257   0.458
24009W        W90418   5.720  36.122   2.999
24010W        W90419  41.427  43.861  11.214
24011W        W90420  21.999  20.189   2.550
24012W        W90421  23.996  11.765   0.850
24013W        W90422  39.530  36.919   2.317
24014W        W90423  24.019   7.483  14.918
24015W        W90424  41.995   6.815  11.557
24016W        W90425  11.524  34.560   1.249
24017W        W90426  23.191   3.890  11.208
24018W        W90427  14.387  35.701   4.109
24019W        W90428  42.814  17.298   1.409
24020W        W90429  39.055  42.140   4.313
24021W        W90430  30.220  29.116   2.476
24022W        W90431   2.793   0.724   0.955
24023W        W90432  31.635  11.381  11.066
24024W        W90433  41.923  13.121  14.417
24025W        W90434  32.034   1.407   0.760
24026W        W90435  24.096  36.725   3.599
24027W        W90436  36.567  36.468  13.351
24028W        W90437  37.960   8.814  13.058
24029W        W90438   5.060  32.142  11.533
24030W        W90439  42.815  19.842   1.272
24031W        W90440  24.177  11.654  14.508
24032W        W90441  11.345  33.076   2.826
24033W        W90442  33.155   1.296  13.376
24034W        W90443  28.691  27.981  10.278
24035W        W90444  35.440  16.711  10.676
24036W        W90445   5.029  37.890  13.826
24037W        W90446  25.521  34.511   4.131
24038W        W90447  35.816  23.017  11.888
24039W        W90448  42.539  37.277  13.438
24040W        W90449  34.046   6.519  10.507
24041W        W90450  19.574  38.755   4.352
24042W        W90451   9.717   4.775   0.672
24043W        W90452   1.711  20.332  12.447
24044W        W90453   1.706   8.848   4.144
24045W        W90454   9.583  24.744   0.911
24046W        W90455  30.837   4.301   0.725
24047W        W90456  33.891  23.966   2.812
24048W        W90457  38.962  26.767   1.330
24049W        W90458  32.574   0.100  13.483
24050W        W90459  44.491  44.056   4.483
24051W        W90460  24.528  34.329  14.237
24052W        W90461  18.980   9.680  12.106
24053W        W90462  34.182  41.911   1.926
24054W        W90463   9.295  22.212  12.165
24055W        W90464  25.965   2.431   3.294
24056W        W90465   4.781  38.859  14.455
24057W        W90466  15.149  10.379  10.820
24058W        W90467  35.247  14.792   3.638
24059W        W90468  41.519  32.503  14.223
24060W        W90469  14.761  13.787  10.742
24061W        W90470   7.412  18.576   4.965
24062W        W90471   2.902  17.623  13.335
24063W        W90472   8.768  36.460   1.228
24064W        W90473   6.749  38.000  10.495
24065W        W90474   1.512  24.518  12.661
24066W        W90475  12.499  34.538  10.695
24067W        W90476  21.046  40.105  10.603
24068W        W90477  18.322  10.350   2.332
24069W        W90478  43.393  19.294   2.231
24070W        W90479   6.435  29.845  13.581
24071W        W90480   6.175  12.095  14.731
24072W        W90481  35.273  13.297   4.786
24073W        W90482  31.852   4.940  12.831
24074W        W90483  14.788  37.208  12.226
24075W        W90484  24.557  37.587   2.613
24076W        W90485   3.418  32.667  14.379
24077W        W90486  33.646  37.866  12.583
24078W        W90487   6.134  44.371  14.070
24079W        W90488  37.562  25.537   0.891
24080W        W90489  32.575  34.196  11.485
24081W        W90490  18.215  30.902  11.478
24082W        W90491  33.568  34.453   3.744
24083W        W90492  14.102  26.530   0.247
24084W        W90493  14.573  20.458   1.161
24085W        W90494  25.045  34.338  14.077
24086W        W90495  25.757   6.872   2.071
24087W        W90496  14.268  19.282   0.897
24088W        W90497  39.776  15.199  11.510
24089W        W90498  17.780  28.718   1.488
24090W        W90499  32.426  32.052  14.745
24091W        W90500  43.290  17.840   1.695
24092W        W90501  16.092  11.693  10.613
24093W        W90502  44.209   3.699   2.283
24094W        W90503  37.937  40.666   0.422
24095W        W90504  27.065  37.134   1.937
24096W        W90505  24.084  24.771   1.831
24097W        W90506  31.920  29.438   5.285
24098W        W90507  34.836  36.069  11.035
24099W        W90508  39.980  28.729  10.493
24100W        W90509  15.764   8.622  10.916
24101W        W90510  26.580  33.440   3.204
24102W        W90511  35.307  41.939  12.535
24103W        W90512  34.527  41.998  14.514
24104W        W90513  14.083  28.495  11.628
24105W        W90514   6.865  39.872   4.139
24106W        W90515  34.802  25.542  12.560
24107W        W90516  28.697   1.883   2.347
24108W        W90517  19.827  35.032   4.091
24109W        W90518  11.198  39.035  10.758
24110W        W90519  33.878  26.697  11.913
24111W        W90520  15.822   1.966   1.555
24112W        W90521  37.936  17.019   2.454
24113W        W90522  31.337  21.215  10.642
24114W        W90523   5.186  28.025  11.617
24115W        W90524  38.778  33.546   2.728
24116W        W90525  43.410   0.399  12.800
24117W        W90526  38.687   0.254   2.821
24118W        W90527  19.705  40.871  14.871
24119W        W90528  21.480  41.398  14.798
24120W        W90529  14.329  41.018  13.367
24121W        W90530  25.433  41.673  14.720
24122W        W90531  23.824   9.660  11.638
24123W        W90532  36.624  19.472  14.745
24124W        W90533  39.289  44.475  14.788
24125W        W90534  14.841   6.775  11.626
24126W        W90535  16.482  22.145  12.888
24127W        W90536   8.282   6.242   1.001
24128W        W90537  16.988  17.710  11.707
24129W        W90538  36.816  32.494   3.111
24130W        W90539   6.231   1.879   3.197
24131W        W90540  20.759  31.559  12.892
24132W        W90541   8.990  17.532   0.723
24133W        W90542  23.135  10.464   4.699
24134W        W90543  21.200  36.715  11.006
24135W        W90544   8.218   0.878   5.000
24136W        W90545  38.458  19.451  12.448
24137W        W90546  39.521   6.687   0.348
24138W        W90547  34.113  33.237   4.687
24139W        W90548   6.183   5.830  14.408
24140W        W90549  13.430   3.060   2.238
24141W        W90550  18.187  35.645  11.107
24142W        W90551   5.216  38.158   2.410
24143W        W90552  26.985  17.748   1.946
24144W        W90553  29.242   4.768  11.422
24145W        W90554   8.250  15.819   3.880
24146W        W90555  43.791  34.392  10.612
24147W        W90556  12.067  26.015  10.991
24148W        W90557  23.474   5.880  10.858
24149W        W90558   9.427   8.296   0.364
24150W        W90559  12.422  10.792   3.286
24151W        W90560  31.161  24.178   2.268
24152W        W90561  29.198  17.135  12.899
24153W        W90562  26.527  10.269   3.533
24154W        W90563   9.465  11.597  11.171
24155W        W90564   2.753   3.310  10.464
24156W        W90565  10.426  20.949   4.087
24157W        W90566   1.240  27.206   0.756
24158W        W90567  14.121   1.247  13.511
24159W        W90568  34.422  19.113   2.338
24160W        W90569   7.701  41.286  14.815
24161W        W90570  24.035   5.861  10.125
24162W        W90571   9.463   6.759  11.222
24163W        W90572  41.325   4.951   2.315
24164W        W90573  27.163  10.185  13.124
24165W        W90574  29.064  22.216   3.902
24166W        W90575   2.213   7.183   4.564
24167W        W90576  44.353  41.210   3.772
24168W        W90577  10.755  31.340   0.241
24169W        W90578  20.512  35.429  13.460
24170W        W90579  16.779  26.456  10.743
24171W        W90580  35.755  38.819  11.098
24172W        W90581  34.715  41.181  14.897
24173W        W90582   9.854  30.379  11.671
24174W        W90583  40.045  39.314  13.390
24175W        W90584  42.806  14.399  13.809
24176W        W90585   0.835   1.331  13.591
24177W        W90586   3.387  31.445  12.945
24178W        W90587  23.150  42.377   2.931
24179W        W90588  10.149  26.521   2.238
24180W        W90589   6.040  28.630   5.509
24181W        W90590  30.584   4.773  11.649
24182W        W90591  18.094  28.986   0.930
24183W        W90592  30.021   6.927  12.054
24184W        W90593  30.968   2.155  12.054
24185W        W90594  18.054  37.329   4.445
24186W        W90595  42.415  35.877  12.202
24187W        W90596  23.224  43.555  13.421
24188W        W90597  14.232  24.634  13.013
24189W        W90598  42.858   3.100   1.636
24190W        W90599   7.195  35.054  10.518
24191W        W90600   2.659  30.945  11.485
24192W        W90601   9.403  15.957  13.947
24193W        W90602   3.445  24.008   2.869
24194W        W90603  24.686  16.149  12.462
24195W        W90604  23.101  20.745  11.403
24196W        W90605  11.835  24.663   0.691
24197W        W90606  36.146  14.036  13.979
24198W        W90607  31.572   0.440   4.596
24199W        W90608  38.388  30.245   4.929
24200W        W90609  24.958  43.458   4.635
24201W        W90610   0.671  19.029  12.007
24202W        W90611  33.757  38.877  13.870
24203W        W90612  40.440  18.337  11.380
24204W        W90613  29.366   6.273   0.047
24205W        W90614  23.900  10.065   2.881
24206W        W90615   3.747   8.688  12.894
24207W        W90616  15.311  32.565  12.512
24208W        W90617  25.746  36.425   3.824
24209W        W90618  13.565   8.858  13.580
24210W        W90619   7.495  38.336  14.026
24211W        W90620  42.032  18.733   4.479
24212W        W90621   4.705  24.985   3.688
24213W        W90622  32.969  34.840  11.962
24214W        W90623  11.473  29.364   2.350
24215W        W90624  18.302  21.673   3.758
24216W        W90625  11.063  36.169  14.010
24217W        W90626  19.661  39.731   2.652
24218W        W90627  13.431   8.653   1.375
24219W        W90628  39.493  41.758   2.337
24220W        W90629  10.301  27.040   1.272
24221W        W90630  24.689  42.736   1.050
24222W        W90631  25.634  11.865  10.452
24223W        W90632  20.674  37.458   5.295
24224W        W90633  17.610  28.616  11.302
24225W        W90634   9.678   2.887  13.594
24226W        W90635   1.261  26.319  12.961
24227W        W90636  17.636   0.627   3.179
24228W        W90637  27.146  10.999   4.971
24229W        W90638  38.853   0.887   1.298
24230W        W90639  35.958   5.771   2.163
24231W        W90640   6.236  10.391  12.322
24232W        W90641   4.970  23.026  14.211
24233W        W90642  38.298  13.787   1.962
24234W        W90643  34.461  40.759   2.281
24235W        W90644  43.876   9.658  13.992
24236W        W90645  40.931   2.471  12.233
24237W        W90646   6.233  10.658  14.751
24238W        W90647  14.745  12.590  12.893
24239W        W90648   1.903  37.769  14.804
24240W        W90649  16.499  31.200  11.130
24241W        W90650  24.182  19.992  11.845
24242W        W90651   3.260   0.125  14.559
24243W        W90652  25.071  23.764   0.781
24244W        W90653   4.864  18.715  13.926
24245W        W90654  37.685  12.850   2.503
24246W        W90655  39.488  38.370   4.533
24247W        W90656   3.632  41.648  13.492
24248W        W90657   7.342  33.621   2.250
24249W        W90658   7.871  19.367  14.661
24250W        W90659  37.566  40.933   1.721
24251W        W90660   5.358  35.117   4.487
24252W        W90661  12.725   7.777  11.086
24253W        W90662  32.433   5.701   1.883
24254W        W90663  20.018  36.446   3.129
24255W        W90664   2.763  31.958  11.156
24256W        W90665  25.964  13.836   0.327
24257W        W90666  27.325  13.625   1.322
24258W        W90667  36.435  35.943   2.238
24259W        W90668   9.514  20.609   1.036
24260W        W90669  17.065  23.535   3.211
24261W        W90670  29.362  10.211   4.933
24262W        W90671  28.676   8.902   1.427
24263W        W90672  30.642  31.940  11.506
24264W        W90673  19.587  16.557   4.335
24265W        W90674  18.581  27.066   0.609
24266W        W90675  14.300  23.534   4.440
24267W        W90676  13.647  30.571  14.694
24268W        W90677   0.874  12.214  13.842
24269W        W90678  22.734   4.704   0.852
24270W        W90679  43.946  33.890  10.426
24271W        W90680  29.208  10.739  12.662
24272W        W90681   2.425  41.322   1.739
24273W        W90682  38.214   3.764   3.666
24274W        W90683  41.702  25.525  12.606
24275W        W90684  29.952  20.473   2.798
24276W        W90685  33.232  32.893  12.081
24277W        W90686  21.349   3.448   1.537
24278W        W90687  17.778  28.006   4.782
24279W        W90688   8.947  20.722   3.310
24280W        W90689  42.014  11.253  14.071
24281W        W90690   8.672  12.785  14.349
24282W        W90691  38.852  25.950   3.122
24283W        W90692  27.577  10.370   5.463
24284W        W90693  38.626  10.981  11.890
24285W        W90694  11.235  28.738  11.187
24286W        W90695  33.331  29.269   1.760
24287W        W90696  13.075  34.785  14.177
24288W        W90697  44.405  36.225   0.517
24289W        W90698  37.404   3.068  13.740
24290W        W90699  35.465  33.120   0.977
24291W        W90700   0.956  10.592  14.462
24292W        W90701  35.156  24.590   2.738
24293W        W90702  22.720  11.936  10.702
24294W        W90703  43.116  23.091   0.981
24295W        W90704  21.906  33.323  10.350
24296W        W90705  39.500  38.051  11.094
24297W        W90706  28.449  35.026  14.419
24298W        W90707  37.426  18.002  12.165
24299W        W90708  39.925  10.139  13.096
24300W        W90709  32.276  14.846  14.788
24301W        W90710  11.762   6.819   2.000
24302W        W90711  25.586   2.792  11.277
24303W        W90712  40.080  11.484  12.808
24304W        W90713   1.843  44.466  10.774
24305W        W90714  17.679   6.274   0.486
24306W        W90715  30.928  30.136   4.559
24307W        W90716  44.478  40.218  13.118
24308W        W90717  18.153  38.536  11.623
24309W        W90718  36.393  25.670   3.936
24310W        W90719  40.253  15.077   0.210
24311W        W90720  13.466  40.274  10.622
24312W        W90721  43.511  11.786   4.148
24313W        W90722  38.926  18.587   3.142
24314W        W90723  43.985  30.617  13.433
24315W        W90724  23.070  14.311  13.403
24316W        W90725  33.048  21.061   5.180
24317W        W90726   3.798   8.429  14.665
24318W        W90727   8.432  31.837   3.232
24319W        W90728  33.421   5.149  11.609
24320W        W90729  39.397  20.834  11.086
24321W        W90730  32.031  38.510   2.652
24322W        W90731  33.179  35.969   0.407
24323W        W90732   3.289  31.678   4.330
24324W        W90733  10.707  10.358   4.026
24325W        W90734  19.315  42.626   4.676
24326W        W90735   8.501   4.416   0.927
24327W        W90736  40.915  22.029  10.518
24328W        W90737   0.534   4.691   1.349
24329W        W90738  40.423   4.453   4.824
24330W        W90739  13.404  15.187  11.564
24331W        W90740  44.080   7.069   4.740
24332W        W90741  13.370  16.054   2.315
24333W        W90742  12.136  14.857  11.506
24334W        W90743  27.785  28.255  11.121
24335W        W90744   2.679   9.020   3.795
24336W        W90745  39.355  30.614   4.477
24337W        W90746   6.213  31.398   0.628
24338W        W90747   0.920  17.234   3.761
24339W        W90748  43.321  26.089   1.624
24340W        W90749   4.822  18.796   0.808
24341W        W90750  40.364  39.944   4.005
24342W        W90751  28.024  23.433   2.906
24343W        W90752  10.281  41.896   0.678
24344W        W90753  25.943  10.253   2.849
24345W        W90754  39.078   5.744  10.388
24346W        W90755  28.224  28.421  12.823
24347W        W90756  43.125   3.999  13.994
24348W        W90757  16.828  35.895   3.145
24349W        W90758  28.038  21.251  10.252
24350W        W90759  43.615  26.640   0.164
24351W        W90760  28.681  16.710  14.053
24352W        W90761  38.458  26.196   1.765
24353W        W90762   2.026  23.064  13.859
24354W        W90763  34.844  14.837  12.607
24355W        W90764   8.451  19.857   4.619
24356W        W90765   3.774  20.014   3.758
24357W        W90766   0.822  14.616  11.075
24358W        W90767  24.296   9.262   4.524
24359W        W90768  20.690  21.851   2.700
24360W        W90769  22.063  13.227  13.050
24361W        W90770  24.015  40.986  13.894
24362W        W90771   5.167  40.887  11.569
24363W        W90772  24.239  35.792  12.554
24364W        W90773  15.820  44.292  12.029
24365W        W90774  33.124   5.724  13.236
24366W        W90775   2.199  25.120  14.205
24367W        W90776  22.675  28.962  14.850
24368W        W90777  44.976  29.197   2.338
24369W        W90778  18.058  12.729  12.808
24370W        W90779  30.561  31.919  13.858
24371W        W90780  20.824   1.036  12.893
24372W        W90781  42.844  11.329  14.999
24373W        W90782  32.350  19.193  12.229
24374W        W90783  39.100  39.084  14.226
24375W        W90784  34.416   2.384   5.056
24376W        W90785  42.830   0.699   0.257
24377W        W90786   3.721  36.731   2.780
24378W        W90787  25.250   7.645  10.245
24379W        W90788  21.279  13.476  10.489
24380W        W90789   1.410   0.590   1.916
24381W        W90790  33.346  40.750  13.961
24382W        W90791  24.378  25.007   3.233
24383W        W90792  31.033  12.463  12.060
24384W        W90793  32.245  12.177  10.761
24385W        W90794  26.315  32.008  13.350
24386W        W90795  41.473  20.305   0.007
24387W        W90796  39.897  20.238  13.555
24388W        W90797  33.516  20.328  14.703
24389W        W90798  12.234  35.891   3.185
24390W        W90799   6.613  40.196   1.883
24391W        W90800  32.958  44.332   2.452
24392W        W90801  12.823  33.687  12.785
24393W        W90802  43.710  40.419   0.809
24394W        W90803  43.510  36.938  14.324
24395W        W90804  23.948  14.565  12.956
24396W        W90805   1.384  43.853   0.909
24397W        W90806   2.318  25.750  13.765
24398W        W90807  30.156   4.298  13.505
24399W        W90808  36.940  30.728   1.971
24400W        W90809  40.100  20.845   4.565
24401W        W90810  11.183  34.204   1.445
24402W        W90811  41.720   1.935  14.818
24403W        W90812  14.848   2.778  13.290
24404W        W90813   7.691   9.568   3.674
24405W        W90814  44.304  15.728  11.176
24406W        W90815   3.454  28.578  11.250
24407W        W90816  40.041  37.382   9.878
24408W        W90817  12.600  44.360   4.541
24409W        W90818  39.901  42.653   4.082
24410W        W90819   0.702  27.903   1.639
24411W        W90820  12.940  43.670  14.976
24412W        W90821  29.305  43.447   3.853
24413W        W90822  12.401   1.246  12.594
24414W        W90823  17.810   8.249  14.800
24415W        W90824   6.960   0.448  12.903
24416W        W90825  30.073  34.137   3.940
24417W        W90826  28.760  12.834  13.926
24418W        W90827  21.184  13.982   1.589
24419W        W90828  37.311  44.927   0.418
24420W        W90829   0.818  29.895   1.766
24421W        W90830  37.452   2.456   2.097
24422W        W90831  41.367  21.560   1.775
24423W        W90832   4.007  32.010   0.451
24424W        W90833  14.358  28.969   4.675
24425W        W90834  21.478  16.541   0.741
24426W        W90835   6.419   4.371   2.845
24427W        W90836   8.639  26.231  14.463
24428W        W90837  39.975  43.920   2.445
24429W        W90838  33.915  28.981  11.915
24430W        W90839  19.844  40.817  12.962
24431W        W90840   0.346  16.961   2.631
24432W        W90841   6.486  22.734  12.114
24433W        W90842  27.709   4.770  14.838
24434W        W90843  31.238  10.557   0.056
24435W        W90844  44.860  31.392  12.470
24436W        W90845  38.853   1.758   2.265
24437W        W90846  10.801  14.551  13.152
24438W        W90847  44.902  13.211   3.590
24439W        W90848  26.453  12.722   3.192
24440W        W90849  12.874  22.013   3.211
24441W        W90850  17.578   5.884   0.804
24442W        W90851  36.139  20.180  13.318
24443W        W90852  14.042  26.919  13.931
24444W        W90853  33.981   1.925   4.231
24445W        W90854  38.503  38.797  13.169
24446W        W90855  15.731  38.795   1.901
24447W        W90856   2.003  14.586   0.865
24448W        W90857   5.269  40.578  13.287
24449W        W90858  27.495  37.679   2.283
24450W        W90859  38.073   2.386  12.321
24451W        W90860   7.600   3.470   0.956
24452W        W90861  37.650  24.899  11.539
24453W        W90862  17.356  25.106   3.162
24454W        W90863  29.788   9.381   4.801
24455W        W90864   1.474  30.929  11.000
24456W        W90865  20.700   0.769   3.832
24457W        W90866  32.074  31.643  12.081
24458W        W90867   2.726   9.629  14.514
24459W        W90868  20.149  24.560  14.347
24460W        W90869   2.250  14.349  14.561
24461W        W90870  30.119  36.003  13.822
24462W        W90871   5.593  20.634   3.940
24463W        W90872  11.656  33.753   0.275
24464W        W90873  23.758  39.994  10.606
24465W        W90874   3.744   8.457   0.674
24466W        W90875  25.941  18.266  10.497
24467W        W90876  13.399  31.960   9.752
24468W        W90877  36.456  24.606  12.918
24469W        W90878   6.745   3.942   2.854
24470W        W90879  44.010   6.149   5.306
24471W        W90880  22.010  17.978   1.433
24472W        W90881  43.793  30.648  10.702
24473W        W90882  22.210  29.912  13.180
24474W        W90883  29.075  43.752  13.281
24475W        W90884  22.901   4.288  13.446
24476W        W90885  24.193  43.744  10.920
24477W        W90886  37.650  15.536  13.797
24478W        W90887  22.276  15.519   3.942
24479W        W90888  19.759  23.161  12.066
24480W        W90889   0.849  17.555  10.787
24481W        W90890  36.635   1.440   2.171
24482W        W90891   3.917  26.909  14.075
24483W        W90892  13.572  43.048   3.646
24484W        W90893   8.617  18.921   3.236
24485W        W90894   3.005  16.791   3.386
24486W        W90895   9.961   6.274  10.698
24487W        W90896  24.546   5.594  13.010
24488W        W90897  26.509   8.412  13.371
24489W        W90898  44.391  37.413   2.644
24490W        W90899  31.634  43.944   2.357
24491W        W90900  27.408  38.173   4.812
24492W        W90901   2.745  13.807   2.318
24493W        W90902  24.608   5.306   4.478
24494W        W90903  15.638  25.034   2.779
24495W        W90904  10.250   2.783  11.932
24496W        W90905   0.303  25.771  12.027
24497W        W90906  22.700  35.895  12.433
24498W        W90907  32.609  34.373   2.243
24499W        W90908  16.196  33.494  12.518
24500W        W90909  15.141   3.384   4.285
24501W        W90910  21.925  20.831  12.652
24502W        W90911  40.516  42.923   2.350
24503W        W90912  12.957   7.713   4.946
24504W        W90913  43.061  28.575  14.253
24505W        W90914  22.167  15.606  14.496
24506W        W90915  28.950  42.728   5.016
24507W        W90916  10.929  21.618  11.218
24508W        W90917  35.008  21.837  14.331
24509W        W90918  11.471  19.473  12.684
24510W        W90919   0.445   4.027  10.791
24511W        W90920   7.710  26.439   3.353
24512W        W90921  24.596   6.281   4.539
24513W        W90922  41.427  24.819  14.070
24514W        W90923  34.709  44.423   0.023
24515W        W90924  10.740  36.121   2.907
24516W        W90925  17.586  20.726   0.757
24517W        W90926  32.341  16.759  12.738
24518W        W90927  38.790  24.239  12.033
24519W        W90928  30.581  21.161   1.739
24520W        W90929  21.866  29.485   2.174
24521W        W90930  43.251  24.314   4.894
24522W        W90931  41.931  26.129   2.182
24523W        W90932   8.275  23.491   1.215
24524W        W90933  12.916  25.259   2.219
24525W        W90934  41.590   5.358   4.342
24526W        W90935   7.144  33.938   4.753
24527W        W90936   2.986   5.562   2.216
24528W        W90937  25.239  32.790   3.736
24529W        W90938  42.815   1.762   3.637
24530W        W90939  17.221  22.573   2.814
24531W        W90940  40.813   6.304   0.230
24532W        W90941  18.512  16.887  11.423
24533W        W90942  36.574  15.510  12.181
24534W        W90943  35.408   0.159   1.216
24535W        W90944  17.914  36.975  10.759
24536W        W90945  40.850   6.254  10.385
24537W        W90946  13.135  15.221  11.139
24538W        W90947  19.014   0.939   1.384
24539W        W90948  14.617  32.941   3.955
24540W        W90949   3.293  13.043   1.398
24541W        W90950  43.213  39.110  14.080
24542W        W90951   6.821  36.073  13.354
24543W        W90952  21.165  27.234   1.274
24544W        W90953  35.411   3.320   3.544
24545W        W90954  32.489  17.187  14.558
24546W        W90955  24.984  14.174  14.746
24547W        W90956  43.484  43.971   4.410
24548W        W90957  13.294  14.869  14.045
24549W        W90958   3.188  20.261   1.250
24550W        W90959  13.791  23.275  10.679
24551W        W90960  28.029  38.551   1.430
24552W        W90961  13.147   6.773   0.786
24553W        W90962  12.902  29.221  14.425
24554W        W90963   7.367   3.894   1.264
24555W        W90964  24.648  43.881   2.264
24556W        W90965   9.682  39.450  14.805
24557W        W90966  31.135   6.944  14.479
24558W        W90967   8.765  27.695  14.449
24559W        W90968   0.735  38.434  11.464
24560W        W90969  27.997   5.376  12.680
24561W        W90970  42.833  27.933   3.683
24562W        W90971  24.111  17.481   0.754
24563W        W90972  20.912  44.528  11.133
24564W        W90973  15.115  21.290   4.016
24565W        W90974  25.420  16.933  14.261
24566W        W90975  43.035  25.303  14.369
24567W        W90976  20.598  36.487   2.733
24568W        W90977  27.062   6.696   1.721
24569W        W90978  37.809   0.733  14.509
24570W        W90979  17.784  29.872  12.324
24571W        W90980  43.771  29.424   2.663
24572W        W90981   1.995  36.944   2.649
24573W        W90982  12.082  38.550  10.876
24574W        W90983   9.104  29.541   0.460
24575W        W90984  13.759   9.818   2.573
24576W        W90985  39.875   3.002  12.375
24577W        W90986   0.280  42.924  13.878
24578W        W90987  44.708  25.724  11.210
24579W        W90988  29.438  10.123   0.218
24580W        W90989  13.172   9.113   1.782
24581W        W90990  13.674  31.020  13.310
24582W        W90991  43.791  11.425   3.702
24583W        W90992  22.420  20.114  14.338
24584W        W90993  31.886  12.131   0.356
24585W        W90994  23.958  22.656   1.181
24586W        W90995  36.849  38.249  14.345
24587W        W90996  35.859  34.660   2.867
24588W        W90997  44.491  27.428  13.596
24589W        W90998  23.913  33.587  13.877
24590W        W90999   7.735   8.793   0.277
24591W        W91000  19.162  42.386  14.836
24592W        W91001  40.053  44.935  13.290
24593W        W91002  34.314  10.575  12.482
24594W        W91003  21.236  36.476  12.812
24595W        W91004  21.689   7.449  14.954
24596W        W91005  38.373  21.441   0.558
24597W        W91006  38.622  35.684   2.664
24598W        W91007  11.471  22.268  10.507
24599W        W91008  24.226  18.716   0.030
24600W        W91009  34.831  32.588   2.387
24601W        W91010  27.119  11.214  11.316
24602W        W91011  22.896  24.034   0.133
24603W        W91012  33.201  20.096  14.347
24604W        W91013  37.976  29.491   1.028
24605W        W91014  42.383  28.033   3.401
24606W        W91015  25.635  14.037  12.349
24607W        W91016  38.434  29.627  14.507
24608W        W91017  37.791  31.774   2.754
24609W        W91018  44.328  14.131  12.398
24610W        W91019  42.393  38.412  14.237
24611W        W91020  30.190  34.014  13.827
24612W        W91021  42.911   7.787   4.987
24613W        W91022  22.990  19.752  13.040
24614W        W91023  43.419   4.841   1.718
24615W        W91024  40.800   2.004   0.329
24616W        W91025  11.537  44.457  12.696
24617W        W91026  20.963  29.147   3.190
24618W        W91027  13.986  24.326   1.946
24619W        W91028  10.458  22.646  12.977
24620W        W91029   6.734  11.602  13.573
24621W        W91030  31.966  16.555   0.328
24622W        W91031  11.754   9.232   1.858
24623W        W91032   3.440  21.035  10.678
24624W        W91033  29.213   5.861   0.420
24625W        W91034  15.361  21.159  12.409
24626W        W91035  18.479   6.306  12.980
24627W        W91036   0.560  12.285   4.849
24628W        W91037  16.278   7.422  11.101
24629W        W91038  41.386  38.809  12.032
24630W        W91039   3.270  13.778   4.754
24631W        W91040  28.452  15.687   1.318
24632W        W91041  38.872  19.592   0.415
24633W        W91042  13.305  34.355   1.441
24634W        W91043  22.760  21.498   5.191
24635W        W91044  28.807  36.195  13.758
24636W        W91045  32.454   4.348  11.692
24637W        W91046  20.832  16.226   4.363
24638W        W91047  40.512  35.460  10.572
24639W        W91048  27.550  21.604   3.765
24640W        W91049  42.091   9.903   0.980
24641W        W91050  26.960  36.465  12.705
24642W        W91051  35.551  25.070   1.186
24643W        W91052   2.420  16.054   1.270
24644W        W91053  34.094  29.918   0.423
24645W        W91054  42.295  38.077   2.431
24646W        W91055  13.084  32.195  12.853
24647W        W91056  22.247  24.727  14.458
24648W        W91057   0.932  10.426   1.425
24649W        W91058  25.179  38.087   1.285
24650W        W91059  27.670  28.117   3.204
24651W        W91060  34.811   1.263   0.417
24652W        W91061  13.888  28.381   4.249
24653W        W91062  21.187  30.605   3.075
24654W        W91063  26.294   7.535   1.172
24655W        W91064  37.431  11.863   3.715
24656W        W91065   2.509  22.493   2.332
24657W        W91066  23.518   1.368  13.015
24658W        W91067   8.721   1.279   0.185
24659W        W91068  11.698  38.609  12.474
24660W        W91069  25.255  43.091   3.680
24661W        W91070  34.202  28.620   0.276
24662W        W91071  44.398  20.143   3.838
24663W        W91072   6.823  23.308  13.480
24664W        W91073  44.919  12.391  11.047
24665W        W91074  34.031   3.296   2.769
24666W        W91075  22.715  33.237  13.553
24667W        W91076   1.557  28.209  12.378
24668W        W91077  18.680  16.105  12.542
24669W        W91078  41.179   9.278  11.520
24670W        W91079  17.890  14.704  13.359
24671W        W91080  13.400  22.078   1.430
24672W        W91081  35.533  33.627   0.915
24673W        W91082  35.530   8.358  13.448
24674W        W91083  12.165  23.942   1.877
24675W        W91084  23.160   3.432  13.034
24676W        W91085   7.382  22.125  13.827
24677W        W91086  42.693  15.750  11.139
24678W        W91087  16.155  15.544  11.653
24679W        W91088  16.574  23.067   0.342
24680W        W91089   7.755  10.251  12.653
24681W        W91090  24.537  12.022   1.420
24682W        W91091  33.325  18.292  12.978
24683W        W91092  14.724  22.193   1.703
24684W        W91093  13.488  22.592  13.836
24685W        W91094   0.912  18.045  11.962
24686W        W91095  41.237  26.191  13.527
24687W        W91096   4.747  16.729  13.142
24688W        W91097  25.242  44.589  11.105
24689W        W91098  20.048  32.198   1.834
24690W        W91099   6.817   8.373   4.513
24691W        W91100  15.338  10.415   4.191
24692W        W91101  22.511  34.571  12.076
24693W        W91102  14.525  10.331   3.130
24694W        W91103  44.970  15.723   2.140
24695W        W91104  19.113  31.156  14.527
24696W        W91105  15.681  35.604   2.255
24697W        W91106  16.773  22.125  12.054
24698W        W91107  42.748  25.107  12.870
24699W        W91108   3.024  19.120  14.951
24700W        W91109  22.360  18.264  12.634
24701W        W91110  34.701   2.464   3.835
24702W        W91111  31.771   4.742  10.379
24703W        W91112   4.520  33.542  13.404
24704W        W91113   8.279  11.212   0.699
24705W        W91114  39.501  19.159   2.780
24706W        W91115  16.566  14.231  10.708
24707W        W91116   8.627  26.777   2.519
24708W        W91117  32.702   6.969   1.425
24709W        W91118  27.721  27.325   0.052
24710W        W91119  39.783  16.133   1.893
24711W        W91120   0.947   8.793   0.070
24712W        W91121   5.164   4.725   3.198
24713W        W91122  10.338  44.063   1.426
24714W        W91123  13.289  41.253  14.157
24715W        W91124  23.633  38.056  13.497
24716W        W91125   7.264  15.384  12.412
24717W        W91126  39.199  13.113   1.283
24718W        W91127  19.034   9.941   0.895
24719W        W91128  40.772  35.108   2.670
24720W        W91129  17.296   3.423  13.776
24721W        W91130   3.659  33.318   2.724
24722W        W91131  39.771  31.576   3.340
24723W        W91132   3.462  24.056  14.099
24724W        W91133  39.055  11.193   4.298
24725W        W91134  33.926  14.385  12.143
24726W        W91135  13.250  25.603  13.383
24727W        W91136  28.630   8.740  12.114
24728W        W91137  39.890  12.196  14.265
24729W        W91138  27.574  23.108   2.780
24730W        W91139  12.953  17.133   1.489
24731W        W91140   8.734  26.819   2.004
24732W        W91141  39.495   0.404  13.859
24733W        W91142  31.777  23.262   0.042
24734W        W91143   1.892  22.667   2.921
24735W        W91144  25.573  18.156  13.575
24736W        W91145   9.188  19.984  13.606
24737W        W91146  34.566  26.921   3.695
24738W        W91147  30.072  14.272  11.632
24739W        W91148   5.829  34.515   4.831
24740W        W91149  11.681  14.343  13.206
24741W        W91150  17.527  35.981  10.805
24742W        W91151   5.282  32.828  13.266
24743W        W91152  16.040   9.359   0.386
24744W        W91153  21.689   3.152   1.251
24745W        W91154  26.901   0.745  11.887
24746W        W91155  25.130  16.947   3.336
24747W        W91156   6.213   2.407  14.824
24748W        W91157  16.086  40.553   2.092
24749W        W91158  12.753  35.955  10.083
24750W        W91159  20.950  21.757  13.401
24751W        W91160  41.007  40.011  12.949
24752W        W91161  13.912  28.156  14.470
24753W        W91162   5.836  34.597  13.870
24754W        W91163  41.739   3.430   0.464
24755W        W91164  28.101  10.097   3.164
24756W        W91165  15.546  11.396   3.382
24757W        W91166  27.988   9.329  10.220
24758W        W91167   3.219  14.974  11.978
24759W        W91168  19.831  19.279  13.891
24760W        W91169  25.723  20.677  14.768
24761W        W91170  19.927   6.438  14.739
24762W        W91171  15.021  17.696  14.807
24763W        W91172  34.378  30.999  11.984
24764W        W91173  29.934  31.977  12.981
24765W        W91174  44.580  14.221  13.972
24766W        W91175  27.475  14.418  10.685
24767W        W91176  19.037  20.100  14.261
24768W        W91177  43.360   1.865   2.902
24769W        W91178  41.909   7.879   1.796
24770W        W91179  22.690  11.801   3.339
24771W        W91180  10.173  37.164  11.215
24772W        W91181  37.119  13.206  14.766
24773W        W91182   9.149  10.844   4.582
24774W        W91183  30.723   8.298  11.356
24775W        W91184  26.382  43.598  14.964
24776W        W91185   4.909  15.288  12.052
24777W        W91186  38.545  10.151   1.245
24778W        W91187  29.607  11.314  14.456
24779W        W91188  41.137  28.560  12.987
24780W        W91189  43.581   6.926   4.915
24781W        W91190  40.386  24.494   4.564
24782W        W91191  35.637  38.491  12.045
24783W        W91192  12.745  23.227   3.286
24784W        W91193  38.220  27.470   2.268
24785W        W91194  21.028  27.882   4.137
24786W        W91195  28.292  12.341   5.410
24787W        W91196  10.402  13.258   2.607
24788W        W91197  23.304  34.178   0.404
24789W        W91198  11.092  19.808   4.126
24790W        W91199  11.762  26.060   3.124
24791W        W91200  17.446  35.620  12.476
24792W        W91201  27.385   8.685   0.066
24793W        W91202  27.429   7.024   2.699
24794W        W91203  32.819  31.716   4.545
24795W        W91204  27.941   3.989   2.771
24796W        W91205  33.346  12.803  12.482
24797W        W91206  25.520  42.556  11.549
24798W        W91207  20.639  20.481   2.209
24799W        W91208  17.527   5.909   4.929
24800W        W91209  14.078  39.737  10.911
24801W        W91210  19.153  26.233  12.630
24802W        W91211  38.906  32.326   3.901
24803W        W91212  37.911  25.337   4.214
24804W        W91213  36.563  11.869  10.530
24805W        W91214   3.192  26.698   0.324
24806W        W91215  26.142   4.973   4.437
24807W        W91216   3.836  22.906  10.712
24808W        W91217  10.570  42.817  13.284
24809W        W91218  38.938   7.153   2.913
24810W        W91219  20.128  14.807   2.083
24811W        W91220  20.308   5.767  13.619
24812W        W91221   6.139  23.185  14.487
24813W        W91222  17.395  11.464  12.437
24814W        W91223   4.447  30.337   1.786
24815W        W91224  12.198   0.744  13.811
24816W        W91225  35.804  40.020   4.166
24817W        W91226  43.709  34.499  14.102
24818W        W91227  26.119  21.977  14.429
24819W        W91228  21.172   4.904   4.531
24820W        W91229   4.216  11.255   1.748
24821W        W91230  44.784   1.139  13.954
24822W        W91231  34.632  42.448  11.006
24823W        W91232  13.069  12.945   1.502
24824W        W91233   8.192  36.498  11.864
24825W        W91234  13.733  42.035  12.516
24826W        W91235   6.824  27.032   2.406
24827W        W91236  17.300  44.697  13.490
24828W        W91237  18.647   8.757  14.402
24829W        W91238  24.752   5.236  14.610
24830W        W91239  26.884  22.091  14.884
24831W        W91240  43.077  16.361   2.906
24832W        W91241  10.059  39.083   2.514
24833W        W91242   8.275  27.106   2.345
24834W        W91243  33.482  16.461   2.475
24835W        W91244  19.787  37.581  13.513
24836W        W91245  38.335  17.560   2.237
24837W        W91246  41.898  26.189  11.924
24838W        W91247  16.284  42.014   1.914
24839W        W91248  26.307  34.513   9.827
24840W        W91249  20.157  37.350   3.572
24841W        W91250  23.170  13.916  11.293
24842W        W91251  31.137  15.212  14.547
24843W        W91252   0.054   6.401   1.138
24844W        W91253  16.124  20.195   2.393
24845W        W91254  34.863  24.113   1.272
24846W        W91255  34.805  37.018   0.734
24847W        W91256  22.902  16.998  12.532
24848W        W91257  20.456  10.061   2.395
24849W        W91258   3.121  28.205  12.172
24850W        W91259  32.577  16.138   0.455
24851W        W91260   5.504  44.145   4.051
24852W        W91261  21.006  21.258  13.543
24853W        W91262  14.235  18.181  12.447
24854W        W91263   9.212  31.074  10.608
24855W        W91264  13.646  13.840  13.496
24856W        W91265  33.005  26.372   3.058
24857W        W91266  39.475   6.900   1.401
24858W        W91267  32.622  36.697  14.859
24859W        W91268  44.888  24.068   1.977
24860W        W91269  35.047  25.205   3.717
24861W        W91270  22.166  17.074  13.577
24862W        W91271   8.385  30.856   3.128
24863W        W91272   4.192  31.546   0.282
24864W        W91273  11.720   3.431  12.641
24865W        W91274   8.867   3.208  14.840
24866W        W91275  11.175  26.087   1.819
24867W        W91276  41.862  19.625   1.964
24868W        W91277   4.268   7.853   4.297
24869W        W91278  27.014   3.416   2.908
24870W        W91279  25.299  27.755  14.532
24871W        W91280  32.610  11.796  13.968
24872W        W91281   6.142  22.682   5.076
24873W        W91282  20.169  43.435   2.871
24874W        W91283   5.673   1.394   1.269
24875W        W91284  36.161  12.822   4.928
24876W        W91285  32.667  23.141   4.630
24877W        W91286  18.531  31.877   0.339
24878W        W91287  30.486  35.617  13.829
24879W        W91288   5.396   7.134  13.224
24880W        W91289  23.502  36.333  12.649
24881W        W91290  13.297  35.333  11.997
24882W        W91291   9.980  22.353   2.074
24883W        W91292  18.760  29.437   4.173
24884W        W91293  40.531  44.920   3.382
24885W        W91294  40.539  30.263   4.436
24886W        W91295  30.575  38.565   4.283
24887W        W91296  37.121  13.422   2.812
24888W        W91297   6.602   9.240   0.875
24889W        W91298  32.731  10.748  14.679
24890W        W91299  30.639   1.734  14.455
24891W        W91300   4.201  31.861  12.065
24892W        W91301  41.597   3.218   1.788
24893W        W91302  24.686  38.372   3.430
24894W        W91303  31.760  34.994   4.639
24895W        W91304  39.339   2.291   2.491
24896W        W91305  43.455  22.066   1.894
24897W        W91306  31.751  44.886   2.354
24898W        W91307  42.832  41.851  13.512
24899W        W91308   2.316  42.853  11.189
24900W        W91309  40.605  10.333  11.946
24901W        W91310  22.098  29.137   0.504
24902W        W91311  11.993   8.766  11.588
24903W        W91312  36.033  38.090  13.056
24904W        W91313  27.110  28.191  14.789
24905W        W91314   2.864  31.693  10.716
24906W        W91315  16.056   4.133   3.034
24907W        W91316  36.716  30.861  11.675
24908W        W91317   9.198  35.132   1.324
24909W        W91318  20.107  19.299   2.058
24910W        W91319  43.333  14.595  12.907
24911W        W91320  38.605  20.656   1.744
24912W        W91321  41.468  29.039  13.781
24913W        W91322  38.428  17.034   2.261
24914W        W91323  12.568  15.250   3.815
24915W        W91324  22.917  36.627  12.999
24916W        W91325   3.819   5.327  10.466
24917W        W91326   2.278  18.570   0.347
24918W        W91327  43.920  36.593   2.860
24919W        W91328   1.893  30.562  13.926
24920W        W91329  20.855  34.035   3.163
24921W        W91330   0.801   8.151   2.390
24922W        W91331   7.393  26.068   4.774
24923W        W91332  40.957  10.273  12.864
24924W        W91333  20.192  38.720  11.688
24925W        W91334  15.876  13.751  12.928
24926W        W91335   8.793  26.058   4.137
24927W        W91336  43.393  11.463   4.559
24928W        W91337  30.116  16.613  14.041
24929W        W91338  37.804  39.879  11.387
24930W        W91339  27.089  30.849   1.406
24931W        W91340  28.601  12.767   1.782
24932W        W91341  31.653  11.704  13.519
24933W        W91342  19.739  43.455  11.434
24934W        W91343   1.928   7.136   3.296
24935W        W91344  18.131  21.321   1.122
24936W        W91345  29.842   9.091  14.290
24937W        W91346  29.043  10.513   4.557
24938W        W91347  19.708   0.739  12.560
24939W        W91348  44.926   7.308  14.832
24940W        W91349  42.544   9.461   3.507
24941W        W91350  41.609  22.145   2.232
24942W        W91351  17.605  24.634   4.341
24943W        W91352  12.280  11.459  12.548
24944W        W91353  37.031  41.355  14.455
24945W        W91354   1.350  44.455   4.543
24946W        W91355   3.411  32.562   3.036
24947W        W91356  37.075  19.878   3.646
24948W        W91357  16.541   8.640   4.111
24949W        W91358   1.798  17.617   1.828
24950W        W91359   0.696   9.558  14.356
24951W        W91360  34.458  16.101  14.691
24952W        W91361  34.126   4.418   0.397
24953W        W91362  42.479  26.241   3.409
24954W        W91363  33.520  13.161  10.412
24955W        W91364   8.358  38.002  11.608
24956W        W91365  43.926  20.444   1.492
24957W        W91366  41.000  36.981   2.361
24958W        W91367   8.925  28.200  12.500
24959W        W91368  25.114  41.391  12.632
24960W        W91369  11.287  20.596  10.744
24961W        W91370  40.448  20.916   3.276
24962W        W91371  38.857  30.825   4.644
24963W        W91372  10.910  21.729  12.979
24964W        W91373  29.638  28.590   1.650
24965W        W91374  39.923  12.412  13.761
24966W        W91375  36.470  43.809   4.495
24967W        W91376  16.783  44.301  13.989
24968W        W91377  20.202  13.546   2.768
24969W        W91378   3.909  24.001   1.377
24970W        W91379  16.852  18.314   0.860
24971W        W91380  33.046  10.013   1.914
24972W        W91381  40.935  35.830  14.896
24973W        W91382   3.979   6.659   4.859
24974W        W91383  12.727   8.144   0.558
24975W        W91384  19.198  34.358   4.090
24976W        W91385   1.281  14.189   4.590
24977W        W91386   6.251  21.690   2.941
24978W        W91387  17.074  33.857   0.681
24979W        W91388  39.970  28.781  11.487
24980W        W91389  40.534  36.560   3.067
24981W        W91390  27.088  12.252  12.616
24982W        W91391  34.942  24.485   1.965
24983W        W91392   7.890  37.640   3.734
24984W        W91393   5.746  22.335   2.747
24985W        W91394  21.242  40.861   1.343
24986W        W91395  29.391  14.949   1.690
24987W        W91396  42.396  21.469   0.866
24988W        W91397   6.707  29.647  13.992
24989W        W91398  10.490  37.984  11.125
24990W        W91399  28.685   2.685  11.525
24991W        W91400  24.764   4.303  13.830
24992W        W91401  15.403  14.106   3.921
24993W        W91402  17.567  35.487   2.148
24994W        W91403  32.717   1.774  11.848
24995W        W91404  24.785   8.428  11.878
24996W        W91405   9.875  31.528   0.352
24997W        W91406  25.544  39.024   0.670
24998W        W91407  23.475  24.948   3.207
24999W        W91408  22.095  34.527   3.581
25000W        W91409  30.469  39.086  11.970
25001W        W91410  17.707  18.865   4.519
25002W        W91411  44.293  12.089  12.703
25003W        W91412  34.949   2.372   5.007
25004W        W91413  29.476  11.722   1.106
25005W        W91414  35.920  39.088  13.093
25006W        W91415  25.562  11.866  13.850
25007W        W91416   9.618  32.812  12.507
25008W        W91417  27.508  11.271   1.979
25009W        W91418  34.493  25.868   2.100
25010W        W91419  40.450  32.987  14.915
25011W        W91420   7.743  30.236   0.460
25012W        W91421  28.398  30.911  10.900
25013W        W91422  39.579  44.127   2.859
25014W        W91423  21.925  20.737  13.355
25015W        W91424  44.701  28.720  13.321
25016W        W91425   5.457  38.354   0.322
25017W        W91426  37.514  32.343   0.361
25018W        W91427  17.061  39.322  11.160
25019W        W91428  11.953   2.917  14.322
25020W        W91429  15.855  36.304  12.098
25021W        W91430  33.466  10.820   1.934
25022W        W91431  15.648  24.107   1.325
25023W        W91432   2.403  27.877   1.446
25024W        W91433  30.252  33.775  11.632
25025W        W91434   8.605  37.579   2.064
25026W        W91435   3.389  10.757   3.497
25027W        W91436  19.575  40.963   1.984
25028W        W91437  20.656  18.614   1.696
25029W        W91438  21.477  14.812   2.484
25030W        W91439  34.789   3.559   4.079
25031W        W91440  35.903  34.446   3.377
25032W        W91441   3.041  22.178   3.723
25033W        W91442  44.624   8.862  13.091
25034W        W91443  16.005  34.667   3.201
25035W        W91444  43.403  26.536  12.064
25036W        W91445  43.313  42.270   3.802
25037W        W91446  10.059   1.556   1.533
25038W        W91447  26.189  32.525  12.021
25039W        W91448  21.173  15.222  14.999
25040W        W91449   8.441   8.900   3.330
25041W        W91450  21.593  30.512  12.374
25042W        W91451  25.493  22.746  13.505
25043W        W91452  25.505   9.848  14.969
25044W        W91453  40.923  29.627   0.340
25045W        W91454  19.941  28.997   4.537
25046W        W91455  21.587  27.917   2.311
25047W        W91456  40.048  23.085   2.193
25048W        W91457  27.802  44.832  10.311
25049W        W91458   0.495  19.066   2.356
25050W        W91459  42.513  37.002  11.641
25051W        W91460   6.894  34.322  10.311
25052W        W91461  43.033   5.746  10.757
25053W        W91462  26.122  33.420   1.009
25054W        W91463  11.146  37.112   0.257
25055W        W91464  32.220   6.953   2.410
25056W        W91465   1.630  44.317   1.016
25057W        W91466  29.475  12.497  10.297
25058W        W91467  38.441  40.255  13.821
25059W        W91468  16.754   0.923  12.452
25060W        W91469  25.544  38.452   4.929
25061W        W91470  24.086  21.807  13.974
25062W        W91471  41.480  35.734   3.684
25063W        W91472  30.092  35.905   3.743
25064W        W91473   4.254   5.770  11.160
25065W        W91474  37.022  34.815  13.004
25066W        W91475  14.622  42.779   1.860
25067W        W91476  24.782  42.780  10.701
25068W        W91477   4.021   9.433  13.599
25069W        W91478  43.872  32.989  10.705
25070W        W91479  18.208  25.643  10.998
25071W        W91480  37.306  16.366   2.660
25072W        W91481   3.379  29.219   1.347
25073W        W91482  24.973  30.107  11.590
25074W        W91483   3.155   4.470   0.924
25075W        W91484   6.805   1.256   4.678
25076W        W91485  34.483   1.035   1.143
25077W        W91486  11.356  31.258  11.448
25078W        W91487   5.420  11.405   1.699
25079W        W91488  10.302  10.876   0.084
25080W        W91489  41.986  20.997   4.083
25081W        W91490   2.934   3.386  14.883
25082W        W91491  42.918  31.318  14.026
25083W        W91492  31.842   2.797   3.748
25084W        W91493  43.970  36.039  14.249
25085W        W91494   8.784   2.330   1.194
25086W        W91495  44.284  27.160   4.571
25087W        W91496   4.150  26.086   3.789
25088W        W91497  33.652  28.899   4.033
25089W        W91498  41.913  14.899  14.691
25090W        W91499  37.944  30.067   0.569
25091W        W91500  30.069  14.698   4.644
25092W        W91501  32.585  22.997  10.946
25093W        W91502   2.305   6.179   0.341
25094W        W91503   6.601   5.480   4.003
25095W        W91504  38.458  40.459   4.156
25096W        W91505  30.340  29.827   0.015
25097W        W91506  11.091  26.568   1.159
25098W        W91507  44.549   1.955  12.451
25099W        W91508  43.539  15.539   0.323
25100W        W91509  18.923  18.254   2.866
25101W        W91510   2.660   4.958   9.656
25102W        W91511  17.176   0.116   4.509
25103W        W91512  37.112  32.940   4.880
25104W        W91513  10.786  36.424   1.604
25105W        W91514  27.833  34.197  13.434
25106W        W91515  33.404  19.675   2.820
25107W        W91516  43.364  28.623  14.974
25108W        W91517   1.403  14.354  14.729
25109W        W91518   1.856   5.903   0.414
25110W        W91519   4.326  39.524   1.969
25111W        W91520  22.070   6.854  11.242
25112W        W91521  28.540  24.746   1.978
25113W        W91522  25.070   8.780   4.860
25114W        W91523  20.500  14.769   3.308
25115W        W91524  36.941  37.590   1.424
25116W        W91525   6.511  42.706   5.092
25117W        W91526  40.037   7.213   2.734
25118W        W91527  31.186  44.085  13.404
25119W        W91528  17.754   8.424   1.137
25120W        W91529   9.146  42.817   3.240
25121W        W91530   9.401   8.093  12.052
25122W        W91531  10.097   9.743  12.961
25123W        W91532  31.584   9.715   0.445
25124W        W91533  35.355  17.300  11.205
25125W        W91534  17.524  33.519   4.819
25126W        W91535  24.039  12.079  13.541
25127W        W91536  14.449  25.597   4.090
25128W        W91537  19.625   4.447  11.922
25129W        W91538   9.803  44.586  14.108
25130W        W91539  17.097  26.691  12.164
25131W        W91540   7.946  20.315   2.579
25132W        W91541   3.392  30.495   4.521
25133W        W91542  33.160  26.711  12.577
25134W        W91543  17.128  38.533  10.747
25135W        W91544  36.328  38.651   1.633
25136W        W91545  27.056  43.746   0.364
25137W        W91546  18.624  19.520   4.447
25138W        W91547  27.700  16.273  11.135
25139W        W91548  34.057  12.481  11.807
25140W        W91549  31.173  32.652   2.267
25141W        W91550  33.046  27.873   1.856
25142W        W91551  29.084  44.678   1.430
25143W        W91552  23.188  32.523  10.731
25144W        W91553  24.715   3.422   0.604
25145W        W91554  24.009  19.712  10.257
25146W        W91555   7.644  30.882  13.196
25147W        W91556  14.019  11.901   4.588
25148W        W91557  44.235   2.810  11.956
25149W        W91558  23.020  32.877  12.013
25150W        W91559   3.249   7.909  14.369
25151W        W91560   2.506  26.690  11.556
25152W        W91561  40.949  12.702   0.030
25153W        W91562   6.948  22.821   2.656
25154W        W91563  41.530  21.956   4.161
25155W        W91564  14.875   2.195   2.828
25156W        W91565  20.074  34.386  14.971
25157W        W91566   5.896   8.073  11.926
25158W        W91567  27.431   1.974   2.755
25159W        W91568  33.675  37.034   4.191
25160W        W91569  18.747   6.210  11.500
25161W        W91570  21.239  36.154  11.607
25162W        W91571  17.099  44.507   3.693
25163W        W91572  23.635   2.645  12.052
25164W        W91573  22.485  20.116   0.233
25165W        W91574  35.184   3.797   4.312
25166W        W91575  26.880  18.810  11.574
25167W        W91576  30.775  28.146   2.810
25168W        W91577  24.440  43.358   4.718
25169W        W91578  29.999  34.481  12.050
25170W        W91579  11.824   8.201   3.241
25171W        W91580  35.509  16.563   1.741
25172W        W91581  38.825  21.688  10.642
25173W        W91582  39.319  41.045   1.695
25174W        W91583  23.654  10.375  10.945
25175W        W91584  17.816  26.431   0.534
25176W        W91585  32.540  22.693   2.535
25177W        W91586  17.560  15.320  14.987
25178W        W91587  32.455  40.503   1.659
25179W        W91588  39.320  18.575  14.588
25180W        W91589  34.487  43.932   3.002
25181W        W91590  38.118  10.418  12.372
25182W        W91591  16.602  14.244   0.960
25183W        W91592   7.494  43.020   0.099
25184W        W91593  32.400  13.301   3.838
25185W        W91594  39.187  12.829  13.723
25186W        W91595  12.098   7.307  11.946
25187W        W91596  31.157   3.300  13.436
25188W        W91597  33.137   1.421  12.527
25189W        W91598   3.927  43.679   2.235
25190W        W91599  42.459   5.071   0.454
25191W        W91600  28.814  27.629   2.615
25192W        W91601   5.701  24.075  12.008
25193W        W91602  31.334  10.188   3.025
25194W        W91603   9.275  43.520  14.853
25195W        W91604  19.241  42.474   3.310
25196W        W91605  26.910  22.645   1.580
25197W        W91606  10.618  25.409   1.752
25198W        W91607  34.972  25.789  14.337
25199W        W91608  22.197   7.121  14.558
25200W        W91609   2.904  24.549  13.450
25201W        W91610  22.522   1.122   3.684
25202W        W91611  35.602   9.351  11.496
25203W        W91612  26.988   4.704  12.212
25204W        W91613  10.562   3.943  11.672
25205W        W91614  15.927  30.785  11.700
25206W        W91615   6.245  30.707  13.362
25207W        W91616  19.238   6.224   4.822
25208W        W91617  20.742  11.822   0.385
25209W        W91618  33.437  22.098  11.538
25210W        W91619  33.539   8.232  10.683
25211W        W91620   8.323   7.402  12.534
25212W        W91621  22.250  14.643  13.501
25213W        W91622  11.522  20.649   4.075
25214W        W91623  13.652  37.927  14.067
25215W        W91624  30.120   5.158  14.488
25216W        W91625  20.258   1.708   3.730
25217W        W91626  22.877  39.744   0.431
25218W        W91627  21.635   6.736   0.726
25219W        W91628  10.734   2.808   1.962
25220W        W91629  31.862  43.731   3.354
25221W        W91630  44.422  10.820   4.540
25222W        W91631  20.881   2.883  12.902
25223W        W91632   2.869  13.627   0.732
25224W        W91633  37.422  26.351   5.151
25225W        W91634  30.461   1.413   0.418
25226W        W91635   5.930  32.129  10.487
25227W        W91636  10.605   5.007  10.965
25228W        W91637   7.470   1.798   3.746
25229W        W91638  17.835  27.066  14.953
25230W        W91639  31.702  19.952   0.488
25231W        W91640  19.004   2.772   2.832
25232W        W91641   1.893  24.046  12.184
25233W        W91642   6.236  12.141   2.459
25234W        W91643  21.596  34.000   0.178
25235W        W91644  30.197  33.363  10.726
25236W        W91645   6.428  30.465   3.619
25237W        W91646  23.598  34.372   0.909
25238W        W91647  29.524  11.357   3.106
25239W        W91648  40.492   5.480  14.080
25240W        W91649  37.922   2.725   2.001
25241W        W91650  21.246  42.266  13.295
25242W        W91651  42.579  42.019   0.340
25243W        W91652  36.970  26.441  13.022
25244W        W91653  25.963  44.359   3.368
25245W        W91654  27.368  10.195   2.764
25246W        W91655  26.164  12.281   0.405
25247W        W91656  37.057  34.137   4.611
25248W        W91657  11.366   4.590   3.737
25249W        W91658   3.298   5.254  13.155
25250W        W91659  35.288  15.534  14.935
25251W        W91660  15.390   4.854   1.865
25252W        W91661  37.823  15.300  11.601
25253W        W91662  31.349  23.560  13.837
25254W        W91663   6.861  18.722  10.766
25255W        W91664  24.932   7.862   3.879
25256W        W91665   8.789  30.617  14.980
25257W        W91666  23.671  20.612   1.852
25258W        W91667   8.820  39.108  11.211
25259W        W91668  25.628  16.556   4.801
25260W        W91669  32.149  16.595  11.094
25261W        W91670   1.443  33.575  13.490
25262W        W91671  26.869   4.349  14.960
25263W        W91672  24.930  23.734  11.096
25264W        W91673   0.697  32.035   3.618
25265W        W91674   5.443  31.009   2.089
25266W        W91675  43.672  11.766   0.085
25267W        W91676  10.118  12.022   4.371
25268W        W91677  37.067  15.297  11.147
25269W        W91678  16.148  24.956   0.517
25270W        W91679  41.308  23.024   0.682
25271W        W91680  29.722  10.402  14.352
25272W        W91681  31.421  44.493  11.028
25273W        W91682  36.088  35.332   1.883
25274W        W91683  27.728  20.568  14.932
25275W        W91684  17.824  27.732   2.288
25276W        W91685  32.486   5.901  10.227
25277W        W91686  15.726   6.409  13.646
25278W        W91687  14.219  19.299   5.101
25279W        W91688  41.433  37.863  12.374
25280W        W91689  22.312   3.535  11.540
25281W        W91690  31.850   6.066   4.960
25282W        W91691  34.133   7.461   0.496
25283W        W91692  43.905  18.833  11.994
25284W        W91693  14.784  19.667   2.703
25285W        W91694  32.584   9.499  10.580
25286W        W91695   7.873  36.683   2.842
25287W        W91696   5.331  33.658   0.830
25288W        W91697   3.881  36.365  10.604
25289W        W91698  33.854   5.487   0.609
25290W        W91699   6.471  11.196  14.382
25291W        W91700  44.149  31.753  13.034
25292W        W91701   4.720  12.112  12.154
25293W        W91702   7.328  37.026  13.424
25294W        W91703  27.170  44.044   0.848
25295W        W91704  14.270  30.398   4.396
25296W        W91705   1.111   8.655  12.045
25297W        W91706  32.678  34.360  11.015
25298W        W91707  13.685   2.308  11.976
25299W        W91708  13.839  15.265   3.621
25300W        W91709  32.994  23.904   0.002
25301W        W91710   1.408   0.199  12.191
25302W        W91711  19.592  36.303   2.857
25303W        W91712   4.213   1.900   3.171
25304W        W91713  25.370  36.335   0.894
25305W        W91714  23.455  20.979  14.893
25306W        W91715  16.643  33.653   3.596
25307W        W91716  17.850  38.307   4.489
25308W        W91717   8.272   6.443   1.874
25309W        W91718  32.403  40.678   2.294
25310W        W91719   1.506  36.082   1.265
25311W        W91720  16.451  43.485   4.148
25312W        W91721   4.842  35.546  10.988
25313W        W91722  11.267   5.916  10.553
25314W        W91723  15.575  23.185   9.851
25315W        W91724  20.634  23.029   3.227
25316W        W91725  35.372  10.417  11.977
25317W        W91726   4.321  33.780  11.211
25318W        W91727  20.574   9.836  13.990
25319W        W91728  27.726  14.570  12.605
25320W        W91729  14.815   3.010   4.340
25321W        W91730  14.810  41.420  13.418
25322W        W91731  17.519  17.691  13.384
25323W        W91732  14.224  28.644   2.424
25324W        W91733   3.651   8.311   1.637
25325W        W91734  10.924   7.768  11.769
25326W        W91735   1.366  37.798  10.582
25327W        W91736   7.589   5.890  11.874
25328W        W91737  25.310   4.210   2.456
25329W        W91738  11.400  34.981   0.097
25330W        W91739  11.404  10.774   3.364
25331W        W91740  43.414  22.986  12.450
25332W        W91741  39.506  28.203   4.180
25333W        W91742  16.111  39.497  12.545
25334W        W91743  25.721   5.417  12.971
25335W        W91744  11.343  11.340   0.840
25336W        W91745  41.041  36.506   3.132
25337W        W91746  25.739   4.722   4.121
25338W        W91747  17.030  12.281   2.201
25339W        W91748  32.770  18.219  12.889
25340W        W91749  16.556  26.961  10.726
25341W        W91750  43.733  16.779  14.299
25342W        W91751   0.300  18.794  11.694
25343W        W91752  41.517   5.896   4.668
25344W        W91753  43.022  40.972   4.208
25345W        W91754  33.446  18.249   1.465
25346W        W91755  22.001  41.978   4.355
25347W        W91756  30.920  42.923   4.654
25348W        W91757  41.507  14.183  12.040
25349W        W91758  27.946  21.163   5.187
25350W        W91759   7.815   5.217   2.969
25351W        W91760   3.305   7.964  11.053
25352W        W91761  40.483  30.057  12.695
25353W        W91762  34.554   6.400  10.594
25354W        W91763  41.510  34.640  13.948
25355W        W91764  12.468  12.422  12.675
25356W        W91765  40.310  38.088   3.257
25357W        W91766  44.258   0.190   1.522
25358W        W91767  29.424  36.052   2.682
25359W        W91768   2.267  42.801   4.146
25360W        W91769   2.256  14.029  10.720
25361W        W91770  33.511  28.726  12.077
25362W        W91771  12.190  30.318  10.270
25363W        W91772  32.566  10.203   4.806
25364W        W91773   9.636  31.542   3.315
25365W        W91774   1.672   5.288   4.806
25366W        W91775   8.496  36.681   1.984
25367W        W91776  35.042   5.270  12.965
25368W        W91777   3.223  33.264   1.537
25369W        W91778  44.639  24.642   2.488
25370W        W91779  25.827  28.030  11.071
25371W        W91780   4.855  37.918  14.838
25372W        W91781  22.714  23.680  13.912
25373W        W91782   6.679  15.199   1.490
25374W        W91783  23.562  18.156   3.938
25375W        W91784  30.601  43.867  11.894
25376W        W91785   0.937  36.062  14.061
25377W        W91786  29.580  20.005   3.115
25378W        W91787  23.127  31.717   2.582
25379W        W91788  44.623   5.835   2.570
25380W        W91789  27.537  13.293   1.674
25381W        W91790   0.265   8.355   1.191
25382W        W91791   9.612  33.879  12.730
25383W        W91792   2.465   2.165  10.776
25384W        W91793  10.275  23.990   2.434
25385W        W91794   6.938  14.243  12.033
25386W        W91795  17.384  41.883   4.067
25387W        W91796  26.158  11.767   0.341
25388W        W91797  24.311  29.956   0.229
25389W        W91798   7.917  28.521  11.048
25390W        W91799   1.322   6.799   3.046
25391W        W91800   5.102  13.125  14.714
25392W        W91801   4.779   2.863  13.363
25393W        W91802  11.290   5.064  14.411
25394W        W91803  31.818  28.076   5.058
25395W        W91804  22.200   0.931   4.634
25396W        W91805  15.323  34.305   5.115
25397W        W91806  29.505   0.309   2.680
25398W        W91807  39.043  42.412  10.764
25399W        W91808  43.890   8.647   0.445
25400W        W91809   2.041  15.759  13.462
25401W        W91810  11.796  42.578  11.670
25402W        W91811  41.518  38.066   1.763
25403W        W91812  33.235   4.684  11.571
25404W        W91813  11.233  14.679   1.316
25405W        W91814  25.997   1.451   0.859
25406W        W91815  35.619  23.684  13.545
25407W        W91816  27.411  38.938  10.639
25408W        W91817   8.867  36.749   2.946
25409W        W91818  32.312  29.518   4.128
25410W        W91819   0.951  34.322   4.155
25411W        W91820  38.415  30.772   4.370
25412W        W91821   5.263  31.574  12.384
25413W        W91822   6.932  35.632  11.606
25414W        W91823  22.072  40.300  10.769
25415W        W91824  34.010  13.771   0.125
25416W        W91825  12.265  11.852   1.472
25417W        W91826  31.327  32.467  13.866
25418W        W91827  42.295  37.438  14.243
25419W        W91828  33.998   2.937  13.423
25420W        W91829  20.050  34.966  13.010
25421W        W91830  22.597   0.486  10.670
25422W        W91831  19.575  24.161   4.137
25423W        W91832  32.829  20.419  10.896
25424W        W91833  14.079  15.764   4.118
25425W        W91834  10.747   7.789  13.885
25426W        W91835  37.274  18.745   4.566
25427W        W91836  15.753   2.083  12.439
25428W        W91837  26.236   8.766  14.381
25429W        W91838  24.720   7.798  12.970
25430W        W91839  23.663  23.222   0.826
25431W        W91840  34.003  18.076   4.822
25432W        W91841  15.292  19.258  10.086
25433W        W91842  19.586  40.295   0.517
25434W        W91843  44.952  30.550  10.570
25435W        W91844  42.500  22.530   1.371
25436W        W91845  11.642  37.855   0.273
25437W        W91846  13.216  33.437  13.952
25438W        W91847  43.438  38.677  13.927
25439W        W91848  27.516  32.063   3.678
25440W        W91849  29.900  34.106  10.557
25441W        W91850   3.772  34.898   0.909
25442W        W91851  12.252  40.107   3.495
25443W        W91852  26.658  30.690   4.612
25444W        W91853  42.982   3.193  10.690
25445W        W91854  16.762  20.483   0.403
25446W        W91855   5.418  11.869  13.969
25447W        W91856  39.942  43.095  13.860
25448W        W91857  42.209  10.689  10.681
25449W        W91858   3.257  24.149   3.355
25450W        W91859  41.554   9.140  13.853
25451W        W91860  22.481   1.921   4.102
25452W        W91861  23.660  22.825  13.471
25453W        W91862  21.643   4.340   1.994
25454W        W91863  25.029  16.464   3.196
25455W        W91864  25.685  22.765  14.396
25456W        W91865  36.486  32.050  14.038
25457W        W91866  16.552   9.863  11.144
25458W        W91867  42.608  37.016  14.334
25459W        W91868  23.162   9.926   1.795
25460W        W91869  10.954  16.309   0.092
25461W        W91870  28.717  18.339   4.240
25462W        W91871  17.218  19.827   0.217
25463W        W91872  38.476  15.159  12.429
25464W        W91873  34.666  42.998   1.142
25465W        W91874  33.514  36.517   3.110
25466W        W91875  44.238   7.903  11.099
25467W        W91876  28.403  43.666   3.851
25468W        W91877  40.151   4.747   0.322
25469W        W91878  26.377  17.126   0.458
25470W        W91879  17.290  15.277  13.130
25471W        W91880  34.788   6.769   4.677
25472W        W91881  12.280  19.980  11.970
25473W        W91882  23.270  17.840  12.990
25474W        W91883   9.904  13.645   3.678
25475W        W91884  28.178  13.580   3.641
25476W        W91885  40.074  28.078   2.412
25477W        W91886  43.017  34.697   3.575
25478W        W91887  30.245   5.848   0.414
25479W        W91888  31.554  30.665   3.170
25480W        W91889   2.954  20.469   2.663
25481W        W91890  41.265  41.756  14.415
25482W        W91891  43.286   0.662  14.995
25483W        W91892  31.995  43.062   1.965
25484W        W91893  34.901   9.779   1.706
25485W        W91894  12.914  16.810  11.558
25486W        W91895   9.830  43.860  11.548
25487W        W91896   2.580  22.221   1.820
25488W        W91897  10.297  14.781   1.816
25489W        W91898   0.331  30.430   1.209
25490W        W91899  43.986  37.353  13.175
25491W        W91900  19.405   5.655  12.227
25492W        W91901  35.046  18.294  13.337
25493W        W91902  24.451  34.134   1.860
25494W        W91903  39.858  11.106   1.911
25495W        W91904  32.344  29.986  11.173
25496W        W91905  40.050  29.559  10.669
25497W        W91906   0.267  31.345  14.842
25498W        W91907  20.491  18.293  10.604
25499W        W91908  35.162  24.708  12.595
25500W        W91909  16.709  17.317  11.570
25501W        W91910  12.427  13.136   3.839
25502W        W91911   8.225  38.742  12.951
25503W        W91912  30.123  16.287   4.436
25504W        W91913  13.206  17.229   2.733
25505W        W91914  26.548  35.687  13.081
25506W        W91915   8.611   7.918   4.273
25507W        W91916  16.701  34.909  13.055
25508W        W91917   5.434  29.568   4.666
25509W        W91918  32.965   0.266   0.215
25510W        W91919  32.679  21.661  14.873
25511W        W91920  37.076  36.987   0.428
25512W        W91921  44.692  33.800  13.524
25513W        W91922   8.836  36.951   4.159
25514W        W91923  12.626  16.343  14.925
25515W        W91924  29.020  39.107   0.868
25516W        W91925  12.754  44.507   0.326
25517W        W91926  12.248   9.669   2.429
25518W        W91927   8.627   4.206   3.370
25519W        W91928  44.813   4.832   3.161
25520W        W91929  23.701  22.987  11.841
25521W        W91930  21.390  16.648  12.517
25522W        W91931  19.032   2.973   1.955
25523W        W91932  41.765  15.405  11.761
25524W        W91933   4.256  20.306  13.903
25525W        W91934   2.462  30.271   0.106
25526W        W91935  13.581  28.002   1.270
25527W        W91936  30.143  37.867   4.578
25528W        W91937  29.386   9.421  12.836
25529W        W91938  22.451  42.470   1.640
25530W        W91939   5.341  23.322   3.226
25531W        W91940  36.932   3.708  14.992
25532W        W91941  42.049  27.294   0.621
25533W        W91942  19.526  29.682  12.910
25534W        W91943  38.783  23.078  13.421
25535W        W91944  39.938  20.655  13.257
25536W        W91945  29.788  13.748  11.213
25537W        W91946   8.085   9.216  11.513
25538W        W91947  24.157  41.828  12.120
25539W        W91948  17.325  14.126   3.621
25540W        W91949  30.432   6.655   3.067
25541W        W91950  42.830  30.605   0.372
25542W        W91951  38.348   4.328  12.194
25543W        W91952   2.014  22.597  11.965
25544W        W91953   5.494  36.888   3.291
25545W        W91954  12.315   7.997   3.284
25546W        W91955  27.693   1.304  12.514
25547W        W91956  21.329   2.750  12.052
25548W        W91957  38.330  41.253   2.391
25549W        W91958  18.714  21.621   4.061
25550W        W91959  19.977   5.081   1.915
25551W        W91960   3.447  10.985   4.856
25552W        W91961  13.873  20.316   1.815
25553W        W91962  20.758  11.686   2.782
25554W        W91963   1.904  43.322  13.019
25555W        W91964   8.132  10.886  12.116
25556W        W91965  14.728  19.957  12.881
25557W        W91966  42.897  24.675   4.736
25558W        W91967  28.217  34.377  13.078
25559W        W91968  26.017  29.418  14.881
25560W        W91969  27.131   1.871   0.323
25561W        W91970   2.061   4.946   2.676
25562W        W91971   4.656  44.735   0.379
25563W        W91972  18.386  20.758  10.694
25564W        W91973  22.589  15.537  11.048
25565W        W91974  10.388  10.658   2.291
25566W        W91975  18.698  29.567   4.695
25567W        W91976  23.524  18.262  14.921
25568W        W91977  41.748   6.908  12.575
25569W        W91978  14.718   3.042   1.690
25570W        W91979  31.837  26.656   4.538
25571W        W91980   7.298  25.731   0.518
25572W        W91981   0.861  12.300  10.184
25573W        W91982  39.406  44.365  10.677
25574W        W91983  16.585  36.493   0.194
25575W        W91984  15.290   1.892   4.977
25576W        W91985  25.280   0.753  14.226
25577W        W91986  44.828  21.274   3.607
25578W        W91987  14.532  43.485   2.229
25579W        W91988  30.230  20.744   0.845
25580W        W91989   0.140  31.049   3.779
25581W        W91990   5.209  17.071   4.178
25582W        W91991  23.062  14.724  10.656
25583W        W91992  32.872  38.073  12.973
25584W        W91993  13.620   9.697  12.965
25585W        W91994  26.878   7.949  11.372
25586W        W91995  38.566  29.829  13.376
25587W        W91996  26.864  14.433   0.318
25588W        W91997   7.052   1.282   4.205
25589W        W91998  19.086  11.657   4.558
25590W        W91999   4.527  16.541   3.666
25591W        W92000   4.556  20.724  11.197
25592W        W92001  23.478   6.884  11.732
25593W        W92002   0.059  14.791   1.298
25594W        W92003  20.833  34.469  10.330
25595W        W92004  44.714  22.785  14.449
25596W        W92005   2.395   8.174   1.958
25597W        W92006  38.530  23.056  12.965
25598W        W92007  22.828  24.516   1.359
25599W        W92008  34.291  23.548  14.272
25600W        W92009  29.556  12.756   4.199
25601W        W92010  32.963  40.558   3.366
25602W        W92011  31.113   9.216  11.392
25603W        W92012  35.691  17.247   0.720
25604W        W92013  44.907   9.053  11.438
25605W        W92014  32.934  39.928  10.730
25606W        W92015  20.713  20.599   4.116
25607W        W92016  39.082  40.537   3.738
25608W        W92017  23.173  35.595  11.878
25609W        W92018   2.467  32.875  14.309
25610W        W92019   7.802  13.092  14.827
25611W        W92020  40.320  18.340  12.866
25612W        W92021   9.953  33.831  13.108
25613W        W92022  22.162  22.700  11.026
25614W        W92023  17.407  35.907   3.681
25615W        W92024  20.659  38.897  13.790
25616W        W92025  42.030  20.522   0.021
25617W        W92026  32.044  36.333   5.068
25618W        W92027  18.760  27.220   0.145
25619W        W92028  44.247  29.127   0.092
25620W        W92029  35.533  17.780  14.008
25621W        W92030   2.301  19.955   4.914
25622W        W92031  10.844  31.952  14.444
25623W        W92032  22.535  44.909  11.812
25624W        W92033   3.632  33.845   4.576
25625W        W92034  34.602  27.886   3.807
25626W        W92035   9.107  18.573   1.798
25627W        W92036  19.537  16.500   2.888
25628W        W92037   4.175  21.559   1.326
25629W        W92038   7.923  34.807  14.776
25630W        W92039   8.635   5.152   3.221
25631W        W92040  41.267  21.733  13.347
25632W        W92041  11.256  21.786   4.828
25633W        W92042  34.032  26.923   4.567
25634W        W92043  11.387   2.478  14.910
25635W        W92044  28.931  39.779   2.279
25636W        W92045  26.938   8.762  13.384
25637W        W92046  28.943  44.512   2.264
25638W        W92047  35.710  30.008   2.699
25639W        W92048  23.718   8.289   3.797
25640W        W92049  33.381  11.976   0.023
25641W        W92050  26.977  12.212  14.092
25642W        W92051  20.016  38.368  13.171
25643W        W92052  10.744   3.032  12.673
25644W        W92053  44.897  29.102  14.423
25645W        W92054  43.647  39.551  14.059
25646W        W92055  22.946  20.539   3.316
25647W        W92056  35.491  44.919   0.753
25648W        W92057  44.677  19.998  11.983
25649W        W92058  36.650   9.444  12.595
25650W        W92059   6.767  20.064  11.780
25651W        W92060  10.822  11.551  14.833
25652W        W92061  17.106  35.093  12.798
25653W        W92062  40.425   6.869   4.600
25654W        W92063  24.685  23.451   0.626
25655W        W92064  23.477  34.873   1.104
25656W        W92065  13.802  41.528   3.314
25657W        W92066  26.806  14.315  11.232
25658W        W92067  32.633  26.813  11.173
25659W        W92068  40.979  24.040  12.364
25660W        W92069  13.532  30.397   3.810
25661W        W92070  32.990   1.497   0.254
25662W        W92071  26.845  34.605   4.609
25663W        W92072  33.431  16.491   3.044
25664W        W92073   5.855  13.528   3.805
25665W        W92074  34.974  10.994  10.110
25666W        W92075  23.279  16.844   1.268
25667W        W92076  37.361  23.343   0.028
25668W        W92077   4.172  26.073  13.898
25669W        W92078  14.660  35.467   5.158
25670W        W92079  14.214  11.838  14.922
25671W        W92080   1.276  32.965  12.363
25672W        W92081   8.881  19.036   1.631
25673W        W92082  29.608   7.663   1.711
25674W        W92083  34.038  42.046   0.299
25675W        W92084  40.961  44.776   0.467
25676W        W92085   9.119  28.690   2.112
25677W        W92086  29.019  34.743   4.136
25678W        W92087  19.496  23.756   0.732
25679W        W92088  38.882  30.430   5.003
25680W        W92089  35.088  41.546   4.243
25681W        W92090   6.309   9.152   2.416
25682W        W92091  19.231  24.642   0.435
25683W        W92092  34.053  43.996   3.269
25684W        W92093  17.785  41.739   3.287
25685W        W92094  32.656  13.025   2.316
25686W        W92095  38.859  20.954  14.538
25687W        W92096  37.094  11.332   0.320
25688W        W92097  17.045   1.886  13.600
25689W        W92098   5.834  23.430  14.121
25690W        W92099  25.519  10.803  14.672
25691W        W92100   1.954  14.612  12.608
25692W        W92101  28.620  37.078   1.377
25693W        W92102   6.854  11.644  14.069
25694W        W92103  35.802  34.571   1.232
25695W        W92104  23.279  25.310   0.143
25696W        W92105  11.849  17.599  11.571
25697W        W92106  22.656   0.458   0.856
25698W        W92107  30.419   5.326  12.817
25699W        W92108  17.397  21.198   0.702
25700W        W92109  34.057  41.786   2.810
25701W        W92110  10.204  28.870   5.336
25702W        W92111  27.990  13.129   2.717
25703W        W92112  44.826  42.332  13.337
25704W        W92113  39.901  12.586   2.903
25705W        W92114  15.587  19.115   5.109
25706W        W92115  24.564   4.838   3.261
25707W        W92116  31.456  42.344   1.791
25708W        W92117  29.134  29.518  14.067
25709W        W92118  21.097  30.359   4.068
25710W        W92119  12.616  30.518   0.809
25711W        W92120  41.813  36.373  13.571
25712W        W92121  18.084  28.731  11.110
25713W        W92122  28.707   7.668   3.721
25714W        W92123  29.477  16.751   1.201
25715W        W92124   6.947  36.910  11.155
25716W        W92125   9.722   9.107  12.002
25717W        W92126  40.931   0.334   1.752
25718W        W92127  31.955  28.530   4.150
25719W        W92128  36.283  11.973  12.547
25720W        W92129  31.989  16.657  13.871
25721W        W92130  40.447  24.736  12.420
25722W        W92131  28.457  12.845   4.247
25723W        W92132   7.419   8.852   0.908
25724W        W92133  24.459   3.400  12.501
25725W        W92134  42.573   4.175   2.836
25726W        W92135  14.277   1.002  14.005
25727W        W92136   2.600   7.639   3.363
25728W        W92137   4.651  12.059   1.513
25729W        W92138  18.521   0.189   0.458
25730W        W92139  35.514  24.290  14.967
25731W        W92140  39.110  16.737  12.305
25732W        W92141   1.156  36.805   2.808
25733W        W92142  35.439  37.338   3.376
25734W        W92143  21.622  15.833  13.356
25735W        W92144  36.859  42.274   0.716
25736W        W92145  11.694  16.175  14.637
25737W        W92146  37.898   6.215   0.837
25738W        W92147  24.647  16.649   4.363
25739W        W92148  14.219  29.147   2.310
25740W        W92149  12.649   1.325  14.378
25741W        W92150  20.446  40.012  12.841
25742W        W92151  29.672   0.523  10.888
25743W        W92152  10.309  27.304  12.005
25744W        W92153  21.864   0.764   1.229
25745W        W92154  38.706  21.953   4.015
25746W        W92155   2.510  40.614   0.295
25747W        W92156  39.690  40.976   2.045
25748W        W92157   0.806  43.330   0.753
25749W        W92158  13.153  32.880   2.868
25750W        W92159  27.511  14.121  12.829
25751W        W92160  36.530   0.388  14.272
25752W        W92161  32.002  31.561   4.629
25753W        W92162  26.445  39.379  10.763
25754W        W92163  23.808  17.604  14.820
25755W        W92164   3.018  21.691  10.984
25756W        W92165  39.863  10.529  14.544
25757W        W92166  10.365   3.322   0.333
25758W        W92167  21.120  32.686  13.556
25759W        W92168  32.194   0.256  13.099
25760W        W92169  44.242  27.962  11.447
25761W        W92170   1.275   1.378   2.542
25762W        W92171  26.146  18.960  12.723
25763W        W92172  11.340  21.134   1.192
25764W        W92173  23.231  21.626  12.002
25765W        W92174   0.752   4.467  10.706
25766W        W92175  39.972  34.976  12.566
25767W        W92176  26.520  43.362   3.915
25768W        W92177  15.167  16.718   0.772
25769W        W92178   2.815   1.859  12.429
25770W        W92179  37.608   7.583   2.817
25771W        W92180  24.491  32.071   0.122
25772W        W92181  21.830  35.049  11.602
25773W        W92182   5.307  31.328   3.811
25774W        W92183  30.507  28.084  11.550
25775W        W92184  15.300  43.372  14.990
25776W        W92185   8.829   9.760  11.424
25777W        W92186  40.166  40.263  12.378
25778W        W92187   7.369   7.451   2.150
25779W        W92188  34.998  41.744   0.365
25780W        W92189  25.013   3.946   3.591
25781W        W92190  10.916  23.308   2.670
25782W        W92191  12.387  32.561   4.087
25783W        W92192  19.875   3.492   1.280
25784W        W92193  20.621  23.001  12.470
25785W        W92194   3.450  21.720  11.878
25786W        W92195  28.107  24.623   3.247
25787W        W92196  43.104  34.502   4.040
25788W        W92197   1.852   5.951   2.218
25789W        W92198  26.670  11.660  11.514
25790W        W92199   4.921  28.489  11.660
25791W        W92200  22.232  28.171  11.077
25792W        W92201  11.204   1.543   1.419
25793W        W92202  22.750   8.373   4.570
25794W        W92203  34.011  14.607   4.673
25795W        W92204   2.976  16.934   4.768
25796W        W92205  22.309   9.252  12.010
25797W        W92206  30.006  27.947  11.574
25798W        W92207  40.631  40.943  12.873
25799W        W92208  12.317  29.018   3.719
25800W        W92209   9.762  36.202   1.668
25801W        W92210  23.546  33.023   0.258
25802W        W92211  35.490  25.250   3.165
25803W        W92212  34.495  40.135  12.920
25804W        W92213  28.883  33.317  12.470
25805W        W92214  17.965  42.275  10.794
25806W        W92215  12.754  16.381  11.784
25807W        W92216  30.825  26.463  11.996
25808W        W92217   5.385  32.872  13.765
25809W        W92218  34.012  24.055  10.718
25810W        W92219  23.496  21.519  11.525
25811W        W92220  13.948  17.769  11.493
25812W        W92221  39.827  14.306  14.260
25813W        W92222  38.362  42.851  13.967
25814W        W92223  28.122  16.005   3.665
25815W        W92224  28.677  17.817   2.291
25816W        W92225  24.209  40.022   4.084
25817W        W92226   0.183  43.554   1.258
25818W        W92227  26.825   3.387   9.816
25819W        W92228  23.810  11.276  11.514
25820W        W92229  33.945   2.237   3.589
25821W        W92230  36.804  42.878   4.534
25822W        W92231  40.975  21.943  14.106
25823W        W92232  12.261  16.018  13.462
25824W        W92233   5.162  10.143  12.528
25825W        W92234  16.361  40.913   3.377
25826W        W92235  11.585   2.453   1.191
25827W        W92236  14.778   2.562   1.463
25828W        W92237  28.181   4.688  13.434
25829W        W92238   4.043  37.309  13.454
25830W        W92239  27.548  17.013   0.147
25831W        W92240  33.970  33.333   2.399
25832W        W92241  17.295  21.784   1.888
25833W        W92242   3.269  40.818  10.935
25834W        W92243  24.890  43.392  12.439
25835W        W92244  10.313  11.777  10.584
25836W        W92245  33.036  43.811  14.678
25837W        W92246  41.657  12.620   3.796
25838W        W92247  25.813  43.486   2.663
25839W        W92248  29.863   3.219   9.772
25840W        W92249  30.873  23.296  12.402
25841W        W92250  13.731  42.570  13.422
25842W        W92251  17.601  26.093  11.534
25843W        W92252  21.783  28.758   0.725
25844W        W92253  18.447  43.293   0.488
25845W        W92254  21.812  32.989   4.127
25846W        W92255  17.509  37.038   2.672
25847W        W92256  26.427  23.526  14.927
25848W        W92257   6.536  25.445  11.322
25849W        W92258  18.235  38.098   1.232
25850W        W92259   4.337  36.865   4.089
25851W        W92260  28.442  20.641   0.392
25852W        W92261  25.764  33.668  12.266
25853W        W92262  28.390  43.424   3.367
25854W        W92263   3.958  42.259  14.074
25855W        W92264  30.017   2.083   2.882
25856W        W92265   5.439  41.527   4.660
25857W        W92266  30.834   7.879   1.894
25858W        W92267   2.332  14.363  10.293
25859W        W92268   9.179   0.384   3.093
25860W        W92269  36.809   3.912   1.344
25861W        W92270  32.678   3.480   3.055
25862W        W92271  30.178  41.385   0.790
25863W        W92272   5.843   3.949  13.838
25864W        W92273  15.187  39.523   0.426
25865W        W92274   5.072  38.787  14.029
25866W        W92275   2.911  21.055   4.924
25867W        W92276  27.642  37.657  11.128
25868W        W92277  23.183  34.026  13.966
25869W        W92278  12.200  42.474  14.859
25870W        W92279  30.554  28.678   4.466
25871W        W92280   8.287   4.606  13.596
25872W        W92281  34.211  38.900  12.014
25873W        W92282   8.489  12.313  12.147
25874W        W92283   6.112  11.798   1.194
25875W        W92284  21.066  30.882   3.910
25876W        W92285  26.958  32.930   0.468
25877W        W92286  18.632  33.821   4.707
25878W        W92287  44.052   4.732  12.410
25879W        W92288  32.317  26.424   4.509
25880W        W92289  19.530  22.956   1.074
25881W        W92290   7.601   7.904  12.839
25882W        W92291  16.309  40.978  10.269
25883W        W92292  44.308  11.229   1.165
25884W        W92293  13.287  25.469   0.371
25885W        W92294   0.949  10.818  13.996
25886W        W92295  13.210  34.484   4.110
25887W        W92296  20.221  21.288   3.175
25888W        W92297  38.555  43.769  13.386
25889W        W92298  21.085  16.625  12.931
25890W        W92299  16.843  43.271  12.910
25891W        W92300  20.059   3.483  14.862
25892W        W92301  22.032  19.581   2.265
25893W        W92302   3.398   2.420  12.433
25894W        W92303  40.947   7.311  10.570
25895W        W92304  22.056  27.932  11.537
25896W        W92305  17.635  43.013   1.644
25897W        W92306   6.829   2.223   4.467
25898W        W92307  15.627  15.530  11.682
25899W        W92308   6.196   6.787   1.464
25900W        W92309  12.080  16.231  10.970
25901W        W92310  22.021  41.375  12.484
25902W        W92311   7.714  24.742   2.518
25903W        W92312  12.306  23.288   0.371
25904W        W92313  18.126  41.566   4.988
25905W        W92314   9.332  44.022  14.790
25906W        W92315   0.501  33.158  12.505
25907W        W92316  28.196  43.198   1.293
25908W        W92317   0.029   7.310   4.505
25909W        W92318  42.437  42.521   4.222
25910W        W92319  44.936   9.604   3.009
25911W        W92320  11.403   7.781  12.637
25912W        W92321   1.406  12.330   4.795
25913W        W92322  23.623  33.513   1.968
25914W        W92323  26.085   2.417  14.940
25915W        W92324  28.232  35.382   0.346
25916W        W92325  13.856  41.777  12.070
25917W        W92326  34.077  24.282   4.151
25918W        W92327  16.794  41.526  13.520
25919W        W92328  15.605  33.044   4.652
25920W        W92329  21.453   2.356   0.821
25921W        W92330  34.741   5.885  14.838
25922W        W92331  28.597  24.645  11.517
25923W        W92332  34.796  20.758  10.520
25924W        W92333  43.706  39.116  13.753
25925W        W92334  18.304  43.866   3.102
25926W        W92335  34.523  19.218  10.718
25927W        W92336  33.898  39.336  14.028
25928W        W92337  20.369  26.932  14.367
25929W        W92338  40.491  24.791  11.908
25930W        W92339  41.447  27.333   4.143
25931W        W92340  11.234   0.381  13.870
25932W        W92341  16.888  19.194   0.314
25933W        W92342  36.963  34.641   4.771
25934W        W92343   6.881  12.889   2.364
25935W        W92344  22.983  13.895   1.781
25936W        W92345   7.621  25.108  14.784
25937W        W92346  31.626  26.200   4.594
25938W        W92347  32.717  12.981   4.094
25939W        W92348  39.065  37.459   4.477
25940W        W92349  33.807  20.251   3.750
25941W        W92350  36.397  24.211   1.218
25942W        W92351   3.833  36.581  12.533
25943W        W92352  27.991  12.634  11.313
25944W        W92353  15.354  10.699  12.043
25945W        W92354  12.700  31.564  11.919
25946W        W92355  17.960   6.609  11.109
25947W        W92356  17.256   3.832   2.209
25948W        W92357  29.954  10.722   3.633
25949W        W92358   1.540   8.333  10.269
25950W        W92359  24.711  15.049  11.449
25951W        W92360  30.876  38.972  12.984
25952W        W92361   2.449   8.662  14.329
25953W        W92362  32.537   7.615  12.586
25954W        W92363  25.365  39.460   0.902
25955W        W92364  43.389  24.156   2.771
25956W        W92365  19.020  37.463  11.593
25957W        W92366  13.798   4.912  12.966
25958W        W92367  17.321  37.787  14.030
25959W        W92368  13.116  17.836  13.458
25960W        W92369  36.102  26.696  11.011
25961W        W92370  25.537  17.027   2.941
25962W        W92371  25.249  22.669  10.846
25963W        W92372   8.251  11.005  13.546
25964W        W92373  28.619  32.061   2.725
25965W        W92374  25.455   2.823  13.034
25966W        W92375  30.685  31.510  14.115
25967W        W92376  34.390   2.444   2.718
25968W        W92377  34.399  31.729   1.166
25969W        W92378  18.617  28.102   0.749
25970W        W92379  35.621  42.377   0.278
25971W        W92380  36.991  20.831  10.240
25972W        W92381  40.641  21.063   3.733
25973W        W92382  43.292  36.798  10.361
25974W        W92383  37.050  44.587  14.578
25975W        W92384   8.784  15.508   4.705
25976W        W92385  36.866  21.724  13.951
25977W        W92386  39.418  33.557   4.169
25978W        W92387  17.720  22.569  11.677
25979W        W92388   8.287  32.628   1.016
25980W        W92389  40.754  23.709   3.304
25981W        W92390  30.995  18.443   4.551
25982W        W92391  20.657  43.140  12.090
25983W        W92392  25.447  34.528   0.885
25984W        W92393  33.116  27.517   1.489
25985W        W92394   2.431  23.004  12.300
25986W        W92395  24.196  12.684  14.301
25987W        W92396  30.405   6.386   2.222
25988W        W92397  39.888   8.950   3.186
25989W        W92398  24.559  19.227   1.772
25990W        W92399  24.587  11.925  14.672
25991W        W92400   5.344  27.123  11.499
25992W        W92401   5.993  22.625  11.143
25993W        W92402  44.381  26.250   3.514
25994W        W92403  11.893  41.736  11.155
25995W        W92404   0.494  39.082   1.302
25996W        W92405   6.172  33.920  14.977
25997W        W92406  43.382  39.473  13.191
25998W        W92407  35.853  40.271   1.661
25999W        W92408  21.164  32.560   4.009
26000W        W92409  32.938  23.609   2.723
26001W        W92410   5.898  42.460  14.860
26002W        W92411   4.768  22.520  11.960
26003W        W92412  42.034  27.303  12.495
26004W        W92413   9.151  10.212   1.444
26005W        W92414   5.700  36.520   4.657
26006W        W92415  32.616  25.481  10.988
26007W        W92416  27.918  29.570  11.073
26008W        W92417  30.085  40.900   3.556
26009W        W92418  34.664  22.820   3.838
26010W        W92419  31.898   8.816  11.244
26011W        W92420  13.211  18.759   3.212
26012W        W92421  15.289  38.104  13.481
26013W        W92422  23.008  42.829   2.721
26014W        W92423   8.842  27.513  10.647
26015W        W92424  34.658   3.119  12.132
26016W        W92425  28.007  44.864   2.661
26017W        W92426  21.556  41.845   4.622
26018W        W92427  33.727  20.106  13.834
26019W        W92428  33.295  27.637  11.946
26020W        W92429  42.389  42.678   3.213
26021W        W92430  17.646  38.503  13.358
26022W        W92431  19.592  24.704  11.588
26023W        W92432  39.551   1.751   1.730
26024W        W92433   8.775  18.315   2.132
26025W        W92434  26.434  31.899  10.832
26026W        W92435  29.224  37.566  11.436
26027W        W92436   6.239  25.664  12.637
26028W        W92437  25.003  19.767   4.514
26029W        W92438  21.032  29.194  11.725
26030W        W92439  27.492   5.645  12.504
26031W        W92440  26.860  41.787  11.337
26032W        W92441  30.637  19.497  11.120
26033W        W92442  41.058  32.350   0.843
26034W        W92443  11.088  20.668  11.216
26035W        W92444  11.750   9.148   0.024
26036W        W92445   8.267  22.575  14.039
26037W        W92446  20.849  22.647  11.455
26038W        W92447   2.945   5.938   0.936
26039W        W92448  34.503  32.183  11.513
26040W        W92449   7.801  35.394  10.718
26041W        W92450  44.270  20.907  14.692
26042W        W92451   2.770  14.687   1.392
26043W        W92452  27.612  32.753   0.278
26044W        W92453  40.805  10.746  13.005
26045W        W92454  18.999  21.009   0.929
26046W        W92455  24.245  39.185   1.217
26047W        W92456   3.888  35.644  11.178
26048W        W92457  20.810  37.530   0.548
26049W        W92458  29.878  23.042   0.677
26050W        W92459  35.952  38.792  11.589
26051W        W92460   6.592  10.674  14.374
26052W        W92461   5.023  20.058   1.812
26053W        W92462   2.993  37.640   3.669
26054W        W92463  29.230   6.787  11.745
26055W        W92464  21.265  33.379   2.704
26056W        W92465   0.481  35.890   1.326
26057W        W92466  23.169  43.013  10.696
26058W        W92467  34.888  35.106  11.174
26059W        W92468  39.809   5.780   2.480
26060W        W92469  39.315  10.860  12.135
26061W        W92470   0.879   1.172   1.287
26062W        W92471  41.241  27.954   1.797
26063W        W92472  20.019  32.093  12.582
26064W        W92473  22.423  17.703   1.612
26065W        W92474  30.595   8.691  10.596
26066W        W92475  29.337   1.530  14.702
26067W        W92476  14.280  11.078   0.884
26068W        W92477  35.302  43.299  14.366
26069W        W92478   3.879  38.061  12.792
26070W        W92479  22.309  18.234   0.459
26071W        W92480  32.083  39.570  11.169
26072W        W92481  38.645  38.998  10.575
26073W        W92482   7.420  11.357  12.085
26074W        W92483   4.795  30.010  14.407
26075W        W92484  36.574  30.152  14.521
26076W        W92485   6.421  37.332   3.781
26077W        W92486  23.614  27.773   4.170
26078W        W92487   5.225  41.285  12.547
26079W        W92488  18.084  12.223  13.537
26080W        W92489  16.375  24.492   3.652
26081W        W92490  30.455   3.386  14.709
26082W        W92491  14.760   4.577   2.805
26083W        W92492  18.984  22.283   4.666
26084W        W92493  16.220  13.868  11.608
26085W        W92494  44.718  25.483  14.943
26086W        W92495   1.884  31.494  12.579
26087W        W92496   1.159   2.737   1.177
26088W        W92497  26.640  31.438  10.722
26089W        W92498  15.898  10.279   3.686
26090W        W92499  12.166  17.992  14.236
26091W        W92500   1.702   5.826  12.372
26092W        W92501  10.576  13.183  10.659
26093W        W92502  14.548   1.772  12.205
26094W        W92503  15.619  36.061   1.270
26095W        W92504  24.087   2.466   0.390
26096W        W92505  21.551  35.934  12.589
26097W        W92506  31.564  34.708   2.726
26098W        W92507   2.759  44.956   1.445
26099W        W92508   9.844  27.170  13.604
26100W        W92509  23.513  13.650   0.366
26101W        W92510  18.539  26.412  14.441
26102W        W92511  27.757  21.604  10.491
26103W        W92512  18.818  38.424   3.685
26104W        W92513  17.748  15.814   2.659
26105W        W92514   2.763  29.476   4.417
26106W        W92515   7.170   5.353   4.674
26107W        W92516  13.794  41.434   2.327
26108W        W92517  25.288   9.327  13.739
26109W        W92518  29.992  33.619   3.719
26110W        W92519  14.158   7.428  12.434
26111W        W92520  43.982  44.331  12.470
26112W        W92521  22.112   8.499   0.356
26113W        W92522  27.648  38.758  14.485
26114W        W92523  29.920  16.555   2.384
26115W        W92524  26.437  13.378   2.210
26116W        W92525  19.530   2.348   2.173
26117W        W92526  17.263   1.866  12.491
26118W        W92527  35.397  10.250   4.159
26119W        W92528  40.952  42.716  14.698
26120W        W92529   5.371  17.656  11.781
26121W        W92530   8.686  35.827   2.407
26122W        W92531  39.211  23.590   3.274
26123W        W92532  38.358  16.065  14.221
26124W        W92533  25.577  32.081  14.044
26125W        W92534  40.930  38.059   2.204
26126W        W92535   0.144  31.876   4.579
26127W        W92536  22.466  23.871  13.360
26128W        W92537  22.233   8.126   1.727
26129W        W92538  18.675  24.659  10.558
26130W        W92539  31.594  43.238  14.410
26131W        W92540  22.654  30.867   4.256
26132W        W92541  28.204   9.270  11.568
26133W        W92542  21.085  10.615  13.894
26134W        W92543   4.337   9.370   4.070
26135W        W92544   0.003  13.870  13.766
26136W        W92545   0.926   8.437  10.635
26137W        W92546  23.568   2.316  12.470
26138W        W92547   4.612   9.582  13.478
26139W        W92548   7.110   7.138  12.950
26140W        W92549   8.852   3.405  13.479
26141W        W92550  13.310   3.435  13.308
26142W        W92551  28.380  12.682  14.992
26143W        W92552  12.843  24.934  11.512
26144W        W92553  10.369  40.446  10.503
26145W        W92554  12.219   9.958  13.497
26146W        W92555  27.054  22.071  11.521
26147W        W92556   6.403  10.471   3.837
26148W        W92557  31.077  43.668  13.020
26149W        W92558  22.820  14.556   4.600
26150W        W92559   6.482   4.514  14.253
26151W        W92560  12.800  33.654  14.910
26152W        W92561  44.412  30.159   2.658
26153W        W92562  13.039  43.406   1.423
26154W        W92563  23.998  33.358  12.227
26155W        W92564  19.026   8.480   4.115
26156W        W92565   2.054   5.717  11.089
26157W        W92566   9.928   8.069   2.288
26158W        W92567  32.303   1.232   3.694
26159W        W92568  31.577  20.247   2.857
26160W        W92569   3.228  16.407  11.462
26161W        W92570   1.855  17.048  13.794
26162W        W92571   5.258   9.446  10.393
26163W        W92572   8.240   6.896  10.673
26164W        W92573   3.513  31.443  14.033
26165W        W92574  18.232  14.300  13.354
26166W        W92575  15.475  26.754   4.091
26167W        W92576  21.078  20.090   1.329
26168W        W92577  25.951  18.788   4.577
26169W        W92578   5.088  30.702  12.520
26170W        W92579  26.222   7.795   4.181
26171W        W92580  32.685  26.503  13.496
26172W        W92581  39.894   1.164  11.141
26173W        W92582  21.033   5.399  11.650
26174W        W92583  32.166  23.185  11.217
26175W        W92584  34.586  40.256  14.808
26176W        W92585   5.833   0.566  13.064
26177W        W92586  37.133  21.685   4.016
26178W        W92587  20.984  23.995  11.355
26179W        W92588  22.693  30.074   2.382
26180W        W92589   0.849  16.943   4.166
26181W        W92590  38.903  35.570  11.947
26182W        W92591  41.346  32.915  12.422
26183W        W92592  25.444  28.863  12.490
26184W        W92593   6.213  34.119   2.808
26185W        W92594  22.015  25.930   1.103
26186W        W92595  15.585   2.533   4.245
26187W        W92596  28.472  33.668   2.332
26188W        W92597  20.588  23.807   2.753
26189W        W92598  42.063  21.160   2.238
26190W        W92599   6.145  31.045  14.794
26191W        W92600  12.390  39.944   1.297
26192W        W92601  38.879  22.267   0.736
26193W        W92602  22.972  13.870  13.649
26194W        W92603  28.478  33.127  11.693
26195W        W92604  24.242  30.877  11.124
26196W        W92605  25.347  31.877  14.949
26197W        W92606   4.701   9.190   4.769
26198W        W92607  36.170  22.525  11.228
26199W        W92608  40.841   8.218  10.682
26200W        W92609   1.268  35.033  13.448
26201W        W92610  41.314  24.177   4.898
26202W        W92611  29.196   5.419   1.616
26203W        W92612  18.911  31.092   1.905
26204W        W92613  38.896   2.485  10.639
26205W        W92614  12.772  44.505   2.040
26206W        W92615  43.979  17.761  14.482
26207W        W92616  18.903  13.233   3.858
26208W        W92617  18.101  13.808   2.288
26209W        W92618  19.127  10.099  13.319
26210W        W92619   7.956  34.700   3.278
26211W        W92620  11.439   4.042  14.951
26212W        W92621  43.033   5.835  14.702
26213W        W92622  31.403  41.280  11.164
26214W        W92623  29.414   4.617   3.255
26215W        W92624  11.950  35.718   3.922
26216W        W92625  16.670  41.120  12.142
26217W        W92626   5.656  19.234   3.207
26218W        W92627  15.116   6.602  12.048
26219W        W92628  40.434   0.784  12.549
26220W        W92629  18.266   0.235   2.347
26221W        W92630  13.840  25.250  10.584
26222W        W92631  34.540  33.958   4.607
26223W        W92632  33.139  19.397  13.775
26224W        W92633  32.473  25.450  12.897
26225W        W92634  41.457  30.085   4.060
26226W        W92635  16.876  14.866  12.453
26227W        W92636  44.334   6.195   4.887
26228W        W92637  28.308  26.057   1.743
26229W        W92638  16.599   0.842   0.846
26230W        W92639  16.785  13.975   4.215
26231W        W92640  41.550  24.232  12.146
26232W        W92641  22.176  25.791   2.258
26233W        W92642  11.644  28.947  14.929
26234W        W92643  33.097  23.016   1.778
26235W        W92644  40.009  24.475  12.556
26236W        W92645  39.915   1.605  10.703
26237W        W92646  21.658   7.382  11.997
26238W        W92647  24.127  19.008   1.536
26239W        W92648  10.858  19.076  12.481
26240W        W92649  35.012  21.643   1.762
26241W        W92650  23.722  23.779  13.644
26242W        W92651  20.991   9.123   3.667
26243W        W92652  39.580   5.907  14.830
26244W        W92653   4.306   9.300  11.855
26245W        W92654  15.263  26.042  14.163
26246W        W92655   5.872  41.497   4.368
26247W        W92656  15.337  16.694   3.807
26248W        W92657  42.956  14.574  13.354
26249W        W92658  29.286  30.951   1.182
26250W        W92659  42.451  38.150  13.786
26251W        W92660   7.739  37.563   4.257
26252W        W92661  34.733  15.565  11.914
26253W        W92662   7.318  44.705  14.362
26254W        W92663   4.721  20.623  12.659
26255W        W92664  35.588  36.880   4.292
26256W        W92665  22.790  35.387  11.591
26257W        W92666  39.817  23.211  14.290
26258W        W92667  43.744   9.823  11.688
26259W        W92668  32.599  37.372  11.137
26260W        W92669   7.795  19.083  13.621
26261W        W92670  18.431  17.124  13.580
26262W        W92671  13.318   4.013  11.817
26263W        W92672  12.258  27.537   2.784
26264W        W92673  18.034  44.316   0.940
26265W        W92674  11.937  43.477  13.531
26266W        W92675  28.175  26.506  14.307
26267W        W92676   2.208   6.384   2.790
26268W        W92677  12.031  13.111   4.529
26269W        W92678  42.761   6.468  12.415
26270W        W92679   0.732  43.268  13.555
26271W        W92680  19.739  24.069  13.450
26272W        W92681   0.418   0.377   2.880
26273W        W92682  40.052  39.280   3.822
26274W        W92683   1.889  26.644   2.635
26275W        W92684  22.714   7.183  13.009
26276W        W92685   6.679  24.072   1.127
26277W        W92686  40.067   6.267  10.775
26278W        W92687  32.306  43.879  14.121
26279W        W92688  29.345  16.887  10.620
26280W        W92689  35.359   6.698  13.982
26281W        W92690  37.933  37.566  11.579
26282W        W92691  41.459   3.811   1.743
26283W        W92692  26.436  42.053  11.327
26284W        W92693  28.600  28.290   2.185
26285W        W92694  13.631  37.342   0.640
26286W        W92695  33.452   9.855   1.645
26287W        W92696  30.476  30.120   1.629
26288W        W92697  17.328   9.787   4.866
26289W        W92698   3.318  22.387  10.140
26290W        W92699  15.603   0.604   2.727
26291W        W92700  42.379  34.208   1.010
26292W        W92701   0.451  12.696   2.846
26293W        W92702  27.274   6.899  13.125
26294W        W92703  21.768  32.275   3.660
26295W        W92704  28.086   8.412   2.654
26296W        W92705  27.080  36.817   0.555
26297W        W92706  22.569  10.680  12.881
26298W        W92707   5.869  44.427  14.514
26299W        W92708  23.005   4.984  12.501
26300W        W92709   1.240  22.569   2.727
26301W        W92710  22.060  15.519  13.574
26302W        W92711  32.884  24.049   1.698
26303W        W92712  30.473  18.547  13.729
26304W        W92713  26.637  35.896   4.151
26305W        W92714  19.732   6.620   2.603
26306W        W92715  44.282  13.118   4.602
26307W        W92716  29.181  15.684  13.112
26308W        W92717  34.813   3.249   2.396
26309W        W92718  13.245  13.838  13.043
26310W        W92719   1.315  27.226   3.472
26311W        W92720   7.340  10.611  10.860
26312W        W92721  33.183  25.732   1.194
26313W        W92722  11.301  10.417   1.738
26314W        W92723  32.661  10.880   1.401
26315W        W92724  43.132  39.658   0.411
26316W        W92725  43.193  44.509  13.094
26317W        W92726  26.675  19.225   3.618
26318W        W92727  22.210  36.584  11.145
26319W        W92728  43.490  30.480  14.409
26320W        W92729  27.909  43.671  11.978
26321W        W92730  28.889  42.853  10.748
26322W        W92731  14.248  26.668   2.438
26323W        W92732  23.433   3.189  12.649
26324W        W92733  37.449  26.494   0.525
26325W        W92734  25.925   3.609   3.691
26326W        W92735  18.198  43.403  10.647
26327W        W92736   0.235  10.151  12.060
26328W        W92737  34.195   4.841   2.807
26329W        W92738  16.289  30.938   0.410
26330W        W92739  33.502   5.196   3.866
26331W        W92740  35.535  44.533   3.332
26332W        W92741  39.901  17.893  13.620
26333W        W92742  19.736  35.299  14.696
26334W        W92743   8.297  21.603  11.601
26335W        W92744  22.694  15.203   3.951
26336W        W92745   9.511   3.307  12.089
26337W        W92746  29.231  15.566  14.899
26338W        W92747  29.255  39.731   3.158
26339W        W92748   0.609  42.474  14.015
26340W        W92749  19.804  26.873  10.843
26341W        W92750   1.770  20.852   1.721
26342W        W92751   1.254  38.990   4.568
26343W        W92752  18.137  34.988   0.261
26344W        W92753  42.028  40.527  14.918
26345W        W92754  10.257  43.772   0.010
26346W        W92755   3.427   5.527   2.814
26347W        W92756  32.074  27.571  10.986
26348W        W92757  30.411  23.904  14.930
26349W        W92758  20.129  11.671   3.614
26350W        W92759  34.919  42.302   1.380
26351W        W92760  30.940  19.066   1.204
26352W        W92761  28.113  42.831   1.939
26353W        W92762  20.042   8.113  13.891
26354W        W92763  39.542  32.032   2.254
26355W        W92764   4.648  34.962   3.677
26356W        W92765  35.500  42.356  11.871
26357W        W92766  42.166  23.988   3.755
26358W        W92767   6.348   8.793   4.969
26359W        W92768  25.132   5.495  13.186
26360W        W92769   9.734  11.717   4.567
26361W        W92770  23.568   5.979   0.576
26362W        W92771  36.452  22.200  12.633
26363W        W92772  35.370  34.984  13.751
26364W        W92773  41.404  23.775  10.648
26365W        W92774  38.300   2.820   4.188
26366W        W92775  33.977  12.573  11.265
26367W        W92776  34.812  25.114  13.827
26368W        W92777  30.486  34.048  12.909
26369W        W92778  29.895  41.294   1.262
26370W        W92779  10.172  12.111  11.607
26371W        W92780  16.764  44.756  11.907
26372W        W92781   2.914  10.948   3.574
26373W        W92782  33.715  16.551   1.777
26374W        W92783  18.046  38.171  14.259
26375W        W92784  39.383  16.752   2.250
26376W        W92785  10.720   2.271   0.878
26377W        W92786  42.742  28.354  13.855
26378W        W92787  37.906  38.983  11.920
26379W        W92788   5.170  22.649   4.109
26380W        W92789   5.056   0.380  14.186
26381W        W92790  34.472   0.274  12.388
26382W        W92791   1.394  11.053  13.269
26383W        W92792  17.326  37.550   2.718
26384W        W92793   0.512   5.647   0.194
26385W        W92794  39.101   9.281  12.543
26386W        W92795  22.181  36.638   1.566
26387W        W92796  13.954  33.665  14.265
26388W        W92797   4.019  27.450  10.156
26389W        W92798  19.705  21.854  13.873
26390W        W92799  41.389  27.967  11.427
26391W        W92800  36.502   2.787  12.095
26392W        W92801  33.260  16.705  12.277
26393W        W92802  16.201  43.033   3.342
26394W        W92803  43.831  25.529   3.139
26395W        W92804  30.142  37.255   2.771
26396W        W92805  37.980  16.211   4.521
26397W        W92806  17.095  21.794   1.042
26398W        W92807   8.355  41.756   0.415
26399W        W92808  20.310  16.813  14.811
26400W        W92809  13.306  30.606   0.507
26401W        W92810   8.812   4.038  14.583
26402W        W92811  41.246  40.069   0.273
26403W        W92812  15.182   0.027  14.007
26404W        W92813  41.949  13.502   0.758
26405W        W92814   6.254  15.578   4.146
26406W        W92815  27.933   7.072   4.843
26407W        W92816  39.736  18.112   3.169
26408W        W92817  36.015  27.488   1.942
26409W        W92818  31.442  16.572   0.370
26410W        W92819   5.898  20.643  14.770
26411W        W92820  37.949  14.583  12.630
26412W        W92821  43.479  41.422  10.641
26413W        W92822   1.954  41.464  12.845
26414W        W92823  11.272   9.644   1.311
26415W        W92824   3.788   8.522   0.167
26416W        W92825   1.922  17.251  11.924
26417W        W92826  38.909  16.016  13.358
26418W        W92827  21.125   0.794   2.608
26419W        W92828  29.611  18.984  13.351
26420W        W92829  25.152   3.648  13.184
26421W        W92830  13.749  23.632  12.340
26422W        W92831  18.971  27.164   1.856
26423W        W92832  37.516  30.335   3.802
26424W        W92833  35.868  34.496  10.711
26425W        W92834  31.096  43.492  10.674
26426W        W92835  25.970  23.303   0.192
26427W        W92836  20.921  13.232  11.399
26428W        W92837  19.016  32.788   4.004
26429W        W92838   8.888   0.158   0.888
26430W        W92839   9.689  36.737   2.703
26431W        W92840  21.167  14.015  11.300
26432W        W92841   7.392  24.722   3.535
26433W        W92842   9.146   9.457   1.687
26434W        W92843   3.596  32.703   0.853
26435W        W92844  28.249  25.924   2.699
26436W        W92845  20.276   0.524   3.104
26437W        W92846  30.404  42.740   2.823
26438W        W92847  29.697  19.332  10.355
26439W        W92848  18.412  36.079  10.594
26440W        W92849   5.676  27.226  14.470
26441W        W92850  15.170  36.120   4.530
26442W        W92851   5.779  22.024  10.558
26443W        W92852   6.673  28.118   3.517
26444W        W92853  25.223  17.609  14.853
26445W        W92854  39.592  20.208  10.281
26446W        W92855   7.851  14.959   3.608
26447W        W92856  44.421  37.037  14.347
26448W        W92857   4.000  43.564   0.823
26449W        W92858  10.368  22.678   2.158
26450W        W92859  29.228   5.100  10.614
26451W        W92860   8.394   2.125   5.169
26452W        W92861   9.664  25.456  10.542
26453W        W92862  15.786  33.314   0.424
26454W        W92863  40.266  27.007  10.624
26455W        W92864  10.646   6.834   3.599
26456W        W92865  17.892  20.375  14.853
26457W        W92866   1.913  44.965  10.935
26458W        W92867  21.495  12.264  11.493
26459W        W92868  19.040  20.082  12.490
26460W        W92869  13.637  29.490  14.049
26461W        W92870  31.281  18.580   3.656
26462W        W92871  14.215  23.987   3.277
26463W        W92872   1.529   4.622   0.469
26464W        W92873  16.619   8.209  13.321
26465W        W92874  30.614  22.878   1.355
26466W        W92875  16.740   5.843   3.650
26467W        W92876  15.553   5.846  10.076
26468W        W92877   5.118  43.884  11.119
26469W        W92878  29.517   5.512   0.181
26470W        W92879   0.943  25.472  12.582
26471W        W92880  24.259   6.746   4.105
26472W        W92881  41.930  22.634  10.551
26473W        W92882  27.142  23.099  12.432
26474W        W92883  12.375   6.579   3.746
26475W        W92884  25.227   7.928   4.283
26476W        W92885   3.264  41.610   4.173
26477W        W92886  14.773  38.307   0.769
26478W        W92887  34.525  38.460  11.943
26479W        W92888  41.777  24.651  12.925
26480W        W92889  28.392   0.212   2.777
26481W        W92890   8.577  42.799  12.481
26482W        W92891  29.277  42.543   4.165
26483W        W92892   3.706  40.033  12.963
26484W        W92893   9.755  27.604   2.782
26485W        W92894  32.325  32.974  14.849
26486W        W92895  27.395  28.500  12.053
26487W        W92896   6.806  35.332   3.217
26488W        W92897  38.104  21.352   9.983
26489W        W92898  40.764  34.697  11.521
26490W        W92899   2.685  34.049  12.447
26491W        W92900  32.314  37.857  11.043
26492W        W92901  25.677   6.666   4.588
26493W        W92902  20.766  12.127  11.977
26494W        W92903  37.620  36.343  13.511
26495W        W92904  38.740  20.128   2.436
26496W        W92905  16.689  27.327   0.194
26497W        W92906  27.633   6.118  11.533
26498W        W92907  11.806  27.793  10.688
26499W        W92908   0.018  38.851   2.701
26500W        W92909  24.679  36.934   4.195
26501W        W92910  16.439  19.821   4.215
26502W        W92911  25.137  25.060  13.825
26503W        W92912  17.804  17.832   3.079
26504W        W92913  19.174   9.647  13.008
26505W        W92914  13.820  42.949   2.295
26506W        W92915  39.723  42.961   2.713
26507W        W92916  25.299   6.864  13.150
26508W        W92917  22.517  27.880  13.716
26509W        W92918  33.073  29.016  12.135
26510W        W92919  30.935  41.330  13.286
26511W        W92920  43.360  11.182   0.767
26512W        W92921  43.222  44.424   4.228
26513W        W92922  35.987   4.449   1.140
26514W        W92923  39.013  14.494   1.402
26515W        W92924  35.006  44.767   3.745
26516W        W92925   5.187  37.540  12.989
26517W        W92926  19.517  22.044  13.432
26518W        W92927  27.298   2.608   4.390
26519W        W92928  21.471  39.105   1.389
26520W        W92929  25.184  20.629   5.559
26521W        W92930   5.114  35.148  13.459
26522W        W92931  23.723  11.900   4.686
26523W        W92932  28.621  37.033  10.387
26524W        W92933  38.800  26.576   0.423
26525W        W92934  33.967  26.028  12.497
26526W        W92935  11.128  25.784  14.540
26527W        W92936  20.062  35.486   2.785
26528W        W92937  39.837  11.308  14.989
26529W        W92938   3.948   2.560  14.024
26530W        W92939  29.490   8.897   2.272
26531W        W92940  43.941  12.258  11.136
26532W        W92941   2.314  42.515   3.715
26533W        W92942   7.883  44.387   4.664
26534W        W92943   9.754  31.530  14.856
26535W        W92944  18.977  17.565  11.658
26536W        W92945  21.049  41.128  14.727
26537W        W92946  29.272  11.690   2.736
26538W        W92947   9.381  35.440   4.666
26539W        W92948  29.914  34.260   0.262
26540W        W92949  26.868  21.439   4.672
26541W        W92950   7.899  38.779   3.494
26542W        W92951  21.085  24.149  13.387
26543W        W92952  22.623  27.462   0.827
26544W        W92953   0.165  30.083  10.596
26545W        W92954   4.340   2.046  14.290
26546W        W92955  15.748  11.349  11.642
26547W        W92956  41.597   8.749   2.745
26548W        W92957   1.274  11.779   2.879
26549W        W92958  41.926   8.646   5.450
26550W        W92959   6.226  16.182   2.459
26551W        W92960  30.534  24.941   1.437
26552W        W92961  28.595  33.900  11.337
26553W        W92962  21.994   5.846   3.283
26554W        W92963  36.465  36.066   3.537
26555W        W92964   1.133  31.167  14.386
26556W        W92965  35.144  28.717  11.602
26557W        W92966  35.592   5.951  14.431
26558W        W92967   2.861  16.596   4.401
26559W        W92968  27.947  36.802   0.267
26560W        W92969  34.893  35.857  12.433
26561W        W92970  26.732  15.182   4.977
26562W        W92971  43.458  34.841   4.232
26563W        W92972  39.954  19.483   4.062
26564W        W92973  20.277  38.808  13.239
26565W        W92974   8.953  12.910  12.996
26566W        W92975  25.027  30.834   4.054
26567W        W92976  25.199  28.945  12.052
26568W        W92977  12.876   6.751  12.037
26569W        W92978  26.977   5.230   4.398
26570W        W92979  12.194  44.650   3.691
26571W        W92980   9.398  37.015  12.858
26572W        W92981  27.109   6.175   3.697
26573W        W92982  37.379  32.563  11.038
26574W        W92983  42.362  16.569  11.156
26575W        W92984  12.310  24.163  10.661
26576W        W92985  43.102  20.938  10.760
26577W        W92986   8.715  20.657  13.810
26578W        W92987  30.150  26.754   2.226
26579W        W92988   9.756   9.772   0.741
26580W        W92989  44.284  43.821   0.052
26581W        W92990   3.458   5.450  11.730
26582W        W92991  24.558  22.407  12.602
26583W        W92992   1.191  33.385  12.078
26584W        W92993  13.315   5.388   0.064
26585W        W92994   5.452  25.627  10.610
26586W        W92995  27.021   2.303   1.099
26587W        W92996   5.801   1.433  11.767
26588W        W92997  10.892   4.821  13.099
26589W        W92998   3.973  35.068  12.908
26590W        W92999   7.697  23.102   3.657
26591W        W93000  22.013  40.951  14.345
26592W        W93001  42.255  41.320   3.563
26593W        W93002   4.946  42.572   0.963
26594W        W93003  27.401  23.158   1.197
26595W        W93004   4.014  39.824   4.430
26596W        W93005  35.631  12.130   2.476
26597W        W93006  29.464  20.697  11.512
26598W        W93007  35.581  40.467   0.381
26599W        W93008  28.261  19.322  11.604
26600W        W93009  43.448  36.311   3.207
26601W        W93010  43.953  31.566   1.845
26602W        W93011  20.473  38.312   2.638
26603W        W93012  35.853   0.819  14.861
26604W        W93013  34.201  25.684  14.359
26605W        W93014   0.392  13.783   1.228
26606W        W93015  26.100  33.818  14.033
26607W        W93016  14.847  10.753   3.171
26608W        W93017  18.987  38.357  10.531
26609W        W93018  20.849  13.161  10.564
26610W        W93019  15.621  30.368  11.681
26611W        W93020  14.550   4.592  12.078
26612W        W93021  24.159  18.622   2.480
26613W        W93022   9.327  17.620   5.006
26614W        W93023  32.861  21.678   4.768
26615W        W93024  15.337  17.758  13.423
26616W        W93025  30.891  43.572   0.025
26617W        W93026  42.103  42.696  12.928
26618W        W93027  16.747  30.217   0.455
26619W        W93028  10.763  34.149   4.774
26620W        W93029  17.612   6.715   3.708
26621W        W93030   4.939   0.894  13.500
26622W        W93031  28.725  18.831   2.390
26623W        W93032  16.816  41.360   2.878
26624W        W93033  13.636  30.525  10.588
26625W        W93034   3.802  38.506   4.292
26626W        W93035   8.260  41.053  11.711
26627W        W93036   4.334  19.373  10.990
26628W        W93037   4.270  35.581   3.708
26629W        W93038  16.841  22.523  13.824
26630W        W93039  16.368  27.013  13.870
26631W        W93040  27.425  43.483   0.042
26632W        W93041  31.384  38.899  12.991
26633W        W93042  11.784  18.235  12.023
26634W        W93043  22.491   5.429  14.759
26635W        W93044  39.879   8.706  10.574
26636W        W93045   4.939  17.469   2.367
26637W        W93046   3.219  42.742   2.384
26638W        W93047  32.948  15.783   0.906
26639W        W93048  12.883  31.884  14.314
26640W        W93049  29.810  12.786  12.573
26641W        W93050   1.866  20.679  13.340
26642W        W93051  27.572  21.980   4.788
26643W        W93052  37.023  13.061   0.836
26644W        W93053  33.869  13.081   1.733
26645W        W93054   7.326  18.275  14.488
26646W        W93055  41.523  33.361   2.765
26647W        W93056  28.934  12.332  12.489
26648W        W93057  14.568   8.310   2.919
26649W        W93058  19.548   1.744  12.166
26650W        W93059  20.135  40.539  14.436
26651W        W93060   7.325  29.646  10.835
26652W        W93061  16.094  39.390  11.226
26653W        W93062   2.440  26.674   2.825
26654W        W93063   8.897  21.765  10.540
26655W        W93064   5.134  28.543   4.935
26656W        W93065  36.790  44.363   0.727
26657W        W93066   9.881  16.788   2.175
26658W        W93067   9.806  37.859   1.305
26659W        W93068  33.135  36.278  11.980
26660W        W93069  23.075  33.041   0.534
26661W        W93070   1.325  40.890   4.563
26662W        W93071  39.808   1.553   0.917
26663W        W93072  32.817   3.006  12.962
26664W        W93073  41.394   0.219   0.392
26665W        W93074  26.982  15.991  12.033
26666W        W93075  27.388   7.347  13.351
26667W        W93076  37.396  14.734  11.185
26668W        W93077  26.514   5.143   4.100
26669W        W93078  12.774  22.121  10.620
26670W        W93079  40.783  28.961  12.075
26671W        W93080  33.623  32.954   2.334
26672W        W93081   3.863  17.890   0.473
26673W        W93082   7.789  17.803   4.616
26674W        W93083  10.171  21.103   2.755
26675W        W93084   5.923  12.800  12.460
26676W        W93085   3.793  28.470   2.136
26677W        W93086  19.809  36.014   0.476
26678W        W93087  41.979  27.341   4.086
26679W        W93088  35.122   9.273   3.217
26680W        W93089  24.758   7.991  14.864
26681W        W93090  39.306  36.411  13.949
26682W        W93091  18.713  10.340  10.554
26683W        W93092  42.103  34.824  11.233
26684W        W93093  33.961  37.743   5.034
26685W        W93094  13.313  38.246  12.423
26686W        W93095   1.135  16.149   3.649
26687W        W93096   2.451  32.627  13.285
26688W        W93097   0.822  13.900  12.483
26689W        W93098  41.400  33.622  13.945
26690W        W93099  24.181  19.545  11.108
26691W        W93100  30.598   1.362   1.868
26692W        W93101  30.941   7.213   0.844
26693W        W93102  11.399  17.235  13.869
26694W        W93103  14.790   2.287  12.508
26695W        W93104  36.616   0.155  12.847
26696W        W93105  10.201  36.578   3.328
26697W        W93106  29.493  13.825  14.568
26698W        W93107   5.828   6.374  10.433
26699W        W93108  23.434  21.288  12.927
26700W        W93109   0.845  20.924  10.064
26701W        W93110  28.464  42.548  10.815
26702W        W93111   8.394   2.814   4.141
26703W        W93112  22.549  18.426  10.860
26704W        W93113  24.519  14.171  10.967
26705W        W93114  41.513  15.280   4.785
26706W        W93115   6.973   7.985  11.078
26707W        W93116  35.860   1.609  12.031
26708W        W93117  42.940  15.010   4.300
26709W        W93118  29.227   7.392  13.843
26710W        W93119  15.053  44.451   4.126
26711W        W93120  13.094  19.689  10.670
26712W        W93121  33.677  41.821   4.132
26713W        W93122  18.481  26.484   5.018
26714W        W93123  23.592  12.296  13.706
26715W        W93124  10.141  32.467  11.564
26716W        W93125   5.939   1.479   3.368
26717W        W93126   0.889  41.863   1.912
26718W        W93127   7.229  40.825  12.390
26719W        W93128  14.895  23.280  13.013
26720W        W93129  26.151  16.124   2.959
26721W        W93130  36.837  28.016  14.836
26722W        W93131  34.993  11.318  14.258
26723W        W93132  13.348  23.039   2.505
26724W        W93133   2.793  42.839  11.954
26725W        W93134  17.646  18.055  12.434
26726W        W93135   6.932  30.530  13.859
26727W        W93136   8.152  44.631   5.169
26728W        W93137  38.170  41.917  14.048
26729W        W93138   9.375   0.419   1.370
26730W        W93139  24.805  34.143   1.468
26731W        W93140  14.663  40.734   1.894
26732W        W93141  15.655   8.004   1.246
26733W        W93142  44.455  16.298  14.006
26734W        W93143  27.157   0.971   0.863
26735W        W93144  42.755  23.903   1.213
26736W        W93145  40.761  35.248   3.842
26737W        W93146  32.127  29.292   1.441
26738W        W93147  11.189  15.502  14.191
26739W        W93148  32.620  39.997   4.803
26740W        W93149  38.906  32.580  14.788
26741W        W93150  42.853   4.260  14.365
26742W        W93151  32.591  18.384  13.350
26743W        W93152  41.571  25.753  14.328
26744W        W93153   4.783  31.609  14.787
26745W        W93154   0.481  28.667  11.299
26746W        W93155   3.385  18.019   0.275
26747W        W93156  30.635  31.948  13.347
26748W        W93157  10.866  40.369   1.712
26749W        W93158  13.762  20.694   9.920
26750W        W93159  38.812   0.362  10.269
26751W        W93160   4.832  23.923  14.699
26752W        W93161   4.402  25.933  10.846
26753W        W93162   4.914   3.020  11.034
26754W        W93163  16.813  19.978   0.513
26755W        W93164  21.310  38.797   0.060
26756W        W93165   5.761  16.591  12.447
26757W        W93166  32.990  38.751  11.482
26758W        W93167  21.181  44.207   1.212
26759W        W93168  17.118   9.609  14.554
26760W        W93169  13.868  42.681  14.348
26761W        W93170  34.981  40.434  14.478
26762W        W93171  15.252  40.776   2.405
26763W        W93172  44.059  37.714   4.898
26764W        W93173  38.782   7.245   0.861
26765W        W93174   4.668  13.296  11.164
26766W        W93175  13.436   0.630   3.080
26767W        W93176  38.908   4.467  10.469
26768W        W93177  14.591  23.051  11.538
26769W        W93178  20.165  42.798   4.536
26770W        W93179  26.509  33.011   2.693
26771W        W93180  23.027  39.807  12.503
26772W        W93181   3.325  36.773   3.254
26773W        W93182  33.612   4.452   0.391
26774W        W93183  17.189  12.556  13.458
26775W        W93184  20.959  38.069  12.853
26776W        W93185  21.421  15.021   0.840
26777W        W93186  15.121   0.916   1.818
26778W        W93187  18.505  33.466  11.531
26779W        W93188  14.319  20.019  11.118
26780W        W93189  26.910  42.267  11.521
26781W        W93190   9.198  22.598   2.332
26782W        W93191  36.546   4.347  10.730
26783W        W93192  32.048  12.896  11.999
26784W        W93193  30.684  34.706   3.857
26785W        W93194  22.967  42.434   4.362
26786W        W93195  23.667  20.555  12.635
26787W        W93196  37.533  30.874   4.614
26788W        W93197   4.303  17.288  11.081
26789W        W93198   5.195  41.003  14.958
26790W        W93199  10.410  32.841  11.316
26791W        W93200  35.166  36.418   2.215
26792W        W93201  25.042  25.581  13.416
26793W        W93202   4.795  19.012   0.347
26794W        W93203  18.488  29.246  13.955
26795W        W93204  27.929   0.747  13.009
26796W        W93205  38.653   1.277  10.474
26797W        W93206  33.884  14.817  13.345
26798W        W93207  30.493  22.384   0.071
26799W        W93208  43.727   9.706   1.313
26800W        W93209  36.283  26.508  13.661
26801W        W93210  18.732   3.495   1.732
26802W        W93211  13.066  33.594   4.588
26803W        W93212  10.230   2.274  10.785
26804W        W93213  41.596  32.744   3.724
26805W        W93214  28.242   7.413   2.859
26806W        W93215  11.873  33.867  11.624
26807W        W93216   1.461  37.828   2.667
26808W        W93217  44.674  24.424   0.050
26809W        W93218  32.891  43.321  14.766
26810W        W93219   2.334  26.869   1.370
26811W        W93220  29.061  21.520   2.811
26812W        W93221  31.190  14.606   1.278
26813W        W93222  29.770  20.185  13.521
26814W        W93223  31.698   7.294   4.055
26815W        W93224  34.072   5.798  11.068
26816W        W93225  20.632  31.030   3.643
26817W        W93226  38.444  13.302   4.151
26818W        W93227  32.178  31.851   1.389
26819W        W93228  11.606  19.751  12.260
26820W        W93229  28.990  25.623  11.982
26821W        W93230  15.369  34.911  13.413
26822W        W93231  40.066  33.332  12.100
26823W        W93232   6.278  22.171  10.348
26824W        W93233  37.408  38.086   4.495
26825W        W93234  24.492  42.251  12.980
26826W        W93235  43.570  15.594  12.710
26827W        W93236   6.663  38.023   0.775
26828W        W93237  35.543  32.093  12.574
26829W        W93238  38.438  30.941  13.931
26830W        W93239  38.527  16.346   4.605
26831W        W93240  19.028  22.172  14.791
26832W        W93241  33.106  37.445  12.047
26833W        W93242  18.721  34.938  12.536
26834W        W93243  21.803  16.774  10.699
26835W        W93244  11.230  20.683   0.958
26836W        W93245  44.866  42.872   3.992
26837W        W93246  14.682  12.269  13.749
26838W        W93247  15.137  30.276   4.016
26839W        W93248  23.945  32.519   1.314
26840W        W93249  29.957  43.974  14.093
26841W        W93250  25.007  11.832   2.315
26842W        W93251  19.207   0.878   3.159
26843W        W93252  39.365  18.687   5.412
26844W        W93253  18.834   2.310  13.889
26845W        W93254  41.058  39.065  13.276
26846W        W93255  21.305  21.564   1.281
26847W        W93256  41.651   8.189  10.264
26848W        W93257  22.316   2.415   4.182
26849W        W93258  35.534  27.025  13.428
26850W        W93259  43.086   5.871   3.589
26851W        W93260  22.567   5.399  10.744
26852W        W93261  12.223  40.028   1.834
26853W        W93262  18.162   5.337   1.901
26854W        W93263  36.150  23.754   1.439
26855W        W93264  15.590   3.531  11.351
26856W        W93265  18.749  16.789   1.889
26857W        W93266  32.396  10.238   0.370
26858W        W93267  29.316  29.437   0.770
26859W        W93268  41.988  13.902  14.811
26860W        W93269  36.914  37.891  12.938
26861W        W93270  36.467  25.206   5.261
26862W        W93271  33.360  36.922  11.254
26863W        W93272  42.727   3.665  13.034
26864W        W93273   3.171  43.851   1.927
26865W        W93274   8.316   3.637   3.678
26866W        W93275  22.384   1.753  12.118
26867W        W93276  12.187  22.054   0.788
26868W        W93277  26.129  40.595  13.503
26869W        W93278   7.739  30.637   3.197
26870W        W93279  39.703  41.387   1.433
26871W        W93280  39.020  28.169   0.886
26872W        W93281  39.403  32.728  13.372
26873W        W93282   8.225   4.434  14.160
26874W        W93283  17.354   6.366   2.763
26875W        W93284   0.304  40.152   4.201
26876W        W93285   1.267  37.878   4.102
26877W        W93286  40.753  14.118   1.356
26878W        W93287  24.538   1.223   0.160
26879W        W93288  39.442  14.729  12.680
26880W        W93289  42.342  25.265  13.113
26881W        W93290   5.928  36.423   3.798
26882W        W93291  39.910   1.498   0.424
26883W        W93292   7.574  43.562   4.333
26884W        W93293  23.683  16.094  11.590
26885W        W93294  42.830   7.765   0.980
26886W        W93295  14.626   2.709  12.260
26887W        W93296  20.219  14.644   3.728
26888W        W93297  14.289  37.043  14.017
26889W        W93298   7.057   7.002  11.129
26890W        W93299   1.027  43.582  12.985
26891W        W93300  17.237  21.288   1.192
26892W        W93301   5.821  14.351   2.101
26893W        W93302  20.234   7.233  12.083
26894W        W93303   3.793  20.014  11.976
26895W        W93304  30.983  24.115  11.576
26896W        W93305  25.577  12.377  13.864
26897W        W93306  41.163  10.443   4.070
26898W        W93307  19.512   0.367  10.608
26899W        W93308  39.570  37.164  11.051
26900W        W93309  22.259  37.964   4.761
26901W        W93310  27.557  18.005  11.555
26902W        W93311  41.493  18.686   4.649
26903W        W93312   1.208  14.838  12.472
26904W        W93313  17.271  23.965  11.130
26905W        W93314   8.297  30.476   1.194
26906W        W93315  20.502  14.742   1.338
26907W        W93316  20.611  23.022   4.688
26908W        W93317  21.965  21.865   4.233
26909W        W93318   1.795  36.540   4.530
26910W        W93319  39.490  29.522  10.649
26911W        W93320  28.509  18.768   1.303
26912W        W93321  42.465  35.019  12.584
26913W        W93322  16.812  41.449   0.398
26914W        W93323   2.123  13.765  12.989
26915W        W93324   9.846  16.082   4.990
26916W        W93325  44.004  31.940   0.781
26917W        W93326   0.508   2.268   2.241
26918W        W93327  20.647  29.003  14.052
26919W        W93328  33.309  40.390   0.242
26920W        W93329  15.890  34.816  13.353
26921W        W93330   4.718  37.151  12.442
26922W        W93331  31.697  23.027  12.171
26923W        W93332  42.846  25.923   2.590
26924W        W93333   6.092   6.015  13.901
26925W        W93334  22.524   2.873   1.803
26926W        W93335  19.068  29.876   4.976
26927W        W93336  28.994  16.517  10.712
26928W        W93337  28.444  28.737  11.999
26929W        W93338   5.860  16.334   3.173
26930W        W93339  38.629  21.823   0.850
26931W        W93340   2.183  14.603   2.135
26932W        W93341  28.316   3.623   0.938
26933W        W93342  16.991  30.490   5.045
26934W        W93343   0.032   6.706  13.930
26935W        W93344  41.806  23.713   4.257
26936W        W93345   3.514  35.045   1.334
26937W        W93346   2.465  28.470   4.134
26938W        W93347  31.539   1.184   4.099
26939W        W93348   8.127  27.441   2.782
26940W        W93349  37.091  43.318   4.435
26941W        W93350  39.628  39.556   2.953
26942W        W93351  16.188  12.784   4.654
26943W        W93352  18.510  20.890   1.736
26944W        W93353  33.598  34.654   0.769
26945W        W93354  31.039   4.257  13.491
26946W        W93355  16.629  24.887   1.913
26947W        W93356  27.237  24.480   3.031
26948W        W93357   0.372   5.264  13.949
26949W        W93358  26.710  26.207  13.901
26950W        W93359  32.087  33.373  12.579
26951W        W93360   7.682  19.494  12.836
26952W        W93361   5.979  35.162  13.025
26953W        W93362  25.784  19.994  12.425
26954W        W93363  41.102  25.189  13.426
26955W        W93364   2.310  44.410   5.017
26956W        W93365   9.578   6.778   2.080
26957W        W93366  30.665   2.833   3.169
26958W        W93367  36.525  42.819  12.580
26959W        W93368  25.025   4.264   2.916
26960W        W93369   2.046  20.197  13.316
26961W        W93370  12.634  33.340  13.530
26962W        W93371  30.648  32.594   0.327
26963W        W93372  12.749   9.626   0.108
26964W        W93373  30.611  19.239   0.834
26965W        W93374   6.713  42.787  12.790
26966W        W93375  26.743  24.192   2.221
26967W        W93376   7.320  32.787  10.046
26968W        W93377  10.152  17.140   1.905
26969W        W93378  18.052   9.367  13.430
26970W        W93379  37.343  40.266  14.444
26971W        W93380  37.429  40.827   5.099
26972W        W93381   2.826  27.148  11.339
26973W        W93382  30.903  21.115  14.916
26974W        W93383  19.031  18.653   0.674
26975W        W93384  13.132   1.768  12.751
26976W        W93385  19.010  29.525   3.607
26977W        W93386  37.896  18.113  13.892
26978W        W93387  32.756  29.189   4.167
26979W        W93388  15.696  41.923   0.492
26980W        W93389  38.998  34.516   0.386
26981W        W93390   1.407  17.089  13.548
26982W        W93391  20.494   6.926  11.162
26983W        W93392  39.780  40.078   0.385
26984W        W93393  30.473  41.517  13.444
26985W        W93394  39.535   7.378  14.984
26986W        W93395  36.427  16.106  12.414
26987W        W93396   2.178  27.006   1.843
26988W        W93397  10.004  41.050  11.987
26989W        W93398  21.299  15.427   4.153
26990W        W93399  28.141  22.037   1.830
26991W        W93400   9.363  15.116  11.137
26992W        W93401  22.785   5.225   4.101
26993W        W93402   3.483   5.712   2.237
26994W        W93403  33.326  20.404  13.929
26995W        W93404   3.743  11.285   2.165
26996W        W93405  19.617  10.561  14.432
26997W        W93406  26.113  19.781  13.888
26998W        W93407  42.303  21.770   4.404
26999W        W93408  40.013  41.438  12.493
27000W        W93409   3.856  39.012   4.210
27001W        W93410  41.407  20.120  10.289
27002W        W93411  23.604  13.321   3.250
27003W        W93412  11.893  26.125  11.511
27004W        W93413   1.878  23.237   2.224
27005W        W93414   5.152  42.832   4.770
27006W        W93415   6.587  20.515  11.582
27007W        W93416  39.727   2.989   0.523
27008W        W93417  17.686  44.053   4.163
27009W        W93418  42.722  13.214   1.185
27010W        W93419  36.560   5.651   3.322
27011W        W93420   1.958  15.577  14.721
27012W        W93421  27.970  32.536  14.356
27013W        W93422   3.056  12.019  13.580
27014W        W93423   3.455  32.104  12.604
27015W        W93424  23.741  17.216   4.247
27016W        W93425   4.757  37.915   3.305
27017W        W93426  14.071  27.663   3.820
27018W        W93427   1.486  28.361  14.155
27019W        W93428   2.834   9.873   4.682
27020W        W93429  16.956  31.841  11.258
27021W        W93430  38.017   4.386  10.686
27022W        W93431   6.400  33.887  11.951
27023W        W93432  30.959  29.639   2.207
27024W        W93433   8.152  42.856   4.119
27025W        W93434  11.192  31.140   0.463
27026W        W93435  28.524  18.382  12.444
27027W        W93436  42.337  11.887  11.234
27028W        W93437  33.893  44.179  12.886
27029W        W93438  32.392  22.554  11.118
27030W        W93439  34.273  20.534   0.030
27031W        W93440  43.409   8.619  12.606
27032W        W93441  15.842  41.396  13.500
27033W        W93442  16.744  12.071   0.922
27034W        W93443  30.155  39.525   3.155
27035W        W93444   5.277  40.270  12.382
27036W        W93445  17.954   9.312   0.244
27037W        W93446   0.852  35.411  12.917
27038W        W93447   6.613  30.004  13.138
27039W        W93448  32.492  31.607   1.059
27040W        W93449  41.138  18.380  12.029
27041W        W93450   1.255   6.214  14.019
27042W        W93451  10.650   5.729  13.575
27043W        W93452  37.820  37.863   1.433
27044W        W93453  15.255  29.469   4.410
27045W        W93454  15.125  29.183  14.701
27046W        W93455  33.328  32.309  12.952
27047W        W93456  29.447  10.191   2.535
27048W        W93457  11.313  25.144  10.756
27049W        W93458  26.956  24.060  10.768
27050W        W93459  44.828  31.655   2.174
27051W        W93460  33.925   3.442   1.444
27052W        W93461  38.337   8.169   3.293
27053W        W93462  20.470   1.223  11.084
27054W        W93463  41.303  32.906  11.482
27055W        W93464  25.465  34.720   3.631
27056W        W93465  16.807  24.063   2.012
27057W        W93466  21.655   6.710   1.844
27058W        W93467  31.231  25.825  12.082
27059W        W93468  22.717  22.503   5.127
27060W        W93469   4.271   8.034   3.819
27061W        W93470  25.003  10.100   3.704
27062W        W93471  26.503   8.994   1.438
27063W        W93472  22.525  32.103   4.135
27064W        W93473   2.454  41.011  13.082
27065W        W93474  29.646  40.895  11.419
27066W        W93475  30.755  25.962  11.897
27067W        W93476  18.062  12.215   2.336
27068W        W93477   9.212  42.327  12.138
27069W        W93478  10.786  42.852   0.198
27070W        W93479   7.861  26.321   4.014
27071W        W93480  18.125  14.273   2.572
27072W        W93481   2.826  16.328   0.339
27073W        W93482  26.413  39.903  10.821
27074W        W93483  11.855  40.498   0.940
27075W        W93484  17.582  25.710   0.884
27076W        W93485   4.996  17.087   3.713
27077W        W93486   8.264   0.379  14.843
27078W        W93487  16.651  26.470  11.613
27079W        W93488  13.096  29.814   0.613
27080W        W93489  40.061   4.833  11.215
27081W        W93490  42.170  17.411   2.674
27082W        W93491  10.870  37.003  13.443
27083W        W93492  18.489  11.950  12.166
27084W        W93493  37.308  21.432  14.025
27085W        W93494  26.527   6.970   3.759
27086W        W93495   7.135   6.445  11.650
27087W        W93496  30.909  36.079   1.742
27088W        W93497  31.206   1.034  13.578
27089W        W93498  34.311   5.680   1.806
27090W        W93499  24.092  32.016   1.928
27091W        W93500  36.279  15.079  14.771
27092W        W93501  32.588   2.775  11.653
27093W        W93502  31.151   2.949  13.847
27094W        W93503   3.794  25.578  10.535
27095W        W93504  32.152  21.603  14.822
27096W        W93505  41.905  34.437  14.207
27097W        W93506  32.577  14.529  14.524
27098W        W93507  18.405  21.084   0.708
27099W        W93508  41.306  22.126   2.645
27100W        W93509  18.023   3.854   1.573
27101W        W93510  11.690  11.929   0.360
27102W        W93511  42.937  11.832   2.337
27103W        W93512  19.801  22.347  10.225
27104W        W93513   8.825   2.730   2.397
27105W        W93514  44.204   7.702   1.690
27106W        W93515  29.086  41.596   2.356
27107W        W93516  20.086  17.491  10.749
27108W        W93517  17.742  24.018   1.456
27109W        W93518   8.384  26.602  12.400
27110W        W93519  36.406  10.192  12.839
27111W        W93520  44.809  30.488  13.428
27112W        W93521  18.998  28.108   1.136
27113W        W93522  40.891  28.861   1.883
27114W        W93523  26.735  23.673  14.530
27115W        W93524  30.072  42.060  11.960
27116W        W93525  24.022  23.378  13.812
27117W        W93526  31.819   8.158   0.290
27118W        W93527  30.210   7.433  10.725
27119W        W93528  13.741  30.017   2.206
27120W        W93529  12.368  26.403  14.859
27121W        W93530  35.301  31.964  14.468
27122W        W93531  43.225  19.573   2.643
27123W        W93532  26.978  21.207  13.137
27124W        W93533  34.808  32.950  11.992
27125W        W93534  42.561  15.249  11.206
27126W        W93535  40.479  28.402   2.347
27127W        W93536  16.452  39.003   3.622
27128W        W93537  33.865  18.280  14.862
27129W        W93538  37.777  10.959   3.705
27130W        W93539  21.445   9.879  11.582
27131W        W93540  14.416  24.602  12.015
27132W        W93541  38.826  43.326  13.329
27133W        W93542  16.620  11.167   4.288
27134W        W93543  11.294  28.565   2.980
27135W        W93544  28.067  20.700  12.903
27136W        W93545   9.735  13.642   1.261
27137W        W93546   6.388   5.800  11.317
27138W        W93547  25.140  44.248  10.724
27139W        W93548  24.924  25.265  11.684
27140W        W93549   2.755   4.139   4.116
27141W        W93550  18.765  38.791   4.586
27142W        W93551   8.408  25.566   4.152
27143W        W93552  22.975  22.170   0.975
27144W        W93553   4.481  19.504  11.563
27145W        W93554  12.592   6.939   1.397
27146W        W93555  14.629  27.502   2.466
27147W        W93556  36.981  14.603  14.812
27148W        W93557  32.696  26.728   3.239
27149W        W93558  13.282  44.468  10.735
27150W        W93559  40.129  18.349  13.462
27151W        W93560  25.560  33.544   4.212
27152W        W93561  40.576  44.993   2.010
27153W        W93562  44.225  21.573  11.232
27154W        W93563  15.282   2.720  13.000
27155W        W93564  18.625   3.697  11.646
27156W        W93565   2.825  34.274   4.073
27157W        W93566  34.965  44.772  14.594
27158W        W93567  30.623  10.816  11.010
27159W        W93568  15.785  41.971  14.993
27160W        W93569  32.045  37.597  10.285
27161W        W93570  37.794  26.661  13.434
27162W        W93571  27.967  15.667  11.589
27163W        W93572   7.831  39.298   4.738
27164W        W93573  18.720  29.997  12.554
27165W        W93574   1.998  39.426   0.407
27166W        W93575   4.493  42.434   2.336
27167W        W93576  42.601  25.540  13.504
27168W        W93577  12.333  36.906  13.702
27169W        W93578  10.074  11.865   3.155
27170W        W93579   3.222  27.788  10.781
27171W        W93580  13.095  39.506  11.180
27172W        W93581  37.356  43.773  11.644
27173W        W93582  27.682  22.989  11.117
27174W        W93583  37.543   6.317   4.548
27175W        W93584  30.980   7.255   5.047
27176W        W93585  18.118  21.124  13.427
27177W        W93586   8.202  42.147  14.395
27178W        W93587  29.990  10.074   4.337
27179W        W93588   7.862  26.026  14.940
27180W        W93589   2.371  32.300  14.060
27181W        W93590  31.869   5.138  12.238
27182W        W93591  26.391  20.046   4.060
27183W        W93592  19.667  34.125   0.894
27184W        W93593  42.222   3.693  11.187
27185W        W93594  20.797  34.949  13.477
27186W        W93595  14.719  13.161   3.158
27187W        W93596   1.636  12.121  14.509
27188W        W93597  35.838  14.641   4.546
27189W        W93598  44.546  18.529   5.025
27190W        W93599  36.558  33.546  10.915
27191W        W93600  32.545  31.155  10.701
27192W        W93601  39.671   1.366   4.823
27193W        W93602  16.360  33.010  12.542
27194W        W93603  41.246  25.983  11.714
27195W        W93604  28.440   1.525  12.885
27196W        W93605  14.817  36.847   0.455
27197W        W93606  22.749  31.484  10.703
27198W        W93607  13.735  32.461   1.412
27199W        W93608  34.097  37.899   3.036
27200W        W93609  15.649  29.486  11.684
27201W        W93610  27.062  25.469  11.698
27202W        W93611  38.827  28.170   2.938
27203W        W93612  16.748  39.082  14.892
27204W        W93613  33.174  24.570  11.607
27205W        W93614   3.105   3.893  11.614
27206W        W93615  33.098  39.434  10.712
27207W        W93616   3.338   1.484   4.337
27208W        W93617   1.338  19.706  14.878
27209W        W93618  25.078  25.694   4.904
27210W        W93619  32.949  15.508   2.919
27211W        W93620  38.774  38.398  12.437
27212W        W93621  34.041  19.682  14.751
27213W        W93622  15.852  39.551  10.799
27214W        W93623  44.905  26.031  14.803
27215W        W93624  24.623  20.602  10.668
27216W        W93625  21.090  13.072   2.117
27217W        W93626  41.454  33.008   1.677
27218W        W93627  16.108  33.575  11.502
27219W        W93628  12.755  18.190  13.229
27220W        W93629  42.978  32.160  12.681
27221W        W93630  35.902   1.309  13.911
27222W        W93631  31.548   2.131   1.245
27223W        W93632  17.220   3.109   0.773
27224W        W93633  38.196  23.753  12.954
27225W        W93634   4.407  26.730   2.676
27226W        W93635  38.818   4.456  11.160
27227W        W93636  17.266  41.315   1.268
27228W        W93637  35.049   3.912  11.826
27229W        W93638  12.413  41.990   4.473
27230W        W93639  14.460  13.252  11.563
27231W        W93640   8.711   8.683   0.722
27232W        W93641   5.854  17.385   2.289
27233W        W93642  35.993  19.823  11.615
27234W        W93643  44.669  44.566   4.566
27235W        W93644  34.591  29.256   0.907
27236W        W93645  41.828   1.010   1.367
27237W        W93646  15.720  37.563   1.294
27238W        W93647  30.098  19.601   2.427
27239W        W93648  38.519  19.952  13.909
27240W        W93649  15.161  37.052   0.770
27241W        W93650  44.245   0.597   0.593
27242W        W93651  13.375  34.457   5.050
27243W        W93652  21.093  23.132  11.497
27244W        W93653  11.785  31.371   1.348
27245W        W93654  35.650   3.805   4.578
27246W        W93655  34.950   1.910  14.868
27247W        W93656  20.526   3.254   1.286
27248W        W93657  21.624   6.322  13.009
27249W        W93658  36.697   8.564  10.551
27250W        W93659   6.794  28.594   0.270
27251W        W93660  39.712  31.412   1.220
27252W        W93661  16.123  16.499   4.751
27253W        W93662  24.591   1.939   0.734
27254W        W93663   9.910   7.593   2.937
27255W        W93664   1.224  20.790   3.251
27256W        W93665  43.254   7.818  12.427
27257W        W93666  24.288  32.579  13.504
27258W        W93667  44.017  44.302  13.480
27259W        W93668   6.242  11.700   2.169
27260W        W93669  33.480  25.479   3.803
27261W        W93670   1.763  20.084   3.183
27262W        W93671  32.877  33.404  11.539
27263W        W93672  32.649   7.734   2.276
27264W        W93673   4.541   2.397   1.336
27265W        W93674  29.875  29.797   0.300
27266W        W93675  36.916  25.251  14.017
27267W        W93676  41.883   0.449   0.496
27268W        W93677   4.995  23.215   5.309
27269W        W93678  15.180  31.142  13.097
27270W        W93679  32.705  32.656   3.786
27271W        W93680  43.811  15.683   5.278
27272W        W93681   2.144  26.402  12.473
27273W        W93682   1.616  27.733  12.967
27274W        W93683  13.724  44.181   4.360
27275W        W93684  28.636  20.253   3.105
27276W        W93685  44.768  10.399  13.366
27277W        W93686   9.506  30.603  13.070
27278W        W93687  16.314  41.348   1.527
27279W        W93688  27.826  19.681  14.358
27280W        W93689  26.139  32.950   0.786
27281W        W93690  28.477  39.299   4.532
27282W        W93691  19.880  20.895  10.021
27283W        W93692  17.180   3.780  10.057
27284W        W93693  10.105  39.112  10.137
27285W        W93694  32.567  20.262  14.980
27286W        W93695  18.322  33.322  11.053
27287W        W93696  31.325  42.790  14.596
27288W        W93697  21.779   5.455   4.232
27289W        W93698   9.098  13.195   3.759
27290W        W93699  20.376  25.595  13.361
27291W        W93700  32.788  41.042   3.827
27292W        W93701  40.388   9.642   4.064
27293W        W93702  24.827  10.618   1.199
27294W        W93703  34.508  23.503  12.566
27295W        W93704  25.995   6.765   3.762
27296W        W93705  26.461  38.523   0.885
27297W        W93706  40.563  44.850  13.007
27298W        W93707  13.903  18.005  14.887
27299W        W93708   8.785  11.346   0.757
27300W        W93709  21.586  19.076   4.514
27301W        W93710   3.214  33.373  13.027
27302W        W93711  23.007  10.869  10.573
27303W        W93712  17.023   3.899  11.606
27304W        W93713  28.454  36.551  14.043
27305W        W93714  10.725  25.750   0.367
27306W        W93715  15.348  28.897   2.637
27307W        W93716  43.512  16.092  13.990
27308W        W93717  32.091  17.127   3.630
27309W        W93718  32.885  13.673   0.371
27310W        W93719   6.774  15.781  13.673
27311W        W93720  39.018  24.078  14.674
27312W        W93721   4.348  22.368  11.569
27313W        W93722  31.150   1.972   2.734
27314W        W93723  11.853  29.189  14.189
27315W        W93724   4.027  36.331   2.893
27316W        W93725   9.517  29.115   0.167
27317W        W93726   0.782  44.417  13.112
27318W        W93727   3.301  18.644   4.504
27319W        W93728  39.295  14.448   1.927
27320W        W93729  26.611  33.144   0.805
27321W        W93730  29.174  11.705  13.556
27322W        W93731  44.911  15.429  13.783
27323W        W93732   6.839   4.378   3.141
27324W        W93733  16.297   7.848   3.892
27325W        W93734  27.662   2.390   4.694
27326W        W93735  33.829  36.333   1.984
27327W        W93736  36.469  40.286   3.144
27328W        W93737  24.244  42.719  11.720
27329W        W93738  34.454   7.660  13.397
27330W        W93739  23.124  27.585   4.284
27331W        W93740  10.950  15.120   1.270
27332W        W93741  21.054  18.202  12.420
27333W        W93742  21.619  17.849  12.105
27334W        W93743  10.683  16.549   4.039
27335W        W93744  34.513  23.206  12.133
27336W        W93745  10.732  16.557   3.244
27337W        W93746  35.100  22.621  11.172
27338W        W93747  44.905  10.482  12.876
27339W        W93748  23.115  31.114  13.023
27340W        W93749  10.197  42.416   2.296
27341W        W93750  39.926  12.052   4.593
27342W        W93751  22.209  44.574  11.625
27343W        W93752  30.248  11.171   3.705
27344W        W93753  24.399  11.351  13.642
27345W        W93754  27.545  30.705   1.173
27346W        W93755  10.247  36.773   4.192
27347W        W93756  15.052  15.250  14.016
27348W        W93757  44.690   5.770  11.392
27349W        W93758  19.647  36.952   4.246
27350W        W93759  21.201  27.208  14.008
27351W        W93760  40.898  29.850  12.477
27352W        W93761  13.406  29.460  11.725
27353W        W93762  11.544   8.631   1.284
27354W        W93763  38.501  34.152   4.878
27355W        W93764  44.260  36.732   2.473
27356W        W93765  41.814  28.292   0.823
27357W        W93766  42.552  36.168  14.034
27358W        W93767  40.834  20.332  13.603
27359W        W93768  12.378  11.766  14.359
27360W        W93769   2.340  35.869  13.866
27361W        W93770  21.411  39.729   0.840
27362W        W93771  15.766  10.433   2.302
27363W        W93772  28.190  28.015   3.177
27364W        W93773  14.211  20.059   1.187
27365W        W93774  30.511  43.026   0.951
27366W        W93775  17.616  35.418  13.927
27367W        W93776   5.262  24.077  13.546
27368W        W93777  13.780  37.874  14.563
27369W        W93778  10.247   7.843  13.449
27370W        W93779  41.394   3.973   2.351
27371W        W93780  37.266  22.083   3.700
27372W        W93781  28.534   5.757  11.934
27373W        W93782  10.669  28.949  12.896
27374W        W93783  40.890  20.557  11.535
27375W        W93784  41.519  24.781  10.920
27376W        W93785  21.496  37.849   4.850
27377W        W93786  38.896   2.580   0.423
27378W        W93787  26.882  38.908   3.824
27379W        W93788  14.299  23.031   1.695
27380W        W93789  44.982  35.683  10.752
27381W        W93790  24.109  21.267  13.976
27382W        W93791  24.743  30.154   4.087
27383W        W93792  28.771  25.982   4.181
27384W        W93793  19.642   6.415  11.639
27385W        W93794  25.911  26.075   1.430
27386W        W93795   5.387  36.322   0.176
27387W        W93796  36.371  35.504  10.820
27388W        W93797  37.863  18.545   1.502
27389W        W93798  41.696   1.106  10.773
27390W        W93799  30.458   4.266   3.754
27391W        W93800  22.895  42.550  11.588
27392W        W93801  41.278   1.983  13.077
27393W        W93802   6.209  16.022   0.737
27394W        W93803  10.616  37.470  13.366
27395W        W93804  23.343  35.022   3.532
27396W        W93805   2.183  38.058   3.584
27397W        W93806  13.090  30.316   0.896
27398W        W93807  34.061   1.199   1.823
27399W        W93808   6.174  44.936   1.753
27400W        W93809   2.510   9.873   1.266
27401W        W93810  34.636  27.862  13.965
27402W        W93811  38.443  38.772   3.886
27403W        W93812  32.016  17.331   2.672
27404W        W93813  31.143  17.998   0.333
27405W        W93814   1.014  35.881   4.283
27406W        W93815  38.406  10.914   0.957
27407W        W93816   0.880  15.779  11.082
27408W        W93817  13.324  10.115  13.961
27409W        W93818  24.633  39.766  12.451
27410W        W93819  42.366   4.834  14.048
27411W        W93820   4.936   6.960  10.107
27412W        W93821  14.641  42.230  10.599
27413W        W93822  44.515  31.552  12.061
27414W        W93823   6.211  19.371  10.806
27415W        W93824  21.546  20.226  11.595
27416W        W93825   5.041  13.025  12.558
27417W        W93826   6.283  15.086   3.298
27418W        W93827  34.894  22.126  11.873
27419W        W93828  22.214  42.963   1.418
27420W        W93829  15.046  35.487  10.288
27421W        W93830  44.775  15.082   0.008
27422W        W93831  10.315   6.841   2.724
27423W        W93832  30.279  37.248  12.959
27424W        W93833  26.930  31.415   2.155
27425W        W93834  15.803  41.815  14.500
27426W        W93835  28.995  21.834  14.872
27427W        W93836  26.037  36.373   4.860
27428W        W93837  22.207  24.269  13.131
27429W        W93838  37.555  14.155   3.835
27430W        W93839   9.636  19.519   4.135
27431W        W93840   4.491  10.190  14.888
27432W        W93841  24.346  32.481  14.188
27433W        W93842  23.590  33.411  12.921
27434W        W93843   2.231  20.237  12.493
27435W        W93844  26.658   6.455   3.713
27436W        W93845  27.356  42.889   1.327
27437W        W93846  10.688   2.951   2.969
27438W        W93847  22.680  21.638  11.933
27439W        W93848   3.483  39.664   3.780
27440W        W93849  36.494  22.241  13.948
27441W        W93850  17.426  16.500   0.377
27442W        W93851  28.958  35.637   0.961
27443W        W93852   7.418  24.660  13.318
27444W        W93853   7.732  10.788   4.368
27445W        W93854  29.420  36.431   3.069
27446W        W93855  18.582  28.905  13.591
27447W        W93856  23.742  10.328  14.890
27448W        W93857  42.510  29.491   4.889
27449W        W93858   6.346  12.852  13.625
27450W        W93859  16.513   6.519   0.836
27451W        W93860   9.704   7.948  11.227
27452W        W93861  23.485  10.360  11.961
27453W        W93862  23.205  15.438  13.960
27454W        W93863   3.218  28.724   1.314
27455W        W93864  35.898   4.351   4.676
27456W        W93865  44.680   8.718   9.953
27457W        W93866  31.669   8.249  14.789
27458W        W93867   1.380  11.794   4.806
27459W        W93868  36.490  12.347  12.203
27460W        W93869  23.803  35.314  13.391
27461W        W93870  42.815   2.930   4.147
27462W        W93871  17.007  27.927   0.835
27463W        W93872  15.101   7.750  12.921
27464W        W93873  28.963  33.345  14.506
27465W        W93874  31.724  13.970   0.999
27466W        W93875  32.134  11.332  11.240
27467W        W93876  38.856  24.224   4.957
27468W        W93877   3.214  13.266  10.691
27469W        W93878  40.831   9.959   4.158
27470W        W93879  18.757  32.678   2.240
27471W        W93880  21.481  25.065  12.580
27472W        W93881  22.968  27.186  12.849
27473W        W93882   1.416  21.759  10.879
27474W        W93883  34.675   4.190   3.429
27475W        W93884  12.989   6.445  13.087
27476W        W93885  13.883  19.483   4.066
27477W        W93886   5.559  42.035  12.950
27478W        W93887  38.091  24.914  14.927
27479W        W93888  13.043   6.132  11.565
27480W        W93889  43.501  29.648   1.301
27481W        W93890   4.684  33.338   1.814
27482W        W93891   8.099   2.471   1.216
27483W        W93892   3.725  32.028  12.174
27484W        W93893  26.320  14.162  11.263
27485W        W93894  26.965  29.319  12.260
27486W        W93895  35.529  24.558   1.267
27487W        W93896   6.374  28.926  12.551
27488W        W93897   5.400  11.872   1.904
27489W        W93898  27.657   5.187  12.316
27490W        W93899  25.666  38.060   3.650
27491W        W93900  40.079  16.179  14.851
27492W        W93901  34.250  22.999  13.416
27493W        W93902  24.541  34.667  11.103
27494W        W93903   7.205  11.182  10.720
27495W        W93904  10.223  44.319   2.872
27496W        W93905  22.590  44.265   3.216
27497W        W93906  41.040  40.413   2.585
27498W        W93907  39.766  44.170   3.330
27499W        W93908  19.506   9.237  13.151
27500W        W93909  10.126  31.539   1.824
27501W        W93910  18.369   7.641   2.171
27502W        W93911   0.039   2.149   1.459
27503W        W93912  20.041  43.691   3.386
27504W        W93913  16.007  40.945   1.423
27505W        W93914   8.991  25.566   1.217
27506W        W93915   3.734  26.330  12.120
27507W        W93916  12.671  17.383  10.971
27508W        W93917   5.232  39.326   1.204
27509W        W93918   0.586   3.348   2.263
27510W        W93919  41.511  33.176  12.851
27511W        W93920  13.299  40.339  13.784
27512W        W93921  44.569  32.556   2.667
27513W        W93922  15.407   3.613   3.154
27514W        W93923  12.862  13.472   2.912
27515W        W93924   4.733  16.564   1.185
27516W        W93925  17.596  33.235  14.398
27517W        W93926  19.040  39.272  12.010
27518W        W93927   6.494  25.014  13.437
27519W        W93928  28.270  29.975  11.205
27520W        W93929  24.958  23.040   0.395
27521W        W93930  40.275  21.008  10.167
27522W        W93931  19.002  18.014  14.550
27523W        W93932  19.128  24.411  10.639
27524W        W93933  30.823  38.238  12.000
27525W        W93934  40.797  15.055   3.183
27526W        W93935  42.064   7.632  14.807
27527W        W93936  34.930   1.536  12.254
27528W        W93937  24.579  30.637   4.223
27529W        W93938  14.258  32.048  10.870
27530W        W93939   0.382  29.169  11.297
27531W        W93940  35.758  27.049   1.715
27532W        W93941   1.307  33.449   3.874
27533W        W93942  22.208  10.019  12.474
27534W        W93943  31.013  10.758  12.673
27535W        W93944  35.312  34.913  11.958
27536W        W93945  24.136  31.056  12.530
27537W        W93946  36.012  17.352  14.868
27538W        W93947  29.634   1.776  14.083
27539W        W93948  40.792  40.496  11.584
27540W        W93949  20.490  42.800  12.482
27541W        W93950   1.384  31.362  14.802
27542W        W93951  16.322  42.643   3.643
27543W        W93952  23.532  35.514   3.724
27544W        W93953   2.254  22.425   3.749
27545W        W93954   2.131  29.228   2.705
27546W        W93955  10.121  30.438  14.427
27547W        W93956  22.070  37.416   2.957
27548W        W93957  38.436  42.017  12.470
27549W        W93958  22.398  39.549   0.437
27550W        W93959  41.362  43.189   1.736
27551W        W93960  18.113  36.619   0.507
27552W        W93961  14.072  42.963  11.379
27553W        W93962   5.414  42.937  11.252
27554W        W93963  27.175  43.380  10.672
27555W        W93964  43.216  30.038  14.360
27556W        W93965  14.249  17.343   2.812
27557W        W93966  36.329   2.291   1.817
27558W        W93967  17.253  29.073  14.357
27559W        W93968  35.999  21.153   1.679
27560W        W93969   3.574   8.312   2.176
27561W        W93970  24.546   8.487  10.864
27562W        W93971  23.118  42.252  14.238
27563W        W93972   2.850  44.204  11.614
27564W        W93973  20.242   4.176   1.638
27565W        W93974  30.162  12.036   3.163
27566W        W93975  13.561   9.318  13.347
27567W        W93976  31.318  17.781   4.846
27568W        W93977  15.071  25.412  11.149
27569W        W93978  30.570   2.565   4.935
27570W        W93979  40.106  28.566   4.701
27571W        W93980  26.909  15.810  13.934
27572W        W93981   3.237  17.673   1.704
27573W        W93982   8.382  24.946   0.179
27574W        W93983  11.224  42.364  14.025
27575W        W93984   6.958  17.247  14.332
27576W        W93985  33.146   3.130  14.460
27577W        W93986  29.377  31.440  13.443
27578W        W93987   6.453  27.362  13.345
27579W        W93988  22.989  18.346   2.667
27580W        W93989  13.500  31.876  11.118
27581W        W93990  33.828  35.663   0.854
27582W        W93991  25.028  34.511  13.119
27583W        W93992  33.007   9.959   4.933
27584W        W93993  14.002  42.716  13.848
27585W        W93994   0.401   7.368   0.534
27586W        W93995  16.621   9.159  12.489
27587W        W93996  11.174  22.578  12.019
27588W        W93997  30.499  40.494   4.995
27589W        W93998  16.875  24.643  14.431
27590W        W93999  12.688  28.101   1.732
27591W        W94000   4.503  10.650  12.959
27592W        W94001  20.804   4.749   1.834
27593W        W94002  23.302  21.764   2.715
27594W        W94003  19.129  12.066  11.523
27595W        W94004  20.591   3.378  10.722
27596W        W94005   3.863  33.950   4.111
27597W        W94006  16.652   2.995   1.385
27598W        W94007  36.463   7.777  14.344
27599W        W94008   6.643  23.695   4.153
27600W        W94009  36.339  10.268   4.906
27601W        W94010  16.225  33.598  13.041
27602W        W94011   0.725  41.949   0.016
27603W        W94012  23.121   7.159   5.006
27604W        W94013   3.480   9.580   2.669
27605W        W94014   0.775  26.988  11.574
27606W        W94015  37.505  13.806   2.713
27607W        W94016  18.508  37.506  11.477
27608W        W94017  15.760  19.569  14.331
27609W        W94018  34.390  18.019   1.825
27610W        W94019  28.691   9.811  14.911
27611W        W94020  14.831  35.287   4.213
27612W        W94021  26.027  38.831  14.807
27613W        W94022  34.171  34.414   3.722
27614W        W94023  44.089  25.152  12.385
27615W        W94024  16.313  37.520   2.684
27616W        W94025  29.820  44.863  13.873
27617W        W94026  24.838   6.561   1.187
27618W        W94027  21.524  41.899   4.102
27619W        W94028  41.068  33.034  11.038
27620W        W94029  29.065  15.679   3.630
27621W        W94030  33.939  18.849  13.314
27622W        W94031  20.759   4.109  14.166
27623W        W94032   9.865  25.514   4.240
27624W        W94033  15.500  25.172  12.914
27625W        W94034  24.490  21.135  10.520
27626W        W94035   6.375  32.566   2.705
27627W        W94036  42.485  23.735   0.778
27628W        W94037  18.095   9.176  11.967
27629W        W94038  15.086  36.889   4.044
27630W        W94039  29.409  27.176  10.753
27631W        W94040  39.000  32.005   0.827
27632W        W94041  35.100  36.521   4.122
27633W        W94042  16.231  36.471   2.856
27634W        W94043  36.876  10.249   4.078
27635W        W94044  17.677   5.772  10.656
27636W        W94045  33.562  43.503   2.830
27637W        W94046   0.196  23.093   4.663
27638W        W94047  25.147  25.517  14.890
27639W        W94048  14.552  28.999  12.012
27640W        W94049  32.403   6.149   2.172
27641W        W94050   9.912  20.556   2.387
27642W        W94051   4.701  20.169   0.922
27643W        W94052  13.110  30.562  14.668
27644W        W94053  24.818  31.526   0.506
27645W        W94054  43.592  22.075  13.504
27646W        W94055  27.092  17.776  11.520
27647W        W94056   2.519  10.677  11.600
27648W        W94057   0.262  34.805  11.199
27649W        W94058   4.430  26.236  13.473
27650W        W94059  25.571  28.784   4.430
27651W        W94060  43.875  24.854  10.645
27652W        W94061  41.475  20.204   1.414
27653W        W94062   4.043  40.753  13.853
27654W        W94063  12.757  27.458  13.121
27655W        W94064   8.830  35.108   3.512
27656W        W94065  39.320  22.498  13.076
27657W        W94066  41.045  31.012  13.334
27658W        W94067  36.242  26.749  10.519
27659W        W94068  33.425  39.014   1.478
27660W        W94069  31.316   2.013   1.738
27661W        W94070  15.379  30.025  12.920
27662W        W94071  36.961  14.356  14.343
27663W        W94072  37.040  35.828  10.774
27664W        W94073  42.965  34.883   2.227
27665W        W94074  19.589  36.982  12.012
27666W        W94075  18.494  44.441   2.706
27667W        W94076  39.570  36.376   3.120
27668W        W94077   5.755  25.189  13.927
27669W        W94078  32.954  40.563   3.891
27670W        W94079  22.494  40.485  14.962
27671W        W94080  31.049  39.834   0.381
27672W        W94081  43.671  13.234   2.404
27673W        W94082  23.472  19.589   4.541
27674W        W94083  13.247  24.578  13.947
27675W        W94084  33.281  37.450  14.894
27676W        W94085  17.810  12.316   1.870
27677W        W94086  10.795  34.566  14.354
27678W        W94087  11.428   3.415   1.231
27679W        W94088  41.508  24.098  11.609
27680W        W94089   7.124   2.076   1.306
27681W        W94090  21.168   3.812   4.109
27682W        W94091  18.777  13.180   2.366
27683W        W94092  13.627  34.586   1.792
27684W        W94093  38.688   7.571   4.217
27685W        W94094   3.282  40.323   5.008
27686W        W94095  36.802  30.442  14.139
27687W        W94096   3.761   9.840   0.813
27688W        W94097   5.051  19.349  13.440
27689W        W94098   1.965  12.745   3.143
27690W        W94099  28.651  40.513   3.349
27691W        W94100  22.822  43.437   3.610
27692W        W94101  37.037  20.301  13.535
27693W        W94102   5.371  16.712   2.618
27694W        W94103  24.475  10.903  13.364
27695W        W94104  13.002  33.605  11.071
27696W        W94105  11.090   0.675   2.682
27697W        W94106  38.006   7.300   4.569
27698W        W94107  28.859   6.737   1.371
27699W        W94108   6.131  28.065   2.188
27700W        W94109   7.733   1.235   4.544
27701W        W94110  41.451  23.187   2.192
27702W        W94111  33.263  21.744  12.943
27703W        W94112  21.006  29.235  12.592
27704W        W94113  13.101   8.262   1.431
27705W        W94114  14.719  15.854  13.572
27706W        W94115  27.943   1.413  13.788
27707W        W94116  16.778   8.393   0.838
27708W        W94117   3.484  11.526   2.944
27709W        W94118  34.853   5.696   0.763
27710W        W94119  33.504  42.402   3.439
27711W        W94120  20.254  11.725  12.417
27712W        W94121   4.714   8.982  11.061
27713W        W94122  33.128  38.997   1.909
27714W        W94123   9.731   6.445  13.922
27715W        W94124  20.203  26.202   0.303
27716W        W94125  30.215  41.791   3.467
27717W        W94126  18.208   7.702   3.736
27718W        W94127  11.691   6.874   0.960
27719W        W94128  17.313   2.402   3.639
27720W        W94129  16.743  29.195   0.271
27721W        W94130   3.167  37.323   4.011
27722W        W94131  41.951  21.626  12.692
27723W        W94132  39.152   4.940   0.069
27724W        W94133   6.296  28.824  14.537
27725W        W94134  37.347  20.406   0.403
27726W        W94135  34.123   7.855   1.228
27727W        W94136  44.879  16.805  14.429
27728W        W94137   3.455  34.459   1.964
27729W        W94138  39.168   5.329  12.987
27730W        W94139  36.115  35.021   4.150
27731W        W94140  36.285  11.488  14.791
27732W        W94141  43.840  27.921  14.744
27733W        W94142   4.770  29.723   2.442
27734W        W94143  28.820  14.858  11.226
27735W        W94144  16.482   4.685  13.500
27736W        W94145  29.978  34.172  12.912
27737W        W94146   9.685  43.892  12.515
27738W        W94147  11.932  31.906   5.055
27739W        W94148  39.076  39.769   4.178
27740W        W94149  14.333  13.179  13.546
27741W        W94150   8.318   9.297   2.995
27742W        W94151   4.829  26.978   2.464
27743W        W94152   1.444  26.543   1.771
27744W        W94153   6.387  28.901   0.140
27745W        W94154  22.691  30.642  10.411
27746W        W94155   9.878  16.250   3.636
27747W        W94156   8.808  31.062   0.245
27748W        W94157  35.636  33.502  11.205
27749W        W94158   6.775  21.056   3.789
27750W        W94159   4.664  33.193  13.972
27751W        W94160  37.475  28.516   3.714
27752W        W94161  37.302   2.960   3.248
27753W        W94162  26.518  15.274  11.602
27754W        W94163  19.044  19.086   1.049
27755W        W94164  14.080  29.945  14.458
27756W        W94165  25.668   3.173   3.783
27757W        W94166  40.515  36.007   3.777
27758W        W94167  42.477  11.578  12.871
27759W        W94168  33.270  34.970  14.374
27760W        W94169  37.407  16.659   2.242
27761W        W94170  34.265  15.658   4.504
27762W        W94171  13.760   8.829   3.082
27763W        W94172  36.504  10.754   4.726
27764W        W94173   5.759  16.846  13.087
27765W        W94174  10.376  15.908  13.951
27766W        W94175  19.779  44.433  11.096
27767W        W94176   5.402  14.432   2.398
27768W        W94177  13.628  19.496  14.853
27769W        W94178  17.125  16.335   3.711
27770W        W94179   8.875  14.367  11.975
27771W        W94180  18.813  13.911  11.112
27772W        W94181  23.035   1.443   3.664
27773W        W94182  25.589  44.044  14.030
27774W        W94183  22.535  14.788  13.910
27775W        W94184  44.097  17.038  12.489
27776W        W94185  37.016  44.202  11.613
27777W        W94186   8.901   3.208  12.495
27778W        W94187  30.899  42.854   0.284
27779W        W94188   5.776  28.118  14.815
27780W        W94189  10.335  31.819  11.258
27781W        W94190  36.049  16.455   1.732
27782W        W94191  20.788  19.013   2.930
27783W        W94192  15.695  35.721  12.656
27784W        W94193  23.747  16.581   0.033
27785W        W94194  33.393  21.043  10.680
27786W        W94195  22.644  32.818  11.627
27787W        W94196  10.096   7.481  10.359
27788W        W94197   3.837  24.511  10.640
27789W        W94198  30.566   4.217   1.329
27790W        W94199  43.416  20.376  11.607
27791W        W94200   8.656  39.432  14.960
27792W        W94201   1.042  40.530   2.755
27793W        W94202  22.755  39.963   2.273
27794W        W94203  21.211   7.771  10.572
27795W        W94204  42.768  29.046   4.558
27796W        W94205  24.732  41.289  10.689
27797W        W94206  36.326   2.737  13.007
27798W        W94207  29.020  21.332   0.859
27799W        W94208  11.880  25.054   5.082
27800W        W94209   2.619  28.617  11.506
27801W        W94210  31.387   8.789  11.069
27802W        W94211  36.949  13.235  12.947
27803W        W94212   3.851  24.746   3.019
27804W        W94213  26.805  29.563   1.281
27805W        W94214  30.123  24.858  12.118
27806W        W94215  21.779  21.973  12.034
27807W        W94216   7.705  31.973  10.588
27808W        W94217  28.609  42.719   4.627
27809W        W94218  17.517  34.529   2.314
27810W        W94219  11.440  23.443   2.258
27811W        W94220   2.293   8.676   1.015
27812W        W94221  17.771   0.817   4.887
27813W        W94222  23.289  15.819   4.423
27814W        W94223   8.148  15.458   4.238
27815W        W94224  33.039  38.549  12.837
27816W        W94225   8.276  35.356  12.429
27817W        W94226  15.596  33.639   1.904
27818W        W94227  27.515  26.481  11.410
27819W        W94228  42.148  30.542  12.064
27820W        W94229  32.918  23.111   3.787
27821W        W94230   9.722   8.849   3.129
27822W        W94231  11.934  22.092   2.053
27823W        W94232   4.268  11.684   0.817
27824W        W94233   1.000  41.287   4.681
27825W        W94234   3.442   4.071  12.576
27826W        W94235  11.899  44.273   5.553
27827W        W94236  23.589  18.298   0.488
27828W        W94237  37.368   6.169  11.628
27829W        W94238  17.123  33.203  12.054
27830W        W94239  20.202  41.819   4.853
27831W        W94240  20.581  30.389   0.334
27832W        W94241  18.902  29.826   2.079
27833W        W94242  32.483   0.103  14.456
27834W        W94243   7.223  38.804  13.793
27835W        W94244  32.840   4.976   5.400
27836W        W94245  22.243   6.638  12.129
27837W        W94246  16.243  40.957   0.922
27838W        W94247  16.040  15.691  13.083
27839W        W94248  30.112  21.186   1.517
27840W        W94249  30.354  10.292   4.651
27841W        W94250   7.236  32.088  10.799
27842W        W94251  30.264   9.189   5.515
27843W        W94252  20.809  35.551  13.889
27844W        W94253  22.487  15.964  12.341
27845W        W94254   0.788  10.573   0.755
27846W        W94255  14.162  12.306  13.461
27847W        W94256  11.070  27.993   2.294
27848W        W94257   0.473   7.347   1.945
27849W        W94258  24.742   7.107  11.826
27850W        W94259  29.591  28.176   4.577
27851W        W94260  15.226  19.499  11.020
27852W        W94261   0.961  36.464  14.999
27853W        W94262   8.398  39.016   1.963
27854W        W94263  44.426  37.128  11.591
27855W        W94264  30.994  31.113  13.313
27856W        W94265  19.065  21.096   2.983
27857W        W94266  29.276  35.704  11.231
27858W        W94267   3.950  35.528   3.289
27859W        W94268  26.611   8.401  14.380
27860W        W94269  20.864  21.119  14.049
27861W        W94270  22.094  37.772  12.997
27862W        W94271   3.187  25.535  14.846
27863W        W94272  42.997  32.134   3.436
27864W        W94273   8.344  24.750   1.877
27865W        W94274  43.740  40.951  14.055
27866W        W94275  19.090  43.456  12.159
27867W        W94276  17.776   6.886   1.147
27868W        W94277  15.145  27.932   2.401
27869W        W94278  37.695  23.003  12.488
27870W        W94279  20.740  28.678   3.293
27871W        W94280  35.202  31.508  12.240
27872W        W94281  43.916  33.501   1.751
27873W        W94282  13.102   0.057  13.423
27874W        W94283   1.893  31.425  10.723
27875W        W94284  13.002  20.361  13.292
27876W        W94285  42.304   8.383   3.062
27877W        W94286  10.365  16.415   3.579
27878W        W94287  39.364  22.972   1.504
27879W        W94288   9.923  39.782   3.956
27880W        W94289   0.462  40.391   3.779
27881W        W94290  20.678  42.236   1.445
27882W        W94291  21.111  27.472   4.663
27883W        W94292  26.727  13.833  11.036
27884W        W94293   2.497  27.441   3.663
27885W        W94294  33.794   9.404  13.445
27886W        W94295  19.397  40.072   1.759
27887W        W94296  12.333  12.349   1.657
27888W        W94297  28.199   4.157  12.063
27889W        W94298  13.952  41.770   2.819
27890W        W94299   5.446  40.828   0.387
27891W        W94300  10.351  31.420   0.552
27892W        W94301  13.369   9.876   0.813
27893W        W94302  43.359   6.958  11.615
27894W        W94303  34.119   9.832   0.490
27895W        W94304  27.548  39.618  11.365
27896W        W94305  15.784  20.515  12.958
27897W        W94306  31.577  16.292   0.844
27898W        W94307  39.028  14.630   0.890
27899W        W94308  34.943   4.016   0.207
27900W        W94309   4.516  42.273   0.914
27901W        W94310  11.791  22.146   2.567
27902W        W94311  18.188   2.825  12.436
27903W        W94312  14.893  35.447   2.921
27904W        W94313  32.857  13.831   1.291
27905W        W94314   4.312   6.246   4.498
27906W        W94315  25.231  27.894  11.971
27907W        W94316   4.748  34.953   1.799
27908W        W94317  18.599  35.508  13.938
27909W        W94318  43.932  30.366  13.885
27910W        W94319  11.724  33.054   1.177
27911W        W94320   8.826  23.265  13.956
27912W        W94321   4.889  17.629  11.017
27913W        W94322  38.016  34.882  12.333
27914W        W94323  25.501  31.383   2.905
27915W        W94324  27.918  24.935  12.524
27916W        W94325  14.682  33.951  11.681
27917W        W94326  30.551  21.665  13.319
27918W        W94327   3.302  31.053   0.746
27919W        W94328  26.995  24.973  12.586
27920W        W94329  26.815  16.040  11.196
27921W        W94330  30.176  24.360  12.014
27922W        W94331  24.219   7.184   1.234
27923W        W94332  28.299  22.786  13.028
27924W        W94333  36.075  21.338   2.755
27925W        W94334   8.011  38.444  14.052
27926W        W94335   8.287  36.653  13.826
27927W        W94336  31.684  22.963   2.279
27928W        W94337   6.597  29.854  12.000
27929W        W94338  18.603  22.274  13.099
27930W        W94339  40.922   3.799  12.542
27931W        W94340   1.515  31.176  12.315
27932W        W94341  16.124  41.860  10.524
27933W        W94342  23.409  23.292   1.775
27934W        W94343  26.735   8.256   0.840
27935W        W94344  35.561  14.408  11.175
27936W        W94345  21.126  36.415   2.141
27937W        W94346   8.812  10.418   4.496
27938W        W94347   1.324  10.196  14.388
27939W        W94348   4.900  33.643  11.834
27940W        W94349   4.359  17.382  14.828
27941W        W94350  10.294  19.905   1.825
27942W        W94351  37.770  33.462   2.888
27943W        W94352  33.590  20.025  11.638
27944W        W94353  39.698  13.263   1.282
27945W        W94354  17.025  11.224   3.317
27946W        W94355  10.763  23.181   3.150
27947W        W94356  28.686  32.192  14.773
27948W        W94357  19.027  29.723  14.560
27949W        W94358  39.791  23.127  12.501
27950W        W94359  16.328  11.221   1.025
27951W        W94360  17.921   0.753   1.712
27952W        W94361  21.469  25.652   3.152
27953W        W94362  37.117  12.589   3.368
27954W        W94363  41.313   9.082  12.959
27955W        W94364  18.161   1.147  14.937
27956W        W94365  29.406  33.400  12.536
27957W        W94366  16.220  25.615   0.847
27958W        W94367  16.702  39.439   2.225
27959W        W94368  40.318  19.235  13.285
27960W        W94369  19.592  12.778   1.822
27961W        W94370  35.024  13.303   2.480
27962W        W94371  43.836  27.023   4.372
27963W        W94372  35.179  35.095  14.717
27964W        W94373  21.205  24.842  13.917
27965W        W94374  20.232  13.402   4.282
27966W        W94375  39.959   2.466   0.650
27967W        W94376  40.018  35.486   3.370
27968W        W94377  24.700  44.859   3.469
27969W        W94378   8.283  17.836   2.115
27970W        W94379  29.973   7.030  14.051
27971W        W94380   1.388  29.643  14.557
27972W        W94381   9.374  39.027  14.872
27973W        W94382  36.952   5.186   0.919
27974W        W94383   1.833  20.131   4.649
27975W        W94384  33.904  37.669  13.727
27976W        W94385  23.640  18.758  11.965
27977W        W94386  20.451  42.556   0.715
27978W        W94387  11.167  26.702  12.568
27979W        W94388   6.237  15.865  11.600
27980W        W94389  16.864  13.246   3.993
27981W        W94390  32.182   2.379  12.545
27982W        W94391  15.234  29.164  10.623
27983W        W94392  38.429  21.100  13.804
27984W        W94393   5.012  41.006   4.052
27985W        W94394  15.630   6.018  13.318
27986W        W94395  14.653  22.836  12.877
27987W        W94396  44.913  40.504   1.302
27988W        W94397  19.256  21.560  13.945
27989W        W94398  28.568  35.156  11.221
27990W        W94399  37.118  19.989   2.329
27991W        W94400  30.855  27.687  13.053
27992W        W94401  38.522  23.052  10.708
27993W        W94402   6.175  42.870  12.831
27994W        W94403  11.331  29.866  14.809
27995W        W94404  13.119   3.399   4.504
27996W        W94405  39.593   8.786  11.875
27997W        W94406  28.519  22.748  13.513
27998W        W94407  26.883  43.514  14.949
27999W        W94408  21.301  10.309  14.304
28000W        W94409  24.248  19.571  14.579
28001W        W94410   4.420   5.379  11.527
28002W        W94411  34.139  12.627   5.026
28003W        W94412  25.116  17.649  13.347
28004W        W94413  41.056  11.593  12.879
28005W        W94414  17.952  40.080   0.896
28006W        W94415   6.785  16.209   0.034
28007W        W94416  16.396  35.037   1.658
28008W        W94417  43.891  41.041   3.635
28009W        W94418  25.642  19.961   0.937
28010W        W94419  10.444  19.728   0.329
28011W        W94420  30.239  35.230   3.190
28012W        W94421  38.798   2.453  14.455
28013W        W94422   9.865  10.867   3.267
28014W        W94423  20.099   3.143   5.390
28015W        W94424   3.438  29.600  12.175
28016W        W94425  25.953  19.093  11.722
28017W        W94426  35.943  14.878  12.155
28018W        W94427  37.418   1.665   3.622
28019W        W94428  21.602  13.192  12.046
28020W        W94429  30.691  26.882  11.074
28021W        W94430   5.300  16.314   1.498
28022W        W94431   2.387   5.356  10.843
28023W        W94432   5.881  37.850   4.120
28024W        W94433  19.892   7.641  12.047
28025W        W94434   0.376  36.756   2.764
28026W        W94435  34.373   6.689  13.640
28027W        W94436   8.409  18.763  11.560
28028W        W94437  13.940  35.592  13.641
28029W        W94438   0.055  10.560  13.764
28030W        W94439  25.438  20.922   0.699
28031W        W94440  24.114   2.280   3.748
28032W        W94441  10.156  10.782  12.093
28033W        W94442  24.779   6.874  13.019
28034W        W94443   7.868  41.580  13.431
28035W        W94444   3.917  39.461   3.959
28036W        W94445  43.854  15.110   0.349
28037W        W94446  41.095  37.574  11.492
28038W        W94447  19.127   3.696  14.502
28039W        W94448  42.638  22.027   1.436
28040W        W94449  23.580  34.528   1.463
28041W        W94450  28.813  16.889   0.062
28042W        W94451  37.989  31.857  14.338
28043W        W94452  42.653  42.052   1.274
28044W        W94453  22.362  16.114  13.044
28045W        W94454   7.068  44.474  12.158
28046W        W94455  15.320  40.002  11.075
28047W        W94456  19.787  20.136   2.026
28048W        W94457  16.317   6.931   0.532
28049W        W94458  15.450  29.969  14.353
28050W        W94459  27.198  27.449  11.610
28051W        W94460   2.272  40.575  12.916
28052W        W94461   2.229   9.685   0.225
28053W        W94462  13.395   6.013   2.594
28054W        W94463   7.248  29.116  14.935
28055W        W94464  26.928  29.080   1.033
28056W        W94465  34.104  15.211  10.951
28057W        W94466  18.553   8.536  14.859
28058W        W94467  42.993  43.877   0.195
28059W        W94468  25.956  24.745  10.224
28060W        W94469  24.024   0.355   0.763
28061W        W94470   4.290   7.726  13.509
28062W        W94471  11.533  16.192  11.528
28063W        W94472  24.058   3.661  11.132
28064W        W94473   3.909  26.563   3.664
28065W        W94474  29.249  41.263   4.944
28066W        W94475  20.689  38.016   0.348
28067W        W94476   9.735   9.140  14.459
28068W        W94477  31.974  12.282   2.175
28069W        W94478   1.491  23.523   3.152
28070W        W94479  16.484  42.951   1.158
28071W        W94480  30.625  29.516   0.944
28072W        W94481  33.915   3.812  14.581
28073W        W94482  15.039  17.760   1.664
28074W        W94483  43.746  20.245   1.945
28075W        W94484  36.988  42.752   2.100
28076W        W94485  44.011   9.996   0.790
28077W        W94486  39.021  43.747  12.935
28078W        W94487  35.131  38.402   4.270
28079W        W94488   1.384  37.459  12.593
28080W        W94489  41.825  15.651   3.342
28081W        W94490  41.531  17.742  10.721
28082W        W94491  10.143  20.223   1.451
28083W        W94492  18.183  39.440  12.581
28084W        W94493   4.230  18.845   2.223
28085W        W94494   9.148  11.166  11.126
28086W        W94495  41.349   5.308   1.411
28087W        W94496  38.307  17.485  11.729
28088W        W94497  12.197  10.351   1.221
28089W        W94498  26.923  31.878   3.374
28090W        W94499  21.746  43.765   4.090
28091W        W94500   2.413  32.594  11.937
28092W        W94501   6.151   4.497  11.633
28093W        W94502  28.584   0.476   1.406
28094W        W94503  35.037  21.142  11.662
28095W        W94504  25.016  12.851  11.644
28096W        W94505  32.004   4.487  10.779
28097W        W94506  16.461  20.416   4.938
28098W        W94507  43.327  11.638   3.669
28099W        W94508  10.401   1.505  11.724
28100W        W94509  14.210  15.146   5.099
28101W        W94510  13.253  24.444   3.708
28102W        W94511  36.820  20.842  11.618
28103W        W94512  33.620   4.068   3.698
28104W        W94513  35.555  10.228   0.050
28105W        W94514  11.386  22.575   4.101
28106W        W94515  12.516  21.039   2.353
28107W        W94516  35.474  22.815  14.891
28108W        W94517  32.980  17.853  11.990
28109W        W94518  30.388   9.276  12.049
28110W        W94519  16.986  43.077  10.591
28111W        W94520   2.488  24.547  11.546
28112W        W94521  22.292  27.784  10.231
28113W        W94522  35.626   9.908  11.536
28114W        W94523  29.641  32.557   4.973
28115W        W94524   6.268   6.122  13.427
28116W        W94525  26.368  28.569   3.071
28117W        W94526   7.707  33.839   2.625
28118W        W94527  44.845  39.874  10.729
28119W        W94528   1.321   7.139   3.796
28120W        W94529  12.207  17.510  12.207
28121W        W94530  34.642  12.443   2.099
28122W        W94531  34.441  26.359   2.275
28123W        W94532  27.178  16.350   0.247
28124W        W94533  16.751   1.041   0.373
28125W        W94534  16.551  42.932  13.513
28126W        W94535  41.026  27.469  10.595
28127W        W94536  29.420  35.400  13.106
28128W        W94537  20.266   3.721   3.639
28129W        W94538  21.716  11.920   3.694
28130W        W94539  15.141  33.045  12.651
28131W        W94540  32.680  32.917  12.873
28132W        W94541  37.602  19.755  12.514
28133W        W94542  23.234  19.171  14.994
28134W        W94543  26.510  15.652   5.037
28135W        W94544  37.466  42.615  11.083
28136W        W94545  26.783   9.304   1.769
28137W        W94546  31.928  27.966   1.412
28138W        W94547   3.824  25.052   0.262
28139W        W94548  44.246  16.288   4.024
28140W        W94549  26.640  28.020   4.189
28141W        W94550  21.831  14.373   5.055
28142W        W94551  44.442  41.363   0.983
28143W        W94552  32.390   7.623   1.853
28144W        W94553  41.967  38.803  13.566
28145W        W94554  26.774   6.842   4.547
28146W        W94555  26.215   2.870   3.405
28147W        W94556  40.144  37.360  13.457
28148W        W94557  10.424  30.370   2.295
28149W        W94558  27.450  17.156   3.219
28150W        W94559  19.253  14.199  11.147
28151W        W94560  20.078  24.124  11.006
28152W        W94561  44.232   0.674   3.034
28153W        W94562  39.366  38.982  11.726
28154W        W94563  22.065  21.663  10.287
28155W        W94564  11.349  22.471  12.512
28156W        W94565  26.205  11.138   1.827
28157W        W94566  10.042  15.287   1.333
28158W        W94567   0.508  13.615   4.263
28159W        W94568  34.007   9.435   0.155
28160W        W94569  43.970  31.673  10.341
28161W        W94570   6.510   6.216   1.337
28162W        W94571   7.897   4.343  12.898
28163W        W94572  35.870  34.484  12.743
28164W        W94573  20.650   8.831   4.054
28165W        W94574  11.500  39.865   0.472
28166W        W94575  23.261  31.714  14.069
28167W        W94576  12.436  21.155  13.649
28168W        W94577  34.988  44.679  10.592
28169W        W94578  16.903  42.390   1.498
28170W        W94579  25.288   8.320  11.982
28171W        W94580  21.612  14.258   4.420
28172W        W94581  30.629  21.215  11.590
28173W        W94582  30.096  24.473  11.168
28174W        W94583  29.144  39.206   4.281
28175W        W94584  43.293   2.923   4.337
28176W        W94585   8.744  31.680   2.865
28177W        W94586  32.238  22.389  13.395
28178W        W94587   1.181  18.169  12.382
28179W        W94588  34.401   6.952  14.915
28180W        W94589  29.059  15.436  10.354
28181W        W94590  11.342  12.570   3.223
28182W        W94591   3.810  38.348  14.954
28183W        W94592  40.294  23.231   0.771
28184W        W94593  30.419   6.034   4.476
28185W        W94594  10.288  12.559   4.204
28186W        W94595  15.714  35.777  14.391
28187W        W94596  30.162  11.153  14.384
28188W        W94597  18.675  22.623   0.263
28189W        W94598  36.575  26.162   3.124
28190W        W94599   4.250   0.723  13.870
28191W        W94600  23.725  24.959   3.667
28192W        W94601  27.736  19.276  13.323
28193W        W94602  44.307  10.677  13.370
28194W        W94603  16.817  13.819   2.761
28195W        W94604  23.251  30.929  11.091
28196W        W94605  36.899   0.405  13.475
28197W        W94606   5.116  16.686   4.505
28198W        W94607  25.409  10.286   4.313
28199W        W94608  12.079  38.835   4.269
28200W        W94609   2.192  10.866   3.262
28201W        W94610  30.309  25.935  13.555
28202W        W94611   7.869   2.966  13.456
28203W        W94612  42.301  19.844   1.788
28204W        W94613  15.612  10.643   1.818
28205W        W94614  12.010  18.303   2.137
28206W        W94615  36.824   0.388   1.352
28207W        W94616  37.600  34.874  10.768
28208W        W94617  13.672  32.757  10.785
28209W        W94618  18.528  40.594  10.121
28210W        W94619  24.052  44.871   1.047
28211W        W94620  38.704  14.569   4.120
28212W        W94621  28.795   3.390  12.006
28213W        W94622  42.079  22.644   1.664
28214W        W94623  39.247  33.621  12.320
28215W        W94624   6.403  42.891  10.173
28216W        W94625  38.420  28.743   3.788
28217W        W94626  13.262  32.470   5.092
28218W        W94627   5.257  27.516  11.811
28219W        W94628  42.330  13.549  10.722
28220W        W94629  11.218  19.879  11.939
28221W        W94630  39.151  44.805  12.123
28222W        W94631  27.102  37.053   2.934
28223W        W94632  20.303   2.696  11.229
28224W        W94633   5.901  26.532  14.901
28225W        W94634  32.711  18.968   3.180
28226W        W94635  30.841   3.481   3.639
28227W        W94636  25.208  41.853   3.284
28228W        W94637  39.767  16.026  11.103
28229W        W94638  14.096   0.737   4.303
28230W        W94639  10.852   3.841  12.074
28231W        W94640  44.015  20.314   4.138
28232W        W94641   3.979  35.434  10.723
28233W        W94642  30.706  13.806   3.899
28234W        W94643   2.402  39.374   0.717
28235W        W94644  19.395   0.823   0.447
28236W        W94645  34.496  40.282  14.294
28237W        W94646  25.179  27.461   3.337
28238W        W94647   3.046  27.953   0.254
28239W        W94648  41.838  26.264   0.347
28240W        W94649  44.477  33.384   3.007
28241W        W94650  41.575  40.467  14.053
28242W        W94651  18.248  30.195  13.465
28243W        W94652  24.639  38.965  10.090
28244W        W94653  39.460   4.002   3.153
28245W        W94654  35.270  31.156  14.330
28246W        W94655  43.931  44.729  13.112
28247W        W94656  34.080  21.630   4.103
28248W        W94657  30.954  21.736  14.297
28249W        W94658   8.874   6.449   0.528
28250W        W94659  38.137  29.112  13.897
28251W        W94660  21.585  44.842   4.037
28252W        W94661   0.687   5.828  14.689
28253W        W94662  28.935  14.873  14.481
28254W        W94663  24.133  18.799   3.817
28255W        W94664   0.298  22.015   2.571
28256W        W94665  15.967  26.593   0.960
28257W        W94666  38.574  33.872  12.976
28258W        W94667   4.531  31.244  14.492
28259W        W94668  36.010  30.509  12.482
28260W        W94669  20.036  37.108   4.981
28261W        W94670  26.021  28.126  11.565
28262W        W94671  30.160  19.604  12.384
28263W        W94672  40.995  36.113  12.585
28264W        W94673  19.753  25.581  14.801
28265W        W94674  18.784  30.636   2.471
28266W        W94675   4.990  43.384   1.382
28267W        W94676  17.698  14.983   3.797
28268W        W94677  18.701  16.414  11.249
28269W        W94678  32.001  30.693  12.145
28270W        W94679  40.293  30.693   4.994
28271W        W94680  23.679  20.983  14.056
28272W        W94681  26.914  38.344   4.651
28273W        W94682  18.641   6.302   4.114
28274W        W94683  34.982  38.989  14.084
28275W        W94684  19.229   9.346   2.227
28276W        W94685  43.617  19.460   3.036
28277W        W94686   2.822  12.272  12.829
28278W        W94687   2.282  40.805   3.175
28279W        W94688   7.434  34.197   3.483
28280W        W94689  41.705  18.176  10.347
28281W        W94690  41.826  12.335   1.751
28282W        W94691  32.582  22.972   1.752
28283W        W94692  22.107  22.983   4.807
28284W        W94693  22.134   7.683  10.954
28285W        W94694  37.293  16.574  12.021
28286W        W94695   8.082   6.764  11.905
28287W        W94696  36.974  15.783  10.928
28288W        W94697  24.711   5.369  13.471
28289W        W94698  16.130  36.934   0.834
28290W        W94699  18.774  14.843   0.459
28291W        W94700  19.166  23.219   2.381
28292W        W94701  29.161  19.125  11.848
28293W        W94702  37.574   7.312  14.919
28294W        W94703  14.828  35.981  13.928
28295W        W94704  38.301  44.283  14.916
28296W        W94705  22.486  19.617   4.086
28297W        W94706  10.828  21.606  10.720
28298W        W94707  14.018  15.538  12.956
28299W        W94708  39.415  21.635  12.362
28300W        W94709  33.342  16.545   0.386
28301W        W94710  24.301   6.433  12.562
28302W        W94711  13.314  38.315  13.672
28303W        W94712  36.928   9.795   0.835
28304W        W94713  13.117  39.272   2.350
28305W        W94714  13.866  23.510  11.831
28306W        W94715   8.988  20.463  11.111
28307W        W94716  23.982  38.925   3.668
28308W        W94717  24.257  19.820   5.275
28309W        W94718  39.850  13.643   4.526
28310W        W94719   0.788   7.935   0.576
28311W        W94720  33.904  21.090  10.640
28312W        W94721  19.524  14.269   3.206
28313W        W94722   7.797  13.368  10.940
28314W        W94723   7.821  44.990   0.912
28315W        W94724   9.232  27.628   0.677
28316W        W94725   6.664  36.032   2.672
28317W        W94726   2.835   1.269   0.172
28318W        W94727  12.057  37.287  14.008
28319W        W94728   3.969  32.293  13.285
28320W        W94729   7.287  22.683   4.329
28321W        W94730  39.061  34.175   3.755
28322W        W94731  28.142   3.797   3.877
28323W        W94732   8.738  22.280   4.726
28324W        W94733  29.859  36.944   4.658
28325W        W94734  22.084  30.595   0.750
28326W        W94735   9.276  28.650  11.815
28327W        W94736   1.831  22.505   4.547
28328W        W94737  12.338  43.710  11.659
28329W        W94738  21.782   1.429  12.498
28330W        W94739  27.702  41.825   0.646
28331W        W94740  34.981  15.303   3.810
28332W        W94741  21.820  44.454   1.444
28333W        W94742  39.911   5.690   3.476
28334W        W94743  42.764  38.506   4.228
28335W        W94744  11.285   2.761  12.203
28336W        W94745   3.538  42.487   1.883
28337W        W94746  22.231  22.524  13.458
28338W        W94747  13.585  35.965   2.770
28339W        W94748   4.657   6.856  12.154
28340W        W94749  37.447  24.939  14.382
28341W        W94750  31.429  19.715   4.019
28342W        W94751  29.879  13.371   1.871
28343W        W94752  23.197   0.939   0.342
28344W        W94753  16.813  41.382  14.500
28345W        W94754  10.084   6.490  13.510
28346W        W94755   9.314   0.951   1.649
28347W        W94756  17.015  14.562   1.783
28348W        W94757  38.449  21.720   2.627
28349W        W94758  39.311  13.764   2.784
28350W        W94759   7.854  22.668  12.488
28351W        W94760  34.467  18.024   3.280
28352W        W94761  32.553  25.043   2.925
28353W        W94762  29.783  28.405   3.797
28354W        W94763   4.313  17.697   4.190
28355W        W94764  15.130  14.469   0.802
28356W        W94765  12.114   5.665  14.370
28357W        W94766   7.642  30.863   3.643
28358W        W94767   0.473  26.481  10.462
28359W        W94768  26.150  16.371  10.508
28360W        W94769  29.596  31.812   2.571
28361W        W94770   0.981  24.560  11.600
28362W        W94771  41.838  27.676  12.154
28363W        W94772   2.321   5.710   0.547
28364W        W94773  32.360  10.730  13.306
28365W        W94774  15.290  35.440   0.988
28366W        W94775  23.076  35.655  10.697
28367W        W94776  19.088  42.498  11.716
28368W        W94777  39.872  10.516   1.491
28369W        W94778  43.419   8.854   0.462
28370W        W94779  28.122  16.213   0.741
28371W        W94780  44.842  13.156   4.080
28372W        W94781   3.679   9.356   0.505
28373W        W94782   2.716  28.915  10.990
28374W        W94783   2.494  31.002  11.018
28375W        W94784   8.237   3.895   2.170
28376W        W94785  27.277  12.081  11.267
28377W        W94786  14.671  36.912  14.569
28378W        W94787  33.891   6.870   1.629
28379W        W94788  40.395   3.879   1.613
28380W        W94789  15.090  22.540   2.779
28381W        W94790  41.418  37.592  13.121
28382W        W94791   4.712  23.844  11.544
28383W        W94792  29.842  27.450  11.583
28384W        W94793  16.045  18.617   2.213
28385W        W94794  10.104  44.738  10.776
28386W        W94795  24.443  20.037   2.206
28387W        W94796  12.646  21.099  12.653
28388W        W94797  24.230  33.995  13.906
28389W        W94798  42.023  44.552   3.393
28390W        W94799  31.531   1.216  12.534
28391W        W94800  33.393  25.964  11.388
28392W        W94801   9.819  15.703   1.860
28393W        W94802  33.405   4.470  12.022
28394W        W94803  24.556  36.218   1.226
28395W        W94804  25.490   2.349  14.882
28396W        W94805  16.128  23.727  13.105
28397W        W94806  32.708  25.660   0.064
28398W        W94807   7.868   9.705   4.632
28399W        W94808  37.936  23.061   4.300
28400W        W94809  19.448  29.910  13.374
28401W        W94810  43.182   8.928  12.956
28402W        W94811  25.513   8.661   1.322
28403W        W94812  16.242  32.876   1.141
28404W        W94813  19.924   0.750   0.433
28405W        W94814  43.529   9.898  12.819
28406W        W94815  38.635  26.042   2.653
28407W        W94816  22.785  21.228  13.424
28408W        W94817  18.809   3.119   0.723
28409W        W94818  20.199   2.506   0.236
28410W        W94819  15.347  27.876  12.407
28411W        W94820  30.655   8.552   1.327
28412W        W94821  10.620   2.010   0.448
28413W        W94822  14.156  26.758   1.940
28414W        W94823  23.339   3.940  12.195
28415W        W94824  24.215  32.524   0.178
28416W        W94825  12.795  24.471   4.520
28417W        W94826  24.432  14.109  10.472
28418W        W94827  28.542  17.206   4.683
28419W        W94828  27.971  20.514   3.159
28420W        W94829   0.232  20.461  10.729
28421W        W94830   4.335   9.813  11.588
28422W        W94831   7.238  35.820   1.432
28423W        W94832  39.803  30.008  14.797
28424W        W94833  40.536  37.751  13.392
28425W        W94834  38.300  31.438   0.814
28426W        W94835  12.744   9.331  10.982
28427W        W94836   6.418  17.166  13.380
28428W        W94837  31.099  36.210  13.916
28429W        W94838  17.183  29.391   3.818
28430W        W94839  16.614  34.829   2.549
28431W        W94840  44.113  10.171  13.918
28432W        W94841  16.860  41.126   4.078
28433W        W94842  39.317   3.319   4.955
28434W        W94843  34.618  36.925  13.516
28435W        W94844  28.381   7.365  12.931
28436W        W94845   6.196  15.259   1.288
28437W        W94846  20.638  43.782  12.511
28438W        W94847  10.145  26.733   4.149
28439W        W94848   7.828   3.724   0.499
28440W        W94849  14.193  16.991  12.540
28441W        W94850  10.505  28.242   4.962
28442W        W94851  11.319  24.010  13.223
28443W        W94852  28.594  31.691  14.916
28444W        W94853  31.833  18.741   4.871
28445W        W94854  16.557  40.925  14.561
28446W        W94855  44.052   8.816   3.613
28447W        W94856  21.016  32.967   1.403
28448W        W94857  43.955   4.897  10.824
28449W        W94858   1.327  31.056   0.213
28450W        W94859  14.776  19.672  14.759
28451W        W94860   5.888  21.520   0.895
28452W        W94861  26.096  12.732  10.684
28453W        W94862  33.843  20.377   0.469
28454W        W94863  10.792  42.459   3.630
28455W        W94864  36.999   5.443   1.379
28456W        W94865  35.380   7.871  10.584
28457W        W94866   3.555  24.087   5.349
28458W        W94867  38.441  17.595   3.724
28459W        W94868  29.401  44.345   2.406
28460W        W94869  38.536  11.388   1.937
28461W        W94870  29.265  44.781   0.218
28462W        W94871  42.982  14.899  11.115
28463W        W94872  43.992  32.063  10.666
28464W        W94873  10.601  20.859  11.302
28465W        W94874  31.180  24.547   3.557
28466W        W94875   3.174   2.744  12.770
28467W        W94876  14.838   7.316  10.949
28468W        W94877  31.878  26.486  12.961
28469W        W94878   1.918  26.641   1.578
28470W        W94879  25.452  22.102   2.302
28471W        W94880  29.517   7.872   2.750
28472W        W94881  40.069  42.858  11.920
28473W        W94882  40.359  11.969   3.663
28474W        W94883  24.227  33.031   3.807
28475W        W94884   0.510  28.222   0.264
28476W        W94885  14.771  11.678  11.649
28477W        W94886  11.495  29.398   3.269
28478W        W94887  11.336  36.879   1.154
28479W        W94888  40.986  16.625  12.079
28480W        W94889  36.543   2.738  10.770
28481W        W94890  14.351  25.420  11.675
28482W        W94891  38.762  42.797  13.022
28483W        W94892  20.517  41.000  10.659
28484W        W94893  11.284   0.895  13.957
28485W        W94894  33.542  31.520  11.991
28486W        W94895  24.855   8.855  14.390
28487W        W94896  24.538   6.799  14.969
28488W        W94897  43.546  36.539   3.667
28489W        W94898  18.521   0.498  10.122
28490W        W94899   6.250  36.842   0.218
28491W        W94900  21.268  34.934   3.488
28492W        W94901  23.062  38.163   4.407
28493W        W94902   3.686  32.255  13.722
28494W        W94903  28.526  39.000  12.538
28495W        W94904   7.865  16.726  12.497
28496W        W94905  44.868  35.195   4.265
28497W        W94906   5.697  28.162   1.748
28498W        W94907  40.468   8.031  14.025
28499W        W94908  40.657  40.188   4.562
28500W        W94909  41.524  34.676   2.348
28501W        W94910  24.134  17.553   3.489
28502W        W94911  41.041  44.410   1.270
28503W        W94912  14.166  35.488  14.110
28504W        W94913  29.342  28.946   3.163
28505W        W94914  37.821   0.866   3.351
28506W        W94915  35.454  17.275  14.005
28507W        W94916  21.378  23.825  14.987
28508W        W94917   3.279  16.320  11.973
28509W        W94918  44.215  10.228   2.978
28510W        W94919  19.144  44.962   0.377
28511W        W94920   2.816   8.974  10.462
28512W        W94921   2.629  43.945  11.107
28513W        W94922  10.202  38.094  11.524
28514W        W94923   0.307  43.838  13.483
28515W        W94924   9.682   3.264   4.198
28516W        W94925  41.708  18.456   0.530
28517W        W94926   7.967   0.486   0.869
28518W        W94927  39.927  16.527   4.930
28519W        W94928  13.732   9.381  11.375
28520W        W94929  28.701  33.751  12.708
28521W        W94930  23.048  36.916  13.461
28522W        W94931   4.404  17.373   1.196
28523W        W94932  42.085   2.073  10.410
28524W        W94933  28.723   5.243  12.999
28525W        W94934  34.393  22.476   0.799
28526W        W94935  35.458   0.379   2.497
28527W        W94936  34.105  37.283  13.446
28528W        W94937   4.906  27.027   1.044
28529W        W94938  42.717   6.179   1.054
28530W        W94939  24.246  14.132   4.630
28531W        W94940  12.208  38.884   1.559
28532W        W94941  10.999  36.948  12.122
28533W        W94942  31.360  36.331   4.551
28534W        W94943  28.585  25.204   3.708
28535W        W94944  15.237  39.085  11.052
28536W        W94945  32.159  22.790  12.031
28537W        W94946  37.086  36.624   1.163
28538W        W94947  11.703  38.300  10.611
28539W        W94948  19.290   0.898  11.624
28540W        W94949  19.042  23.632  13.963
28541W        W94950  15.594   7.730  11.263
28542W        W94951  37.929  10.922  12.473
28543W        W94952   3.867  16.503   3.128
28544W        W94953  11.685  25.580   3.892
28545W        W94954  34.604  24.987   3.982
28546W        W94955  31.579  17.367  14.128
28547W        W94956  44.927  35.674   0.809
28548W        W94957  31.978  36.812   4.902
28549W        W94958  28.115   4.716  11.175
28550W        W94959  40.283  30.635  11.947
28551W        W94960  40.055  44.169  10.464
28552W        W94961   7.222  21.554   2.266
28553W        W94962  25.074  20.175   4.828
28554W        W94963  13.911  38.688  10.337
28555W        W94964  42.361  20.352   1.861
28556W        W94965  29.130  44.993   2.280
28557W        W94966  42.779  14.186   0.229
28558W        W94967  32.630  16.682  14.688
28559W        W94968   4.796   1.536  13.060
28560W        W94969   6.207  23.181   1.349
28561W        W94970  23.024   5.197  12.007
28562W        W94971   6.371  31.947  10.767
28563W        W94972  22.716  38.397  10.657
28564W        W94973   9.084  18.053   1.748
28565W        W94974  40.309  14.149   1.000
28566W        W94975  10.114  36.115  12.650
28567W        W94976  21.404  21.965   9.633
28568W        W94977   2.348  17.416  11.642
28569W        W94978  40.328  33.138  12.520
28570W        W94979  10.255  34.029   3.175
28571W        W94980  42.291  16.886  10.286
28572W        W94981  24.465  30.082   0.731
28573W        W94982  12.276  39.988  12.006
28574W        W94983  43.346   6.312   3.670
28575W        W94984   9.285   1.331   0.288
28576W        W94985  29.089  27.241  13.121
28577W        W94986  27.630  23.300  12.050
28578W        W94987  32.169  35.598  13.404
28579W        W94988  10.848  38.104   2.707
28580W        W94989  13.412  35.149  12.473
28581W        W94990   9.363  18.022  13.451
28582W        W94991  43.915  10.815  11.981
28583W        W94992  42.153   7.155  12.975
28584W        W94993   2.266  12.131  11.608
28585W        W94994  22.029  18.603   0.223
28586W        W94995   2.993   9.798   2.264
28587W        W94996  41.874   5.223   0.665
28588W        W94997  39.571  38.203  13.892
28589W        W94998   4.940  10.880  10.291
28590W        W94999  39.029  24.902   4.095
28591W        W95000  24.083  36.101   0.977
28592W        W95001  27.963  14.519  13.067
28593W        W95002  36.918  10.387  14.759
28594W        W95003  33.106  13.118   4.424
28595W        W95004  25.082  17.231  14.532
28596W        W95005  12.800  33.045   4.068
28597W        W95006   3.453  31.570  12.093
28598W        W95007  29.010  37.565  10.440
28599W        W95008  43.836  41.229  14.673
28600W        W95009  18.014  35.753  10.633
28601W        W95010  25.006  31.488  11.987
28602W        W95011  22.282  29.775  12.666
28603W        W95012  16.827  42.561   3.821
28604W        W95013   1.761  15.717  13.038
28605W        W95014  28.756  24.230  13.419
28606W        W95015  11.863   4.032   3.130
28607W        W95016  18.326  23.457   3.158
28608W        W95017  34.434  28.865  14.866
28609W        W95018  19.291   6.885   2.548
28610W        W95019  18.830  41.947   3.342
28611W        W95020   2.901  29.224   0.769
28612W        W95021   7.835  12.356  11.106
28613W        W95022   5.758  25.691  12.453
28614W        W95023  10.787  10.724  13.405
28615W        W95024  14.683   4.204  10.275
28616W        W95025   3.724  28.742  11.641
28617W        W95026   1.988  42.459   0.197
28618W        W95027  37.862  25.513   4.774
28619W        W95028  14.072  18.679  12.446
28620W        W95029  26.688  15.406   0.545
28621W        W95030   3.302  30.028  10.926
28622W        W95031   6.188   8.412  14.607
28623W        W95032  26.527   2.442  12.038
28624W        W95033  40.843  13.767  13.124
28625W        W95034  41.761  22.815   2.441
28626W        W95035  32.409  19.653   4.083
28627W        W95036  28.523  18.023  12.905
28628W        W95037  21.963   0.275   1.401
28629W        W95038   4.212   8.674  13.115
28630W        W95039  38.784   9.960  10.582
28631W        W95040  33.161  44.257   2.912
28632W        W95041  43.205   6.138  11.109
28633W        W95042  21.160  41.202   5.022
28634W        W95043  29.653  23.484   0.918
28635W        W95044  41.061  35.992  11.234
28636W        W95045  40.821  36.914   3.368
28637W        W95046   2.472  21.631  12.021
28638W        W95047  32.517   5.026  11.985
28639W        W95048  21.675  22.226   2.395
28640W        W95049  16.230  22.184  11.347
28641W        W95050  23.242  13.706   1.384
28642W        W95051  43.885  34.858  11.505
28643W        W95052  10.415  29.693  13.022
28644W        W95053   2.871  22.098  11.229
28645W        W95054  19.841   3.435  13.338
28646W        W95055  21.930  41.385  13.505
28647W        W95056  12.894  26.668  13.641
28648W        W95057  25.477  16.498   2.928
28649W        W95058  24.272  38.296  13.449
28650W        W95059  40.005   0.349   1.028
28651W        W95060  16.063  27.149  11.618
28652W        W95061  10.641  36.007  12.259
28653W        W95062   6.364  15.836  12.460
28654W        W95063  30.272  36.044  12.818
28655W        W95064  32.618  36.388  12.633
28656W        W95065  14.695  31.876  13.015
28657W        W95066  14.106  43.684  14.017
28658W        W95067  12.688  37.524   2.686
28659W        W95068  13.244   7.742   3.182
28660W        W95069  28.446  21.451   2.226
28661W        W95070  22.269  17.651   1.116
28662W        W95071  24.531  33.926  10.557
28663W        W95072  20.160  39.420  12.401
28664W        W95073  22.860  44.530  14.094
28665W        W95074  14.684  17.652  10.440
28666W        W95075  17.720  35.813  11.243
28667W        W95076  15.032  20.516  13.952
28668W        W95077  21.369  22.102   3.333
28669W        W95078   4.426  44.848  14.921
28670W        W95079   6.425   0.996  14.002
28671W        W95080  16.579  37.242   3.042
28672W        W95081  36.837  25.746   2.247
28673W        W95082  43.224  27.178   2.264
28674W        W95083   4.877  39.799   4.811
28675W        W95084  29.087  42.593  11.180
28676W        W95085   6.617  16.735  14.415
28677W        W95086  30.028  27.665  11.152
28678W        W95087  11.449  17.951   1.220
28679W        W95088  28.886  40.458   1.744
28680W        W95089  39.863  12.746  13.336
28681W        W95090   5.210  26.965  13.766
28682W        W95091   9.637  33.581   2.528
28683W        W95092  43.024   4.287  11.968
28684W        W95093  21.440  41.415  13.376
28685W        W95094  16.404  16.325   0.752
28686W        W95095  37.575  21.128  13.100
28687W        W95096   5.701  14.914  11.121
28688W        W95097  27.137  35.920   3.910
28689W        W95098  16.602  16.973  13.352
28690W        W95099  35.341  30.890  12.050
28691W        W95100  29.108  36.104   3.610
28692W        W95101  42.874  39.518  10.737
28693W        W95102  16.329  30.021  10.635
28694W        W95103  33.336  41.613  14.403
28695W        W95104   3.237   4.931   1.178
28696W        W95105  28.042  39.164   4.779
28697W        W95106   7.981  34.086   1.218
28698W        W95107  30.887  37.199  13.766
28699W        W95108  31.949  33.006  11.602
28700W        W95109   3.912   5.765   1.371
28701W        W95110  31.479  25.682   3.721
28702W        W95111  35.144  43.945  12.182
28703W        W95112  24.669  41.527   4.252
28704W        W95113  31.933  31.205   4.182
28705W        W95114  25.090  20.254  13.831
28706W        W95115  42.986  23.271  12.598
28707W        W95116  18.118  39.801  10.997
28708W        W95117   8.376  33.243  12.768
28709W        W95118   8.924  12.622  10.315
28710W        W95119  32.565  16.170   1.452
28711W        W95120   1.863  29.080   3.127
28712W        W95121  43.980  20.255   0.036
28713W        W95122   2.258   3.778  11.216
28714W        W95123  19.136  42.087   2.379
28715W        W95124  40.991   4.486   1.575
28716W        W95125   7.363  21.174  12.868
28717W        W95126  33.500   8.233  12.084
28718W        W95127  22.062  18.527   4.610
28719W        W95128  42.569  23.070  11.823
28720W        W95129   8.488  39.439  10.684
28721W        W95130  32.304  31.439   2.283
28722W        W95131  27.497  38.607   1.406
28723W        W95132  34.878  34.482   3.186
28724W        W95133  15.245   3.320  11.737
28725W        W95134  37.202  41.388   1.272
28726W        W95135  29.212  36.629   0.717
28727W        W95136   3.241  16.904  11.516
28728W        W95137   7.649  40.578   4.038
28729W        W95138  24.395  41.261  14.831
28730W        W95139  39.568  25.646   4.981
28731W        W95140  22.820  22.132  12.118
28732W        W95141  18.981  39.790   1.950
28733W        W95142  11.915  12.381   2.660
28734W        W95143  25.462  37.011   2.696
28735W        W95144   7.120  36.404  14.862
28736W        W95145  20.036  20.127  13.335
28737W        W95146  10.822  13.830   4.797
28738W        W95147  23.702   1.428   4.835
28739W        W95148   8.615  25.932   1.968
28740W        W95149   0.974  19.386   4.508
28741W        W95150  12.874  14.430   0.687
28742W        W95151   3.772   7.985   0.148
28743W        W95152  30.802  31.634   0.436
28744W        W95153  33.651  24.179  13.335
28745W        W95154   0.877  41.329  10.711
28746W        W95155   6.473   8.289   4.887
28747W        W95156  17.149  43.159   4.716
28748W        W95157  43.103  27.233  11.171
28749W        W95158  27.620  16.512   0.008
28750W        W95159  32.569  20.771  14.715
28751W        W95160  15.702  17.100  10.511
28752W        W95161   2.460  21.003  10.802
28753W        W95162  30.452  28.005   0.280
28754W        W95163  44.323  22.585  10.093
28755W        W95164  18.693  24.994   0.343
28756W        W95165  25.903  39.992   2.587
28757W        W95166  22.656  25.352  11.501
28758W        W95167  12.857  15.000   2.987
28759W        W95168  26.649  40.586   1.003
28760W        W95169  44.475   8.617   3.896
28761W        W95170  19.834  12.444   3.604
28762W        W95171  15.137  39.203  12.111
28763W        W95172  10.351  17.516  10.539
28764W        W95173  42.299  38.483  11.244
28765W        W95174   5.176  37.495  10.129
28766W        W95175  14.214  38.806   0.274
28767W        W95176  14.702  36.792  11.854
28768W        W95177   4.878   2.310  11.579
28769W        W95178  10.903  22.710  13.252
28770W        W95179  30.087  41.789  12.400
28771W        W95180  36.616  14.943   0.952
28772W        W95181  40.777   7.171  13.930
28773W        W95182   7.391  10.841  11.672
28774W        W95183  15.125   5.397  14.012
28775W        W95184  27.659  24.726   2.843
28776W        W95185  27.351  32.363  11.281
28777W        W95186   3.421  29.908   0.000
28778W        W95187  30.540  12.570   0.392
28779W        W95188  21.040  19.607   3.666
28780W        W95189  32.677   2.280  12.440
28781W        W95190  44.438  44.867   4.177
28782W        W95191   8.297  18.589   1.249
28783W        W95192   5.283  24.082   2.261
28784W        W95193  12.691  18.232  10.903
28785W        W95194  43.991  34.934  10.590
28786W        W95195  36.090  20.001   1.370
28787W        W95196  28.678   1.678  10.522
28788W        W95197  22.662  30.459   1.940
28789W        W95198  28.177  44.856  12.509
28790W        W95199  34.795  39.232  11.157
28791W        W95200  28.971  28.400   0.823
28792W        W95201  38.088  24.563   4.582
28793W        W95202  35.787  36.031  12.941
28794W        W95203   9.592  13.788   2.691
28795W        W95204  32.457  20.306  14.471
28796W        W95205  33.577   8.632   1.286
28797W        W95206   2.933  34.956  12.588
28798W        W95207  38.804   2.414   1.809
28799W        W95208  17.801   2.320   1.357
28800W        W95209  23.538   4.469   4.266
28801W        W95210   7.837   8.347  13.962
28802W        W95211  28.970  20.631   3.166
28803W        W95212  30.102   9.129  11.221
28804W        W95213  36.346  41.977   0.545
28805W        W95214  11.718  16.077   2.312
28806W        W95215  18.846  40.847   4.940
28807W        W95216  35.363  43.811   4.565
28808W        W95217  23.277  37.130  13.895
28809W        W95218  14.151   5.933   1.830
28810W        W95219  12.719  27.699   2.611
28811W        W95220  38.647   2.060  13.513
28812W        W95221  10.090   8.815   0.878
28813W        W95222   9.569  26.437   2.290
28814W        W95223  13.050  40.198  12.390
28815W        W95224  14.665  23.743  12.039
28816W        W95225  35.631  16.022   4.488
28817W        W95226  23.517  19.699  13.011
28818W        W95227  10.655  28.983  13.944
28819W        W95228  38.555   1.801  12.600
28820W        W95229  44.982   9.738  12.176
28821W        W95230  36.405  16.647  14.619
28822W        W95231  31.006  36.508   2.003
28823W        W95232  29.715  20.360   1.345
28824W        W95233  35.068  38.839  12.616
28825W        W95234  26.409  32.575  11.544
28826W        W95235  34.443  12.739   4.628
28827W        W95236  40.459   4.464  13.961
28828W        W95237  40.849  39.941   2.723
28829W        W95238  34.811  29.459  11.224
28830W        W95239  36.708  29.490   5.012
28831W        W95240   4.873   7.513   2.488
28832W        W95241  11.329   6.433  10.723
28833W        W95242  23.592  27.113  11.992
28834W        W95243  31.371  43.074  10.878
28835W        W95244  30.651  21.777  12.393
28836W        W95245   7.969  26.698  11.172
28837W        W95246   1.235  15.729   2.855
28838W        W95247   7.684   5.183  11.127
28839W        W95248  24.003   2.443  11.754
28840W        W95249  33.403  32.933   1.869
28841W        W95250   4.186   4.382   4.054
28842W        W95251  29.660   1.646   1.810
28843W        W95252  42.391  30.886   3.394
28844W        W95253  27.892  43.433  11.498
28845W        W95254  43.189   0.233  13.463
28846W        W95255  33.474  30.292   1.736
28847W        W95256  36.437  13.182  14.485
28848W        W95257  36.390  22.050  13.493
28849W        W95258   5.187  39.854  12.715
28850W        W95259  29.785  27.480  14.028
28851W        W95260  27.112  35.721   3.182
28852W        W95261  29.668  14.275  14.313
28853W        W95262  25.465   5.272  12.471
28854W        W95263  27.034  34.451   4.154
28855W        W95264  44.931  19.298  14.302
28856W        W95265  29.052  35.593   3.613
28857W        W95266  21.130  23.019   4.652
28858W        W95267  31.959  39.496   2.653
28859W        W95268  38.823  41.007  14.967
28860W        W95269  13.198  17.772   2.706
28861W        W95270  16.321  41.426  14.668
28862W        W95271  20.182  41.637  12.975
28863W        W95272  25.018   2.322   2.384
28864W        W95273  15.688  19.728  11.215
28865W        W95274   9.704  44.201  10.226
28866W        W95275  38.992  27.734  14.060
28867W        W95276  17.119  22.777   4.949
28868W        W95277  31.096  43.729  12.043
28869W        W95278  10.448  19.733  12.867
28870W        W95279   1.958   3.014   4.518
28871W        W95280  11.707  22.981   3.442
28872W        W95281  30.921  13.251  11.252
28873W        W95282  16.938   4.532   3.408
28874W        W95283   4.760   1.512   4.236
28875W        W95284  14.628  34.810   4.053
28876W        W95285  44.988   3.895   1.840
28877W        W95286  31.581  23.618  14.311
28878W        W95287  37.522  14.966   2.746
28879W        W95288  13.904  44.777   3.311
28880W        W95289  19.849  34.508  11.268
28881W        W95290  29.958  27.491   4.131
28882W        W95291  33.679  22.799   0.285
28883W        W95292  22.306   2.770  11.231
28884W        W95293   9.841  12.323   3.107
28885W        W95294  10.273  36.893  11.648
28886W        W95295  27.929  15.707   1.314
28887W        W95296  13.041  23.030  11.701
28888W        W95297  10.792  27.901  14.927
28889W        W95298  30.049  13.779   0.906
28890W        W95299  32.368  19.056  11.714
28891W        W95300  19.119  36.664   0.927
28892W        W95301  11.225  36.546   4.310
28893W        W95302   7.212   4.286   3.906
28894W        W95303  31.899  31.680   3.192
28895W        W95304  34.608  23.050   0.494
28896W        W95305  15.124  19.631   0.953
28897W        W95306  26.330  38.808   4.860
28898W        W95307  19.153   9.146   3.490
28899W        W95308  33.041   3.729  12.514
28900W        W95309  17.567  32.417  14.879
28901W        W95310  42.514  43.960   4.168
28902W        W95311  13.272   2.283  12.527
28903W        W95312  16.695   2.212   3.981
28904W        W95313  10.697  27.639   3.700
28905W        W95314  26.014   0.368  12.017
28906W        W95315   9.490  30.674  10.756
28907W        W95316  27.314  37.151   1.465
28908W        W95317  44.063  16.056   3.082
28909W        W95318  41.580  32.056  13.941
28910W        W95319   8.776   1.417   1.661
28911W        W95320  25.519  39.566  11.376
28912W        W95321  24.937  28.545   4.819
28913W        W95322  26.221  20.454  12.177
28914W        W95323  23.274  19.266   3.676
28915W        W95324  33.286  22.443   2.190
28916W        W95325   8.376   7.425   1.811
28917W        W95326  11.698  35.439   4.294
28918W        W95327   1.496  27.560  14.910
28919W        W95328  37.754  16.051  12.549
28920W        W95329  12.774  40.773  13.102
28921W        W95330  25.005   7.174   0.766
28922W        W95331  31.361  26.718   0.279
28923W        W95332   3.807  36.895   2.283
28924W        W95333  43.766  13.291   2.937
28925W        W95334  20.752  40.837   3.299
28926W        W95335  20.822  39.842   4.731
28927W        W95336  14.560   9.271   1.810
28928W        W95337   7.820   0.276   3.288
28929W        W95338  14.883   8.062   3.243
28930W        W95339  31.393  42.838   0.467
28931W        W95340  41.886  10.366  11.592
28932W        W95341  12.494  32.248  13.433
28933W        W95342  23.383  21.329   2.277
28934W        W95343  25.269   3.469  14.116
28935W        W95344  16.020  39.665   1.729
28936W        W95345  24.091  16.627  10.749
28937W        W95346  43.003  33.452  14.125
28938W        W95347  42.484  32.064   3.384
28939W        W95348  15.176  33.786   2.595
28940W        W95349  44.369  20.011   4.763
28941W        W95350  24.931   0.270   3.714
28942W        W95351  44.431  40.899   0.729
28943W        W95352  33.504   8.915  12.349
28944W        W95353  24.930  11.106   1.262
28945W        W95354  13.076  15.045  14.471
28946W        W95355  17.009   3.980  10.531
28947W        W95356  17.689   4.243   0.423
28948W        W95357  38.945  33.972   1.243
28949W        W95358   3.450  44.150   1.293
28950W        W95359  25.946  18.000   0.487
28951W        W95360   1.376   2.878   0.734
28952W        W95361  37.409  28.968  11.204
28953W        W95362   7.891   0.991   1.854
28954W        W95363  43.689  21.698  11.208
28955W        W95364   4.814  10.329  13.937
28956W        W95365  30.223   9.714   5.530
28957W        W95366  22.258  25.609   3.663
28958W        W95367  36.368  35.068  11.174
28959W        W95368  29.462  30.143   0.319
28960W        W95369  42.249  27.095   3.251
28961W        W95370  41.941  28.947   2.648
28962W        W95371   6.273   3.645  10.534
28963W        W95372  37.835  34.226   2.207
28964W        W95373  33.154  17.257  10.648
28965W        W95374  42.972  36.563  13.098
28966W        W95375   2.525  25.802  11.656
28967W        W95376  30.676  32.535   2.301
28968W        W95377  25.614  10.084   0.902
28969W        W95378  36.983   2.230  11.023
28970W        W95379  15.611  33.512  10.582
28971W        W95380  24.053  40.835   1.367
28972W        W95381  35.918  33.828   4.600
28973W        W95382   4.896  42.567   9.947
28974W        W95383  13.277   2.442   1.920
28975W        W95384  30.106  16.308   1.970
28976W        W95385  35.162  19.472  11.843
28977W        W95386  37.250  16.860  10.316
28978W        W95387   4.224  13.502  14.056
28979W        W95388  10.722   5.596  14.091
28980W        W95389  30.004  16.800  11.095
28981W        W95390  10.174  16.330  11.094
28982W        W95391  33.029  28.999   0.740
28983W        W95392  36.896  35.900  13.267
28984W        W95393  16.057  29.666   4.554
28985W        W95394   1.655  16.130  13.879
28986W        W95395  38.943  30.717  13.306
28987W        W95396  22.541  26.561   4.004
28988W        W95397  38.424  26.905  12.069
28989W        W95398  33.696  38.961   1.032
28990W        W95399  26.663  11.346  11.085
28991W        W95400  35.506  44.825  11.124
28992W        W95401  28.155  31.629  12.931
28993W        W95402  33.596  37.054   0.011
28994W        W95403  17.292  24.096   2.179
28995W        W95404  27.531  15.585   1.627
28996W        W95405  14.360  41.891  11.980
28997W        W95406  13.476  41.403  10.806
28998W        W95407  33.537  18.549  13.447
28999W        W95408  21.053  42.253  11.983
29000W        W95409  17.586  42.977  13.507
29001W        W95410  18.842  31.891  10.668
29002W        W95411  32.872  12.724   1.189
29003W        W95412  42.858  40.535   0.295
29004W        W95413  36.828  39.250   3.751
29005W        W95414  32.468  25.175  12.040
29006W        W95415  28.499  35.453  10.776
29007W        W95416  37.863  20.614   2.718
29008W        W95417   8.635  10.126  11.720
29009W        W95418  30.654  40.554   2.310
29010W        W95419  25.545  17.397  11.947
29011W        W95420  38.388  29.367  13.519
29012W        W95421  15.948  39.829  14.376
29013W        W95422  41.994  36.858  11.638
29014W        W95423  37.131  31.168   0.355
29015W        W95424  34.426  38.068  12.288
29016W        W95425  15.530  31.256  14.754
29017W        W95426  41.752  44.238   1.781
29018W        W95427  32.962   0.556   4.330
29019W        W95428  35.880  40.906   4.599
29020W        W95429   0.716  31.152  12.079
29021W        W95430  28.001  26.423  11.513
29022W        W95431  10.982  14.217  11.479
29023W        W95432  16.779   8.682  10.696
29024W        W95433  23.433  34.067   4.541
29025W        W95434  31.868  40.457   0.295
29026W        W95435  35.258  23.471   0.423
29027W        W95436  10.695  41.844  13.636
29028W        W95437  37.470  31.995  14.494
29029W        W95438  26.684  21.169   1.808
29030W        W95439  31.788  12.697  13.403
29031W        W95440   3.904   1.760  14.433
29032W        W95441  40.971  13.378   1.851
29033W        W95442  32.993  37.625  12.514
29034W        W95443  23.272  12.519   3.525
29035W        W95444  42.973  44.774   0.471
29036W        W95445  36.147   5.468   3.640
29037W        W95446  34.459  14.851  14.485
29038W        W95447  40.377  38.924   1.146
29039W        W95448   6.220  12.690   1.802
29040W        W95449   0.375  24.765  12.818
29041W        W95450   8.703  29.176  12.460
29042W        W95451   7.697  31.710   0.483
29043W        W95452  31.618  44.585   0.819
29044W        W95453  41.969   3.904   3.548
29045W        W95454  34.024  36.823   2.420
29046W        W95455  33.017  40.274   4.329
29047W        W95456  30.644  44.821  13.344
29048W        W95457  31.168  13.854   1.726
29049W        W95458   1.351  25.031   2.195
29050W        W95459  24.292  30.825  12.046
29051W        W95460  12.924  35.500  13.254
29052W        W95461   3.932  33.996  10.938
29053W        W95462  40.574  24.042   1.247
29054W        W95463  43.878   6.869  14.069
29055W        W95464  35.979  15.851  14.481
29056W        W95465  36.588  40.588  12.209
29057W        W95466  43.462  35.519  14.828
29058W        W95467   4.757  10.246   1.656
29059W        W95468  42.504  15.768   3.239
29060W        W95469  38.969  19.687  12.359
29061W        W95470  44.238   1.007  12.982
29062W        W95471   8.576  40.562  14.071
29063W        W95472  40.713   4.853   4.029
29064W        W95473  34.081  42.460   1.869
29065W        W95474   0.359  15.236   1.219
29066W        W95475   5.889  35.566   1.368
29067W        W95476  26.261  26.938  13.289
29068W        W95477  24.223  35.026   3.312
29069W        W95478  31.191  35.848   4.413
29070W        W95479  23.477  24.520   2.222
29071W        W95480  24.043  15.841  13.914
29072W        W95481  16.016  29.636   1.918
29073W        W95482  33.495   1.789   0.706
29074W        W95483   9.907  39.519  11.823
29075W        W95484  41.864   2.991  12.480
29076W        W95485  44.337  39.518   0.846
29077W        W95486   1.023  39.959  14.813
29078W        W95487  39.682  33.859   0.555
29079W        W95488  18.311  27.207   3.880
29080W        W95489  42.206  20.742  10.545
29081W        W95490  42.794   6.277   3.714
29082W        W95491  23.395   4.249  13.549
29083W        W95492  40.049  31.063   2.731
29084W        W95493   5.904  24.539  12.088
29085W        W95494  22.244   4.146  11.440
29086W        W95495  44.716  21.069  14.870
29087W        W95496  40.552  35.033  13.782
29088W        W95497  41.417   9.518   2.424
29089W        W95498  10.689  17.575  12.581
29090W        W95499  29.580  42.694   0.975
29091W        W95500  12.223  31.611   1.293
29092W        W95501  25.144  14.090  12.042
29093W        W95502   2.677   1.910   3.276
29094W        W95503  42.962  32.591   2.330
29095W        W95504  28.593  23.145  12.238
29096W        W95505  31.428  19.061   3.686
29097W        W95506   7.254   3.008  12.042
29098W        W95507  29.135   8.268  12.782
29099W        W95508   1.280  21.545  11.319
29100W        W95509  40.460  40.824   3.864
29101W        W95510  28.821   9.949  11.555
29102W        W95511  25.792  22.763   0.279
29103W        W95512  37.794  23.755  14.826
29104W        W95513  42.717  27.184   2.366
29105W        W95514  20.638   5.064  12.533
29106W        W95515  32.671   6.229   0.905
29107W        W95516  17.567  14.286  12.510
29108W        W95517  41.300  18.853  12.136
29109W        W95518  37.951  30.197   4.066
29110W        W95519   4.450   8.300  11.426
29111W        W95520  28.106  38.919   1.806
29112W        W95521  32.967  38.445  13.352
29113W        W95522  35.940   3.999   0.239
29114W        W95523  31.353  27.223   0.390
29115W        W95524  40.234  35.483   0.484
29116W        W95525  24.969  25.047  12.888
29117W        W95526  19.425  24.895   4.192
29118W        W95527  36.645   8.189  14.840
29119W        W95528   7.974  37.992  13.425
29120W        W95529   5.184  30.498   4.028
29121W        W95530  44.295  23.527   3.667
29122W        W95531  19.985  29.490   1.732
29123W        W95532   4.153  29.818   3.612
29124W        W95533  21.932   7.845  12.788
29125W        W95534  13.305  33.760  11.608
29126W        W95535  41.399  22.346  14.342
29127W        W95536  38.047  15.477   0.991
29128W        W95537  36.327  13.337  13.494
29129W        W95538  19.385  36.331   4.634
29130W        W95539   7.370  14.886   0.313
29131W        W95540  34.127  30.399  12.997
29132W        W95541  30.911  41.408  13.771
29133W        W95542  14.322  12.333   4.663
29134W        W95543  34.084  34.743   0.951
29135W        W95544  36.023  40.919   2.745
29136W        W95545  35.305  36.457   0.679
29137W        W95546  34.913  27.013  12.612
29138W        W95547  19.286  31.138  11.409
29139W        W95548  34.067   0.184   1.257
29140W        W95549  28.484  35.645   4.869
29141W        W95550   7.409  27.759  14.433
29142W        W95551  29.393  22.562   4.140
29143W        W95552  31.024  10.359  13.010
29144W        W95553  33.940  27.739  12.857
29145W        W95554   3.879  23.057   4.231
29146W        W95555  24.614  41.551  12.059
29147W        W95556  28.261  21.713  10.402
29148W        W95557  38.885  43.246  14.696
29149W        W95558  14.191  11.332  14.939
29150W        W95559  17.799   5.085  13.931
29151W        W95560  32.397  17.404  11.104
29152W        W95561  34.210   5.090   4.611
29153W        W95562   8.281   3.930  14.304
29154W        W95563   5.595  39.670  13.833
29155W        W95564  21.637  20.797   4.762
29156W        W95565  38.506   0.035  11.098
29157W        W95566  39.491  43.368   4.390
29158W        W95567  28.156   1.882  13.816
29159W        W95568  24.636   1.942  13.860
29160W        W95569   3.142  43.294  14.110
29161W        W95570  42.857   0.515  12.174
29162W        W95571  24.726  34.542   4.640
29163W        W95572  14.863   7.466  14.938
29164W        W95573  28.934  15.939  12.329
29165W        W95574  16.174  44.997   2.890
29166W        W95575  31.131  26.630   3.885
29167W        W95576   2.722  33.134  14.735
29168W        W95577  43.501  24.166   0.453
29169W        W95578   6.744   9.176  13.984
29170W        W95579  43.186  35.168   0.695
29171W        W95580  18.528  38.123   0.801
29172W        W95581  17.751  40.351  10.593
29173W        W95582  44.195   1.963  10.154
29174W        W95583  41.852  29.362  13.369
29175W        W95584  23.890   8.211   5.117
29176W        W95585   6.831  35.060  14.267
29177W        W95586   8.124  18.873  14.906
29178W        W95587  33.317  13.079  11.273
29179W        W95588  38.323  33.457   0.117
29180W        W95589  38.933  37.892  11.091
29181W        W95590  36.540  18.717   0.339
29182W        W95591  13.280  35.117  13.416
29183W        W95592  41.776  18.008  13.893
29184W        W95593  24.584   5.684  11.469
29185W        W95594  44.202  43.903  12.705
29186W        W95595   7.369  39.021  12.882
29187W        W95596   2.108  25.503  11.612
29188W        W95597  40.478  27.880   4.131
29189W        W95598  11.750   6.387  11.701
29190W        W95599  30.615  11.402  12.684
29191W        W95600  30.967  42.489  10.606
29192W        W95601  16.843   2.547   4.943
29193W        W95602  26.964  41.289   4.566
29194W        W95603   9.665  11.725  14.190
29195W        W95604   4.836  32.726   3.736
29196W        W95605  31.036  20.164  13.003
29197W        W95606  23.186  31.145  11.557
29198W        W95607  43.990  38.451   1.713
29199W        W95608  32.146  30.172  12.969
29200W        W95609  20.405   6.238  13.813
29201W        W95610  30.219  19.106   3.165
29202W        W95611  24.811  13.202  11.978
29203W        W95612  29.683   5.751  13.910
29204W        W95613  13.412  32.488  14.440
29205W        W95614  10.668  25.614  11.887
29206W        W95615  36.291  12.867   3.677
29207W        W95616  37.951  30.733   4.108
29208W        W95617  43.593  17.608   0.426
29209W        W95618  26.170  27.170  11.107
29210W        W95619   2.252  42.388   1.630
29211W        W95620  38.997   0.780  11.215
29212W        W95621   6.450   8.737  14.903
29213W        W95622  14.647  36.552  11.035
29214W        W95623  27.163  26.967  13.504
29215W        W95624  15.238   6.206  10.571
29216W        W95625  36.639   7.758   1.611
29217W        W95626   9.650  34.566  13.528
29218W        W95627  30.751  29.992   0.801
29219W        W95628  38.891  15.076   0.025
29220W        W95629   2.870  12.829  14.036
29221W        W95630  28.202  40.705   3.223
29222W        W95631  32.538  43.360  12.939
29223W        W95632  40.263   0.970   4.108
29224W        W95633  44.966  21.801   4.567
29225W        W95634   1.024  15.694   1.428
29226W        W95635  16.526   9.157  13.363
29227W        W95636  28.490  10.521  13.578
29228W        W95637  34.391   3.569   1.217
29229W        W95638  26.574  28.431   1.741
29230W        W95639  10.198  16.145   1.257
29231W        W95640  19.115  31.318   4.508
29232W        W95641  13.109  42.024  10.706
29233W        W95642  33.894  34.742  14.985
29234W        W95643   6.879  19.601   2.568
29235W        W95644   6.423   9.392  11.121
29236W        W95645  25.228  25.290  10.203
29237W        W95646  14.519  36.290   5.032
29238W        W95647  25.134  32.332  13.894
29239W        W95648  36.483  26.457  11.237
29240W        W95649   8.772  30.898  10.394
29241W        W95650  36.450  36.655   4.129
29242W        W95651  29.348  12.857   1.219
29243W        W95652   4.284  19.795  13.934
29244W        W95653   8.917  14.684  14.609
29245W        W95654   6.746   7.092   3.302
29246W        W95655  11.370  11.272  11.121
29247W        W95656  18.318  13.196   3.075
29248W        W95657  21.233  25.608   2.676
29249W        W95658  41.413  41.864  13.940
29250W        W95659  37.867   5.771  14.071
29251W        W95660  44.816   9.879  11.664
29252W        W95661  22.709  12.083   2.693
29253W        W95662  21.476  13.272  14.502
29254W        W95663  23.805  14.717   1.606
29255W        W95664   2.175  27.606   2.912
29256W        W95665  15.356  34.416  12.431
29257W        W95666  18.669  36.972  10.313
29258W        W95667  11.079   4.354   3.258
29259W        W95668  35.413  34.730  12.871
29260W        W95669  40.971   6.707   1.140
29261W        W95670  31.112  32.414   0.021
29262W        W95671  44.318  26.663   2.791
29263W        W95672   4.275   4.066  13.436
29264W        W95673   8.873  35.552   3.754
29265W        W95674  28.777  34.667   1.278
29266W        W95675  38.916  24.172   3.599
29267W        W95676  42.117  38.879   1.740
29268W        W95677  31.890  33.849  11.985
29269W        W95678  29.481   9.063   5.143
29270W        W95679  20.778  25.334   2.871
29271W        W95680  36.444  31.956   0.017
29272W        W95681   5.420  29.487   1.792
29273W        W95682  27.994  13.287  13.885
29274W        W95683  10.260  14.593  12.918
29275W        W95684  24.437  15.835   5.096
29276W        W95685  43.649  10.216   4.894
29277W        W95686  36.325  12.323   0.864
29278W        W95687  14.311  15.672   0.015
29279W        W95688   6.426  25.886  14.979
29280W        W95689  11.179   8.118  11.492
29281W        W95690  17.012  30.928  14.449
29282W        W95691   3.520  23.623   2.191
29283W        W95692  36.135  17.482  10.715
29284W        W95693  34.918  11.812   3.151
29285W        W95694  23.813  22.014  13.061
29286W        W95695  33.170  26.944   4.765
29287W        W95696   8.624  14.143  11.589
29288W        W95697  15.663  18.517  14.498
29289W        W95698  35.937  39.603   3.173
29290W        W95699   9.333   8.255  12.863
29291W        W95700   5.876  41.182   1.243
29292W        W95701   1.007   0.113  11.891
29293W        W95702  20.693  38.884   0.898
29294W        W95703  37.467   1.569  11.250
29295W        W95704  41.913  39.333  14.197
29296W        W95705  38.500  21.656  12.416
29297W        W95706  42.394   8.380  14.233
29298W        W95707  35.693  29.328  10.661
29299W        W95708  44.414  36.981   4.182
29300W        W95709  27.413   6.235   2.788
29301W        W95710  11.189  20.667  14.939
29302W        W95711  42.936  29.406  11.651
29303W        W95712  27.265   7.827  11.742
29304W        W95713  23.556   7.830  13.539
29305W        W95714   0.926  27.259   3.786
29306W        W95715  19.306   6.719  11.322
29307W        W95716  20.701  21.636  11.507
29308W        W95717  30.525  40.558   0.236
29309W        W95718  11.639  44.885  13.011
29310W        W95719  40.230  25.094  11.614
29311W        W95720  37.452  34.971  12.518
29312W        W95721  32.430  41.037   0.937
29313W        W95722  12.503  28.542   2.913
29314W        W95723  39.334  32.570  13.851
29315W        W95724  38.455  10.569   4.778
29316W        W95725  16.020  13.123  14.321
29317W        W95726  20.454  16.508   4.152
29318W        W95727  14.660   0.912  10.642
29319W        W95728  31.978  11.832   4.664
29320W        W95729  28.054  13.576  11.468
29321W        W95730  35.527  25.230   2.203
29322W        W95731  10.830   6.370  11.029
29323W        W95732  24.144  33.509   2.163
29324W        W95733   6.899   7.673   0.433
29325W        W95734   4.920  38.442   0.657
29326W        W95735  34.552   6.127   3.540
29327W        W95736  31.132  23.616  14.575
29328W        W95737  18.466  25.361   0.708
29329W        W95738  15.219  32.936  13.591
29330W        W95739  19.522   0.530   4.441
29331W        W95740  15.721   3.098   1.748
29332W        W95741  26.205  11.167  11.826
29333W        W95742  15.731  13.384   4.229
29334W        W95743   5.191   8.669  13.969
29335W        W95744   3.946  22.044   1.228
29336W        W95745   6.616   1.921   1.299
29337W        W95746   3.717  16.685  11.516
29338W        W95747   7.404   9.793   0.623
29339W        W95748  31.179  30.728  12.076
29340W        W95749  41.892  12.356  14.908
29341W        W95750  40.473  14.548   1.269
29342W        W95751  19.205  44.545   4.675
29343W        W95752  21.209   0.890   0.765
29344W        W95753  15.745  26.890   4.495
29345W        W95754  42.274  18.812  12.927
29346W        W95755  27.545  41.266  13.856
29347W        W95756  10.222  28.345  12.559
29348W        W95757   8.859   0.849  12.414
29349W        W95758  20.456  19.308  13.852
29350W        W95759  34.894  43.520  12.059
29351W        W95760  17.499   6.294  12.295
29352W        W95761  23.801  18.821   2.790
29353W        W95762   7.666   5.027  10.363
29354W        W95763  22.285   0.238   3.115
29355W        W95764  41.051  30.535   3.197
29356W        W95765  40.473  33.057   0.436
29357W        W95766   1.274  24.041   2.665
29358W        W95767  34.459  37.014   5.094
29359W        W95768   2.120  10.948   4.527
29360W        W95769  16.817  32.431   1.889
29361W        W95770  32.016  40.701   1.883
29362W        W95771  36.221  30.962  13.551
29363W        W95772  18.312  11.800  13.321
29364W        W95773  17.252   0.226  14.209
29365W        W95774   7.432  36.415   3.762
29366W        W95775  11.630  41.314  12.190
29367W        W95776  43.550   7.747  12.010
29368W        W95777   3.180   8.369  13.546
29369W        W95778  36.132  25.237   4.881
29370W        W95779  12.125  10.643   0.766
29371W        W95780  44.729   5.184   4.151
29372W        W95781   0.977  32.554   1.504
29373W        W95782  41.925  21.279   0.216
29374W        W95783  25.326  10.160   1.908
29375W        W95784  27.905  43.293   4.641
29376W        W95785  26.023  32.956   3.846
29377W        W95786  13.193  36.931   5.118
29378W        W95787  24.478  21.799  14.410
29379W        W95788  29.605  10.837   4.316
29380W        W95789  24.432  35.910  13.274
29381W        W95790   2.798  30.640  14.932
29382W        W95791   1.281   4.783   2.225
29383W        W95792  22.446  15.216  14.796
29384W        W95793  17.058  11.539  10.501
29385W        W95794  20.514   4.707   3.162
29386W        W95795   6.187  30.650   3.174
29387W        W95796  30.760   9.807   3.186
29388W        W95797  20.609  31.816   4.180
29389W        W95798  44.195  27.096  11.325
29390W        W95799  21.571  23.028  13.038
29391W        W95800  33.299   2.717  14.788
29392W        W95801  34.566  36.964   1.186
29393W        W95802  43.940  19.805  13.067
29394W        W95803   6.442   5.204  10.524
29395W        W95804   1.564  26.956  12.416
29396W        W95805  24.225  17.734   1.910
29397W        W95806  33.544   7.678   4.120
29398W        W95807   8.360  42.245  11.140
29399W        W95808  42.927  33.830  12.863
29400W        W95809  43.538  12.892   2.009
29401W        W95810  25.514  25.722   2.790
29402W        W95811  13.792   9.151  12.359
29403W        W95812  25.042  28.777   0.376
29404W        W95813  31.694  31.527   0.042
29405W        W95814   2.893   3.295   1.554
29406W        W95815   2.358  23.224  10.909
29407W        W95816  28.241  27.113  12.450
29408W        W95817  18.665  32.150  12.113
29409W        W95818  31.667  20.486  13.397
29410W        W95819  11.332  10.650  12.902
29411W        W95820  28.989  24.887   2.274
29412W        W95821   0.995  19.560  12.095
29413W        W95822  41.291  27.478   1.636
29414W        W95823  28.500  25.755  11.207
29415W        W95824   1.967  35.839  10.644
29416W        W95825  17.982   4.112  12.847
29417W        W95826  26.214   7.852  13.937
29418W        W95827  18.577   4.685   4.000
29419W        W95828  27.900  30.576  12.451
29420W        W95829  20.241  30.521   0.745
29421W        W95830  41.923  42.504   0.987
29422W        W95831  44.091  36.886   1.471
29423W        W95832  44.921  36.896  13.366
29424W        W95833   6.842  17.649   2.269
29425W        W95834  38.773  16.300   5.094
29426W        W95835  18.455  39.118   2.474
29427W        W95836  38.131  11.744  14.722
29428W        W95837  20.690  43.379   2.762
29429W        W95838  43.258  34.400   2.359
29430W        W95839  26.068   1.253   4.426
29431W        W95840  26.702   2.020  14.654
29432W        W95841  23.934  37.402   3.273
29433W        W95842  27.661  15.053   0.379
29434W        W95843  22.005  20.935   1.846
29435W        W95844   2.222   0.712  13.878
29436W        W95845  21.200  32.482  11.107
29437W        W95846  43.903  14.349  12.103
29438W        W95847   2.479  15.304   4.215
29439W        W95848  13.294  24.031   2.691
29440W        W95849  18.098   1.940   4.259
29441W        W95850  22.603   5.928  10.998
29442W        W95851  23.481   6.446  12.987
29443W        W95852   0.909   9.666   3.646
29444W        W95853  32.634   0.530   3.223
29445W        W95854   1.980  42.193   2.914
29446W        W95855  22.492  33.145  14.039
29447W        W95856  26.207  16.040   3.801
29448W        W95857  30.238  33.481   2.391
29449W        W95858  13.109  16.303   0.897
29450W        W95859   0.265  13.083   4.886
29451W        W95860  42.893   6.760  11.492
29452W        W95861  24.668  37.988   3.794
29453W        W95862   9.081  17.741   3.278
29454W        W95863  29.414  39.476  11.570
29455W        W95864  31.876  12.462  14.367
29456W        W95865  28.432  35.618   0.812
29457W        W95866  29.176  29.607  11.315
29458W        W95867  31.061  30.273   2.348
29459W        W95868  35.051  28.187  10.780
29460W        W95869   2.953  10.337   2.233
29461W        W95870  40.983  39.447   4.540
29462W        W95871   9.668  17.714   4.130
29463W        W95872  17.416   7.862  10.050
29464W        W95873  38.240  18.960  10.701
29465W        W95874  43.948  43.063   3.867
29466W        W95875   2.727   7.779  11.728
29467W        W95876  23.051  10.516  12.180
29468W        W95877  30.678   5.799  11.178
29469W        W95878  21.386   8.046   0.852
29470W        W95879  16.647  43.901   0.883
29471W        W95880  12.116  40.900  10.585
29472W        W95881  21.471  10.942  10.702
29473W        W95882  28.313  37.834   3.487
29474W        W95883  20.124  35.692  12.506
29475W        W95884  11.405  30.050  12.308
29476W        W95885  37.409  35.535  11.963
29477W        W95886   8.763  14.435   2.760
29478W        W95887  38.462  30.247  11.882
29479W        W95888  39.455  29.236  13.242
29480W        W95889  36.026  36.071   0.394
29481W        W95890  25.000  41.751  13.912
29482W        W95891  40.021  12.922  14.626
29483W        W95892  43.423   3.816  14.443
29484W        W95893  42.803  18.370   3.900
29485W        W95894  10.458  33.177  12.944
29486W        W95895   5.487   7.270  13.720
29487W        W95896  22.202  42.383   4.020
29488W        W95897  10.250  18.613   3.712
29489W        W95898  29.075  36.027   4.487
29490W        W95899   8.431  19.643   0.930
29491W        W95900   6.282   8.402  11.446
29492W        W95901  19.241  33.533   2.249
29493W        W95902   2.291  35.381   1.274
29494W        W95903  23.157   2.232  10.607
29495W        W95904   0.952  42.201   3.599
29496W        W95905   6.500  21.695   1.366
29497W        W95906  32.419  15.913  13.308
29498W        W95907  32.048  17.969   1.293
29499W        W95908   1.556   8.809   2.427
29500W        W95909   6.573  37.330  13.848
29501W        W95910   5.078  41.907  13.063
29502W        W95911  43.205  12.679   3.178
29503W        W95912  19.098   6.288   2.958
29504W        W95913  39.387  29.162  13.741
29505W        W95914  12.302  43.054  12.264
29506W        W95915  44.603   5.339  14.442
29507W        W95916   3.939  44.004  13.920
29508W        W95917  14.662  44.680  13.462
29509W        W95918  15.514  41.779   0.951
29510W        W95919   6.576  10.635   0.670
29511W        W95920   0.444  12.624   0.423
29512W        W95921  14.086  31.858   2.710
29513W        W95922   9.386   7.738   3.200
29514W        W95923  12.750   0.822  12.915
29515W        W95924   5.320  12.244   2.773
29516W        W95925  14.165  25.598   1.228
29517W        W95926   6.678  20.449   0.909
29518W        W95927  13.864  39.910  13.554
29519W        W95928  26.635  12.476  13.227
29520W        W95929  44.846  23.604  12.930
29521W        W95930   8.488   6.674  14.615
29522W        W95931  38.289  38.342   3.619
29523W        W95932  12.337   7.824  11.984
29524W        W95933  42.880   4.765   0.350
29525W        W95934  34.415  12.753   0.783
29526W        W95935  44.471  28.574  13.802
29527W        W95936  17.564   7.249   0.730
29528W        W95937  33.111  21.061   0.408
29529W        W95938   6.956  17.710   4.121
29530W        W95939   3.281  35.073  10.735
29531W        W95940  17.194  23.353   1.120
29532W        W95941  11.412  20.242   2.873
29533W        W95942  39.068  12.040   4.536
29534W        W95943  39.257  23.568   2.358
29535W        W95944  10.169  15.125   2.333
29536W        W95945  16.694  23.393  14.958
29537W        W95946  34.103   3.471  14.225
29538W        W95947  16.055  38.517   0.130
29539W        W95948  22.013  11.185   4.546
29540W        W95949  38.923  30.392   2.958
29541W        W95950  14.663  36.239   4.537
29542W        W95951  25.032  10.166  13.403
29543W        W95952  11.210   4.561   1.913
29544W        W95953  22.998  13.645   2.249
29545W        W95954  28.903  23.788   3.253
29546W        W95955  44.850  36.502   2.722
29547W        W95956  41.208  34.930  11.546
29548W        W95957  26.373  26.963   1.890
29549W        W95958  15.552  32.337  14.887
29550W        W95959  19.540   6.169   4.319
29551W        W95960  11.989  37.151  14.528
29552W        W95961  30.899   2.094  10.755
29553W        W95962  15.694  10.114   1.887
29554W        W95963  16.630  12.064   2.445
29555W        W95964  14.588  36.923  11.380
29556W        W95965  31.618  38.924  11.575
29557W        W95966  26.481   6.632  11.597
29558W        W95967  27.704   6.766  14.474
29559W        W95968  43.963  29.963  14.883
29560W        W95969   0.749  27.069   2.105
29561W        W95970  40.298  15.264  12.328
29562W        W95971  27.850   6.557   4.984
29563W        W95972  11.761  33.740  12.142
29564W        W95973  15.015  12.141  14.545
29565W        W95974  13.829   1.318   0.910
29566W        W95975  17.053  40.872  12.455
29567W        W95976  21.846  32.417  11.253
29568W        W95977  11.139   5.045  10.975
29569W        W95978  31.482  39.741   2.837
29570W        W95979  41.446   8.459   1.272
29571W        W95980   6.320  24.041  11.102
29572W        W95981  29.745  43.304  11.949
29573W        W95982  17.932   8.450   0.617
29574W        W95983  32.897  14.673  13.472
29575W        W95984  17.659   7.389  13.402
29576W        W95985  20.683  14.162   2.657
29577W        W95986  13.988  35.521  10.407
29578W        W95987  24.964  23.096   3.708
29579W        W95988   2.928  20.042  10.997
29580W        W95989  44.693  29.233  11.008
29581W        W95990  27.487  22.615  13.293
29582W        W95991  17.745  19.706   3.866
29583W        W95992  42.938  34.918   0.313
29584W        W95993  44.335  36.591  13.449
29585W        W95994  18.221  24.871  10.389
29586W        W95995  27.590   9.941  12.854
29587W        W95996  35.468  17.383   1.166
29588W        W95997   2.115  41.542  14.961
29589W        W95998  43.948  38.344  11.397
29590W        W95999  17.285  25.109  11.631
29591W        W96000   3.415  21.836   0.002
29592W        W96001   3.139  17.493   2.193
29593W        W96002  14.642  17.840  12.491
29594W        W96003  42.398   6.114  12.577
29595W        W96004  41.706  39.937  12.407
29596W        W96005  26.712  35.516   3.465
29597W        W96006  18.093  27.188   0.464
29598W        W96007  31.478  36.047  11.065
29599W        W96008  43.697   1.355   0.302
29600W        W96009  36.652  44.667  13.808
29601W        W96010  11.747  40.246   1.866
29602W        W96011   6.210  10.196  11.512
29603W        W96012  18.166  33.826  11.664
29604W        W96013  40.460  29.896   3.130
29605W        W96014  11.808  30.395  13.917
29606W        W96015  34.593  26.592  13.317
29607W        W96016  20.041  20.421  14.186
29608W        W96017  21.646   1.165  12.921
29609W        W96018  11.865  29.687  13.295
29610W        W96019   6.754  25.468   0.685
29611W        W96020  41.899   7.083  10.665
29612W        W96021  21.805  10.835  12.445
29613W        W96022  18.864  44.558   2.318
29614W        W96023  43.644  13.677  10.792
29615W        W96024  43.974  28.389  13.777
29616W        W96025   1.189  20.033  13.472
29617W        W96026  18.583   9.882  10.840
29618W        W96027  37.125  15.722   3.768
29619W        W96028  15.172   2.942   2.578
29620W        W96029  19.760  40.926   3.374
29621W        W96030  11.382  32.025   1.675
29622W        W96031   9.266  14.882  13.040
29623W        W96032  31.652  15.393  10.844
29624W        W96033  23.680  37.666   2.598
29625W        W96034  15.054  35.586   4.558
29626W        W96035   3.483   7.734   4.837
29627W        W96036  21.573   2.911  14.454
29628W        W96037  44.360   5.961  12.938
29629W        W96038   2.239  37.582  14.423
29630W        W96039  13.008  35.119  11.619
29631W        W96040  23.949  23.653  11.071
29632W        W96041  42.064  19.167  11.934
29633W        W96042  12.029  27.219   0.130
29634W        W96043   8.614  10.694   3.695
29635W        W96044  36.757   5.393   1.836
29636W        W96045  31.072  30.446  11.671
29637W        W96046  21.374   0.068   1.692
29638W        W96047  41.830  32.587  10.781
29639W        W96048  42.722   6.826   2.315
29640W        W96049  15.535   9.281   0.338
29641W        W96050  20.552  35.150  14.895
29642W        W96051   9.276   2.434  10.746
29643W        W96052  39.173  18.186   4.770
29644W        W96053  30.920  42.382   2.244
29645W        W96054   5.301   2.720  13.480
29646W        W96055   6.895  27.107   1.763
29647W        W96056  34.927   9.431   3.681
29648W        W96057  21.289  25.329  13.025
29649W        W96058  30.797  35.969  12.649
29650W        W96059  11.414  37.380   2.999
29651W        W96060  38.056  28.415  12.290
29652W        W96061  34.541   1.909   0.764
29653W        W96062  19.497  22.948   0.291
29654W        W96063  12.781   8.798   2.777
29655W        W96064  44.245  38.793  13.560
29656W        W96065  16.854  23.213   2.146
29657W        W96066  14.457   2.186   1.270
29658W        W96067  11.820   3.424   0.374
29659W        W96068  30.156  30.954  11.557
29660W        W96069  12.076  16.256  11.487
29661W        W96070  30.430  41.223   1.226
29662W        W96071   9.838  36.980   3.991
29663W        W96072  34.302  29.708   1.869
29664W        W96073   8.741  11.059  12.825
29665W        W96074   9.616  33.556   3.041
29666W        W96075   3.368  22.528   4.507
29667W        W96076  27.613  20.478  12.993
29668W        W96077  10.032  35.517  14.713
29669W        W96078  31.770  15.608  14.512
29670W        W96079  42.567  41.844  13.969
29671W        W96080   2.742  24.573   0.059
29672W        W96081  16.714  25.059   1.431
29673W        W96082   4.025  29.161   3.815
29674W        W96083  42.469  36.250   0.445
29675W        W96084  37.453  34.872  14.550
29676W        W96085  31.821  16.278   3.450
29677W        W96086  21.705  30.739   1.094
29678W        W96087  34.888  37.525   4.107
29679W        W96088  18.903  37.366   2.767
29680W        W96089  15.556  15.930  13.069
29681W        W96090  12.993  39.606   2.821
29682W        W96091  10.656  29.564  14.566
29683W        W96092   3.865   6.466   0.805
29684W        W96093   8.674  12.231   0.716
29685W        W96094  12.048  20.765  14.225
29686W        W96095  17.162  38.584   0.480
29687W        W96096  35.948   9.635   2.224
29688W        W96097  16.697   2.694  10.884
29689W        W96098  34.332   0.619   4.455
29690W        W96099  25.180  39.864   1.208
29691W        W96100   1.480  17.321   1.259
29692W        W96101   7.155  12.405   4.129
29693W        W96102   7.850  27.723   0.102
29694W        W96103  11.045   8.736  10.736
29695W        W96104  33.574  24.788   1.713
29696W        W96105  28.115  10.263   5.372
29697W        W96106  40.989  18.931   2.111
29698W        W96107   1.864   6.243   3.161
29699W        W96108  33.003   8.948   2.740
29700W        W96109  44.541  37.138   2.232
29701W        W96110  15.433  19.637   5.066
29702W        W96111  19.970  18.402  11.135
29703W        W96112  28.625  38.528  11.669
29704W        W96113  25.189  10.902   3.212
29705W        W96114  39.116  40.539  13.317
29706W        W96115  40.948  22.684  12.979
29707W        W96116  22.046  15.114  14.457
29708W        W96117  14.612   1.019   0.446
29709W        W96118  13.086  14.624   2.388
29710W        W96119  42.736  39.933  14.015
29711W        W96120  13.392  17.647   0.188
29712W        W96121  34.362  30.137  12.275
29713W        W96122  10.630  15.199  10.795
29714W        W96123  10.763  14.729  12.156
29715W        W96124  36.641  40.576   1.775
29716W        W96125  28.164  43.063  11.250
29717W        W96126  32.895   4.487  11.937
29718W        W96127  44.271  13.199   1.298
29719W        W96128  25.950   7.265  13.906
29720W        W96129  20.572  15.107  10.775
29721W        W96130  42.357  38.333  12.083
29722W        W96131   8.029  13.627  13.416
29723W        W96132   2.800  16.525   2.418
29724W        W96133   4.419  10.125  13.107
29725W        W96134  34.026  42.758  12.627
29726W        W96135  34.075  31.215  13.303
29727W        W96136   1.233  41.840   0.216
29728W        W96137  12.633  30.904  11.143
29729W        W96138  31.436  39.244  10.984
29730W        W96139   6.709  12.765   2.847
29731W        W96140  25.950  18.529  13.500
29732W        W96141   3.069  44.525   1.347
29733W        W96142  21.081  27.166  11.208
29734W        W96143  15.146  24.157  12.363
29735W        W96144  30.658  27.170  11.499
29736W        W96145  34.448  23.523   3.280
29737W        W96146  35.960  16.377   4.215
29738W        W96147  33.582  20.881  13.807
29739W        W96148  18.273  38.197  13.362
29740W        W96149  17.782  23.871   3.831
29741W        W96150  20.809  43.533  11.051
29742W        W96151  40.294  14.065   4.164
29743W        W96152  14.836  12.423   3.786
29744W        W96153  40.091   6.324   2.492
29745W        W96154  24.424  29.764   4.198
29746W        W96155  41.483  25.321   0.515
29747W        W96156  32.094  44.961   3.816
29748W        W96157  16.641  29.544  13.110
29749W        W96158  43.001   8.212   4.503
29750W        W96159  29.963   8.363  11.787
29751W        W96160  30.472  42.524   0.803
29752W        W96161  26.405   5.646   0.809
29753W        W96162   8.485  31.203   1.790
29754W        W96163  39.992   5.188  11.580
29755W        W96164  16.673  12.104   2.960
29756W        W96165   4.246  25.392   4.569
29757W        W96166  19.779   8.624  11.436
29758W        W96167  41.270  39.354  12.876
29759W        W96168  37.708  42.403   2.005
29760W        W96169  12.316  27.534   1.170
29761W        W96170  13.089  39.885  13.931
29762W        W96171  18.209  44.991  13.279
29763W        W96172  22.053  41.328  10.688
29764W        W96173  16.551   8.473   2.295
29765W        W96174  32.114  20.130   0.230
29766W        W96175  21.506  12.902   1.701
29767W        W96176  36.016  26.357   0.497
29768W        W96177   5.421   2.758   1.135
29769W        W96178  19.754  34.060  13.882
29770W        W96179  27.050  30.598  11.966
29771W        W96180  13.543   1.338  10.151
29772W        W96181  22.246  40.873   3.243
29773W        W96182  37.998  21.643  12.217
29774W        W96183   6.193  19.945   2.764
29775W        W96184  43.808   6.769   3.693
29776W        W96185  41.346  32.125   1.467
29777W        W96186  38.468  27.240   3.126
29778W        W96187  13.249  32.337  12.063
29779W        W96188  11.161  31.271   4.540
29780W        W96189  12.858  38.852   1.691
29781W        W96190  32.693  23.744   4.030
29782W        W96191  31.176  14.153  11.123
29783W        W96192  35.946   3.278  12.531
29784W        W96193  32.345   7.881   3.208
29785W        W96194  43.799  20.728   4.726
29786W        W96195   8.234   2.220   1.733
29787W        W96196  36.436  30.312  13.257
29788W        W96197  18.606  18.361   1.266
29789W        W96198  28.203   9.560  13.446
29790W        W96199   1.300   3.868   2.259
29791W        W96200  18.174   4.407  11.564
29792W        W96201  21.250  29.950   2.788
29793W        W96202  26.028  34.600  12.623
29794W        W96203   0.418   7.221   5.090
29795W        W96204  17.004  34.177  14.365
29796W        W96205  11.773   5.283  11.397
29797W        W96206  36.726  26.395   3.670
29798W        W96207   5.279  21.327   0.717
29799W        W96208  42.814  38.395  11.249
29800W        W96209  17.826  37.348  13.993
29801W        W96210  25.157  29.462  12.040
29802W        W96211  12.390  39.648  14.367
29803W        W96212  33.324   6.936  12.734
29804W        W96213   7.864  34.503   2.229
29805W        W96214   5.242  26.697   0.493
29806W        W96215  38.964   6.652   2.905
29807W        W96216  27.851   3.426   0.945
29808W        W96217  22.893  34.068   4.588
29809W        W96218  37.128  39.088   4.830
29810W        W96219  22.694  25.252   3.682
29811W        W96220  36.838  17.631  11.448
29812W        W96221  23.538  37.413   5.040
29813W        W96222  31.430  10.511   3.414
29814W        W96223  37.907  16.896   0.749
29815W        W96224  28.517  38.904   0.009
29816W        W96225   0.682  18.973   3.135
29817W        W96226  44.258  14.296  11.181
29818W        W96227  19.792   3.375  12.830
29819W        W96228   5.596  37.381   3.090
29820W        W96229  19.342  22.542  13.498
29821W        W96230  43.481  19.798   2.192
29822W        W96231  40.403  11.350  13.727
29823W        W96232   1.235  24.554  11.130
29824W        W96233  12.199   1.542   3.984
29825W        W96234   6.355  17.534  10.772
29826W        W96235  14.570  29.544   2.287
29827W        W96236  19.586  14.376   0.254
29828W        W96237  21.618  16.904  10.217
29829W        W96238  19.261   1.771  12.595
29830W        W96239   1.172  14.832   1.943
29831W        W96240  22.697  11.562   2.707
29832W        W96241  18.736  38.301   2.711
29833W        W96242  22.058   6.805   2.796
29834W        W96243  20.378   5.236   0.978
29835W        W96244   1.887  33.008  10.687
29836W        W96245  33.373  16.931   1.801
29837W        W96246  11.740   7.314  12.598
29838W        W96247  41.922  39.786  14.484
29839W        W96248  15.885  44.237  11.185
29840W        W96249   0.532  25.767   2.426
29841W        W96250  30.525  30.135   0.371
29842W        W96251  22.380  40.659   1.226
29843W        W96252  37.023  37.859   0.968
29844W        W96253  41.185  39.728   3.646
29845W        W96254  13.511  40.583   3.784
29846W        W96255  39.103   6.179  10.672
29847W        W96256  13.297  20.070   3.646
29848W        W96257  25.204  24.226  11.658
29849W        W96258  18.243  38.780   9.928
29850W        W96259   8.917  39.310  10.385
29851W        W96260  11.155  23.112  13.424
29852W        W96261   5.945  10.007  11.106
29853W        W96262  33.602  44.925   1.215
29854W        W96263   2.824  26.706   4.362
29855W        W96264  38.373  36.096   2.862
29856W        W96265   1.231  30.392   2.373
29857W        W96266  31.002  38.666  13.777
29858W        W96267  15.041  19.279   0.411
29859W        W96268  25.270  34.817  14.115
29860W        W96269   9.460   7.355   3.840
29861W        W96270  22.278  44.969  12.849
29862W        W96271  27.228  25.043   2.656
29863W        W96272   5.486   1.347  10.248
29864W        W96273   6.128  21.150  13.024
29865W        W96274  21.529  28.596   1.170
29866W        W96275  21.301  31.390   5.113
29867W        W96276   6.575  44.927   4.480
29868W        W96277  42.680  34.457  14.545
29869W        W96278   6.811  13.385   4.084
29870W        W96279   1.369  13.679   3.388
29871W        W96280  36.048  24.221  11.274
29872W        W96281  42.367  29.238   2.805
29873W        W96282  38.965  44.268  10.970
29874W        W96283  37.577  26.159  14.725
29875W        W96284   0.717  21.003   1.960
29876W        W96285   4.013  18.769   3.599
29877W        W96286   9.766  31.643   0.848
29878W        W96287  27.475  20.709   0.380
29879W        W96288  24.601  32.988  13.442
29880W        W96289  32.847  39.213   3.671
29881W        W96290   3.754  30.765  14.870
29882W        W96291   9.427   4.414  11.633
29883W        W96292  13.971  29.511   0.062
29884W        W96293   9.857  35.034   0.883
29885W        W96294  34.454  24.460   3.808
29886W        W96295  28.949  24.473  13.012
29887W        W96296  37.008  31.753   1.027
29888W        W96297  21.562  43.987   4.547
29889W        W96298  22.749  11.314  11.505
29890W        W96299  11.197  19.103  12.901
29891W        W96300  24.320   4.672  11.274
29892W        W96301  36.405  38.742   3.049
29893W        W96302  43.335  11.324  14.423
29894W        W96303  35.005  39.736   1.140
29895W        W96304   6.795  15.188   0.979
29896W        W96305  41.056   3.266   1.126
29897W        W96306  34.353   7.127   1.791
29898W        W96307  26.641   0.282   3.692
29899W        W96308  34.365   6.173  12.583
29900W        W96309   6.957  34.314  12.466
29901W        W96310   5.207   3.217   3.245
29902W        W96311  12.388   1.605  12.231
29903W        W96312  17.799  43.435  11.473
29904W        W96313  28.088   2.813   3.336
29905W        W96314   6.184  23.222   3.626
29906W        W96315  27.673  35.776  12.406
29907W        W96316   9.157  29.026   0.522
29908W        W96317  16.823  40.902   2.576
29909W        W96318  24.554  34.385  11.629
29910W        W96319  34.063  39.333   1.025
29911W        W96320   1.545  25.061   3.914
29912W        W96321   6.440  22.701   1.269
29913W        W96322  33.294  17.404  11.968
29914W        W96323  24.291  40.853  13.455
29915W        W96324  28.740  14.797  13.461
29916W        W96325  29.909  18.237   0.952
29917W        W96326  16.337  20.748  14.374
29918W        W96327  21.297  19.578  12.571
29919W        W96328  31.222  30.746   2.202
29920W        W96329  43.527  18.727   4.533
29921W        W96330  44.415  44.273   3.564
29922W        W96331  39.384   7.760  11.834
29923W        W96332  38.824  19.953   4.603
29924W        W96333  27.943  28.127  13.983
29925W        W96334  34.423  29.055   0.455
29926W        W96335   8.875   3.830   1.797
29927W        W96336  15.101  14.078  11.654
29928W        W96337  36.279  38.407  13.389
29929W        W96338   8.083  15.989   4.330
29930W        W96339  43.556  36.101  11.120
29931W        W96340  44.421   3.753  10.749
29932W        W96341  29.609   4.424  14.498
29933W        W96342   1.528  21.775   3.292
29934W        W96343  11.922  16.396  13.607
29935W        W96344   0.245  26.833   1.309
29936W        W96345  39.396  35.947   4.314
29937W        W96346   9.816  22.932  11.944
29938W        W96347  15.977  29.060   4.162
29939W        W96348   6.211   7.903   2.754
29940W        W96349  21.088  35.692  12.509
29941W        W96350  15.067  13.362  13.101
29942W        W96351  24.556   5.717  11.990
29943W        W96352  23.619  11.840  13.959
29944W        W96353  35.602  38.088  11.248
29945W        W96354  44.503   5.701   1.661
29946W        W96355   8.875   6.219   1.509
29947W        W96356  26.669   5.822   4.546
29948W        W96357   8.481   4.858  14.347
29949W        W96358  35.851  17.864   2.882
29950W        W96359  26.531  19.513   2.702
29951W        W96360  29.137   0.927  11.682
29952W        W96361   0.759  24.771  14.504
29953W        W96362  24.180  32.869  11.117
29954W        W96363  33.722  31.863   2.394
29955W        W96364  38.084  29.559   0.509
29956W        W96365  39.476  42.949   4.066
29957W        W96366  32.526  21.525   3.267
29958W        W96367   4.432  30.537  10.643
29959W        W96368  17.807   7.947   1.333
29960W        W96369  16.311  15.806   3.773
29961W        W96370  43.923  25.051  14.455
29962W        W96371  21.531  27.940   1.754
29963W        W96372  32.141   6.189   0.868
29964W        W96373  34.230   5.650  14.808
29965W        W96374  11.091  10.276  13.856
29966W        W96375  21.144  23.114  14.491
29967W        W96376  30.651  37.065  14.901
29968W        W96377  34.512   4.289   4.699
29969W        W96378  27.692  37.156  11.030
29970W        W96379  33.059   3.294   2.713
29971W        W96380  42.329  36.151  14.936
29972W        W96381  21.759  40.786   1.151
29973W        W96382  29.128  39.174  13.326
29974W        W96383  29.040  32.842  14.549
29975W        W96384  36.540  13.636   4.115
29976W        W96385   7.359  30.571   1.207
29977W        W96386   1.344  14.339  13.688
29978W        W96387  28.473  36.508  11.124
29979W        W96388  11.263  30.121  11.510
29980W        W96389  22.603  25.634  14.457
29981W        W96390   1.045  38.037  13.523
29982W        W96391  10.200   3.727   1.197
29983W        W96392   3.771   0.494  10.184
29984W        W96393  12.761  20.665  12.955
29985W        W96394  29.307  17.656   4.600
29986W        W96395   8.912   9.624   3.182
29987W        W96396   8.178   6.813   3.606
29988W        W96397  22.253  34.684  11.624
29989W        W96398  12.738  38.590   2.805
29990W        W96399  34.603  21.603   4.137
29991W        W96400  24.248  18.195  11.530
29992W        W96401  13.116  12.703  12.378
29993W        W96402  39.554  27.880  14.503
29994W        W96403  14.881  18.802   0.305
29995W        W96404  33.334  26.246  12.016
29996W        W96405  10.048  11.212  10.679
29997W        W96406  38.525  40.382   1.811
29998W        W96407  25.603  36.614  10.674
29999W        W96408  13.209  22.197   1.908
30000W        W96409  15.478   2.841   3.157
30001W        W96410  17.621  23.762  13.006
30002W        W96411  44.023  21.522   2.303
30003W        W96412   4.241  12.722   3.831
30004W        W96413  11.437   5.309   0.749
30005W        W96414  10.786  23.982  11.000
30006W        W96415  37.041  31.955  14.836
30007W        W96416  42.202  28.602  13.092
30008W        W96417   5.290  22.216   0.369
30009W        W96418   4.328  26.237   2.761
30010W        W96419  19.203   5.126   0.962
30011W        W96420  40.024  30.659   3.060
30012W        W96421  25.050  10.117   0.356
30013W        W96422   6.521   9.459   3.234
30014W        W96423  14.563  14.144   2.911
30015W        W96424  17.974   0.797  11.270
30016W        W96425  24.861   3.803  14.707
30017W        W96426  40.095  44.106   4.260
30018W        W96427   4.233   3.376   2.467
30019W        W96428  13.542  28.652  14.828
30020W        W96429  17.509   7.168  12.144
30021W        W96430  24.754  12.163  10.564
30022W        W96431  17.212  18.829   1.175
30023W        W96432  29.617  25.968   0.708
30024W        W96433   2.499  23.054   0.469
30025W        W96434  28.387  44.369  12.313
30026W        W96435  39.274  22.609   4.311
30027W        W96436  14.285  10.963  12.026
30028W        W96437  28.346   8.142   0.325
30029W        W96438  22.148  21.066  12.205
30030W        W96439   2.654  16.132   2.723
30031W        W96440  39.729  21.171  12.023
30032W        W96441  31.576  28.729   0.803
30033W        W96442   0.749  37.086   2.685
30034W        W96443  33.415  22.358   0.947
30035W        W96444  39.009  40.877   4.113
30036W        W96445  14.883   4.392   0.318
30037W        W96446  42.370  35.340  12.175
30038W        W96447  22.449  10.585   1.161
30039W        W96448  17.723  14.347   3.379
30040W        W96449  37.406  33.248   1.100
30041W        W96450  11.356  40.894  11.464
30042W        W96451  41.163  25.961   0.858
30043W        W96452  18.243  27.742  11.138
30044W        W96453   4.420  14.475  10.100
30045W        W96454  22.575   0.247  10.209
30046W        W96455  22.938  40.810   0.638
30047W        W96456  17.520  30.361  11.011
30048W        W96457  36.794  15.496   3.428
30049W        W96458  27.616  14.712   3.100
30050W        W96459   0.378   9.868  12.490
30051W        W96460  37.826  44.348  12.202
30052W        W96461   8.110  13.546  11.490
30053W        W96462  25.186  20.711   2.096
30054W        W96463  12.161  12.306   0.344
30055W        W96464   5.620  23.390   1.793
30056W        W96465  22.037  41.101  11.970
30057W        W96466  42.994  35.948  11.648
30058W        W96467  11.895  11.295   0.840
30059W        W96468  23.044   8.704   3.473
30060W        W96469   4.009  22.097  10.526
30061W        W96470  18.196  39.630   0.812
30062W        W96471  34.614   2.227  11.047
30063W        W96472  42.276  29.141  14.433
30064W        W96473  23.061   1.897  13.085
30065W        W96474  18.185  40.945  14.849
30066W        W96475  18.702   3.998  14.392
30067W        W96476  13.248  26.444  12.064
30068W        W96477   8.650  13.740   3.182
30069W        W96478  15.554  21.562  14.512
30070W        W96479  44.186  25.250  10.527
30071W        W96480  22.895  30.442   4.052
30072W        W96481   5.265  36.708  13.811
30073W        W96482  13.222  32.562   1.528
30074W        W96483  25.363  39.423   1.420
30075W        W96484  17.211  25.054   1.247
30076W        W96485  43.084  24.169   3.525
30077W        W96486  38.407   2.436  13.790
30078W        W96487   1.352  42.005  12.390
30079W        W96488  14.600  24.469  11.522
30080W        W96489  19.223  16.113   0.731
30081W        W96490  32.900  16.579  13.954
30082W        W96491  23.977  40.594  12.531
30083W        W96492   4.744  23.541   4.988
30084W        W96493  44.895  17.241   2.334
30085W        W96494  25.393  37.172  13.965
30086W        W96495  43.510  42.849   2.225
30087W        W96496  29.375  26.605   9.961
30088W        W96497  20.960  27.046   1.734
30089W        W96498   6.641  16.819  12.189
30090W        W96499   1.045  23.248  11.148
30091W        W96500  26.000   8.881   2.594
30092W        W96501  16.613   6.996  13.815
30093W        W96502  35.533  26.971   4.912
30094W        W96503   8.112   0.552   0.357
30095W        W96504   6.230  22.927   9.825
30096W        W96505  16.232   1.033  11.014
30097W        W96506  14.531  24.122  14.274
30098W        W96507  25.739  28.600  11.513
30099W        W96508  43.821  18.198  14.240
30100W        W96509  33.495  33.351  10.724
30101W        W96510  25.591  41.375  12.398
30102W        W96511   2.882  18.209  10.643
30103W        W96512  43.981  24.031  14.266
30104W        W96513  22.267  24.505   2.764
30105W        W96514  31.237  35.019  12.004
30106W        W96515  35.490  12.211   1.887
30107W        W96516  36.891  28.609   0.397
30108W        W96517  31.211   4.907  11.758
30109W        W96518  33.164   1.851   2.393
30110W        W96519   7.284  37.656   0.487
30111W        W96520  39.353  31.198   0.858
30112W        W96521  37.385  23.418  12.592
30113W        W96522  28.983  32.075   2.141
30114W        W96523  35.865   6.418   3.220
30115W        W96524  39.125  24.612   0.332
30116W        W96525  41.263  26.423   1.752
30117W        W96526   9.923  19.626  12.879
30118W        W96527   9.094  13.305   4.639
30119W        W96528  38.793  14.579  13.518
30120W        W96529  17.116  25.134   0.637
30121W        W96530  14.758   1.162   4.929
30122W        W96531  16.282  22.748  13.122
30123W        W96532  40.424  37.610  12.508
30124W        W96533  16.015  27.575  11.900
30125W        W96534  13.880  22.783   5.018
30126W        W96535  11.080  20.336   2.236
30127W        W96536  30.562  25.047  10.839
30128W        W96537  29.409  24.080  14.822
30129W        W96538  35.060  22.183  10.407
30130W        W96539  35.970   5.462   1.442
30131W        W96540  22.658  30.531  12.550
30132W        W96541   8.928  39.757  10.674
30133W        W96542  33.491   5.509   1.864
30134W        W96543   2.987  17.707  12.300
30135W        W96544  20.138  12.196   4.345
30136W        W96545  27.155   9.739  11.974
30137W        W96546  41.401  15.587   0.816
30138W        W96547  36.852  19.736  14.348
30139W        W96548   8.432   1.401   3.549
30140W        W96549  29.983   3.249  14.525
30141W        W96550  24.768  28.740  11.575
30142W        W96551  39.911  37.780  11.778
30143W        W96552  34.371  21.076   3.465
30144W        W96553  16.755  26.260   2.173
30145W        W96554  31.762  43.245  11.210
30146W        W96555  42.510  44.401   1.340
30147W        W96556   1.008   8.957   9.822
30148W        W96557  40.327   0.256   3.802
30149W        W96558  32.052  39.245  11.593
30150W        W96559  11.432   6.523  12.083
30151W        W96560  12.755  42.871   3.215
30152W        W96561  17.696  30.035  13.751
30153W        W96562  28.726  11.062   4.193
30154W        W96563   1.579  29.367  11.552
30155W        W96564  43.468  28.102   2.435
30156W        W96565  30.705  36.490   1.504
30157W        W96566  29.363  16.675   4.764
30158W        W96567  16.736   9.452   4.373
30159W        W96568  37.206  38.421   2.765
30160W        W96569  22.461  29.433   3.216
30161W        W96570  40.036   1.284   4.459
30162W        W96571  24.546  30.991  13.819
30163W        W96572   7.257   4.968  14.325
30164W        W96573  27.550  33.599  10.755
30165W        W96574  33.932  39.105  11.010
30166W        W96575  20.079  43.160  11.215
30167W        W96576  37.308  30.372   2.098
30168W        W96577   1.747   9.112  11.085
30169W        W96578   7.012   8.896  10.769
30170W        W96579  15.945  43.543   4.013
30171W        W96580  15.545  12.734  12.651
30172W        W96581  30.892  29.669  14.931
30173W        W96582  42.355  44.803  12.599
30174W        W96583   8.438  15.336  12.870
30175W        W96584   1.309   2.976  10.721
30176W        W96585  32.309  21.746  12.972
30177W        W96586   2.356  29.179   4.642
30178W        W96587  35.367  30.020  13.917
30179W        W96588  30.966  42.359  13.343
30180W        W96589  23.620   6.334  11.083
30181W        W96590  11.422  42.999   1.714
30182W        W96591  29.438  25.573   1.041
30183W        W96592  13.145  27.735   2.880
30184W        W96593   2.707  38.956  11.985
30185W        W96594  37.963  42.781  11.200
30186W        W96595  20.463  17.035   3.297
30187W        W96596   8.632   6.312  12.911
30188W        W96597   1.894  17.190  14.289
30189W        W96598   7.377  12.121  12.392
30190W        W96599   9.685  34.396  14.931
30191W        W96600  30.515  11.539   0.569
30192W        W96601  26.497   7.503  10.705
30193W        W96602  15.903   0.770  14.699
30194W        W96603  11.669  13.617  11.905
30195W        W96604  40.259  19.077   1.622
30196W        W96605  31.129  34.494  10.137
30197W        W96606   3.432  15.357  14.226
30198W        W96607  39.112  26.288  12.034
30199W        W96608  43.318  18.992  10.642
30200W        W96609  11.218   1.022   1.366
30201W        W96610  13.291   4.872  13.902
30202W        W96611  40.612  28.151  14.361
30203W        W96612  23.668  14.774  12.449
30204W        W96613  29.436  32.949  10.785
30205W        W96614  23.288  31.008  12.046
30206W        W96615  16.765  13.638  14.432
30207W        W96616  44.440   7.207  11.928
30208W        W96617  36.457  25.297   3.566
30209W        W96618  40.291  31.591   3.395
30210W        W96619   2.235  18.206  13.442
30211W        W96620  38.398   5.187   4.189
30212W        W96621  18.834  24.630   1.819
30213W        W96622  23.921   7.768   1.221
30214W        W96623  25.099  41.409  14.296
30215W        W96624  28.847   3.167  14.961
30216W        W96625   9.325   9.736  11.644
30217W        W96626  37.800  31.530   0.911
30218W        W96627  38.122  39.842  12.070
30219W        W96628   2.730  43.783   2.636
30220W        W96629  28.485  38.391  14.282
30221W        W96630  13.770  39.013   2.982
30222W        W96631   4.233  38.644  14.819
30223W        W96632  42.892  37.991  14.992
30224W        W96633  35.526  37.480  12.901
30225W        W96634   8.450   8.938   5.055
30226W        W96635  36.531  11.895   3.425
30227W        W96636  11.369  34.154  13.944
30228W        W96637  36.218   5.400   0.514
30229W        W96638  17.644   5.771   2.481
30230W        W96639  32.346  31.561  13.484
30231W        W96640  21.547  37.802   4.331
30232W        W96641   3.040  31.857  11.599
30233W        W96642   7.914  11.488   2.011
30234W        W96643  22.176   3.152  13.474
30235W        W96644  41.032  31.791   2.835
30236W        W96645  29.415  22.906  14.368
30237W        W96646  35.636  30.864   0.419
30238W        W96647   5.093  39.793  13.263
30239W        W96648   7.560  11.660   2.358
30240W        W96649   5.158  17.537  13.177
30241W        W96650  23.167  18.109   0.258
30242W        W96651  13.670   5.775  13.490
30243W        W96652  16.742  24.497  12.970
30244W        W96653   1.210  25.017  12.539
30245W        W96654  17.277  35.542  14.923
30246W        W96655  44.425   1.788  13.833
30247W        W96656   9.187  35.401   3.311
30248W        W96657  36.045  20.619   3.399
30249W        W96658  23.980  32.642   2.738
30250W        W96659  17.164  35.799   0.804
30251W        W96660  40.777   1.455   0.541
30252W        W96661  13.288  34.859  14.651
30253W        W96662  31.223  37.903   2.848
30254W        W96663  15.256  17.320  14.332
30255W        W96664  26.743  18.914   4.971
30256W        W96665  39.498  42.769   2.274
30257W        W96666  14.526   1.386  13.769
30258W        W96667  16.359  10.828  14.675
30259W        W96668  44.218  38.538  14.861
30260W        W96669  34.763   2.517   4.344
30261W        W96670  28.694  15.470   9.934
30262W        W96671  30.675   3.998   0.038
30263W        W96672   7.183  42.840   4.096
30264W        W96673   8.118  12.710   4.295
30265W        W96674   6.292   6.401  10.674
30266W        W96675  11.247  16.528   1.751
30267W        W96676   5.843  34.797  13.357
30268W        W96677   2.214  39.300   3.930
30269W        W96678  17.910   0.973   0.378
30270W        W96679  24.220  19.631   0.514
30271W        W96680  20.910  35.482  11.655
30272W        W96681  29.542  15.033   0.875
30273W        W96682  21.708   2.441  12.570
30274W        W96683  28.637   0.737  12.519
30275W        W96684  27.593  19.250   2.672
30276W        W96685  31.516  32.817  13.530
30277W        W96686  22.320  20.190  12.108
30278W        W96687  10.624  44.393  14.420
30279W        W96688  37.881  18.334  12.983
30280W        W96689   9.976  12.122  12.082
30281W        W96690  43.520  16.623   2.785
30282W        W96691   3.458  26.675   3.853
30283W        W96692   3.780   2.224  13.394
30284W        W96693  20.064  42.601  12.743
30285W        W96694  15.683  16.059   2.801
30286W        W96695  40.520  44.071  12.069
30287W        W96696  32.047  44.013  11.530
30288W        W96697  30.079  25.944  14.002
30289W        W96698  36.910  44.404   3.027
30290W        W96699  16.786  43.384  13.414
30291W        W96700   4.550  40.853   4.226
30292W        W96701  14.246  39.046   2.791
30293W        W96702   4.693   6.187  11.869
30294W        W96703  38.552   6.419   0.262
30295W        W96704  42.386  20.068   2.638
30296W        W96705  36.886  30.865   0.805
30297W        W96706  42.497  37.563  11.508
30298W        W96707  19.228   0.738   1.839
30299W        W96708  31.844  36.831  13.543
30300W        W96709   8.359  27.178   1.828
30301W        W96710   6.155  32.455  13.901
30302W        W96711  34.155  13.200   0.857
30303W        W96712  44.434  19.221  14.413
30304W        W96713  25.231  30.169   0.219
30305W        W96714  10.820   6.999  13.555
30306W        W96715  37.112   0.767   1.986
30307W        W96716  24.138  41.300  14.337
30308W        W96717   5.866  44.810  13.574
30309W        W96718  36.831   7.958   2.691
30310W        W96719  44.735   9.744  13.491
30311W        W96720   9.941  24.697   0.551
30312W        W96721  23.723  21.338  11.071
30313W        W96722  44.037   9.046  14.296
30314W        W96723  11.617  17.739   0.358
30315W        W96724  41.528  43.631  10.782
30316W        W96725  30.838  14.787  11.350
30317W        W96726  39.676   4.619  13.543
30318W        W96727   1.898   2.199  11.570
30319W        W96728  31.341  14.166  12.422
30320W        W96729  26.249  20.409  13.054
30321W        W96730  14.593  34.387   1.788
30322W        W96731   5.882  23.092   4.941
30323W        W96732  28.540  25.242  11.266
30324W        W96733  22.967  29.149  13.062
30325W        W96734  41.461  39.804  14.853
30326W        W96735  11.283  42.487  12.749
30327W        W96736  24.016  37.447   4.098
30328W        W96737  23.219  19.846  12.282
30329W        W96738  12.121  36.867  12.704
30330W        W96739  33.036  17.776   4.517
30331W        W96740  28.248   4.241   4.160
30332W        W96741  28.808  33.447  11.463
30333W        W96742  38.854   1.684   0.395
30334W        W96743  16.622  27.658  14.162
30335W        W96744  44.366   7.764  11.582
30336W        W96745   7.554  16.277  11.565
30337W        W96746   4.190  19.551   2.277
30338W        W96747  33.163  16.154  13.228
30339W        W96748  10.880   5.921   0.907
30340W        W96749  15.713  33.683   0.783
30341W        W96750  20.269  29.517   1.248
30342W        W96751  24.588  29.648   1.049
30343W        W96752  16.625  21.549   1.126
30344W        W96753   5.973  41.972   1.607
30345W        W96754  27.536  12.778  10.620
30346W        W96755  29.897  39.455   3.633
30347W        W96756  30.358  27.575  11.550
30348W        W96757  16.232  32.162  12.388
30349W        W96758  24.302  15.155  12.458
30350W        W96759  12.052  25.565  12.443
30351W        W96760  11.693  28.176   1.439
30352W        W96761  29.995  39.780   4.018
30353W        W96762  25.888  17.814   2.630
30354W        W96763  42.330  26.754  13.015
30355W        W96764  10.368  27.665   0.758
30356W        W96765  44.374  41.765   3.535
30357W        W96766  31.557  29.387  12.088
30358W        W96767  24.354  35.105  12.594
30359W        W96768  22.062  42.920   5.133
30360W        W96769   9.396   4.410   2.778
30361W        W96770  21.763   0.756  11.214
30362W        W96771  11.383  38.364   4.821
30363W        W96772  21.758  25.034  14.328
30364W        W96773  37.353  10.282   4.678
30365W        W96774   8.671  25.163   0.999
30366W        W96775  37.792   2.279   1.758
30367W        W96776   6.765  37.322   4.216
30368W        W96777  37.935  16.034   4.038
30369W        W96778   4.299  39.354   4.279
30370W        W96779  37.428  41.040  10.553
30371W        W96780  23.107  27.066  14.869
30372W        W96781  26.800  32.564   1.339
30373W        W96782   3.943  23.531  13.481
30374W        W96783  24.280  17.924   0.955
30375W        W96784  21.866  23.250  11.967
30376W        W96785  36.380   7.775   1.148
30377W        W96786   0.724  13.635  10.611
30378W        W96787   7.500  10.241  14.587
30379W        W96788  34.988   3.328   4.503
30380W        W96789   3.863  31.046   3.832
30381W        W96790  25.998  42.313  11.700
30382W        W96791   9.953  32.003   1.850
30383W        W96792  31.398   5.749   0.786
30384W        W96793   8.584  35.944   3.584
30385W        W96794   0.987  42.103  13.950
30386W        W96795  38.416  23.241   4.209
30387W        W96796  20.616  38.951  14.887
30388W        W96797   6.675  15.918   1.993
30389W        W96798   3.354  19.072   4.806
30390W        W96799   3.723   6.864  13.655
30391W        W96800  17.810  35.842   4.008
30392W        W96801  14.798  10.088  10.552
30393W        W96802  22.016  32.640  12.446
30394W        W96803  41.072  12.923   0.961
30395W        W96804   2.094  17.180   4.561
30396W        W96805  17.590   5.837   1.962
30397W        W96806   9.565   0.749  10.623
30398W        W96807  32.668  31.596  14.585
30399W        W96808   3.680  23.045  12.884
30400W        W96809   3.198  29.030  14.478
30401W        W96810   8.248  24.665   3.771
30402W        W96811   3.025  26.734  11.688
30403W        W96812   5.437  14.804  14.452
30404W        W96813  26.569  25.016   3.737
30405W        W96814   5.941  31.659  10.690
30406W        W96815  37.961  40.333   4.849
30407W        W96816  25.002   5.390  12.169
30408W        W96817  40.522  13.378  12.154
30409W        W96818   4.315  39.034   4.698
30410W        W96819  11.105  42.287  13.510
30411W        W96820   2.067  12.782   3.732
30412W        W96821  35.470   4.553   5.004
30413W        W96822  37.043  42.052   4.459
30414W        W96823  31.557  34.794  11.670
30415W        W96824  37.606  24.000  14.363
30416W        W96825  14.459  28.077  12.630
30417W        W96826  27.139  14.797  10.481
30418W        W96827   3.179  16.174  13.826
30419W        W96828  16.784  19.028  12.905
30420W        W96829  38.477  23.536  14.281
30421W        W96830  36.316   2.759   0.973
30422W        W96831  27.630   6.292   3.768
30423W        W96832  24.588  11.239  14.114
30424W        W96833  23.040  28.367  13.531
30425W        W96834   2.920  31.039   2.185
30426W        W96835  26.863   5.381  11.977
30427W        W96836  30.465  26.413   0.534
30428W        W96837   8.000  20.003   1.770
30429W        W96838  36.252   5.441  12.492
30430W        W96839  18.525  40.973  13.812
30431W        W96840  16.201  34.022  13.965
30432W        W96841  32.370   7.256  12.931
30433W        W96842   4.596   9.455   1.299
30434W        W96843  11.888  32.410   1.815
30435W        W96844  36.134  25.627   1.787
30436W        W96845  21.115  12.922  10.198
30437W        W96846  27.115  29.590   0.842
30438W        W96847  38.951  33.280  11.080
30439W        W96848  31.150  13.883  13.468
30440W        W96849  36.305  33.992  11.016
30441W        W96850  18.666   9.759   4.501
30442W        W96851  25.152   8.833  11.989
30443W        W96852   9.851  22.423   5.061
30444W        W96853  11.185  16.774  13.910
30445W        W96854  22.166  41.970  11.868
30446W        W96855   7.347  43.137   4.514
30447W        W96856   1.531  43.694  13.070
30448W        W96857  39.486  12.509  14.032
30449W        W96858  43.792  15.894  13.426
30450W        W96859  40.040  28.355   3.612
30451W        W96860  12.601  27.981  13.967
30452W        W96861   1.382  42.008  11.114
30453W        W96862   1.295  25.209   1.271
30454W        W96863  43.350  37.673   3.693
30455W        W96864  16.615  15.692   4.206
30456W        W96865  30.147  41.954   0.837
30457W        W96866  25.185   2.991  11.054
30458W        W96867  35.461  41.091   1.259
30459W        W96868  33.002  35.931  13.258
30460W        W96869  17.204  21.428  11.519
30461W        W96870  44.994   3.907  11.595
30462W        W96871  17.451  18.180   4.148
30463W        W96872   9.298  17.608   3.787
30464W        W96873   4.478  22.267  10.604
30465W        W96874  23.214  27.006   0.778
30466W        W96875  25.669  15.562  10.310
30467W        W96876  15.019   5.686   3.244
30468W        W96877  31.526  25.047  13.104
30469W        W96878   6.942  37.895  14.401
30470W        W96879  20.463   5.362  10.780
30471W        W96880   0.725  39.793  11.052
30472W        W96881  35.031  28.974   4.170
30473W        W96882  15.593  28.989  14.639
30474W        W96883  15.628  33.362  11.468
30475W        W96884   1.491  39.316  11.184
30476W        W96885  33.663  40.921  14.351
30477W        W96886  23.553   8.258   1.029
30478W        W96887  16.225  16.786   1.523
30479W        W96888   6.725  28.389  10.992
30480W        W96889  18.279  32.857  13.272
30481W        W96890  34.171   8.382   0.898
30482W        W96891   4.423   8.646   2.200
30483W        W96892  27.161  28.095   4.008
30484W        W96893  33.674  29.034  13.001
30485W        W96894  35.024   7.775  14.546
30486W        W96895  19.982  43.889   0.487
30487W        W96896   1.190  14.775   2.456
30488W        W96897  15.455  10.173   2.834
30489W        W96898   9.242   3.398   1.804
30490W        W96899  36.856  12.373  10.720
30491W        W96900  14.674   5.848   4.169
30492W        W96901  37.267  37.130   9.934
30493W        W96902  25.540   3.277   2.862
30494W        W96903  33.723  14.802   2.884
30495W        W96904   6.680   1.952  11.127
30496W        W96905   4.531  39.908   3.934
30497W        W96906  43.498  10.773  13.100
30498W        W96907  11.231  21.497   2.380
30499W        W96908  21.148  28.224   0.388
30500W        W96909  35.932  31.205  14.872
30501W        W96910  24.087  39.358   0.730
30502W        W96911  21.565  28.689   4.026
30503W        W96912   3.288   8.639  13.112
30504W        W96913  21.886  18.639   0.776
30505W        W96914  11.612  25.790  12.274
30506W        W96915   1.833  11.627   1.758
30507W        W96916   3.374   6.731  10.618
30508W        W96917   6.033   9.624  13.242
30509W        W96918  17.855  23.548   5.080
30510W        W96919  27.562  43.039  10.712
30511W        W96920  40.318  31.372   2.311
30512W        W96921  24.955  19.303   0.901
30513W        W96922   5.173  17.053  13.874
30514W        W96923  17.456   7.204  14.765
30515W        W96924  26.701   8.746   1.881
30516W        W96925   9.303  28.924  13.561
30517W        W96926  18.070  25.455  14.794
30518W        W96927  44.370  40.574  14.428
30519W        W96928  42.971  18.287   2.904
30520W        W96929  40.515  42.838   0.005
30521W        W96930   3.361  15.112   1.380
30522W        W96931  22.632  31.124   4.701
30523W        W96932  25.692  44.858   1.240
30524W        W96933  23.117  12.124   3.115
30525W        W96934  21.232  24.519  14.332
30526W        W96935  11.729  24.990  14.358
30527W        W96936  24.204  17.157   2.636
30528W        W96937  24.837  32.408  14.299
30529W        W96938  39.422   9.335   1.647
30530W        W96939  18.204  21.507   4.689
30531W        W96940  28.099  34.108  14.975
30532W        W96941   3.301  39.997   0.480
30533W        W96942  28.986  10.685   0.879
30534W        W96943   2.012  13.735   0.315
30535W        W96944  13.915  36.507   0.936
30536W        W96945  38.516  32.489   4.241
30537W        W96946  30.087  38.973  13.726
30538W        W96947  16.772  36.589  13.326
30539W        W96948  38.628   4.812  14.191
30540W        W96949  29.021  20.592   4.104
30541W        W96950  26.046  11.383   3.650
30542W        W96951  23.744  26.455   1.879
30543W        W96952  15.139   2.220  14.950
30544W        W96953  20.922  29.536   4.578
30545W        W96954   7.234  42.676  12.688
30546W        W96955  26.575  13.140  12.640
30547W        W96956  18.837  36.040   2.189
30548W        W96957  23.088  43.891   3.671
30549W        W96958  40.401  10.959  10.831
30550W        W96959   8.622  40.941   2.350
30551W        W96960  39.459  19.843   0.726
30552W        W96961   4.837  14.636  11.231
30553W        W96962  21.609  28.954   0.272
30554W        W96963  29.371   2.334   0.157
30555W        W96964  43.822  42.578   4.840
30556W        W96965   4.403  33.804   0.511
30557W        W96966  23.473  17.194   1.790
30558W        W96967  24.610  25.737   0.513
30559W        W96968   0.556  10.468   1.809
30560W        W96969  24.193  33.155  13.939
30561W        W96970  23.786  14.657  11.625
30562W        W96971  35.022   3.998   9.701
30563W        W96972  42.873  12.373  14.942
30564W        W96973  23.285  24.561  10.659
30565W        W96974  40.127  19.661  14.253
30566W        W96975  35.669  17.683   3.739
30567W        W96976  17.101  31.508   0.174
30568W        W96977  22.750  28.071   4.521
30569W        W96978   8.438   0.916   1.522
30570W        W96979  20.725   8.797  10.916
30571W        W96980  25.181  22.903   3.255
30572W        W96981  43.373   3.715  10.739
30573W        W96982  23.290   9.445  14.748
30574W        W96983  36.990  33.509   3.219
30575W        W96984   5.387   2.971   1.973
30576W        W96985  44.892  11.191  11.495
30577W        W96986  18.772  27.561   3.423
30578W        W96987   5.202  27.069  12.819
30579W        W96988  18.968   1.710  11.373
30580W        W96989  28.053  21.017   0.754
30581W        W96990   8.500  22.969  14.268
30582W        W96991  39.816  38.311   2.287
30583W        W96992   5.313  22.615   2.746
30584W        W96993  24.930  16.427   0.700
30585W        W96994   8.197   4.694   0.509
30586W        W96995  31.354  35.778  11.509
30587W        W96996  11.124   1.393   0.943
30588W        W96997   2.399  14.653  12.849
30589W        W96998  30.410  14.165   0.865
30590W        W96999  17.657   6.297   2.351
30591W        W97000  30.781  14.368  12.639
30592W        W97001  29.168  28.267  11.059
30593W        W97002  32.647  43.456   2.169
30594W        W97003  13.338  12.821  14.653
30595W        W97004  43.776  11.477   5.387
30596W        W97005   7.773  24.383   3.650
30597W        W97006   2.486  27.663  11.555
30598W        W97007  35.901  25.174   1.844
30599W        W97008  21.151  43.261  11.942
30600W        W97009   9.821   3.562  10.356
30601W        W97010  24.997  30.821   1.188
30602W        W97011  12.050  17.576   1.549
30603W        W97012  12.250  42.089  11.068
30604W        W97013  24.157  11.356  12.784
30605W        W97014  31.372   5.101  12.979
30606W        W97015  29.085  29.907   2.809
30607W        W97016  35.867   1.816   2.094
30608W        W97017  23.619  37.785   2.101
30609W        W97018  11.812  35.100   0.892
30610W        W97019  29.115   9.624   3.561
30611W        W97020  27.458  17.023  11.870
30612W        W97021  42.086  38.867  12.997
30613W        W97022   7.933   6.255  12.076
30614W        W97023   7.765  15.220   4.027
30615W        W97024  27.991  36.047   4.601
30616W        W97025  25.036   4.902  11.976
30617W        W97026  13.760   6.280  10.519
30618W        W97027  27.328  30.557   0.710
30619W        W97028  10.945   3.322   2.259
30620W        W97029  42.415   5.205   2.764
30621W        W97030   5.272   4.311  10.646
30622W        W97031  26.623  17.462   2.831
30623W        W97032  39.297  11.196  10.284
30624W        W97033  19.698  40.811  13.870
30625W        W97034  30.045  42.847   0.819
30626W        W97035  37.117  24.280  12.565
30627W        W97036  28.078  31.574  12.415
30628W        W97037   6.986  34.587  11.610
30629W        W97038   5.507   6.964  11.140
30630W        W97039  25.770  14.229   4.511
30631W        W97040   9.137  23.658  11.939
30632W        W97041   4.202   3.926   4.306
30633W        W97042  30.846  43.335  13.452
30634W        W97043  38.430  17.685  13.135
30635W        W97044   2.885  18.028   4.344
30636W        W97045  31.456  19.199  14.937
30637W        W97046  10.708   2.870  11.180
30638W        W97047   8.301  40.339   3.245
30639W        W97048   2.510  18.470   4.083
30640W        W97049  34.039  41.335   0.610
30641W        W97050   6.678  16.774   2.026
30642W        W97051  37.794  44.048  13.902
30643W        W97052  10.837  34.705   2.337
30644W        W97053   1.746  20.153  11.967
30645W        W97054  40.546  41.500  14.354
30646W        W97055  41.464   0.210   1.777
30647W        W97056  19.321  23.241   0.691
30648W        W97057  16.251  10.369  13.280
30649W        W97058  11.558  27.047  12.737
30650W        W97059  41.372  32.949  10.632
30651W        W97060   8.243  40.769  12.151
30652W        W97061  38.698  34.532  10.929
30653W        W97062  38.789  44.776   3.697
30654W        W97063  11.052  24.412   2.334
30655W        W97064   8.962  33.866   1.475
30656W        W97065   4.462  26.997   0.191
30657W        W97066   2.474  12.884   3.415
30658W        W97067  41.745  36.064  14.391
30659W        W97068  13.900  18.300   1.389
30660W        W97069  25.470  32.345  14.786
30661W        W97070  30.701  18.680  12.421
30662W        W97071  15.543  29.970   4.066
30663W        W97072  32.419  41.986   4.664
30664W        W97073  40.861  43.218  14.786
30665W        W97074  19.535  24.810  13.038
30666W        W97075  33.366  33.931  13.977
30667W        W97076   5.427  26.726  14.990
30668W        W97077  34.382  35.103   0.730
30669W        W97078  10.786  33.367   1.313
30670W        W97079  43.504  40.283   2.157
30671W        W97080  44.967  15.617   3.085
30672W        W97081  21.479  43.888  13.965
30673W        W97082  31.133  29.674   0.780
30674W        W97083  43.312   1.894  13.550
30675W        W97084  32.439   0.317   1.813
30676W        W97085  24.489  40.586  12.443
30677W        W97086  18.350   4.863   1.792
30678W        W97087  30.364  28.405  13.442
30679W        W97088   3.027  30.840  12.427
30680W        W97089  12.051  28.452  14.565
30681W        W97090  43.839  14.772   4.090
30682W        W97091   8.434   3.170  11.039
30683W        W97092  26.017  18.236   0.016
30684W        W97093  23.846   6.686  12.617
30685W        W97094  19.556  14.105  12.466
30686W        W97095   2.772  40.442  11.612
30687W        W97096  12.022  34.350   1.016
30688W        W97097  16.094  43.369   2.300
30689W        W97098   0.514  12.679   1.363
30690W        W97099  27.612  22.651   3.429
30691W        W97100  42.700  13.773   3.919
30692W        W97101  36.871  32.429   2.597
30693W        W97102  43.439  15.126   4.121
30694W        W97103  24.101  28.946   1.329
30695W        W97104  29.885  36.937  14.409
30696W        W97105  20.772  25.408   3.791
30697W        W97106   7.384  28.146   3.657
30698W        W97107   6.726  15.605  14.901
30699W        W97108  40.450  43.831   4.028
30700W        W97109  16.764  12.424  14.753
30701W        W97110  29.562   8.950  12.853
30702W        W97111  22.113  28.417  10.645
30703W        W97112  37.003   4.121  10.805
30704W        W97113  17.609  27.477  11.716
30705W        W97114  14.053   1.378  10.256
30706W        W97115   8.358   9.816   0.522
30707W        W97116  26.659  13.318  14.968
30708W        W97117  27.739  35.102   4.265
30709W        W97118  27.423  39.880   4.387
30710W        W97119  28.254  16.367  13.948
30711W        W97120  29.037  28.256   3.379
30712W        W97121  41.245  38.422  14.850
30713W        W97122  43.533  25.187   0.351
30714W        W97123  24.070  38.161   1.416
30715W        W97124  32.865  15.672  14.960
30716W        W97125  44.035  18.021  13.310
30717W        W97126  21.854   6.426  14.030
30718W        W97127  19.105  20.148   3.192
30719W        W97128  24.647  38.347  14.324
30720W        W97129   5.168   4.889  13.075
30721W        W97130  16.836  15.537  13.881
30722W        W97131   1.275  20.247   0.027
30723W        W97132  28.946  35.792  12.549
30724W        W97133  18.599  11.510  13.976
30725W        W97134  39.861  39.076   1.421
30726W        W97135  23.062  21.694  10.231
30727W        W97136   6.782  24.379  10.738
30728W        W97137  39.551  22.964   2.879
30729W        W97138  33.481  34.017   4.687
30730W        W97139  35.162  42.772   1.220
30731W        W97140   8.410   5.747   3.716
30732W        W97141   6.811   9.084   3.402
30733W        W97142   6.286  36.232  11.069
30734W        W97143  14.704   8.363   0.247
30735W        W97144  40.371  12.754  10.746
30736W        W97145  24.759  20.589   4.642
30737W        W97146  22.765  13.840   3.103
30738W        W97147  17.607  34.915  12.996
30739W        W97148  14.027  24.978  11.991
30740W        W97149  14.676  24.671  13.294
30741W        W97150   0.518  25.496   4.429
30742W        W97151  27.665  17.177   0.641
30743W        W97152  23.587  39.587   2.865
30744W        W97153   7.189  37.885   1.694
30745W        W97154  17.478   5.436  14.253
30746W        W97155  18.615  19.860   4.859
30747W        W97156  43.411  23.121  10.457
30748W        W97157   5.849   4.625  12.029
30749W        W97158  35.575  25.452  13.142
30750W        W97159  35.262  36.412  11.870
30751W        W97160  17.790  13.778   0.424
30752W        W97161  28.646  11.377   1.388
30753W        W97162  14.188  25.051   0.734
30754W        W97163  27.160   6.681   0.276
30755W        W97164  38.746  33.531   1.402
30756W        W97165   2.720  21.732   1.606
30757W        W97166  31.632   9.284  12.603
30758W        W97167  26.433  19.323   0.827
30759W        W97168  35.525  19.344  13.245
30760W        W97169   2.948  25.906  13.040
30761W        W97170  24.489  29.058   1.945
30762W        W97171  24.235  11.074  14.532
30763W        W97172   2.755  39.530  12.447
30764W        W97173  13.289  40.046   2.761
30765W        W97174   5.436  31.956   3.753
30766W        W97175  17.269   8.430   2.845
30767W        W97176   4.874   8.849   3.116
30768W        W97177  26.059  44.608   3.825
30769W        W97178  36.859  15.640   2.918
30770W        W97179  12.142   9.949  14.371
30771W        W97180  16.271  26.012  10.791
30772W        W97181  27.689  41.902  13.057
30773W        W97182  44.206  25.314   1.167
30774W        W97183  29.216  13.123   0.815
30775W        W97184   9.107   5.811   0.502
30776W        W97185  12.049  35.003  11.507
30777W        W97186  26.931  38.588  10.686
30778W        W97187   4.675  21.525   1.280
30779W        W97188  30.780   0.226   2.830
30780W        W97189  40.798  38.348  11.149
30781W        W97190   8.602   2.957  12.831
30782W        W97191  22.161  14.883   0.867
30783W        W97192  26.292  21.057   4.973
30784W        W97193  32.643   2.266  11.734
30785W        W97194  30.446  43.747  14.243
30786W        W97195  42.830  11.050   1.352
30787W        W97196  25.160  22.542   2.293
30788W        W97197  10.418  24.110  12.730
30789W        W97198  11.048  32.568  11.952
30790W        W97199  26.712  44.551   4.217
30791W        W97200  27.633   9.657  14.593
30792W        W97201  24.571  34.557   0.726
30793W        W97202  35.899  12.413   2.136
30794W        W97203   7.794  27.611  12.188
30795W        W97204  35.542   9.452   1.985
30796W        W97205  10.815  11.822   1.674
30797W        W97206  27.982  41.875  12.406
30798W        W97207  17.056  37.471   3.151
30799W        W97208  16.880  43.255   3.965
30800W        W97209  21.823   4.671  13.950
30801W        W97210   5.494   1.829   4.790
30802W        W97211  14.350   9.635   2.242
30803W        W97212  29.099  14.804   0.331
30804W        W97213  30.494   4.628   3.391
30805W        W97214  33.090  14.418  12.154
30806W        W97215  16.378   8.150  12.853
30807W        W97216  15.107  34.053   1.268
30808W        W97217  28.616  13.726  13.135
30809W        W97218  33.114   8.401   2.716
30810W        W97219   1.395  44.285  12.510
30811W        W97220   5.851  10.408   2.351
30812W        W97221  28.567   1.196  13.276
30813W        W97222  22.480  28.392   0.918
30814W        W97223  18.847  37.519   4.187
30815W        W97224  23.530  28.655  11.049
30816W        W97225  12.722   4.473  14.426
30817W        W97226  19.595   7.807  14.470
30818W        W97227   6.852   9.885   1.434
30819W        W97228  11.357  20.310  11.628
30820W        W97229  36.805  44.837  14.944
30821W        W97230  18.134  23.250  11.821
30822W        W97231  12.874  17.721   4.038
30823W        W97232  32.168   6.200  12.586
30824W        W97233   1.510   1.962   1.247
30825W        W97234   4.757  31.547  12.388
30826W        W97235  36.052  39.935   2.344
30827W        W97236  23.444  32.898  13.504
30828W        W97237  16.298  18.040  13.566
30829W        W97238   0.244  12.688   0.925
30830W        W97239  15.756  39.871   2.196
30831W        W97240  43.102  23.921  11.993
30832W        W97241  33.827  15.241   3.162
30833W        W97242  34.430   5.784   5.004
30834W        W97243  17.760  29.164  14.312
30835W        W97244   0.998   4.942  14.614
30836W        W97245  17.013   3.464  12.840
30837W        W97246  24.418   2.536  14.918
30838W        W97247  38.765  33.580   0.378
30839W        W97248  23.556  26.352  10.644
30840W        W97249  30.555  10.131   0.374
30841W        W97250  13.846   6.302   2.123
30842W        W97251  36.783  18.717   0.805
30843W        W97252   0.175   0.109  13.411
30844W        W97253  26.920  17.550  11.071
30845W        W97254  23.728  40.777   4.713
30846W        W97255   1.373  16.274  11.669
30847W        W97256  35.624  10.356   1.878
30848W        W97257   8.716  28.603   3.434
30849W        W97258  38.468  29.517  10.784
30850W        W97259  25.840  39.358   1.596
30851W        W97260  22.550  15.721  10.114
30852W        W97261  28.920  16.277  14.375
30853W        W97262  11.835   8.679  11.094
30854W        W97263  17.074  36.325   2.343
30855W        W97264  38.824  23.922   3.154
30856W        W97265  10.384  11.530   1.739
30857W        W97266  43.387  42.516  11.773
30858W        W97267   9.698  23.070   2.397
30859W        W97268  39.635  22.228   4.381
30860W        W97269  42.995   4.319   1.246
30861W        W97270  29.933  20.113   4.686
30862W        W97271  17.699   4.429  10.442
30863W        W97272  21.787  18.212   0.486
30864W        W97273  36.283  32.944  14.280
30865W        W97274  20.586  34.843  10.616
30866W        W97275  14.815   8.582  14.208
30867W        W97276  26.093  26.484  12.084
30868W        W97277   8.503  38.616   0.556
30869W        W97278  26.489  13.395  12.231
30870W        W97279  30.685  27.712   1.655
30871W        W97280  34.008   0.493  11.023
30872W        W97281  17.279  29.173   0.247
30873W        W97282  18.492  10.131  13.986
30874W        W97283  36.646  25.001   2.064
30875W        W97284   1.306  35.092   1.213
30876W        W97285  10.923  31.573   2.766
30877W        W97286  11.097  19.039   0.643
30878W        W97287  25.079  23.463   4.080
30879W        W97288  32.576  16.692   3.205
30880W        W97289   4.305   5.423  12.956
30881W        W97290  25.701  12.315   1.758
30882W        W97291  27.698  29.541   1.256
30883W        W97292   6.123   0.715  11.366
30884W        W97293  22.666   1.682   2.410
30885W        W97294  40.929  17.167  12.533
30886W        W97295  35.968  25.736  13.425
30887W        W97296  13.709  39.520   4.172
30888W        W97297  17.798  38.989  13.262
30889W        W97298  14.100  13.200   1.486
30890W        W97299  21.007   3.699  13.321
30891W        W97300  12.977   2.753   2.227
30892W        W97301  21.306  28.958   3.676
30893W        W97302  21.404   0.756  14.787
30894W        W97303  24.070   1.553  13.193
30895W        W97304  23.326  23.207   9.937
30896W        W97305   8.181  37.828   3.318
30897W        W97306  44.062   0.258  11.988
30898W        W97307   6.951   4.280  11.342
30899W        W97308  23.765  23.796   1.845
30900W        W97309  28.165   1.236   3.324
30901W        W97310  29.199  43.529   4.357
30902W        W97311  43.496  35.683   1.869
30903W        W97312   2.397  19.626   0.384
30904W        W97313  13.666  40.784   0.671
30905W        W97314  15.325  18.312  13.421
30906W        W97315  31.914  12.192  13.526
30907W        W97316   4.388  16.071  10.775
30908W        W97317  10.302  35.598  12.895
30909W        W97318  19.363  28.489  11.297
30910W        W97319   7.441  33.497   0.759
30911W        W97320  23.059  10.266   0.671
30912W        W97321  21.095   7.712   3.713
30913W        W97322  29.663  31.390  12.055
30914W        W97323  42.961  19.636   2.155
30915W        W97324  27.554   5.016   0.256
30916W        W97325   7.905  28.628  10.141
30917W        W97326  39.463  41.939  14.477
30918W        W97327  30.398  43.054   4.638
30919W        W97328  41.296  20.850   5.245
30920W        W97329  15.713  29.572   2.858
30921W        W97330  25.377  24.526   0.432
30922W        W97331  33.118  27.106  13.965
30923W        W97332  10.441  31.794  11.936
30924W        W97333   3.474  25.971   4.332
30925W        W97334  29.874  32.899   4.097
30926W        W97335   9.351  21.086  14.051
30927W        W97336   8.330   9.830   4.919
30928W        W97337   5.305   5.810  11.410
30929W        W97338  38.641  28.106  12.111
30930W        W97339  32.173  39.359  12.935
30931W        W97340  40.337  42.471   3.254
30932W        W97341  40.448  38.988   2.876
30933W        W97342  28.169  44.016   0.039
30934W        W97343  31.483  24.486  11.910
30935W        W97344  37.003   2.341  13.831
30936W        W97345  10.604   8.409   1.750
30937W        W97346  10.956  26.031  11.707
30938W        W97347  18.521  34.121  13.650
30939W        W97348  15.597  22.584  11.028
30940W        W97349  14.688   4.608   0.770
30941W        W97350  39.351  16.246  14.991
30942W        W97351  33.144  32.476  11.411
30943W        W97352  28.048  40.266  13.401
30944W        W97353   9.253  36.436   1.014
30945W        W97354   2.160  34.150  13.415
30946W        W97355  27.229   1.104  12.533
30947W        W97356  14.246  26.743   5.139
30948W        W97357  21.552   2.925  12.483
30949W        W97358  10.914  26.009  13.138
30950W        W97359  24.054  38.573  12.550
30951W        W97360   8.791  44.315   2.922
30952W        W97361   5.235  12.243  10.794
30953W        W97362   0.839   6.029   3.126
30954W        W97363  14.491   1.365  10.505
30955W        W97364  44.238  33.518  14.814
30956W        W97365  37.114  16.222   2.098
30957W        W97366  11.630   4.796  11.650
30958W        W97367   8.661  39.369  13.247
30959W        W97368   9.753  24.691   2.761
30960W        W97369  26.845  23.997   1.152
30961W        W97370  15.885  22.132   3.367
30962W        W97371  44.004   8.974  11.965
30963W        W97372  44.366   6.920  13.166
30964W        W97373  29.977  34.221   1.194
30965W        W97374   3.443  37.961  13.422
30966W        W97375  13.613  25.111  11.074
30967W        W97376   8.886  32.101   1.057
30968W        W97377  30.878  26.456  13.096
30969W        W97378  16.642  40.932   4.554
30970W        W97379  43.774  25.898  12.923
30971W        W97380  37.669  26.904  12.763
30972W        W97381  23.530  28.553   3.677
30973W        W97382   3.955   5.259  14.456
30974W        W97383   1.691  21.071  11.951
30975W        W97384  17.068  17.483   4.593
30976W        W97385  22.129  22.325   0.782
30977W        W97386  31.443  20.577   4.168
30978W        W97387  22.605   3.190   0.791
30979W        W97388   1.006  31.608   3.676
30980W        W97389  22.561  26.965  14.955
30981W        W97390  34.318  10.128  11.477
30982W        W97391  10.475  12.770   1.638
30983W        W97392  25.915  37.590  12.625
30984W        W97393  19.548   2.725   3.274
30985W        W97394  17.154   3.224   4.262
30986W        W97395  40.603  38.880  13.113
30987W        W97396  14.486  44.974  12.979
30988W        W97397  21.265  32.368   3.545
30989W        W97398  28.051  40.985   1.428
30990W        W97399  11.200  13.603  14.560
30991W        W97400   4.693  31.556   4.087
30992W        W97401  43.080  27.465  10.690
30993W        W97402   7.164  24.226   2.284
30994W        W97403   6.360  14.788  12.502
30995W        W97404  20.753  35.415   0.309
30996W        W97405  18.732   0.278   4.355
30997W        W97406   5.416  33.050   4.528
30998W        W97407  35.070  44.229   1.300
30999W        W97408  40.652   5.516  12.821
31000W        W97409  40.430  25.466   4.179
31001W        W97410  22.610  13.767  14.005
31002W        W97411  16.688   3.834   0.947
31003W        W97412  23.371  31.337   0.017
31004W        W97413  28.781  16.354  12.060
31005W        W97414  30.397   0.435   0.471
31006W        W97415  23.272  16.296   3.566
31007W        W97416  19.723  31.453  10.834
31008W        W97417  10.743  37.401   0.052
31009W        W97418  29.088  17.091   1.116
31010W        W97419  26.644  24.510  14.802
31011W        W97420  43.346  12.823  13.100
31012W        W97421  34.124  10.295  13.514
31013W        W97422  14.883  11.580   1.720
31014W        W97423  16.186   1.975  13.951
31015W        W97424  29.531  33.507   3.181
31016W        W97425  30.427   7.314  11.585
31017W        W97426  27.992  36.433  11.893
31018W        W97427  21.309  27.802  14.366
31019W        W97428  42.308  16.732  13.644
31020W        W97429   6.799  19.039   4.101
31021W        W97430   5.916  12.801   0.925
31022W        W97431   4.201  21.995   3.526
31023W        W97432  10.282  38.162  13.764
31024W        W97433  37.967  19.819  14.982
31025W        W97434  44.528   9.083   3.281
31026W        W97435  20.376   2.812   0.975
31027W        W97436  31.732  22.295  13.441
31028W        W97437   6.009  20.215   3.224
31029W        W97438   6.265  36.828   0.740
31030W        W97439  11.768  40.341  11.153
31031W        W97440  21.044  19.734  14.622
31032W        W97441  19.548  17.335  12.079
31033W        W97442   9.438  36.565   0.111
31034W        W97443  15.277  15.796  10.776
31035W        W97444  20.720   1.409   2.435
31036W        W97445   5.168  10.827  11.871
31037W        W97446  24.982  37.796  10.534
31038W        W97447  30.792  35.545  11.565
31039W        W97448   2.258  42.070  13.621
31040W        W97449  10.697  17.180  11.226
31041W        W97450  25.709   4.692   3.175
31042W        W97451  30.472  33.400   3.947
31043W        W97452  10.527  30.106   9.796
31044W        W97453  44.424  44.168   1.348
31045W        W97454  16.839  20.742  14.431
31046W        W97455  10.567  24.049  11.463
31047W        W97456  34.014  12.679  14.952
31048W        W97457  30.661  27.504   2.696
31049W        W97458  23.940   7.628  14.429
31050W        W97459   3.494  33.941  10.687
31051W        W97460  19.601  34.593   3.176
31052W        W97461  43.799   6.636  10.704
31053W        W97462   2.473  11.388  11.147
31054W        W97463  31.453  37.537   0.476
31055W        W97464   7.368  39.859   1.315
31056W        W97465  22.756  40.412   0.949
31057W        W97466  21.508   2.598   2.689
31058W        W97467  22.942  28.043   2.167
31059W        W97468   2.876  42.518   4.537
31060W        W97469  33.619  17.753   1.447
31061W        W97470  23.670  44.896  10.835
31062W        W97471   4.323  11.825   2.879
31063W        W97472  14.281  16.561  10.974
31064W        W97473  36.864   2.018  12.876
31065W        W97474   4.915  18.537  12.090
31066W        W97475  38.620   9.195  11.651
31067W        W97476   3.827  25.016  13.326
31068W        W97477  42.888  35.808  13.393
31069W        W97478  23.153  16.534  12.585
31070W        W97479  42.320  30.758  12.522
31071W        W97480   8.694  36.839   2.462
31072W        W97481  34.423  23.196  13.887
31073W        W97482  16.519  14.538   1.936
31074W        W97483  24.754  33.152  11.123
31075W        W97484  43.014   5.863  13.336
31076W        W97485   2.686  26.781   1.766
31077W        W97486  31.154  38.047   4.641
31078W        W97487  22.745   4.759  12.894
31079W        W97488  36.847   0.734   3.710
31080W        W97489  26.753  35.041  12.514
31081W        W97490   9.620  43.402  14.481
31082W        W97491  16.332  15.193   0.140
31083W        W97492   8.209  15.340  14.778
31084W        W97493   1.429  20.059   2.786
31085W        W97494  39.201  33.762  10.978
31086W        W97495   2.196  11.318   1.932
31087W        W97496  12.184  24.942  11.851
31088W        W97497  18.285  14.845   0.621
31089W        W97498  41.466   2.270   3.854
31090W        W97499   9.222   6.927  12.599
31091W        W97500  11.473  28.800   0.654
31092W        W97501  42.685  29.888   1.632
31093W        W97502   7.692  12.312  12.858
31094W        W97503  33.986  37.990   4.541
31095W        W97504  24.987  11.278  12.553
31096W        W97505  27.738   4.436  14.448
31097W        W97506  10.333   0.927  11.678
31098W        W97507   6.881  16.097   3.695
31099W        W97508  26.645  28.232  13.428
31100W        W97509  25.388  33.534   1.172
31101W        W97510  23.249  37.892  11.908
31102W        W97511  24.583   7.799   1.734
31103W        W97512  42.596  11.442  11.169
31104W        W97513  25.557   3.765   2.640
31105W        W97514  42.151  44.284  11.115
31106W        W97515  41.194  42.950   4.056
31107W        W97516  33.672  34.909   1.251
31108W        W97517  16.252   3.811   0.440
31109W        W97518   1.683  11.257  14.202
31110W        W97519   3.292  16.146  13.320
31111W        W97520  25.475  27.113  14.316
31112W        W97521  18.602  11.817   3.656
31113W        W97522  29.521  17.040  14.360
31114W        W97523  22.597   1.297   2.755
31115W        W97524  21.825  44.925  11.609
31116W        W97525  21.406  36.768   4.290
31117W        W97526  43.318  23.596  10.248
31118W        W97527  15.032   6.386   2.562
31119W        W97528  29.115  20.808   0.848
31120W        W97529  15.543  17.001  12.546
31121W        W97530  26.619  36.278   4.994
31122W        W97531  11.081   4.224   0.967
31123W        W97532  16.036  19.546   0.469
31124W        W97533  34.884  44.476  12.281
31125W        W97534   6.904  37.044   0.298
31126W        W97535   7.660   6.020   0.373
31127W        W97536  13.312  29.125  14.922
31128W        W97537  24.005  13.341  12.384
31129W        W97538  36.674  26.453  14.901
31130W        W97539  23.976  17.012   0.208
31131W        W97540  18.923  22.278  11.650
31132W        W97541  16.822  22.870  14.931
31133W        W97542  10.347  35.966   4.655
31134W        W97543  39.541  42.954  11.224
31135W        W97544  37.590  21.665  11.898
31136W        W97545  32.478  10.533  11.418
31137W        W97546  31.908  41.082   2.841
31138W        W97547   5.432  26.098  12.600
31139W        W97548  14.266   0.191   9.789
31140W        W97549  25.516  30.050   3.648
31141W        W97550   9.703   5.477   2.322
31142W        W97551  29.765  28.211  14.638
31143W        W97552   9.250  19.675  12.596
31144W        W97553  12.208  36.058   4.218
31145W        W97554  24.562   3.030   2.720
31146W        W97555  41.868  41.249   2.117
31147W        W97556  15.792  25.006   1.877
31148W        W97557  25.379  40.350  13.798
31149W        W97558  43.079  14.345   2.681
31150W        W97559  25.737  28.300   1.640
31151W        W97560  16.285  44.565  12.829
31152W        W97561  28.450  43.622  10.637
31153W        W97562  37.578  32.964  14.765
31154W        W97563  42.536  20.296   4.347
31155W        W97564  30.346  31.584   3.634
31156W        W97565  12.560  34.010   4.433
31157W        W97566  20.278   5.354   4.306
31158W        W97567  40.130  42.086   0.793
31159W        W97568  28.002  27.107   4.879
31160W        W97569  36.368  37.087   3.863
31161W        W97570  33.626  18.535   3.310
31162W        W97571  17.713  42.557   3.106
31163W        W97572  32.002   0.039  11.539
31164W        W97573  16.265  42.706   0.780
31165W        W97574  44.857  18.834  12.944
31166W        W97575  21.196  43.329   2.773
31167W        W97576  33.856   0.899  12.384
31168W        W97577  43.436  44.877   4.434
31169W        W97578  33.552  17.349   2.918
31170W        W97579  41.764  19.490   0.302
31171W        W97580  43.287  33.035   2.213
31172W        W97581  43.666  33.495   4.590
31173W        W97582  25.098   7.632  11.599
31174W        W97583  15.259  33.470   1.021
31175W        W97584  39.010  17.312  10.552
31176W        W97585  20.209  16.201   0.477
31177W        W97586  30.905  10.366   2.115
31178W        W97587  36.500  30.320  10.264
31179W        W97588  42.970  34.289  11.015
31180W        W97589  12.693   5.163  10.938
31181W        W97590   4.647   3.026  14.271
31182W        W97591   4.189  28.055   2.544
31183W        W97592  32.466  23.944   2.727
31184W        W97593   8.991  21.517   2.434
31185W        W97594  31.186  12.911   3.651
31186W        W97595  18.042  14.299  10.839
31187W        W97596  19.160  31.780   4.255
31188W        W97597  18.128  20.710  12.432
31189W        W97598  36.311   1.459  10.708
31190W        W97599  31.430  11.015   3.260
31191W        W97600  24.795   8.786   3.254
31192W        W97601  38.721  36.566  14.983
31193W        W97602  27.506  31.432  11.803
31194W        W97603  25.647   0.406   2.358
31195W        W97604  22.318  23.981  11.516
31196W        W97605  24.465   3.019  10.700
31197W        W97606   6.483  27.852   1.892
31198W        W97607  36.081  33.520   5.044
31199W        W97608   1.936  22.238  14.829
31200W        W97609  18.937  12.555   0.868
31201W        W97610  11.421  33.179  12.991
31202W        W97611  40.990  27.022   4.869
31203W        W97612  29.712   8.799   0.087
31204W        W97613  38.438  34.162  14.588
31205W        W97614  10.186  26.393  13.685
31206W        W97615  39.399  38.497  11.468
31207W        W97616  44.187   2.426   5.317
31208W        W97617  34.133   8.978  10.976
31209W        W97618  40.837  43.751   2.301
31210W        W97619  43.873  41.554   3.586
31211W        W97620   2.822  12.381   0.402
31212W        W97621  30.298  27.748   2.414
31213W        W97622  33.699   2.271  12.592
31214W        W97623  30.791  42.271  13.845
31215W        W97624  33.680  21.172   1.844
31216W        W97625  11.228  20.060   0.718
31217W        W97626  11.560  38.544   3.651
31218W        W97627  16.672  37.644  13.425
31219W        W97628  30.696   7.584   2.914
31220W        W97629   5.176  11.286   4.214
31221W        W97630  41.832  44.499   4.834
31222W        W97631  11.349  28.178   3.360
31223W        W97632  38.031  37.400  14.043
31224W        W97633   1.022   5.310  11.213
31225W        W97634  24.395  20.875   1.438
31226W        W97635  36.057  21.616   0.439
31227W        W97636  30.902  10.505   3.766
31228W        W97637   4.883  20.572   0.069
31229W        W97638  44.807  18.543  10.979
31230W        W97639   9.317  28.627   3.741
31231W        W97640  21.243  17.169  12.478
31232W        W97641  42.461  35.546  12.637
31233W        W97642  17.049  26.015   1.791
31234W        W97643  26.617   1.806   4.652
31235W        W97644  33.947   3.838   2.806
31236W        W97645  11.673  18.738   1.425
31237W        W97646  22.635  35.921  10.755
31238W        W97647   1.552  42.989   1.893
31239W        W97648  39.241  36.289   1.733
31240W        W97649  22.088  35.035   3.394
31241W        W97650  44.408  43.914  14.064
31242W        W97651  18.742  38.424  14.454
31243W        W97652  21.112   8.959   4.239
31244W        W97653  19.519  12.464  11.560
31245W        W97654  16.777  24.063  13.775
31246W        W97655  21.652   0.325  13.940
31247W        W97656  44.055   4.343   3.289
31248W        W97657  41.670  38.310   0.467
31249W        W97658  10.367  11.525  11.051
31250W        W97659  35.466   9.315  13.869
31251W        W97660  28.594  14.689   0.863
31252W        W97661  35.855  14.735  13.478
31253W        W97662   9.387   0.351  13.080
31254W        W97663  12.874   4.878   1.792
31255W        W97664  36.013  36.864  12.600
31256W        W97665  26.602  40.459   2.317
31257W        W97666  14.990  23.947   3.726
31258W        W97667  31.557  40.810   2.129
31259W        W97668  13.854  30.670  12.944
31260W        W97669  11.969  22.673   9.927
31261W        W97670  23.994  25.991   4.155
31262W        W97671  35.842  28.150   3.364
31263W        W97672  17.201  34.635  14.514
31264W        W97673  40.107   7.952   0.869
31265W        W97674   1.905  34.093  12.106
31266W        W97675  37.367  17.952  13.852
31267W        W97676  27.113  39.952   0.458
31268W        W97677  31.304  43.576  13.483
31269W        W97678   5.355  44.841  13.488
31270W        W97679  40.872  31.330   2.317
31271W        W97680  33.004   9.779   0.216
31272W        W97681  43.401   0.939   0.433
31273W        W97682  22.876  11.427   4.527
31274W        W97683   0.437  10.334   1.316
31275W        W97684  12.108  25.679   2.320
31276W        W97685  24.967  37.843   1.745
31277W        W97686  26.672  36.428   2.910
31278W        W97687  39.926   4.810   3.304
31279W        W97688  15.531  15.643  14.428
31280W        W97689  32.270  21.059  10.185
31281W        W97690  34.858  10.910  11.049
31282W        W97691  18.174  41.028  11.437
31283W        W97692  27.994   4.409   4.587
31284W        W97693   2.706  15.276   3.763
31285W        W97694  38.575   6.359   2.245
31286W        W97695   9.449  28.040   0.905
31287W        W97696  12.918   1.112   3.218
31288W        W97697  18.896   3.146  13.095
31289W        W97698  42.891  11.298   4.520
31290W        W97699   1.111  40.433   4.684
31291W        W97700  14.479  13.719  11.961
31292W        W97701  38.534  31.960   2.346
31293W        W97702  23.912  23.990  12.433
31294W        W97703  18.506   1.387   5.042
31295W        W97704  26.652  27.223   2.240
31296W        W97705  15.544   0.267   4.200
31297W        W97706  14.445  40.470  10.717
31298W        W97707   4.216  17.048   2.807
31299W        W97708  10.726  30.521   2.709
31300W        W97709   9.775  19.095  12.989
31301W        W97710  41.382   7.813   1.055
31302W        W97711   4.919  14.724  14.516
31303W        W97712  16.328  14.748   0.455
31304W        W97713  36.436  29.905  11.566
31305W        W97714  21.509   5.222   1.872
31306W        W97715  21.314  17.857   2.348
31307W        W97716  30.290  43.898  10.450
31308W        W97717  25.991  42.800  11.581
31309W        W97718  12.267   9.229  10.785
31310W        W97719  33.518  11.645   3.684
31311W        W97720  11.155   9.123   2.272
31312W        W97721  29.541  32.543   1.412
31313W        W97722  26.369  27.106  11.577
31314W        W97723  33.746  43.272  14.341
31315W        W97724  25.538  13.350  13.072
31316W        W97725  38.982  21.963   2.219
31317W        W97726  34.172  13.356   2.607
31318W        W97727  31.014  25.922   3.719
31319W        W97728  11.498  42.484   1.805
31320W        W97729  24.690  10.809  13.834
31321W        W97730  42.827  11.572   1.369
31322W        W97731   7.720  12.893   1.782
31323W        W97732  20.301   4.147  11.099
31324W        W97733  14.751  22.767  14.736
31325W        W97734   0.691  26.191  14.341
31326W        W97735  39.368  24.689   1.039
31327W        W97736  42.838  12.253  13.147
31328W        W97737   4.152   1.544   0.302
31329W        W97738   4.998   7.278  13.491
31330W        W97739   0.333   9.218  12.152
31331W        W97740  20.523  32.946   4.224
31332W        W97741   9.848  26.617   9.893
31333W        W97742  39.909  44.593   4.135
31334W        W97743  37.564   7.504  13.915
31335W        W97744  19.598  10.926  10.725
31336W        W97745   0.302   4.277  12.517
31337W        W97746   7.652   9.858   2.766
31338W        W97747  24.149  26.533  13.611
31339W        W97748  43.930  27.668   0.234
31340W        W97749  30.478  44.507   4.215
31341W        W97750  21.259  14.642  14.783
31342W        W97751   7.779  30.244  11.550
31343W        W97752  34.802  17.018  12.028
31344W        W97753  44.633  19.521  10.678
31345W        W97754  19.564  34.973   1.132
31346W        W97755  24.076  24.056  13.397
31347W        W97756  29.399  36.571   1.731
31348W        W97757  16.534  26.957  11.601
31349W        W97758  35.108  18.785   3.303
31350W        W97759  20.155  25.863  12.415
31351W        W97760  31.453  44.922   2.768
31352W        W97761  31.519  20.003  13.536
31353W        W97762   4.662  44.308   2.651
31354W        W97763  33.668  14.829   1.558
31355W        W97764  27.935  10.179  13.748
31356W        W97765   3.782  30.909   1.818
31357W        W97766   1.510   8.985  12.138
31358W        W97767  27.541  31.103  10.892
31359W        W97768  36.039  37.410  11.844
31360W        W97769  41.207  26.733   1.335
31361W        W97770  33.077   3.351   9.759
31362W        W97771  37.622   0.626  11.007
31363W        W97772  26.895  44.830  10.707
31364W        W97773  29.203  34.400   3.576
31365W        W97774  13.294  33.147   4.258
31366W        W97775  43.958  14.467  11.590
31367W        W97776   9.679  31.911   1.418
31368W        W97777  34.964  32.998   0.963
31369W        W97778  32.303  23.921   3.466
31370W        W97779  44.212  30.966  14.339
31371W        W97780  19.760  27.933   3.751
31372W        W97781  34.101  22.408   3.676
31373W        W97782  30.338  33.869   1.395
31374W        W97783  24.614   3.367   4.174
31375W        W97784  21.217  44.328  13.090
31376W        W97785  42.524  31.922   4.283
31377W        W97786  27.224  41.281   0.813
31378W        W97787  11.598  17.105   3.354
31379W        W97788  39.893   9.295   3.576
31380W        W97789   8.730   2.444  11.597
31381W        W97790  29.189   4.862  10.136
31382W        W97791  25.721   0.845   1.291
31383W        W97792  39.515  10.239   3.201
31384W        W97793  36.806  11.409  14.871
31385W        W97794  29.918   6.348   3.170
31386W        W97795  19.352  37.412   4.201
31387W        W97796  32.184  20.702  14.303
31388W        W97797  11.742   7.821  13.915
31389W        W97798  20.168  38.334  14.494
31390W        W97799  21.286  16.748  10.667
31391W        W97800  39.026  31.300  11.118
31392W        W97801  16.292  10.905   3.466
31393W        W97802   8.736  10.579   2.787
31394W        W97803  41.698   2.225  12.869
31395W        W97804  29.151  17.679  10.394
31396W        W97805  41.976  28.680   2.201
31397W        W97806  18.699  13.058   0.878
31398W        W97807  34.002   6.760   4.258
31399W        W97808  38.386  16.810   4.207
31400W        W97809  40.090  35.125  10.651
31401W        W97810   1.209  40.381  10.722
31402W        W97811   4.343  12.758   3.204
31403W        W97812  20.832  19.864   0.926
31404W        W97813  29.071  23.125  14.880
31405W        W97814   7.368  41.810   0.912
31406W        W97815   6.927  44.386  14.448
31407W        W97816   3.887  22.100   0.694
31408W        W97817  34.291  44.854   4.228
31409W        W97818  37.781  22.204   1.925
31410W        W97819  38.345  26.133   4.483
31411W        W97820  19.049  18.092   1.037
31412W        W97821  13.145  19.679  14.969
31413W        W97822   1.267   0.691  14.965
31414W        W97823  42.995   0.917   1.221
31415W        W97824  41.121  15.714  10.300
31416W        W97825   7.152  20.021   2.332
31417W        W97826  11.863  17.584  14.903
31418W        W97827  26.496  35.050   1.541
31419W        W97828  27.268  22.802  12.852
31420W        W97829  39.299  29.071   2.732
31421W        W97830  12.116  18.215  11.075
31422W        W97831  22.983  15.917  14.060
31423W        W97832   5.771   1.061  13.991
31424W        W97833  12.192  24.440  13.403
31425W        W97834  31.525  27.116   4.731
31426W        W97835   5.340   6.753  12.872
31427W        W97836   6.266  14.646  13.845
31428W        W97837   7.333  32.304  12.097
31429W        W97838   6.914  36.908  12.073
31430W        W97839  41.276   3.328   4.787
31431W        W97840  20.682   6.720  10.710
31432W        W97841  20.153  21.239   2.254
31433W        W97842   8.849  16.453  14.892
31434W        W97843  29.684  38.393   1.979
31435W        W97844  34.887  15.542  12.994
31436W        W97845  28.572  19.331   3.651
31437W        W97846  32.799  37.825  11.256
31438W        W97847  13.512  42.986  14.926
31439W        W97848  40.462  16.367   4.933
31440W        W97849   6.831   4.271   1.747
31441W        W97850  43.057  22.460  11.068
31442W        W97851  28.798  24.242  14.196
31443W        W97852  16.283  30.421   0.280
31444W        W97853   6.673  44.433  13.401
31445W        W97854   2.912  13.202   4.932
31446W        W97855  38.109  39.008   4.628
31447W        W97856  31.058   6.162  11.986
31448W        W97857   8.287  11.943  12.986
31449W        W97858   9.429   0.401  14.043
31450W        W97859  25.145  34.953   0.194
31451W        W97860  38.021  43.858  14.789
31452W        W97861  13.315  22.737   4.343
31453W        W97862  18.419  15.407  10.383
31454W        W97863  34.514  39.770   0.012
31455W        W97864   9.369  11.330   2.981
31456W        W97865  11.979  26.440  10.317
31457W        W97866  27.675  34.349  14.780
31458W        W97867   8.803  41.500  11.253
31459W        W97868  19.957  13.850   0.825
31460W        W97869  14.326   4.980  10.847
31461W        W97870  40.302   9.962  13.902
31462W        W97871  15.350   0.081   3.535
31463W        W97872   0.032  41.332  14.074
31464W        W97873  28.460  27.031   0.456
31465W        W97874  12.537  22.207  10.153
31466W        W97875  24.455   1.876   1.816
31467W        W97876  23.056  41.460   2.364
31468W        W97877   3.848  10.247   3.165
31469W        W97878  18.025  43.970  10.764
31470W        W97879   7.531   5.310  12.035
31471W        W97880  10.123  35.141  12.554
31472W        W97881  44.282  33.542  11.473
31473W        W97882   2.398   4.488   1.829
31474W        W97883  31.314  15.833   0.813
31475W        W97884   2.322  21.894  13.031
31476W        W97885  35.732  42.865   4.545
31477W        W97886   3.779   5.676   4.269
31478W        W97887  18.383   7.836  12.148
31479W        W97888  32.622  12.988  10.772
31480W        W97889  10.405  42.273   1.859
31481W        W97890  37.639  32.421  12.286
31482W        W97891  25.406   5.938  14.520
31483W        W97892  23.910  29.129  13.536
31484W        W97893  23.907  18.053   9.898
31485W        W97894  26.906  32.681  13.163
31486W        W97895   6.903  31.140   0.483
31487W        W97896  29.675  13.798   2.789
31488W        W97897  13.380  29.112   1.762
31489W        W97898   0.977  12.379  11.075
31490W        W97899   0.422  15.746   4.594
31491W        W97900  22.570  22.061   0.430
31492W        W97901  42.026  40.637   2.888
31493W        W97902  21.142  35.948   2.394
31494W        W97903  13.293  12.589  11.030
31495W        W97904  38.422  43.912   2.337
31496W        W97905  44.980  36.629  12.883
31497W        W97906  34.281  25.629   0.468
31498W        W97907  39.510  25.331  13.890
31499W        W97908  26.158  16.166   2.409
31500W        W97909  11.730  23.641   1.897
31501W        W97910  24.492   9.159   0.890
31502W        W97911  42.937  40.582   1.328
31503W        W97912  11.716  12.554  10.597
31504W        W97913  44.528  30.465   4.483
31505W        W97914  19.240   1.580  13.619
31506W        W97915  10.021  44.267  12.391
31507W        W97916  28.947  36.801   4.068
31508W        W97917  20.014  17.626   4.957
31509W        W97918  22.304  27.393  13.599
31510W        W97919  31.482   0.939   2.696
31511W        W97920  39.899   3.402  13.025
31512W        W97921  15.260  34.177  10.250
31513W        W97922  20.640  23.536  11.941
31514W        W97923  21.310  12.356   2.839
31515W        W97924   1.418  22.226  14.895
31516W        W97925  43.307  38.209   2.146
31517W        W97926   4.598   6.653  11.181
31518W        W97927  14.050  19.025  14.074
31519W        W97928  43.682  37.781  13.811
31520W        W97929   9.842  25.977   4.066
31521W        W97930  16.707   6.195   1.211
31522W        W97931  22.463  24.607   9.866
31523W        W97932  28.208  12.269  14.540
31524W        W97933  24.168  20.066   2.647
31525W        W97934  12.728  22.425   2.273
31526W        W97935  38.887  33.071   3.396
31527W        W97936   4.759  23.280   0.905
31528W        W97937   8.625  30.370   4.073
31529W        W97938   8.883  35.116  14.371
31530W        W97939   4.248  13.210  11.878
31531W        W97940  28.919  19.790   0.949
31532W        W97941  21.656  29.321  14.332
31533W        W97942  29.163  28.568   2.387
31534W        W97943  14.229  21.720  12.575
31535W        W97944  12.299   3.463  14.811
31536W        W97945  44.362  37.805   1.707
31537W        W97946  17.167  19.323  12.562
31538W        W97947  25.151   0.971  12.885
31539W        W97948  22.610  20.690  11.586
31540W        W97949  41.649  11.768   1.380
31541W        W97950  30.978   4.903  12.227
31542W        W97951  18.530  10.084   0.808
31543W        W97952  20.557  31.580   1.214
31544W        W97953  39.720  17.674  14.647
31545W        W97954  33.614  26.412  12.446
31546W        W97955  40.404   7.809   1.301
31547W        W97956  40.167  13.008  12.974
31548W        W97957  43.832  20.548  11.142
31549W        W97958  28.892   0.928  12.935
31550W        W97959  16.702  24.408   4.609
31551W        W97960  10.635   6.706   4.752
31552W        W97961  41.952  18.016   5.025
31553W        W97962   6.659  19.521   0.903
31554W        W97963  26.990  28.497   0.186
31555W        W97964  34.928  12.485  10.902
31556W        W97965  41.252  15.355  12.524
31557W        W97966  29.564  37.035  13.487
31558W        W97967  23.997  10.630   4.739
31559W        W97968  17.220   1.599  10.449
31560W        W97969  25.554  35.103  10.951
31561W        W97970  41.782  44.218   0.814
31562W        W97971   3.036   7.504   1.000
31563W        W97972  24.680  44.922   2.413
31564W        W97973  23.758   8.913  11.134
31565W        W97974  33.193  39.453   0.791
31566W        W97975  29.204  11.988   2.286
31567W        W97976  43.766  32.708   3.924
31568W        W97977  25.037  23.114   4.478
31569W        W97978  39.043  12.137   1.453
31570W        W97979  17.261  39.012   0.801
31571W        W97980   0.500   9.686  12.036
31572W        W97981  13.912   1.518   9.782
31573W        W97982  12.182  27.523  14.294
31574W        W97983   4.223  31.558  14.759
31575W        W97984  43.312  36.684   2.098
31576W        W97985  39.952  14.800   2.793
31577W        W97986  22.531  16.724   2.825
31578W        W97987  41.241  30.043   3.142
31579W        W97988  33.002  36.870   0.254
31580W        W97989  11.516  41.299  11.135
31581W        W97990  27.520  30.015   2.615
31582W        W97991  24.039   1.475  11.734
31583W        W97992   2.266   4.405   3.849
31584W        W97993  12.775  22.137   0.094
31585W        W97994  38.802  26.232  11.610
31586W        W97995  30.564  15.098  13.536
31587W        W97996  44.601  41.359   0.489
31588W        W97997  12.486  37.000  14.766
31589W        W97998   7.329   1.617   4.825
31590W        W97999   2.362  13.210   1.688
31591W        W98000   1.066  40.731  11.271
31592W        W98001  34.858  42.074   3.677
31593W        W98002  17.246  37.510  12.023
31594W        W98003  36.390  44.490   1.044
31595W        W98004  11.251  24.006  12.734
31596W        W98005  31.119  36.003   2.744
31597W        W98006  38.254  24.193  11.201
31598W        W98007   7.779   4.793  12.174
31599W        W98008  41.859  33.044  10.518
31600W        W98009   0.927  41.560  14.000
31601W        W98010  31.013  42.346  12.403
31602W        W98011  19.895  43.917   1.813
31603W        W98012  36.104  28.161  12.185
31604W        W98013  28.147  31.743   1.853
31605W        W98014  20.631   9.566   2.310
31606W        W98015  36.102  34.825   5.174
31607W        W98016  19.230   8.718  13.089
31608W        W98017  36.777  42.534  12.178
31609W        W98018  23.885  13.607  14.472
31610W        W98019  26.206   6.870   4.579
31611W        W98020  40.754  30.046  10.566
31612W        W98021  25.122  12.208  10.920
31613W        W98022  12.250  43.785  14.496
31614W        W98023   9.198  19.635  11.581
31615W        W98024  22.043  32.582  10.788
31616W        W98025  13.221   2.077  14.405
31617W        W98026  11.979   7.829  13.467
31618W        W98027  15.137  11.350   0.671
31619W        W98028   2.886  32.367   1.437
31620W        W98029  33.109  29.876  11.562
31621W        W98030  14.480   5.509   1.185
31622W        W98031  34.598  30.344   3.845
31623W        W98032  32.574  13.648  11.434
31624W        W98033  44.816  43.972  11.550
31625W        W98034  19.085   7.265   3.960
31626W        W98035  12.641  19.011   5.254
31627W        W98036  40.468   0.075  12.011
31628W        W98037  21.436   7.098   1.602
31629W        W98038  41.728  42.791  10.970
31630W        W98039  12.552  27.425   0.286
31631W        W98040  21.237   1.555   3.868
31632W        W98041  30.635   8.452   4.222
31633W        W98042  14.713  15.110   3.853
31634W        W98043  13.613  41.327   1.843
31635W        W98044   6.318  12.320   0.509
31636W        W98045  40.557   6.390   3.357
31637W        W98046  40.090  42.505  14.925
31638W        W98047  12.948  44.367  12.516
31639W        W98048   0.220  40.350   0.002
31640W        W98049  34.535  31.860   2.832
31641W        W98050  38.134  12.228   0.758
31642W        W98051  31.404   5.729   3.706
31643W        W98052   9.573  20.816  10.370
31644W        W98053  13.944   4.198   0.706
31645W        W98054  31.158  14.592   2.427
31646W        W98055  12.242   5.253  11.165
31647W        W98056   2.617   5.902   4.640
31648W        W98057   9.684  25.579   3.760
31649W        W98058   7.726  26.147  13.319
31650W        W98059  34.814  37.669   3.617
31651W        W98060   6.822   8.638   1.697
31652W        W98061  32.005  25.172   1.173
31653W        W98062  22.742   0.458   2.222
31654W        W98063  23.131  43.475  13.939
31655W        W98064  12.097  37.629   0.269
31656W        W98065  16.148   2.498  12.169
31657W        W98066  35.672  15.094   4.322
31658W        W98067  41.907   6.629   2.238
31659W        W98068  37.568   1.881  12.759
31660W        W98069  43.939  26.380  12.954
31661W        W98070  34.541  11.612  14.351
31662W        W98071   6.856  35.350  12.035
31663W        W98072   7.077  20.727   4.058
31664W        W98073  28.988  20.871  11.367
31665W        W98074  39.538  30.623  10.558
31666W        W98075  35.812   1.877   3.088
31667W        W98076   7.450   0.839   1.241
31668W        W98077  15.470  15.579  13.917
31669W        W98078  42.250  42.006  14.350
31670W        W98079  38.383  27.446  12.922
31671W        W98080  44.271  32.269   1.866
31672W        W98081  25.464  17.165   2.146
31673W        W98082   4.477  12.783  11.177
31674W        W98083   2.745  35.143   0.782
31675W        W98084   8.264  42.459   0.187
31676W        W98085  31.943  33.035   2.186
31677W        W98086  19.756  10.200  14.827
31678W        W98087   6.975  29.665  14.470
31679W        W98088  23.335  37.911   3.758
31680W        W98089  26.397   6.691  10.317
31681W        W98090  29.936  28.665  14.431
31682W        W98091   0.916  25.302  14.423
31683W        W98092   7.296  17.275   0.248
31684W        W98093  10.182  13.137   1.394
31685W        W98094  37.400   4.181   2.683
31686W        W98095  10.261  12.804  10.452
31687W        W98096  28.985  42.003   0.996
31688W        W98097  15.586  18.547   0.014
31689W        W98098  29.189   6.941   2.083
31690W        W98099   0.748  11.303   1.832
31691W        W98100   1.899  10.607   0.007
31692W        W98101  38.855  20.908   3.094
31693W        W98102  40.558  42.464   1.722
31694W        W98103  44.999  13.562   4.835
31695W        W98104  14.550  10.999   0.079
31696W        W98105   8.868  18.365   1.371
31697W        W98106  25.755  37.952   0.275
31698W        W98107  17.964  31.565  12.083
31699W        W98108  11.959   6.445  10.161
31700W        W98109   1.899  39.292   3.079
31701W        W98110   7.877   9.722   4.120
31702W        W98111  32.404  41.097  12.543
31703W        W98112  18.489  35.038   5.031
31704W        W98113  28.412  17.531  14.385
31705W        W98114   6.982  19.365  14.318
31706W        W98115   7.442  38.116   0.319
31707W        W98116  24.913  43.066  14.449
31708W        W98117  10.748   6.840   4.091
31709W        W98118  32.662  43.712   4.012
31710W        W98119   2.980  18.634   2.689
31711W        W98120  36.383  10.434  10.713
31712W        W98121  16.878  29.103  12.977
31713W        W98122  24.008  43.311   3.351
31714W        W98123  12.474  27.563   1.680
31715W        W98124  16.234  41.654  11.010
31716W        W98125   8.434  20.545   1.057
31717W        W98126  33.574  11.181  11.149
31718W        W98127  37.289  10.849   3.677
31719W        W98128   8.643  43.118   1.871
31720W        W98129  11.801  35.385   3.561
31721W        W98130  34.858  32.683  10.376
31722W        W98131  40.294  38.361  11.225
31723W        W98132   2.383  26.161  14.101
31724W        W98133   8.622  22.161  10.707
31725W        W98134  16.984  35.854  10.669
31726W        W98135   3.805  29.250   0.821
31727W        W98136  19.310  41.882   4.142
31728W        W98137   6.314  19.341  12.171
31729W        W98138  16.125  15.615   1.929
31730W        W98139  17.275  37.287  13.943
31731W        W98140  13.278   5.420   1.055
31732W        W98141   2.167  36.463   2.755
31733W        W98142  40.176  35.329  11.971
31734W        W98143  41.313  25.294  13.903
31735W        W98144  18.082   1.363  14.459
31736W        W98145  21.378  18.678   0.924
31737W        W98146  34.276   8.957   2.458
31738W        W98147  29.109  12.087   4.495
31739W        W98148  35.800  35.107   0.547
31740W        W98149  29.384  15.641  10.726
31741W        W98150  36.135   3.676   0.632
31742W        W98151  30.817  15.035   0.525
31743W        W98152  17.942  21.833   5.488
31744W        W98153  34.658  25.650  11.675
31745W        W98154  10.776  35.583   1.683
31746W        W98155  34.568  38.285  11.443
31747W        W98156  19.323  20.047   3.644
31748W        W98157   2.079  30.112   4.202
31749W        W98158   7.181   0.196  14.351
31750W        W98159   0.119  24.697   2.299
31751W        W98160  18.672  18.702   3.662
31752W        W98161   9.360  12.127   2.868
31753W        W98162   7.389   6.248  13.859
31754W        W98163  13.660  14.244   4.266
31755W        W98164  15.213   5.411  14.530
31756W        W98165  17.312  23.329   4.576
31757W        W98166  12.611  42.919   2.362
31758W        W98167  41.597  18.687  10.307
31759W        W98168  12.318  44.318   2.216
31760W        W98169   1.455  32.482   1.189
31761W        W98170  28.951  31.828  14.485
31762W        W98171  43.864  17.546  12.515
31763W        W98172   9.088  32.616  12.441
31764W        W98173  18.252  16.781  12.100
31765W        W98174  19.308   4.215   1.487
31766W        W98175  33.848  29.327  11.522
31767W        W98176  43.667  35.512   3.694
31768W        W98177   4.222  19.807  10.709
31769W        W98178  42.008  26.673   2.337
31770W        W98179  15.238  18.563   4.488
31771W        W98180   1.652  31.455   0.224
31772W        W98181  29.865  15.809  11.998
31773W        W98182  14.817  38.538  14.010
31774W        W98183  24.096  44.043   2.863
31775W        W98184  11.277  25.838   1.401
31776W        W98185  40.314  11.164   4.643
31777W        W98186  31.199  26.213  13.439
31778W        W98187  36.956  17.039   2.161
31779W        W98188  42.790   9.272   1.420
31780W        W98189  15.065  39.824  14.961
31781W        W98190   5.878  31.096  11.869
31782W        W98191  32.124  25.173  14.897
31783W        W98192  15.188  22.834   9.883
31784W        W98193  35.096  30.153  13.122
31785W        W98194  16.325  44.793   4.578
31786W        W98195  26.155  22.494  14.368
31787W        W98196  32.016  36.450  11.933
31788W        W98197  39.677  15.691  13.167
31789W        W98198   5.345   5.719  13.805
31790W        W98199  27.129  10.105   0.899
31791W        W98200  44.242  18.276  12.117
31792W        W98201  25.685  25.247  11.899
31793W        W98202  37.275  43.866   1.786
31794W        W98203   3.935  38.859  12.610
31795W        W98204  38.859  37.431   0.664
31796W        W98205  16.353   3.720   2.963
31797W        W98206  27.074   3.008   1.013
31798W        W98207  27.455  40.799   2.666
31799W        W98208  22.030  35.647  13.369
31800W        W98209   6.652  43.513  11.684
31801W        W98210  34.144  39.474  10.554
31802W        W98211   9.739   9.284  13.328
31803W        W98212   6.828  24.394  12.448
31804W        W98213  15.765  19.967   9.785
31805W        W98214  23.031  15.263   1.655
31806W        W98215  28.453  27.278  13.955
31807W        W98216   1.049  30.643  14.451
31808W        W98217   9.740   4.922   4.408
31809W        W98218  35.459  34.545   2.548
31810W        W98219   3.224  37.486   1.799
31811W        W98220  41.437  10.008   3.164
31812W        W98221  23.105  42.204   0.772
31813W        W98222  26.648  39.578   3.247
31814W        W98223  41.390  42.588   2.679
31815W        W98224   5.867  23.014  10.696
31816W        W98225  44.337  31.696   2.854
31817W        W98226  41.952  33.919   4.199
31818W        W98227  23.201   7.143  10.939
31819W        W98228  22.665  19.147  13.853
31820W        W98229   9.624  26.055   1.663
31821W        W98230   1.257   3.300  14.422
31822W        W98231  39.834   5.250  10.727
31823W        W98232  33.020  12.102  12.512
31824W        W98233  23.749  37.198   1.455
31825W        W98234   0.818   6.566   4.071
31826W        W98235   4.511   2.456   0.488
31827W        W98236   1.777  40.118   1.480
31828W        W98237  17.666  22.284  13.929
31829W        W98238  23.764  32.520   0.527
31830W        W98239  20.171  12.113   0.965
31831W        W98240  18.209  43.799   0.471
31832W        W98241   3.318  40.439  11.711
31833W        W98242  11.547  18.246   1.631
31834W        W98243  43.418  12.908   0.042
31835W        W98244  26.483  14.317   2.097
31836W        W98245  31.472   8.876  11.555
31837W        W98246   5.950  36.864  11.661
31838W        W98247  21.764  25.260   2.754
31839W        W98248  26.557   0.005  14.697
31840W        W98249  26.281  43.714   1.154
31841W        W98250  43.288  18.005  10.423
31842W        W98251  40.573  25.034   3.910
31843W        W98252   6.658  40.490   2.321
31844W        W98253  14.663  21.601  11.793
31845W        W98254  44.760  19.035   0.772
31846W        W98255  33.641  15.213  10.667
31847W        W98256  16.549  27.018   4.882
31848W        W98257   0.403  16.139  11.986
31849W        W98258  42.484   4.319   1.333
31850W        W98259  10.975  44.804  11.065
31851W        W98260  32.621  13.862   2.068
31852W        W98261  23.100  31.871  13.470
31853W        W98262  27.002  24.935   1.230
31854W        W98263   5.438   1.786  10.530
31855W        W98264  32.260  36.309   3.342
31856W        W98265  18.854  22.446   5.437
31857W        W98266  18.303   4.238  12.473
31858W        W98267   8.430  24.796  13.419
31859W        W98268  30.430  18.223   2.382
31860W        W98269  34.971  38.531  11.676
31861W        W98270  42.501  23.682   3.372
31862W        W98271  19.902  10.625   2.749
31863W        W98272  37.989  41.415  10.328
31864W        W98273   4.483  39.911   0.875
31865W        W98274   0.004  20.187   3.590
31866W        W98275  13.720  13.559  12.219
31867W        W98276  13.323   1.298  12.526
31868W        W98277   3.008  44.987   3.927
31869W        W98278  37.567  16.777  11.184
31870W        W98279  17.907  26.574   0.048
31871W        W98280  16.300  29.584   0.114
31872W        W98281  12.475  24.381  12.980
31873W        W98282  19.958   3.920   0.115
31874W        W98283  18.882  11.211  12.536
31875W        W98284  25.202  14.218   3.637
31876W        W98285   9.814  24.242  13.575
31877W        W98286  31.981  34.326   0.479
31878W        W98287  32.743   3.589  13.397
31879W        W98288  35.623  26.942  11.608
31880W        W98289  35.510  25.940   3.745
31881W        W98290  37.703   3.352  12.099
31882W        W98291   8.389  35.438   1.764
31883W        W98292   1.057   6.394  10.814
31884W        W98293  34.971  27.933  11.213
31885W        W98294  29.064  37.680  13.593
31886W        W98295  43.132  11.093   4.922
31887W        W98296  43.904  29.718  13.539
31888W        W98297  40.436  15.827  12.435
31889W        W98298  39.615  27.978  11.794
31890W        W98299  15.992  42.801  14.770
31891W        W98300  16.616  27.579   0.737
31892W        W98301  24.592  23.687   4.063
31893W        W98302  17.335  35.978  12.954
31894W        W98303  44.272   4.412   1.948
31895W        W98304   3.718  31.388  13.335
31896W        W98305  13.813  15.175   4.720
31897W        W98306  18.174  19.609   4.706
31898W        W98307   0.419   9.352  13.512
31899W        W98308  26.421  38.970   4.098
31900W        W98309  15.350  34.477  14.912
31901W        W98310  30.511  43.831   0.275
31902W        W98311  24.097   8.364   0.202
31903W        W98312  43.534  18.526  11.816
31904W        W98313  19.303  26.969  12.065
31905W        W98314  18.996  16.397  13.425
31906W        W98315  32.850  11.819  11.079
31907W        W98316  32.543  17.104   1.882
31908W        W98317  43.928  20.236   2.792
31909W        W98318  26.888  31.678   4.706
31910W        W98319  37.066  39.874   2.127
31911W        W98320  22.232  44.429  13.472
31912W        W98321   3.408   9.656  12.645
31913W        W98322  33.081  30.916  11.553
31914W        W98323  18.691   8.930   3.304
31915W        W98324  31.096  38.154  13.609
31916W        W98325  12.378  42.652   4.346
31917W        W98326  19.131  25.523   4.617
31918W        W98327  14.017   8.290  10.729
31919W        W98328  31.562  41.556  14.997
31920W        W98329  13.873   7.665   3.638
31921W        W98330  13.877  14.106   2.315
31922W        W98331  18.799  27.137   3.723
31923W        W98332  26.535  44.384  11.306
31924W        W98333  18.836   4.961  12.083
31925W        W98334  44.946  23.528   0.256
31926W        W98335   0.992  14.386  12.444
31927W        W98336  19.935   0.327  10.944
31928W        W98337  19.303   8.291  12.289
31929W        W98338  22.708   9.618  12.053
31930W        W98339  27.100  36.984  11.986
31931W        W98340  42.600  24.189   3.330
31932W        W98341  25.868  27.790   2.145
31933W        W98342  22.838  23.003   2.357
31934W        W98343  33.328  25.494   3.309
31935W        W98344  31.458  41.566  12.519
31936W        W98345  14.193  33.531   2.524
31937W        W98346  11.285  22.136  14.896
31938W        W98347  33.066  25.728  12.613
31939W        W98348   5.179  15.761   4.605
31940W        W98349   2.276  35.519   0.300
31941W        W98350  28.682  25.089   2.763
31942W        W98351  15.621  37.926   2.586
31943W        W98352   3.793  44.418   4.360
31944W        W98353   2.853  43.791   3.552
31945W        W98354  43.953  34.946  12.781
31946W        W98355  37.090  15.149   9.748
31947W        W98356  32.778  35.364  11.156
31948W        W98357   7.328  12.480  11.076
31949W        W98358   1.453  38.945  12.649
31950W        W98359  34.830  27.240   2.230
31951W        W98360  15.850   7.038   9.969
31952W        W98361   5.502  14.672  12.101
31953W        W98362  20.288  42.471   0.229
31954W        W98363  43.523  23.395   4.079
31955W        W98364  36.808  38.367   3.750
31956W        W98365  24.644  34.245  12.865
31957W        W98366   3.290   0.522   4.753
31958W        W98367  29.966   6.319  11.426
31959W        W98368  44.354  39.760  10.870
31960W        W98369   1.404  27.626   2.474
31961W        W98370  37.470  27.956  12.955
31962W        W98371  33.022  14.749  14.418
31963W        W98372  21.091  43.435  10.523
31964W        W98373  11.366  39.907  14.974
31965W        W98374   5.360  27.125   0.782
31966W        W98375  42.044  16.901   2.685
31967W        W98376  16.644  33.378  12.290
31968W        W98377  11.856  43.778   1.855
31969W        W98378  20.883  32.139   3.827
31970W        W98379  42.380  28.108  12.380
31971W        W98380  19.124  38.807  14.457
31972W        W98381  14.764  37.555  14.243
31973W        W98382   3.479  41.045   1.815
31974W        W98383   8.607  43.538  11.874
31975W        W98384  35.224  44.507   0.899
31976W        W98385  30.056   8.908   2.400
31977W        W98386  33.852  42.100  11.926
31978W        W98387   1.202  32.146   1.765
31979W        W98388   3.655  28.142  14.309
31980W        W98389  17.101   3.806  14.989
31981W        W98390   0.028   8.763   0.834
31982W        W98391  15.855  31.009   0.098
31983W        W98392  31.494   3.015   3.044
31984W        W98393   0.265   6.673  12.446
31985W        W98394  15.287  13.235   2.289
31986W        W98395  30.471   1.698  11.610
31987W        W98396  38.254  33.344   0.621
31988W        W98397  41.817   3.932   4.049
31989W        W98398  44.225  22.474  13.044
31990W        W98399   8.609  28.708   1.924
31991W        W98400  22.628  26.179  14.360
31992W        W98401  35.545  38.854  12.848
31993W        W98402  41.887   3.445   3.747
31994W        W98403   8.387   0.169   2.091
31995W        W98404   3.173  30.487  11.119
31996W        W98405  42.211   4.445  10.516
31997W        W98406  16.525  14.569  11.939
31998W        W98407  23.074  35.111  13.951
31999W        W98408  15.468  25.993  12.423
32000W        W98409  37.294  18.437   2.814
32001W        W98410  10.745  31.694  13.974
32002W        W98411  14.855  32.626   4.306
32003W        W98412  26.546  44.783   3.780
32004W        W98413  10.795  34.073   5.317
32005W        W98414  16.218  30.924   1.415
32006W        W98415  41.335   7.884   0.037
32007W        W98416  13.181  37.375   3.605
32008W        W98417  42.531   2.966  11.689
32009W        W98418   6.760   0.890  13.116
32010W        W98419  20.888  10.332   2.656
32011W        W98420  18.787  31.177  13.709
32012W        W98421  13.811  14.185   0.948
32013W        W98422  25.857  34.131  14.386
32014W        W98423  34.201  35.109  14.743
32015W        W98424  20.469   8.822  14.753
32016W        W98425  17.813   2.755  12.821
32017W        W98426  16.270  14.239  13.551
32018W        W98427  44.776  15.729   1.652
32019W        W98428  37.606  29.369   0.674
32020W        W98429  19.346  12.204  13.977
32021W        W98430   2.570   0.179  12.392
32022W        W98431  23.634   6.790  14.891
32023W        W98432  15.647  29.240   5.162
32024W        W98433  17.297  32.333   2.033
32025W        W98434  30.249   3.262   1.048
32026W        W98435  34.026  37.460   0.752
32027W        W98436  24.240  44.277   4.233
32028W        W98437  19.531  32.093   1.832
32029W        W98438  19.079  41.509   3.187
32030W        W98439   7.220  11.027   4.480
32031W        W98440  33.925  27.112   0.438
32032W        W98441  19.508   3.072   2.780
32033W        W98442  21.206   1.756  13.791
32034W        W98443  12.707   9.692  13.402
32035W        W98444   1.478  36.141   4.234
32036W        W98445  15.581  23.631  12.043
32037W        W98446   7.637   1.940   5.076
32038W        W98447  31.317  21.619  13.888
32039W        W98448  17.712  29.934  11.175
32040W        W98449  27.637   0.782  12.540
32041W        W98450  20.025  22.677  11.112
32042W        W98451  14.603  34.551   0.389
32043W        W98452  23.705  43.974  12.811
32044W        W98453  28.774  14.788   4.175
32045W        W98454   9.793  40.256  11.388
32046W        W98455   8.438  28.295  12.638
32047W        W98456  37.004  40.301   0.238
32048W        W98457   2.936   1.838   0.394
32049W        W98458  11.227  22.552  14.582
32050W        W98459  38.470  28.962  10.967
32051W        W98460  21.236   7.734   0.005
32052W        W98461  16.686  13.013   3.093
32053W        W98462   0.995   4.289   2.397
32054W        W98463  27.951  26.995   0.457
32055W        W98464  27.321  18.850  13.362
32056W        W98465  17.594  23.575  11.238
32057W        W98466  12.785  19.053   0.686
32058W        W98467  32.835  26.363   0.406
32059W        W98468  35.944  27.825   1.532
32060W        W98469   1.054   3.943  11.620
32061W        W98470  32.946  21.753  13.770
32062W        W98471  20.734  21.186  13.110
32063W        W98472  29.931  38.840   2.176
32064W        W98473  29.118  32.423   0.828
32065W        W98474  40.533  38.651   4.832
32066W        W98475  37.833  14.585   2.881
32067W        W98476  28.861  43.938  10.530
32068W        W98477  21.416  15.802  11.479
32069W        W98478  38.823  42.368   1.191
32070W        W98479  35.673  44.901  13.747
32071W        W98480  39.892  11.912  11.583
32072W        W98481  40.488   1.358   1.612
32073W        W98482  11.356  42.698   0.773
32074W        W98483   8.760   9.309  13.974
32075W        W98484  19.562  28.966   1.148
32076W        W98485  10.949  31.353  13.598
32077W        W98486  25.693  39.642  14.501
32078W        W98487  17.615  36.924  13.784
32079W        W98488   1.911   0.178  11.387
32080W        W98489   9.278  38.064   4.660
32081W        W98490  32.332   1.978   3.336
32082W        W98491  25.258  28.134   1.441
32083W        W98492  25.511  22.552  14.868
32084W        W98493  34.222  17.488  14.852
32085W        W98494  26.032  14.355  12.426
32086W        W98495  25.621  40.386  13.341
32087W        W98496   0.468  42.762  10.663
32088W        W98497   5.456  42.715   3.259
32089W        W98498  11.255  22.136   3.876
32090W        W98499  41.467  25.706  12.157
32091W        W98500  28.054  35.863   1.484
32092W        W98501   4.254   2.905   0.479
32093W        W98502  41.074  13.875   0.974
32094W        W98503  17.555  21.553  13.483
32095W        W98504  34.136  19.235   3.254
32096W        W98505  34.451  36.476   0.750
32097W        W98506   2.471  37.946  13.376
32098W        W98507  16.984  26.490   3.707
32099W        W98508  29.056  27.623   3.104
32100W        W98509  30.343   3.417  13.893
32101W        W98510  13.105  38.773  14.039
32102W        W98511  35.881   5.235   4.587
32103W        W98512  22.415   8.782   4.507
32104W        W98513  27.792  38.421   4.560
32105W        W98514  23.783   0.550   1.516
32106W        W98515  30.704   9.549   1.948
32107W        W98516  18.868  29.377  13.632
32108W        W98517  32.499  29.073   4.610
32109W        W98518   2.041   3.856   1.260
32110W        W98519  41.655  29.690  11.014
32111W        W98520   5.297  27.768   3.670
32112W        W98521  39.941  42.876  10.927
32113W        W98522   0.577  32.894   0.749
32114W        W98523  12.739  14.442  11.219
32115W        W98524   5.351   8.640   2.307
32116W        W98525   4.525  28.652   5.086
32117W        W98526   5.881  39.729  12.155
32118W        W98527  32.856  25.424   3.129
32119W        W98528   9.880  13.828  14.802
32120W        W98529  33.388  18.804  13.017
32121W        W98530  29.988  13.526  13.895
32122W        W98531  43.976   0.713  10.363
32123W        W98532  26.179  16.678   1.179
32124W        W98533  13.856  40.922   2.074
32125W        W98534  34.931  22.455  13.825
32126W        W98535  28.121  25.091   4.641
32127W        W98536  18.263   5.310  14.875
32128W        W98537  34.452  22.090  11.606
32129W        W98538  38.617  37.455   1.164
32130W        W98539  11.142  19.491  12.276
32131W        W98540  31.501   7.337   1.852
32132W        W98541  41.479   1.810  12.628
32133W        W98542   9.807  30.284  13.914
32134W        W98543   9.421  31.877  12.986
32135W        W98544   5.881  20.899   1.436
32136W        W98545   8.486  20.177   1.798
32137W        W98546   3.943  44.057  12.840
32138W        W98547  15.539  10.193  13.099
32139W        W98548  44.471   1.479  12.623
32140W        W98549   9.646   8.642   1.734
32141W        W98550  23.013  29.386  13.564
32142W        W98551  38.187  41.119   0.420
32143W        W98552  15.648  39.551   5.443
32144W        W98553   1.315  33.946   2.448
32145W        W98554  26.056  38.128   1.017
32146W        W98555  30.933  44.147   0.256
32147W        W98556   0.840  20.247   0.856
32148W        W98557  34.154  22.500  13.423
32149W        W98558  32.346   8.100  14.338
32150W        W98559  17.335   7.309  13.791
32151W        W98560   8.753  27.216  13.561
32152W        W98561  39.513  44.830   0.127
32153W        W98562  16.683  41.893  14.505
32154W        W98563   9.912  23.165  14.561
32155W        W98564  21.180  14.157   3.055
32156W        W98565  43.849  21.626  12.142
32157W        W98566   6.677  38.331   3.300
32158W        W98567  37.275  37.417   3.772
32159W        W98568  10.290   3.524  14.853
32160W        W98569  29.456  18.277  14.733
32161W        W98570  15.371  36.911   2.146
32162W        W98571  34.799  21.670  11.602
32163W        W98572   3.629  24.216   3.692
32164W        W98573   4.937  19.554  14.463
32165W        W98574  25.975  11.016  14.849
32166W        W98575   1.270   8.580   4.005
32167W        W98576  13.785  12.391   0.926
32168W        W98577  21.147  18.623  12.690
32169W        W98578  40.970  35.169  10.638
32170W        W98579  19.439  42.829   0.935
32171W        W98580  42.386  17.327   0.980
32172W        W98581  14.262  34.587  13.935
32173W        W98582  12.635  30.898   1.752
32174W        W98583  35.879   4.855  11.944
32175W        W98584  24.685  10.827   4.149
32176W        W98585  36.515  33.385   1.465
32177W        W98586  10.921  22.092  10.558
32178W        W98587   2.452  33.078   4.433
32179W        W98588  44.537   4.840   3.612
32180W        W98589  28.951  13.282  12.606
32181W        W98590  38.862   3.239  11.136
32182W        W98591  11.214  27.000   2.410
32183W        W98592   2.380   2.903   2.130
32184W        W98593  32.540  37.345   3.671
32185W        W98594  30.393   0.953  12.912
32186W        W98595   8.118  12.814   1.344
32187W        W98596   6.631  37.099  10.738
32188W        W98597   4.788  29.538  14.580
32189W        W98598   5.901  17.307  13.350
32190W        W98599  16.579  24.460  12.482
32191W        W98600  29.412  15.249  12.933
32192W        W98601  39.490  34.023   1.920
32193W        W98602  25.914  36.185  12.535
32194W        W98603  43.713  21.799  12.986
32195W        W98604  29.153  32.666   4.825
32196W        W98605  14.048  16.673  14.982
32197W        W98606   0.384  38.632  13.960
32198W        W98607  39.337  34.602  14.422
32199W        W98608  18.358  28.886  12.868
32200W        W98609  37.131   7.288   2.158
32201W        W98610  32.087   4.641   3.188
32202W        W98611  42.479  40.984   2.785
32203W        W98612   3.250  34.867  14.052
32204W        W98613  25.374  22.289  11.223
32205W        W98614  16.243  44.448  14.695
32206W        W98615   1.692  10.357  13.840
32207W        W98616  15.244  12.379  14.942
32208W        W98617  30.626  17.151   4.500
32209W        W98618   6.885   6.859  12.568
32210W        W98619  33.383   3.350  11.686
32211W        W98620  17.011  22.982  11.035
32212W        W98621   0.281  13.008  13.542
32213W        W98622  43.873  40.746  14.522
32214W        W98623  44.394  32.627  12.646
32215W        W98624  37.339  22.006  14.025
32216W        W98625  29.945  18.498   2.632
32217W        W98626  10.641  11.263   3.946
32218W        W98627  38.990  17.568  11.199
32219W        W98628  18.828   2.118   4.410
32220W        W98629   7.192  20.131  14.871
32221W        W98630   4.304   3.886  14.845
32222W        W98631  24.568   6.326   3.191
32223W        W98632  27.536  10.126   1.843
32224W        W98633  26.426  26.071   0.280
32225W        W98634  41.797  17.845  14.439
32226W        W98635  33.071  13.156   1.390
32227W        W98636  33.782   5.866   2.187
32228W        W98637  10.182   4.334   3.285
32229W        W98638  23.400   4.359  11.727
32230W        W98639  19.324  13.669  11.132
32231W        W98640  17.012   5.019   3.174
32232W        W98641   5.820  20.792  11.037
32233W        W98642  16.621  24.109  13.293
32234W        W98643  12.838  26.162  14.517
32235W        W98644  19.185  38.546   2.653
32236W        W98645  21.074  41.011   4.163
32237W        W98646  36.492  25.039  12.155
32238W        W98647  23.594  22.511   2.127
32239W        W98648   0.445   3.446  12.963
32240W        W98649  43.369   3.742   3.180
32241W        W98650  23.504   4.985   4.157
32242W        W98651  19.333  44.717   0.908
32243W        W98652  40.485  26.146  11.041
32244W        W98653   1.447  39.269  13.990
32245W        W98654  29.064  25.605   1.898
32246W        W98655   6.137   1.433  13.991
32247W        W98656  22.756   8.116   3.699
32248W        W98657  28.815  10.638  13.051
32249W        W98658  43.513   2.967   4.776
32250W        W98659  21.228  32.019  10.757
32251W        W98660  11.132  12.592   3.690
32252W        W98661  29.599  37.456   4.116
32253W        W98662   8.591  17.665   1.407
32254W        W98663  16.093  11.072   4.175
32255W        W98664  35.472  17.837   2.014
32256W        W98665  33.044  26.314   4.083
32257W        W98666  22.292   3.223  10.617
32258W        W98667   8.927  38.026  13.604
32259W        W98668  22.497  29.394   0.779
32260W        W98669  30.595  27.003  12.400
32261W        W98670   8.665  31.700   1.913
32262W        W98671   6.441   4.391  13.159
32263W        W98672  15.248  22.699   2.306
32264W        W98673   6.248  42.517  11.204
32265W        W98674  37.638  18.827  12.521
32266W        W98675  18.764  17.809  11.195
32267W        W98676  43.012   5.684  13.834
32268W        W98677  31.051  29.950   3.355
32269W        W98678   5.481   3.915   1.954
32270W        W98679  11.894  37.347   1.609
32271W        W98680  12.801  16.256  13.346
32272W        W98681  11.919  31.545   2.863
32273W        W98682  42.717   5.153  12.271
32274W        W98683  12.391  32.444   0.897
32275W        W98684  32.870  35.593   1.818
32276W        W98685  38.778  25.045  11.863
32277W        W98686  24.821  15.234  12.343
32278W        W98687  18.171  41.297  10.570
32279W        W98688   0.410  21.153   1.553
32280W        W98689  28.462   1.958  14.992
32281W        W98690   7.859  36.871   1.944
32282W        W98691  16.491   1.653   4.839
32283W        W98692   8.579  25.345  14.848
32284W        W98693  39.047  38.883  12.537
32285W        W98694  15.145  20.666   1.719
32286W        W98695  20.124  40.727  12.011
32287W        W98696   4.730  37.877  11.559
32288W        W98697  18.150   2.449   4.044
32289W        W98698  25.048  31.089   4.968
32290W        W98699  39.137   1.003   1.741
32291W        W98700  16.029  42.319   0.548
32292W        W98701   2.991   4.079  12.836
32293W        W98702  14.171   3.295   2.798
32294W        W98703  34.459  13.549   4.204
32295W        W98704  34.313  42.730  13.190
32296W        W98705  32.516   7.213  13.957
32297W        W98706  39.811  24.173   2.724
32298W        W98707  13.036  13.790   3.281
32299W        W98708  12.817  16.893   1.941
32300W        W98709  35.187  33.802  10.320
32301W        W98710  12.868  34.349   1.154
32302W        W98711  17.240   2.828   3.931
32303W        W98712  18.634   5.285   2.196
32304W        W98713  18.335   4.176   4.610
32305W        W98714  15.262  12.472  12.997
32306W        W98715  13.634  33.973  13.974
32307W        W98716  19.577  37.842  13.121
32308W        W98717   4.395   4.393  11.149
32309W        W98718  22.627  17.882   0.840
32310W        W98719  41.938  10.182   1.425
32311W        W98720  31.853  20.709   1.468
32312W        W98721  11.705  19.425  10.287
32313W        W98722  15.827  30.570  14.326
32314W        W98723  16.661  14.547  14.220
32315W        W98724  16.688  27.370  13.729
32316W        W98725  39.072  19.103   5.366
32317W        W98726   8.828  26.694  13.521
32318W        W98727  11.276   5.396   1.257
32319W        W98728   6.729   8.232   3.553
32320W        W98729  29.154  11.616  14.091
32321W        W98730  32.337  42.756  14.497
32322W        W98731  14.171  35.910  13.300
32323W        W98732   0.553  23.775  14.422
32324W        W98733  19.054  22.035  12.888
32325W        W98734  38.349  21.945   3.647
32326W        W98735  14.421  33.465   4.240
32327W        W98736   3.662  15.256  11.941
32328W        W98737  17.788  16.886  12.913
32329W        W98738  22.896   2.427   1.299
32330W        W98739  23.398   7.648  14.455
32331W        W98740   5.585  25.527  11.990
32332W        W98741  21.248   5.609  11.164
32333W        W98742   3.995  10.850  13.709
32334W        W98743  13.231  22.594   3.874
32335W        W98744  33.484  23.706  14.924
32336W        W98745  19.637  38.110  13.580
32337W        W98746  25.093  43.723  10.849
32338W        W98747  31.808   0.257  13.888
32339W        W98748  17.265  14.064   2.126
32340W        W98749  14.670  37.935   2.655
32341W        W98750  41.943  19.464  13.449
32342W        W98751  10.908  15.940  14.235
32343W        W98752  29.606  41.498   3.207
32344W        W98753   2.903  32.694  13.527
32345W        W98754  24.489  18.827   0.460
32346W        W98755  39.794   3.165  11.892
32347W        W98756  38.786  33.645   4.943
32348W        W98757  32.815   5.767  14.533
32349W        W98758  31.165  21.782   2.690
32350W        W98759  40.314  25.882  14.263
32351W        W98760  16.738  37.450   3.999
32352W        W98761  24.569   1.515  13.432
32353W        W98762  19.031  16.400   2.103
32354W        W98763   5.221  25.215   3.636
32355W        W98764   3.510  41.542   1.964
32356W        W98765  18.166  21.744  12.400
32357W        W98766   6.072  36.351   4.300
32358W        W98767  29.971  42.205  10.943
32359W        W98768  11.244  43.740   3.995
32360W        W98769  25.772  11.234  12.219
32361W        W98770  44.334  13.664  13.256
32362W        W98771  40.691  26.167   0.947
32363W        W98772  30.038  26.454  13.996
32364W        W98773  12.816  44.219  10.930
32365W        W98774  13.705  28.163   0.746
32366W        W98775  41.538  44.775   2.720
32367W        W98776  38.252  19.272   3.245
32368W        W98777  14.116  18.443   3.286
32369W        W98778  13.353  15.329  14.837
32370W        W98779  25.558  25.516  13.375
32371W        W98780  21.729  38.405   2.804
32372W        W98781  23.612  44.012   1.115
32373W        W98782  25.525  27.523  14.998
32374W        W98783  41.833   7.150   3.155
32375W        W98784  28.195  30.955  12.218
32376W        W98785   3.723   6.846  11.391
32377W        W98786  37.445  19.279   3.226
32378W        W98787   3.357  15.739   3.209
32379W        W98788  26.167  18.328   0.832
32380W        W98789  22.110   6.645   3.837
32381W        W98790  44.967  40.716  13.357
32382W        W98791  39.972   3.886  10.949
32383W        W98792  20.772  33.738   1.109
32384W        W98793  10.674  38.286   4.042
32385W        W98794   2.749  14.214   1.662
32386W        W98795  30.137  39.921   2.645
32387W        W98796  22.532  15.718  14.860
32388W        W98797  22.540   8.152   1.220
32389W        W98798   9.698  25.587   1.909
32390W        W98799  34.610  23.279   1.382
32391W        W98800  23.629  29.976  10.954
32392W        W98801  21.749   2.808   0.823
32393W        W98802   8.454  14.366  13.074
32394W        W98803  26.339   3.860  13.531
32395W        W98804   1.862   9.447   3.462
32396W        W98805  33.757   0.509   4.993
32397W        W98806   1.853  34.827   0.414
32398W        W98807  19.524  20.206  13.361
32399W        W98808  40.771  38.675   4.156
32400W        W98809  33.422   7.301   4.523
32401W        W98810  38.322   7.013  11.216
32402W        W98811  41.806   2.548   0.751
32403W        W98812  22.594   6.930  11.202
32404W        W98813   7.749  12.638  13.265
32405W        W98814  16.100   3.832  10.546
32406W        W98815  25.522   9.276   2.654
32407W        W98816  14.362  39.119  12.097
32408W        W98817   1.060  28.359  12.363
32409W        W98818  20.696  10.207  13.638
32410W        W98819  21.537   1.965   4.044
32411W        W98820  12.770  32.796   4.537
32412W        W98821  28.104  18.528  12.170
32413W        W98822  19.210  29.051  12.933
32414W        W98823  37.400  26.499  11.079
32415W        W98824  26.998  33.857   2.845
32416W        W98825   6.198   9.651  14.960
32417W        W98826  17.692  43.317  13.930
32418W        W98827  29.151  24.591  13.492
32419W        W98828  25.850  32.106  12.025
32420W        W98829  33.581  35.541   2.407
32421W        W98830  11.717  31.957  14.853
32422W        W98831  17.254   4.404  10.707
32423W        W98832  22.522  30.088   4.633
32424W        W98833  11.704  36.573  12.581
32425W        W98834  25.102  18.671  11.521
32426W        W98835  35.117   0.231   4.051
32427W        W98836  35.635  41.700  13.862
32428W        W98837  27.386  27.251   2.695
32429W        W98838  43.479  33.071  14.843
32430W        W98839  28.643  36.500  10.637
32431W        W98840  40.918  37.841  11.099
32432W        W98841  24.347  25.283  12.101
32433W        W98842  26.559  43.964   1.643
32434W        W98843  30.837  10.330   3.060
32435W        W98844  40.612  39.771   1.401
32436W        W98845   9.093  32.102  13.354
32437W        W98846  38.577   9.173  12.534
32438W        W98847  35.227  14.580   0.695
32439W        W98848  32.611  17.535   1.547
32440W        W98849   1.365  30.073  13.570
32441W        W98850   3.727  30.396  11.984
32442W        W98851  33.882  20.951  13.338
32443W        W98852  33.128  14.703   0.325
32444W        W98853  20.841  18.788  11.340
32445W        W98854   9.653  35.800  13.946
32446W        W98855  20.049  31.458   3.278
32447W        W98856   1.793  18.008  13.022
32448W        W98857  42.403   8.028   1.749
32449W        W98858  20.979  19.444  13.880
32450W        W98859   2.699  19.436   4.092
32451W        W98860  21.698  43.656   1.879
32452W        W98861  13.559  44.433   0.761
32453W        W98862   2.048   7.910   5.053
32454W        W98863  17.589  36.826   3.705
32455W        W98864  43.747  44.097   2.399
32456W        W98865  19.324  29.663   0.391
32457W        W98866  13.151  10.846  11.725
32458W        W98867   5.287  19.596   1.661
32459W        W98868   3.192  37.900  11.530
32460W        W98869  15.632  35.487  11.408
32461W        W98870  10.077  18.813  12.426
32462W        W98871  16.071  25.624  11.114
32463W        W98872  29.536  19.993  14.416
32464W        W98873  26.876  34.417   0.887
32465W        W98874  14.212   4.982  12.082
32466W        W98875  41.835  21.180   0.784
32467W        W98876  39.351  43.802  13.811
32468W        W98877  36.505  32.562   0.300
32469W        W98878  28.632   5.735  11.028
32470W        W98879   1.043  18.837   0.857
32471W        W98880  22.129  17.100  11.669
32472W        W98881  34.389  13.819  14.305
32473W        W98882  23.584  24.751   0.847
32474W        W98883   1.775  15.361   4.609
32475W        W98884   2.618  25.202   2.869
32476W        W98885   7.825  26.975   0.794
32477W        W98886  26.635  26.558  14.423
32478W        W98887  15.025   0.897  10.990
32479W        W98888  37.854  38.601   1.610
32480W        W98889  24.221  35.874   1.436
32481W        W98890  33.630  21.095   0.204
32482W        W98891   4.355  41.171  12.384
32483W        W98892  25.157  16.232   1.384
32484W        W98893  23.096  30.914   3.950
32485W        W98894  27.325  15.614  14.853
32486W        W98895  35.589  36.191   1.951
32487W        W98896  44.591   1.953   4.317
32488W        W98897   2.620  13.837   1.134
32489W        W98898  14.638  19.223  11.477
32490W        W98899  16.812  15.420   3.810
32491W        W98900  32.995  43.408   3.660
32492W        W98901  23.560  16.620  14.488
32493W        W98902   4.016  10.241   2.313
32494W        W98903  39.568   2.147   2.947
32495W        W98904  25.517  28.533  12.943
32496W        W98905  11.293  15.612   1.641
32497W        W98906   3.171  44.724  12.896
32498W        W98907  12.379  33.510   1.537
32499W        W98908  29.821  16.611  14.480
32500W        W98909  28.461  29.884   0.451
32501W        W98910  38.805  40.461   2.248
32502W        W98911  34.507  14.157  10.566
32503W        W98912  33.784  14.669  12.566
32504W        W98913   1.516  26.732   3.565
32505W        W98914  24.531  18.332   0.730
32506W        W98915  20.240  14.312   1.934
32507W        W98916  43.437   3.880   1.831
32508W        W98917   8.390  23.962  14.413
32509W        W98918   7.301   4.307   3.363
32510W        W98919  21.158  25.433  10.724
32511W        W98920  14.760   0.976   0.944
32512W        W98921  42.069   2.460  11.639
32513W        W98922  18.178  18.847  10.425
32514W        W98923  23.709   0.320  14.784
32515W        W98924   2.648  31.883  12.950
32516W        W98925  21.628  22.871  13.542
32517W        W98926   8.749  29.858  14.319
32518W        W98927  14.469  28.358   3.424
32519W        W98928  37.894  22.242   0.516
32520W        W98929  18.298  42.455   1.137
32521W        W98930  31.364  28.419   1.412
32522W        W98931  30.398  40.078   3.956
32523W        W98932  17.105  41.518   0.812
32524W        W98933  39.753  39.793  11.086
32525W        W98934  30.916  15.043   2.502
32526W        W98935  28.087   6.637   0.287
32527W        W98936  21.734   5.856  11.014
32528W        W98937   0.366  18.520   2.358
32529W        W98938  32.558   1.692   3.717
32530W        W98939  28.202  17.561  12.622
32531W        W98940  25.660  17.604   4.601
32532W        W98941  24.195  34.146   4.087
32533W        W98942   9.490  16.161   0.536
32534W        W98943  39.788  36.693   3.606
32535W        W98944  32.494  30.334  13.970
32536W        W98945  30.382  10.722   3.942
32537W        W98946  43.269  34.417  10.606
32538W        W98947   8.732  44.328  10.621
32539W        W98948  37.790  44.752  11.485
32540W        W98949  26.087  36.545   1.342
32541W        W98950  44.751  11.859   3.303
32542W        W98951   4.100   7.131   5.076
32543W        W98952   9.841  25.029   4.091
32544W        W98953  44.281  24.221   0.321
32545W        W98954  11.402   8.218   0.933
32546W        W98955  37.741  39.516   3.196
32547W        W98956  20.283  41.718  12.190
32548W        W98957  36.135  26.663  14.493
32549W        W98958  37.128  36.807   1.655
32550W        W98959  29.090   7.890  12.031
32551W        W98960  25.183  25.583   4.421
32552W        W98961  34.638  28.536   2.727
32553W        W98962  34.793   9.949  13.973
32554W        W98963  14.536  37.285   0.561
32555W        W98964  42.345  27.666  12.675
32556W        W98965   1.515  37.492   0.464
32557W        W98966  36.909   3.168  13.552
32558W        W98967  39.230  14.201   3.306
32559W        W98968  40.221  25.277  13.407
32560W        W98969   9.401  32.003   0.995
32561W        W98970  39.856   0.281  14.210
32562W        W98971  28.958  27.103   1.986
32563W        W98972   0.980   0.366  12.967
32564W        W98973  22.780  26.105   3.294
32565W        W98974  20.764  22.662  10.609
32566W        W98975   0.192  16.591   1.663
32567W        W98976  41.948  15.133   3.248
32568W        W98977  12.574  40.823  14.017
32569W        W98978  28.451   2.355   2.280
32570W        W98979   5.348   9.666   2.197
32571W        W98980  36.401  26.054  11.538
32572W        W98981  40.241  18.100  13.937
32573W        W98982  21.278  22.195  11.930
32574W        W98983  44.058  37.216   5.031
32575W        W98984  35.474   6.858  12.459
32576W        W98985  35.472  39.373  13.038
32577W        W98986  40.622  19.205   2.550
32578W        W98987  27.635  17.963   1.440
32579W        W98988  38.908   1.754   5.085
32580W        W98989  33.023  31.751  14.221
32581W        W98990   1.009  42.525   1.255
32582W        W98991  24.583  42.914   3.065
32583W        W98992  39.343   0.746   0.206
32584W        W98993  22.990  40.359   1.415
32585W        W98994  14.716  20.644  11.748
32586W        W98995  41.755  15.615   1.219
32587W        W98996   2.344  32.759  14.798
32588W        W98997   0.434  22.423   0.687
32589W        W98998   9.321  18.848  13.015
32590W        W98999  26.674  25.676   0.472
32591W        W99000  14.656  28.023   0.192
32592W        W99001   0.018  33.314  11.684
32593W        W99002   4.612  41.830  12.864
32594W        W99003  16.413   6.975   1.747
32595W        W99004  33.853   6.044  14.881
32596W        W99005  40.987  37.813   2.774
32597W        W99006   1.706  22.669  13.972
32598W        W99007   6.196  25.011   2.305
32599W        W99008  10.606  41.839   2.719
32600W        W99009   6.328  18.682   0.655
32601W        W99010  11.729  16.727  12.399
32602W        W99011   5.916  15.086  12.470
32603W        W99012  22.297  31.525   3.173
32604W        W99013  22.841  30.959   2.761
32605W        W99014  13.741  35.925  12.422
32606W        W99015  32.395  27.009   1.319
32607W        W99016  28.182  15.625  13.659
32608W        W99017  41.607  32.490  11.497
32609W        W99018  20.912  24.828  11.998
32610W        W99019  30.831  13.304  13.856
32611W        W99020  23.349   1.437  13.970
32612W        W99021  19.837   2.432   1.765
32613W        W99022  30.803  43.280   9.827
32614W        W99023  38.132  34.561   0.007
32615W        W99024   1.948  16.223  14.323
32616W        W99025   2.243  23.025   3.163
32617W        W99026  30.777  22.594   2.523
32618W        W99027  23.709  38.621   1.570
32619W        W99028  27.411   2.316   0.350
32620W        W99029  44.993   0.055   3.050
32621W        W99030   7.787   4.106  14.167
32622W        W99031  15.313  31.533  13.468
32623W        W99032   8.095  40.825   3.242
32624W        W99033   3.151   9.373  14.445
32625W        W99034  11.915  37.910  11.415
32626W        W99035  13.837  41.060  13.472
32627W        W99036  36.322  23.159  12.439
32628W        W99037   2.393  35.295   1.776
32629W        W99038  15.651  30.871  13.021
32630W        W99039  34.851  40.174  12.092
32631W        W99040  21.252  44.651  14.388
32632W        W99041  30.952  24.490   4.546
32633W        W99042   2.837   7.995  13.110
32634W        W99043  16.638  10.108  14.536
32635W        W99044   0.239  14.730  14.391
32636W        W99045   4.966  18.676  14.960
32637W        W99046  23.982  28.667  13.833
32638W        W99047  16.158   7.611  12.042
32639W        W99048  23.767  34.775   3.305
32640W        W99049   9.737  12.210   4.709
32641W        W99050  28.874   9.451   0.275
32642W        W99051   4.992  33.128  11.480
32643W        W99052  40.178  37.614   3.105
32644W        W99053   8.771   3.817   0.455
32645W        W99054   5.600  43.959   0.778
32646W        W99055   5.294  30.151   3.195
32647W        W99056  15.230  13.645   0.524
32648W        W99057  26.860  40.344   1.872
32649W        W99058  38.298  20.107   4.580
32650W        W99059  26.282   9.044   1.998
32651W        W99060   4.852  13.725  12.919
32652W        W99061  24.052  38.490   0.398
32653W        W99062  42.787  11.594   2.787
32654W        W99063  26.386  13.197  14.527
32655W        W99064  38.729  19.065   3.182
32656W        W99065  13.443  25.978   3.724
32657W        W99066  24.204   8.462   3.812
32658W        W99067  10.653  25.463  10.482
32659W        W99068  22.351  33.019  12.562
32660W        W99069  43.557  42.227   0.315
32661W        W99070  38.717  18.215  10.323
32662W        W99071   5.932  44.266  11.169
32663W        W99072  26.450  34.112  14.945
32664W        W99073  40.677  38.014  13.823
32665W        W99074   5.005   4.354  14.725
32666W        W99075  29.856  27.884   2.822
32667W        W99076  12.226  21.231  10.579
32668W        W99077  19.823  31.123   4.141
32669W        W99078  14.844  15.796  11.070
32670W        W99079  34.054   9.377   2.707
32671W        W99080   4.056  33.356  14.300
32672W        W99081   6.113   7.831  14.979
32673W        W99082   5.954  38.826   4.061
32674W        W99083  13.700  11.902   2.847
32675W        W99084  12.587  24.137  14.483
32676W        W99085  30.080  22.187  14.283
32677W        W99086  30.654  38.063   4.587
32678W        W99087  34.099  24.761   0.343
32679W        W99088   1.970  28.985   3.650
32680W        W99089  39.710  30.146  12.875
32681W        W99090  10.080  31.040  12.026
32682W        W99091  28.999  19.506  11.147
32683W        W99092  17.401   2.284  11.198
32684W        W99093  27.706  12.333  14.471
32685W        W99094  18.558  40.420   0.258
32686W        W99095  38.632   4.799   1.921
32687W        W99096   4.379  11.177  13.010
32688W        W99097  36.385   9.657   3.844
32689W        W99098  24.993  19.296   1.421
32690W        W99099   2.362  29.005   4.160
32691W        W99100  20.576   0.680  12.045
32692W        W99101  38.732  13.260  11.149
32693W        W99102   7.781  17.085   2.415
32694W        W99103  23.819   5.416   4.112
32695W        W99104  29.643   0.789   2.236
32696W        W99105   5.405  39.499  10.694
32697W        W99106  12.655  36.672   0.806
32698W        W99107  35.062  23.938   4.214
32699W        W99108   8.426  42.930   4.991
32700W        W99109  43.172  21.087  12.876
32701W        W99110  27.753  25.733   2.793
32702W        W99111   2.397  21.989   1.304
32703W        W99112  16.064  32.923   0.659
32704W        W99113  14.335  33.517  12.926
32705W        W99114  19.567   0.099   4.157
32706W        W99115  43.915  18.326   3.283
32707W        W99116  35.947  19.126   4.633
32708W        W99117   1.832  15.537   1.116
32709W        W99118  37.959  16.469   3.331
32710W        W99119  35.541   3.184  10.870
32711W        W99120  29.645  34.474  11.695
32712W        W99121  36.681  21.214  14.815
32713W        W99122  44.880  43.244  11.365
32714W        W99123  27.377  10.183   1.350
32715W        W99124   0.048  16.510   4.140
32716W        W99125  27.023   4.956   2.747
32717W        W99126  44.181  44.247   2.641
32718W        W99127  27.374  39.404  11.793
32719W        W99128   5.969  16.845   1.717
32720W        W99129   3.980  29.520  12.922
32721W        W99130   9.358  20.226  14.048
32722W        W99131  10.413  13.545   3.562
32723W        W99132  34.608  42.315   4.087
32724W        W99133  38.945  42.330  11.708
32725W        W99134  44.418  24.782  10.613
32726W        W99135  36.007  39.526  10.688
32727W        W99136  16.094  38.276  11.164
32728W        W99137  28.561  43.923   1.259
32729W        W99138   9.186  15.648   2.273
32730W        W99139  29.535  42.957  14.894
32731W        W99140  44.643  17.632  12.101
32732W        W99141   9.645  10.698   2.823
32733W        W99142  38.081   9.616  11.164
32734W        W99143  14.070  18.248   0.742
32735W        W99144  26.907  38.497  12.003
32736W        W99145  26.109  33.562   4.766
32737W        W99146  38.051  10.764   2.379
32738W        W99147   7.902  38.233   2.622
32739W        W99148  23.160  25.494   2.844
32740W        W99149   8.953  27.954   1.779
32741W        W99150   4.388  29.356  12.643
32742W        W99151  13.665  43.656  11.147
32743W        W99152   7.671  18.205   2.219
32744W        W99153   7.879  11.262  11.866
32745W        W99154  31.116   9.217   0.301
32746W        W99155  29.534   0.201   3.574
32747W        W99156  30.879  25.466   3.039
32748W        W99157   9.198  33.440   3.588
32749W        W99158  15.179   1.468  14.496
32750W        W99159   1.763  39.036  13.048
32751W        W99160   5.300  38.636   3.304
32752W        W99161  23.663   7.838  14.049
32753W        W99162  33.005  28.078   3.022
32754W        W99163   2.855   5.196   0.365
32755W        W99164  30.037  26.654   0.328
32756W        W99165  18.650  15.381   2.963
32757W        W99166  36.136  29.134  13.922
32758W        W99167  14.042  12.193  12.543
32759W        W99168   4.254  44.347  14.263
32760W        W99169   0.725  16.640   1.758
32761W        W99170  34.349  12.112  12.628
32762W        W99171   4.628  18.465  12.633
32763W        W99172   9.092  25.162  11.746
32764W        W99173   7.047   2.658  14.008
32765W        W99174  36.287   6.719  11.132
32766W        W99175  18.773  26.570  12.968
32767W        W99176  30.271  28.468  12.915
32768W        W99177  16.541  29.470   4.651
32769W        W99178  31.951  22.635  12.982
32770W        W99179  32.608   5.976   0.454
32771W        W99180  41.899   7.358   1.776
32772W        W99181  13.255  42.158   2.284
32773W        W99182  25.094  23.701   4.599
32774W        W99183   3.063  18.644   3.227
32775W        W99184  31.070   1.287   3.154
32776W        W99185   4.381  29.540  10.721
32777W        W99186   6.679  10.451   1.395
32778W        W99187  29.159  27.594   0.751
32779W        W99188  26.139  31.910  11.652
32780W        W99189   7.756  35.824  12.161
32781W        W99190  43.108  33.619  14.595
32782W        W99191  43.895  13.097  14.857
32783W        W99192  38.270  18.072   0.296
32784W        W99193   9.661   4.665  12.042
32785W        W99194  25.590  12.756  14.851
32786W        W99195   4.946   1.281   1.826
32787W        W99196  14.904   3.020   2.157
32788W        W99197  28.188  38.530   0.943
32789W        W99198   4.364  23.147  13.413
32790W        W99199  28.554  38.505   1.420
32791W        W99200  35.580  28.396  12.910
32792W        W99201   0.806  24.002   0.320
32793W        W99202  40.022  32.214  14.891
32794W        W99203  18.590   8.947  11.936
32795W        W99204  25.534  38.515   3.917
32796W        W99205  39.989  14.923   0.906
32797W        W99206  31.433  10.837   4.198
32798W        W99207  20.908   0.444   5.107
32799W        W99208  29.157  44.223  14.090
32800W        W99209  15.305  14.184  12.112
32801W        W99210  32.418   9.378   3.769
32802W        W99211   3.539  40.443  11.213
32803W        W99212  31.685  26.550  11.655
32804W        W99213   9.953  35.530   9.809
32805W        W99214  13.517  44.985  10.200
32806W        W99215  29.605  32.001   3.562
32807W        W99216  41.080  27.497  14.529
32808W        W99217  41.306   6.067  13.066
32809W        W99218  26.475  42.252   1.226
32810W        W99219  42.868   0.010  14.393
32811W        W99220  17.806  15.722  12.574
32812W        W99221   9.504   8.233   3.662
32813W        W99222  16.131   2.054  11.231
32814W        W99223   4.857  25.455  12.966
32815W        W99224  26.328  32.593   4.765
32816W        W99225  10.972   7.257  14.510
32817W        W99226  37.822  22.694  11.163
32818W        W99227  12.418  42.295  14.254
32819W        W99228  30.062  10.945   2.222
32820W        W99229  40.073   9.138   2.727
32821W        W99230  31.623  24.505  14.229
32822W        W99231  30.568  36.946  10.593
32823W        W99232   4.261  33.067   1.920
32824W        W99233   4.616  22.900  13.801
32825W        W99234  35.373  19.205   2.373
32826W        W99235  38.075  42.235  14.447
32827W        W99236  36.738  16.014   3.563
32828W        W99237  27.803   2.202  10.666
32829W        W99238  24.258  35.813   0.241
32830W        W99239  37.592  16.123  14.970
32831W        W99240  39.576  38.302   4.030
32832W        W99241  29.522  28.586  11.214
32833W        W99242   8.233  20.653  14.038
32834W        W99243  24.135  42.292  11.178
32835W        W99244  29.071  23.279  14.393
32836W        W99245  23.646  19.574   1.748
32837W        W99246  14.114  31.122  13.024
32838W        W99247  20.016   6.746   3.733
32839W        W99248  16.821  39.591  10.742
32840W        W99249  20.795  43.028  10.711
32841W        W99250  29.583  30.530  10.261
32842W        W99251  36.770  18.476  14.936
32843W        W99252   5.621  21.085   1.025
32844W        W99253  23.267  14.791  13.375
32845W        W99254   6.167  29.917  12.897
32846W        W99255  11.522   7.090   4.443
32847W        W99256  18.336  13.003   4.443
32848W        W99257   1.893  23.166  10.671
32849W        W99258  32.527  32.172  10.677
32850W        W99259  24.157  34.883  10.525
32851W        W99260  42.899  22.194  14.921
32852W        W99261   3.222   8.616   1.718
32853W        W99262   5.293  16.261  11.261
32854W        W99263  24.960  40.697   4.111
32855W        W99264  12.380  15.029  14.861
32856W        W99265  43.981   4.785  13.536
32857W        W99266   2.020  11.620   0.169
32858W        W99267   0.025  40.699   3.091
32859W        W99268  28.070  37.362  11.957
32860W        W99269  10.292   0.552   1.323
32861W        W99270  35.612   7.325   2.125
32862W        W99271   8.214  22.678  11.902
32863W        W99272   3.159  10.807   0.323
32864W        W99273  14.184   2.718   3.142
32865W        W99274   9.293  42.284  10.762
32866W        W99275  34.972  22.931   1.293
32867W        W99276  11.815   7.299  13.994
32868W        W99277  31.903  10.982  14.622
32869W        W99278  44.271  14.039  13.609
32870W        W99279  12.545   4.219   3.885
32871W        W99280  11.775  34.472   4.361
32872W        W99281  18.639  14.900   2.780
32873W        W99282   8.794  11.376  11.894
32874W        W99283  43.882  28.277   2.158
32875W        W99284  39.083  10.704  12.638
32876W        W99285   4.742   5.980   4.109
32877W        W99286  10.730  24.233   0.382
32878W        W99287  18.406  17.465  14.862
32879W        W99288   7.437  25.611   3.386
32880W        W99289  32.563  20.645   1.850
32881W        W99290  38.909   5.310  14.793
32882W        W99291   6.244  33.682  14.481
32883W        W99292  16.073  39.235  14.473
32884W        W99293   6.309  30.132   4.432
32885W        W99294  26.480   2.341   0.778
32886W        W99295  13.143   4.379  14.743
32887W        W99296  19.030  10.207  12.013
32888W        W99297   2.236  29.559   4.261
32889W        W99298  14.128  39.248   2.325
32890W        W99299   7.285  42.322   4.102
32891W        W99300   6.371  26.915  11.540
32892W        W99301  15.381  20.007  12.024
32893W        W99302  41.255   0.884   4.061
32894W        W99303  40.905  33.862   2.255
32895W        W99304  36.343  38.440  11.622
32896W        W99305   8.765  15.955  14.997
32897W        W99306  27.789  27.076  14.576
32898W        W99307  27.169   8.439  11.195
32899W        W99308  38.130  43.317  13.959
32900W        W99309   4.693  21.094  12.891
32901W        W99310   8.251  37.611  13.841
32902W        W99311  34.460  34.415   2.691
32903W        W99312  13.630  25.534  13.778
32904W        W99313  22.045  33.084  10.797
32905W        W99314  40.724  12.374  12.079
32906W        W99315   6.465   9.450  14.566
32907W        W99316   8.812  14.125   0.664
32908W        W99317  39.242  44.973   2.410
32909W        W99318  36.102   3.772   3.620
32910W        W99319   8.437   0.946   3.265
32911W        W99320  11.162   2.728   0.333
32912W        W99321  32.445   6.092   1.544
32913W        W99322   1.771  11.813   2.709
32914W        W99323  24.140  23.032  12.491
32915W        W99324  41.557  35.126  11.190
32916W        W99325   2.431  37.367  11.136
32917W        W99326  35.645   0.766  13.947
32918W        W99327   2.281  33.995   4.600
32919W        W99328  16.260  22.017   1.650
32920W        W99329  25.081  33.567   3.168
32921W        W99330   1.013  17.656  13.489
32922W        W99331  14.730  14.765   1.205
32923W        W99332  11.595  15.726  11.773
32924W        W99333  22.622   7.740  13.999
32925W        W99334  38.849  38.995  14.955
32926W        W99335  30.739  10.561   0.150
32927W        W99336  44.071  33.259   0.305
32928W        W99337   7.799  28.852   2.630
32929W        W99338  28.341  11.374  10.290
32930W        W99339  22.641  11.751  10.028
32931W        W99340  28.094   2.845  12.714
32932W        W99341  41.666   3.769  11.219
32933W        W99342  43.475  26.436  12.700
32934W        W99343   1.957  18.955  14.812
32935W        W99344  26.200  38.123   0.512
32936W        W99345   1.235  23.752   0.068
32937W        W99346  41.933  31.148   1.864
32938W        W99347  44.974   2.250  12.493
32939W        W99348  27.084  11.181  12.802
32940W        W99349  21.086  26.435  11.606
32941W        W99350  44.432   1.417  14.205
32942W        W99351  29.320   3.248   4.324
32943W        W99352   6.319  37.684   2.404
32944W        W99353  32.589  12.353  12.621
32945W        W99354  20.077   1.052  14.981
32946W        W99355  25.918  34.150  11.865
32947W        W99356  18.082  42.870  12.807
32948W        W99357  35.928   1.984   4.608
32949W        W99358   7.787   8.788  14.757
32950W        W99359  20.267  40.771   0.849
32951W        W99360  33.162  35.063  12.391
32952W        W99361  18.236  38.574  14.521
32953W        W99362  43.410  34.735   3.195
32954W        W99363  23.461  11.866   1.983
32955W        W99364  43.858  23.225   3.708
32956W        W99365  42.706   4.722   1.075
32957W        W99366  26.320  38.153  12.759
32958W        W99367  39.006   5.414  11.573
32959W        W99368  37.657  30.866  14.438
32960W        W99369  16.924  36.049   3.618
32961W        W99370  26.731  13.090   1.844
32962W        W99371  16.244   3.294   0.420
32963W        W99372  19.137   9.218   0.362
32964W        W99373  35.528  21.152  11.781
32965W        W99374  44.606  37.883   2.787
32966W        W99375  10.824  38.338   3.550
32967W        W99376  12.899  16.695   4.685
32968W        W99377  37.007  28.918   2.203
32969W        W99378  44.294   5.488  11.520
32970W        W99379  22.592  14.453  12.604
32971W        W99380   1.526  27.442  14.398
32972W        W99381  31.124  43.287  13.902
32973W        W99382  25.972   4.823  12.419
32974W        W99383  24.232   7.260  10.674
32975W        W99384  28.031   8.327   1.871
32976W        W99385   1.333  13.273   4.753
32977W        W99386   0.498  43.383  14.000
32978W        W99387  39.588  20.088  11.609
32979W        W99388   8.259  14.200   1.367
32980W        W99389   8.075  17.772   3.637
32981W        W99390  28.876  36.111  12.932
32982W        W99391  43.811  44.724   4.768
32983W        W99392  10.226  13.732  13.496
32984W        W99393  25.932   4.730  13.387
32985W        W99394  10.767  35.809   3.373
32986W        W99395  14.074  15.767   1.896
32987W        W99396  11.113  11.315   4.167
32988W        W99397  18.074  16.084   2.194
32989W        W99398   6.220  25.191   1.447
32990W        W99399   4.924  30.740   2.693
32991W        W99400  10.114   0.555   5.275
32992W        W99401  11.431   2.185   1.921
32993W        W99402  37.894  14.101  11.533
32994W        W99403   3.232  12.673   1.844
32995W        W99404  40.827  27.677   1.418
32996W        W99405  25.679   0.049  12.875
32997W        W99406  13.319  40.863  14.472
32998W        W99407  13.097  32.654   2.386
32999W        W99408  20.387  44.094   1.736
33000W        W99409  32.918  10.061  14.537
33001W        W99410   0.743  12.471   4.112
33002W        W99411  34.765  19.778  13.580
33003W        W99412  44.811   0.057   4.613
33004W        W99413  36.850  10.165   2.941
33005W        W99414  21.542   5.747  14.385
33006W        W99415  33.930   2.282   1.776
33007W        W99416  27.036  13.555  10.703
33008W        W99417   5.925  41.142   0.405
33009W        W99418  30.971  35.302  11.138
33010W        W99419   4.256  14.024  14.980
33011W        W99420  20.490   4.448   0.099
33012W        W99421  37.467  26.723  13.857
33013W        W99422  29.931   0.918   3.591
33014W        W99423  39.572  15.968  12.376
33015W        W99424  12.601  19.979   3.203
33016W        W99425  33.012  24.540   2.965
33017W        W99426  25.406  36.949  14.417
33018W        W99427  31.348  43.015   0.988
33019W        W99428  25.004   6.918  10.765
33020W        W99429  10.175  31.124   0.141
33021W        W99430  15.130  39.593   0.952
33022W        W99431  24.189  15.259   2.918
33023W        W99432  27.563  36.785  13.913
33024W        W99433  35.955   0.878   0.735
33025W        W99434  31.879  24.490   4.551
33026W        W99435  27.103  11.369  14.235
33027W        W99436  24.606  41.460  12.565
33028W        W99437   1.823  13.772   4.684
33029W        W99438  30.134  24.102  14.199
33030W        W99439   5.398   5.338  11.153
33031W        W99440  38.988  44.767   4.162
33032W        W99441  30.588  32.976   1.458
33033W        W99442   5.652  12.313  13.827
33034W        W99443  13.214   2.467  14.760
33035W        W99444   0.071  29.565   0.306
33036W        W99445  13.162  27.696  10.706
33037W        W99446  11.096   2.856  11.718
33038W        W99447   6.185   4.744   0.315
33039W        W99448   0.624  42.235   2.711
33040W        W99449  32.428  44.620  13.696
33041W        W99450  28.912  40.478  14.774
33042W        W99451  12.150  25.890   0.796
33043W        W99452   4.347  12.632  14.939
33044W        W99453  21.234  43.911  12.783
33045W        W99454  37.994  43.126   4.678
33046W        W99455   2.086  14.212  12.310
33047W        W99456   5.893  25.898  10.806
33048W        W99457   2.972  31.158   1.140
33049W        W99458   2.136  35.093  13.401
33050W        W99459  13.242  16.636   3.175
33051W        W99460   4.714  25.960   0.427
33052W        W99461  15.006  23.051   0.534
33053W        W99462  37.534  42.981  14.180
33054W        W99463  29.228  18.964  13.691
33055W        W99464  25.030  24.158  10.796
33056W        W99465  11.714  21.141   3.127
33057W        W99466  17.702  22.046  11.648
33058W        W99467  22.215  44.401   0.331
33059W        W99468  42.952  15.676  11.595
33060W        W99469  41.917  23.040   1.968
33061W        W99470  37.363   9.734   2.570
33062W        W99471  36.879  21.716   3.581
33063W        W99472  38.890   4.943  11.341
33064W        W99473  39.113  13.292  12.037
33065W        W99474  30.114  33.524  13.741
33066W        W99475   1.156  37.929  11.027
33067W        W99476  40.622   4.709  14.414
33068W        W99477  25.879  17.015   0.298
33069W        W99478  31.757   4.665  14.727
33070W        W99479  29.437  32.125  12.901
33071W        W99480  29.219  44.807   4.066
33072W        W99481   8.560  32.153   2.797
33073W        W99482  15.896  27.170  13.116
33074W        W99483  10.853  10.598   0.259
33075W        W99484  21.695  25.880  11.572
33076W        W99485  39.600  17.925   0.140
33077W        W99486  34.942  13.332   4.033
33078W        W99487  29.930   0.333   2.385
33079W        W99488  43.969   5.819  13.780
33080W        W99489   7.657  26.490  14.989
33081W        W99490  35.158  43.853   3.569
33082W        W99491  41.306  33.486   1.879
33083W        W99492  14.865   1.695   2.763
33084W        W99493  24.063  44.818  12.169
33085W        W99494   1.990  35.446   4.599
33086W        W99495   9.427  27.971  12.884
33087W        W99496   7.681  20.644   2.877
33088W        W99497   7.909  44.267   3.753
33089W        W99498  38.539  10.603  13.409
33090W        W99499   5.702  31.965  11.794
33091W        W99500  27.876  29.611  13.487
33092W        W99501   0.795  12.674   1.919
33093W        W99502  11.465  29.515   4.961
33094W        W99503  17.370  39.832   0.040
33095W        W99504  28.116  44.057  12.889
33096W        W99505  35.792   1.426  10.640
33097W        W99506  35.900  43.890   0.817
33098W        W99507  43.395  16.242  13.491
33099W        W99508  43.095  35.002   1.182
33100W        W99509   0.916  33.595  13.588
33101W        W99510  19.203  23.126  13.905
33102W        W99511   2.706  37.532   4.147
33103W        W99512  38.935  21.194  12.916
33104W        W99513  26.719  26.460   0.529
33105W        W99514  31.111  44.214  11.843
33106W        W99515  33.058  15.240   3.853
33107W        W99516  25.717  35.561   3.212
33108W        W99517  38.106  35.025   4.521
33109W        W99518  26.216  33.564  12.078
33110W        W99519  17.689  29.967   3.315
33111W        W99520  26.549  41.921  10.838
33112W        W99521   3.023  40.797   1.896
33113W        W99522  15.311  25.453   4.049
33114W        W99523  10.151  31.373   9.629
33115W        W99524  16.258   1.965  14.905
33116W        W99525   9.154   2.343   2.639
33117W        W99526   6.376   0.713   3.675
33118W        W99527  30.934  24.418  12.902
33119W        W99528   5.761  32.262   0.546
33120W        W99529  24.973  23.970  14.844
33121W        W99530  20.764  17.264  12.353
33122W        W99531  14.416  37.034   2.830
33123W        W99532   9.232  31.501  13.984
33124W        W99533  36.604  29.158   1.257
33125W        W99534   5.186  33.454  14.843
33126W        W99535  11.317  30.937  13.356
33127W        W99536   1.196  23.485   2.680
33128W        W99537  35.911   2.954  14.491
33129W        W99538  27.184  20.407  10.776
33130W        W99539  19.606   7.005  12.602
33131W        W99540   3.234  11.220  13.542
33132W        W99541   8.391  34.060  14.798
33133W        W99542   3.258  19.288  11.889
33134W        W99543  39.387  18.331  11.064
33135W        W99544  15.160  10.401   0.834
33136W        W99545   6.334   8.098   0.999
33137W        W99546  15.298  24.275   2.391
33138W        W99547  30.877  26.086  12.364
33139W        W99548  35.861  19.000  12.261
33140W        W99549  26.457  42.909  13.513
33141W        W99550  16.596  13.701  12.486
33142W        W99551  29.530  20.516   3.948
33143W        W99552  41.426  34.551   1.315
33144W        W99553  44.517   1.909  14.371
33145W        W99554  40.133  21.565  13.860
33146W        W99555  25.377  23.111  11.134
33147W        W99556   3.013  11.804  10.731
33148W        W99557  23.204  17.817  12.011
33149W        W99558  40.539  12.215   4.086
33150W        W99559   6.686  14.268  11.083
33151W        W99560  12.637  39.401   2.519
33152W        W99561  18.237  15.210  12.058
33153W        W99562  10.094  33.656  11.304
33154W        W99563  36.968  11.909   2.250
33155W        W99564  12.474  37.430  12.597
33156W        W99565  19.361  24.505  12.604
33157W        W99566  13.636  26.638  11.737
33158W        W99567   5.713   9.253  14.204
33159W        W99568  31.826   4.238   0.991
33160W        W99569   2.014   8.236   1.142
33161W        W99570  19.549  44.309  11.532
33162W        W99571  13.939   6.889   4.429
33163W        W99572  28.972  11.145  11.880
33164W        W99573  19.668  26.165   2.462
33165W        W99574  35.825  10.238   3.206
33166W        W99575  38.986   7.128   1.334
33167W        W99576  35.534  32.519  11.030
33168W        W99577  23.419   7.766   1.195
33169W        W99578   7.479   1.347  13.978
33170W        W99579   9.056  40.798  12.276
33171W        W99580  14.365  25.448   5.021
33172W        W99581  25.646  21.740  14.372
33173W        W99582  38.834  10.610   1.122
33174W        W99583   6.340   8.281   0.109
33175W        W99584  25.628  10.182   2.421
33176W        W99585  32.467  21.250  12.640
33177W        W99586  31.485  38.535   3.898
33178W        W99587  14.274  11.261  12.490
33179W        W99588   8.747  34.191   3.434
33180W        W99589  18.186  21.630  11.432
33181W        W99590  14.146  35.987   2.810
33182W        W99591  37.522  22.018  10.672
33183W        W99592  13.904  22.003   1.290
33184W        W99593  14.665   2.195   4.088
33185W        W99594  20.700   3.964  13.650
33186W        W99595   5.200  10.437  10.068
33187W        W99596  44.211  31.620   2.350
33188W        W99597  38.362  37.428  11.049
33189W        W99598   1.297  13.689  11.437
33190W        W99599  19.213  32.350   1.510
33191W        W99600   2.310  38.869  13.459
33192W        W99601  18.569  27.663   4.489
33193W        W99602   1.082  10.210  11.801
33194W        W99603  12.787   2.865   4.009
33195W        W99604  17.958  18.055   2.626
33196W        W99605  11.243  24.127  14.734
33197W        W99606   6.443  23.079   2.723
33198W        W99607  40.417  42.030  12.018
33199W        W99608  25.247  31.212  12.708
33200W        W99609   5.492  29.569  13.286
33201W        W99610   5.198  15.883  12.566
33202W        W99611  13.806  26.474   2.224
33203W        W99612  26.801  31.800   1.842
33204W        W99613  21.145  29.992   3.678
33205W        W99614  26.482  37.875   0.084
33206W        W99615  22.101  31.174  12.450
33207W        W99616  24.525   7.319  12.819
33208W        W99617  40.389  10.085  13.414
33209W        W99618  42.341  44.344   4.504
33210W        W99619  28.971   2.654   9.748
33211W        W99620  32.905   2.127  14.329
33212W        W99621  26.896  15.212   2.341
33213W        W99622  14.141  12.207  12.038
33214W        W99623  25.072  10.210  12.485
33215W        W99624  20.569   1.475  12.998
33216W        W99625  31.085  42.890   2.242
33217W        W99626  30.888  29.647  13.069
33218W        W99627  15.169  23.468  13.916
33219W        W99628  24.701  12.263   3.123
33220W        W99629   5.331   6.389   4.672
33221W        W99630   0.579  29.441  11.675
33222W        W99631  31.467  12.006   2.911
33223W        W99632   7.447  32.952  12.937
33224W        W99633  40.619  20.159  11.740
33225W        W99634  34.424  29.456  14.567
33226W        W99635  22.946  23.800  11.052
33227W        W99636   6.908  21.154   3.263
33228W        W99637  28.727  30.998  12.925
33229W        W99638  16.167  22.332   2.642
33230W        W99639  39.868  13.950  11.612
33231W        W99640  34.368  25.509   3.352
33232W        W99641  44.152  38.311  13.350
33233W        W99642  11.273  21.147  12.037
33234W        W99643   1.940  10.194   3.221
33235W        W99644  39.292  13.407   4.665
33236W        W99645  15.533  22.601   4.133
33237W        W99646  11.261   9.381   0.861
33238W        W99647  21.592  23.589   4.137
33239W        W99648   7.669  19.665   1.591
33240W        W99649  17.717  22.447   2.931
33241W        W99650  29.050  30.409  14.014
33242W        W99651  28.692   3.402  12.802
33243W        W99652  12.148  12.748  14.350
33244W        W99653  28.400  33.346  12.678
33245W        W99654  20.655  38.088   2.036
33246W        W99655  29.491  44.981   4.489
33247W        W99656  30.111  18.212  10.664
33248W        W99657  10.287  27.267  12.854
33249W        W99658  36.950  30.265  13.255
33250W        W99659  29.465   1.838  11.109
33251W        W99660  23.724  24.136  11.021
33252W        W99661  10.321   5.808   1.655
33253W        W99662  37.028  12.789   0.377
33254W        W99663  21.005   5.925   4.176
33255W        W99664  25.195  41.359   1.748
33256W        W99665  23.257   7.516   2.055
33257W        W99666  18.148  32.335   2.875
33258W        W99667  34.930  19.014  11.949
33259W        W99668  24.236   1.991  12.536
33260W        W99669  25.156   3.956  11.160
33261W        W99670  23.697  42.927   2.142
33262W        W99671  28.667  22.975   2.314
33263W        W99672  30.871  40.927  13.944
33264W        W99673  25.415  13.578  14.450
33265W        W99674  33.647  35.578  14.496
33266W        W99675  19.097  19.205   3.181
33267W        W99676  27.635  33.550  12.134
33268W        W99677  27.178  18.350  13.397
33269W        W99678  21.212  16.851   0.330
33270W        W99679  31.544  10.494  11.046
33271W        W99680  29.962   5.232   3.176
33272W        W99681  28.173  43.547  11.083
33273W        W99682  10.204  26.881  13.788
33274W        W99683  28.233  20.474  11.939
33275W        W99684  25.564   3.450   4.214
33276W        W99685  17.654  41.246   3.149
33277W        W99686  42.021  32.066  13.636
33278W        W99687  16.459   5.374  12.853
33279W        W99688  13.168  40.909   0.774
33280W        W99689   9.294   3.205   3.206
33281W        W99690  15.127  12.023  10.719
33282W        W99691  26.196  31.286  13.866
33283W        W99692  21.663   8.564  11.093
33284W        W99693  31.201   2.478   2.707
33285W        W99694  11.795  36.351   0.342
33286W        W99695  29.533  34.372  10.812
33287W        W99696  38.352   3.609  12.051
33288W        W99697   1.802  24.704   3.663
33289W        W99698  24.537   8.113  14.403
33290W        W99699  11.675  34.325   0.220
33291W        W99700  30.024  33.425   0.406
33292W        W99701   2.529  36.714   0.744
33293W        W99702  32.336  41.818  13.021
33294W        W99703  13.542  27.161  14.937
33295W        W99704  14.732  44.470  12.986
33296W        W99705  34.586  32.134   1.438
33297W        W99706  19.794  35.762  13.077
33298W        W99707  14.832   5.888   3.692
33299W        W99708  42.390   8.028   4.960
33300W        W99709   4.778  21.901  11.327
33301W        W99710  13.878  26.067  10.671
33302W        W99711  38.015   3.119   1.650
33303W        W99712  24.512  16.164  14.778
33304W        W99713   8.478  44.958   1.596
33305W        W99714  43.251  14.758  13.897
33306W        W99715  20.812  14.128  14.427
33307W        W99716   7.567  33.393   2.878
33308W        W99717  25.932  32.032   1.192
33309W        W99718  17.635   6.343  13.483
33310W        W99719  19.315  11.827  14.333
33311W        W99720  31.930  30.502  10.393
33312W        W99721   8.337  34.597  11.039
33313W        W99722  30.840  25.092   0.636
33314W        W99723  18.183  20.611   3.047
33315W        W99724   2.530  37.658   2.211
33316W        W99725  18.363  14.679   4.334
33317W        W99726  44.715  14.856  13.185
33318W        W99727  14.106  38.803  13.454
33319W        W99728   0.302   6.660  10.752
33320W        W99729  23.868  26.291   3.278
33321W        W99730  32.484  20.731   2.642
33322W        W99731  14.086  25.921  13.021
33323W        W99732  41.415  33.712   4.902
33324W        W99733  34.439  14.579  11.476
33325W        W99734  38.247  12.332  13.756
33326W        W99735  26.143  34.076   4.893
33327W        W99736  19.772  18.786  12.609
33328W        W99737  25.038  22.086  13.439
33329W        W99738  14.239  28.624   0.706
33330W        W99739  17.286  42.987  14.023
33331W        W99740  22.406   7.706   0.935
33332W        W99741   4.436  22.807  13.011
33333W        W99742   8.881  36.407   2.185
33334W        W99743   7.744  10.797  13.569
33335W        W99744  25.448  11.929   4.136
33336W        W99745   3.481  38.108   0.275
33337W        W99746  10.276  18.314  13.125
33338W        W99747  41.537  12.827  11.127
33339W        W99748  29.420  21.252   3.729
33340W        W99749  16.840  32.595   3.578
33341W        W99750   1.649   7.498  14.585
33342W        W99751  27.686   3.021   3.585
33343W        W99752   8.100  32.827  12.514
33344W        W99753  27.166  24.753  12.104
33345W        W99754  35.700  24.207   4.741
33346W        W99755   5.823  16.362  12.919
33347W        W99756  14.298  36.277  10.786
33348W        W99757  16.116  11.671  14.979
33349W        W99758  22.199  16.611  13.051
33350W        W99759  16.572  39.824  12.536
33351W        W99760   0.899  23.464   1.242
33352W        W99761  12.888  19.264   3.698
33353W        W99762   4.471  10.810  10.537
33354W        W99763  32.598  20.394  12.810
33355W        W99764  34.591   3.380  13.029
33356W        W99765   4.430  13.556  14.875
33357W        W99766  19.556   5.547  12.777
33358W        W99767  34.567  12.811  11.026
33359W        W99768  15.307  11.407   4.720
33360W        W99769   4.506  15.342   4.156
33361W        W99770  13.107   2.886   0.534
33362W        W99771  21.405   4.498   1.260
33363W        W99772  24.651  23.362   0.114
33364W        W99773  29.741   6.632   1.844
33365W        W99774  25.242  10.307   1.173
33366W        W99775  32.459  18.339  10.426
33367W        W99776  34.582  16.652  12.585
33368W        W99777  29.437  23.094   1.325
33369W        W99778   8.636  36.641  11.652
33370W        W99779  23.985  19.209   2.492
33371W        W99780   9.812  40.420  14.724
33372W        W99781  19.750  20.225  14.760
33373W        W99782  13.725  33.121  14.909
33374W        W99783  33.303   4.857   0.493
33375W        W99784  29.149  35.404   2.375
33376W        W99785  20.627  25.878   0.297
33377W        W99786  44.032  40.268   1.997
33378W        W99787  14.706  42.575  10.970
33379W        W99788  19.740  37.328   1.924
33380W        W99789   9.341   7.244  12.082
33381W        W99790  13.583  25.711   4.234
33382W        W99791   8.409  23.449   4.236
33383W        W99792  26.522  13.666  10.599
33384W        W99793   8.810  29.975  10.806
33385W        W99794   1.546   7.659   9.548
33386W        W99795  12.554  19.544  12.052
33387W        W99796   4.612  20.635   4.205
33388W        W99797  25.959  34.976  13.002
33389W        W99798   9.079  36.027  12.421
33390W        W99799  25.550  39.482  10.369
33391W        W99800  11.725  32.892   2.095
33392W        W99801   2.348  42.002   0.863
33393W        W99802  36.128  34.539  13.176
33394W        W99803   1.364   3.927   3.672
33395W        W99804  18.773  35.456   0.783
33396W        W99805  25.291  18.511  14.320
33397W        W99806  18.121  30.709  13.338
33398W        W99807   2.452   9.387   4.090
33399W        W99808  36.999   4.934  13.276
33400W        W99809   1.849   1.685   4.176
33401W        W99810  12.486  13.129   2.876
33402W        W99811  10.825   9.934   1.252
33403W        W99812  33.582  18.733   1.340
33404W        W99813  13.888  26.745  14.803
33405W        W99814  40.273   8.275  11.592
33406W        W99815  23.773  23.846  11.513
33407W        W99816  22.039  24.083   3.690
33408W        W99817  17.056  40.970  10.650
33409W        W99818  23.651  39.329   4.408
33410W        W99819  44.257  32.936  10.353
33411W        W99820  27.149   8.744   3.806
33412W        W99821  44.792  33.489  13.938
33413W        W99822  29.894  11.161  13.927
33414W        W99823   5.266  37.963  10.371
33415W        W99824  40.953  29.475   3.958
33416W        W99825  37.419  35.259   3.103
33417W        W99826  14.752  25.496   2.828
33418W        W99827  26.501   6.684   2.886
33419W        W99828  12.169  20.829   4.821
33420W        W99829  37.266  11.068   2.323
33421W        W99830  28.855   0.701  12.055
33422W        W99831  39.902  42.950  12.427
33423W        W99832  16.405  38.866  13.466
33424W        W99833  40.257  10.137  11.233
33425W        W99834  29.221   9.720   2.686
33426W        W99835  18.458  40.596  11.450
33427W        W99836   3.765  11.646   1.158
33428W        W99837  37.011  24.393   4.161
33429W        W99838  42.903  28.862   0.082
33430W        W99839   4.752  14.840  10.233
33431W        W99840   4.424   0.476   3.360
33432W        W99841  30.397   0.074  12.955
33433W        W99842  42.875  30.888  14.936
33434W        W99843   3.353  37.347  12.655
33435W        W99844  39.017  38.010   2.515
33436W        W99845  14.183  22.581   4.549
33437W        W99846  39.295   7.852   1.235
33438W        W99847   4.095   1.809  11.722
33439W        W99848  35.324  20.621   4.619
33440W        W99849   4.318   4.625  12.458
33441W        W99850   1.189   5.737  14.730
33442W        W99851  35.319  24.939  13.977
33443W        W99852  19.817  22.591  14.274
33444W        W99853  22.001  34.057  12.491
33445W        W99854   8.226   8.901  14.487
33446W        W99855   7.728   2.753   1.444
33447W        W99856  24.677  17.177  13.965
33448W        W99857  23.155  24.240   3.487
33449W        W99858   3.206  32.135  13.509
33450W        W99859  35.826  39.844  12.017
33451W        W99860  34.627   5.768  13.384
33452W        W99861  22.150  41.119   1.710
33453W        W99862  12.175   2.775   0.387
33454W        W99863  28.641  22.846  14.956
33455W        W99864   4.695  22.993  11.229
33456W        W99865  28.052  16.598  11.297
33457W        W99866  38.959  21.684  12.640
33458W        W99867  30.018  32.126  13.489
33459W        W99868  13.031   0.458   0.286
33460W        W99869  43.509  16.312  14.494
33461W        W99870  36.851  15.796  12.574
33462W        W99871  18.527   6.673  11.322
33463W        W99872  42.161  18.677   3.368
33464W        W99873   4.834  16.723   4.921
33465W        W99874  14.509  14.229   4.356
33466W        W99875  19.740  39.092   2.432
33467W        W99876   2.817  44.299   0.548
33468W        W99877   0.235  23.786  13.979
33469W        W99878  19.587  15.728   0.950
33470W        W99879  14.049  23.081  11.592
33471W        W99880  30.009  44.284   1.203
33472W        W99881   3.341  10.225  12.225
33473W        W99882  13.911  24.775  10.818
33474W        W99883  20.580   9.713  13.498
33475W        W99884  20.717  27.605   2.390
33476W        W99885  41.163  43.481   2.629
33477W        W99886  37.878  14.210   1.032
33478W        W99887  30.896  34.117  11.956
33479W        W99888  39.512   6.088  12.018
33480W        W99889  17.571  16.267  10.735
33481W        W99890   4.635  12.261  13.721
33482W        W99891  29.581  44.098  14.458
33483W        W99892  12.674   3.820   2.181
33484W        W99893  21.213  34.931   4.000
33485W        W99894  13.273  23.130  10.658
33486W        W99895  35.144   5.345  11.087
33487W        W99896   7.305  21.276   2.716
33488W        W99897  22.035   3.740  11.168
33489W        W99898  25.216  24.559   1.345
33490W        W99899  36.493   3.939   0.901
33491W        W99900   6.813  25.555  14.330
33492W        W99901  22.577  14.303  13.242
33493W        W99902  32.037  21.503  10.800
33494W        W99903  18.056  24.388  14.375
33495W        W99904  39.272   9.683  10.519
33496W        W99905  44.430  26.691  11.551
33497W        W99906  14.629  23.445   0.788
33498W        W99907  16.743   8.459   4.557
33499W        W99908  33.429   1.832  12.616
33500W        W99909  43.085  22.135   1.115
33501W        W99910  44.665   0.433   3.232
33502W        W99911  35.466   3.708   2.715
33503W        W99912   9.875  25.557   1.018
33504W        W99913  14.314  28.628  11.176
33505W        W99914  12.283   2.317   1.852
33506W        W99915  27.097  36.663   3.649
33507W        W99916  29.430  27.683  13.043
33508W        W99917  43.709  18.054   0.724
33509W        W99918  36.445  12.831  14.017
33510W        W99919  24.960  33.836  12.699
33511W        W99920  43.026  19.679   0.824
33512W        W99921   2.884  33.340   0.443
33513W        W99922  26.093  33.434   1.955
33514W        W99923   7.010  25.886  12.575
33515W        W99924  38.119   4.771   1.729
33516W        W99925   7.023   8.181  14.264
33517W        W99926  10.461   0.097  12.535
33518W        W99927  19.977  27.552   0.271
33519W        W99928  25.129  28.011  14.064
33520W        W99929  12.647  17.193  13.801
33521W        W99930  15.433   7.889   2.623
33522W        W99931  36.678  44.317  10.849
33523W        W99932  24.971  41.784   1.513
33524W        W99933  27.622   7.752  13.107
33525W        W99934  37.905   8.374  13.380
33526W        W99935  21.061  33.829   0.012
33527W        W99936  35.402  34.474   3.072
33528W        W99937   4.104  36.014  10.248
33529W        W99938   5.492   3.200  12.454
33530W        W99939  16.705  29.596   3.277
33531W        W99940   3.278  30.921  12.875
33532W        W99941   9.338  26.997  14.335
33533W        W99942   6.233  40.343   3.112
33534W        W99943   7.884   5.250  12.419
33535W        W99944  28.576   6.482  11.331
33536W        W99945  12.538   4.730  11.673
33537W        W99946  40.147   6.725   2.889
33538W        W99947  11.823  24.468  14.238
33539W        W99948  31.155  12.760  11.656
33540W        W99949  28.229  20.968  14.366
33541W        W99950  28.363  34.378   0.461
33542W        W99951  25.513   3.299   0.966
33543W        W99952  18.805   2.550  11.164
33544W        W99953  40.431  22.972   3.208
33545W        W99954  10.226  36.974   0.377
33546W        W99955  14.913  27.444   4.100
33547W        W99956  34.021  40.856   4.526
33548W        W99957  26.825   4.342   0.845
33549W        W99958  38.339  14.640  11.024
33550W        W99959  41.105  16.930   3.262
33551W        W99960   4.919  31.618   2.277
33552W        W99961  20.661  27.408  10.753
33553W        W99962   2.430  30.112  11.410
33554W        W99963   1.168  11.137  11.549
33555W        W99964  16.094  24.986  10.624
33556W        W99965  21.716  35.359  10.812
33557W        W99966  44.798  40.257  11.067
33558W        W99967   6.010   7.139  12.315
33559W        W99968  27.109  38.757  13.271
33560W        W99969  21.672  26.651   1.401
33561W        W99970   2.261  24.261  11.044
33562W        W99971  10.738  28.188   1.892
33563W        W99972   3.984  31.053   1.364
33564W        W99973   3.274   7.185   2.253
33565W        W99974   6.790  12.134   0.398
33566W        W99975  19.090  30.447  12.591
33567W        W99976  31.249  34.438   3.106
33568W        W99977   7.390  24.280   0.919
33569W        W99978  30.150  15.078  14.742
33570W        W99979  34.501  43.804  14.236
33571W        W99980  14.813  40.358  13.714
33572W        W99981   8.725  15.569   0.932
33573W        W99982  43.049   6.249   3.209
33574W        W99983   1.774  35.581  11.615
33575W        W99984  18.086   0.897  12.108
33576W        W99985   7.810  39.565  12.101
33577W        W99986  38.381  30.653   1.622
33578W        W99987  37.903  38.549  14.372
33579W        W99988  17.622  32.106  13.833
33580W        W99989  32.572  30.084  10.731
33581W        W99990  16.195  35.648  11.238
33582W        W99991  13.225   1.944   2.095
33583W        W99992  42.714  19.523   1.696
33584W        W99993  36.055  41.343  13.822
33585W        W99994  15.489  36.464  13.138
33586W        W99995  43.653  42.667   3.700
33587W        W99996  21.063  26.221   1.443
33588W        W99997  32.404  36.774  11.921
33589W        W99998  38.490   6.352  13.399
33590W        W99999  14.795  41.545   3.166
33591W        W    0  23.524  42.474  14.027
33592W        W    1  30.988   6.460   4.567
33593W        W    2   5.857   8.362  13.580
33594W        W    3  30.872   0.352   1.218
33595W        W    4  11.176  30.043  13.883
33596W        W    5  43.866  32.956  11.205
33597W        W    6   7.860   4.407  13.390
33598W        W    7  32.523  15.795  11.440
33599W        W    8  40.533  41.628   4.978
33600W        W    9  14.576  30.406   0.000
33601W        W   10  35.144  42.552  11.180
33602W        W   11  27.248  10.757  11.536
33603W        W   12   3.531  18.362  14.822
33604W        W   13  20.765  42.772  11.550
33605W        W   14  36.856   9.478   3.721
33606W        W   15  33.694  18.234  10.974
33607W        W   16  17.061  15.115   3.475
33608W        W   17  41.919   9.631   2.309
33609W        W   18  22.652  35.566  13.241
33610W        W   19   7.982  38.866   4.491
33611W        W   20  34.361  10.077  10.095
33612W        W   21  22.952  39.306  10.716
33613W        W   22   1.529  43.466  11.780
33614W        W   23  21.061  23.821  12.099
33615W        W   24  35.037   5.619  11.537
33616W        W   25  40.455  42.544  12.066
33617W        W   26   9.794  38.937   4.857
33618W        W   27   7.669  25.992   3.134
33619W        W   28  43.984  37.787  12.494
33620W        W   29  24.870  29.031  13.611
33621W        W   30  10.272  32.877   0.766
33622W        W   31   5.265   8.178   2.474
33623W        W   32  15.738  41.808  12.618
33624W        W   33   6.814   7.409  11.692
33625W        W   34   5.561  21.596  10.398
33626W        W   35  22.149   3.034   2.958
33627W        W   36  24.265  39.296   3.386
33628W        W   37  12.903   1.312  14.892
33629W        W   38  41.251   2.489  12.967
33630W        W   39  41.116  18.716   4.228
33631W        W   40   4.118   9.312   0.825
33632W        W   41  29.291  25.794   4.912
33633W        W   42  37.921  40.520  12.478
33634W        W   43  19.078   0.589   4.709
33635W        W   44   5.112   7.710  10.748
33636W        W   45   0.290  36.401   3.796
33637W        W   46  18.066  33.166   0.300
33638W        W   47  22.702  19.718   0.523
33639W        W   48  29.892  42.624   2.362
33640W        W   49  21.336  34.978  13.510
33641W        W   50  34.616  41.684  14.945
33642W        W   51  22.623  27.613   3.075
33643W        W   52  36.480  28.905  12.815
33644W        W   53  37.284  16.491   1.351
33645W        W   54  21.084   9.618  10.694
33646W        W   55  44.211  26.187  14.291
33647W        W   56  34.787   6.782   1.808
33648W        W   57  33.384   3.614  14.421
33649W        W   58  18.295  42.290  14.176
33650W        W   59  37.017  22.546  12.248
33651W        W   60  38.659  22.791  11.976
33652W        W   61  14.801   5.667  14.333
33653W        W   62   6.156  29.987   3.498
33654W        W   63  29.983  43.026   2.695
33655W        W   64  38.203  38.595  12.099
33656W        W   65   6.679   2.819   4.620
33657W        W   66  26.081  26.767   4.527
33658W        W   67  43.561  38.137  13.401
33659W        W   68  20.741  20.193   4.914
33660W        W   69   4.807  24.232  13.768
33661W        W   70  23.920  25.049  11.202
33662W        W   71   6.421   5.700  14.921
33663W        W   72  22.907   6.734   2.367
33664W        W   73  39.483  18.252   2.699
33665W        W   74  44.911  15.817   4.501
33666W        W   75   2.179  37.422   1.901
33667W        W   76  12.882  19.713  11.142
33668W        W   77  22.224  41.770  13.306
33669W        W   78  33.541  10.750  13.040
33670W        W   79  12.871   7.841  12.020
33671W        W   80   6.567  39.911  14.920
33672W        W   81  22.661  32.736  14.314
33673W        W   82  37.084  41.970   0.055
33674W        W   83  25.633  11.308  14.553
33675W        W   84  22.069  37.613  12.495
33676W        W   85  34.815  25.401   4.721
33677W        W   86  25.735  39.905  11.084
33678W        W   87  24.116   9.688   4.298
33679W        W   88  40.429  25.037   3.421
33680W        W   89   0.155   0.695   3.240
33681W        W   90  14.582  20.273  13.917
33682W        W   91  20.731   8.698  11.419
33683W        W   92  26.522  20.191  13.835
33684W        W   93  29.991  42.728  14.864
33685W        W   94  14.583  26.063   4.410
33686W        W   95  19.614  10.713  14.934
33687W        W   96   6.458  36.735  11.059
33688W        W   97  33.118   6.786  14.545
33689W        W   98  31.552  33.990   3.251
33690W        W   99  32.089  19.208  10.676
33691W        W  100  17.724  15.051   1.388
33692W        W  101  28.035  39.584   4.343
33693W        W  102  21.179   1.777  12.579
33694W        W  103   0.737  18.624  14.564
33695W        W  104  17.974   7.232  14.917
33696W        W  105  11.161  17.402  12.426
33697W        W  106  18.663  26.252   4.041
33698W        W  107  18.611   0.248  11.114
33699W        W  108  39.044  16.778  13.821
33700W        W  109  18.868  24.478  12.727
33701W        W  110  19.691  41.873   4.535
33702W        W  111  35.519  44.595   2.202
33703W        W  112   4.634  20.534  14.191
33704W        W  113  14.889  10.767   2.268
33705W        W  114   2.413   1.462   3.307
33706W        W  115   2.417  40.502   2.233
33707W        W  116  41.015  42.566  10.635
33708W        W  117   8.297  30.685   1.676
33709W        W  118   1.255  29.101  11.854
33710W        W  119   0.021  39.204  11.862
33711W        W  120  30.080  33.326  13.253
33712W        W  121  31.115  15.552  10.789
33713W        W  122   4.511   8.893   0.441
33714W        W  123  27.931   0.702   1.248
33715W        W  124   4.810  11.746   2.135
33716W        W  125  12.209  37.367  13.457
33717W        W  126  41.058  21.198  14.998
33718W        W  127  40.949  23.319   2.470
33719W        W  128  23.954  24.283  12.886
33720W        W  129  41.886  39.505  14.911
33721W        W  130  34.548  15.654   4.070
33722W        W  131  14.749  33.337   0.812
33723W        W  132  39.836  26.971  12.016
33724W        W  133  41.513  23.458  12.595
33725W        W  134  36.068  23.812   2.370
33726W        W  135  43.487  30.955   3.075
33727W        W  136  31.108  25.966  12.941
33728W        W  137  15.220  42.750   3.291
33729W        W  138  11.342  21.563  12.744
33730W        W  139  19.105  11.693   0.261
33731W        W  140  11.144   7.875  12.212
33732W        W  141  41.549  35.225   3.198
33733W        W  142   8.049  18.272   4.669
33734W        W  143  26.400  31.693   4.888
33735W        W  144  29.736  17.254  11.138
33736W        W  145   4.834   0.949  10.711
33737W        W  146  23.978   2.785   3.264
33738W        W  147   4.382  42.747   0.831
33739W        W  148  40.910  42.772  13.342
33740W        W  149  39.754  15.578  12.668
33741W        W  150  32.028  21.513  12.592
33742W        W  151  21.885   4.681  14.477
33743W        W  152  11.661  30.072  13.560
33744W        W  153   4.263  15.764   3.383
33745W        W  154  43.679  27.616  12.499
33746W        W  155   0.377  31.954   5.066
33747W        W  156  36.426  39.784   3.306
33748W        W  157  43.694  37.084   1.914
33749W        W  158  27.604  20.688   3.959
33750W        W  159  22.113  42.072  11.376
33751W        W  160  11.198   1.973  13.088
33752W        W  161  15.281   4.117   2.292
33753W        W  162  13.055   6.689  12.517
33754W        W  163  36.452  37.704   1.133
33755W        W  164  23.576  19.682  11.952
33756W        W  165  37.124  28.675   0.861
33757W        W  166  40.256  22.938  14.326
33758W        W  167  34.319  15.070   2.687
33759W        W  168  28.092  41.530   4.091
33760W        W  169  14.076   2.706   4.543
33761W        W  170  35.560  37.208  11.455
33762W        W  171  44.548  17.201  14.256
33763W        W  172  22.962   4.267  11.458
33764W        W  173  17.319  15.474  13.727
33765W        W  174   2.549  15.141  14.007
33766W        W  175   8.697  33.445   1.304
33767W        W  176  14.925  42.491  12.440
33768W        W  177  34.980  44.082  12.927
33769W        W  178  42.290  16.071  11.925
33770W        W  179  28.576   0.866  13.699
33771W        W  180  42.881  36.990   4.615
33772W        W  181  38.472  39.705   3.717
33773W        W  182  14.262  33.548  10.489
33774W        W  183  19.264  29.978  12.481
33775W        W  184   6.348  37.474   1.540
33776W        W  185   7.436  11.610   1.733
33777W        W  186   1.447  27.522   1.945
33778W        W  187   6.015  25.656   0.329
33779W        W  188  11.120  25.988   4.529
33780W        W  189  28.897  24.865   4.938
33781W        W  190  25.506  26.660  12.244
33782W        W  191   1.301  44.057   1.407
33783W        W  192   5.141   1.390   1.352
33784W        W  193  17.296  40.764  11.046
33785W        W  194  18.073  24.010  14.743
33786W        W  195  16.271  32.179   4.627
33787W        W  196   9.086  15.815  12.935
33788W        W  197  14.306  13.871  12.990
33789W        W  198   9.658   8.238  12.465
33790W        W  199  18.684  37.446  14.399
33791W        W  200  13.305   6.189   2.074
33792W        W  201  21.457  34.579   4.653
33793W        W  202  29.506   6.735   0.230
33794W        W  203  23.173  36.043   3.342
33795W        W  204  30.109  16.349   4.956
33796W        W  205  30.874  35.380  12.865
33797W        W  206  13.167  42.335  11.109
33798W        W  207  27.776  35.992  14.188
33799W        W  208   3.978  20.833  13.465
33800W        W  209  10.145  35.536  13.385
33801W        W  210  32.473  23.555  12.974
33802W        W  211   4.244  29.028   0.933
33803W        W  212  38.811  19.664   2.666
33804W        W  213  35.568  29.984  11.515
33805W        W  214  35.127  41.288  11.119
33806W        W  215   7.097  24.377  12.907
33807W        W  216   6.106  26.114   4.945
33808W        W  217  36.330  42.864  11.550
33809W        W  218  17.100   5.538   3.212
33810W        W  219  34.223  33.558   3.375
33811W        W  220  28.818   9.670  12.640
33812W        W  221  32.555  26.958   2.791
33813W        W  222   8.433  25.473   9.934
33814W        W  223  28.901  36.210   3.099
33815W        W  224   0.366  23.546   4.458
33816W        W  225  36.790  35.848   1.379
33817W        W  226  10.370  21.909  10.679
33818W        W  227  42.889  18.778   0.027
33819W        W  228  16.174  38.371  13.462
33820W        W  229  38.571  16.030  12.347
33821W        W  230  10.118  22.943  10.983
33822W        W  231   1.398  42.492   3.689
33823W        W  232   4.760  10.744   1.191
33824W        W  233  24.673  37.071  11.992
33825W        W  234  28.083  40.356  11.000
33826W        W  235  37.369  27.161  14.832
33827W        W  236  20.570  20.059  12.541
33828W        W  237  44.765  22.909   4.399
33829W        W  238   9.318  38.247  11.297
33830W        W  239  17.413  36.898  10.669
33831W        W  240  35.346  32.599   2.427
33832W        W  241  44.468  37.461  14.994
33833W        W  242  27.543   5.196   2.619
33834W        W  243  30.105  16.148  13.798
33835W        W  244  10.077  35.185   4.877
33836W        W  245  20.159  37.012   1.711
33837W        W  246  36.945   3.345  14.049
33838W        W  247  17.503  17.694   1.760
33839W        W  248  24.238  17.661   2.454
33840W        W  249   4.740  19.691  14.906
33841W        W  250   2.455  23.658   4.589
33842W        W  251  29.057   9.208   0.859
33843W        W  252   3.957  42.486  11.467
33844W        W  253   7.101  42.812   3.222
33845W        W  254  16.069  35.629   4.667
33846W        W  255   5.431   9.537   3.166
33847W        W  256   1.938  14.876   0.433
33848W        W  257  17.636  39.744  13.969
33849W        W  258   1.676  23.316  11.564
33850W        W  259  35.983  41.447   3.733
33851W        W  260  31.194   8.848   2.779
33852W        W  261  34.700  24.084   1.762
33853W        W  262  10.164  23.971  12.302
33854W        W  263  25.670  29.286   4.436
33855W        W  264  15.419   5.631   1.290
33856W        W  265  12.643  21.293  14.979
33857W        W  266   9.552   9.962  13.956
33858W        W  267  32.990   6.544   3.624
33859W        W  268  43.860  33.814   2.533
33860W        W  269   2.113  23.231   4.003
33861W        W  270  25.684  36.903   2.208
33862W        W  271  25.671  32.040  10.174
33863W        W  272  20.874   0.435   2.279
33864W        W  273  24.132  37.575   2.297
33865W        W  274  22.316  36.911   4.644
33866W        W  275  42.133  37.636  14.687
33867W        W  276   1.536  23.720   0.507
33868W        W  277  14.623  23.701  12.879
33869W        W  278  31.613  11.035  12.910
33870W        W  279  38.423  38.619  14.519
33871W        W  280  24.224   1.962  11.148
33872W        W  281  30.695   8.996   1.569
33873W        W  282  35.724  39.462   1.117
33874W        W  283  39.927   3.540   1.509
33875W        W  284  30.911  44.221  13.871
33876W        W  285  17.167  12.925   3.258
33877W        W  286   7.290  35.184   3.608
33878W        W  287  43.607  25.057  12.601
33879W        W  288  38.830  26.957  10.383
33880W        W  289  30.381   4.506   2.901
33881W        W  290   8.053   4.763  14.645
33882W        W  291  19.819   3.996   1.296
33883W        W  292   8.501  29.514   0.338
33884W        W  293  15.272   6.349  14.536
33885W        W  294  18.717  13.872   1.756
33886W        W  295  40.807   2.506  11.012
33887W        W  296   4.200  12.283   4.126
33888W        W  297  40.954  13.471  10.915
33889W        W  298  10.615  14.350   4.282
33890W        W  299   3.740  23.688   3.620
33891W        W  300   2.853  29.141   3.309
33892W        W  301  32.008  21.336  13.555
33893W        W  302   2.216   4.520   4.841
33894W        W  303  44.618  24.627   4.578
33895W        W  304  30.888  12.553  14.373
33896W        W  305  40.465  25.986   1.952
33897W        W  306  31.031  30.010   0.344
33898W        W  307  12.588  29.961  11.200
33899W        W  308  21.127  39.422   4.608
33900W        W  309  39.252  32.127  12.177
33901W        W  310  20.054  14.091  12.691
33902W        W  311  14.770  34.082   3.376
33903W        W  312   1.529   6.917   0.855
33904W        W  313  11.808  31.309  13.908
33905W        W  314   4.748  39.776  14.148
33906W        W  315  10.884   5.665   2.893
33907W        W  316  28.032  23.276   9.732
33908W        W  317  37.544   8.647   2.411
33909W        W  318   4.974  16.721   0.762
33910W        W  319  32.492   7.169  11.702
33911W        W  320  11.723  23.153   4.865
33912W        W  321  19.054  35.191  14.061
33913W        W  322  11.809   5.045  13.453
33914W        W  323   7.666  20.032  13.518
33915W        W  324  22.544   7.677   3.987
33916W        W  325  17.192  33.858  10.808
33917W        W  326  11.229  44.156  11.059
33918W        W  327   8.807  21.196   1.073
33919W        W  328  31.907  35.994  13.571
33920W        W  329  23.056  17.133  10.687
33921W        W  330  44.782  22.358   1.820
33922W        W  331  11.320  37.451  10.428
33923W        W  332  19.051  32.113  13.437
33924W        W  333  44.334  22.786  10.628
33925W        W  334   6.009  35.494   0.444
33926W        W  335  21.098  20.252   2.075
33927W        W  336  16.393  29.874   2.204
33928W        W  337  40.993  40.599   1.211
33929W        W  338  24.437  40.765  11.508
33930W        W  339  36.637   2.306  14.872
33931W        W  340   2.014  27.612  14.786
33932W        W  341   0.503  40.617   2.889
33933W        W  342  15.631  25.497   3.603
33934W        W  343  39.964  41.405  14.045
33935W        W  344  42.869  12.632  14.470
33936W        W  345  10.160  27.129   1.930
33937W        W  346  43.544   8.300   2.740
33938W        W  347   9.232  34.163  14.808
33939W        W  348   2.292   2.773   4.221
33940W        W  349  26.731  21.722   3.254
33941W        W  350   0.897  14.077  10.366
33942W        W  351  18.853  28.263   4.575
33943W        W  352   5.902  21.383  12.411
33944W        W  353  14.146   9.137   1.338
33945W        W  354  38.094  30.341  14.503
33946W        W  355  14.779  12.716   1.193
33947W        W  356   8.039  30.660  12.935
33948W        W  357  15.490  28.365   0.884
33949W        W  358  12.576   9.144   3.583
33950W        W  359   4.858  30.238   2.546
33951W        W  360  35.187  42.983   2.672
33952W        W  361  30.630  19.135  10.731
33953W        W  362  38.526   8.982   2.811
33954W        W  363   6.455  25.006   0.531
33955W        W  364   0.611  28.195  11.119
33956W        W  365  18.540  29.685   3.726
33957W        W  366  31.904  16.716  13.018
33958W        W  367   3.429  12.968  10.293
33959W        W  368  44.954  39.025   0.466
33960W        W  369  15.551  36.381  11.482
33961W        W  370  43.371  16.564   1.271
33962W        W  371   8.224  41.505  10.488
33963W        W  372  32.073   5.984   4.497
33964W        W  373  40.124  25.945   2.904
33965W        W  374   9.348   3.715  11.125
33966W        W  375   1.853  38.645  13.414
33967W        W  376   4.923   4.766   4.542
33968W        W  377  29.149  18.454  13.516
33969W        W  378   8.271  41.827   4.098
33970W        W  379   3.420  38.110  11.115
33971W        W  380  14.705  33.360   1.839
33972W        W  381  33.964  13.348  11.845
33973W        W  382  18.458   1.923   3.219
33974W        W  383  32.731   5.600  11.180
33975W        W  384  44.958  20.138  12.427
33976W        W  385  33.128  21.648   4.336
33977W        W  386   8.218   5.231  12.814
33978W        W  387  39.863  44.394   4.608
33979W        W  388  21.108  31.029  12.600
33980W        W  389  21.601  11.728   0.764
33981W        W  390   9.948  27.161  11.127
33982W        W  391  35.947   4.336   5.207
33983W        W  392  42.237   6.885   3.573
33984W        W  393   9.951  27.969   0.814
33985W        W  394  13.282  19.672   4.946
33986W        W  395   0.829  19.732   4.868
33987W        W  396  12.641  31.106   1.228
33988W        W  397  23.923  13.372   2.327
33989W        W  398  12.201  11.112   4.570
33990W        W  399   2.799  42.254   0.714
33991W        W  400  38.941  12.490  11.621
33992W        W  401  36.344  22.879   3.424
33993W        W  402  26.981  39.442   1.331
33994W        W  403   2.781  32.578   0.956
33995W        W  404  18.015  27.571  13.459
33996W        W  405   2.210  28.722   2.795
33997W        W  406   3.768   3.214   2.148
33998W        W  407  17.317  43.707   0.401
33999W        W  408   6.655  33.442  14.272
34000W        W  409  25.691  27.455   3.345
34001W        W  410  34.026  21.835   0.402
34002W        W  411  41.493  15.864  13.386
34003W        W  412  34.611  14.550  12.993
34004W        W  413   0.774   6.247  11.208
34005W        W  414  22.196  44.902   1.682
34006W        W  415  22.666  13.965  12.870
34007W        W  416   7.431  21.099   4.087
34008W        W  417  29.379  10.474   3.526
34009W        W  418  31.512  22.032   4.196
34010W        W  419  17.467   1.956  14.403
34011W        W  420  22.247  10.869   2.337
34012W        W  421  21.154  40.864   2.378
34013W        W  422  32.526   1.388  13.942
34014W        W  423  29.044  20.384  11.518
34015W        W  424  10.156  14.227   4.124
34016W        W  425  25.209  43.476  14.521
34017W        W  426  17.215  40.483   4.049
34018W        W  427  41.401   0.727  14.425
34019W        W  428  25.999  29.012   2.361
34020W        W  429   2.199   2.341  11.174
34021W        W  430  31.082   5.558  11.408
34022W        W  431   1.905   2.799   2.360
34023W        W  432  28.701  19.290   3.160
34024W        W  433   8.866  42.894   0.437
34025W        W  434  40.349  42.956   3.091
34026W        W  435  21.689  31.734  10.827
34027W        W  436   9.556  11.252  11.545
34028W        W  437   4.149   7.586  11.614
34029W        W  438  29.953  24.332  10.691
34030W        W  439  12.799  14.143  10.762
34031W        W  440  20.686  34.138  13.796
34032W        W  441   6.528   1.869   4.782
34033W        W  442  35.117  12.817  12.068
34034W        W  443  13.150  19.322  14.082
34035W        W  444  10.541  39.258   4.901
34036W        W  445  31.016  31.558   3.074
34037W        W  446  36.416  16.065  14.194
34038W        W  447  38.636  18.055  12.360
34039W        W  448   7.356  30.664   2.831
34040W        W  449  29.958  37.800  13.793
34041W        W  450  32.097  14.617  12.522
34042W        W  451  34.198   6.721  12.638
34043W        W  452   9.188  37.807   4.126
34044W        W  453  22.578  36.702  13.500
34045W        W  454  36.840   3.402   3.742
34046W        W  455  32.780  16.637   4.633
34047W        W  456  25.109  32.131  12.615
34048W        W  457  41.497  10.489   0.245
34049W        W  458  34.692  34.094   2.325
34050W        W  459  11.948  18.738   4.529
34051W        W  460  42.037  30.608   1.343
34052W        W  461  34.570   9.861  14.495
34053W        W  462  16.843  35.397   4.606
34054W        W  463  19.103  31.578  13.897
34055W        W  464   7.210   9.966  13.745
34056W        W  465  39.622  32.418   1.882
34057W        W  466  42.046   9.718   3.501
34058W        W  467  27.970  31.563   1.316
34059W        W  468  37.375  33.878  14.414
34060W        W  469  33.021   3.470  14.834
34061W        W  470  11.521  24.508  12.970
34062W        W  471  20.928  27.564   3.741
34063W        W  472  24.784  24.775   1.478
34064W        W  473  25.001  26.771   2.696
34065W        W  474   1.918  32.463   1.853
34066W        W  475  31.936  35.891   3.241
34067W        W  476   4.430  24.918  14.581
34068W        W  477  36.264   0.175   4.224
34069W        W  478  30.374  21.968   1.331
34070W        W  479  32.132  43.277   2.427
34071W        W  480  12.832  43.975   3.812
34072W        W  481  20.490  14.658  11.066
34073W        W  482   1.950  32.486   2.801
34074W        W  483  44.289  40.966  11.540
34075W        W  484  43.295   7.625   0.749
34076W        W  485  36.009  39.314  14.830
34077W        W  486  13.071  32.363   4.578
34078W        W  487  42.289  19.576  13.821
34079W        W  488   1.951  24.172  14.923
34080W        W  489  35.896   3.365   3.375
34081W        W  490  16.314   5.933  14.784
34082W        W  491  16.729  24.029   2.940
34083W        W  492  14.787  27.227  12.007
34084W        W  493  15.778  27.473   1.878
34085W        W  494  38.981  24.043   2.284
34086W        W  495   3.192  43.064   3.768
34087W        W  496  25.919  34.152  12.386
34088W        W  497  24.579   8.152  10.480
34089W        W  498  13.390  12.733  12.834
34090W        W  499  14.615  41.401   0.674
34091W        W  500  11.012  18.687   4.238
34092W        W  501   5.800  34.010  13.047
34093W        W  502   2.773  39.570   3.292
34094W        W  503  36.355  14.736  11.038
34095W        W  504  20.525  26.741   3.357
34096W        W  505  28.927  34.693  11.043
34097W        W  506  16.099  10.922  11.584
34098W        W  507  22.317  21.781   5.011
34099W        W  508  26.456   2.774   3.918
34100W        W  509  18.217  15.931  12.392
34101W        W  510  23.741  28.968  11.939
34102W        W  511   3.696  33.566  13.021
34103W        W  512   3.048   8.952  12.000
34104W        W  513  22.284  33.904  14.475
34105W        W  514  33.494  32.920  14.094
34106W        W  515  34.626  39.315   3.918
34107W        W  516  20.156  37.005  14.840
34108W        W  517  24.311  15.349  11.480
34109W        W  518   1.241   3.544   3.285
34110W        W  519  30.180  18.745  14.490
34111W        W  520  23.214  35.938   1.232
34112W        W  521  11.889  29.958  12.050
34113W        W  522  26.698  40.875  10.577
34114W        W  523  39.054  35.416  10.686
34115W        W  524  13.694  13.444  11.205
34116W        W  525  41.872   1.950   3.831
34117W        W  526  23.675  30.119  13.377
34118W        W  527  15.985   4.630  13.638
34119W        W  528  41.422  26.458   0.955
34120W        W  529  35.084   1.342   5.016
34121W        W  530   6.067   1.957   0.487
34122W        W  531  40.987  26.082  14.962
34123W        W  532   7.801  28.258  11.495
34124W        W  533  16.842  41.387  10.459
34125W        W  534  14.313  14.780  14.432
34126W        W  535  23.021  30.001   3.819
34127W        W  536  10.220   5.297   0.412
34128W        W  537  20.772  35.046  13.989
34129W        W  538   0.776  15.599   3.631
34130W        W  539   0.481   4.497  13.021
34131W        W  540  39.424  11.026   0.361
34132W        W  541  28.105  31.908   2.814
34133W        W  542  13.603  31.529   4.816
34134W        W  543  16.316   0.254   4.865
34135W        W  544  16.210  19.797  14.453
34136W        W  545  31.100  39.328   0.372
34137W        W  546  14.201  42.314   4.953
34138W        W  547  43.418  18.080   0.280
34139W        W  548  12.668  16.755  14.078
34140W        W  549  20.661  25.007   3.339
34141W        W  550  15.595  13.756  13.377
34142W        W  551  35.705  39.711  11.095
34143W        W  552  25.639  31.614   1.322
34144W        W  553  22.048  38.416  13.903
34145W        W  554  25.728  34.329   1.292
34146W        W  555  39.480  38.637  14.363
34147W        W  556  18.152   7.379  13.817
34148W        W  557  15.783  36.397   2.607
34149W        W  558  24.474  28.501  13.869
34150W        W  559   0.359   8.211   3.456
34151W        W  560  37.638  11.777  14.942
34152W        W  561   9.155   8.310   1.891
34153W        W  562  15.078  44.843   1.036
34154W        W  563  21.139  25.901  14.229
34155W        W  564   5.208  24.511  13.938
34156W        W  565  22.240   4.867  11.992
34157W        W  566  26.631   1.739   2.273
34158W        W  567   0.031  28.863   1.943
34159W        W  568  28.991  17.662  12.875
34160W        W  569  21.456  17.704  11.626
34161W        W  570  32.165   3.811   0.870
34162W        W  571  10.313  11.928  12.482
34163W        W  572  22.945  42.871   4.047
34164W        W  573  32.358  24.037   1.765
34165W        W  574  35.784  19.723  13.498
34166W        W  575  17.984   0.226   1.866
34167W        W  576  39.313  13.843  13.983
34168W        W  577   5.794  42.342   3.374
34169W        W  578  26.439  30.316   2.892
34170W        W  579  30.755  30.318   1.213
34171W        W  580   4.491   4.327  14.707
34172W        W  581  11.147   1.357  14.297
34173W        W  582  36.040   6.927  13.897
34174W        W  583  25.409  14.716   2.762
34175W        W  584  26.163   0.400   2.494
34176W        W  585  36.188  33.042   1.230
34177W        W  586  28.825  15.205  14.047
34178W        W  587   4.751  36.691   3.261
34179W        W  588   3.404  22.105   0.479
34180W        W  589   6.362  37.838  13.015
34181W        W  590  41.025  44.270   0.373
34182W        W  591   1.905  12.061  12.359
34183W        W  592  19.815  38.279   0.298
34184W        W  593   7.664  42.523   0.267
34185W        W  594   4.761  39.374  11.452
34186W        W  595   0.671  35.662  13.402
34187W        W  596  14.411  26.764  14.751
34188W        W  597  33.692  38.592   1.638
34189W        W  598  44.271  30.092   4.815
34190W        W  599  28.263  37.429  10.287
34191W        W  600  38.598  19.083  10.243
34192W        W  601  26.483  28.596   0.237
34193W        W  602  41.508  36.154  13.926
34194W        W  603  33.122  34.160  12.556
34195W        W  604  44.736  12.711   4.315
34196W        W  605  41.634  29.517  13.809
34197W        W  606  43.879  29.367  13.940
34198W        W  607  27.594  17.810   2.805
34199W        W  608  37.387   5.202  12.308
34200W        W  609  20.134   9.108   4.856
34201W        W  610  29.861  19.197   0.022
34202W        W  611  37.525  42.441   4.802
34203W        W  612  16.656  42.401   3.356
34204W        W  613   3.230  36.171  10.825
34205W        W  614  25.491  25.753  10.142
34206W        W  615  14.798  40.593  14.204
34207W        W  616   2.889  24.804   3.949
34208W        W  617  17.607  23.072  13.435
34209W        W  618  23.508  20.312   2.248
34210W        W  619  41.602   4.706  14.970
34211W        W  620  15.432  25.408   0.547
34212W        W  621  41.777  24.875   0.624
34213W        W  622   6.072  18.635  13.628
34214W        W  623  23.721  25.577  12.636
34215W        W  624  16.694  21.622   2.517
34216W        W  625  16.724  40.099  12.093
34217W        W  626  29.394  34.410   4.060
34218W        W  627   7.710  42.266  10.811
34219W        W  628   1.262  40.235  12.990
34220W        W  629  41.513  19.097  10.658
34221W        W  630  11.708  24.771  13.394
34222W        W  631  40.223  22.196   2.743
34223W        W  632  10.163   2.883   1.251
34224W        W  633  35.239  17.137   4.081
34225W        W  634  17.628  12.683   3.963
34226W        W  635  13.909  19.260  10.307
34227W        W  636  34.990  12.735   2.399
34228W        W  637   6.405  22.385   5.400
34229W        W  638  25.466  32.087  10.659
34230W        W  639   3.494  15.554   4.660
34231W        W  640  34.558   3.238  14.437
34232W        W  641  36.584  17.157  12.123
34233W        W  642  32.434  33.508  13.320
34234W        W  643  30.623  10.550   0.669
34235W        W  644  38.109   0.076   1.524
34236W        W  645  23.158  16.375  13.089
34237W        W  646  26.005  34.130  11.349
34238W        W  647  31.140  17.002   0.433
34239W        W  648  23.204  36.392  14.978
34240W        W  649  20.310   7.945  12.077
34241W        W  650  31.473  11.651   0.956
34242W        W  651  10.935  12.856  14.923
34243W        W  652  11.575   6.391   2.661
34244W        W  653   9.395  16.298  10.439
34245W        W  654  14.667  26.593  10.622
34246W        W  655  34.889  32.962  11.217
34247W        W  656  43.115  10.203  11.112
34248W        W  657  38.910   5.327   3.223
34249W        W  658  16.664  39.090   5.094
34250W        W  659  35.845  11.774  13.448
34251W        W  660  12.286   2.916   0.944
34252W        W  661   0.538  33.290  11.650
34253W        W  662  36.866   2.623   0.799
34254W        W  663  17.927  11.176  11.678
34255W        W  664  16.031   9.374   1.489
34256W        W  665  23.790  23.043  12.906
34257W        W  666   1.039  33.471   2.905
34258W        W  667   0.007  16.695   1.198
34259W        W  668  26.688   6.483  13.521
34260W        W  669  18.984  15.886   2.337
34261W        W  670   1.777  32.084  11.440
34262W        W  671  18.083  41.788   0.516
34263W        W  672  33.601   0.119  12.179
34264W        W  673  28.378  34.530   0.959
34265W        W  674   3.521  27.077   0.711
34266W        W  675  34.023  40.150  11.141
34267W        W  676  29.839   9.654  10.004
34268W        W  677  29.613   0.592  14.306
34269W        W  678  34.995  17.349  12.402
34270W        W  679  30.275  37.935  14.967
34271W        W  680  16.652  31.760   0.365
34272W        W  681  10.149  43.470  12.831
34273W        W  682   9.371   3.477   3.655
34274W        W  683   4.694   7.725   4.550
34275W        W  684  36.752  11.128   3.084
34276W        W  685  34.030   7.701   4.745
34277W        W  686  20.237  13.534  12.858
34278W        W  687  26.955  30.394  13.999
34279W        W  688  44.504  36.045  13.718
34280W        W  689  31.024  22.912   4.485
34281W        W  690  11.407  12.407   2.750
34282W        W  691  23.190  32.800   2.357
34283W        W  692   4.457  31.452   2.106
34284W        W  693  21.132  36.535   2.653
34285W        W  694  25.883  31.202  13.225
34286W        W  695  23.134  23.293   0.818
34287W        W  696  11.088  37.482  11.421
34288W        W  697  31.594  11.149   0.864
34289W        W  698  15.344  18.079  10.301
34290W        W  699  42.424  29.602   4.378
34291W        W  700  35.516  19.619  11.492
34292W        W  701  39.176  22.220  14.443
34293W        W  702  19.889   5.124   0.931
34294W        W  703  14.548  18.827  12.776
34295W        W  704  20.670  13.451  11.839
34296W        W  705  14.646  39.063   0.323
34297W        W  706  18.513  40.656   3.223
34298W        W  707  41.648   5.755   3.798
34299W        W  708  42.961   9.416  11.681
34300W        W  709  35.608  17.200  10.712
34301W        W  710  24.097  30.370   0.974
34302W        W  711  17.952  16.564   0.508
34303W        W  712  44.807  41.431   1.866
34304W        W  713  24.532  22.049  13.917
34305W        W  714   9.930  32.555  12.046
34306W        W  715  43.365  34.164  13.853
34307W        W  716  25.946  38.668   0.845
34308W        W  717  16.847  23.518  12.612
34309W        W  718   6.305   1.298  10.300
34310W        W  719  32.426   6.459   4.297
34311W        W  720   7.058  44.926   2.759
34312W        W  721  35.565  30.189   4.726
34313W        W  722  25.582  41.207  11.937
34314W        W  723  24.256  24.032   1.278
34315W        W  724  10.703  33.323  13.356
34316W        W  725  35.006  12.378  13.293
34317W        W  726  34.619   1.852  10.594
34318W        W  727   9.705  26.595   3.200
34319W        W  728  27.009  43.511   4.735
34320W        W  729  32.704  13.750   4.699
34321W        W  730   3.637   7.791   3.227
34322W        W  731  44.211  24.693  13.742
34323W        W  732  43.367  36.034   0.512
34324W        W  733  36.355  10.330   3.134
34325W        W  734  16.798  36.829  11.475
34326W        W  735   2.967   6.798  13.831
34327W        W  736  25.431  29.081   1.665
34328W        W  737  35.401  44.368  12.880
34329W        W  738  16.692  38.013   2.068
34330W        W  739   6.157  17.152  12.116
34331W        W  740  31.513  10.954   0.322
34332W        W  741  37.546  18.293  11.637
34333W        W  742  19.699   6.836   1.590
34334W        W  743  19.783   0.961   4.265
34335W        W  744  12.536   0.334   0.319
34336W        W  745  41.540  30.675   0.021
34337W        W  746  37.460   2.572  13.965
34338W        W  747  41.166   2.293   1.489
34339W        W  748  14.222  43.688  12.672
34340W        W  749   6.174   7.890  11.544
34341W        W  750   6.399  25.565  13.929
34342W        W  751  28.702  39.988   2.699
34343W        W  752  26.963   0.977  14.392
34344W        W  753  38.384  29.715   1.249
34345W        W  754  43.506   7.633   4.114
34346W        W  755   5.872  42.967  12.412
34347W        W  756  43.769  14.701   1.737
34348W        W  757   3.937  35.334   1.264
34349W        W  758  41.001  41.815  13.121
34350W        W  759  29.782  34.534   3.709
34351W        W  760  41.293  21.731   2.268
34352W        W  761  14.500  14.270  10.701
34353W        W  762   3.385  16.494   1.322
34354W        W  763  24.896  14.732   2.836
34355W        W  764  41.942   4.905   2.855
34356W        W  765  39.382  24.449   2.844
34357W        W  766  18.706   5.954   0.325
34358W        W  767  27.216  12.422  14.471
34359W        W  768   0.741   4.398   4.715
34360W        W  769   4.269   2.000   4.511
34361W        W  770  32.554   5.263   3.851
34362W        W  771  21.652   9.320   2.308
34363W        W  772  22.194  12.277   0.822
34364W        W  773   5.379  36.129  14.579
34365W        W  774   8.843   2.397  14.948
34366W        W  775  38.404   4.335   1.378
34367W        W  776   0.121  44.158   0.780
34368W        W  777  26.717   4.390  12.983
34369W        W  778  32.856  31.496   4.076
34370W        W  779  37.323  36.393   3.717
34371W        W  780   6.560  24.650   1.885
34372W        W  781   0.341  41.800  12.473
34373W        W  782   8.814  19.337   0.239
34374W        W  783   9.280  40.830   2.182
34375W        W  784  29.279  30.091   2.347
34376W        W  785  34.758  10.318  14.332
34377W        W  786  38.992  39.475   1.194
34378W        W  787  37.040  20.378   3.745
34379W        W  788   1.869  14.362  10.555
34380W        W  789  18.946  11.789   0.970
34381W        W  790  35.442  35.396  14.026
34382W        W  791  22.132   7.815  13.279
34383W        W  792  21.297  44.685  14.950
34384W        W  793  40.071  19.784   1.368
34385W        W  794   9.960   5.734  14.385
34386W        W  795   5.553  20.875  10.596
34387W        W  796  19.557  20.625  11.969
34388W        W  797  37.621   9.847  12.512
34389W        W  798  27.177  27.687   0.808
34390W        W  799   7.766  12.470  12.381
34391W        W  800  37.410  37.037   2.901
34392W        W  801   6.477  26.412   1.488
34393W        W  802   5.423  11.214  13.796
34394W        W  803   0.849  34.583   4.609
34395W        W  804  35.373  38.640   0.869
34396W        W  805  22.142  37.532  11.544
34397W        W  806   1.273  35.819  11.090
34398W        W  807  43.959  33.962  14.804
34399W        W  808  24.165  17.720   4.877
34400W        W  809  33.416  43.313  14.758
34401W        W  810  43.541  15.846  12.257
34402W        W  811  38.457  21.239   2.383
34403W        W  812  44.672   6.869   1.858
34404W        W  813   2.652   4.423   0.804
34405W        W  814  18.890  34.536   1.765
34406W        W  815   4.671  26.646  11.498
34407W        W  816  17.840  36.077   2.996
34408W        W  817  33.551  18.718   4.985
34409W        W  818   7.818   3.866  11.580
34410W        W  819  18.010  17.716  12.540
34411W        W  820   6.955  36.962  14.802
34412W        W  821   3.776  20.234   1.057
34413W        W  822  15.255  22.809   4.546
34414W        W  823  42.915   0.335  12.635
34415W        W  824  34.235   0.135  11.929
34416W        W  825   9.235  42.095   2.110
34417W        W  826  27.096  11.065   1.731
34418W        W  827  16.767  27.202   4.457
34419W        W  828  31.132  37.951  12.500
34420W        W  829   5.094  11.324  12.862
34421W        W  830  25.232  29.251   4.144
34422W        W  831  11.755  26.170  13.762
34423W        W  832  39.055  36.929   4.660
34424W        W  833  12.136  25.767   1.419
34425W        W  834   4.976  17.376  11.620
34426W        W  835  30.560  32.639  12.688
34427W        W  836   9.783  25.332  11.148
34428W        W  837   1.835  10.166   1.579
34429W        W  838   4.844  44.709  10.761
34430W        W  839  20.541   0.066   0.405
34431W        W  840  41.380  38.045  12.855
34432W        W  841   9.621  29.906   0.355
34433W        W  842  19.214  25.185   3.235
34434W        W  843   1.636  27.136  11.474
34435W        W  844   6.894  25.461   1.622
34436W        W  845  39.319  34.379   4.682
34437W        W  846   3.957  40.469  13.105
34438W        W  847  44.884  40.324   2.689
34439W        W  848  20.069   2.399  12.923
34440W        W  849  21.986   6.865  11.753
34441W        W  850  44.461  22.837   2.105
34442W        W  851  34.126  23.100   0.712
34443W        W  852   3.304  10.197   0.716
34444W        W  853  18.753   5.171  14.786
34445W        W  854   6.911  22.017   4.105
34446W        W  855   7.429  38.935  12.385
34447W        W  856  37.950  39.989  12.554
34448W        W  857  22.358  29.616   4.409
34449W        W  858  19.193  27.170  13.403
34450W        W  859  22.549  36.031   4.109
34451W        W  860  24.285  44.198   5.042
34452W        W  861  40.964  32.857   0.893
34453W        W  862  12.975  18.253   2.433
34454W        W  863  31.073  26.921  12.899
34455W        W  864  15.100   9.910  11.088
34456W        W  865  28.745  22.643  11.540
34457W        W  866  24.590   9.240  12.963
34458W        W  867  26.999  34.189   3.283
34459W        W  868   1.242  39.479   2.842
34460W        W  869  17.687   3.704   3.755
34461W        W  870  32.442  21.359  11.636
34462W        W  871  40.494  24.981   4.407
34463W        W  872  29.668  11.200   0.767
34464W        W  873  32.993  36.513   4.447
34465W        W  874  29.947  31.843  12.057
34466W        W  875  28.359   1.327   4.191
34467W        W  876  21.176  32.536  10.582
34468W        W  877  42.346  24.719   2.408
34469W        W  878  40.873  22.545  10.577
34470W        W  879   4.789  15.022   1.273
34471W        W  880  32.870  27.561  13.939
34472W        W  881  31.962  25.442   0.745
34473W        W  882  39.639  21.670  13.718
34474W        W  883  21.975  19.035   3.166
34475W        W  884  39.854  10.188  14.944
34476W        W  885  42.780   4.481  13.263
34477W        W  886  32.179   5.682   1.294
34478W        W  887   0.524  38.951  14.378
34479W        W  888   5.811  19.577   4.904
34480W        W  889  28.071  24.105   3.331
34481W        W  890  30.470  28.248   3.233
34482W        W  891  15.265   2.210  12.705
34483W        W  892   0.020  34.624   3.547
34484W        W  893   3.581  36.215   2.676
34485W        W  894  10.106  44.742   2.616
34486W        W  895  17.618  34.038   4.638
34487W        W  896   9.322  42.071  12.561
34488W        W  897  22.077  43.160  13.457
34489W        W  898  21.952  11.644  14.283
34490W        W  899  44.848  20.684  12.546
34491W        W  900  39.798  32.009   4.692
34492W        W  901  29.702  19.145  13.866
34493W        W  902  41.779  34.193   3.804
34494W        W  903  20.035  42.237   0.635
34495W        W  904  23.617  44.723  11.306
34496W        W  905  17.876  16.098   3.815
34497W        W  906  29.528   4.322   0.931
34498W        W  907   2.253  12.287   3.855
34499W        W  908  40.468   0.917  10.811
34500W        W  909  19.949   6.453   4.177
34501W        W  910  32.108  32.006   4.933
34502W        W  911  19.808   4.950   2.816
34503W        W  912  18.193  14.568  13.792
34504W        W  913   0.312  44.888   3.873
34505W        W  914  35.361  40.278   1.908
34506W        W  915  32.456  37.102  12.995
34507W        W  916   8.335  29.922   2.127
34508W        W  917  19.647  26.572   0.527
34509W        W  918  33.913  23.100   2.074
34510W        W  919   1.934  25.561  14.561
34511W        W  920   0.319  16.360   4.556
34512W        W  921  33.526  44.269  13.823
34513W        W  922   1.168  43.460  10.929
34514W        W  923  25.484  24.556  12.596
34515W        W  924   4.398  19.889   3.715
34516W        W  925  31.160  35.054  10.723
34517W        W  926  26.900   0.052   4.948
34518W        W  927  21.251   5.169  12.079
34519W        W  928  25.000   4.838  14.389
34520W        W  929  12.297  24.641  14.327
34521W        W  930   6.979  27.144  13.777
34522W        W  931  19.215   5.684   1.147
34523W        W  932  34.437   3.891   2.617
34524W        W  933  11.863   4.345  10.199
34525W        W  934   6.919  26.420  12.507
34526W        W  935  22.937  26.764  11.165
34527W        W  936  23.206   9.315  12.767
34528W        W  937  21.539  18.029   1.692
34529W        W  938  43.762  12.291  14.038
34530W        W  939  16.029  42.257   2.344
34531W        W  940  44.768  17.738   1.862
34532W        W  941   2.441  11.694  13.934
34533W        W  942  42.290   2.824   3.290
34534W        W  943  19.596  17.100   0.752
34535W        W  944  36.820  21.212   4.170
34536W        W  945  14.254  12.422  14.966
34537W        W  946  20.290   9.595  10.958
34538W        W  947  10.836  17.477  10.757
34539W        W  948  43.552  36.875  13.824
34540W        W  949  27.965  43.848  10.680
34541W        W  950   4.309  34.546   2.753
34542W        W  951  29.146  10.756   4.114
34543W        W  952  41.300  32.467  12.167
34544W        W  953  20.805  29.397   0.335
34545W        W  954  43.996  19.458   1.302
34546W        W  955  44.930  15.636  12.410
34547W        W  956  10.892  26.559   2.867
34548W        W  957  35.106  33.915   4.278
34549W        W  958   8.088   3.023   2.298
34550W        W  959   4.165  36.804  13.405
34551W        W  960  19.811  14.848   0.146
34552W        W  961  22.082  23.913   1.955
34553W        W  962   5.578  10.143   4.181
34554W        W  963  13.072  15.784  13.408
34555W        W  964  44.815  17.209  11.367
34556W        W  965  30.485  29.574   3.468
34557W        W  966  19.708   0.849   2.812
34558W        W  967  34.652  13.086  14.121
34559W        W  968  32.108  28.704   4.648
34560W        W  969  28.576  16.832  11.986
34561W        W  970   1.113   2.375   4.066
34562W        W  971  28.143  10.880   1.970
34563W        W  972  12.765  41.312   3.150
34564W        W  973  20.223  25.421   4.569
34565W        W  974   7.203  13.276  11.598
34566W        W  975  18.523   3.669  14.795
34567W        W  976  29.799  28.440   2.894
34568W        W  977  24.801  42.892   3.516
34569W        W  978  39.417   5.056   4.064
34570W        W  979  25.572  31.437  11.371
34571W        W  980  30.118   5.961  11.768
34572W        W  981  25.539   8.158   4.650
34573W        W  982  14.320  31.633   2.281
34574W        W  983   8.911  29.938  12.126
34575W        W  984  28.215  13.745  14.036
34576W        W  985  14.050  17.760   0.921
34577W        W  986  12.333  26.746   3.699
34578W        W  987  20.735  39.146  10.406
34579W        W  988  36.039  40.730   0.267
34580W        W  989   9.593   9.652  12.983
34581W        W  990  14.101  39.123  14.831
34582W        W  991  24.103  38.887   3.122
34583W        W  992  27.264  11.652  10.596
34584W        W  993   9.676  21.326   0.823
34585W        W  994  12.882  16.607  10.888
34586W        W  995  13.179  32.758  10.058
34587W        W  996  41.353  33.996  12.172
34588W        W  997  20.414   4.489  14.321
34589W        W  998  32.002   5.432   1.727
34590W        W  999   9.089  40.232   4.544
34591W        W 1000  35.274  44.349   1.766
34592W        W 1001  43.845  36.009   3.095
34593W        W 1002  44.680   5.309   4.666
34594W        W 1003  13.016  44.219  14.921
34595W        W 1004  42.814  19.614   4.172
34596W        W 1005  33.825   1.517  11.956
34597W        W 1006  34.151  27.591   3.270
34598W        W 1007  20.366  37.890   0.772
34599W        W 1008  24.275  33.089  13.034
34600W        W 1009  27.934  36.603   1.851
34601W        W 1010  18.563   7.446  13.525
34602W        W 1011  10.816  30.530  13.334
34603W        W 1012  25.427  24.824  10.239
34604W        W 1013  15.584  30.804  10.285
34605W        W 1014  29.384  37.064  14.368
34606W        W 1015  36.511   4.452   1.815
34607W        W 1016  44.400   5.820  10.605
34608W        W 1017  42.165  39.582   2.624
34609W        W 1018  40.014   4.254   4.504
34610W        W 1019   4.208  12.709   2.710
34611W        W 1020   2.420   4.004   1.669
34612W        W 1021  33.050  44.078   4.099
34613W        W 1022   4.930  42.480   4.509
34614W        W 1023  12.383  35.021  10.990
34615W        W 1024  29.865  11.161  11.075
34616W        W 1025  35.951  32.108  11.950
34617W        W 1026  41.962  19.656   4.796
34618W        W 1027   3.012  12.422   2.254
34619W        W 1028  12.692  42.991   1.390
34620W        W 1029  10.210  22.081  12.038
34621W        W 1030  14.926  40.355   4.134
34622W        W 1031  27.947  42.390  12.527
34623W        W 1032   6.455  33.190   0.633
34624W        W 1033   2.350  35.370  14.796
34625W        W 1034   1.463  35.172  14.356
34626W        W 1035  41.955  37.842  12.561
34627W        W 1036  29.130  31.336   1.743
34628W        W 1037  13.884  25.445   0.844
34629W        W 1038   7.817   0.804  10.614
34630W        W 1039  37.378   3.734  11.943
34631W        W 1040  27.396  15.233   2.352
34632W        W 1041  35.871  11.936   0.338
34633W        W 1042  12.269  36.604   0.360
34634W        W 1043  20.501   0.990   1.314
34635W        W 1044   5.741  12.901   1.893
34636W        W 1045  25.893  14.236  11.533
34637W        W 1046  40.885   9.228   3.081
34638W        W 1047  17.380  42.309  12.085
34639W        W 1048   9.467  32.574  14.439
34640W        W 1049  13.692   3.627  14.753
34641W        W 1050  15.370  17.200  10.891
34642W        W 1051  21.542  14.817   1.983
34643W        W 1052  29.420   3.795  11.421
34644W        W 1053  12.625  31.991  13.002
34645W        W 1054  42.312  33.505  13.431
34646W        W 1055  17.462   5.734  13.461
34647W        W 1056  20.257  31.389  12.997
34648W        W 1057  29.444  37.763   3.183
34649W        W 1058  29.063  35.087   2.776
34650W        W 1059   8.717  38.035   4.150
34651W        W 1060  26.199  19.393  10.302
34652W        W 1061   9.224   8.147   4.109
34653W        W 1062  11.186  40.414  13.462
34654W        W 1063  18.565   6.822  13.093
34655W        W 1064  31.414  31.206   0.368
34656W        W 1065  27.066  42.624   2.838
34657W        W 1066  34.329   4.741  14.415
34658W        W 1067  24.071   6.040   4.510
34659W        W 1068  39.700  34.465   1.741
34660W        W 1069   1.984   6.906  12.896
34661W        W 1070  41.428   8.378  11.881
34662W        W 1071  25.494  32.098   0.395
34663W        W 1072  15.310  20.469   4.537
34664W        W 1073  14.218  23.406   2.043
34665W        W 1074  24.235  38.742  10.451
34666W        W 1075  13.578  42.459  13.937
34667W        W 1076   2.693   2.395  14.827
34668W        W 1077  32.899  27.232  10.462
34669W        W 1078   7.746  38.531   2.220
34670W        W 1079  28.138  41.799  14.296
34671W        W 1080  28.313   3.283   3.153
34672W        W 1081   6.727  38.547   0.925
34673W        W 1082  10.159  18.194  12.199
34674W        W 1083   5.971  37.639   1.231
34675W        W 1084  41.059  32.497  14.492
34676W        W 1085  29.149   1.945  11.640
34677W        W 1086  24.607  19.605   1.313
34678W        W 1087  30.532  13.301  14.666
34679W        W 1088  37.794  35.377  12.441
34680W        W 1089  26.858  12.865   4.736
34681W        W 1090  23.479  42.745   0.311
34682W        W 1091   3.711  19.771   0.813
34683W        W 1092   4.630  22.507   2.233
34684W        W 1093  28.094   6.868   1.668
34685W        W 1094  17.716  35.055   0.563
34686W        W 1095  27.742  35.352   1.556
34687W        W 1096  30.649  40.871  11.658
34688W        W 1097  23.168  32.536  12.359
34689W        W 1098  27.814  23.164   2.341
34690W        W 1099  44.818  27.008  10.461
34691W        W 1100  42.824  41.335   4.811
34692W        W 1101  11.914  12.457   9.895
34693W        W 1102  39.068  14.949   3.091
34694W        W 1103  22.726  26.472  12.131
34695W        W 1104  39.693  19.088   0.832
34696W        W 1105  37.121  26.154   2.429
34697W        W 1106  29.641  13.259   2.331
34698W        W 1107  33.602  17.389   4.750
34699W        W 1108   2.775  36.892   2.197
34700W        W 1109  15.264   4.053  13.453
34701W        W 1110  36.451   4.943  10.071
34702W        W 1111   5.115  22.275  13.843
34703W        W 1112  39.042  30.563  10.702
34704W        W 1113   6.323  14.103  13.833
34705W        W 1114  44.895  42.464   1.712
34706W        W 1115  31.681  17.033   0.482
34707W        W 1116  28.974  20.625   4.618
34708W        W 1117  41.345  19.913  14.622
34709W        W 1118   5.793   9.334   3.816
34710W        W 1119  32.189  28.801   1.305
34711W        W 1120  10.623  24.238  13.986
34712W        W 1121  35.481  13.325  11.886
34713W        W 1122  27.374  16.876   2.775
34714W        W 1123   7.301  36.258  11.524
34715W        W 1124   3.002  34.117  11.229
34716W        W 1125  44.513   6.320  11.382
34717W        W 1126  27.556  22.801   4.469
34718W        W 1127   8.880  36.860  12.966
34719W        W 1128  20.714   4.376  13.312
34720W        W 1129  18.764  17.639  12.154
34721W        W 1130   6.038  37.249   2.469
34722W        W 1131  29.029  13.997   3.106
34723W        W 1132  12.707  31.385   0.360
34724W        W 1133  28.484  40.119   0.545
34725W        W 1134   9.331  19.049   1.897
34726W        W 1135  11.859  19.147  14.919
34727W        W 1136   6.154  36.415  14.907
34728W        W 1137  13.611  25.698  10.443
34729W        W 1138   4.898  16.227  12.888
34730W        W 1139  44.809  22.564   4.014
34731W        W 1140  16.680   7.682  10.724
34732W        W 1141  31.071   4.217   1.473
34733W        W 1142  43.259   2.777   2.400
34734W        W 1143   1.285   6.674  14.501
34735W        W 1144   2.002   3.832  10.764
34736W        W 1145  14.546  17.936  11.951
34737W        W 1146  13.138   0.223   3.329
34738W        W 1147  27.855  39.957  12.998
34739W        W 1148  40.138   4.545   4.067
34740W        W 1149  34.052  19.814   3.998
34741W        W 1150  40.475   2.203   2.753
34742W        W 1151   7.902  18.226  10.325
34743W        W 1152  14.662  44.355  13.895
34744W        W 1153  19.592  36.414   1.849
34745W        W 1154  18.017  37.398  12.995
34746W        W 1155  34.983  19.747   1.417
34747W        W 1156  25.140  35.943   1.843
34748W        W 1157   8.284  21.033   2.816
34749W        W 1158  10.412   6.858  11.027
34750W        W 1159  32.632  28.600  13.377
34751W        W 1160  40.016   9.787   2.186
34752W        W 1161  24.303  34.571   2.115
34753W        W 1162  40.265  15.232  14.296
34754W        W 1163   6.254  10.345   4.676
34755W        W 1164  33.527  14.877  14.294
34756W        W 1165  16.203  41.870   9.985
34757W        W 1166  44.801  35.176  10.677
34758W        W 1167  42.597  10.636  14.662
34759W        W 1168   7.451  31.608  10.850
34760W        W 1169   6.406  19.612  13.496
34761W        W 1170  15.648  16.238  12.639
34762W        W 1171  36.270  11.670   1.498
34763W        W 1172  20.060   7.142   3.353
34764W        W 1173  38.400  15.551   4.878
34765W        W 1174  42.209   4.833   2.410
34766W        W 1175  34.431  17.424   1.177
34767W        W 1176   3.863  11.380   4.172
34768W        W 1177  13.374  39.239  14.024
34769W        W 1178  40.809  18.797   2.803
34770W        W 1179   4.584  34.871  13.709
34771W        W 1180  30.543   6.821  14.660
34772W        W 1181  21.810   9.379  13.775
34773W        W 1182   5.460  22.162  13.481
34774W        W 1183  38.289  33.686  14.658
34775W        W 1184  38.280  34.928  13.573
34776W        W 1185  43.726   4.770   3.198
34777W        W 1186  41.121  37.146   4.152
34778W        W 1187  33.165  19.053  11.435
34779W        W 1188  22.639  43.665   1.858
34780W        W 1189  17.286  44.273   3.257
34781W        W 1190  43.260  21.647   0.990
34782W        W 1191  38.377   4.336   3.699
34783W        W 1192   4.794   5.295  12.868
34784W        W 1193  28.513  19.363  12.076
34785W        W 1194  23.662  18.752   1.295
34786W        W 1195  34.455  10.910   3.114
34787W        W 1196  14.972  33.124   3.608
34788W        W 1197   7.916  39.312  11.454
34789W        W 1198  29.169   8.727   2.676
34790W        W 1199  18.086  32.509  10.699
34791W        W 1200  28.007  31.082   4.397
34792W        W 1201  19.261  27.641  11.271
34793W        W 1202  22.228  38.524   0.994
34794W        W 1203  28.944  20.205   4.986
34795W        W 1204  41.894  28.188  13.089
34796W        W 1205  11.367  41.142   4.228
34797W        W 1206  29.349  33.928  10.958
34798W        W 1207  39.898  43.393   4.820
34799W        W 1208  22.077  37.807   4.225
34800W        W 1209  38.009  32.419  11.536
34801W        W 1210  12.406  38.181   0.761
34802W        W 1211  11.073   7.361   1.289
34803W        W 1212  15.737   5.027   4.605
34804W        W 1213  20.692   5.489  13.447
34805W        W 1214   7.310  17.050   4.480
34806W        W 1215  15.130  21.719   3.585
34807W        W 1216  28.639  12.288   1.315
34808W        W 1217   2.777  41.739   0.884
34809W        W 1218  36.891  25.135   4.901
34810W        W 1219  39.890  11.353  11.581
34811W        W 1220  12.171  25.046  14.628
34812W        W 1221   0.905   1.208  12.399
34813W        W 1222   7.311  21.887  12.423
34814W        W 1223  38.117  29.155  10.633
34815W        W 1224  26.057  17.526  14.522
34816W        W 1225   8.537  28.247   4.141
34817W        W 1226  25.093  31.828  13.997
34818W        W 1227  26.043  13.518  11.979
34819W        W 1228   6.840  21.979   0.412
34820W        W 1229   2.862  26.080   0.520
34821W        W 1230  25.990   1.987  11.554
34822W        W 1231  27.458  42.708   3.912
34823W        W 1232   0.822  40.966   0.138
34824W        W 1233  31.090   1.815   1.279
34825W        W 1234  12.895  43.683   4.751
34826W        W 1235  44.256   7.772  12.585
34827W        W 1236  13.276  42.099   3.601
34828W        W 1237  26.628  43.128  12.143
34829W        W 1238  17.188  10.943   1.721
34830W        W 1239  44.937  32.443   1.113
34831W        W 1240   6.286  38.904   2.755
34832W        W 1241  24.676  16.148  14.009
34833W        W 1242  20.008  12.640   4.044
34834W        W 1243  39.311  27.029  11.916
34835W        W 1244  26.676  34.369  13.048
34836W        W 1245  38.935  39.045   3.037
34837W        W 1246  12.625  10.814  11.126
34838W        W 1247  12.612   2.391  13.465
34839W        W 1248  36.387  41.354  11.621
34840W        W 1249  34.621  24.737  11.189
34841W        W 1250  18.417  25.840   4.307
34842W        W 1251   1.456  35.241  11.942
34843W        W 1252   1.793  26.120  14.756
34844W        W 1253  42.317  35.628  14.875
34845W        W 1254   0.813   9.577   1.854
34846W        W 1255  33.953  38.298   2.686
34847W        W 1256   0.954   2.828  14.958
34848W        W 1257   7.767   3.016   1.893
34849W        W 1258   2.498  16.159   3.788
34850W        W 1259  26.550  22.705  14.778
34851W        W 1260  18.286  25.662  10.497
34852W        W 1261  40.761  10.604   0.828
34853W        W 1262  44.922  12.406   2.123
34854W        W 1263  36.573  35.072   1.750
34855W        W 1264   0.704  39.023  14.987
34856W        W 1265  28.965  20.514  11.031
34857W        W 1266  36.035   6.430  10.761
34858W        W 1267  14.164  10.123   0.435
34859W        W 1268   4.230  40.381  11.377
34860W        W 1269   1.683  36.635   4.011
34861W        W 1270  38.256  26.673   1.826
34862W        W 1271  28.621   7.702   0.827
34863W        W 1272   3.650   1.346  12.580
34864W        W 1273   1.275  23.743   1.567
34865W        W 1274  27.756  36.461   4.358
34866W        W 1275  23.249  23.053  14.873
34867W        W 1276  31.279  23.419   0.034
34868W        W 1277  22.150  23.449  12.353
34869W        W 1278  40.066  25.099   4.115
34870W        W 1279  17.640  36.417  12.962
34871W        W 1280  31.607  17.917  14.073
34872W        W 1281   9.329  10.042  10.066
34873W        W 1282  36.004  12.959   0.809
34874W        W 1283  14.027  17.038  12.030
34875W        W 1284  11.143   3.754   0.250
34876W        W 1285  13.879  29.921  11.951
34877W        W 1286  31.953  38.278   0.268
34878W        W 1287  28.231  35.581  11.221
34879W        W 1288  33.682  42.002   1.147
34880W        W 1289  16.611  38.979   2.446
34881W        W 1290   1.925  27.915  11.571
34882W        W 1291  41.954  13.029   0.923
34883W        W 1292  13.572  15.239   2.658
34884W        W 1293  22.548  28.626  13.595
34885W        W 1294  22.769  18.371   0.921
34886W        W 1295  33.952  24.537  13.050
34887W        W 1296  22.026  16.588  11.712
34888W        W 1297  27.828   8.630   2.262
34889W        W 1298   6.754   3.959   3.423
34890W        W 1299  19.313  33.880   1.200
34891W        W 1300  43.457   9.828  11.265
34892W        W 1301  27.310  26.089   3.922
34893W        W 1302  39.227   2.178  11.557
34894W        W 1303  14.559  21.168   0.758
34895W        W 1304  24.435  26.940  13.384
34896W        W 1305   5.169  23.168  13.000
34897W        W 1306  14.541   6.365  11.713
34898W        W 1307  32.652  27.044   0.700
34899W        W 1308   1.127  19.651   2.745
34900W        W 1309   5.711  14.570  14.827
34901W        W 1310  27.494  29.617  14.896
34902W        W 1311  35.877  10.309  10.668
34903W        W 1312  40.363   3.947   3.362
34904W        W 1313  25.112  41.339  12.139
34905W        W 1314  30.424  32.101   0.333
34906W        W 1315   7.334  13.206   0.023
34907W        W 1316   6.155  43.311  10.740
34908W        W 1317   5.002  29.234  11.848
34909W        W 1318  17.817  33.409   0.724
34910W        W 1319  13.358  30.065   0.239
34911W        W 1320  12.620  23.706   0.342
34912W        W 1321   2.336  38.136   3.064
34913W        W 1322   9.961  19.791   0.583
34914W        W 1323  22.054  34.088  14.037
34915W        W 1324  14.994  28.218  12.577
34916W        W 1325  19.464  29.026   2.105
34917W        W 1326  13.543  34.977   2.557
34918W        W 1327   8.369  39.783  12.009
34919W        W 1328  28.983  31.465   2.913
34920W        W 1329  29.508   9.994  10.242
34921W        W 1330  18.469  31.021  12.471
34922W        W 1331  40.755  38.378   0.629
34923W        W 1332  18.809  23.979   4.852
34924W        W 1333  19.820  18.845  11.435
34925W        W 1334  26.848  21.428  12.046
34926W        W 1335  33.823  42.914   5.085
34927W        W 1336  43.004   2.255   2.353
34928W        W 1337   3.240  32.368   5.112
34929W        W 1338   0.188  19.482   2.371
34930W        W 1339  33.472  21.606   4.719
34931W        W 1340  32.886  44.050   1.722
34932W        W 1341  23.287   8.147  10.747
34933W        W 1342   0.924   9.287  14.740
34934W        W 1343  33.922  44.285   0.487
34935W        W 1344  17.361   5.875  13.950
34936W        W 1345  10.911   3.915  12.956
34937W        W 1346   5.847  34.476  14.393
34938W        W 1347  13.742   3.058  13.619
34939W        W 1348   1.318  12.422  13.628
34940W        W 1349   2.258  15.864  10.421
34941W        W 1350  37.449  10.303  14.800
34942W        W 1351  16.755  11.000  14.976
34943W        W 1352  30.987  41.902   2.450
34944W        W 1353  34.922  41.772   1.311
34945W        W 1354  35.206  26.575  12.475
34946W        W 1355  42.525  18.060   4.191
34947W        W 1356  37.078  21.369   4.989
34948W        W 1357  16.182   5.510   2.799
34949W        W 1358   3.864   8.128   3.536
34950W        W 1359  32.409  40.736  10.887
34951W        W 1360  39.022  41.646   4.425
34952W        W 1361  11.636  13.896  12.378
34953W        W 1362   1.869  32.590   0.879
34954W        W 1363  11.018   5.575   2.312
34955W        W 1364  20.236  37.861  11.544
34956W        W 1365  43.227  18.815  14.380
34957W        W 1366  35.631   9.277   3.342
34958W        W 1367  34.858   5.260  14.467
34959W        W 1368  35.140  31.156   4.568
34960W        W 1369  31.086  43.946   2.624
34961W        W 1370  31.923  33.262  11.158
34962W        W 1371  32.449  20.146   4.833
34963W        W 1372  43.125  27.014  13.472
34964W        W 1373  15.732  20.785   3.674
34965W        W 1374  28.812  21.120  10.950
34966W        W 1375  35.533  34.378  14.571
34967W        W 1376  15.221  28.203  12.028
34968W        W 1377  39.142   1.892  13.509
34969W        W 1378   2.682  19.871   3.186
34970W        W 1379  34.089  18.760   2.204
34971W        W 1380  38.443   4.676   4.132
34972W        W 1381  15.244  17.720   3.946
34973W        W 1382  23.492  28.544  12.066
34974W        W 1383  20.674  10.369  10.807
34975W        W 1384  35.430   9.303   3.837
34976W        W 1385  29.835  27.999  12.269
34977W        W 1386  22.245  41.592   2.496
34978W        W 1387  21.774  18.529  14.749
34979W        W 1388  18.593  18.749  14.933
34980W        W 1389  13.090  37.235  11.573
34981W        W 1390  13.055  34.150  11.049
34982W        W 1391  21.788  26.161  13.755
34983W        W 1392  25.982  41.788   2.607
34984W        W 1393  25.638  23.065   0.811
34985W        W 1394  18.392  27.745  11.942
34986W        W 1395  10.879   2.820  13.124
34987W        W 1396  17.809  41.770  12.037
34988W        W 1397  17.442  29.827   5.147
34989W        W 1398  13.695  42.788   4.504
34990W        W 1399  35.805  30.513   4.370
34991W        W 1400  18.944  26.714   4.017
34992W        W 1401  18.614  42.854   1.765
34993W        W 1402  16.958  33.412  11.580
34994W        W 1403  15.664  41.505  11.166
34995W        W 1404  29.716   3.267   0.932
34996W        W 1405  14.366  35.069  11.197
34997W        W 1406   8.190  21.294   0.396
34998W        W 1407  39.788  20.305  10.737
34999W        W 1408   3.894  25.980   1.471
35000W        W 1409  41.992  28.499  12.587
35001W        W 1410   3.297  10.174  12.952
35002W        W 1411  27.583   2.943  14.068
35003W        W 1412  36.556  13.975  10.509
35004W        W 1413  29.780  37.288  13.097
35005W        W 1414  33.176   8.295  12.774
35006W        W 1415  26.513   4.324   3.792
35007W        W 1416   4.430   7.161  11.780
35008W        W 1417  24.142   8.183  10.221
35009W        W 1418  12.270  12.178  11.894
35010W        W 1419  24.290   0.354   0.318
35011W        W 1420  38.793  25.082  14.377
35012W        W 1421  11.830  33.251  12.314
35013W        W 1422  11.205  24.129  14.218
35014W        W 1423   3.861   6.165   4.110
35015W        W 1424  12.300  14.639   4.569
35016W        W 1425  19.750  22.478  12.556
35017W        W 1426   4.931   6.772   4.635
35018W        W 1427  42.804  10.657   3.161
35019W        W 1428  23.987  38.449   2.829
35020W        W 1429  13.103  15.100   0.241
35021W        W 1430  21.267  33.089   4.044
35022W        W 1431  12.142  33.167   2.330
35023W        W 1432  30.913   1.759   5.244
35024W        W 1433   1.790   2.777  10.778
35025W        W 1434   3.774  34.839  12.506
35026W        W 1435  15.191  20.798   3.836
35027W        W 1436  30.570   5.794  14.606
35028W        W 1437  27.597   6.192  13.941
35029W        W 1438  28.837  14.355   2.095
35030W        W 1439   8.343  34.454  11.531
35031W        W 1440  18.265   0.444  12.321
35032W        W 1441  20.211  31.622  10.648
35033W        W 1442   0.226  37.855   1.383
35034W        W 1443  10.159  11.591  11.542
35035W        W 1444  31.052  41.760   0.721
35036W        W 1445  12.917   6.235   0.033
35037W        W 1446  32.760  31.188   4.539
35038W        W 1447  12.251  19.189   0.877
35039W        W 1448   5.304   4.442  14.308
35040W        W 1449  24.584  18.803   4.115
35041W        W 1450   5.706  14.778  12.916
35042W        W 1451  42.783  11.234  13.176
35043W        W 1452  36.148  33.573  11.270
35044W        W 1453  39.371  30.406   2.382
35045W        W 1454  21.262  11.844   2.697
35046W        W 1455  41.524   8.575   2.252
35047W        W 1456  44.080  11.783  11.029
35048W        W 1457  16.084  39.756  12.094
35049W        W 1458  20.449  13.882   2.268
35050W        W 1459   2.021   0.170   2.180
35051W        W 1460  28.709   4.831  12.284
35052W        W 1461   6.917  24.618  14.249
35053W        W 1462   0.871  41.026   2.691
35054W        W 1463   0.670  23.127  11.507
35055W        W 1464  42.611  36.241   5.145
35056W        W 1465  35.527  28.372   3.805
35057W        W 1466  34.494  42.248   1.662
35058W        W 1467  26.120   5.261  12.632
35059W        W 1468  17.084  36.021  12.467
35060W        W 1469  41.852  26.352   5.020
35061W        W 1470  34.091   1.165  12.790
35062W        W 1471   6.895  11.633  10.721
35063W        W 1472  13.430  40.876  10.942
35064W        W 1473  37.076  29.222   4.587
35065W        W 1474  32.710   2.822  10.733
35066W        W 1475  16.787   1.276  14.794
35067W        W 1476  44.735   1.722  14.830
35068W        W 1477  10.386  31.060   4.988
35069W        W 1478  10.954   3.268  13.389
35070W        W 1479  32.226  19.111   3.224
35071W        W 1480  40.351   4.164  13.545
35072W        W 1481  23.578  43.497  14.807
35073W        W 1482  32.326  36.704   4.516
35074W        W 1483  27.012  19.520  14.857
35075W        W 1484  21.036  16.155  14.865
35076W        W 1485  41.008  25.635  10.603
35077W        W 1486   4.193  30.969   2.819
35078W        W 1487  19.189  34.944   1.894
35079W        W 1488  37.188  32.866  13.063
35080W        W 1489   0.499  24.825  11.984
35081W        W 1490  43.499  38.525  13.040
35082W        W 1491  24.639   5.849   2.943
35083W        W 1492   3.866  30.871  11.118
35084W        W 1493   2.437  17.150   0.512
35085W        W 1494  19.244  12.547   4.649
35086W        W 1495   9.494  30.556  13.573
35087W        W 1496  42.757   4.951   4.157
35088W        W 1497  16.143  18.217   5.337
35089W        W 1498  37.064  17.266   4.055
35090W        W 1499  41.318   2.772  13.498
35091W        W 1500  44.005  18.603  11.566
35092W        W 1501  31.203  33.401  10.288
35093W        W 1502  20.464  28.004   0.887
35094W        W 1503  11.282  40.720   3.298
35095W        W 1504  38.528  25.612   3.758
35096W        W 1505  39.841  18.341   1.455
35097W        W 1506  36.281  26.381   1.894
35098W        W 1507  37.049  26.593  10.723
35099W        W 1508  25.481  25.550   1.921
35100W        W 1509  11.777  24.540   4.925
35101W        W 1510   4.401  23.525  10.282
35102W        W 1511  24.952   4.221   0.022
35103W        W 1512  39.959   5.412   0.747
35104W        W 1513  32.370  18.832   0.678
35105W        W 1514  17.573   1.464  14.377
35106W        W 1515  29.980  42.906  14.029
35107W        W 1516  33.458  16.917  11.843
35108W        W 1517  43.502   4.713   4.495
35109W        W 1518  39.294  38.568  13.414
35110W        W 1519  40.021   2.439  13.499
35111W        W 1520  18.699  31.055   3.793
35112W        W 1521   8.782  33.931   2.982
35113W        W 1522  36.679  33.021  11.652
35114W        W 1523   8.834  22.218   3.274
35115W        W 1524   6.150   8.617  11.984
35116W        W 1525  20.437  30.614  14.866
35117W        W 1526  31.983  42.066   3.926
35118W        W 1527  15.406  23.452  11.606
35119W        W 1528  34.492  40.281   3.661
35120W        W 1529   1.817  32.982   1.868
35121W        W 1530  42.484  36.636   4.756
35122W        W 1531  12.040  42.988  11.007
35123W        W 1532  16.574   8.924  11.095
35124W        W 1533  22.056  26.256  12.241
35125W        W 1534  28.785   5.086  10.346
35126W        W 1535   0.746  29.690  12.896
35127W        W 1536  30.635   6.268   0.030
35128W        W 1537  42.273  10.687  12.125
35129W        W 1538  17.194  44.251   4.133
35130W        W 1539  28.916  37.557   0.067
35131W        W 1540  36.796  35.039   3.622
35132W        W 1541  25.230  27.266  13.364
35133W        W 1542   7.313   8.721   1.876
35134W        W 1543   5.824  14.427  11.095
35135W        W 1544  15.816  19.245  13.281
35136W        W 1545  25.966   1.712  10.688
35137W        W 1546  12.014  36.809  12.208
35138W        W 1547  30.514   0.842   4.501
35139W        W 1548   3.413  13.658  14.805
35140W        W 1549  27.930  18.228   2.774
35141W        W 1550  42.928  24.227  10.785
35142W        W 1551  33.448  22.045   0.534
35143W        W 1552  37.060  12.728  11.731
35144W        W 1553  31.415  19.248   1.354
35145W        W 1554  20.605   8.673   3.581
35146W        W 1555  22.578   0.985   4.285
35147W        W 1556   5.993   7.407  13.838
35148W        W 1557  20.125   5.385   0.514
35149W        W 1558  41.532  11.102   2.335
35150W        W 1559  37.025  33.659  13.484
35151W        W 1560  42.050  38.868   3.153
35152W        W 1561  11.206  20.178  11.159
35153W        W 1562   7.916  15.288  12.939
35154W        W 1563   7.194   7.130   1.249
35155W        W 1564  39.981  13.760   0.262
35156W        W 1565  36.796   1.254  10.808
35157W        W 1566  28.493   0.252   0.891
35158W        W 1567  29.423  42.182  14.225
35159W        W 1568  43.532   4.874  10.512
35160W        W 1569   6.360   7.399  10.468
35161W        W 1570   4.673  15.967   0.301
35162W        W 1571  37.014  10.183  14.265
35163W        W 1572  19.550  19.307   0.804
35164W        W 1573   5.768  34.583  11.975
35165W        W 1574  17.174  44.910  12.201
35166W        W 1575   8.216  21.167  14.889
35167W        W 1576  33.467  16.147   3.429
35168W        W 1577  42.414   6.045  12.024
35169W        W 1578  18.712  27.804  12.822
35170W        W 1579  18.992  11.617   2.864
35171W        W 1580  35.436  17.217   3.624
35172W        W 1581  39.910   6.471  14.717
35173W        W 1582  16.681  16.797  11.599
35174W        W 1583  20.774  40.541  10.631
35175W        W 1584  32.437   6.704   5.204
35176W        W 1585  12.633   0.145   3.245
35177W        W 1586  41.264   7.550  12.999
35178W        W 1587  25.262  10.371  12.035
35179W        W 1588  14.051   0.826  14.443
35180W        W 1589  25.121  25.662   0.390
35181W        W 1590  10.056  13.218   0.912
35182W        W 1591  31.279  22.814  11.915
35183W        W 1592  18.150  32.178   4.196
35184W        W 1593  15.576  34.597  11.080
35185W        W 1594  33.072  40.258   0.716
35186W        W 1595   6.401   7.282  14.768
35187W        W 1596  43.114  36.971   3.142
35188W        W 1597  44.471  36.184  14.207
35189W        W 1598   7.737  24.085  13.073
35190W        W 1599   1.112  42.856  10.226
35191W        W 1600  25.134  11.189   3.623
35192W        W 1601  17.135   6.170  13.481
35193W        W 1602  11.660   5.864  11.746
35194W        W 1603  37.288  14.043  10.790
35195W        W 1604   7.436  10.122  10.985
35196W        W 1605   4.574  28.325   9.844
35197W        W 1606   2.319  34.927  10.613
35198W        W 1607   5.766   3.883   2.379
35199W        W 1608   9.104   9.376   2.717
35200W        W 1609  22.007  25.479   0.851
35201W        W 1610  22.920  24.019  13.524
35202W        W 1611  27.281   9.894  10.954
35203W        W 1612  15.160  26.569  14.079
35204W        W 1613   4.064  30.116  13.926
35205W        W 1614   4.175   1.446   1.111
35206W        W 1615  25.294  22.649   0.356
35207W        W 1616  11.641  13.456   4.144
35208W        W 1617  31.545  11.328  14.472
35209W        W 1618   7.262   0.851   2.581
35210W        W 1619   3.928  42.482   3.603
35211W        W 1620   8.155  38.943   5.030
35212W        W 1621  22.976  14.345  11.482
35213W        W 1622  40.560   0.866   0.445
35214W        W 1623   8.403  11.197   3.178
35215W        W 1624  17.923  24.389   2.701
35216W        W 1625  28.683  15.850   0.875
35217W        W 1626  11.125   1.263  12.402
35218W        W 1627  24.233  38.984   0.369
35219W        W 1628  15.806   3.575   0.516
35220W        W 1629  26.113   9.166   0.468
35221W        W 1630  15.872   2.759   2.116
35222W        W 1631  22.011  32.937   3.128
35223W        W 1632   9.274   9.840   0.569
35224W        W 1633  30.345  17.197   0.626
35225W        W 1634  36.132  39.470  12.285
35226W        W 1635  40.519  36.564   0.907
35227W        W 1636   5.756  36.864   0.944
35228W        W 1637  14.339  40.154  13.548
35229W        W 1638  33.072   7.684   4.388
35230W        W 1639  41.423   9.911  14.378
35231W        W 1640   7.244  34.389   4.459
35232W        W 1641  39.864  16.640  10.488
35233W        W 1642  30.581  28.714   2.460
35234W        W 1643  32.898  25.535   1.992
35235W        W 1644  35.167   4.464  13.570
35236W        W 1645  30.030  21.422  13.943
35237W        W 1646  31.603  10.253   1.678
35238W        W 1647  13.383  35.459   2.690
35239W        W 1648  42.471  25.402   0.460
35240W        W 1649  15.774  20.244  11.109
35241W        W 1650  27.114  43.041  14.977
35242W        W 1651  28.889  30.910   4.899
35243W        W 1652  43.299   4.717  11.860
35244W        W 1653  43.034  40.063   3.923
35245W        W 1654  34.592  13.404  14.545
35246W        W 1655   8.300  36.314   3.796
35247W        W 1656   5.911  39.875  11.670
35248W        W 1657  42.464  37.128  11.161
35249W        W 1658  29.729  44.211   1.646
35250W        W 1659  22.044  24.959  12.505
35251W        W 1660  27.585  27.649   2.418
35252W        W 1661  22.038  29.904   2.416
35253W        W 1662  34.902  32.545   1.223
35254W        W 1663  16.670  26.599  13.347
35255W        W 1664   2.776  44.359  14.531
35256W        W 1665  21.872  44.761  10.668
35257W        W 1666   7.956   3.524  11.933
35258W        W 1667  18.510   2.592  14.156
35259W        W 1668  17.727  33.869  11.394
35260W        W 1669  43.261  29.918   3.392
35261W        W 1670  27.304  28.786   2.173
35262W        W 1671   7.102  34.303  13.590
35263W        W 1672  44.494  19.036  14.900
35264W        W 1673  32.714  18.085   2.906
35265W        W 1674  28.689  16.185  11.563
35266W        W 1675  39.292  22.679  11.218
35267W        W 1676   8.180  15.221  14.260
35268W        W 1677   1.253  21.150   0.035
35269W        W 1678  13.552  19.643  14.018
35270W        W 1679  33.357   4.397  14.915
35271W        W 1680  25.509  10.397  11.593
35272W        W 1681  35.515  31.438   4.339
35273W        W 1682  41.901  44.630  12.898
35274W        W 1683  19.176  12.662   0.025
35275W        W 1684  24.564  43.858   2.787
35276W        W 1685   5.337  30.082   4.619
35277W        W 1686   5.296  23.951   1.333
35278W        W 1687   0.718   5.141   3.411
35279W        W 1688  14.706  14.542   2.125
35280W        W 1689   2.212  32.037   1.775
35281W        W 1690   2.431  16.716  10.935
35282W        W 1691  35.038  39.689  11.983
35283W        W 1692  18.244   0.894  10.771
35284W        W 1693  39.286  21.189   0.414
35285W        W 1694   5.219  24.542   3.055
35286W        W 1695   4.207  43.720  12.066
35287W        W 1696  23.992  15.875  12.094
35288W        W 1697  29.594  38.816   4.619
35289W        W 1698  25.211  35.884   4.313
35290W        W 1699  12.263  24.476   1.877
35291W        W 1700  13.205  23.749   4.092
35292W        W 1701  15.234  28.194   1.372
35293W        W 1702  37.354   2.506   0.493
35294W        W 1703  26.176  24.815   3.998
35295W        W 1704  16.077   1.882   3.019
35296W        W 1705   5.607  20.531  12.825
35297W        W 1706  42.525  17.380   5.162
35298W        W 1707  26.101   1.060  13.269
35299W        W 1708  37.841   9.627   0.740
35300W        W 1709  30.623  10.891  14.319
35301W        W 1710  23.642  17.741   3.546
35302W        W 1711   6.876  31.957   0.826
35303W        W 1712   1.442  18.266   1.118
35304W        W 1713  13.891   3.069   1.358
35305W        W 1714  14.581  31.586  12.109
35306W        W 1715  28.639  20.238   4.577
35307W        W 1716  37.898   1.233  14.554
35308W        W 1717  29.774  36.034  10.307
35309W        W 1718  33.922  34.851   3.782
35310W        W 1719  19.560  14.592  13.866
35311W        W 1720  36.648   7.072   0.867
35312W        W 1721  10.316  41.516  13.396
35313W        W 1722  20.967  19.111  10.639
35314W        W 1723   0.109  29.571  11.153
35315W        W 1724  22.155  32.430   3.230
35316W        W 1725  20.533  16.566   0.231
35317W        W 1726  31.301  32.399  11.722
35318W        W 1727  10.217   8.755  13.599
35319W        W 1728  23.662  22.478   0.308
35320W        W 1729  39.251  36.066   4.833
35321W        W 1730  27.052  15.190  14.720
35322W        W 1731  16.222   2.375   3.220
35323W        W 1732  43.844  22.852  12.812
35324W        W 1733   2.296  44.788  12.673
35325W        W 1734  32.613  38.768  14.617
35326W        W 1735  16.784  33.734  14.533
35327W        W 1736  30.639  14.876  12.637
35328W        W 1737  16.292   8.725   4.564
35329W        W 1738  11.538  33.220   0.257
35330W        W 1739  31.381   9.744  12.471
35331W        W 1740  42.766   8.324   3.232
35332W        W 1741   0.933  14.496   3.903
35333W        W 1742  11.839  20.674  12.492
35334W        W 1743  44.108  27.993  10.944
35335W        W 1744  14.566  13.512  11.123
35336W        W 1745  44.779  20.752   1.833
35337W        W 1746  39.290  33.025  12.486
35338W        W 1747  26.164  41.921  12.989
35339W        W 1748  43.218  34.566  14.825
35340W        W 1749  17.452   1.695   3.920
35341W        W 1750  35.409   9.889  12.000
35342W        W 1751  14.370  38.681  13.044
35343W        W 1752   5.650  43.416  12.542
35344W        W 1753  44.397  43.747   1.665
35345W        W 1754   7.397  30.566   0.692
35346W        W 1755   9.894  35.648   4.644
35347W        W 1756  36.513   0.914  13.383
35348W        W 1757  32.155  34.252   4.239
35349W        W 1758   5.940   0.302  14.470
35350W        W 1759  19.945   2.477  14.767
35351W        W 1760  26.769   4.732   3.943
35352W        W 1761  23.966  13.667  13.422
35353W        W 1762  43.917  31.373  14.890
35354W        W 1763  21.519  31.042   3.101
35355W        W 1764  39.921  24.804   5.033
35356W        W 1765  25.197  25.067  10.666
35357W        W 1766  23.518  24.423   3.158
35358W        W 1767  41.092  13.809   2.306
35359W        W 1768  18.585  30.041   0.232
35360W        W 1769   9.622   0.553   5.453
35361W        W 1770  16.112  43.193   0.635
35362W        W 1771  38.209  16.382  13.798
35363W        W 1772  43.672   3.037   2.678
35364W        W 1773  20.924  44.976   3.249
35365W        W 1774  19.520  18.131  14.300
35366W        W 1775  24.258  33.405  13.506
35367W        W 1776  21.101  31.674   4.017
35368W        W 1777  20.732  14.582  11.547
35369W        W 1778  25.194  10.949   4.070
35370W        W 1779  38.528  31.654   2.792
35371W        W 1780  21.719  21.259   3.881
35372W        W 1781  21.574  10.753  11.464
35373W        W 1782  37.823  20.187   0.319
35374W        W 1783  27.095  25.984  13.437
35375W        W 1784  36.846   3.840   4.012
35376W        W 1785  14.011  20.050   5.112
35377W        W 1786  15.358  34.535  12.969
35378W        W 1787  14.573  30.381   2.364
35379W        W 1788   9.792  19.145   3.299
35380W        W 1789   2.776   2.338   1.134
35381W        W 1790   0.787  26.217   2.231
35382W        W 1791  30.995  12.741   4.643
35383W        W 1792  35.970   5.776   2.674
35384W        W 1793   9.756  10.384  14.945
35385W        W 1794  42.755  16.513  14.388
35386W        W 1795   9.383  23.264   1.942
35387W        W 1796  39.192  28.880  12.963
35388W        W 1797  29.979  34.334  13.403
35389W        W 1798   4.920  35.352   4.626
35390W        W 1799  10.373  34.501   4.716
35391W        W 1800  28.998  11.360  11.412
35392W        W 1801  27.878  30.389  10.495
35393W        W 1802  31.082  41.492   0.268
35394W        W 1803   7.192   6.362  14.336
35395W        W 1804  26.957   9.685  13.434
35396W        W 1805  14.198   4.216   4.598
35397W        W 1806   3.952  33.969   1.379
35398W        W 1807  36.528  10.863  12.064
35399W        W 1808  41.594  30.806   2.764
35400W        W 1809  26.128  29.460  13.582
35401W        W 1810  42.753   8.494  11.619
35402W        W 1811  33.004  14.341  14.780
35403W        W 1812   8.412   4.603   3.620
35404W        W 1813  15.644  44.769   2.163
35405W        W 1814   6.865  33.795   2.256
35406W        W 1815  35.153  39.042  14.563
35407W        W 1816  11.283  44.334  13.134
35408W        W 1817   8.723  19.487   4.948
35409W        W 1818  13.739  36.920   1.200
35410W        W 1819  43.411  41.544   2.704
35411W        W 1820  31.437  12.349   0.196
35412W        W 1821   1.378  41.814   3.024
35413W        W 1822  28.725  30.165   3.086
35414W        W 1823   9.098   8.892  13.325
35415W        W 1824  38.396  16.277   4.120
35416W        W 1825  25.323   7.600  12.451
35417W        W 1826  11.680  38.438  12.983
35418W        W 1827   4.232  18.669   4.510
35419W        W 1828  27.597   3.715   2.462
35420W        W 1829   0.757  33.593   0.823
35421W        W 1830  38.052  32.513   3.378
35422W        W 1831   8.798  40.004   3.732
35423W        W 1832  19.556  28.093   4.192
35424W        W 1833  22.861  44.803   4.217
35425W        W 1834  29.349  32.136   5.006
35426W        W 1835   5.901  40.325  12.850
35427W        W 1836   4.854  35.956  11.278
35428W        W 1837  11.756  11.170  14.025
35429W        W 1838  39.764  10.226  11.272
35430W        W 1839  16.595   3.871   0.047
35431W        W 1840  27.209  19.796  12.402
35432W        W 1841   6.515  10.920  13.922
35433W        W 1842  34.371  35.318   4.315
35434W        W 1843  30.641  20.980   3.211
35435W        W 1844  22.293  20.804  12.997
35436W        W 1845  32.568  13.660  13.264
35437W        W 1846  24.354  28.451   1.130
35438W        W 1847   0.528  32.443   2.375
35439W        W 1848  18.855  16.194   3.386
35440W        W 1849  30.537  41.050   3.202
35441W        W 1850  25.722   6.045  13.535
35442W        W 1851   0.489  27.452  11.678
35443W        W 1852  27.117  32.159   4.893
35444W        W 1853  22.017  26.677   4.483
35445W        W 1854  14.157  15.284  13.743
35446W        W 1855  29.093  33.036  14.065
35447W        W 1856  30.479  12.049  11.347
35448W        W 1857  15.216  30.535  11.969
35449W        W 1858  19.186  15.287  13.558
35450W        W 1859  43.336  11.082  14.897
35451W        W 1860  37.362  42.283  14.736
35452W        W 1861   2.017  17.812  12.555
35453W        W 1862  12.704   3.291  12.232
35454W        W 1863   7.518   5.352   4.298
35455W        W 1864  39.478  43.841  10.780
35456W        W 1865  22.536  25.387   1.002
35457W        W 1866  37.439  30.893   4.091
35458W        W 1867  33.360   2.642   0.729
35459W        W 1868  34.194  25.927   3.636
35460W        W 1869  25.402   4.267   0.299
35461W        W 1870  24.901   1.696   3.696
35462W        W 1871   0.446   9.947   1.748
35463W        W 1872  41.501  36.961  10.882
35464W        W 1873  25.707  10.694   0.165
35465W        W 1874   5.909  29.446   0.303
35466W        W 1875   3.504  27.331   4.504
35467W        W 1876  20.781  26.583   2.922
35468W        W 1877  13.479  38.303   3.985
35469W        W 1878   5.802  39.981   3.194
35470W        W 1879   0.725  10.159  12.185
35471W        W 1880  18.623  12.774  12.425
35472W        W 1881  31.521   2.845   2.538
35473W        W 1882  32.089  21.423   2.059
35474W        W 1883   1.041  19.279  10.746
35475W        W 1884   6.200  34.638   2.853
35476W        W 1885  42.878   2.710   2.071
35477W        W 1886  28.602   5.459  11.498
35478W        W 1887   9.989   5.868  11.584
35479W        W 1888  19.594  23.011   3.196
35480W        W 1889  10.373   7.391   0.232
35481W        W 1890  10.637  39.208   4.039
35482W        W 1891  25.226  41.552   0.185
35483W        W 1892  24.635   0.293  11.681
35484W        W 1893  28.055  34.946  12.385
35485W        W 1894   0.699  29.073  14.918
35486W        W 1895  29.633  21.038  12.914
35487W        W 1896  40.791   6.000   1.635
35488W        W 1897   4.242  31.123  11.655
35489W        W 1898  38.532  12.047  11.058
35490W        W 1899  29.376  43.541   2.206
35491W        W 1900  40.834  31.097   1.826
35492W        W 1901  27.414  26.979  11.527
35493W        W 1902  16.420  24.887   2.412
35494W        W 1903   1.804  30.950   1.962
35495W        W 1904   1.680   6.358   4.233
35496W        W 1905  11.324  11.887   4.817
35497W        W 1906  27.673  25.253   2.108
35498W        W 1907   1.668  34.300  13.390
35499W        W 1908  22.082   8.439  14.411
35500W        W 1909  39.792  15.301  10.488
35501W        W 1910  44.787  41.928  11.636
35502W        W 1911   2.247   9.661  14.301
35503W        W 1912  37.654  34.204  13.014
35504W        W 1913  30.348  38.485   2.917
35505W        W 1914  44.773  35.775  12.450
35506W        W 1915  20.220  30.577  10.537
35507W        W 1916  23.118  23.590   3.132
35508W        W 1917  42.463  18.333  10.745
35509W        W 1918   5.684  19.311  14.717
35510W        W 1919  17.966  40.467  11.528
35511W        W 1920  11.272   3.687  11.103
35512W        W 1921  37.676  22.010  13.168
35513W        W 1922  41.865  39.213   1.199
35514W        W 1923  11.762  17.716  12.103
35515W        W 1924   6.363   7.687   1.322
35516W        W 1925  43.082  18.613  12.565
35517W        W 1926  38.112  25.583   0.263
35518W        W 1927   1.926   9.944   2.758
35519W        W 1928  20.576  25.515   3.316
35520W        W 1929  25.465  14.153  11.240
35521W        W 1930  41.237   2.566  13.960
35522W        W 1931   1.608   5.773  10.862
35523W        W 1932  29.343   2.177  14.256
35524W        W 1933  16.122   7.208  13.897
35525W        W 1934   0.358  44.795  11.970
35526W        W 1935   7.703  21.245   0.066
35527W        W 1936  32.186  10.306  10.597
35528W        W 1937  27.183   6.339  10.289
35529W        W 1938  39.889  21.801   2.633
35530W        W 1939  32.920  21.676  11.075
35531W        W 1940   2.766  11.789  12.573
35532W        W 1941  34.275  32.228  14.171
35533W        W 1942   9.774  37.359  12.623
35534W        W 1943  21.240  42.547  12.444
35535W        W 1944   1.103  44.863   4.314
35536W        W 1945  10.621   4.880  11.943
35537W        W 1946  44.320  25.244   3.236
35538W        W 1947  20.767  42.228  11.550
35539W        W 1948   1.278  34.790  11.141
35540W        W 1949  16.412  16.924  12.004
35541W        W 1950   9.637  31.060  11.133
35542W        W 1951  38.144  37.016  11.909
35543W        W 1952  10.872   8.335   0.217
35544W        W 1953  11.436   3.867   2.890
35545W        W 1954  36.628  39.615  14.745
35546W        W 1955   6.610  24.262  13.103
35547W        W 1956  33.162  30.567  13.358
35548W        W 1957  13.840   9.789   0.198
35549W        W 1958   7.927  29.857   1.708
35550W        W 1959  10.587  15.679  10.591
35551W        W 1960  14.590  28.534   2.004
35552W        W 1961  16.440  28.178   4.403
35553W        W 1962  30.062  22.044  11.626
35554W        W 1963  31.162  27.604   1.854
35555W        W 1964  26.009  22.795  10.779
35556W        W 1965  29.188  16.308   1.697
35557W        W 1966  21.442  32.656   2.396
35558W        W 1967   5.162  19.065   3.443
35559W        W 1968  30.917   6.785  13.132
35560W        W 1969  40.514  25.665  10.830
35561W        W 1970  22.223  12.317   2.793
35562W        W 1971   2.445  32.571   3.904
35563W        W 1972  37.444  41.102  11.918
35564W        W 1973  13.051  43.555   2.934
35565W        W 1974  22.054  42.474  10.483
35566W        W 1975  12.343  44.180   3.861
35567W        W 1976  19.932   2.106  12.008
35568W        W 1977  41.362  27.032  13.311
35569W        W 1978  36.046   1.785   0.741
35570W        W 1979  36.806  39.766  11.627
35571W        W 1980  41.364  27.740   4.464
35572W        W 1981  14.702  10.100   4.540
35573W        W 1982   1.176  30.943   2.364
35574W        W 1983  21.706  34.299  10.713
35575W        W 1984  30.755   3.291   2.444
35576W        W 1985  26.587  43.208   4.904
35577W        W 1986  18.217   0.010  10.633
35578W        W 1987  26.559  13.582   2.668
35579W        W 1988  41.632  35.108  13.053
35580W        W 1989  28.340  39.676  11.956
35581W        W 1990  36.737   5.360   0.451
35582W        W 1991  17.331  36.793  14.957
35583W        W 1992  43.305  33.542   2.460
35584W        W 1993  16.563  11.608   2.742
35585W        W 1994   4.771   6.192  10.974
35586W        W 1995  14.144  23.640  14.510
35587W        W 1996  23.533   7.213  12.684
35588W        W 1997   2.706  26.553   2.239
35589W        W 1998  11.308   5.378  10.417
35590W        W 1999   1.659  40.884   4.147
35591W        W 2000   4.455  11.904  11.267
35592W        W 2001   5.196  41.143   0.762
35593W        W 2002  38.935  12.318   3.593
35594W        W 2003  39.885  14.409   0.788
35595W        W 2004  10.806  23.953   1.729
35596W        W 2005   5.343  44.407   3.621
35597W        W 2006   6.799  44.270   9.925
35598W        W 2007  26.244  43.540   1.712
35599W        W 2008  22.582   6.178   3.124
35600W        W 2009  24.244  26.039  10.648
35601W        W 2010  33.213  39.845  13.047
35602W        W 2011  16.600  13.713   3.813
35603W        W 2012   8.740  32.913  12.909
35604W        W 2013  22.722  21.147   0.718
35605W        W 2014  13.352  16.394  14.064
35606W        W 2015  44.173   2.159  14.071
35607W        W 2016  30.900  40.982  10.816
35608W        W 2017   5.267  24.719  11.373
35609W        W 2018  10.967   6.007   9.869
35610W        W 2019  34.520  22.423   1.914
35611W        W 2020  21.170  22.733  14.859
35612W        W 2021  18.641  36.529   2.916
35613W        W 2022  19.707  16.330  12.305
35614W        W 2023  42.078  24.740  11.894
35615W        W 2024  42.292  40.357  10.907
35616W        W 2025  40.351  40.497   2.372
35617W        W 2026  20.508   0.959   4.832
35618W        W 2027  13.866  26.262  12.701
35619W        W 2028  13.844   7.843  10.458
35620W        W 2029  42.130  16.636   1.824
35621W        W 2030  31.172  39.792   3.270
35622W        W 2031  36.044  27.633   0.994
35623W        W 2032  17.807  26.989   1.335
35624W        W 2033  16.107  16.159  14.773
35625W        W 2034  36.790  38.338  12.452
35626W        W 2035  31.228  34.361   1.601
35627W        W 2036  32.958  15.016  12.604
35628W        W 2037  30.872  14.173   2.293
35629W        W 2038  42.084  32.591   3.724
35630W        W 2039   3.300   3.389  11.899
35631W        W 2040  27.478  19.654   0.054
35632W        W 2041  15.081   3.779  13.894
35633W        W 2042  20.707  41.474  10.553
35634W        W 2043   7.144   4.895   0.630
35635W        W 2044  43.833  25.032   4.978
35636W        W 2045  38.831  21.399  13.939
35637W        W 2046   9.637   9.444  13.836
35638W        W 2047   2.505   2.809  12.070
35639W        W 2048  43.024  22.687  14.728
35640W        W 2049  40.830  38.525  13.392
35641W        W 2050  20.786   5.743  12.928
35642W        W 2051  26.404  22.597  12.468
35643W        W 2052   1.045  18.988  14.785
35644W        W 2053  44.555  18.881   1.234
35645W        W 2054  41.687  17.365   4.181
35646W        W 2055  23.574   8.819  14.892
35647W        W 2056  44.797  11.478   2.346
35648W        W 2057   5.756  44.502  11.644
35649W        W 2058  35.330  34.389   4.283
35650W        W 2059  20.675  15.839  10.798
35651W        W 2060  44.361  12.130   2.179
35652W        W 2061  23.731  44.931   4.173
35653W        W 2062   2.041   1.452  14.787
35654W        W 2063  38.902  21.268  10.349
35655W        W 2064  40.388  27.174  11.094
35656W        W 2065  28.106  34.648  10.694
35657W        W 2066  28.554  34.511   0.009
35658W        W 2067  18.145  30.157   3.436
35659W        W 2068  15.783  44.420  12.927
35660W        W 2069  38.151   3.377   3.258
35661W        W 2070   4.209   9.914  13.513
35662W        W 2071  25.573  43.918  10.838
35663W        W 2072  37.826  25.134  12.900
35664W        W 2073  30.554  37.212  12.086
35665W        W 2074   4.275   6.959  13.814
35666W        W 2075   5.164  12.793   0.327
35667W        W 2076  24.730  16.563   1.463
35668W        W 2077  33.943  41.456   1.703
35669W        W 2078  33.858  16.826  11.099
35670W        W 2079  27.636  43.000  14.983
35671W        W 2080  41.398  14.638  10.893
35672W        W 2081  42.098  11.460  11.124
35673W        W 2082  31.651  23.027   4.077
35674W        W 2083  43.794  14.127   1.357
35675W        W 2084  16.008  24.527   3.298
35676W        W 2085  33.420   4.937  11.152
35677W        W 2086  11.846  17.534   2.491
35678W        W 2087  20.175  27.142   1.298
35679W        W 2088  43.601  37.465   4.951
35680W        W 2089   5.219  23.460   3.692
35681W        W 2090   8.205   2.716  12.619
35682W        W 2091   4.862   8.135  11.665
35683W        W 2092  13.921   6.380   4.553
35684W        W 2093  35.528   9.955   2.197
35685W        W 2094  12.070   4.763  11.925
35686W        W 2095   3.201  39.295  14.461
35687W        W 2096  18.337  27.678   2.276
35688W        W 2097  13.873  26.986   0.298
35689W        W 2098  18.232   1.686   1.854
35690W        W 2099  11.064  26.836  13.932
35691W        W 2100   4.662  15.869  12.579
35692W        W 2101  15.802  19.321   1.760
35693W        W 2102   9.419  27.116  14.847
35694W        W 2103  21.130  10.659   1.771
35695W        W 2104  27.073  43.435  12.664
35696W        W 2105  41.142  36.554  12.892
35697W        W 2106   6.158  44.461  14.941
35698W        W 2107  21.104  40.425  13.518
35699W        W 2108   5.354  14.283  10.697
35700W        W 2109  17.778  37.050   2.212
35701W        W 2110   1.926  28.646   2.243
35702W        W 2111  37.920  28.945  13.450
35703W        W 2112  39.944  35.592   4.250
35704W        W 2113  44.357  33.190  13.940
35705W        W 2114  21.559  26.220  12.860
35706W        W 2115   9.145   0.715  12.832
35707W        W 2116  43.310  33.605  12.594
35708W        W 2117  14.358  37.507   1.838
35709W        W 2118   7.958  30.709  11.696
35710W        W 2119  42.321   4.820   1.414
35711W        W 2120   1.791  38.759   0.789
35712W        W 2121   4.367   6.694   1.699
35713W        W 2122   2.674  24.200   2.478
35714W        W 2123  39.806  11.110  13.013
35715W        W 2124  10.059  27.530   0.362
35716W        W 2125   7.050  23.585  11.112
35717W        W 2126   0.295   1.972  12.822
35718W        W 2127   9.077  30.993  14.766
35719W        W 2128  44.330   7.743   0.394
35720W        W 2129   9.083   9.352   3.765
35721W        W 2130  28.068  32.226   5.048
35722W        W 2131  18.303  31.492  11.659
35723W        W 2132  24.976  11.616   0.418
35724W        W 2133  40.901  30.708   2.748
35725W        W 2134  29.695  22.633   1.358
35726W        W 2135  35.402  33.704  10.780
35727W        W 2136  39.066  38.661  12.064
35728W        W 2137   0.408   9.083  10.326
35729W        W 2138  27.638  28.487   1.849
35730W        W 2139  12.291  38.679  11.665
35731W        W 2140  18.097  42.323   1.924
35732W        W 2141  12.393  39.714   2.197
35733W        W 2142   7.170  30.181   4.143
35734W        W 2143  21.031   9.623   1.155
35735W        W 2144  19.189  22.736   2.201
35736W        W 2145  40.615  29.088  10.731
35737W        W 2146   5.903  25.302  11.641
35738W        W 2147  44.938  35.277  12.512
35739W        W 2148  13.663   4.627  14.980
35740W        W 2149  35.389  15.558  13.175
35741W        W 2150  17.798  32.682   3.746
35742W        W 2151   0.332  43.247  14.877
35743W        W 2152   4.746  35.002  14.227
35744W        W 2153  39.985  15.848   0.682
35745W        W 2154   3.890  22.189  11.403
35746W        W 2155  25.508  43.523   3.078
35747W        W 2156   2.864  36.042  13.110
35748W        W 2157  31.424  17.281   0.104
35749W        W 2158  37.946  36.970  14.938
35750W        W 2159  25.695  13.335   0.824
35751W        W 2160  36.186  28.997   0.913
35752W        W 2161  33.341  38.414  14.967
35753W        W 2162  44.267   5.666   2.216
35754W        W 2163  20.161  37.946   1.941
35755W        W 2164  24.958  12.032   5.073
35756W        W 2165   4.243  20.257  14.429
35757W        W 2166  35.305  43.787  12.642
35758W        W 2167   7.250  16.130  12.933
35759W        W 2168  25.556   8.306   2.245
35760W        W 2169  13.138  11.545   4.070
35761W        W 2170  28.025  23.557   4.823
35762W        W 2171  38.329  14.628  14.468
35763W        W 2172  44.160  13.195   2.604
35764W        W 2173  39.414  41.598   3.736
35765W        W 2174  12.097   6.725   0.690
35766W        W 2175   0.551  37.325   0.461
35767W        W 2176  12.120  41.063  13.951
35768W        W 2177  40.854  29.376   1.935
35769W        W 2178  16.602  18.234  10.527
35770W        W 2179  12.661  39.315   4.095
35771W        W 2180  31.983  10.834  12.069
35772W        W 2181  13.214  12.212  12.158
35773W        W 2182  26.970  11.323   3.632
35774W        W 2183   3.255  44.493  14.789
35775W        W 2184  27.712   4.820  13.926
35776W        W 2185  30.902   9.088  12.402
35777W        W 2186  32.398  38.014   0.370
35778W        W 2187  41.970  14.412  14.824
35779W        W 2188  44.528  34.135   1.836
35780W        W 2189  24.519   9.904  10.753
35781W        W 2190   4.967  44.027   2.286
35782W        W 2191  20.517   2.079   3.993
35783W        W 2192  37.078  14.782  11.584
35784W        W 2193  13.247  22.481   0.666
35785W        W 2194  20.384  24.714   0.977
35786W        W 2195  10.926  31.799   1.595
35787W        W 2196  14.697  12.669  13.412
35788W        W 2197  32.564  40.096   3.508
35789W        W 2198  23.012   5.470  14.776
35790W        W 2199  16.569  12.318   4.333
35791W        W 2200  10.151  21.007  12.295
35792W        W 2201   1.309  12.780  11.550
35793W        W 2202  23.789  19.165   4.014
35794W        W 2203   0.781   2.946   4.285
35795W        W 2204   5.197  14.291  12.235
35796W        W 2205  27.980  15.934   2.811
35797W        W 2206  25.476   9.875  12.435
35798W        W 2207  39.859  37.537   1.433
35799W        W 2208   0.527   0.263  10.764
35800W        W 2209  25.761  30.968  12.324
35801W        W 2210  36.586  35.618   1.826
35802W        W 2211   9.403  41.752  13.967
35803W        W 2212  22.979   3.327   4.420
35804W        W 2213  33.106  38.710   4.608
35805W        W 2214  35.488  30.849  13.975
35806W        W 2215  39.713   5.885   0.782
35807W        W 2216  29.929   7.261  11.651
35808W        W 2217  20.568  14.158  12.527
35809W        W 2218   3.498  29.447  12.689
35810W        W 2219  25.634  36.147  12.983
35811W        W 2220  19.687   1.671   3.034
35812W        W 2221   5.570  30.871   3.874
35813W        W 2222   0.392  28.369   4.972
35814W        W 2223  11.808   6.739  14.459
35815W        W 2224  42.032   6.443  13.528
35816W        W 2225  36.766   6.354   1.846
35817W        W 2226   6.827  21.522   5.062
35818W        W 2227  14.505  32.685  13.433
35819W        W 2228  17.704  25.663  14.473
35820W        W 2229  17.462  40.224   4.810
35821W        W 2230  13.801  19.123   1.795
35822W        W 2231  40.365  34.010  11.952
35823W        W 2232  26.495  12.156  14.565
35824W        W 2233  30.944   1.033   0.021
35825W        W 2234  30.132  20.847   1.891
35826W        W 2235  33.561  16.970   3.296
35827W        W 2236   7.457  15.617  11.172
35828W        W 2237  44.054  13.710   0.525
35829W        W 2238  11.324   4.737   2.896
35830W        W 2239  17.787  30.540   3.422
35831W        W 2240  37.634  13.969   4.579
35832W        W 2241  32.455  36.591  10.652
35833W        W 2242  31.918  20.770  11.261
35834W        W 2243  44.024  34.577   3.812
35835W        W 2244  40.443   3.887   2.136
35836W        W 2245  23.406  30.325   3.925
35837W        W 2246  42.385  20.008   3.137
35838W        W 2247   9.115  20.124   2.395
35839W        W 2248  42.232   8.610  12.877
35840W        W 2249  14.926   8.603  10.893
35841W        W 2250  35.582  19.138  10.620
35842W        W 2251  33.711  27.962  14.867
35843W        W 2252  13.118  19.284  12.601
35844W        W 2253  17.802  11.670  11.495
35845W        W 2254   3.428  24.680   0.380
35846W        W 2255  15.560  13.420  10.847
35847W        W 2256  23.979   4.361   4.526
35848W        W 2257   1.956  40.049  11.619
35849W        W 2258   6.953  21.995  11.554
35850W        W 2259  25.278  34.078  13.012
35851W        W 2260  33.023  15.296   1.125
35852W        W 2261   4.199   0.845   0.899
35853W        W 2262  10.215   8.353  13.256
35854W        W 2263  38.502  15.078  13.263
35855W        W 2264   3.421  33.652   0.571
35856W        W 2265   4.976   5.638   4.540
35857W        W 2266  18.800  10.370   1.152
35858W        W 2267  38.043  16.588   3.850
35859W        W 2268  21.843   9.181  12.616
35860W        W 2269   5.765  22.129   0.928
35861W        W 2270   3.502  22.142  12.502
35862W        W 2271  34.038  32.728   4.616
35863W        W 2272  15.561  43.868   4.231
35864W        W 2273   9.752  43.669  14.964
35865W        W 2274   0.557  27.130  11.005
35866W        W 2275  42.396  24.689   4.524
35867W        W 2276   6.257   4.925   2.068
35868W        W 2277  44.689  15.373  13.319
35869W        W 2278  41.533   5.336   2.883
35870W        W 2279   9.241  40.563   0.311
35871W        W 2280  38.491   6.415   1.355
35872W        W 2281   1.332  23.244   3.672
35873W        W 2282  12.910  24.662  14.770
35874W        W 2283  26.048   2.840  11.065
35875W        W 2284  12.220   6.333   4.177
35876W        W 2285  20.728  37.070   0.204
35877W        W 2286  33.928   7.452  13.287
35878W        W 2287  35.423  27.048  12.535
35879W        W 2288  43.507  11.622   1.601
35880W        W 2289   6.964  24.909   0.456
35881W        W 2290  15.133  13.967   0.929
35882W        W 2291  21.118   6.749   1.892
35883W        W 2292  32.392  42.213   1.743
35884W        W 2293  19.563  23.632   4.038
35885W        W 2294  37.575  42.884   3.377
35886W        W 2295  42.095  13.956  12.620
35887W        W 2296   8.802  36.302   0.189
35888W        W 2297   5.128  32.358  13.080
35889W        W 2298  15.836  27.201   4.064
35890W        W 2299  24.559  20.743   0.432
35891W        W 2300  19.212  19.139   4.599
35892W        W 2301  11.857   1.896   1.249
35893W        W 2302   8.637  39.152   2.382
35894W        W 2303  20.244  39.510  13.821
35895W        W 2304  26.326  16.823  10.049
35896W        W 2305  15.330   2.462   3.825
35897W        W 2306  38.283  42.306   4.850
35898W        W 2307   7.836  37.584  10.825
35899W        W 2308  23.165  10.586  13.580
35900W        W 2309   1.804   2.845   1.367
35901W        W 2310  33.397   7.408  14.040
35902W        W 2311  37.634  15.629   3.849
35903W        W 2312   2.311  31.132   0.287
35904W        W 2313   8.648  35.311  12.033
35905W        W 2314  19.693  36.745  14.865
35906W        W 2315   8.513  39.468   0.545
35907W        W 2316  42.531  34.356   2.774
35908W        W 2317  14.381  23.266  13.034
35909W        W 2318  33.065  24.284   1.255
35910W        W 2319  15.317  19.018  12.027
35911W        W 2320  15.614  39.323  12.649
35912W        W 2321  13.568  34.495   2.336
35913W        W 2322  30.661  34.183  14.002
35914W        W 2323  18.775  13.237   1.868
35915W        W 2324  31.507  43.807  12.442
35916W        W 2325   8.325  14.568  12.596
35917W        W 2326  25.490  11.107   2.843
35918W        W 2327  10.767  15.975  12.692
35919W        W 2328  41.938  25.117   2.234
35920W        W 2329  30.957  17.610  12.958
35921W        W 2330  17.914   7.234   4.340
35922W        W 2331   3.171  41.814  12.362
35923W        W 2332  16.677  25.355  14.989
35924W        W 2333  31.538   5.919  11.524
35925W        W 2334  33.953  21.049  14.320
35926W        W 2335  15.618  41.298   0.826
35927W        W 2336  32.487   1.830  10.881
35928W        W 2337  14.826  18.165   3.726
35929W        W 2338   5.197  23.183  12.076
35930W        W 2339   9.418   9.344   0.686
35931W        W 2340  24.594  36.952  11.497
35932W        W 2341  28.054  24.971   3.631
35933W        W 2342   9.436   1.711  12.937
35934W        W 2343  37.832   6.455   4.147
35935W        W 2344  42.442  37.366   3.750
35936W        W 2345  16.075  10.896   0.727
35937W        W 2346  14.206  25.858   0.765
35938W        W 2347  17.956  11.030   0.563
35939W        W 2348  16.964  10.380   4.822
35940W        W 2349   3.933  30.706   0.970
35941W        W 2350  32.316  36.907  11.087
35942W        W 2351   2.989  10.735   4.936
35943W        W 2352  14.029  22.980   0.277
35944W        W 2353  27.109  19.102   2.612
35945W        W 2354  28.122   4.938   4.685
35946W        W 2355   3.937  41.593   3.650
35947W        W 2356  33.175  38.939   0.959
35948W        W 2357  13.238  27.743  13.888
35949W        W 2358  33.133  26.217  12.503
35950W        W 2359  22.672  20.610  10.585
35951W        W 2360  43.887  12.130   4.210
35952W        W 2361  31.837  21.096  10.472
35953W        W 2362  33.095  39.081  11.112
35954W        W 2363   1.904  32.836   0.401
35955W        W 2364  16.279  29.945   3.631
35956W        W 2365  25.142  42.725  12.360
35957W        W 2366  22.616  34.483   1.845
35958W        W 2367  30.441   6.294  14.515
35959W        W 2368   7.368  35.077  12.372
35960W        W 2369  21.239  35.477  12.965
35961W        W 2370  40.559  27.139   4.604
35962W        W 2371  44.303  23.627  11.207
35963W        W 2372  33.590  28.883   0.886
35964W        W 2373  36.605  39.085   4.718
35965W        W 2374  30.015   5.743   4.593
35966W        W 2375  22.813  37.928   1.276
35967W        W 2376  22.087  40.735   0.266
35968W        W 2377  11.376   3.196  11.050
35969W        W 2378  36.272  32.117   0.490
35970W        W 2379   9.598  11.317   1.248
35971W        W 2380  28.871  27.079   4.907
35972W        W 2381  24.015  15.134   4.708
35973W        W 2382  35.790  15.276  14.856
35974W        W 2383  36.090  23.535  13.830
35975W        W 2384  32.546  31.472  12.003
35976W        W 2385  21.280  13.537   1.903
35977W        W 2386  41.976  21.496  11.176
35978W        W 2387  17.764  14.303  13.655
35979W        W 2388   8.890  32.885  13.942
35980W        W 2389  13.213  19.456  10.214
35981W        W 2390  20.185   2.641  13.382
35982W        W 2391  24.175  17.891  11.135
35983W        W 2392  23.207  21.556   4.913
35984W        W 2393  24.551   6.485  13.313
35985W        W 2394   5.285  11.384   0.215
35986W        W 2395  15.371  23.462  12.498
35987W        W 2396  24.189  12.704   3.668
35988W        W 2397  17.076  41.479  11.542
35989W        W 2398  27.641  16.216   0.472
35990W        W 2399  14.135  12.034   1.208
35991W        W 2400  18.931  24.127  13.859
35992W        W 2401  41.589  20.074   4.090
35993W        W 2402   7.160   4.332  10.860
35994W        W 2403  33.936  11.607   2.272
35995W        W 2404  42.427  28.372  14.549
35996W        W 2405   4.824  41.718  10.211
35997W        W 2406  19.323   7.878   4.682
35998W        W 2407  24.740  23.908  10.177
35999W        W 2408  14.626   4.176  13.449
36000W        W 2409  24.924  28.962   1.690
36001W        W 2410  23.008  34.759  12.034
36002W        W 2411  23.664  26.568   1.356
36003W        W 2412  24.951   7.781  14.426
36004W        W 2413  14.478  37.118  12.623
36005W        W 2414  37.660   9.919  13.386
36006W        W 2415   3.956   1.011   1.789
36007W        W 2416  34.840   0.668   2.918
36008W        W 2417  24.095  42.384   4.239
36009W        W 2418  25.952  40.396  11.605
36010W        W 2419  43.881  36.924   3.659
36011W        W 2420  36.938  28.767   2.698
36012W        W 2421   0.951  13.143  12.993
36013W        W 2422  29.614  42.394   3.811
36014W        W 2423  11.202  28.933   1.112
36015W        W 2424  42.895  32.825  11.215
36016W        W 2425  15.609  28.112   2.555
36017W        W 2426  10.663  23.456   1.742
36018W        W 2427  42.782  27.371  12.764
36019W        W 2428  41.967  19.110  10.966
36020W        W 2429  19.296  26.856  11.546
36021W        W 2430  34.258  29.935   3.712
36022W        W 2431  16.527  32.477  10.509
36023W        W 2432  12.437   0.723  12.498
36024W        W 2433  11.382  18.182   0.303
36025W        W 2434  34.048  41.896  14.286
36026W        W 2435  15.198   5.702  10.439
36027W        W 2436   2.222  23.745   2.718
36028W        W 2437   9.702  33.418   1.629
36029W        W 2438   2.505  33.665  14.717
36030W        W 2439  11.930   3.409  14.455
36031W        W 2440  33.503  40.284  14.780
36032W        W 2441  13.621  20.497  10.735
36033W        W 2442  14.423   8.727   1.095
36034W        W 2443  25.215   5.448  14.627
36035W        W 2444  13.282  26.254  11.580
36036W        W 2445  16.533  11.192   0.523
36037W        W 2446  42.341  13.630  13.936
36038W        W 2447   6.396  41.022  12.056
36039W        W 2448  11.922  32.101   0.309
36040W        W 2449  32.494  26.133  14.712
36041W        W 2450  24.083  43.271   0.490
36042W        W 2451  39.770  14.807   4.644
36043W        W 2452  36.317  21.787   2.706
36044W        W 2453  18.297  28.545   0.734
36045W        W 2454  30.961  40.734  12.524
36046W        W 2455   6.176  12.421  12.864
36047W        W 2456   7.219  14.766  10.665
36048W        W 2457  41.089  12.253   2.799
36049W        W 2458  12.399  40.206   2.426
36050W        W 2459  25.106  37.807  14.423
36051W        W 2460  26.002   5.220  10.614
36052W        W 2461   3.200   9.358   1.293
36053W        W 2462  29.993  33.654  12.866
36054W        W 2463  18.178  30.892  14.215
36055W        W 2464  29.189  37.927  12.238
36056W        W 2465  18.134   9.171  10.436
36057W        W 2466  36.013   5.135  13.200
36058W        W 2467  23.063  26.255  12.847
36059W        W 2468  22.030  16.384  14.909
36060W        W 2469  15.514  36.901  12.848
36061W        W 2470  24.007  28.215   4.085
36062W        W 2471  35.580  44.682   1.248
36063W        W 2472  37.266  11.352  10.211
36064W        W 2473  29.088   5.991   2.276
36065W        W 2474  28.489  36.560   3.898
36066W        W 2475  42.788  35.477  11.513
36067W        W 2476  26.556  32.103  14.794
36068W        W 2477   9.404   3.196  11.224
36069W        W 2478  20.101  42.901   1.680
36070W        W 2479  22.477  19.482   1.024
36071W        W 2480  13.315  24.746  11.430
36072W        W 2481   4.240  22.552   0.833
36073W        W 2482  42.778  24.205  11.630
36074W        W 2483  41.061  28.158   3.541
36075W        W 2484   0.863   0.938   2.626
36076W        W 2485  16.233  26.247  11.773
36077W        W 2486  28.871  32.900   0.567
36078W        W 2487  44.031   3.388  13.424
36079W        W 2488  34.862  44.964  12.482
36080W        W 2489  31.390  40.843  13.906
36081W        W 2490  25.180  28.333  12.598
36082W        W 2491  23.534  22.927   3.115
36083W        W 2492  39.519  24.951   2.766
36084W        W 2493  26.196   6.412   0.976
36085W        W 2494  27.155  42.193  12.164
36086W        W 2495  31.995   7.323   1.650
36087W        W 2496  12.173  35.867  10.719
36088W        W 2497  20.166  37.523   1.640
36089W        W 2498  31.153  40.276   3.431
36090W        W 2499   6.112  34.092  13.435
36091W        W 2500  39.663   1.063   0.969
36092W        W 2501   1.929  39.286  12.038
36093W        W 2502  21.048  35.344  14.861
36094W        W 2503  14.721  24.687   4.131
36095W        W 2504  28.725  21.535   5.080
36096W        W 2505  15.198   5.314   4.547
36097W        W 2506  17.125   6.458  10.688
36098W        W 2507  11.712   8.207  10.975
36099W        W 2508  27.725  41.273   0.635
36100W        W 2509  31.544  44.229  11.491
36101W        W 2510  41.511  16.733   2.583
36102W        W 2511  16.645  20.100  12.593
36103W        W 2512  43.706  21.112   0.396
36104W        W 2513  26.196  30.587   4.845
36105W        W 2514   6.727  26.997  11.141
36106W        W 2515  11.652  36.465  14.855
36107W        W 2516  38.768  21.079   0.479
36108W        W 2517   7.914  37.875   0.206
36109W        W 2518  11.931  22.551   4.401
36110W        W 2519  12.600  36.928   3.208
36111W        W 2520  15.418  27.437  13.972
36112W        W 2521  12.227  30.216   0.984
36113W        W 2522  17.364  17.574   3.021
36114W        W 2523  30.606  41.546   0.490
36115W        W 2524  33.940  40.803  10.612
36116W        W 2525  42.066   1.796   0.838
36117W        W 2526  14.152  38.605  14.800
36118W        W 2527  33.702  29.557  12.453
36119W        W 2528  42.892  40.365  10.569
36120W        W 2529  29.685   8.237  14.516
36121W        W 2530  33.932  14.292   0.334
36122W        W 2531  40.579   1.863   4.045
36123W        W 2532  44.023  36.566  14.410
36124W        W 2533  18.134  22.500   0.687
36125W        W 2534  19.622  43.636  14.392
36126W        W 2535   5.110  32.848  12.772
36127W        W 2536  32.015   1.131  14.799
36128W        W 2537  24.178  35.454   1.125
36129W        W 2538   3.846   6.383   2.147
36130W        W 2539  30.906  39.157  13.916
36131W        W 2540   7.780   9.682  11.541
36132W        W 2541  14.304   4.797  13.933
36133W        W 2542  16.311  31.706  12.610
36134W        W 2543  34.880  43.480  11.135
36135W        W 2544  33.065  35.781  11.939
36136W        W 2545  35.801  35.526  10.743
36137W        W 2546  29.453  25.989   2.320
36138W        W 2547  31.711  23.499  11.849
36139W        W 2548   6.574  18.568   0.209
36140W        W 2549  27.045   4.668   1.777
36141W        W 2550   6.518  27.684  14.003
36142W        W 2551   1.770  36.829   0.128
36143W        W 2552  32.390   9.902   2.247
36144W        W 2553  34.942  17.176  14.331
36145W        W 2554   2.621  29.043   2.816
36146W        W 2555  26.342  12.283  13.605
36147W        W 2556   6.260  33.991   3.630
36148W        W 2557  31.094   8.517   3.240
36149W        W 2558  44.901  13.627   2.426
36150W        W 2559   0.426   9.142  14.580
36151W        W 2560   6.661  37.347  11.195
36152W        W 2561  27.114  44.314  10.704
36153W        W 2562  17.596  39.806  13.005
36154W        W 2563  24.995  27.364  14.413
36155W        W 2564   1.345  25.498   2.968
36156W        W 2565  30.985   6.685   0.953
36157W        W 2566  15.245   2.902   4.093
36158W        W 2567  41.987  11.677   3.437
36159W        W 2568  39.613   3.646  12.656
36160W        W 2569  17.142  31.440   1.731
36161W        W 2570   0.918  30.850  13.545
36162W        W 2571  25.002  12.235   1.248
36163W        W 2572  35.891   2.442   1.319
36164W        W 2573  17.549   5.989  14.759
36165W        W 2574  28.659  13.707  12.601
36166W        W 2575   8.406   5.710  11.128
36167W        W 2576  39.190   0.304   2.987
36168W        W 2577  35.459  32.690  13.478
36169W        W 2578  24.949   1.279  12.001
36170W        W 2579  15.822  43.969   3.100
36171W        W 2580  10.170  26.469   0.407
36172W        W 2581   4.248  21.003   2.285
36173W        W 2582  16.603  17.117  14.368
36174W        W 2583  13.793   5.289   4.618
36175W        W 2584   9.311  12.772  12.172
36176W        W 2585   8.135  27.930   4.097
36177W        W 2586  18.295  12.261  14.016
36178W        W 2587  22.597  38.049  11.159
36179W        W 2588  13.404  23.330   3.293
36180W        W 2589  19.167  21.074  13.311
36181W        W 2590  19.888  19.454   2.562
36182W        W 2591  40.799  43.547   1.350
36183W        W 2592  38.509  41.319   3.324
36184W        W 2593  17.179  38.135   0.237
36185W        W 2594   3.788  34.957  11.599
36186W        W 2595  29.250  17.001   2.606
36187W        W 2596  34.541  17.054  13.494
36188W        W 2597  27.041  15.787   1.407
36189W        W 2598   5.796  27.235  11.273
36190W        W 2599  27.895  13.166  10.593
36191W        W 2600   3.366  39.678   3.274
36192W        W 2601  33.603  22.391  10.212
36193W        W 2602  42.806  15.365   2.259
36194W        W 2603  16.989  10.274  11.056
36195W        W 2604   1.559   4.753   2.703
36196W        W 2605  43.987  33.370   2.791
36197W        W 2606  13.909  34.080  11.177
36198W        W 2607   1.308  42.421   4.612
36199W        W 2608   1.922  29.502   0.791
36200W        W 2609   7.180   6.161   4.083
36201W        W 2610  38.936   5.402   0.312
36202W        W 2611   0.271  34.608   1.341
36203W        W 2612   6.113  35.039  13.715
36204W        W 2613   3.255  33.463  13.881
36205W        W 2614  30.302   8.066  10.082
36206W        W 2615  19.125  15.124   3.008
36207W        W 2616  22.952   4.380   0.429
36208W        W 2617  42.691   9.886  11.692
36209W        W 2618   7.369  28.276  14.473
36210W        W 2619  14.643   2.648  11.228
36211W        W 2620  42.837  44.176  14.147
36212W        W 2621   3.292  10.149   4.538
36213W        W 2622  25.057  22.851  11.850
36214W        W 2623  29.183   3.514   4.751
36215W        W 2624   2.757  18.153  13.554
36216W        W 2625  12.832  44.581  14.500
36217W        W 2626  10.684  21.066   4.502
36218W        W 2627  34.177  14.185   4.942
36219W        W 2628   3.602  44.428  12.945
36220W        W 2629  23.097  32.041   1.713
36221W        W 2630  25.463  35.277  13.941
36222W        W 2631  23.362  18.435  11.069
36223W        W 2632  41.134   5.689   3.056
36224W        W 2633  14.167  12.883   0.697
36225W        W 2634  44.470  13.199  13.426
36226W        W 2635  14.063   0.194   4.191
36227W        W 2636  18.502  44.527  14.940
36228W        W 2637  10.782  37.815   3.701
36229W        W 2638   8.958  29.017   4.705
36230W        W 2639   1.896   7.569  12.049
36231W        W 2640  35.193  33.594   5.293
36232W        W 2641   2.204  34.828   1.634
36233W        W 2642  18.312  13.168   2.137
36234W        W 2643  13.209   3.810   0.566
36235W        W 2644   8.389  16.992  13.434
36236W        W 2645  42.790  37.040  12.078
36237W        W 2646  42.083  40.006   3.565
36238W        W 2647  27.620  29.535   2.822
36239W        W 2648  20.651  21.700   0.700
36240W        W 2649  30.791   4.411  10.600
36241W        W 2650   5.926  27.124   2.495
36242W        W 2651   3.524  31.961  11.706
36243W        W 2652  40.518  12.202  13.044
36244W        W 2653  37.089   4.002  13.411
36245W        W 2654  26.128  18.045   1.256
36246W        W 2655  11.843  17.294   0.357
36247W        W 2656  33.154  18.291   3.182
36248W        W 2657  44.391   4.870  12.909
36249W        W 2658   8.460  16.406  11.713
36250W        W 2659  37.321  11.802   1.441
36251W        W 2660  11.185  37.020  10.701
36252W        W 2661  33.074  23.313   2.251
36253W        W 2662  26.479  14.884   4.625
36254W        W 2663  17.802  33.455   2.241
36255W        W 2664  36.431  17.653  12.005
36256W        W 2665   1.540  33.403   1.342
36257W        W 2666  28.522  12.246   2.628
36258W        W 2667  39.806  20.628  12.772
36259W        W 2668  34.911  43.128   0.297
36260W        W 2669   6.320  15.065   0.813
36261W        W 2670  36.560  39.982   0.106
36262W        W 2671  42.017  37.339   0.099
36263W        W 2672  38.321  26.844  11.158
36264W        W 2673  28.808  33.460   2.693
36265W        W 2674   5.034  37.437   1.328
36266W        W 2675  33.233  19.815   4.583
36267W        W 2676  18.561  30.260   3.133
36268W        W 2677  17.556  29.197   2.289
36269W        W 2678  15.197   8.926   4.042
36270W        W 2679   8.747  16.148  10.631
36271W        W 2680  16.323  27.158  11.158
36272W        W 2681  43.487  42.329  14.431
36273W        W 2682  29.676  19.165  11.644
36274W        W 2683  41.062   6.117   2.282
36275W        W 2684  36.343  12.288   1.785
36276W        W 2685  10.363  16.982   4.076
36277W        W 2686  41.846   2.094   0.445
36278W        W 2687  18.811  29.928   1.051
36279W        W 2688   0.667  25.249   2.938
36280W        W 2689   2.268   7.886   3.077
36281W        W 2690  23.276  19.196   1.411
36282W        W 2691   9.302  22.211  14.389
36283W        W 2692  13.281   2.430   0.308
36284W        W 2693  41.308  36.705   2.723
36285W        W 2694  27.957   3.331  12.385
36286W        W 2695  21.999  37.138  10.780
36287W        W 2696  17.554  17.312  13.975
36288W        W 2697  12.137  12.283   3.599
36289W        W 2698  41.743  15.594  13.024
36290W        W 2699  42.437  30.947   3.902
36291W        W 2700  36.922  17.527  11.950
36292W        W 2701  42.212   1.382   2.530
36293W        W 2702  12.282  22.546  11.230
36294W        W 2703  27.122  37.584   1.693
36295W        W 2704   2.264  27.966   4.353
36296W        W 2705  32.175  13.735  11.737
36297W        W 2706   6.147  22.426   0.748
36298W        W 2707  11.075   3.190  14.013
36299W        W 2708  10.225   0.432   3.137
36300W        W 2709  42.490  11.081  13.905
36301W        W 2710  21.330  38.258   4.462
36302W        W 2711   6.722  18.812   2.109
36303W        W 2712  34.832  10.307   1.189
36304W        W 2713  28.599  26.176  12.522
36305W        W 2714  18.724  16.311  14.378
36306W        W 2715   9.841  23.986   2.173
36307W        W 2716  18.533  15.517   4.069
36308W        W 2717  22.971   2.411   0.238
36309W        W 2718  22.528  13.362  10.723
36310W        W 2719  12.096  16.849   2.647
36311W        W 2720  38.364  13.257   2.099
36312W        W 2721  39.588  25.165  12.558
36313W        W 2722  34.019  30.106   4.818
36314W        W 2723  14.116  34.838  10.809
36315W        W 2724  11.825  36.863   0.413
36316W        W 2725  18.365  44.728   2.295
36317W        W 2726  19.644   3.261  10.853
36318W        W 2727  36.528  16.768  11.566
36319W        W 2728   8.284   0.705   2.013
36320W        W 2729  38.322  12.546  11.890
36321W        W 2730   3.340   5.000   2.894
36322W        W 2731  41.812   5.317  10.586
36323W        W 2732  30.134   6.303   2.714
36324W        W 2733  30.005  38.115   3.248
36325W        W 2734  39.277  39.661  12.256
36326W        W 2735  14.614   0.874   1.956
36327W        W 2736   0.378  24.024   2.329
36328W        W 2737  38.515  26.655  10.673
36329W        W 2738   5.255  37.562   0.873
36330W        W 2739  37.990  20.837  13.009
36331W        W 2740  14.302  35.579  12.936
36332W        W 2741  40.727  25.207  10.598
36333W        W 2742   9.126  29.426  13.673
36334W        W 2743  21.922  40.096  13.110
36335W        W 2744   0.971   3.677  13.912
36336W        W 2745  41.661  31.069   1.417
36337W        W 2746  30.904  28.888   4.149
36338W        W 2747  28.011  33.924  11.954
36339W        W 2748  34.369  41.981  11.074
36340W        W 2749  25.393  33.726  11.898
36341W        W 2750  19.152  36.442  10.653
36342W        W 2751  28.189  40.389  12.915
36343W        W 2752   5.385  34.217   2.448
36344W        W 2753   0.831  18.612   0.074
36345W        W 2754   0.034   7.441  12.546
36346W        W 2755  30.681  23.061  10.887
36347W        W 2756  44.818  37.877   0.739
36348W        W 2757   2.909  12.782   0.049
36349W        W 2758   1.748  20.097  14.826
36350W        W 2759   4.241  23.941  13.386
36351W        W 2760  34.588  15.851   0.396
36352W        W 2761  20.756  40.311  12.422
36353W        W 2762  31.952  35.019   0.584
36354W        W 2763  21.599  22.232  14.113
36355W        W 2764  26.732  23.168  14.640
36356W        W 2765  15.056  40.662   1.545
36357W        W 2766  16.695  29.161  13.446
36358W        W 2767   1.862   5.407   4.334
36359W        W 2768  21.621   4.837  14.876
36360W        W 2769   6.306  39.015   4.517
36361W        W 2770   8.422  15.640  11.060
36362W        W 2771  27.974  25.724  11.033
36363W        W 2772  44.711  43.832  12.823
36364W        W 2773   7.277  13.415   0.488
36365W        W 2774  13.266   9.687   2.450
36366W        W 2775  23.579  34.548   4.744
36367W        W 2776  30.008  12.538   4.082
36368W        W 2777  39.609  28.613  14.762
36369W        W 2778  34.170  30.524   3.073
36370W        W 2779  37.529   1.011  13.712
36371W        W 2780  20.636  32.021   4.663
36372W        W 2781   2.896  16.840   2.855
36373W        W 2782  23.262  28.041   4.503
36374W        W 2783  22.975  21.278  12.705
36375W        W 2784  18.587  15.546  11.657
36376W        W 2785  42.223   3.854   2.623
36377W        W 2786  33.569  20.240   4.590
36378W        W 2787  29.252  30.445   1.526
36379W        W 2788  33.962  28.004  12.367
36380W        W 2789   1.039  15.822   4.050
36381W        W 2790  23.982  42.433  10.699
36382W        W 2791  15.703   3.277  14.373
36383W        W 2792  28.091  33.813  13.185
36384W        W 2793  36.680  11.619  12.570
36385W        W 2794  38.044  23.943  11.605
36386W        W 2795   5.221  12.214   4.554
36387W        W 2796  28.211  12.151   4.603
36388W        W 2797   7.426  28.676  11.134
36389W        W 2798   0.060  15.051  11.974
36390W        W 2799  30.390   8.839   3.324
36391W        W 2800  39.958  42.996   1.236
36392W        W 2801  10.122   9.342   2.683
36393W        W 2802   1.852  10.860   2.388
36394W        W 2803  37.997  10.845  11.525
36395W        W 2804  18.232  44.431   4.136
36396W        W 2805  35.059  11.078  11.487
36397W        W 2806   7.948  23.392   3.318
36398W        W 2807   5.468  12.381   0.228
36399W        W 2808  20.272   4.179  13.487
36400W        W 2809  27.183  29.072  10.689
36401W        W 2810  17.556  12.154  13.461
36402W        W 2811   1.411  27.157   0.253
36403W        W 2812   0.339  20.481  12.527
36404W        W 2813  39.186  14.970   2.580
36405W        W 2814  13.880   7.844   4.159
36406W        W 2815  24.823   8.802   0.684
36407W        W 2816   6.845  32.509  12.222
36408W        W 2817  34.021  22.637   1.696
36409W        W 2818  21.714  40.848   1.660
36410W        W 2819  41.339  25.756   1.429
36411W        W 2820  31.916  18.700   5.406
36412W        W 2821  34.377  18.863   2.823
36413W        W 2822   2.021  26.457  13.402
36414W        W 2823  25.333  24.704   4.431
36415W        W 2824  41.422   3.261  12.037
36416W        W 2825  39.992   6.612  11.737
36417W        W 2826   6.150  31.654  14.352
36418W        W 2827  10.588   0.621   3.587
36419W        W 2828  37.900  17.296  13.456
36420W        W 2829  24.920   7.490   4.479
36421W        W 2830  44.131  17.727  12.116
36422W        W 2831  23.010  41.291   0.014
36423W        W 2832   7.261   9.796  13.267
36424W        W 2833   5.943  42.868   1.741
36425W        W 2834  42.052  10.223  12.052
36426W        W 2835  21.004  11.704  11.862
36427W        W 2836  12.586  13.149   1.069
36428W        W 2837  38.511  33.931  11.552
36429W        W 2838  14.623   4.703   3.278
36430W        W 2839   8.786   7.590  14.243
36431W        W 2840  21.270  20.493  11.240
36432W        W 2841  13.007  30.410   3.869
36433W        W 2842   5.472  41.333   0.254
36434W        W 2843  21.672   0.659  12.963
36435W        W 2844  37.337  29.382   0.235
36436W        W 2845  42.352  35.360  10.730
36437W        W 2846   0.517  42.311  12.651
36438W        W 2847  26.254  35.847  13.480
36439W        W 2848  26.126  25.130  12.612
36440W        W 2849  35.948  11.514  13.897
36441W        W 2850  15.643  39.278   1.696
36442W        W 2851  40.473  34.710   2.842
36443W        W 2852  24.942  16.615  12.547
36444W        W 2853  12.880  39.334   3.245
36445W        W 2854   7.491   4.360   0.969
36446W        W 2855   3.417   7.208   0.768
36447W        W 2856  29.675   4.300   2.333
36448W        W 2857   5.234  29.919   2.732
36449W        W 2858   0.004   1.480  13.529
36450W        W 2859  14.190  16.291  11.398
36451W        W 2860  40.454  19.460   4.679
36452W        W 2861  25.792  24.090  14.414
36453W        W 2862  16.472  30.669  11.552
36454W        W 2863   4.162  24.600   2.637
36455W        W 2864   6.602  18.728  11.209
36456W        W 2865  30.412  36.012   0.401
36457W        W 2866  23.643  36.230   1.216
36458W        W 2867  10.711  11.260   2.942
36459W        W 2868  44.694  24.553   1.984
36460W        W 2869  42.926  35.022  13.852
36461W        W 2870   8.732  25.951   3.643
36462W        W 2871  30.226  27.195  14.061
36463W        W 2872  25.769  35.471   2.536
36464W        W 2873   7.354  36.080   4.168
36465W        W 2874  21.609  15.793  12.799
36466W        W 2875  25.294  28.221   5.038
36467W        W 2876  29.029   2.753   1.246
36468W        W 2877  27.957  21.759   1.425
36469W        W 2878  33.485  19.781  11.194
36470W        W 2879  25.430  32.569  14.300
36471W        W 2880  15.211  30.235   1.712
36472W        W 2881  20.084  41.881  14.304
36473W        W 2882   4.228   7.587  14.412
36474W        W 2883  34.282  16.143   0.765
36475W        W 2884  30.431   8.277   0.241
36476W        W 2885  31.464  14.359  10.691
36477W        W 2886  14.999  42.460   4.170
36478W        W 2887  24.993  18.169   0.557
36479W        W 2888   0.539   9.311  11.651
36480W        W 2889  33.405  25.577   2.171
36481W        W 2890  40.806  41.247   3.648
36482W        W 2891   7.580   0.037   2.760
36483W        W 2892  18.519  38.855   5.028
36484W        W 2893  27.485  38.482  12.921
36485W        W 2894  24.234   7.148   2.430
36486W        W 2895  22.997  31.907  10.856
36487W        W 2896   6.283   6.359  11.599
36488W        W 2897   3.899   1.492   3.197
36489W        W 2898   6.343  44.138   1.401
36490W        W 2899  38.390  21.002   1.429
36491W        W 2900  16.600  34.564   1.784
36492W        W 2901  43.140  19.740  13.914
36493W        W 2902  27.623   9.628   1.965
36494W        W 2903  42.295  10.226  12.944
36495W        W 2904  35.243   5.591   4.061
36496W        W 2905  24.696  27.062  14.729
36497W        W 2906  25.341   7.452   4.141
36498W        W 2907  21.893   6.171   3.915
36499W        W 2908  11.693  27.472  13.882
36500W        W 2909  13.852   2.436  12.977
36501W        W 2910  36.072  44.047   4.251
36502W        W 2911  12.256   2.073   2.361
36503W        W 2912  41.619   4.150   0.869
36504W        W 2913  18.352  35.878  13.082
36505W        W 2914  35.910  18.263  11.729
36506W        W 2915  24.335  12.177   0.895
36507W        W 2916  38.774  32.803  12.062
36508W        W 2917  32.297   5.836   5.063
36509W        W 2918   0.435  20.036  10.498
36510W        W 2919   1.012  24.739   4.347
36511W        W 2920   8.879  39.022   1.257
36512W        W 2921  31.124  36.814  14.021
36513W        W 2922  39.805  15.468  14.066
36514W        W 2923   0.675   8.360   0.269
36515W        W 2924  40.487  31.603   3.878
36516W        W 2925  43.291  41.172  11.060
36517W        W 2926  42.830  19.624  11.708
36518W        W 2927  17.722  17.553  11.168
36519W        W 2928  40.343  22.290   1.399
36520W        W 2929  38.151  34.336   9.936
36521W        W 2930   1.268  34.300   0.845
36522W        W 2931  21.452  40.441   2.459
36523W        W 2932  43.550   9.831   1.795
36524W        W 2933  17.925  24.844  11.243
36525W        W 2934  31.425  17.586   2.699
36526W        W 2935  44.823  40.502  14.192
36527W        W 2936  25.287  22.006  10.782
36528W        W 2937  38.972  32.456  13.338
36529W        W 2938   4.418  43.360  12.925
36530W        W 2939   1.331  32.278   0.736
36531W        W 2940   7.503  41.389  10.753
36532W        W 2941  28.510  26.453  12.088
36533W        W 2942  35.394  27.497  13.875
36534W        W 2943   7.436  35.040  14.696
36535W        W 2944   1.770  41.400  11.579
36536W        W 2945  15.265  18.841  14.466
36537W        W 2946  25.117  10.886  12.881
36538W        W 2947   9.352  21.158  12.073
36539W        W 2948   1.734  36.576   1.427
36540W        W 2949   5.558  20.040  13.750
36541W        W 2950   8.368  24.060  14.924
36542W        W 2951  23.649  23.063   1.302
36543W        W 2952  20.056  12.682  12.029
36544W        W 2953   4.953   3.257   1.993
36545W        W 2954  29.397  26.052   0.221
36546W        W 2955   2.960   3.762   3.796
36547W        W 2956  27.947  41.791   0.197
36548W        W 2957   7.171  43.722  14.347
36549W        W 2958   2.983  31.918   0.373
36550W        W 2959  20.260  41.679   3.380
36551W        W 2960   9.210   1.646   4.219
36552W        W 2961   3.605  22.435   1.904
36553W        W 2962  36.204   6.690  13.444
36554W        W 2963  32.563  12.797  13.892
36555W        W 2964  27.853  40.100  14.891
36556W        W 2965  38.418   0.766   0.185
36557W        W 2966  33.180  36.388  13.437
36558W        W 2967  42.592  16.362   1.991
36559W        W 2968   3.708  29.026  14.486
36560W        W 2969  15.843  40.470  13.327
36561W        W 2970  29.173  39.890   0.461
36562W        W 2971   5.792   0.462   2.372
36563W        W 2972   5.297   4.479  12.068
36564W        W 2973  21.621  37.112   0.224
36565W        W 2974   6.761  17.034  11.493
36566W        W 2975   5.984  26.769  11.213
36567W        W 2976  30.409   6.714  13.341
36568W        W 2977  27.614   4.008  10.856
36569W        W 2978   2.360  21.488   4.620
36570W        W 2979   5.762  28.997  14.699
36571W        W 2980   5.607  38.649  14.889
36572W        W 2981   9.001  24.151   2.662
36573W        W 2982  34.986  19.275   4.354
36574W        W 2983  22.514  24.510   0.958
36575W        W 2984  14.593  15.291   1.368
36576W        W 2985  44.202  37.952  12.938
36577W        W 2986   7.884   3.285  12.464
36578W        W 2987  41.983  36.341   0.266
36579W        W 2988  23.555  27.833  13.007
36580W        W 2989  19.622  25.392   4.178
36581W        W 2990  11.663  42.620   3.274
36582W        W 2991  20.393  41.263   0.817
36583W        W 2992  24.626  41.572   4.790
36584W        W 2993  11.732   2.404  10.369
36585W        W 2994   0.569  15.198   3.324
36586W        W 2995   6.835  12.707  12.732
36587W        W 2996  23.893  28.105   3.212
36588W        W 2997  19.590  35.636   0.133
36589W        W 2998  19.271   7.856   2.117
36590W        W 2999  15.817   8.496  11.919
36591W        W 3000  38.380  37.519   3.665
36592W        W 3001  23.018  42.379  12.781
36593W        W 3002  14.178  13.785   2.891
36594W        W 3003  42.350  15.078   2.322
36595W        W 3004  20.793   6.572  12.415
36596W        W 3005   4.007  20.219   1.922
36597W        W 3006  31.385  10.942  11.382
36598W        W 3007  19.227   5.141  14.579
36599W        W 3008  27.255  29.830   1.261
36600W        W 3009  26.582  21.102  12.323
36601W        W 3010  25.559  28.804   2.537
36602W        W 3011   7.446  31.118   4.028
36603W        W 3012   8.146  38.854  11.581
36604W        W 3013  25.795  19.720  11.110
36605W        W 3014  25.269  40.150  12.957
36606W        W 3015  44.353  22.058   1.708
36607W        W 3016   7.967  42.793  13.826
36608W        W 3017   9.575  40.473  12.865
36609W        W 3018   4.421   6.973  12.962
36610W        W 3019   1.150  26.050   4.231
36611W        W 3020  33.523  13.279  12.585
36612W        W 3021  28.640  15.246  10.626
36613W        W 3022  21.439  33.829  11.915
36614W        W 3023  18.352  25.936   1.918
36615W        W 3024   7.239  37.548  13.575
36616W        W 3025  10.419   9.921   4.052
36617W        W 3026  42.283  22.718   5.047
36618W        W 3027  11.388  44.091  11.536
36619W        W 3028   3.016   5.606  11.111
36620W        W 3029   0.738  44.465   1.313
36621W        W 3030  28.366  39.463  11.480
36622W        W 3031  34.987   1.138  14.930
36623W        W 3032  16.731  38.461  10.282
36624W        W 3033  38.413  30.506  11.452
36625W        W 3034  21.718  16.369   0.313
36626W        W 3035  26.632  11.154  13.065
36627W        W 3036  22.516  35.635   0.974
36628W        W 3037  13.895  14.786  10.723
36629W        W 3038  14.402   2.855   2.173
36630W        W 3039  32.480  44.543   4.576
36631W        W 3040  23.155   9.215   1.309
36632W        W 3041   8.828  42.395   0.787
36633W        W 3042   0.847  33.425   2.430
36634W        W 3043  30.475   2.583   2.273
36635W        W 3044  12.312   6.265   0.877
36636W        W 3045  30.731  32.248   4.364
36637W        W 3046   3.393  15.758   0.763
36638W        W 3047  17.642  43.182  10.610
36639W        W 3048  10.177  17.690  12.381
36640W        W 3049  33.298  41.016   3.766
36641W        W 3050  21.568   2.878   1.680
36642W        W 3051  23.449  14.531   2.365
36643W        W 3052  28.243   1.963  11.576
36644W        W 3053  29.479   0.210   0.047
36645W        W 3054   8.882  41.884   0.439
36646W        W 3055  14.225  21.264  11.669
36647W        W 3056  16.693   1.071   4.905
36648W        W 3057  35.529  21.720  12.569
36649W        W 3058   3.737  32.634   4.936
36650W        W 3059  30.374  38.445  14.897
36651W        W 3060  10.094  10.531   4.827
36652W        W 3061   8.027  41.818  13.998
36653W        W 3062   8.101  22.541  14.533
36654W        W 3063  17.532  43.003   3.320
36655W        W 3064   2.238  26.694  12.946
36656W        W 3065  22.707  41.996   1.713
36657W        W 3066  25.354  43.211   2.696
36658W        W 3067  12.195  39.205   4.618
36659W        W 3068   3.317   8.722  12.596
36660W        W 3069   3.011  33.812  10.809
36661W        W 3070  35.470  40.847   2.717
36662W        W 3071   1.471  40.530   0.368
36663W        W 3072  28.270  28.608   2.400
36664W        W 3073  14.377  28.596  13.419
36665W        W 3074  14.400  11.279  11.624
36666W        W 3075  44.332   0.673  12.128
36667W        W 3076  21.009  40.052   0.706
36668W        W 3077  16.450  12.601   3.261
36669W        W 3078  44.546  20.804   0.295
36670W        W 3079  24.223   6.015   0.011
36671W        W 3080  44.795  27.068   4.675
36672W        W 3081  40.793  10.960  12.129
36673W        W 3082  31.280   9.720  14.200
36674W        W 3083  12.328  43.671   4.085
36675W        W 3084   1.882  36.447   0.483
36676W        W 3085  20.066  28.244   4.089
36677W        W 3086  34.629  39.502  13.330
36678W        W 3087  43.356   0.715  10.998
36679W        W 3088  28.171  24.999  13.420
36680W        W 3089  25.101  39.221  12.155
36681W        W 3090   2.345   0.446  11.544
36682W        W 3091  16.739   2.314  12.444
36683W        W 3092  15.647  28.479  14.754
36684W        W 3093  10.782   5.473   3.835
36685W        W 3094  19.565  18.546   0.379
36686W        W 3095  19.053  10.775  14.026
36687W        W 3096  21.423  37.342  11.986
36688W        W 3097  19.201  35.969  14.874
36689W        W 3098  24.202  32.828   1.678
36690W        W 3099  22.463  40.468   0.524
36691W        W 3100  25.035  43.993   0.828
36692W        W 3101  35.672  26.641   0.750
36693W        W 3102  10.420  17.614  13.980
36694W        W 3103  20.234  23.662  13.079
36695W        W 3104  43.716  16.133  11.527
36696W        W 3105  42.540  41.347  14.197
36697W        W 3106   3.360  42.410   4.554
36698W        W 3107  38.873  27.527  12.724
36699W        W 3108  38.416  20.522  13.066
36700W        W 3109   6.261   6.581   9.517
36701W        W 3110  37.494  38.990  13.764
36702W        W 3111  41.759  34.382  10.826
36703W        W 3112  29.703  16.925  13.864
36704W        W 3113   6.502  11.131  11.709
36705W        W 3114  12.275  29.020  12.490
36706W        W 3115  29.990  25.958   1.416
36707W        W 3116  22.945  12.853  12.059
36708W        W 3117  37.873  42.556   3.066
36709W        W 3118  21.177  37.493  14.149
36710W        W 3119  38.003  11.267   4.159
36711W        W 3120  36.804  37.395   0.244
36712W        W 3121  10.361  23.527  12.451
36713W        W 3122  14.004  36.019  12.842
36714W        W 3123   9.910   3.306  13.391
36715W        W 3124  32.031   1.555  11.562
36716W        W 3125  13.022   1.265   1.433
36717W        W 3126  23.663   7.949   3.343
36718W        W 3127   2.083   5.102   2.004
36719W        W 3128   8.136   9.791   1.942
36720W        W 3129  35.775  20.123  13.829
36721W        W 3130  44.782  41.174   2.340
36722W        W 3131  33.641   5.305   2.449
36723W        W 3132  15.213   5.669   2.245
36724W        W 3133  12.587  37.311   5.627
36725W        W 3134  12.390  35.483   3.680
36726W        W 3135  13.531  26.131   1.412
36727W        W 3136  19.593  44.271   0.912
36728W        W 3137   4.133  27.478  11.112
36729W        W 3138  28.421  11.486   4.217
36730W        W 3139  36.165  14.810   1.898
36731W        W 3140  17.428  28.221   0.918
36732W        W 3141   1.957   6.290   1.767
36733W        W 3142  36.535  11.750   1.948
36734W        W 3143  12.457   0.407  12.947
36735W        W 3144  44.420   2.008  11.644
36736W        W 3145  42.960   8.173   3.669
36737W        W 3146  36.073   7.342   4.576
36738W        W 3147  36.330  39.507   0.187
36739W        W 3148  40.864  19.105  14.831
36740W        W 3149  43.830  29.155   3.978
36741W        W 3150  44.083  20.773   0.537
36742W        W 3151  39.784  23.903  11.224
36743W        W 3152  22.097  29.789  13.688
36744W        W 3153   3.506  14.734  10.573
36745W        W 3154  16.731  15.420   2.102
36746W        W 3155  17.984  26.131  13.184
36747W        W 3156  21.443  13.800  10.909
36748W        W 3157  36.493  30.349   1.357
36749W        W 3158   3.766   5.680   3.753
36750W        W 3159  17.308  43.676  11.381
36751W        W 3160  37.931  16.911   2.975
36752W        W 3161  43.002  25.792   2.115
36753W        W 3162  20.886   8.273   0.857
36754W        W 3163  15.159  23.700  12.910
36755W        W 3164  34.567  10.703  10.679
36756W        W 3165   7.009  23.943   0.762
36757W        W 3166  28.912  31.204  13.421
36758W        W 3167  16.535  36.445   3.288
36759W        W 3168   5.674   7.912   1.807
36760W        W 3169  34.523  38.519   2.824
36761W        W 3170   5.339   1.715  11.040
36762W        W 3171  30.247  27.409  14.833
36763W        W 3172   5.737  13.842  14.416
36764W        W 3173  12.124  37.796  12.583
36765W        W 3174  33.947   5.800  12.572
36766W        W 3175  35.874  44.404   4.594
36767W        W 3176  11.898  10.625  11.787
36768W        W 3177  42.802  31.623  14.444
36769W        W 3178  42.860  44.320   1.903
36770W        W 3179   1.376  24.482  12.160
36771W        W 3180  44.200   3.114   2.818
36772W        W 3181  36.994  23.495   3.144
36773W        W 3182  14.924  41.959  12.333
36774W        W 3183   6.295  32.164  13.314
36775W        W 3184   6.315  39.969   4.942
36776W        W 3185   1.997  37.662  12.394
36777W        W 3186  24.172   7.766   3.170
36778W        W 3187  43.839  32.865  12.512
36779W        W 3188  13.989  32.752  12.035
36780W        W 3189   8.946   0.329  12.545
36781W        W 3190  19.493  21.347  12.683
36782W        W 3191  44.981  44.933   2.199
36783W        W 3192  42.680  31.158   1.346
36784W        W 3193  29.648  26.668   3.685
36785W        W 3194   3.431  26.322   3.146
36786W        W 3195  36.750  28.522  12.590
36787W        W 3196   5.608  32.580  14.952
36788W        W 3197   2.008   6.251  14.924
36789W        W 3198  22.291  14.295   3.185
36790W        W 3199  13.800   5.256   4.100
36791W        W 3200  42.122  33.090  14.900
36792W        W 3201  42.814  41.070   1.265
36793W        W 3202  33.217   7.334  10.543
36794W        W 3203  31.561  21.068   4.741
36795W        W 3204  22.165  44.674  14.805
36796W        W 3205  15.916   6.018  13.917
36797W        W 3206   3.400  26.232   0.350
36798W        W 3207  23.229  24.746   3.604
36799W        W 3208  24.882  17.107   3.769
36800W        W 3209   5.614  39.435   3.173
36801W        W 3210   6.658  11.696   4.696
36802W        W 3211   9.395  19.498   3.670
36803W        W 3212  20.129  22.691   2.137
36804W        W 3213  31.561  38.406  10.638
36805W        W 3214   3.237  12.671   3.840
36806W        W 3215  43.827  30.004   5.093
36807W        W 3216  16.026   7.329   2.314
36808W        W 3217  25.431  10.752   3.626
36809W        W 3218  10.701  32.028   3.682
36810W        W 3219  39.529  41.813  11.156
36811W        W 3220  26.259  30.644   3.742
36812W        W 3221  40.754  42.187   3.316
36813W        W 3222  17.734  29.675  14.988
36814W        W 3223   6.900   0.297   3.310
36815W        W 3224  40.467  37.006  12.590
36816W        W 3225  40.927  30.490  14.361
36817W        W 3226  16.713  11.805  11.254
36818W        W 3227  33.391  37.147   0.469
36819W        W 3228  34.518   7.112   0.419
36820W        W 3229  17.652   0.968  13.561
36821W        W 3230  44.868  23.883  13.630
36822W        W 3231  32.998  42.654  11.891
36823W        W 3232  15.407   8.845  14.538
36824W        W 3233  14.284   4.963  14.424
36825W        W 3234  22.610  24.585  11.625
36826W        W 3235  36.648  29.620  10.291
36827W        W 3236   2.542   6.362   3.730
36828W        W 3237  12.359  44.849   0.418
36829W        W 3238  35.725  15.431   0.799
36830W        W 3239   3.678   0.944   0.779
36831W        W 3240   4.793  22.053   0.544
36832W        W 3241  16.729  36.536   3.757
36833W        W 3242  28.785   3.727   3.605
36834W        W 3243  43.361  40.958   2.931
36835W        W 3244  43.044  26.540   4.218
36836W        W 3245  20.053  41.266  14.925
36837W        W 3246  29.081  23.046  12.374
36838W        W 3247  28.620  14.609   0.320
36839W        W 3248  25.783  27.127  13.361
36840W        W 3249  24.584  35.508  10.715
36841W        W 3250  10.149  30.480  12.110
36842W        W 3251  12.520  23.550   3.638
36843W        W 3252  24.977   1.058  13.920
36844W        W 3253  32.304  32.834  13.997
36845W        W 3254  38.630  14.373  10.208
36846W        W 3255   2.174  16.723   0.871
36847W        W 3256  27.469   7.732   3.153
36848W        W 3257  26.639  32.471   3.369
36849W        W 3258  19.790  16.287  11.805
36850W        W 3259  37.377  23.694  13.427
36851W        W 3260  34.459  35.139  12.894
36852W        W 3261  39.145   1.693  14.864
36853W        W 3262  35.285   9.797  13.907
36854W        W 3263  24.542  36.739   2.464
36855W        W 3264  43.298  35.055  14.976
36856W        W 3265  42.403   7.455  14.347
36857W        W 3266   8.481   6.863   2.137
36858W        W 3267   8.909  41.816   3.867
36859W        W 3268  33.729  16.862   4.690
36860W        W 3269  32.809  10.202   2.333
36861W        W 3270  26.286  41.372   2.735
36862W        W 3271  29.950  24.196  11.581
36863W        W 3272  25.329  13.710   4.397
36864W        W 3273  27.132  39.354   3.930
36865W        W 3274  29.032  23.388  13.153
36866W        W 3275  12.846  23.490   2.242
36867W        W 3276   5.334  29.066  14.983
36868W        W 3277  41.082  37.911  14.896
36869W        W 3278   4.964  24.190   0.611
36870W        W 3279   8.811  38.825   2.724
36871W        W 3280  13.131   6.714   4.080
36872W        W 3281   9.448  25.913   5.052
36873W        W 3282  30.962  41.915   2.965
36874W        W 3283  21.447  43.769  14.447
36875W        W 3284  21.918  20.776   0.897
36876W        W 3285  27.006  19.299  12.447
36877W        W 3286  36.685  38.035   2.463
36878W        W 3287  18.988  43.362  11.674
36879W        W 3288  19.247   4.843  13.862
36880W        W 3289  39.543  10.184  14.015
36881W        W 3290  14.621  35.565  11.220
36882W        W 3291   0.102  38.407  10.477
36883W        W 3292   5.444  12.298  14.301
36884W        W 3293  38.172  17.781   1.193
36885W        W 3294  19.671  19.253   4.391
36886W        W 3295  38.773  28.924   0.542
36887W        W 3296  39.981   9.274   2.227
36888W        W 3297  41.217  40.475   1.690
36889W        W 3298  36.871  35.527   4.747
36890W        W 3299  17.048   1.337  14.338
36891W        W 3300   7.391  19.550  13.543
36892W        W 3301  13.830  43.231  13.104
36893W        W 3302  31.111  42.409   4.881
36894W        W 3303  19.851  23.234   0.711
36895W        W 3304   2.497  20.770   0.012
36896W        W 3305  24.184  20.599  10.930
36897W        W 3306   6.214   5.284  10.044
36898W        W 3307   8.761  29.736  13.417
36899W        W 3308  31.029  16.194   4.925
36900W        W 3309  24.573  22.316  13.462
36901W        W 3310  33.024   0.858   3.477
36902W        W 3311  23.350   6.727  12.540
36903W        W 3312   9.641  36.803  13.960
36904W        W 3313   1.499  31.675  10.436
36905W        W 3314  13.771  28.895   3.678
36906W        W 3315  39.288  35.900   2.905
36907W        W 3316   7.810  21.161  12.617
36908W        W 3317  10.892  28.847   2.314
36909W        W 3318  44.273   3.015   3.392
36910W        W 3319  23.064  21.806  12.472
36911W        W 3320  33.847  13.580   1.565
36912W        W 3321   0.192  35.925   4.605
36913W        W 3322  12.963  16.142  12.716
36914W        W 3323  30.642  41.575   2.258
36915W        W 3324  14.957  26.093   2.275
36916W        W 3325  10.557  38.007   1.858
36917W        W 3326  35.187  14.682  12.213
36918W        W 3327   1.790  18.581   3.680
36919W        W 3328   6.369  19.571  11.649
36920W        W 3329  24.133  20.424  14.291
36921W        W 3330  27.632  22.143   3.842
36922W        W 3331  21.207   6.819  13.647
36923W        W 3332   2.470  35.109  12.405
36924W        W 3333   6.209  42.424   1.707
36925W        W 3334  42.718  10.235   3.447
36926W        W 3335  30.169  26.541  11.517
36927W        W 3336  22.591   5.373  11.741
36928W        W 3337  10.380   6.589   2.256
36929W        W 3338  18.713  18.850   3.149
36930W        W 3339  28.604  34.165   2.302
36931W        W 3340  17.086  20.581   9.846
36932W        W 3341  20.289  20.661   1.278
36933W        W 3342  16.319  39.822  10.851
36934W        W 3343   7.008  37.436  14.094
36935W        W 3344  20.420  25.496   1.587
36936W        W 3345  40.034  24.457   1.772
36937W        W 3346  10.867  10.877  10.639
36938W        W 3347   7.740  14.499   3.813
36939W        W 3348  25.690  11.725  11.450
36940W        W 3349  22.679  34.654   1.320
36941W        W 3350  21.255  11.804   0.344
36942W        W 3351  26.915  34.057  12.617
36943W        W 3352   9.817  27.942   2.305
36944W        W 3353  40.843  12.914  11.613
36945W        W 3354  31.572  37.399   2.473
36946W        W 3355  20.562  21.158   4.587
36947W        W 3356   9.318  41.432  13.112
36948W        W 3357  44.503  16.039  10.390
36949W        W 3358  14.332  36.319   1.180
36950W        W 3359  19.045  37.615  12.218
36951W        W 3360  40.124  26.371  13.478
36952W        W 3361   2.364   0.571   2.212
36953W        W 3362  29.808   8.926   5.567
36954W        W 3363   3.377  40.490  14.740
36955W        W 3364   2.973   4.836   3.773
36956W        W 3365   3.667  35.487  12.945
36957W        W 3366   3.456  29.155  11.898
36958W        W 3367  21.834  21.112  11.773
36959W        W 3368   8.868  41.252  12.449
36960W        W 3369  15.754   1.709  13.824
36961W        W 3370   4.165  37.140  11.084
36962W        W 3371  11.620  21.720   2.810
36963W        W 3372  41.512  20.919  12.277
36964W        W 3373  12.781   1.264  11.947
36965W        W 3374  13.632  31.077  12.770
36966W        W 3375  12.814  33.744   2.713
36967W        W 3376  40.113  12.504  12.919
36968W        W 3377  15.962  16.085  12.263
36969W        W 3378  20.268  42.775  10.916
36970W        W 3379  26.929  13.165  12.055
36971W        W 3380  11.289  13.200  11.073
36972W        W 3381  28.119  31.840  11.618
36973W        W 3382  37.459  29.841   0.457
36974W        W 3383  11.417  36.475  14.374
36975W        W 3384   6.957  38.120  13.598
36976W        W 3385  21.107  17.689  12.454
36977W        W 3386  16.602  37.293   0.824
36978W        W 3387  23.530  15.816   0.424
36979W        W 3388  10.343   0.350   0.819
36980W        W 3389  25.212  30.935   4.519
36981W        W 3390  21.140  27.765   2.142
36982W        W 3391  15.510  21.531   1.781
36983W        W 3392  34.575  42.022   0.344
36984W        W 3393  21.156   1.368   4.779
36985W        W 3394  30.830   9.144  12.926
36986W        W 3395   0.332  43.529   2.165
36987W        W 3396  17.391  15.436  10.383
36988W        W 3397  24.506  30.050   2.608
36989W        W 3398  13.931   8.904  13.214
36990W        W 3399  18.245  13.637  14.119
36991W        W 3400   0.003  39.520   3.723
36992W        W 3401  42.368  17.567   1.439
36993W        W 3402  23.029  34.449   0.058
36994W        W 3403  26.820   6.162  12.520
36995W        W 3404  34.331  29.501   2.729
36996W        W 3405  42.247   5.719   2.848
36997W        W 3406  34.111  33.577  14.306
36998W        W 3407  22.590  37.351   2.856
36999W        W 3408  23.403  21.274  12.405
37000W        W 3409   7.370   0.814   4.086
37001W        W 3410  28.240   6.872  12.597
37002W        W 3411  29.278  25.450  10.622
37003W        W 3412   2.498  26.921   3.585
37004W        W 3413  12.439  34.189   4.900
37005W        W 3414  40.836   7.908   2.708
37006W        W 3415  24.959   4.655  12.898
37007W        W 3416  14.744  41.779  10.247
37008W        W 3417  10.697  41.013  13.099
37009W        W 3418  33.135  39.347   3.231
37010W        W 3419  16.676  25.862   0.845
37011W        W 3420  43.547  21.753   2.317
37012W        W 3421  32.589  31.192  11.570
37013W        W 3422  15.115   0.952   4.094
37014W        W 3423  42.898   1.792   3.125
37015W        W 3424  30.180  27.056  11.529
37016W        W 3425  28.072  24.605  14.556
37017W        W 3426  28.381  14.942  10.996
37018W        W 3427  38.639  26.651   0.919
37019W        W 3428  42.966  23.463   1.400
37020W        W 3429  35.433   7.697   4.680
37021W        W 3430  16.808  30.493  14.313
37022W        W 3431  44.548  21.990  13.537
37023W        W 3432   7.273  17.424   1.213
37024W        W 3433  20.231   9.648  12.736
37025W        W 3434  28.329  36.473   0.943
37026W        W 3435   1.948  31.186  13.058
37027W        W 3436  25.640  10.570   0.726
37028W        W 3437  34.426  32.153  12.904
37029W        W 3438  43.398  10.961   5.369
37030W        W 3439   9.349  37.762  13.826
37031W        W 3440  10.226   2.256   3.032
37032W        W 3441  16.695  32.889  12.001
37033W        W 3442  41.896  40.078  11.944
37034W        W 3443  44.289   9.718   3.683
37035W        W 3444  11.081   3.864  10.268
37036W        W 3445  26.222   6.807   3.312
37037W        W 3446  36.541   5.839   0.455
37038W        W 3447   0.560  30.597   0.326
37039W        W 3448  44.991  14.294  14.488
37040W        W 3449  44.267  37.281   3.614
37041W        W 3450  42.320  44.833   1.053
37042W        W 3451  17.323  37.622   1.338
37043W        W 3452   8.455  42.944  14.998
37044W        W 3453  13.836  30.247   1.744
37045W        W 3454  13.778  17.210  10.681
37046W        W 3455  20.967  21.532   0.269
37047W        W 3456  37.322  27.544  11.965
37048W        W 3457   1.836   7.841  13.476
37049W        W 3458  25.554  15.772   4.156
37050W        W 3459  20.913  14.529  13.930
37051W        W 3460  21.641  23.689  10.399
37052W        W 3461  17.522  33.718   2.621
37053W        W 3462  30.061   4.841   4.305
37054W        W 3463  39.201  18.230   4.242
37055W        W 3464  28.417   4.150  14.031
37056W        W 3465  16.905  11.003  14.053
37057W        W 3466   1.290  10.686  12.904
37058W        W 3467  13.185  33.528   0.863
37059W        W 3468   2.134  30.417  12.660
37060W        W 3469  12.851  43.403  13.783
37061W        W 3470  41.397  43.748  12.634
37062W        W 3471  33.865   3.984   0.431
37063W        W 3472  18.207   9.687   0.747
37064W        W 3473   2.473  21.521   0.091
37065W        W 3474  33.580  21.139   4.545
37066W        W 3475  40.558  25.652  10.330
37067W        W 3476  29.000  24.705   0.900
37068W        W 3477   0.977  38.980  12.470
37069W        W 3478   8.910  44.332  13.947
37070W        W 3479  21.690  20.710  11.506
37071W        W 3480  42.993  13.336   0.752
37072W        W 3481  20.197  34.165  12.557
37073W        W 3482  28.403  36.293  12.939
37074W        W 3483   6.973  30.005  13.628
37075W        W 3484  11.897  30.963  14.259
37076W        W 3485  21.130  14.567  13.432
37077W        W 3486   3.719  25.514  13.281
37078W        W 3487   4.145  44.327   2.437
37079W        W 3488   5.020  22.029  10.424
37080W        W 3489   2.460  34.508  11.595
37081W        W 3490  42.501  14.604   4.921
37082W        W 3491  18.982   1.931   3.194
37083W        W 3492  41.784   2.206  11.991
37084W        W 3493  19.493  16.747   0.365
37085W        W 3494   0.917  21.255  11.569
37086W        W 3495  31.931  40.186   1.947
37087W        W 3496  34.960   3.947   1.266
37088W        W 3497  23.967  10.083  14.255
37089W        W 3498  26.636  11.134  10.585
37090W        W 3499  10.806  23.042  11.438
37091W        W 3500  38.516  16.796  13.699
37092W        W 3501  29.808  19.243  12.494
37093W        W 3502  27.033   6.919   0.739
37094W        W 3503  11.511  10.034   0.500
37095W        W 3504  30.486  26.953   1.859
37096W        W 3505  21.042   4.837   1.398
37097W        W 3506  11.276  26.105  13.534
37098W        W 3507   5.645  23.056   4.496
37099W        W 3508   6.453  34.868  11.301
37100W        W 3509  22.721  11.554  13.967
37101W        W 3510  25.184  17.827   4.574
37102W        W 3511   6.474   3.198  13.663
37103W        W 3512   4.941  27.535   1.132
37104W        W 3513  31.027  17.144   3.581
37105W        W 3514  35.419  17.005   4.532
37106W        W 3515  19.990   7.186  13.974
37107W        W 3516  19.041  28.572  12.266
37108W        W 3517  42.990  39.291  11.457
37109W        W 3518  12.191  40.512   2.046
37110W        W 3519  21.013   3.513  14.959
37111W        W 3520   6.425   2.379  10.998
37112W        W 3521  36.536  41.069   2.644
37113W        W 3522  25.733  35.333  14.839
37114W        W 3523   9.583   1.722  10.594
37115W        W 3524  21.561  37.556  12.431
37116W        W 3525  23.601  21.029   5.253
37117W        W 3526  33.120   0.205   5.644
37118W        W 3527  18.606  35.352   3.614
37119W        W 3528   7.943  38.497  10.806
37120W        W 3529   6.730   9.840  13.285
37121W        W 3530  15.174  30.422   2.662
37122W        W 3531  35.068  40.873  11.426
37123W        W 3532  43.774   7.399   4.998
37124W        W 3533   8.277  15.109   0.326
37125W        W 3534  12.921  10.448   4.579
37126W        W 3535  44.863  18.523  10.477
37127W        W 3536  41.766  26.658  12.126
37128W        W 3537   0.976  32.571   0.041
37129W        W 3538   5.150  23.964   9.781
37130W        W 3539   6.753  19.595   1.586
37131W        W 3540  17.597  37.508  13.562
37132W        W 3541   7.871  42.308  13.993
37133W        W 3542  18.063   5.343  13.043
37134W        W 3543  23.959  40.529  11.503
37135W        W 3544  28.957  16.233   3.204
37136W        W 3545  36.926  22.167  13.630
37137W        W 3546  15.205   8.285  13.945
37138W        W 3547  22.910  35.621   4.292
37139W        W 3548  22.369  43.531  12.756
37140W        W 3549   7.157   3.738   3.137
37141W        W 3550  22.601   5.851  10.487
37142W        W 3551  37.790  43.007   1.714
37143W        W 3552  39.128  37.600  11.487
37144W        W 3553  26.229  31.011   3.340
37145W        W 3554   1.925  44.278   2.032
37146W        W 3555   5.195  24.015   0.050
37147W        W 3556   3.757  42.381   3.087
37148W        W 3557  16.125  18.044   3.294
37149W        W 3558  27.904  12.335  14.968
37150W        W 3559  11.107  33.789  11.074
37151W        W 3560  40.041  35.829   1.977
37152W        W 3561  28.194  18.111  11.525
37153W        W 3562  15.614   8.854  13.181
37154W        W 3563  35.825  36.878  12.119
37155W        W 3564  10.590  14.203  12.837
37156W        W 3565  37.307  33.673   2.821
37157W        W 3566  28.559  18.648   0.422
37158W        W 3567  40.287  12.685  12.439
37159W        W 3568  44.998  26.555  10.640
37160W        W 3569  21.621  44.452  11.510
37161W        W 3570  40.968  14.711   2.122
37162W        W 3571  29.064   0.151   0.502
37163W        W 3572   1.518  44.913   3.393
37164W        W 3573  18.361  33.450  13.942
37165W        W 3574  39.553  43.729   0.134
37166W        W 3575  18.258   3.346  11.466
37167W        W 3576   0.956  29.442   4.917
37168W        W 3577  41.809  17.329  14.406
37169W        W 3578  26.535   3.382  13.516
37170W        W 3579  32.633   1.433   4.206
37171W        W 3580  33.030  31.939   3.217
37172W        W 3581   6.431   9.287   1.766
37173W        W 3582  20.938  34.043   4.585
37174W        W 3583  42.064  36.410   3.683
37175W        W 3584  14.420   5.594   2.119
37176W        W 3585  29.109   3.504   3.924
37177W        W 3586  40.790  27.348   1.818
37178W        W 3587   0.795  32.812  10.721
37179W        W 3588  30.121  12.170   1.174
37180W        W 3589  40.362   7.799  14.488
37181W        W 3590   2.775  36.960  12.183
37182W        W 3591  10.618   6.924   1.867
37183W        W 3592  25.828   3.707  13.483
37184W        W 3593  37.429  36.090  10.500
37185W        W 3594   0.406  20.111   4.112
37186W        W 3595  31.988  14.116   2.487
37187W        W 3596  10.327  28.193   4.477
37188W        W 3597  34.900  10.342   4.619
37189W        W 3598  20.953  35.863  11.987
37190W        W 3599  40.478  34.893   4.609
37191W        W 3600  38.955  25.451  10.691
37192W        W 3601  14.548  20.818  14.836
37193W        W 3602  27.141  21.038   4.533
37194W        W 3603  28.645  28.024  14.555
37195W        W 3604   1.559  13.895  14.590
37196W        W 3605  18.579  27.953  10.771
37197W        W 3606  26.344  21.252   1.026
37198W        W 3607  15.909  16.106   0.835
37199W        W 3608  39.323   9.695   3.367
37200W        W 3609  41.334   6.806  13.467
37201W        W 3610  11.191  43.982   3.153
37202W        W 3611  13.676  22.206   0.419
37203W        W 3612  39.555   2.938  10.738
37204W        W 3613  10.208  28.914   3.267
37205W        W 3614  39.534   0.046   0.976
37206W        W 3615  23.183  38.843   0.463
37207W        W 3616  43.428  41.273   3.599
37208W        W 3617  29.946  21.247   4.525
37209W        W 3618  41.810  19.087  11.459
37210W        W 3619  44.534  38.039   4.954
37211W        W 3620  10.086  14.504   3.665
37212W        W 3621  14.361   2.393  12.874
37213W        W 3622  18.133  30.027   2.482
37214W        W 3623  44.712  39.563  12.097
37215W        W 3624  27.619   1.524  14.747
37216W        W 3625   6.660  42.478   3.792
37217W        W 3626  10.090   8.890  10.328
37218W        W 3627  12.898  30.203  12.075
37219W        W 3628  20.097  33.259   0.768
37220W        W 3629  21.802   3.403  11.519
37221W        W 3630  39.673  30.708   0.816
37222W        W 3631  26.481   4.417   1.782
37223W        W 3632   8.975  31.965  13.846
37224W        W 3633  32.281  28.001   3.724
37225W        W 3634  31.571  35.861   2.255
37226W        W 3635  32.544  13.360   2.790
37227W        W 3636  15.604  34.474   1.851
37228W        W 3637  33.388  34.775  11.209
37229W        W 3638  19.294   4.199  11.060
37230W        W 3639   3.350  18.341  12.928
37231W        W 3640  40.204  31.496   1.411
37232W        W 3641  14.802  36.937  13.573
37233W        W 3642   8.123  41.226   0.651
37234W        W 3643  29.031  13.258   1.307
37235W        W 3644   2.825  40.994   0.432
37236W        W 3645  27.395  19.545  11.480
37237W        W 3646  35.027  23.183   3.631
37238W        W 3647  37.317   7.817  11.625
37239W        W 3648  41.050   7.405   0.002
37240W        W 3649  22.173  32.972   2.615
37241W        W 3650   1.640  22.060   5.126
37242W        W 3651  21.545  16.123   4.528
37243W        W 3652   5.634   8.282   1.016
37244W        W 3653   8.377  29.107   1.671
37245W        W 3654  35.969  37.591  13.182
37246W        W 3655   6.028  15.123  13.833
37247W        W 3656  21.562   3.828  13.530
37248W        W 3657   6.178  14.571   0.870
37249W        W 3658  39.864  25.360  11.129
37250W        W 3659  32.626  21.365   2.300
37251W        W 3660  29.353  12.336   0.276
37252W        W 3661  35.081  37.692  13.545
37253W        W 3662  21.521  32.066  12.981
37254W        W 3663   4.343  42.797  12.596
37255W        W 3664  19.946  10.954  11.573
37256W        W 3665  16.670  11.193  13.083
37257W        W 3666  42.405  13.861  13.470
37258W        W 3667   9.418  21.805   4.183
37259W        W 3668   5.860  36.011  11.512
37260W        W 3669   6.332  18.097  14.419
37261W        W 3670   4.297  17.711   0.240
37262W        W 3671  27.999  10.314  12.753
37263W        W 3672  17.829  40.528  14.194
37264W        W 3673  32.131  42.737   3.314
37265W        W 3674   5.969  26.016  14.759
37266W        W 3675  19.088  35.085   0.963
37267W        W 3676   5.819  38.464  14.430
37268W        W 3677  30.209  17.044   2.420
37269W        W 3678  22.181  32.883  14.434
37270W        W 3679   7.361   3.557   4.531
37271W        W 3680  10.668  12.281  11.530
37272W        W 3681  33.737  21.634  11.661
37273W        W 3682  25.776  28.216   9.819
37274W        W 3683  13.058   9.837  14.764
37275W        W 3684   6.840  34.115   0.329
37276W        W 3685  41.541   4.070  14.457
37277W        W 3686  41.852  38.845  12.523
37278W        W 3687  43.751  27.222   2.251
37279W        W 3688  34.586  39.254   0.665
37280W        W 3689  43.428  11.436   9.721
37281W        W 3690  36.374  36.102   2.745
37282W        W 3691  37.854  33.630  10.568
37283W        W 3692  39.469  27.616   1.692
37284W        W 3693  37.526  34.696  12.985
37285W        W 3694  11.422  39.411  14.271
37286W        W 3695   9.225  38.892  14.402
37287W        W 3696  23.515   3.416   4.403
37288W        W 3697   9.112  15.119  11.589
37289W        W 3698  17.650  28.505  14.043
37290W        W 3699  24.461   0.545  12.535
37291W        W 3700  29.718  29.819   2.325
37292W        W 3701  35.571   0.419   3.913
37293W        W 3702  25.021  38.220   0.744
37294W        W 3703   3.549  28.701   3.239
37295W        W 3704   3.480  33.689  13.466
37296W        W 3705  14.783   1.329  14.183
37297W        W 3706  34.319  12.715   2.810
37298W        W 3707  25.697   1.937  12.862
37299W        W 3708  36.329   2.328  10.512
37300W        W 3709  40.094  28.038  11.963
37301W        W 3710   8.728   8.409  14.000
37302W        W 3711  12.244   9.442   0.203
37303W        W 3712  29.972   3.088  12.429
37304W        W 3713   6.150  22.607  12.500
37305W        W 3714  23.860  35.339  11.237
37306W        W 3715  19.155   5.892  11.678
37307W        W 3716  12.622  41.837  10.694
37308W        W 3717  29.669  18.344  11.453
37309W        W 3718  36.311  39.941  12.436
37310W        W 3719  24.097  33.923  12.174
37311W        W 3720  16.666  17.743  13.887
37312W        W 3721  27.016  34.379   2.808
37313W        W 3722   8.369  30.432   4.621
37314W        W 3723  16.010  14.625  12.093
37315W        W 3724  37.995   6.222   1.360
37316W        W 3725   1.149  43.141  11.924
37317W        W 3726  35.376  20.354  11.094
37318W        W 3727  26.981  33.924   3.738
37319W        W 3728   9.955  30.046  11.245
37320W        W 3729  17.526  40.332   1.201
37321W        W 3730  14.821   8.542   3.374
37322W        W 3731  35.075  28.169  13.828
37323W        W 3732  10.606  35.912  14.060
37324W        W 3733  31.392  35.461  10.496
37325W        W 3734  17.710  39.544   2.273
37326W        W 3735  31.449  34.028   2.226
37327W        W 3736  18.457  28.044  10.281
37328W        W 3737   3.222   0.193  13.146
37329W        W 3738  13.043  38.366   3.218
37330W        W 3739   1.426   6.205   4.699
37331W        W 3740  39.482  27.685   0.646
37332W        W 3741  15.258   9.869   1.661
37333W        W 3742  13.425   5.915  10.270
37334W        W 3743  18.422  27.996  13.227
37335W        W 3744  29.700   4.659   4.022
37336W        W 3745  20.124  28.099  13.922
37337W        W 3746  23.546   3.722   4.844
37338W        W 3747  36.518   3.077  13.884
37339W        W 3748   1.271  32.040  12.105
37340W        W 3749  43.077  26.732   0.843
37341W        W 3750   7.691   5.240  12.917
37342W        W 3751   0.871  37.174  11.024
37343W        W 3752  31.559  15.362   0.865
37344W        W 3753   9.338   8.431  13.368
37345W        W 3754  21.020  20.095  10.997
37346W        W 3755   7.497   1.297   3.883
37347W        W 3756  36.230  15.581  14.922
37348W        W 3757  39.841  34.008   2.303
37349W        W 3758  12.017  43.662   4.535
37350W        W 3759  17.820  38.714   3.674
37351W        W 3760  42.442  44.851  13.111
37352W        W 3761   0.333  13.370  12.391
37353W        W 3762  13.353   5.482  11.995
37354W        W 3763  13.203  30.522  10.262
37355W        W 3764  26.073  34.898   4.285
37356W        W 3765  24.179  38.187  11.458
37357W        W 3766   5.630  25.177  13.375
37358W        W 3767   1.517  35.472  10.661
37359W        W 3768  10.158  39.861  12.570
37360W        W 3769  40.540  28.142   1.505
37361W        W 3770  35.611   3.108   0.584
37362W        W 3771   3.409  17.610  12.604
37363W        W 3772   8.843  21.252  11.886
37364W        W 3773  37.634  43.872  12.077
37365W        W 3774  44.722   0.823  12.990
37366W        W 3775  22.501  15.663  12.807
37367W        W 3776  44.482  35.853  11.238
37368W        W 3777   6.363   0.316  11.623
37369W        W 3778   9.229  43.281  13.465
37370W        W 3779  34.856   7.956  13.593
37371W        W 3780   0.337  39.940   4.667
37372W        W 3781  13.259   9.785   1.937
37373W        W 3782  12.582  19.363  11.349
37374W        W 3783  18.693   6.239   2.097
37375W        W 3784  38.027  37.912   3.762
37376W        W 3785   4.730  31.272   4.590
37377W        W 3786   9.133  41.307  14.047
37378W        W 3787  24.459  12.584  10.650
37379W        W 3788  26.473   1.305   4.725
37380W        W 3789  27.803  34.599  11.095
37381W        W 3790  13.530   9.604  14.815
37382W        W 3791   0.802  12.183   3.677
37383W        W 3792  36.835  38.349  10.716
37384W        W 3793  24.044  28.095   2.255
37385W        W 3794  29.804  41.443  14.841
37386W        W 3795  41.823  26.020  10.537
37387W        W 3796  29.354  32.189   0.327
37388W        W 3797  34.271  27.673   0.228
37389W        W 3798   7.871   1.504   0.955
37390W        W 3799  15.041   5.361  12.576
37391W        W 3800  12.685  40.417  11.035
37392W        W 3801  44.655  10.199  13.860
37393W        W 3802  16.578  20.147  10.654
37394W        W 3803  44.742  28.013  12.531
37395W        W 3804  32.015   5.681   2.200
37396W        W 3805  38.784  38.675   4.977
37397W        W 3806  40.835  36.455   2.642
37398W        W 3807  40.042  22.059  10.669
37399W        W 3808  41.973   2.930   4.941
37400W        W 3809   6.573  11.542   4.208
37401W        W 3810  39.092  20.840  13.328
37402W        W 3811  12.128  21.777   3.743
37403W        W 3812  15.761   6.715  14.078
37404W        W 3813  32.858  31.560  12.616
37405W        W 3814   3.418  14.392   2.838
37406W        W 3815  27.746  24.858  10.387
37407W        W 3816  23.217  22.341   1.815
37408W        W 3817   2.166  20.419  14.793
37409W        W 3818  30.178  11.656   1.809
37410W        W 3819  13.066  35.384   0.666
37411W        W 3820  12.115   1.221  14.283
37412W        W 3821   7.407   7.346  12.441
37413W        W 3822  13.145   5.267   1.513
37414W        W 3823  10.313  14.035   3.652
37415W        W 3824  34.885  29.596   4.657
37416W        W 3825   2.150  16.116   2.684
37417W        W 3826   3.724  31.626  10.954
37418W        W 3827  42.347  40.436   3.647
37419W        W 3828  15.603  25.486  12.504
37420W        W 3829   9.138  42.990   1.376
37421W        W 3830  24.862  40.428  13.845
37422W        W 3831  28.913  22.064  10.983
37423W        W 3832  30.609   5.669   3.232
37424W        W 3833  30.964  36.578  11.613
37425W        W 3834  13.386  38.051  11.967
37426W        W 3835   7.473  34.708   3.614
37427W        W 3836  23.691  31.488   3.565
37428W        W 3837   8.900  44.212   3.921
37429W        W 3838   4.792  44.071  13.168
37430W        W 3839  22.163  28.544   2.674
37431W        W 3840   5.356  32.523   4.557
37432W        W 3841  20.701  40.150  13.266
37433W        W 3842  32.136  23.214   4.747
37434W        W 3843  36.507  41.590  11.179
37435W        W 3844  26.819   8.763   0.935
37436W        W 3845  42.409  22.277   1.835
37437W        W 3846  18.499  21.604   0.325
37438W        W 3847  13.669  14.288  10.702
37439W        W 3848  33.392  21.098  13.344
37440W        W 3849  40.016  15.024   4.240
37441W        W 3850  33.129  44.987  12.375
37442W        W 3851  27.478  41.571   1.593
37443W        W 3852  17.863  11.341  12.611
37444W        W 3853  17.140   5.375  12.645
37445W        W 3854  22.998  27.658   4.780
37446W        W 3855   4.934  21.470  14.681
37447W        W 3856  19.171  39.866   3.368
37448W        W 3857  36.952   4.183   0.935
37449W        W 3858   8.892  11.216  14.816
37450W        W 3859  33.415  16.012   0.951
37451W        W 3860   3.692  12.365   3.195
37452W        W 3861  20.966  29.846  11.182
37453W        W 3862  22.695  40.694  12.057
37454W        W 3863  25.723   4.939   0.285
37455W        W 3864  39.339  17.137  14.538
37456W        W 3865  30.463   1.763   4.517
37457W        W 3866  23.753  30.892  10.997
37458W        W 3867  21.428  43.483   3.206
37459W        W 3868  27.299   9.366   1.646
37460W        W 3869  39.039  33.066   4.779
37461W        W 3870   7.312  21.264   1.835
37462W        W 3871   9.349  15.343  10.673
37463W        W 3872  19.782  14.340   3.655
37464W        W 3873  40.488  36.614  14.509
37465W        W 3874  27.231  13.030   2.041
37466W        W 3875  10.896  21.528   4.551
37467W        W 3876  17.830  33.338  14.858
37468W        W 3877  21.662  13.057  11.138
37469W        W 3878  39.999   6.502   0.213
37470W        W 3879  34.360   4.819  12.580
37471W        W 3880  13.192  37.465   9.790
37472W        W 3881   1.208  40.912  11.724
37473W        W 3882  20.307   0.422  12.795
37474W        W 3883  24.261   6.855  12.888
37475W        W 3884  35.429  31.436   2.502
37476W        W 3885  15.673  41.553   2.718
37477W        W 3886   9.644   7.813  12.758
37478W        W 3887  40.687   5.968  11.574
37479W        W 3888  37.314   3.307   3.624
37480W        W 3889  10.945  27.693   2.866
37481W        W 3890   1.264   7.410  11.443
37482W        W 3891   1.985  30.590  11.784
37483W        W 3892  11.819  10.487  10.628
37484W        W 3893   2.322  27.937  10.728
37485W        W 3894  22.185  25.009  13.969
37486W        W 3895  33.498  31.148   5.079
37487W        W 3896  16.374  15.130  11.154
37488W        W 3897   9.381  23.803   1.924
37489W        W 3898  41.404  31.065   1.887
37490W        W 3899  32.344  31.977  11.145
37491W        W 3900  11.773  28.562   0.270
37492W        W 3901  21.302  31.892  12.523
37493W        W 3902  41.280   4.699   3.324
37494W        W 3903  25.723  27.076   3.746
37495W        W 3904  36.289  15.372   3.259
37496W        W 3905  13.215  16.184   3.406
37497W        W 3906   8.695   6.786   2.628
37498W        W 3907  31.960  23.651   1.817
37499W        W 3908  12.156  24.315   0.433
37500W        W 3909  39.073   7.838   0.774
37501W        W 3910  31.138  31.166   1.321
37502W        W 3911  38.398  21.277  11.943
37503W        W 3912   6.621  28.797   2.904
37504W        W 3913  43.211   8.396  13.787
37505W        W 3914  10.459  39.797   2.262
37506W        W 3915  32.597  36.451   0.878
37507W        W 3916   0.910  20.131   2.908
37508W        W 3917   1.878  44.289   4.720
37509W        W 3918   8.621  34.467  13.388
37510W        W 3919  35.977  34.485  14.831
37511W        W 3920  36.869  28.425   2.115
37512W        W 3921  11.142  35.584  13.370
37513W        W 3922  11.989   4.888   4.491
37514W        W 3923  38.817  40.843   2.780
37515W        W 3924  15.084  41.168   1.477
37516W        W 3925   0.970   6.373  13.578
37517W        W 3926   7.309   1.031   0.265
37518W        W 3927   9.266   6.697   0.802
37519W        W 3928  27.992  12.733  14.621
37520W        W 3929  36.032  25.304   3.894
37521W        W 3930  26.138   7.540  14.342
37522W        W 3931  19.774   4.807  13.861
37523W        W 3932  25.041  24.620   2.781
37524W        W 3933  43.887  15.235   1.648
37525W        W 3934  43.020   0.891  13.473
37526W        W 3935   2.620   9.720   3.369
37527W        W 3936  44.262  41.077  12.541
37528W        W 3937  42.868  38.550  12.085
37529W        W 3938  35.991  22.919   0.043
37530W        W 3939  18.022  22.080   3.827
37531W        W 3940  18.291  11.099   0.967
37532W        W 3941  21.691  10.948   1.880
37533W        W 3942   2.051   5.044  13.445
37534W        W 3943  31.238   2.853   1.294
37535W        W 3944  19.806  16.753  14.893
37536W        W 3945  37.508   2.910  14.732
37537W        W 3946  25.226  23.064   2.242
37538W        W 3947  13.881  28.788   2.838
37539W        W 3948   9.823  34.579  11.244
37540W        W 3949  22.985  20.300   2.849
37541W        W 3950  16.557  15.641  12.977
37542W        W 3951   3.913  28.345   0.274
37543W        W 3952  42.942  24.244  14.418
37544W        W 3953  33.574  22.265  12.003
37545W        W 3954   8.745   4.370  12.837
37546W        W 3955  20.921  17.900  13.129
37547W        W 3956  44.700  30.848  14.243
37548W        W 3957  21.471  32.716  12.519
37549W        W 3958  21.895  37.506   3.444
37550W        W 3959  34.204  28.964  12.930
37551W        W 3960  23.801  13.083  11.971
37552W        W 3961  31.119  18.029   1.248
37553W        W 3962  13.723  24.071  13.774
37554W        W 3963  14.578  11.525  13.904
37555W        W 3964  32.695  25.792  11.380
37556W        W 3965  21.121  40.938  11.707
37557W        W 3966  16.475  41.349  12.831
37558W        W 3967  14.153  13.717  13.458
37559W        W 3968  27.987  24.691  10.816
37560W        W 3969  17.132  26.275  11.727
37561W        W 3970  11.106  13.412  12.395
37562W        W 3971  31.405  22.304  11.742
37563W        W 3972  40.336  16.018   2.156
37564W        W 3973  40.409  17.525   0.607
37565W        W 3974   7.081   1.852  12.054
37566W        W 3975   8.747  13.041   4.154
37567W        W 3976   1.765  20.296  14.176
37568W        W 3977  29.013  36.564   2.727
37569W        W 3978  25.964  35.949  12.065
37570W        W 3979   3.513   3.291  14.957
37571W        W 3980  34.519  21.747  14.469
37572W        W 3981   3.471  37.400   1.331
37573W        W 3982  21.323   3.342  14.557
37574W        W 3983  16.965  28.811   3.180
37575W        W 3984  31.374   1.192  11.116
37576W        W 3985  31.506  33.737  10.570
37577W        W 3986  37.424  14.283   2.890
37578W        W 3987   0.333  36.236   2.747
37579W        W 3988  41.435  16.255   0.774
37580W        W 3989   6.799   8.460  11.578
37581W        W 3990  16.289   9.577  12.572
37582W        W 3991  38.519  34.443  13.000
37583W        W 3992   0.931  29.543  13.777
37584W        W 3993  24.629  30.037  12.999
37585W        W 3994  22.271  10.349   2.372
37586W        W 3995  33.593   2.716   0.233
37587W        W 3996  10.631  11.800  13.895
37588W        W 3997  40.634  13.859   0.731
37589W        W 3998  15.230  16.628   2.591
37590W        W 3999  33.617  23.977  12.450
37591W        W 4000  44.311  42.076  13.350
37592W        W 4001  34.057   0.252  11.469
37593W        W 4002  28.176  42.643  12.937
37594W        W 4003   9.764  29.587  11.004
37595W        W 4004  31.655  16.125  11.425
37596W        W 4005  18.602   9.239  10.657
37597W        W 4006  35.028  29.684  10.717
37598W        W 4007  35.665  10.811   4.895
37599W        W 4008  28.165   5.820   4.478
37600W        W 4009   8.419  14.019  13.989
37601W        W 4010  39.884  37.943  14.445
37602W        W 4011  38.048  19.508  13.334
37603W        W 4012  16.760  34.262  12.400
37604W        W 4013  16.032  17.534  14.975
37605W        W 4014  33.577   9.746   4.063
37606W        W 4015  28.349  17.232  12.202
37607W        W 4016  36.167  15.923   1.647
37608W        W 4017   9.386  35.835  10.414
37609W        W 4018  35.932  18.190   1.615
37610W        W 4019  26.556  37.882   3.627
37611W        W 4020  15.193   2.014   4.080
37612W        W 4021  36.336  18.234   4.614
37613W        W 4022  34.247   8.802  13.056
37614W        W 4023  42.368  31.359  14.350
37615W        W 4024  37.895   3.754  13.939
37616W        W 4025  28.357  11.374  10.795
37617W        W 4026  16.210  25.172   4.602
37618W        W 4027   4.467   1.442  13.438
37619W        W 4028  34.287  41.840   0.738
37620W        W 4029   1.399  17.821   1.441
37621W        W 4030  35.254   8.156  11.015
37622W        W 4031   6.802   9.120   3.928
37623W        W 4032  21.400  35.689  11.707
37624W        W 4033   6.932  15.723   0.520
37625W        W 4034  27.878   2.504   2.956
37626W        W 4035   8.863   5.168   4.096
37627W        W 4036  14.107  35.533  11.225
37628W        W 4037  16.818   1.948   1.320
37629W        W 4038  30.894   9.987   5.072
37630W        W 4039  41.480  25.002  12.593
37631W        W 4040   3.711  28.162   5.056
37632W        W 4041  39.495   2.344   1.021
37633W        W 4042  23.820   4.504   1.472
37634W        W 4043   8.538  36.365  14.726
37635W        W 4044   4.454  39.847   2.395
37636W        W 4045   9.396  16.823  11.686
37637W        W 4046  26.831  31.708  12.520
37638W        W 4047  41.707  21.155  12.971
37639W        W 4048   3.397   7.192  14.730
37640W        W 4049  36.242  30.252   4.256
37641W        W 4050  30.474   4.426  14.831
37642W        W 4051  29.965   2.940   5.470
37643W        W 4052  39.252  31.153   4.481
37644W        W 4053  22.665  21.509   1.574
37645W        W 4054  36.018  10.169   2.266
37646W        W 4055  13.663   2.348  11.115
37647W        W 4056  28.213  11.792   5.455
37648W        W 4057   5.173  25.815   4.573
37649W        W 4058  38.887  16.300  12.054
37650W        W 4059  28.356  42.478   2.266
37651W        W 4060  38.247  36.433  12.591
37652W        W 4061  16.698  35.934  11.505
37653W        W 4062   4.624   5.312  13.789
37654W        W 4063  42.444  23.945  10.717
37655W        W 4064  26.089  30.466   1.227
37656W        W 4065   9.406  16.673  13.389
37657W        W 4066  12.140   4.256  13.237
37658W        W 4067  13.081  44.909   3.997
37659W        W 4068   2.933  40.329   1.655
37660W        W 4069  30.574  34.705  14.832
37661W        W 4070  18.303  40.044   1.639
37662W        W 4071   7.907   8.308   0.365
37663W        W 4072  31.888  33.006   2.845
37664W        W 4073  28.504  36.538   3.290
37665W        W 4074   9.247  38.581   2.825
37666W        W 4075  40.332  39.757  13.491
37667W        W 4076  28.682  39.689  11.107
37668W        W 4077  25.589  10.431  14.303
37669W        W 4078  42.007  15.059  12.028
37670W        W 4079  44.762   7.830  11.167
37671W        W 4080  37.573   1.003   2.173
37672W        W 4081  15.532   1.095  14.561
37673W        W 4082  44.360  27.751  14.581
37674W        W 4083  13.997  22.210  12.510
37675W        W 4084  24.324  18.020  14.380
37676W        W 4085  19.638  19.140   2.233
37677W        W 4086  16.463  25.035  13.916
37678W        W 4087  21.241  27.697  13.425
37679W        W 4088  33.503  26.070   1.409
37680W        W 4089   2.545   8.617   2.430
37681W        W 4090  24.001  12.646   2.940
37682W        W 4091   9.600   1.348  13.320
37683W        W 4092  17.092  25.702  14.955
37684W        W 4093  39.162  30.701   0.965
37685W        W 4094  30.062  22.563  10.423
37686W        W 4095  27.138  20.754  11.345
37687W        W 4096  39.435   3.250  12.357
37688W        W 4097   0.488  42.433   0.378
37689W        W 4098  33.842  42.745  10.823
37690W        W 4099   3.150  37.810   4.164
37691W        W 4100   9.695  18.232   0.782
37692W        W 4101   5.468  32.128  10.778
37693W        W 4102   6.195   1.184  11.517
37694W        W 4103  10.302   0.210   2.682
37695W        W 4104  26.999  19.627  11.145
37696W        W 4105  17.086  39.328   3.169
37697W        W 4106  32.185   0.701   0.917
37698W        W 4107  27.431  31.600   2.207
37699W        W 4108  20.030  30.454   0.241
37700W        W 4109  27.697  14.255   1.724
37701W        W 4110  17.237  18.822   3.656
37702W        W 4111  26.718  22.103  13.309
37703W        W 4112  43.442  28.621   3.822
37704W        W 4113  20.823   8.044  12.037
37705W        W 4114  38.663  25.992  12.074
37706W        W 4115   7.153   3.086   4.512
37707W        W 4116   7.619  12.670   4.143
37708W        W 4117  20.806  11.614  13.247
37709W        W 4118   8.208  44.461  10.550
37710W        W 4119  31.415  29.872   1.440
37711W        W 4120  20.724   3.764   3.867
37712W        W 4121  19.342  23.735  11.605
37713W        W 4122  31.843  22.016  11.676
37714W        W 4123  26.482  18.536   1.283
37715W        W 4124  18.535  28.965   4.167
37716W        W 4125   4.935  12.054  11.689
37717W        W 4126  20.044   4.389   0.305
37718W        W 4127  10.410  17.343   2.354
37719W        W 4128   8.316  34.428   4.577
37720W        W 4129  43.294  37.157  11.990
37721W        W 4130  20.175  19.519  10.971
37722W        W 4131   6.755  37.810   4.057
37723W        W 4132   5.897   9.219   0.087
37724W        W 4133   9.740  43.998  13.030
37725W        W 4134  11.256  15.358  13.693
37726W        W 4135  35.140  13.974  10.136
37727W        W 4136  35.955  38.393  14.701
37728W        W 4137  22.135  22.561   4.526
37729W        W 4138  28.028  25.202  13.898
37730W        W 4139  15.239  33.284   2.411
37731W        W 4140  21.049  13.211   2.636
37732W        W 4141   2.865  30.868  11.947
37733W        W 4142  36.561  24.079   4.201
37734W        W 4143   9.761  13.053  10.459
37735W        W 4144  40.323   9.895  12.140
37736W        W 4145  13.565  15.509  11.020
37737W        W 4146  41.727  38.658   2.805
37738W        W 4147  33.620  37.368  11.214
37739W        W 4148  23.170  19.367   1.888
37740W        W 4149  33.260   0.310   1.424
37741W        W 4150  33.930  43.021  11.792
37742W        W 4151  20.867  38.070  12.322
37743W        W 4152  12.742  42.462  13.358
37744W        W 4153  22.870   0.520   1.339
37745W        W 4154  41.853  41.324  12.807
37746W        W 4155   6.540  12.622  14.065
37747W        W 4156  19.007  27.126  11.113
37748W        W 4157   9.348  39.116   3.714
37749W        W 4158  38.999  35.065   4.146
37750W        W 4159   3.837   7.613   4.438
37751W        W 4160  12.618  33.103   0.822
37752W        W 4161  27.340   2.776   4.953
37753W        W 4162  33.183  35.340   1.493
37754W        W 4163  27.515  21.713  13.555
37755W        W 4164  44.967  40.181   2.127
37756W        W 4165  22.003  26.818   1.005
37757W        W 4166  41.376  22.780  12.013
37758W        W 4167  12.393  32.052   3.346
37759W        W 4168  32.630  34.370   3.624
37760W        W 4169  14.822  36.341   0.986
37761W        W 4170  38.276  42.476   4.352
37762W        W 4171   9.480  37.444  14.547
37763W        W 4172  21.640  21.893  10.117
37764W        W 4173   2.401  31.418  10.682
37765W        W 4174  26.896   1.256  10.820
37766W        W 4175  30.421   2.773   1.105
37767W        W 4176  38.040  29.070   0.712
37768W        W 4177  24.258  28.081   4.942
37769W        W 4178  30.527  14.183  11.845
37770W        W 4179  10.308  40.952  14.495
37771W        W 4180  42.446  40.519  13.601
37772W        W 4181  15.601  10.149  10.980
37773W        W 4182   6.058   6.677  11.997
37774W        W 4183  24.566  33.684   3.275
37775W        W 4184  11.070  26.583  13.485
37776W        W 4185  12.591  24.290  12.436
37777W        W 4186  16.075  30.574   4.416
37778W        W 4187  13.704  44.231  11.987
37779W        W 4188   9.823  35.222   1.823
37780W        W 4189  13.441  18.225   2.687
37781W        W 4190  31.317  18.508   2.820
37782W        W 4191  17.236   5.629  14.951
37783W        W 4192  39.053  44.510  14.308
37784W        W 4193  25.461  37.463  12.403
37785W        W 4194  14.634  26.548   2.076
37786W        W 4195  39.465  10.336   0.836
37787W        W 4196  35.074  10.484  13.172
37788W        W 4197  39.817  39.989   4.077
37789W        W 4198  26.939  26.709  14.011
37790W        W 4199  13.437  28.566   2.971
37791W        W 4200  25.971  18.807  13.983
37792W        W 4201  34.181   6.016  10.615
37793W        W 4202  44.964  17.721  10.680
37794W        W 4203  14.811   8.176  11.251
37795W        W 4204  40.850  20.096  13.094
37796W        W 4205  20.556  11.246   1.110
37797W        W 4206   5.229  31.656  14.508
37798W        W 4207   0.776  23.589   3.649
37799W        W 4208   0.448  18.156   4.908
37800W        W 4209  40.317  27.894   0.633
37801W        W 4210  25.071  28.470   3.202
37802W        W 4211  11.153  15.600  12.817
37803W        W 4212  25.232  35.617   1.460
37804W        W 4213  44.018  17.866   3.067
37805W        W 4214   9.955  30.604   2.357
37806W        W 4215  39.473   3.712  12.152
37807W        W 4216  42.785  40.530   4.406
37808W        W 4217  10.636  29.128   3.085
37809W        W 4218  37.760  38.286   2.394
37810W        W 4219  35.335   2.900  12.925
37811W        W 4220  42.391  19.130   3.144
37812W        W 4221  35.617  18.382   1.250
37813W        W 4222  13.889  25.238   4.923
37814W        W 4223   2.754  19.288  14.542
37815W        W 4224  38.211  10.112   4.706
37816W        W 4225   4.242   3.020   4.309
37817W        W 4226  28.039  31.579   4.100
37818W        W 4227   9.396  17.852  12.936
37819W        W 4228  23.033  11.586   2.198
37820W        W 4229  29.534  31.478   4.328
37821W        W 4230   2.445  10.000  10.245
37822W        W 4231  33.412  30.188  11.897
37823W        W 4232  31.324  10.621   1.970
37824W        W 4233  13.373  23.565   4.532
37825W        W 4234  28.328  33.590   0.956
37826W        W 4235   1.409  34.088  12.997
37827W        W 4236   1.273  22.026  14.410
37828W        W 4237  37.077  42.487   0.295
37829W        W 4238  17.260   9.791   1.207
37830W        W 4239  16.052  24.464  10.685
37831W        W 4240  33.277  37.053   1.934
37832W        W 4241   0.842  17.177   2.482
37833W        W 4242  42.493  13.887   2.836
37834W        W 4243   5.816  14.033   3.696
37835W        W 4244  22.649  19.250  12.872
37836W        W 4245   0.637  31.874  10.646
37837W        W 4246  22.501  29.999   3.215
37838W        W 4247  13.826  31.968   4.595
37839W        W 4248  31.002  20.847   1.810
37840W        W 4249  16.626  23.106   3.637
37841W        W 4250  27.004   8.645   3.320
37842W        W 4251  43.497  11.563   2.118
37843W        W 4252  26.064   7.893  13.070
37844W        W 4253   6.709  22.682   0.339
37845W        W 4254  12.382  37.556   1.474
37846W        W 4255  36.523  34.557  13.501
37847W        W 4256  20.609  16.133   0.862
37848W        W 4257  34.385   8.418   2.384
37849W        W 4258  19.178  23.265   1.311
37850W        W 4259   5.829  23.231   2.446
37851W        W 4260  30.532  20.122  14.769
37852W        W 4261  20.576  12.359   3.217
37853W        W 4262  11.202  25.661  11.974
37854W        W 4263  29.182  15.198  11.362
37855W        W 4264  42.885  11.799  14.060
37856W        W 4265  20.516   7.823  11.203
37857W        W 4266  18.240  30.052   4.460
37858W        W 4267   8.606  43.322  14.192
37859W        W 4268  37.001  15.245   4.488
37860W        W 4269  38.537  16.581  14.511
37861W        W 4270  29.302  12.762  11.141
37862W        W 4271   4.541   1.223   0.171
37863W        W 4272  36.794   6.754  11.220
37864W        W 4273  29.858   9.382  14.708
37865W        W 4274  13.132  31.514   0.076
37866W        W 4275  22.976  35.558   9.866
37867W        W 4276  24.247  15.905   4.629
37868W        W 4277  19.074  36.335   1.806
37869W        W 4278  26.912   2.313   0.490
37870W        W 4279   8.721   5.831  13.816
37871W        W 4280  30.437  40.015  12.821
37872W        W 4281  30.928  32.455   1.839
37873W        W 4282  18.348   5.459   4.602
37874W        W 4283   0.667  35.932  12.093
37875W        W 4284   3.390   4.301  13.078
37876W        W 4285  15.263  15.159   1.897
37877W        W 4286  12.896  44.804  12.235
37878W        W 4287  38.623  32.765   4.695
37879W        W 4288  38.792   0.698   4.011
37880W        W 4289  19.219  38.540  12.676
37881W        W 4290   0.515  17.189  12.010
37882W        W 4291   8.579  23.829   2.678
37883W        W 4292   1.858  36.294   3.123
37884W        W 4293  33.860  33.777  13.886
37885W        W 4294  17.273   3.159  13.308
37886W        W 4295  44.524   4.930   2.737
37887W        W 4296  30.717  11.645   1.795
37888W        W 4297   0.097  28.169  11.126
37889W        W 4298  30.031  25.424   4.620
37890W        W 4299   0.904  20.504  13.478
37891W        W 4300  10.950  42.438  10.702
37892W        W 4301  40.567  11.410   4.272
37893W        W 4302  32.642  37.601  12.985
37894W        W 4303  41.272   7.281   4.507
37895W        W 4304  13.175  10.824  14.761
37896W        W 4305  39.474  43.661  11.638
37897W        W 4306  20.312  32.141  10.713
37898W        W 4307  38.718   2.766  11.033
37899W        W 4308  34.024  24.266   0.433
37900W        W 4309  25.546  16.046   4.869
37901W        W 4310  36.547  37.353  12.463
37902W        W 4311   3.296  17.023  14.317
37903W        W 4312  32.120  24.259  12.447
37904W        W 4313   7.951  28.099   3.524
37905W        W 4314  24.658  44.228  11.605
37906W        W 4315   6.951  18.558  13.845
37907W        W 4316  25.919   5.725  12.517
37908W        W 4317   4.502  37.839   2.853
37909W        W 4318  40.017  12.134   0.814
37910W        W 4319  23.999   8.964  13.649
37911W        W 4320  22.024  26.437   0.342
37912W        W 4321  35.040  18.257  11.117
37913W        W 4322  12.573  20.492  13.552
37914W        W 4323  38.132   6.347  12.029
37915W        W 4324   1.328   6.554   2.593
37916W        W 4325  21.713  35.706  12.116
37917W        W 4326   4.410   1.211  13.898
37918W        W 4327  18.400  40.553   2.718
37919W        W 4328   9.269  36.116   0.336
37920W        W 4329  16.830   1.422   1.181
37921W        W 4330   3.266  42.075  12.804
37922W        W 4331   0.763   3.582  10.929
37923W        W 4332   5.658  34.330  13.433
37924W        W 4333  33.131  19.179  13.297
37925W        W 4334   6.823   1.745  11.597
37926W        W 4335  35.109  43.282  10.714
37927W        W 4336  17.205  30.932   3.766
37928W        W 4337  11.223  23.731   2.603
37929W        W 4338  10.838   2.110   2.755
37930W        W 4339  13.907  26.563   4.762
37931W        W 4340  29.718  43.452  10.465
37932W        W 4341  37.867  40.249  12.986
37933W        W 4342  36.876  23.662  10.942
37934W        W 4343  13.049  24.999   4.596
37935W        W 4344  16.249  43.315  13.320
37936W        W 4345  34.477  34.129  12.817
37937W        W 4346  27.476  25.019  14.845
37938W        W 4347  22.422  23.723   3.728
37939W        W 4348  39.097  11.706  12.980
37940W        W 4349  39.873  34.342   0.792
37941W        W 4350  10.953  18.750  11.127
37942W        W 4351   3.203  14.001  11.709
37943W        W 4352  39.389  13.181  11.563
37944W        W 4353  41.887  22.544  14.402
37945W        W 4354  38.631  15.107   1.710
37946W        W 4355  40.965  25.232   1.243
37947W        W 4356   5.761  13.760   4.261
37948W        W 4357   4.274  19.939  12.545
37949W        W 4358  32.727  21.138   1.825
37950W        W 4359  39.599  25.184   0.856
37951W        W 4360  14.223  40.907  10.537
37952W        W 4361  29.687  32.959  13.330
37953W        W 4362  24.272  44.557  11.480
37954W        W 4363  22.919  35.111  13.432
37955W        W 4364  31.520  35.640   2.762
37956W        W 4365  34.573  23.677  11.235
37957W        W 4366  33.929  24.212   1.037
37958W        W 4367  23.937   5.175   3.231
37959W        W 4368  40.774  15.891   1.233
37960W        W 4369  13.602  14.559   2.312
37961W        W 4370   8.300  25.177   3.280
37962W        W 4371  27.637  43.903   1.290
37963W        W 4372  40.708  43.751  14.011
37964W        W 4373  18.211   4.516  10.536
37965W        W 4374  41.575  31.534  11.555
37966W        W 4375  44.807  41.036  11.646
37967W        W 4376  17.829  16.301   0.941
37968W        W 4377  27.293   8.446  12.956
37969W        W 4378  38.820  16.852   3.303
37970W        W 4379  10.726   1.260  12.060
37971W        W 4380  10.332  41.909   2.247
37972W        W 4381  34.940  11.199  10.619
37973W        W 4382  31.047   6.058  11.461
37974W        W 4383  29.343  20.755  12.582
37975W        W 4384  34.079   2.530   2.300
37976W        W 4385  24.421  33.943   3.692
37977W        W 4386  13.213  37.184   4.184
37978W        W 4387  35.205   9.709   0.318
37979W        W 4388  18.302   4.941   2.698
37980W        W 4389  31.273  27.245  14.482
37981W        W 4390  43.824  39.489   0.720
37982W        W 4391  28.097  21.526   1.863
37983W        W 4392   8.883  24.567   1.698
37984W        W 4393  29.068  27.503   4.639
37985W        W 4394   5.733  44.733  11.152
37986W        W 4395  19.823  29.721   0.448
37987W        W 4396  43.892  33.414  13.959
37988W        W 4397   0.049  21.749  11.631
37989W        W 4398  16.300  38.001  13.105
37990W        W 4399  39.766  38.763   1.010
37991W        W 4400  23.533  30.888  14.838
37992W        W 4401  10.363  25.600  14.022
37993W        W 4402   0.130  10.856   3.725
37994W        W 4403  34.031  24.098  14.298
37995W        W 4404   7.624  29.767  11.642
37996W        W 4405   1.673  27.425   4.730
37997W        W 4406  16.484   4.894  14.904
37998W        W 4407  19.734  11.403   3.812
37999W        W 4408  42.883  42.410   4.044
38000W        W 4409  15.089  15.315  11.009
38001W        W 4410  40.753  24.739   1.264
38002W        W 4411  31.866  37.130  14.413
38003W        W 4412   9.860  18.232   0.291
38004W        W 4413  39.129  39.032  10.765
38005W        W 4414   1.388  37.573   4.524
38006W        W 4415  11.080  42.465  11.987
38007W        W 4416  31.308  27.581   2.368
38008W        W 4417  22.599  28.200  13.283
38009W        W 4418  26.801  39.070   2.269
38010W        W 4419  44.467  10.883  12.078
38011W        W 4420  20.043   2.896   1.879
38012W        W 4421  26.401  27.701   2.150
38013W        W 4422   1.299   1.512  12.266
38014W        W 4423  14.300   3.741  13.491
38015W        W 4424  17.119  27.524   1.801
38016W        W 4425  42.510  16.782  12.999
38017W        W 4426  14.470  16.111  12.351
38018W        W 4427  38.150  16.743  14.157
38019W        W 4428  33.619  17.455  11.539
38020W        W 4429  27.399   1.405   4.477
38021W        W 4430  36.502  20.618  11.986
38022W        W 4431  15.591  16.098  10.258
38023W        W 4432  36.883  35.673   2.291
38024W        W 4433  26.950  15.495  11.176
38025W        W 4434   9.920  14.770   1.462
38026W        W 4435   1.591   1.556   0.935
38027W        W 4436   2.190   7.471  11.627
38028W        W 4437  27.293  44.335   3.310
38029W        W 4438  17.089  28.673   0.231
38030W        W 4439  23.218  29.988   1.495
38031W        W 4440  16.980  28.870  13.762
38032W        W 4441  31.366  18.253  14.918
38033W        W 4442  29.362  42.667  10.740
38034W        W 4443   5.406  44.288   2.392
38035W        W 4444   6.470   1.896   2.710
38036W        W 4445  31.822  43.980   0.300
38037W        W 4446   2.957   8.177  14.018
38038W        W 4447  33.888  34.972  11.189
38039W        W 4448  28.644  36.909  11.410
38040W        W 4449  43.427  43.649   1.984
38041W        W 4450  22.693  28.703  13.105
38042W        W 4451  13.659  31.582   2.728
38043W        W 4452  38.768  36.516  12.583
38044W        W 4453  40.950  32.087  12.951
38045W        W 4454   6.683  42.685   0.294
38046W        W 4455  28.489  26.979   1.767
38047W        W 4456  35.513   1.761  11.098
38048W        W 4457  32.408   0.274   4.113
38049W        W 4458  20.206   0.455  13.807
38050W        W 4459  17.055  39.031  14.466
38051W        W 4460  27.527  15.833  14.426
38052W        W 4461  32.883  16.764  11.488
38053W        W 4462  38.631   2.426   4.065
38054W        W 4463  16.677   0.508   3.427
38055W        W 4464  39.313   9.936   3.830
38056W        W 4465  34.132  20.271   4.722
38057W        W 4466   7.093   1.473  12.441
38058W        W 4467  28.559   2.572  12.888
38059W        W 4468  26.731   0.819   3.775
38060W        W 4469   7.242  40.474   3.054
38061W        W 4470   4.855  41.032   0.381
38062W        W 4471   2.209  19.134  11.475
38063W        W 4472  34.148  29.837   1.369
38064W        W 4473  31.608   7.105  11.377
38065W        W 4474  16.295   3.806  13.817
38066W        W 4475  28.732  19.211   1.529
38067W        W 4476  42.366  32.639  13.141
38068W        W 4477  14.628  30.052   4.143
38069W        W 4478  37.419  20.152  12.797
38070W        W 4479  31.031  39.064   4.439
38071W        W 4480  32.639  30.387   2.387
38072W        W 4481  34.580  41.442   4.452
38073W        W 4482  34.415   5.709  12.322
38074W        W 4483  22.272   6.763   3.344
38075W        W 4484  31.078  17.743  14.902
38076W        W 4485  27.097  41.785   4.623
38077W        W 4486  20.014  19.295  11.508
38078W        W 4487  21.717  30.163  11.640
38079W        W 4488  23.816  36.443  11.879
38080W        W 4489  27.964  11.858   0.477
38081W        W 4490  30.525  25.265   4.814
38082W        W 4491  22.516  31.497   4.337
38083W        W 4492  16.229  32.686   0.243
38084W        W 4493   6.623  12.650   1.395
38085W        W 4494  28.993   7.831  11.146
38086W        W 4495  11.305  32.175   2.401
38087W        W 4496  17.031   0.622   1.700
38088W        W 4497  19.639  18.729   2.593
38089W        W 4498  35.553  32.818  11.986
38090W        W 4499  29.536   7.368   2.848
38091W        W 4500  39.808  26.162   3.257
38092W        W 4501  43.742   1.026  13.938
38093W        W 4502  21.103  32.140   0.835
38094W        W 4503  23.714  15.137   4.042
38095W        W 4504  39.615  34.937  10.767
38096W        W 4505  41.506  29.120   4.182
38097W        W 4506  36.316  38.576   0.767
38098W        W 4507   6.798  38.347  12.625
38099W        W 4508   9.584   0.491   9.842
38100W        W 4509  19.796  12.313   2.859
38101W        W 4510  37.956  37.315   1.178
38102W        W 4511  23.765   2.492   4.077
38103W        W 4512   7.880  11.204   3.218
38104W        W 4513  39.353   2.805  13.577
38105W        W 4514  38.040  44.847  11.064
38106W        W 4515  40.757  18.667  10.714
38107W        W 4516  36.042  28.973  10.833
38108W        W 4517  19.075  16.075  10.590
38109W        W 4518  18.128  24.514  13.293
38110W        W 4519   8.319  21.602  11.094
38111W        W 4520  22.311  17.713   0.028
38112W        W 4521  43.912  13.412   3.934
38113W        W 4522  12.578   3.497  12.679
38114W        W 4523  29.914   5.423   2.694
38115W        W 4524  32.675  38.026   0.850
38116W        W 4525  41.845  17.168   4.635
38117W        W 4526  25.961  43.055  13.383
38118W        W 4527  37.996  26.381   1.427
38119W        W 4528  31.459  14.677  13.287
38120W        W 4529  26.973  12.523   5.155
38121W        W 4530  22.051  10.406   4.115
38122W        W 4531  14.625  34.896  10.772
38123W        W 4532   1.882  44.394  14.081
38124W        W 4533  13.475   4.309   2.305
38125W        W 4534  27.297   1.644  13.883
38126W        W 4535   8.585  13.083  13.933
38127W        W 4536  24.422   8.631  10.346
38128W        W 4537  10.520  41.361  11.446
38129W        W 4538  31.596  35.428   3.261
38130W        W 4539   5.155  22.687   0.206
38131W        W 4540  12.658  17.723  14.425
38132W        W 4541  22.514   5.419  13.474
38133W        W 4542  13.013  44.815   2.347
38134W        W 4543  30.882  20.343  14.327
38135W        W 4544  10.186  25.118   0.770
38136W        W 4545   7.296  28.822   0.398
38137W        W 4546  24.087   8.885   0.007
38138W        W 4547  41.820   6.590   1.301
38139W        W 4548  28.402   6.940   1.245
38140W        W 4549   9.524  17.062  13.054
38141W        W 4550  13.321  42.600   3.620
38142W        W 4551  28.240  19.270  13.452
38143W        W 4552  33.775  42.853   2.688
38144W        W 4553  21.031  35.501   2.123
38145W        W 4554  22.555   2.723   3.740
38146W        W 4555  13.145  32.034   1.387
38147W        W 4556  40.911  38.068  13.116
38148W        W 4557  15.049  14.341   1.294
38149W        W 4558  22.705  27.683  11.147
38150W        W 4559   2.886  35.263   3.028
38151W        W 4560   5.379  39.204  13.902
38152W        W 4561   2.315  25.075  13.685
38153W        W 4562  41.905  33.294  13.165
38154W        W 4563  17.331  23.655  12.558
38155W        W 4564  23.633  40.875   3.913
38156W        W 4565  32.435   2.663   2.802
38157W        W 4566  38.113  44.444  12.628
38158W        W 4567  22.486  33.436   4.187
38159W        W 4568  22.547  20.343  13.018
38160W        W 4569  32.168  24.222   3.081
38161W        W 4570  41.964  11.862   0.026
38162W        W 4571  35.297  33.894  13.108
38163W        W 4572  24.086   7.975   3.640
38164W        W 4573  36.919  42.414  13.852
38165W        W 4574  44.815  26.035   0.325
38166W        W 4575   2.777  29.510  13.966
38167W        W 4576   8.334   6.876   1.099
38168W        W 4577  40.510  12.436   5.065
38169W        W 4578   5.854  19.115  10.537
38170W        W 4579  12.737  10.637   2.906
38171W        W 4580  18.329   8.909   4.532
38172W        W 4581  12.561  39.386  11.188
38173W        W 4582  27.015  31.356  14.813
38174W        W 4583  23.215   7.269   0.285
38175W        W 4584  31.579  11.822   1.983
38176W        W 4585   9.711   6.692  10.490
38177W        W 4586  42.191  24.248   1.218
38178W        W 4587  33.467  12.803  14.762
38179W        W 4588  24.967   4.149  10.713
38180W        W 4589   7.385   4.734   3.642
38181W        W 4590   5.203  43.048   1.040
38182W        W 4591   0.967  40.538   1.294
38183W        W 4592  10.540  17.529  11.576
38184W        W 4593  37.797   3.494  14.989
38185W        W 4594  23.612  41.439   1.256
38186W        W 4595   2.137  17.806   3.621
38187W        W 4596  11.731  35.825   0.343
38188W        W 4597   7.117  37.134   2.422
38189W        W 4598  20.462  29.658   4.862
38190W        W 4599  32.654  41.597   2.630
38191W        W 4600  42.232   3.324   0.846
38192W        W 4601  29.440  17.382  11.576
38193W        W 4602  14.433  34.393  12.139
38194W        W 4603   1.771  22.181  12.855
38195W        W 4604   1.661  33.763  11.197
38196W        W 4605  37.297   9.405   0.857
38197W        W 4606   6.930   3.489   3.610
38198W        W 4607  41.497   1.790  13.497
38199W        W 4608  15.217  31.899   5.071
38200W        W 4609   9.917  36.902   0.818
38201W        W 4610  15.199  25.320   2.647
38202W        W 4611  17.708  42.961   4.974
38203W        W 4612  28.385  10.030  13.541
38204W        W 4613   4.140  42.303  11.912
38205W        W 4614   0.399  11.843  12.070
38206W        W 4615   8.875  19.601   4.486
38207W        W 4616  41.556   8.803  14.577
38208W        W 4617  12.965  30.715   1.380
38209W        W 4618   6.871  18.603  12.107
38210W        W 4619   6.056  19.238  12.605
38211W        W 4620  28.770  18.761  10.570
38212W        W 4621  17.988  20.147   4.065
38213W        W 4622   6.393  40.643  11.538
38214W        W 4623   3.541  10.775  11.504
38215W        W 4624  37.975   4.646   3.864
38216W        W 4625  19.803  37.411   4.412
38217W        W 4626  13.178  12.924   1.007
38218W        W 4627  22.738   8.086   1.709
38219W        W 4628  40.047  41.629   1.096
38220W        W 4629  13.971  40.207  14.356
38221W        W 4630  42.725  33.117   0.606
38222W        W 4631  17.558  23.805  12.098
38223W        W 4632   8.323   0.446   3.102
38224W        W 4633  44.825  22.669  10.894
38225W        W 4634  32.336  29.145  11.650
38226W        W 4635  42.385  37.029  13.861
38227W        W 4636  28.014  36.885   4.572
38228W        W 4637  44.337  39.359  14.492
38229W        W 4638  37.544  10.854  14.810
38230W        W 4639  11.193  28.413   1.076
38231W        W 4640  21.433  36.854  13.113
38232W        W 4641  28.539  44.265   0.837
38233W        W 4642   6.946   1.717   4.527
38234W        W 4643  43.834   2.001   4.643
38235W        W 4644  42.253   4.341  11.502
38236W        W 4645  39.180  14.723  13.177
38237W        W 4646  43.335  36.906   0.261
38238W        W 4647  23.261  17.356   2.659
38239W        W 4648  34.958  30.379   3.060
38240W        W 4649  29.111   0.522   2.416
38241W        W 4650  18.204  22.605  13.120
38242W        W 4651  36.265  20.896   3.796
38243W        W 4652  39.434  21.963  12.993
38244W        W 4653   2.920  41.146   3.422
38245W        W 4654  31.591  34.643  12.185
38246W        W 4655  14.257  43.532  14.973
38247W        W 4656  33.272  27.206  12.339
38248W        W 4657   0.314  10.643   4.942
38249W        W 4658  14.694  18.967  13.245
38250W        W 4659  35.101   6.493  12.447
38251W        W 4660  30.018   3.156  10.282
38252W        W 4661  24.060  31.945   3.273
38253W        W 4662  15.676  16.233   4.829
38254W        W 4663  15.294   4.894  12.626
38255W        W 4664  36.649  37.513   4.618
38256W        W 4665  22.156  35.087   4.267
38257W        W 4666  29.609  39.900  14.755
38258W        W 4667  25.234  42.696  10.406
38259W        W 4668  22.447   2.350  11.536
38260W        W 4669   3.277  15.819  12.870
38261W        W 4670   8.150  10.758   0.922
38262W        W 4671  28.001  10.163   4.506
38263W        W 4672  17.811  24.023   2.333
38264W        W 4673   1.046   4.864   1.763
38265W        W 4674   7.122  44.058   3.545
38266W        W 4675  12.066   7.157  10.664
38267W        W 4676   4.190  10.170  12.436
38268W        W 4677  15.570  32.888  13.996
38269W        W 4678  44.354  31.850   1.555
38270W        W 4679   7.742  33.081   4.096
38271W        W 4680  31.436  43.482   0.771
38272W        W 4681  37.617   4.027   2.236
38273W        W 4682  32.809  43.796  14.202
38274W        W 4683  38.000  32.107   0.264
38275W        W 4684   1.070  42.961   0.989
38276W        W 4685  23.580  10.312   5.251
38277W        W 4686   5.434  23.581  12.873
38278W        W 4687  11.793  26.745   1.391
38279W        W 4688  20.776  29.110   1.883
38280W        W 4689  32.539  38.530  11.515
38281W        W 4690   6.286  12.527   0.049
38282W        W 4691  15.331  33.422   3.881
38283W        W 4692   9.294  44.890   1.239
38284W        W 4693  38.862  13.363   0.263
38285W        W 4694   6.702  43.253  14.027
38286W        W 4695  30.997  19.786   4.510
38287W        W 4696  34.984  24.151  10.621
38288W        W 4697  37.071   4.663  14.936
38289W        W 4698  20.000  14.257  13.821
38290W        W 4699  25.998  28.525  14.987
38291W        W 4700  23.033  38.096  14.527
38292W        W 4701  24.712  43.053  13.607
38293W        W 4702  44.520  21.633  12.597
38294W        W 4703  33.478  40.443   1.906
38295W        W 4704  21.267  42.763   0.310
38296W        W 4705   7.153  15.550  14.614
38297W        W 4706  16.726  16.238   2.251
38298W        W 4707  29.617   1.258   0.034
38299W        W 4708  13.122  21.778   2.823
38300W        W 4709  28.513  15.127   2.782
38301W        W 4710  17.134  42.043   0.810
38302W        W 4711   3.481  13.757   2.019
38303W        W 4712  27.953  30.019   0.846
38304W        W 4713  11.516  16.869  11.941
38305W        W 4714   6.277  23.535   3.207
38306W        W 4715  32.942   0.054   0.682
38307W        W 4716   7.201   5.176  11.222
38308W        W 4717  37.901   2.258   2.276
38309W        W 4718  12.507   8.012  11.511
38310W        W 4719  10.449  44.671  11.169
38311W        W 4720  12.582  31.412   1.655
38312W        W 4721  23.373  22.126  12.149
38313W        W 4722  12.247  38.683   4.724
38314W        W 4723  25.464  36.292  13.904
38315W        W 4724  21.492  28.146   0.767
38316W        W 4725  28.497  34.613   4.253
38317W        W 4726  35.083  18.627   0.386
38318W        W 4727  38.052  33.226  14.727
38319W        W 4728   1.894  29.129  13.797
38320W        W 4729  31.964  38.514   3.203
38321W        W 4730  39.298   8.343  14.036
38322W        W 4731  11.301  20.617   3.599
38323W        W 4732   5.825  20.993   4.330
38324W        W 4733  43.058  28.281   0.203
38325W        W 4734  32.616  36.715   3.333
38326W        W 4735   9.686  28.854   0.596
38327W        W 4736  44.526   1.237  14.697
38328W        W 4737  33.671  24.488  11.606
38329W        W 4738  41.783  44.059  10.597
38330W        W 4739  11.324  40.349  12.965
38331W        W 4740  22.603  25.556   2.384
38332W        W 4741   9.391  31.289   4.920
38333W        W 4742   5.479  41.530  10.877
38334W        W 4743  37.757  15.704  14.701
38335W        W 4744  17.197  20.368   4.407
38336W        W 4745  32.038  30.907   3.125
38337W        W 4746  37.290   2.268  13.015
38338W        W 4747  14.708  39.815  11.572
38339W        W 4748  22.116  30.655  12.455
38340W        W 4749  15.577  15.609   4.184
38341W        W 4750  44.906  33.475   2.731
38342W        W 4751  22.737  19.635  10.773
38343W        W 4752  43.949  26.030  10.302
38344W        W 4753  11.070   7.742   0.847
38345W        W 4754   3.734  18.320   2.672
38346W        W 4755  20.358   0.336   2.248
38347W        W 4756  39.019  23.100   2.412
38348W        W 4757   2.697  26.230   4.567
38349W        W 4758  12.542  12.599  11.560
38350W        W 4759   1.970   5.707  14.087
38351W        W 4760  15.906  12.110   0.769
38352W        W 4761  25.399  38.115   1.745
38353W        W 4762  18.716  22.282   4.186
38354W        W 4763  13.717  15.658   4.496
38355W        W 4764  27.700  14.006  12.375
38356W        W 4765   6.559  19.089  10.523
38357W        W 4766  12.616   1.387  13.466
38358W        W 4767  11.878  32.187  10.303
38359W        W 4768  39.885  16.398  12.342
38360W        W 4769  33.716  19.982  14.345
38361W        W 4770   8.176   6.948   0.245
38362W        W 4771  35.944  27.987   0.620
38363W        W 4772   6.388  44.386   4.532
38364W        W 4773  23.133   4.855   2.088
38365W        W 4774  39.822  35.394  13.378
38366W        W 4775  30.358   2.593   5.417
38367W        W 4776   7.931   3.201  11.055
38368W        W 4777  31.570  39.850  13.854
38369W        W 4778  19.631   5.503   3.675
38370W        W 4779  40.097   7.753   4.001
38371W        W 4780   5.222  19.997  11.123
38372W        W 4781  18.012  10.654  11.564
38373W        W 4782  43.895  15.593   2.215
38374W        W 4783  28.979  29.599  13.309
38375W        W 4784  16.779   9.116  14.645
38376W        W 4785  12.894   2.940  14.448
38377W        W 4786   0.735  11.066  14.417
38378W        W 4787  23.714  36.902  10.678
38379W        W 4788  24.563  35.336  11.978
38380W        W 4789  26.875  18.089  13.746
38381W        W 4790  10.609  23.225   4.123
38382W        W 4791  35.921  37.563  13.928
38383W        W 4792  28.067  15.155  11.606
38384W        W 4793  24.059  17.649  12.481
38385W        W 4794  19.744   6.982  14.790
38386W        W 4795   8.301   1.762   3.897
38387W        W 4796  17.237  16.222  13.027
38388W        W 4797  32.187  38.543  11.031
38389W        W 4798  41.095  21.514  12.146
38390W        W 4799  21.664   7.522   1.335
38391W        W 4800  25.878  39.392   0.837
38392W        W 4801  24.306  36.164   4.650
38393W        W 4802  32.405  18.026   0.895
38394W        W 4803  37.368  35.128  11.176
38395W        W 4804  30.377   9.700  13.862
38396W        W 4805  27.213   4.797   2.269
38397W        W 4806  15.175  30.201  14.765
38398W        W 4807  24.786  11.192   1.782
38399W        W 4808   5.127  41.645   3.746
38400W        W 4809  44.817  31.094   2.188
38401W        W 4810  35.005  39.930  14.879
38402W        W 4811  27.006  34.937  11.942
38403W        W 4812  35.655  11.174   3.909
38404W        W 4813  16.803   3.409  11.534
38405W        W 4814  28.666  14.798   2.329
38406W        W 4815   5.713  11.445   2.292
38407W        W 4816  21.027  35.867   3.911
38408W        W 4817  37.752  28.771  12.534
38409W        W 4818  39.392   9.219  14.465
38410W        W 4819  31.710  21.112  10.964
38411W        W 4820  10.605   8.721   0.878
38412W        W 4821  26.467  37.591  11.849
38413W        W 4822  26.411  26.198   2.735
38414W        W 4823  35.306  12.155  10.864
38415W        W 4824  30.155  16.296   0.694
38416W        W 4825  17.959   7.854  11.270
38417W        W 4826  28.935  17.218  11.936
38418W        W 4827   3.193  19.991   1.676
38419W        W 4828  20.778  23.136  14.868
38420W        W 4829  30.028  37.202  11.491
38421W        W 4830  15.777  22.047   2.375
38422W        W 4831  31.606  43.481  13.947
38423W        W 4832  35.838  29.428   1.807
38424W        W 4833  19.764  15.832  12.143
38425W        W 4834  44.962  38.634  12.002
38426W        W 4835  35.548  14.364  13.695
38427W        W 4836   9.856  24.503  14.475
38428W        W 4837  43.082  31.984   0.768
38429W        W 4838  42.818  15.292  10.740
38430W        W 4839   6.124  30.889   3.747
38431W        W 4840  16.808  15.949   3.808
38432W        W 4841  44.573  13.406  12.881
38433W        W 4842   3.737  16.509  13.138
38434W        W 4843  43.347  27.522  13.540
38435W        W 4844  35.454  19.815  13.057
38436W        W 4845  21.486  33.479   0.813
38437W        W 4846  43.670  24.734   1.100
38438W        W 4847   3.311  33.880  13.002
38439W        W 4848  11.044  12.296   1.108
38440W        W 4849  21.519  39.627   0.305
38441W        W 4850  10.185  15.484   3.802
38442W        W 4851  21.821  29.098  13.082
38443W        W 4852  31.214   5.009   0.278
38444W        W 4853  33.091   7.835  14.006
38445W        W 4854  42.731  35.143   3.681
38446W        W 4855   3.849  21.050   2.646
38447W        W 4856  30.055  39.075  11.214
38448W        W 4857  44.029   8.297   3.724
38449W        W 4858  10.333  40.416  14.772
38450W        W 4859  17.694   9.339  11.621
38451W        W 4860   2.041   4.917  11.704
38452W        W 4861  36.892   3.941  12.931
38453W        W 4862   1.717  22.287   0.778
38454W        W 4863  40.021  11.131  11.133
38455W        W 4864  40.556  36.473  10.710
38456W        W 4865  13.978  32.556  12.744
38457W        W 4866  25.113  31.320  13.936
38458W        W 4867  43.934  11.429   1.846
38459W        W 4868  32.539  25.052  10.679
38460W        W 4869  16.753   3.143   3.985
38461W        W 4870  19.200  40.108   4.919
38462W        W 4871  41.006   1.805  13.999
38463W        W 4872  20.045   4.312  10.645
38464W        W 4873  16.575  14.707  11.438
38465W        W 4874  42.884  28.036   4.196
38466W        W 4875  35.468   1.326  12.345
38467W        W 4876  28.848  26.505   4.197
38468W        W 4877  35.164  41.509  14.032
38469W        W 4878   4.256   4.033   4.858
38470W        W 4879  13.905   6.643   2.993
38471W        W 4880   8.661  30.554   0.469
38472W        W 4881  10.683  27.994   4.098
38473W        W 4882  25.024  31.602   2.805
38474W        W 4883  27.120  10.192  12.221
38475W        W 4884  17.496   6.188  10.978
38476W        W 4885  39.409  39.655   2.466
38477W        W 4886  22.433   2.071   2.718
38478W        W 4887  12.090  12.746  13.346
38479W        W 4888  30.017  32.958  14.174
38480W        W 4889  36.532  32.574  11.346
38481W        W 4890  13.007   9.605  11.648
38482W        W 4891  33.591  34.162  12.957
38483W        W 4892   2.276  18.305   2.755
38484W        W 4893   5.976  24.479  14.491
38485W        W 4894   8.881   1.290   2.196
38486W        W 4895  34.658  10.732  11.551
38487W        W 4896  16.859   2.000   4.876
38488W        W 4897  23.497  10.491   2.779
38489W        W 4898  14.708  33.876   2.360
38490W        W 4899  30.468   0.410   3.177
38491W        W 4900  29.370  34.070  11.889
38492W        W 4901  23.194  13.625   3.268
38493W        W 4902  28.233   2.266   4.028
38494W        W 4903   0.394  28.872   2.323
38495W        W 4904  37.063  43.500   2.869
38496W        W 4905  16.232  35.915  14.357
38497W        W 4906   6.886  40.563   0.424
38498W        W 4907  34.777  17.626   3.268
38499W        W 4908   5.090  26.661  11.811
38500W        W 4909  25.485   5.832   0.847
38501W        W 4910  27.520  36.689  12.006
38502W        W 4911  21.131  22.104   3.778
38503W        W 4912  44.168  44.525   3.169
38504W        W 4913  43.637  12.945   3.282
38505W        W 4914  32.438  10.802   3.265
38506W        W 4915  16.414  41.252  14.198
38507W        W 4916  36.668  32.977   1.081
38508W        W 4917  24.482  20.319  12.114
38509W        W 4918  10.125  17.791   4.484
38510W        W 4919  13.853  36.603  14.855
38511W        W 4920   1.908   0.774  14.315
38512W        W 4921  36.357  28.926  14.960
38513W        W 4922   0.325  16.880   0.804
38514W        W 4923  42.631  20.279  10.626
38515W        W 4924  37.339  30.089   1.284
38516W        W 4925  42.896  41.701   0.948
38517W        W 4926  34.618  11.965   0.182
38518W        W 4927  20.928  16.785   1.543
38519W        W 4928  27.603  24.611  14.342
38520W        W 4929  25.003  19.292  10.907
38521W        W 4930  33.888  10.178  10.356
38522W        W 4931  11.228  19.846   2.601
38523W        W 4932  29.173   9.112   3.559
38524W        W 4933  19.243  42.121   4.622
38525W        W 4934   8.770  12.853   1.956
38526W        W 4935  43.491   3.432  11.997
38527W        W 4936  11.635  23.622  10.598
38528W        W 4937  29.855   6.076  13.237
38529W        W 4938  16.283   4.426   3.668
38530W        W 4939   4.809  35.479   1.711
38531W        W 4940  10.830  38.489  13.609
38532W        W 4941  14.800  14.119   3.356
38533W        W 4942  41.509  12.350  14.523
38534W        W 4943   6.786  39.492  14.721
38535W        W 4944  18.062   4.890   2.230
38536W        W 4945   2.789  16.138  11.545
38537W        W 4946  32.277  39.216   0.677
38538W        W 4947  21.770  25.976   4.488
38539W        W 4948   6.082  10.142  14.825
38540W        W 4949   7.923  10.382  13.841
38541W        W 4950  25.055  26.892  13.016
38542W        W 4951  17.652  31.447   2.712
38543W        W 4952  15.688   6.230  11.794
38544W        W 4953  14.243  26.489  12.340
38545W        W 4954  43.408  35.456  14.309
38546W        W 4955  21.129  25.930   0.497
38547W        W 4956  35.964  42.526  12.960
38548W        W 4957  31.068  22.994  13.788
38549W        W 4958  40.547  28.600   0.157
38550W        W 4959  41.361  23.206  14.626
38551W        W 4960   9.578  40.785   0.000
38552W        W 4961  25.292  15.138   0.502
38553W        W 4962  27.152  40.520   2.270
38554W        W 4963   2.843  18.777   1.329
38555W        W 4964  42.200   5.207  12.334
38556W        W 4965  17.291  13.641  14.397
38557W        W 4966  23.790   0.195   0.294
38558W        W 4967  15.559   1.295  12.382
38559W        W 4968  35.401  16.517   0.019
38560W        W 4969   0.371  16.867   4.389
38561W        W 4970  44.730  19.935  13.298
38562W        W 4971  43.336  15.690   2.879
38563W        W 4972   4.234   4.821   0.312
38564W        W 4973   0.927   4.431   4.133
38565W        W 4974  27.960  12.593   0.994
38566W        W 4975   0.495  16.671  12.078
38567W        W 4976  32.905  36.837  13.366
38568W        W 4977  10.355  35.948  14.506
38569W        W 4978  43.351   9.595  13.794
38570W        W 4979   4.768  35.119  10.702
38571W        W 4980  38.649   7.173   3.390
38572W        W 4981  36.846  43.537   0.324
38573W        W 4982  14.422  25.334   2.218
38574W        W 4983  26.024   6.066  11.044
38575W        W 4984  24.986  36.816   2.846
38576W        W 4985  17.452  39.289  13.017
38577W        W 4986  19.563   5.174   2.283
38578W        W 4987  31.685   3.354   2.718
38579W        W 4988  21.575  12.176   0.031
38580W        W 4989  14.005   9.821  14.708
38581W        W 4990  40.075  44.792   0.996
38582W        W 4991  36.548   6.216  11.471
38583W        W 4992  13.848   5.445  14.477
38584W        W 4993   0.273   9.347   0.496
38585W        W 4994  35.836   8.975  14.027
38586W        W 4995   8.113  38.573  12.410
38587W        W 4996  35.621  40.989   0.474
38588W        W 4997  21.997   1.924  14.336
38589W        W 4998  43.065   8.797   0.843
38590W        W 4999  26.463  20.807   3.745
38591W        W 5000  33.383  41.509  14.960
38592W        W 5001  11.876   8.803  13.059
38593W        W 5002   0.364   0.803   4.459
38594W        W 5003   4.225   8.732  13.641
38595W        W 5004  32.394   7.882   4.087
38596W        W 5005  39.274  17.235  13.502
38597W        W 5006   7.683  17.850   1.840
38598W        W 5007   6.036   4.335   0.575
38599W        W 5008   0.067  23.291   1.435
38600W        W 5009  40.389  31.626   0.531
38601W        W 5010  35.024   8.970  13.019
38602W        W 5011   1.071   5.427   3.145
38603W        W 5012  25.218  21.273   4.062
38604W        W 5013   1.831  33.384   4.530
38605W        W 5014  42.733  29.551   1.202
38606W        W 5015  28.580   9.670  14.411
38607W        W 5016  28.950   1.210  12.064
38608W        W 5017  12.694  30.429  10.973
38609W        W 5018  26.014  27.227  12.911
38610W        W 5019  20.977  20.738   1.827
38611W        W 5020  40.866   0.516  12.809
38612W        W 5021  25.183   3.245  12.835
38613W        W 5022  16.161  27.581  14.509
38614W        W 5023  15.255  32.463  14.463
38615W        W 5024   9.251  13.518   1.419
38616W        W 5025  18.113   4.911  13.504
38617W        W 5026  19.912   1.964   3.422
38618W        W 5027  18.130  18.358  13.682
38619W        W 5028  38.745   4.081  10.808
38620W        W 5029  38.607  13.790   1.497
38621W        W 5030  19.387  35.337  10.760
38622W        W 5031  13.679  34.975  14.311
38623W        W 5032   5.947  28.261   9.899
38624W        W 5033  22.645   6.433  11.147
38625W        W 5034  13.057  11.103   1.886
38626W        W 5035  30.657  35.163  10.737
38627W        W 5036  11.673  15.746  12.775
38628W        W 5037  12.290  42.489  12.377
38629W        W 5038  14.722  23.960  11.132
38630W        W 5039  43.106  31.394  11.551
38631W        W 5040  36.926  17.082  11.684
38632W        W 5041  14.567  27.587  14.371
38633W        W 5042  25.107  19.475   0.417
38634W        W 5043  23.626  42.308  11.069
38635W        W 5044  10.330  30.471  12.612
38636W        W 5045  38.241  11.148   3.699
38637W        W 5046  19.845  31.504   0.707
38638W        W 5047   6.266  43.223   4.440
38639W        W 5048  41.377  42.256   2.268
38640W        W 5049   2.805   9.797   2.844
38641W        W 5050   4.582  44.343  14.946
38642W        W 5051  38.722  32.193   2.776
38643W        W 5052   5.835  18.914   2.285
38644W        W 5053  32.494  13.458  10.925
38645W        W 5054  26.843  38.743   4.973
38646W        W 5055   0.422  41.838  10.741
38647W        W 5056   4.710  39.794  12.890
38648W        W 5057  28.049  20.344  10.694
38649W        W 5058  16.031  20.276  14.394
38650W        W 5059  13.110  30.438   2.916
38651W        W 5060  21.120   7.262   2.627
38652W        W 5061  34.545   3.083   1.191
38653W        W 5062  11.316  37.077  11.713
38654W        W 5063   6.872   3.888   3.927
38655W        W 5064  31.169   7.355   0.268
38656W        W 5065  11.521  29.692  11.363
38657W        W 5066  43.130  31.488   0.708
38658W        W 5067   4.358  24.195   1.771
38659W        W 5068  36.249  43.723  13.893
38660W        W 5069  12.134  30.633   4.279
38661W        W 5070  26.672  31.661   0.072
38662W        W 5071   9.887  19.544  10.805
38663W        W 5072  31.621   5.369   4.228
38664W        W 5073  21.734  13.277  10.687
38665W        W 5074  14.197  35.827   0.203
38666W        W 5075  38.557  44.236  10.625
38667W        W 5076   8.404  38.961   4.161
38668W        W 5077  21.296   9.656  11.154
38669W        W 5078   3.921  10.759   3.146
38670W        W 5079  16.629  12.601   2.361
38671W        W 5080  26.954  43.916  13.468
38672W        W 5081  10.088  21.881   4.466
38673W        W 5082  10.298  37.595  13.766
38674W        W 5083  23.995  15.209  14.790
38675W        W 5084  11.368  32.184  13.794
38676W        W 5085  15.754  43.294  13.884
38677W        W 5086  26.782   9.846   3.265
38678W        W 5087  20.380  33.943   3.383
38679W        W 5088   6.029   0.473   3.265
38680W        W 5089  12.266  19.207  13.979
38681W        W 5090  13.387  10.670   4.327
38682W        W 5091  18.712   7.682  14.799
38683W        W 5092  39.972  20.520   1.946
38684W        W 5093  20.178  23.553  14.457
38685W        W 5094  12.270   5.165  11.665
38686W        W 5095  12.622  21.160   0.508
38687W        W 5096  12.039   6.502  12.563
38688W        W 5097  16.551  27.594  11.972
38689W        W 5098  35.897  22.591   3.568
38690W        W 5099   8.038  41.609   2.231
38691W        W 5100  11.055  36.354   2.516
38692W        W 5101   2.010  22.550   2.441
38693W        W 5102  39.253  15.473   0.014
38694W        W 5103  14.521  21.786  14.368
38695W        W 5104   8.292  13.641   2.821
38696W        W 5105  42.278  27.973   1.804
38697W        W 5106  31.773   1.817   0.501
38698W        W 5107  35.818   0.403  13.615
38699W        W 5108  16.655   5.107   0.352
38700W        W 5109  13.609  27.664   0.847
38701W        W 5110   3.870   3.215  13.652
38702W        W 5111  31.931   2.410  12.089
38703W        W 5112  16.798   3.846  14.093
38704W        W 5113  11.330  27.667  12.624
38705W        W 5114  42.101   1.955  11.639
38706W        W 5115  33.642  36.840  14.046
38707W        W 5116  18.226  10.763   1.878
38708W        W 5117  19.218  13.613   4.414
38709W        W 5118  28.235  35.029  14.905
38710W        W 5119  12.286   2.894  13.032
38711W        W 5120  31.899  23.302  13.532
38712W        W 5121   0.682  14.695  12.695
38713W        W 5122  18.980  31.106   2.744
38714W        W 5123  29.283  12.874  10.645
38715W        W 5124  22.934   2.979  13.916
38716W        W 5125  12.877   4.326   1.364
38717W        W 5126  38.452  17.607  14.578
38718W        W 5127  31.495   5.750  14.953
38719W        W 5128  25.741  12.872   3.547
38720W        W 5129   3.685   2.753  11.378
38721W        W 5130  26.483  11.234   0.420
38722W        W 5131  30.845   7.968  10.068
38723W        W 5132  29.404  36.949  12.953
38724W        W 5133  37.961  42.210  11.680
38725W        W 5134  31.289  35.154   2.761
38726W        W 5135   2.372   1.469  11.688
38727W        W 5136  32.163  32.832   4.238
38728W        W 5137   7.421  14.083  11.918
38729W        W 5138  44.302   2.380   1.846
38730W        W 5139   6.878  10.387  12.440
38731W        W 5140   5.522  11.842  14.902
38732W        W 5141  11.651  18.083   0.753
38733W        W 5142  33.954  12.044   3.187
38734W        W 5143  25.504   7.872   5.085
38735W        W 5144  39.847   8.777   2.396
38736W        W 5145  17.254  40.062   0.509
38737W        W 5146  18.783  14.788   4.849
38738W        W 5147   4.234   3.208   2.973
38739W        W 5148  10.433  29.463  14.106
38740W        W 5149  44.876  30.421  13.947
38741W        W 5150   8.078   7.415  13.516
38742W        W 5151  12.293   0.401   2.304
38743W        W 5152  32.173   9.923   4.582
38744W        W 5153  17.220  36.804  14.100
38745W        W 5154  44.832  33.446   2.216
38746W        W 5155  39.142   9.080  11.678
38747W        W 5156   0.871  27.522   1.281
38748W        W 5157   4.564  31.156  13.160
38749W        W 5158  33.680  26.285   1.851
38750W        W 5159  43.464  14.077  12.053
38751W        W 5160  44.916  13.628   4.277
38752W        W 5161  19.628  11.421  12.175
38753W        W 5162  18.541  19.645  14.970
38754W        W 5163  25.411  35.026   0.781
38755W        W 5164  10.630  23.622  10.695
38756W        W 5165  22.769  16.695   2.345
38757W        W 5166  25.318  15.328  12.175
38758W        W 5167  40.849  10.192  10.609
38759W        W 5168  39.855  30.396   0.454
38760W        W 5169  40.466  31.185  11.140
38761W        W 5170  21.320  43.063  13.046
38762W        W 5171  28.100  20.505   0.804
38763W        W 5172  29.137   2.727  12.116
38764W        W 5173  36.691   4.929  11.062
38765W        W 5174  21.060  14.218  12.281
38766W        W 5175  23.561   3.538  11.240
38767W        W 5176  12.762  32.904  12.595
38768W        W 5177  44.013  42.322  14.374
38769W        W 5178  10.223  44.450  14.783
38770W        W 5179  16.285  31.208  12.475
38771W        W 5180  44.481  40.372   2.330
38772W        W 5181  25.552   7.696  13.131
38773W        W 5182  42.009  28.237   3.676
38774W        W 5183  36.768  26.452   2.676
38775W        W 5184  23.499  34.581   1.978
38776W        W 5185  41.681  21.674   2.591
38777W        W 5186  18.206  16.693   3.666
38778W        W 5187  27.450  26.855   2.997
38779W        W 5188   2.414   3.484   0.028
38780W        W 5189  13.423   9.796   4.928
38781W        W 5190   5.759   2.226  12.181
38782W        W 5191  33.456  12.606  12.937
38783W        W 5192   7.323  43.162   1.654
38784W        W 5193  22.481  22.239   4.742
38785W        W 5194  24.469  14.677  12.070
38786W        W 5195  17.063  26.586   1.829
38787W        W 5196  20.181   9.771   1.442
38788W        W 5197  24.626  40.284   0.514
38789W        W 5198  11.439  36.032   1.183
38790W        W 5199  28.686  39.044  13.555
38791W        W 5200  26.408  40.841   4.365
38792W        W 5201  44.155  12.778   3.360
38793W        W 5202  11.641   1.640  11.196
38794W        W 5203  37.515  13.838   0.936
38795W        W 5204   6.659  34.569   2.662
38796W        W 5205  13.279  34.659   4.574
38797W        W 5206  11.125  30.817   0.047
38798W        W 5207  19.507  41.280  12.535
38799W        W 5208   8.189  20.552   2.950
38800W        W 5209  35.996   3.918   1.098
38801W        W 5210  35.665  16.445   3.128
38802W        W 5211  15.619  41.403   3.365
38803W        W 5212  32.396   3.984  13.411
38804W        W 5213  20.625  22.032  12.606
38805W        W 5214   6.676   4.758   2.350
38806W        W 5215  28.654  11.536  13.551
38807W        W 5216  18.249   0.859  14.406
38808W        W 5217   5.964  38.157  14.000
38809W        W 5218   1.292  18.087  13.369
38810W        W 5219  16.526  30.636  11.036
38811W        W 5220  23.415  26.631  14.924
38812W        W 5221   7.511  35.626   0.645
38813W        W 5222   1.611  38.796  11.295
38814W        W 5223   3.022  28.388   1.949
38815W        W 5224  25.749  26.301  13.540
38816W        W 5225   7.165   9.884  10.630
38817W        W 5226  34.669  26.608  14.548
38818W        W 5227  28.705  22.987  12.718
38819W        W 5228   3.780  14.496   4.673
38820W        W 5229  15.056   0.138   0.416
38821W        W 5230  38.997  18.329   3.764
38822W        W 5231  20.557  32.069  14.741
38823W        W 5232  39.889   9.207  14.822
38824W        W 5233   0.445  38.006   0.894
38825W        W 5234  19.827  42.711  11.196
38826W        W 5235  12.784  23.057  10.495
38827W        W 5236  36.946  40.967   1.524
38828W        W 5237  22.606   5.199   0.724
38829W        W 5238  44.399  29.707  10.655
38830W        W 5239  40.804  34.338   4.824
38831W        W 5240   3.999  15.061   0.924
38832W        W 5241  18.050  39.284   0.434
38833W        W 5242   0.001  25.206  13.545
38834W        W 5243  14.065  30.819  12.006
38835W        W 5244  44.494  38.395  12.927
38836W        W 5245  33.839  20.764  12.178
38837W        W 5246  10.389  37.098  10.275
38838W        W 5247  42.312  27.014  14.332
38839W        W 5248  38.869  16.951  13.335
38840W        W 5249  23.582  15.330  14.475
38841W        W 5250  22.426  34.307  12.654
38842W        W 5251  37.915  29.256   4.268
38843W        W 5252  40.739   9.317  11.008
38844W        W 5253   0.073   8.370  12.564
38845W        W 5254  31.471  41.316  12.997
38846W        W 5255  10.700  12.331   1.487
38847W        W 5256  24.192   9.892   0.458
38848W        W 5257  13.371  20.728   2.462
38849W        W 5258  44.179  37.922  12.040
38850W        W 5259   7.587  27.622  10.247
38851W        W 5260  10.179  31.334  10.628
38852W        W 5261  25.773  19.653  11.983
38853W        W 5262  25.074  25.769   0.889
38854W        W 5263   4.403  31.156   3.244
38855W        W 5264  32.481  38.516   1.195
38856W        W 5265  22.495   0.917  11.569
38857W        W 5266  23.496  20.544  11.731
38858W        W 5267  44.011   6.935  11.981
38859W        W 5268  33.670  44.277  11.996
38860W        W 5269  17.642   6.189   3.886
38861W        W 5270  14.843  11.894  14.124
38862W        W 5271   4.848   5.316   1.373
38863W        W 5272  42.094  31.951  14.929
38864W        W 5273  36.048  30.705   2.632
38865W        W 5274  18.092  24.416   3.185
38866W        W 5275  23.952   2.915  14.096
38867W        W 5276  30.553  42.557   4.615
38868W        W 5277  10.225  23.469   1.477
38869W        W 5278  32.372  41.083  14.872
38870W        W 5279  29.331   4.287  14.004
38871W        W 5280  26.594  40.419   5.107
38872W        W 5281  37.267  12.142   0.354
38873W        W 5282  23.236  15.375   4.114
38874W        W 5283  34.383  38.955   4.179
38875W        W 5284  26.372  43.769  13.614
38876W        W 5285  11.525  36.029   2.652
38877W        W 5286   8.375  41.698   4.603
38878W        W 5287  16.576  36.965  11.924
38879W        W 5288   6.018  11.658   3.153
38880W        W 5289  20.799  30.106  12.572
38881W        W 5290  44.989   9.272   2.530
38882W        W 5291  40.744  16.678  12.535
38883W        W 5292  14.156  19.467   4.617
38884W        W 5293   8.287  41.673   2.694
38885W        W 5294  35.144  33.089  12.705
38886W        W 5295  40.533   3.763   0.391
38887W        W 5296  43.374  27.865   4.293
38888W        W 5297  39.253  21.479   9.682
38889W        W 5298  22.766  24.803  10.675
38890W        W 5299  43.667   6.893  14.939
38891W        W 5300  24.144   4.170  11.180
38892W        W 5301  35.158   1.681   1.546
38893W        W 5302  40.472  33.887  11.484
38894W        W 5303  20.776  16.158   1.364
38895W        W 5304  23.274  24.044  10.710
38896W        W 5305  38.232  10.939  11.078
38897W        W 5306  15.285   9.731  14.436
38898W        W 5307  22.142  15.180   3.125
38899W        W 5308  20.587  35.110  11.059
38900W        W 5309  25.147  31.174  11.588
38901W        W 5310  26.448  24.905   0.082
38902W        W 5311   1.260  17.679  13.024
38903W        W 5312   2.458   5.320  14.291
38904W        W 5313   5.787  23.498   3.020
38905W        W 5314  27.526  18.645   3.086
38906W        W 5315  26.327  13.714   1.280
38907W        W 5316  14.054  43.471   3.218
38908W        W 5317  17.532   2.159  12.143
38909W        W 5318   7.937   7.553  11.213
38910W        W 5319  32.593  42.664   3.135
38911W        W 5320  28.578   2.458  14.243
38912W        W 5321  36.362  19.784  10.749
38913W        W 5322   6.688  26.868   4.140
38914W        W 5323  35.521   1.916   3.902
38915W        W 5324  26.382   3.593  12.661
38916W        W 5325  24.028  44.097  11.595
38917W        W 5326  27.440  26.152   0.317
38918W        W 5327   6.417  37.579  10.823
38919W        W 5328   0.445  16.848   3.643
38920W        W 5329   8.283  38.260  11.163
38921W        W 5330  10.830   0.715   3.133
38922W        W 5331  18.796   2.425   1.534
38923W        W 5332  29.527  30.144   4.218
38924W        W 5333   2.974  44.156   1.009
38925W        W 5334  19.534   7.481  14.874
38926W        W 5335  34.957  23.756   2.597
38927W        W 5336   5.329   4.231   3.299
38928W        W 5337  35.835  16.353   0.776
38929W        W 5338   0.392  44.416  12.764
38930W        W 5339   2.798  13.188  11.523
38931W        W 5340  21.235  24.931  11.597
38932W        W 5341  18.240   3.042   1.240
38933W        W 5342  36.013  18.611   2.454
38934W        W 5343  33.128  35.561   3.675
38935W        W 5344  21.750   6.896  13.291
38936W        W 5345  34.029  14.688  11.766
38937W        W 5346  29.011  18.117  13.911
38938W        W 5347  37.538  43.786   0.771
38939W        W 5348   6.963  22.760   4.740
38940W        W 5349  16.707   1.349  12.970
38941W        W 5350   5.297   5.345   2.687
38942W        W 5351  12.442  23.384  10.291
38943W        W 5352  10.100  33.881  12.558
38944W        W 5353  39.515  35.183  12.680
38945W        W 5354  23.499  19.506  13.907
38946W        W 5355  38.537  38.085   0.781
38947W        W 5356  16.879  20.741   3.638
38948W        W 5357  42.890   8.147   5.367
38949W        W 5358  12.179  37.443   9.619
38950W        W 5359  38.371  22.555   2.872
38951W        W 5360  11.906  29.705   3.201
38952W        W 5361  29.896  43.513   2.291
38953W        W 5362   9.252  16.090   0.095
38954W        W 5363  19.248  22.559   0.069
38955W        W 5364  17.617   5.210  10.405
38956W        W 5365  35.921  23.293  13.367
38957W        W 5366  31.689  42.552   2.722
38958W        W 5367  42.787  13.666  14.306
38959W        W 5368   2.713  32.235  11.587
38960W        W 5369   5.458   9.182   4.208
38961W        W 5370  24.237  33.600  14.271
38962W        W 5371  24.315   4.271  11.786
38963W        W 5372  32.541  32.626   2.633
38964W        W 5373  14.870   4.913   0.397
38965W        W 5374  37.252  11.540   4.136
38966W        W 5375  31.040  32.890   2.742
38967W        W 5376  16.170  10.404  11.581
38968W        W 5377  44.167  30.451   0.849
38969W        W 5378  20.728  15.205   1.462
38970W        W 5379  28.949  43.322   1.712
38971W        W 5380  41.483  18.106   3.527
38972W        W 5381  42.525  35.693   3.310
38973W        W 5382   2.395  15.255  12.138
38974W        W 5383   7.827  42.966   1.788
38975W        W 5384  14.430  44.032  10.334
38976W        W 5385   8.661  19.757   1.543
38977W        W 5386  10.929   1.422  14.800
38978W        W 5387  23.129   6.587  10.976
38979W        W 5388  37.906  26.007   3.018
38980W        W 5389  13.765  14.813   1.879
38981W        W 5390  36.278  24.616   2.044
38982W        W 5391  16.611  35.277  12.675
38983W        W 5392  29.229   1.412   4.707
38984W        W 5393  43.836  19.891  14.698
38985W        W 5394   2.716   5.174  13.871
38986W        W 5395  42.567  36.508   3.884
38987W        W 5396   5.425   0.371  14.559
38988W        W 5397  11.836  18.631  13.268
38989W        W 5398  25.121   9.180   3.985
38990W        W 5399  37.038  18.444   5.026
38991W        W 5400  33.841  32.650   1.968
38992W        W 5401  39.362  12.988  14.198
38993W        W 5402  11.360  29.977   2.938
38994W        W 5403  18.137  15.824  13.366
38995W        W 5404  38.065   8.339   3.748
38996W        W 5405  11.100  22.259  13.947
38997W        W 5406  12.208  40.688  14.356
38998W        W 5407   5.322   4.167   2.381
38999W        W 5408  31.426  33.535  14.124
39000W        W 5409  37.095  19.087  10.620
39001W        W 5410  24.342  28.527  12.424
39002W        W 5411  42.103  41.472  12.373
39003W        W 5412  37.968   5.829  13.144
39004W        W 5413   1.859  42.862  14.502
39005W        W 5414   0.489   6.601   4.514
39006W        W 5415  13.205  43.685  12.978
39007W        W 5416  17.748  14.490  11.226
39008W        W 5417  36.076   0.475  14.045
39009W        W 5418  10.235  28.008   0.362
39010W        W 5419  32.703  37.321  13.426
39011W        W 5420  24.996  40.844   2.811
39012W        W 5421  13.732  40.281   0.723
39013W        W 5422  42.834  44.566  12.020
39014W        W 5423   7.109  30.488   2.103
39015W        W 5424  12.098  34.782   3.180
39016W        W 5425  30.837  36.914   0.379
39017W        W 5426  14.868  32.029   4.659
39018W        W 5427  35.078  38.233  11.288
39019W        W 5428  10.848  32.925   3.578
39020W        W 5429  34.407  22.570   2.410
39021W        W 5430  33.038  35.519   4.204
39022W        W 5431   3.209  43.494  12.458
39023W        W 5432  36.035  43.267   1.934
39024W        W 5433  26.546  34.125  13.940
39025W        W 5434   3.787  40.990   1.359
39026W        W 5435  43.016  23.663   3.419
39027W        W 5436   0.746   5.901   1.191
39028W        W 5437  43.379  36.021  12.037
39029W        W 5438  12.516  33.947   3.110
39030W        W 5439  34.905  35.612  11.238
39031W        W 5440  16.393  14.657  10.946
39032W        W 5441   9.018   7.279   0.179
39033W        W 5442  32.458  39.325  12.473
39034W        W 5443  41.083  32.311  13.982
39035W        W 5444  10.329  21.855   0.788
39036W        W 5445   8.481  16.299   0.469
39037W        W 5446  33.215  13.687  12.559
39038W        W 5447   6.921  29.840   3.814
39039W        W 5448  11.884   1.069  14.710
39040W        W 5449  17.075  27.737  13.030
39041W        W 5450   4.256  23.678   4.488
39042W        W 5451  17.629  20.788  14.774
39043W        W 5452  43.066  37.968  13.313
39044W        W 5453  16.536  24.476   2.746
39045W        W 5454  39.156  42.295  13.151
39046W        W 5455  17.954   2.004   2.197
39047W        W 5456  44.780   4.328  14.543
39048W        W 5457   2.862  17.331  14.303
39049W        W 5458  28.048  40.767  10.719
39050W        W 5459  26.878   7.697   1.244
39051W        W 5460  26.282  37.088   0.651
39052W        W 5461  21.267   6.710  14.936
39053W        W 5462  11.355  40.357  14.726
39054W        W 5463  16.278  14.116  13.042
39055W        W 5464  27.186  30.119   4.238
39056W        W 5465   1.363  18.004  14.257
39057W        W 5466  19.597  19.402   4.899
39058W        W 5467  10.544  35.112   2.289
39059W        W 5468  21.542   0.145  10.685
39060W        W 5469  22.178  31.993  14.258
39061W        W 5470   6.821  34.858  10.231
39062W        W 5471   1.883  32.688   2.323
39063W        W 5472  36.782   2.008  14.490
39064W        W 5473   1.965  33.994  10.826
39065W        W 5474  42.034  12.343   3.190
39066W        W 5475  42.753  23.184   3.344
39067W        W 5476  33.104  24.616  14.411
39068W        W 5477  17.967   6.231  10.770
39069W        W 5478  38.647  13.257  12.829
39070W        W 5479  40.073  22.660   5.038
39071W        W 5480  25.249  28.007  14.962
39072W        W 5481  34.188  15.667  12.036
39073W        W 5482  25.701  17.881  14.761
39074W        W 5483  37.086  35.364  11.597
39075W        W 5484  18.100  41.915  11.218
39076W        W 5485   2.659  11.135   3.192
39077W        W 5486  29.539   4.751  13.804
39078W        W 5487  37.818  12.478   2.199
39079W        W 5488   0.735   5.701  13.324
39080W        W 5489  35.089   9.780  10.745
39081W        W 5490  15.757   3.101   0.354
39082W        W 5491  19.488  12.925  13.343
39083W        W 5492  14.583  24.008  10.641
39084W        W 5493  22.904  21.530   3.207
39085W        W 5494   4.362  43.378   2.193
39086W        W 5495   7.164  27.820   2.298
39087W        W 5496  32.998   6.360   2.889
39088W        W 5497  10.722  28.931  11.093
39089W        W 5498  13.860   3.245  14.480
39090W        W 5499  21.182  34.319  14.988
39091W        W 5500  25.823  21.333   0.278
39092W        W 5501  25.633  17.082   4.775
39093W        W 5502   0.792  11.332   1.303
39094W        W 5503  27.723  12.013   4.601
39095W        W 5504  43.614  28.118   0.189
39096W        W 5505   2.717  38.408  12.426
39097W        W 5506  42.424  20.538   4.894
39098W        W 5507  18.645   6.884  12.227
39099W        W 5508  33.604  28.498  13.174
39100W        W 5509  39.344  12.196   0.372
39101W        W 5510  30.880   8.757  13.891
39102W        W 5511  24.026  24.974  14.419
39103W        W 5512   9.688  35.863  12.505
39104W        W 5513  24.667  35.527  12.446
39105W        W 5514  35.907   9.811  13.347
39106W        W 5515  34.099  11.701  10.593
39107W        W 5516  20.693  14.624   2.853
39108W        W 5517   6.282   5.991   0.348
39109W        W 5518   6.472  36.910  12.818
39110W        W 5519  33.473  44.267   0.836
39111W        W 5520  23.021   5.112   1.645
39112W        W 5521  18.708  25.975   1.531
39113W        W 5522   4.706  25.977  12.089
39114W        W 5523   5.170  37.917   4.233
39115W        W 5524  43.256  40.448   3.642
39116W        W 5525  30.618  24.731  13.141
39117W        W 5526  11.172  39.158   3.190
39118W        W 5527  16.294  13.356  11.587
39119W        W 5528   9.982  29.007   4.469
39120W        W 5529  36.070  42.633  14.331
39121W        W 5530   7.992  42.463   0.665
39122W        W 5531  36.959   7.233  14.867
39123W        W 5532  35.528  10.221   3.644
39124W        W 5533  16.691  23.916  10.853
39125W        W 5534  43.027  37.471  13.522
39126W        W 5535  14.922  19.710  12.460
39127W        W 5536  10.947  26.517  10.514
39128W        W 5537  13.379  38.942   2.665
39129W        W 5538  20.552  21.241   0.893
39130W        W 5539   9.871  10.324   3.459
39131W        W 5540  41.566   9.799   1.967
39132W        W 5541   7.445   0.280  13.048
39133W        W 5542  21.421  31.528  13.757
39134W        W 5543  14.220  40.846   3.275
39135W        W 5544  22.204   5.921   4.351
39136W        W 5545  11.726  37.206  13.340
39137W        W 5546  12.704  37.633  13.450
39138W        W 5547  17.854  22.658  14.866
39139W        W 5548  29.422  22.143  10.447
39140W        W 5549  44.102  36.589   0.265
39141W        W 5550   9.643  37.949   4.328
39142W        W 5551  12.962   1.921   2.798
39143W        W 5552  31.502  44.342   3.967
39144W        W 5553   5.738  40.494  13.519
39145W        W 5554   8.866  40.277  10.603
39146W        W 5555  30.373   8.726  13.955
39147W        W 5556  42.649  34.394   4.322
39148W        W 5557  37.534  21.098  10.690
39149W        W 5558  25.119  32.421   0.699
39150W        W 5559  32.418  20.992  13.603
39151W        W 5560   3.921   7.894   2.767
39152W        W 5561  37.921   1.757   2.407
39153W        W 5562  41.778   6.066  13.874
39154W        W 5563  40.621  18.312  11.880
39155W        W 5564  40.838  20.460   2.039
39156W        W 5565  40.049   5.285  13.321
39157W        W 5566  34.403  38.026   2.643
39158W        W 5567  26.687  19.570  13.094
39159W        W 5568  21.208   5.227   0.531
39160W        W 5569  24.615  19.203  12.238
39161W        W 5570  12.248   0.229  14.901
39162W        W 5571  13.871  43.607  13.542
39163W        W 5572  35.490  11.286  12.994
39164W        W 5573  42.313   1.698   3.762
39165W        W 5574  34.105  22.912  12.048
39166W        W 5575  25.435  12.180  12.591
39167W        W 5576  21.008   5.912  11.537
39168W        W 5577  22.437  39.613  13.361
39169W        W 5578  25.193  32.905   1.952
39170W        W 5579  26.655  35.460  13.529
39171W        W 5580  31.409  31.677   1.806
39172W        W 5581  15.853  23.736  13.553
39173W        W 5582   0.924  23.977  12.028
39174W        W 5583  12.689   4.441  13.506
39175W        W 5584  31.044  24.416  13.835
39176W        W 5585  40.346  13.820   2.798
39177W        W 5586  40.009  30.151   3.202
39178W        W 5587  13.053  20.684  13.917
39179W        W 5588  16.788  17.839  14.916
39180W        W 5589  12.970   0.332  12.892
39181W        W 5590  35.626   2.485   4.688
39182W        W 5591   9.956  38.544   0.198
39183W        W 5592  39.073   2.006  12.468
39184W        W 5593  31.388  41.231   4.997
39185W        W 5594  25.615  44.532  12.881
39186W        W 5595  44.357  42.068  12.508
39187W        W 5596  19.579  32.358   2.799
39188W        W 5597  27.758  42.721   3.423
39189W        W 5598  17.291  37.153  12.415
39190W        W 5599  12.284  36.968  11.360
39191W        W 5600  22.354  26.896  12.790
39192W        W 5601   7.301  40.249   0.198
39193W        W 5602  32.785  42.444  11.449
39194W        W 5603  34.525  16.042  11.951
39195W        W 5604  20.583  17.700  14.705
39196W        W 5605   1.679  27.205  10.973
39197W        W 5606  12.302  40.768  10.119
39198W        W 5607  28.517   8.650  14.385
39199W        W 5608  21.232  23.720   2.358
39200W        W 5609  24.822   6.327  12.585
39201W        W 5610  24.183  43.503   2.895
39202W        W 5611   4.890  22.566  13.009
39203W        W 5612  29.930  27.865   3.756
39204W        W 5613  18.843   1.552  10.901
39205W        W 5614   1.696  20.900   4.120
39206W        W 5615  24.143  33.421   3.067
39207W        W 5616   8.357  29.449  12.739
39208W        W 5617   6.641  43.443   4.708
39209W        W 5618  27.759   5.932   2.513
39210W        W 5619  39.824  39.415  10.444
39211W        W 5620  17.313  14.771   0.843
39212W        W 5621  41.937  13.396  14.853
39213W        W 5622  11.662  34.529   3.329
39214W        W 5623   4.792  16.764  14.055
39215W        W 5624  32.458   2.050  13.506
39216W        W 5625  18.631  13.406  14.970
39217W        W 5626  23.536   9.841  12.042
39218W        W 5627  17.730  25.018   1.352
39219W        W 5628  36.890   8.161  13.536
39220W        W 5629   1.124  18.665   1.865
39221W        W 5630  18.101  26.120   0.244
39222W        W 5631  13.787  29.573   3.164
39223W        W 5632   3.914  41.884  11.662
39224W        W 5633  26.901  16.932  13.125
39225W        W 5634  18.674  14.579   3.716
39226W        W 5635  30.058  23.982  13.683
39227W        W 5636  12.106   7.645   4.565
39228W        W 5637  26.803  16.342  11.656
39229W        W 5638  16.655  18.327  14.769
39230W        W 5639  17.183  16.864   0.060
39231W        W 5640  38.442   5.181  12.389
39232W        W 5641  11.549   5.945  13.554
39233W        W 5642  29.147  37.770   0.483
39234W        W 5643  20.535  15.133   0.960
39235W        W 5644  18.051  26.548  12.024
39236W        W 5645  39.372  31.229  14.360
39237W        W 5646  24.551  19.076   1.269
39238W        W 5647  27.055  12.269   4.705
39239W        W 5648  33.214  13.286   0.888
39240W        W 5649  24.039  33.616   1.251
39241W        W 5650  16.031  36.378  13.358
39242W        W 5651  21.607  13.465  13.074
39243W        W 5652   3.539  25.198  10.748
39244W        W 5653  30.639  14.730  13.137
39245W        W 5654  39.303  11.193   4.745
39246W        W 5655  35.826  44.956   4.057
39247W        W 5656   9.896  14.184   2.863
39248W        W 5657  41.401   8.527   9.930
39249W        W 5658  17.977  30.522   2.338
39250W        W 5659  43.870  42.032  12.729
39251W        W 5660  20.128   3.356  11.018
39252W        W 5661  15.499   1.845   2.145
39253W        W 5662  44.035   3.224   1.428
39254W        W 5663   1.352  34.815  13.934
39255W        W 5664  22.686   4.332   4.364
39256W        W 5665   4.251  18.129   2.762
39257W        W 5666  41.827  22.495  12.050
39258W        W 5667  41.989  31.915   3.206
39259W        W 5668  20.878  24.437  13.807
39260W        W 5669  37.033  31.643  14.409
39261W        W 5670  32.564  41.385  12.127
39262W        W 5671  43.034  33.648  11.568
39263W        W 5672  34.095   0.547   0.852
39264W        W 5673  28.434  41.443   1.853
39265W        W 5674  25.527  18.396  14.868
39266W        W 5675   5.195  42.399   1.418
39267W        W 5676  39.298  26.379   1.432
39268W        W 5677   6.882  34.437   1.744
39269W        W 5678  40.526  16.236   3.030
39270W        W 5679   1.124   5.398   3.654
39271W        W 5680  24.042  32.995   2.142
39272W        W 5681  32.855  41.995  13.520
39273W        W 5682  32.665   0.945   1.267
39274W        W 5683  20.639  44.411  10.693
39275W        W 5684  42.759  22.454  11.871
39276W        W 5685  43.121  42.274   1.705
39277W        W 5686   9.592  29.590   2.280
39278W        W 5687  18.891  32.048  13.936
39279W        W 5688  38.313   7.384  12.993
39280W        W 5689  23.816   0.945   4.620
39281W        W 5690  29.344  29.107  10.898
39282W        W 5691  18.271  32.688   0.395
39283W        W 5692  31.488  22.979   3.168
39284W        W 5693   7.878  11.409   1.495
39285W        W 5694  16.242  17.018   4.729
39286W        W 5695   3.381  21.884  14.068
39287W        W 5696  42.345  18.745  13.815
39288W        W 5697   1.172  24.316  12.993
39289W        W 5698   6.223  25.278  10.938
39290W        W 5699   1.434  12.252   2.286
39291W        W 5700  14.713  40.497   1.148
39292W        W 5701  42.944  22.927   4.551
39293W        W 5702   9.591   8.600  12.069
39294W        W 5703   2.221   9.926  11.181
39295W        W 5704  33.329  36.768  13.056
39296W        W 5705   3.177  10.703   4.466
39297W        W 5706  32.028  22.709   2.635
39298W        W 5707   4.268  39.317  11.634
39299W        W 5708   3.810   6.936   0.019
39300W        W 5709  41.994   5.021   4.638
39301W        W 5710  34.490  18.530   4.063
39302W        W 5711   1.501  14.985   3.214
39303W        W 5712  38.631  13.845  10.724
39304W        W 5713   0.741   5.478  11.645
39305W        W 5714  23.762   8.643   2.905
39306W        W 5715  43.539  33.531   1.368
39307W        W 5716  10.773  10.922   1.283
39308W        W 5717  13.100  24.592   2.826
39309W        W 5718  44.834   8.476  14.400
39310W        W 5719  15.695  14.931  14.563
39311W        W 5720  15.744   6.496   1.245
39312W        W 5721  19.033  23.160  11.423
39313W        W 5722  12.668  31.872   2.201
39314W        W 5723  27.838  39.031   1.347
39315W        W 5724  15.556  11.590  12.054
39316W        W 5725  15.728  20.751   3.152
39317W        W 5726  27.213  11.597   1.710
39318W        W 5727  29.093  12.140  11.583
39319W        W 5728  36.891  27.702   1.636
39320W        W 5729   0.957  15.251   2.226
39321W        W 5730  29.679  14.686   0.533
39322W        W 5731   2.988  11.202  11.926
39323W        W 5732  29.731  36.551  13.522
39324W        W 5733  10.409  43.498   3.242
39325W        W 5734   6.846   0.345  12.405
39326W        W 5735  24.256  31.623   0.279
39327W        W 5736   4.884  26.201  11.668
39328W        W 5737  15.265  10.452  13.459
39329W        W 5738  32.138  13.732   2.842
39330W        W 5739  13.853  28.607  13.385
39331W        W 5740  44.897  34.360   3.961
39332W        W 5741  32.979   1.982  10.890
39333W        W 5742  15.179  40.984   1.949
39334W        W 5743  20.296  22.127   3.354
39335W        W 5744   5.937   0.463  10.975
39336W        W 5745  25.703  34.252   3.571
39337W        W 5746  42.981  37.974  14.478
39338W        W 5747  27.694  41.566  14.728
39339W        W 5748  21.040  33.564   4.098
39340W        W 5749  18.525  41.220   4.658
39341W        W 5750  12.843  17.600   1.294
39342W        W 5751  21.735   7.727  13.575
39343W        W 5752   7.531  43.781   0.860
39344W        W 5753  22.832  42.452  12.155
39345W        W 5754  15.996   2.410  10.843
39346W        W 5755  20.055   9.225  11.378
39347W        W 5756  16.599  28.624  13.999
39348W        W 5757  31.831  25.059  13.529
39349W        W 5758   4.159   5.457   1.034
39350W        W 5759  28.403  26.750  13.891
39351W        W 5760  39.202  39.465  13.026
39352W        W 5761  44.871  29.901   2.802
39353W        W 5762   1.633  22.705  10.735
39354W        W 5763   2.313  28.571  12.864
39355W        W 5764  33.020  44.945   1.712
39356W        W 5765  27.666  15.504  13.530
39357W        W 5766  24.726  15.358   0.724
39358W        W 5767  25.580   6.041   3.140
39359W        W 5768   3.307   8.262  10.571
39360W        W 5769  41.931  27.986  12.615
39361W        W 5770   9.687  10.086  12.545
39362W        W 5771   3.711  22.510  13.530
39363W        W 5772  16.015  38.400   1.151
39364W        W 5773   4.670  13.133   4.377
39365W        W 5774   2.970  25.088  14.991
39366W        W 5775  38.061  20.751  13.932
39367W        W 5776  18.336  16.265  12.031
39368W        W 5777   3.955  11.088  14.374
39369W        W 5778  12.085   3.966   4.859
39370W        W 5779   0.091  19.578  13.901
39371W        W 5780  37.201   5.006  11.010
39372W        W 5781  23.218   6.912  12.990
39373W        W 5782  37.846  14.692   4.811
39374W        W 5783  33.008  32.463  13.335
39375W        W 5784  29.370  36.498   1.203
39376W        W 5785   8.127  37.619   1.846
39377W        W 5786   0.803   9.141  11.159
39378W        W 5787   8.284  39.281  12.916
39379W        W 5788  17.598   4.263  13.495
39380W        W 5789  35.441  17.066  14.464
39381W        W 5790  20.514  43.837   2.612
39382W        W 5791  28.599   1.344   0.699
39383W        W 5792  44.545   5.267   3.231
39384W        W 5793  39.009  19.253   0.018
39385W        W 5794  12.057  36.145  14.909
39386W        W 5795  35.516  36.069   3.666
39387W        W 5796  16.224  30.478   3.931
39388W        W 5797  29.384  23.343  11.719
39389W        W 5798   7.256   9.942  14.248
39390W        W 5799  33.957  29.498  11.994
39391W        W 5800  37.658  35.087  12.032
39392W        W 5801  34.902   9.586  12.137
39393W        W 5802  16.532  28.466   2.285
39394W        W 5803  10.382  24.592  14.451
39395W        W 5804  16.337  31.049  14.913
39396W        W 5805  15.013   8.938  11.540
39397W        W 5806  32.076  16.823   1.797
39398W        W 5807  39.953  33.581   1.378
39399W        W 5808  20.640  22.161  11.576
39400W        W 5809  19.605  39.249   1.316
39401W        W 5810   2.801  30.171   0.823
39402W        W 5811  29.481   1.224  11.993
39403W        W 5812  22.681  21.299   2.813
39404W        W 5813  29.416  38.863   2.233
39405W        W 5814  15.262  26.588  11.600
39406W        W 5815  35.110   4.967  13.694
39407W        W 5816   2.183  25.812  12.046
39408W        W 5817  42.900  10.832   0.891
39409W        W 5818  14.924   9.839  12.613
39410W        W 5819   4.349  21.142   4.058
39411W        W 5820  33.315  35.434  14.903
39412W        W 5821  34.207  32.620  12.783
39413W        W 5822  19.789  12.313   1.888
39414W        W 5823   5.808   3.986   1.293
39415W        W 5824  10.873  44.385   3.077
39416W        W 5825   5.949  38.402   4.367
39417W        W 5826   9.899   7.964  10.333
39418W        W 5827   1.795  18.131   2.830
39419W        W 5828  32.327   0.358  13.871
39420W        W 5829  19.085  27.290  11.589
39421W        W 5830  43.930   3.350   3.206
39422W        W 5831   7.206  32.132   0.457
39423W        W 5832   6.218  37.187  14.219
39424W        W 5833  40.304  36.468   2.612
39425W        W 5834  32.638  42.008  14.910
39426W        W 5835  22.541  40.226  10.502
39427W        W 5836  40.322  24.473  10.999
39428W        W 5837   7.808  41.236   4.600
39429W        W 5838  22.328   8.336  13.924
39430W        W 5839  42.138  25.493   1.885
39431W        W 5840  14.360  18.288  13.813
39432W        W 5841  35.959  37.910  14.881
39433W        W 5842  37.461  17.016  13.461
39434W        W 5843   6.393  13.101  14.959
39435W        W 5844  13.143   2.463   4.654
39436W        W 5845  25.037  26.838  14.389
39437W        W 5846  27.321  20.629   4.804
39438W        W 5847   0.965  32.046  14.814
39439W        W 5848  38.632  44.839  12.042
39440W        W 5849  22.510  15.229  11.870
39441W        W 5850  36.667  32.963  13.055
39442W        W 5851  42.083  39.252  13.344
39443W        W 5852  21.632   1.195  12.057
39444W        W 5853  30.236   5.898   5.028
39445W        W 5854   2.471   0.696  10.694
39446W        W 5855   8.550  11.677   4.092
39447W        W 5856  32.146  21.252  13.044
39448W        W 5857   2.388   1.915   3.705
39449W        W 5858  35.346  11.600  13.439
39450W        W 5859  15.646  39.131  11.360
39451W        W 5860   1.793  30.208   1.184
39452W        W 5861   0.965  42.786  13.514
39453W        W 5862  39.892  14.205  14.773
39454W        W 5863   9.293  30.293  13.960
39455W        W 5864  38.836   2.487  11.454
39456W        W 5865   8.463  18.956   0.299
39457W        W 5866  35.142  15.717  11.142
39458W        W 5867  11.797  10.853  13.078
39459W        W 5868  37.954  22.041   3.342
39460W        W 5869  10.606  15.070   2.664
39461W        W 5870  41.497  28.673   4.443
39462W        W 5871   4.870   2.985   4.178
39463W        W 5872  21.098  12.393   1.302
39464W        W 5873  26.753  22.780  12.069
39465W        W 5874   3.945  38.271   1.474
39466W        W 5875  20.120   7.876   1.289
39467W        W 5876  26.172  44.576  13.543
39468W        W 5877  38.711  42.414   4.070
39469W        W 5878  38.575  23.541   1.253
39470W        W 5879  17.549  43.727  12.949
39471W        W 5880  11.767  30.067   1.681
39472W        W 5881  39.454  16.074  14.474
39473W        W 5882  23.641  17.827   0.282
39474W        W 5883  13.593  41.297  11.633
39475W        W 5884  15.050  33.739  11.976
39476W        W 5885  25.271  37.907  11.342
39477W        W 5886   0.833   7.495  13.336
39478W        W 5887   7.955  38.767   1.790
39479W        W 5888  16.627  41.807  10.685
39480W        W 5889  11.249  11.210   1.339
39481W        W 5890  38.890  12.749  11.184
39482W        W 5891  13.329  44.590  14.336
39483W        W 5892   1.755  30.390   1.951
39484W        W 5893  35.971   8.900   1.824
39485W        W 5894  21.976  28.181   4.043
39486W        W 5895  19.650  30.842   3.747
39487W        W 5896  28.507   4.125   3.714
39488W        W 5897  27.993  17.344  13.900
39489W        W 5898   3.703  33.978   0.866
39490W        W 5899  26.116  40.573  12.976
39491W        W 5900  34.903  20.050  11.164
39492W        W 5901  40.546  22.506   0.971
39493W        W 5902  17.511   8.572   4.143
39494W        W 5903  38.099  27.615  11.614
39495W        W 5904  40.931   0.776  13.286
39496W        W 5905  21.482  27.677   1.245
39497W        W 5906  15.974  24.734   4.960
39498W        W 5907  36.534  10.338  14.073
39499W        W 5908  18.516  35.675  14.575
39500W        W 5909  31.963  20.797  13.806
39501W        W 5910  22.582  14.850  10.397
39502W        W 5911  38.038   8.780   2.687
39503W        W 5912  21.997  31.971   4.090
39504W        W 5913   0.047  42.047   3.613
39505W        W 5914   5.417  28.594  13.069
39506W        W 5915  34.504   5.419  13.830
39507W        W 5916  24.473  31.069   3.403
39508W        W 5917  21.270  23.319  14.974
39509W        W 5918  33.688  14.570  13.909
39510W        W 5919  37.085  30.703   4.821
39511W        W 5920  26.187   0.954   3.730
39512W        W 5921  36.462  12.615   4.136
39513W        W 5922  43.936  23.688  14.657
39514W        W 5923  35.580  39.661  13.646
39515W        W 5924  22.961  11.825   0.839
39516W        W 5925  11.055  39.051   2.240
39517W        W 5926  42.464  43.551   3.820
39518W        W 5927  24.736  39.098   2.550
39519W        W 5928  14.642  32.283   0.687
39520W        W 5929  18.681  10.544   1.994
39521W        W 5930   9.663  35.115   3.207
39522W        W 5931  18.214   7.145   1.993
39523W        W 5932  14.576   6.262   1.700
39524W        W 5933  20.636   1.451   4.688
39525W        W 5934  12.806   6.229  14.007
39526W        W 5935  33.655   8.958  14.863
39527W        W 5936  39.390   1.893  10.742
39528W        W 5937  38.436   4.435  14.939
39529W        W 5938  39.558   0.909  13.704
39530W        W 5939   8.315  34.601  10.526
39531W        W 5940  19.457  27.958   0.939
39532W        W 5941  14.142  19.976   4.601
39533W        W 5942  31.300  18.688   1.050
39534W        W 5943  28.593  38.481   0.287
39535W        W 5944  32.322  22.840  11.551
39536W        W 5945   8.577  34.942   0.367
39537W        W 5946  19.362  23.577  12.630
39538W        W 5947  43.190  41.865  10.538
39539W        W 5948   9.871  35.593  10.678
39540W        W 5949  30.851  17.937  11.099
39541W        W 5950  29.704  26.017  14.796
39542W        W 5951  11.852  14.911  13.925
39543W        W 5952  39.295   5.894  11.556
39544W        W 5953  29.219  37.375   2.397
39545W        W 5954  26.657   3.706  14.329
39546W        W 5955  10.157  43.966   3.259
39547W        W 5956  26.370  26.912  14.690
39548W        W 5957  16.600   5.292   2.971
39549W        W 5958   7.163  18.640   1.756
39550W        W 5959  30.031  27.318   3.661
39551W        W 5960   5.766  15.368   4.063
39552W        W 5961  27.230   9.747   2.976
39553W        W 5962  15.173  19.597   3.231
39554W        W 5963   9.688  28.986   1.100
39555W        W 5964  37.929  35.360   4.875
39556W        W 5965  22.109   9.922  14.278
39557W        W 5966  19.320  28.682   1.683
39558W        W 5967  25.254  32.406   4.591
39559W        W 5968  19.154  20.543   0.717
39560W        W 5969  10.076   3.293   0.930
39561W        W 5970  23.752   0.460   2.026
39562W        W 5971   9.254  43.817   1.858
39563W        W 5972  28.566  12.262  14.155
39564W        W 5973  30.105  23.932   1.628
39565W        W 5974   8.120  30.000   4.822
39566W        W 5975   5.681  13.727   4.807
39567W        W 5976  40.966  19.454   2.186
39568W        W 5977  43.700   1.966  13.957
39569W        W 5978  29.434  29.651   3.311
39570W        W 5979  19.723  25.575   4.659
39571W        W 5980  14.631  44.061   2.779
39572W        W 5981  24.216  21.707   2.466
39573W        W 5982   7.470  11.984   0.009
39574W        W 5983   3.780  27.724   4.725
39575W        W 5984  41.526  17.650   2.287
39576W        W 5985  33.095  41.648   1.748
39577W        W 5986  15.655  15.100  13.804
39578W        W 5987  17.586  40.711   3.114
39579W        W 5988  41.833  11.021  12.365
39580W        W 5989  32.574  26.448   2.803
39581W        W 5990  31.245  24.192  12.540
39582W        W 5991  17.730  15.324   4.830
39583W        W 5992   1.247  12.141   1.462
39584W        W 5993  22.009  17.663  14.348
39585W        W 5994  34.158  23.610  10.949
39586W        W 5995   5.442  19.757  11.588
39587W        W 5996  24.593  34.970  13.436
39588W        W 5997  28.482  31.585   1.484
39589W        W 5998  43.823  38.913  14.914
39590W        W 5999   3.949  41.722   4.157
39591W        W 6000  21.293  17.104  14.742
39592W        W 6001  12.766  13.171   2.449
39593W        W 6002  10.944  25.310  14.386
39594W        W 6003  14.550  12.524  11.193
39595W        W 6004  12.082  40.561   2.716
39596W        W 6005  28.493  35.980  12.424
39597W        W 6006   5.875  10.355   3.727
39598W        W 6007  18.437  25.590   1.213
39599W        W 6008  37.016  26.093  13.414
39600W        W 6009  36.984   6.651   3.630
39601W        W 6010  44.720  37.648  11.052
39602W        W 6011  22.195  40.533  13.032
39603W        W 6012   2.841  19.109   2.497
39604W        W 6013   9.810  27.142  12.152
39605W        W 6014  11.690   1.602  13.484
39606W        W 6015  36.509  21.545   4.560
39607W        W 6016  10.490  24.246   1.126
39608W        W 6017  43.911  32.899  13.954
39609W        W 6018  26.176  34.110   3.865
39610W        W 6019  19.282  39.331   2.440
39611W        W 6020  21.549  14.226   0.808
39612W        W 6021   7.164  33.561  12.695
39613W        W 6022  29.400  19.711   1.195
39614W        W 6023   0.293   3.919   3.006
39615W        W 6024  21.552  31.600   1.323
39616W        W 6025  27.989  16.519  13.495
39617W        W 6026  20.787  11.100  13.250
39618W        W 6027  15.995  31.462  14.855
39619W        W 6028  31.044  36.350  11.138
39620W        W 6029  19.490  30.074   3.278
39621W        W 6030  21.166   4.453  12.983
39622W        W 6031  18.038  36.133  10.994
39623W        W 6032  19.175  34.847  13.380
39624W        W 6033  22.246  13.823   2.978
39625W        W 6034  13.341  44.842  13.848
39626W        W 6035  22.985  40.632   4.864
39627W        W 6036  44.938  40.876  13.841
39628W        W 6037  21.619  15.048  14.763
39629W        W 6038  31.028   7.946  11.622
39630W        W 6039  33.312  30.726  14.547
39631W        W 6040  16.113  42.806   1.638
39632W        W 6041  37.046  40.421   0.781
39633W        W 6042  40.366  20.006  13.592
39634W        W 6043  40.488  14.245  12.133
39635W        W 6044  36.355  15.649   3.679
39636W        W 6045  29.853  43.065  10.776
39637W        W 6046  12.411  17.747  14.883
39638W        W 6047  13.013  33.110   2.117
39639W        W 6048  26.042  22.425  13.159
39640W        W 6049  42.430  19.847  10.437
39641W        W 6050  43.588  10.200  14.815
39642W        W 6051  20.966   1.161   3.020
39643W        W 6052  21.319  33.931  10.780
39644W        W 6053  35.570  13.355   1.357
39645W        W 6054  16.039  35.457   0.527
39646W        W 6055  26.712  41.603  14.949
39647W        W 6056  43.515   1.845   1.868
39648W        W 6057  40.895   0.246   4.565
39649W        W 6058  38.807  42.901   3.841
39650W        W 6059   8.910  28.476   0.019
39651W        W 6060  38.937   8.957  10.182
39652W        W 6061   4.054  25.022  12.852
39653W        W 6062   9.395  40.413   4.106
39654W        W 6063  25.752  43.857   3.391
39655W        W 6064  41.713  18.027   1.345
39656W        W 6065  32.158   5.793   3.208
39657W        W 6066   6.162   9.139  10.756
39658W        W 6067   5.012  19.260  12.529
39659W        W 6068  36.024  36.407   4.299
39660W        W 6069  27.466  33.217  12.485
39661W        W 6070   8.227  25.076   0.663
39662W        W 6071  43.743   1.525  14.803
39663W        W 6072  43.673  10.683   0.022
39664W        W 6073   6.295  24.580   1.450
39665W        W 6074  40.853  30.907   0.901
39666W        W 6075   6.488  13.845   0.535
39667W        W 6076  31.201  35.635  13.192
39668W        W 6077  42.934  42.791  11.961
39669W        W 6078  31.021  14.237  11.609
39670W        W 6079  22.380  27.267  10.143
39671W        W 6080   6.783  27.809   4.525
39672W        W 6081  34.939  14.207  11.996
39673W        W 6082  41.495  26.283  14.032
39674W        W 6083  33.575  20.719   3.621
39675W        W 6084  27.670  14.810   2.234
39676W        W 6085  22.352  37.254  12.722
39677W        W 6086  32.772  33.068  13.890
39678W        W 6087  44.719  37.490   1.900
39679W        W 6088  38.838   6.220  13.855
39680W        W 6089  29.301  17.269  13.872
39681W        W 6090  39.898  31.900   0.299
39682W        W 6091  33.505  10.877  14.088
39683W        W 6092  35.971  39.064  12.587
39684W        W 6093  27.414  24.670  11.655
39685W        W 6094   0.050  39.539  13.929
39686W        W 6095   5.920  32.118  11.006
39687W        W 6096  14.408  27.087   1.645
39688W        W 6097  33.051  32.265  14.071
39689W        W 6098   2.785  21.216  10.220
39690W        W 6099  44.939  19.741  12.867
39691W        W 6100   1.031  21.828  11.650
39692W        W 6101  18.880  14.325   1.946
39693W        W 6102   5.041   7.851   3.717
39694W        W 6103  44.985  39.720  13.415
39695W        W 6104   5.014  11.786  14.989
39696W        W 6105   4.231  11.328  10.476
39697W        W 6106  12.169  20.258  13.310
39698W        W 6107  25.694   4.970  10.108
39699W        W 6108  12.302  39.992  10.564
39700W        W 6109  36.648  40.411   9.714
39701W        W 6110  38.119  22.490   3.597
39702W        W 6111  13.307  32.655   3.315
39703W        W 6112   8.230  35.937   4.222
39704W        W 6113   1.052   4.856   0.443
39705W        W 6114  19.224  10.095  10.500
39706W        W 6115   4.356  11.838  14.466
39707W        W 6116  31.345  40.379  13.421
39708W        W 6117  38.628   8.142  12.640
39709W        W 6118  26.692  10.082   5.016
39710W        W 6119  11.058  10.895   0.854
39711W        W 6120  18.827  43.812   4.836
39712W        W 6121  17.373  24.228  12.966
39713W        W 6122   8.172  41.185   2.486
39714W        W 6123  22.554  10.894  13.359
39715W        W 6124  33.874   2.024  14.904
39716W        W 6125  35.206   6.758  12.897
39717W        W 6126  21.688  11.375  11.484
39718W        W 6127  25.116  12.318   4.292
39719W        W 6128   9.939  43.537   0.776
39720W        W 6129  36.278  18.295  11.371
39721W        W 6130   3.508  39.956  13.437
39722W        W 6131  22.795  30.980  11.901
39723W        W 6132   3.881  10.306   0.992
39724W        W 6133  26.503  44.512  13.936
39725W        W 6134  28.853  44.751   3.225
39726W        W 6135  38.105   8.073  12.604
39727W        W 6136   2.008  23.461   0.441
39728W        W 6137  43.417   6.363   2.837
39729W        W 6138  32.410   3.968   4.829
39730W        W 6139  31.152  38.911   2.338
39731W        W 6140  17.878  13.204  11.617
39732W        W 6141  26.245  21.582  11.645
39733W        W 6142   7.692   5.277   2.460
39734W        W 6143  36.558  38.733   0.343
39735W        W 6144  16.274  22.257  14.349
39736W        W 6145  23.543  11.333  11.073
39737W        W 6146  16.641  39.987  14.399
39738W        W 6147  40.011  18.676  12.580
39739W        W 6148  32.973   7.813   1.901
39740W        W 6149  43.165  12.675  10.161
39741W        W 6150   4.650  30.576   2.189
39742W        W 6151  17.121  37.099  11.094
39743W        W 6152   3.930  20.971  11.641
39744W        W 6153  37.363  28.914  13.403
39745W        W 6154  13.827  41.512  10.418
39746W        W 6155  34.669  22.273  11.172
39747W        W 6156   5.383  27.004   3.302
39748W        W 6157  14.683  13.764  12.421
39749W        W 6158  26.484  23.102   3.593
39750W        W 6159  38.111  34.748   4.095
39751W        W 6160  10.236  41.014   2.689
39752W        W 6161  11.422  14.187  11.227
39753W        W 6162  10.862   5.370  10.683
39754W        W 6163  10.162  16.820  12.171
39755W        W 6164  28.054  17.161   4.946
39756W        W 6165  12.757   3.205  14.870
39757W        W 6166  21.654  17.594   1.451
39758W        W 6167   4.460   2.006   3.607
39759W        W 6168  12.541  35.080  12.973
39760W        W 6169   9.741  18.235  14.784
39761W        W 6170  22.680  20.229   2.206
39762W        W 6171  27.072  14.108  14.010
39763W        W 6172  44.886  30.189   4.203
39764W        W 6173  16.059  14.519   3.550
39765W        W 6174   7.975  16.207  12.367
39766W        W 6175  31.327  24.477  11.420
39767W        W 6176   2.375  17.986   1.216
39768W        W 6177  43.469  39.604   1.730
39769W        W 6178  30.664  10.480   2.585
39770W        W 6179  26.643  28.162   2.182
39771W        W 6180  31.878  30.982   0.469
39772W        W 6181  36.337  32.123  11.161
39773W        W 6182  20.824   4.953  13.855
39774W        W 6183  11.717  19.640  10.747
39775W        W 6184  37.845  17.350   2.038
39776W        W 6185  36.432  28.644   4.407
39777W        W 6186  23.053  12.063   3.638
39778W        W 6187  21.681  33.465   4.765
39779W        W 6188  13.806  11.403   0.706
39780W        W 6189  21.521  12.277   3.306
39781W        W 6190   1.974  12.055  14.913
39782W        W 6191  21.107   9.653   3.361
39783W        W 6192  20.416  26.180  12.088
39784W        W 6193  11.379  15.092  11.093
39785W        W 6194   4.906  40.040   2.214
39786W        W 6195  17.124  23.617   1.936
39787W        W 6196  44.599   1.776  13.343
39788W        W 6197  41.229  26.568   0.107
39789W        W 6198  10.335   4.956  13.321
39790W        W 6199  25.399  23.772  13.291
39791W        W 6200   0.867  19.146   0.261
39792W        W 6201  15.233   9.848   0.759
39793W        W 6202  25.745  40.902  13.342
39794W        W 6203  37.460  42.359  11.541
39795W        W 6204  42.283  42.617  11.200
39796W        W 6205  39.492  17.618  12.796
39797W        W 6206  32.598  42.829  11.187
39798W        W 6207  21.222  11.275  13.045
39799W        W 6208  36.310  27.688   0.395
39800W        W 6209  37.239  43.319  14.895
39801W        W 6210   9.941  40.331  12.428
39802W        W 6211  21.726  22.732  14.024
39803W        W 6212  31.118  22.720   3.483
39804W        W 6213   3.707  34.192  13.437
39805W        W 6214  36.613  42.218  12.877
39806W        W 6215  14.047   9.360  13.491
39807W        W 6216  35.754  11.246   2.999
39808W        W 6217  41.309  35.885  11.672
39809W        W 6218   7.143  12.810  11.802
39810W        W 6219  18.700  15.850   3.717
39811W        W 6220  41.722  34.916   5.053
39812W        W 6221  34.129   4.160  13.333
39813W        W 6222  38.540  31.742  10.378
39814W        W 6223   3.279  30.997   4.519
39815W        W 6224   3.826  37.569  12.651
39816W        W 6225  27.686  23.168   4.131
39817W        W 6226   4.853  15.550   1.277
39818W        W 6227  15.944  10.614  14.925
39819W        W 6228  17.859  36.419  12.071
39820W        W 6229  23.978   4.031  14.000
39821W        W 6230  15.357   4.173   0.300
39822W        W 6231   6.403  38.061  14.345
39823W        W 6232  21.832   2.475  14.515
39824W        W 6233  36.030  35.414  11.697
39825W        W 6234  11.147  37.703  13.913
39826W        W 6235  39.815   5.819  11.649
39827W        W 6236  38.576  35.909   0.356
39828W        W 6237  19.161  16.347   0.265
39829W        W 6238  16.088  26.684   2.443
39830W        W 6239  21.487  11.865  14.288
39831W        W 6240  30.899  36.405   3.773
39832W        W 6241   4.016  29.395   2.883
39833W        W 6242  38.521  32.443  11.600
39834W        W 6243  28.522  19.295  11.165
39835W        W 6244   1.319  29.900  13.032
39836W        W 6245  10.192   6.395   3.039
39837W        W 6246  29.221  26.552  11.331
39838W        W 6247  35.930  25.054   3.426
39839W        W 6248  32.383  33.736   4.686
39840W        W 6249  24.046  29.698  10.772
39841W        W 6250  36.168  10.211   1.295
39842W        W 6251  43.016   1.828   1.726
39843W        W 6252  33.593   6.827  14.282
39844W        W 6253   5.569   5.436   1.316
39845W        W 6254   1.318  32.596  12.712
39846W        W 6255   0.230  32.422   1.956
39847W        W 6256  36.413  37.761  12.898
39848W        W 6257  19.614  21.634  10.740
39849W        W 6258  26.891  25.226  11.242
39850W        W 6259   4.762  28.887   2.828
39851W        W 6260  41.480   8.271  12.375
39852W        W 6261  34.854  40.627  14.010
39853W        W 6262  40.063  27.107   3.780
39854W        W 6263  41.881  35.436   4.952
39855W        W 6264   7.645  44.326   4.182
39856W        W 6265  42.870   7.283   3.311
39857W        W 6266   4.728   0.501  14.902
39858W        W 6267   6.316  42.166  14.539
39859W        W 6268   1.266  32.942   1.296
39860W        W 6269   9.766  13.574  10.477
39861W        W 6270  26.597  21.210  14.610
39862W        W 6271  32.434  40.296  12.904
39863W        W 6272  17.270  37.976  12.228
39864W        W 6273  43.467  14.797  14.861
39865W        W 6274   4.482  36.758   0.158
39866W        W 6275   3.653  28.986   2.804
39867W        W 6276  29.585  10.293  12.579
39868W        W 6277  10.895  20.245  13.909
39869W        W 6278  39.858  10.913   3.315
39870W        W 6279  42.399   3.716  14.919
39871W        W 6280  44.030  29.301   2.189
39872W        W 6281   0.200   5.889  11.992
39873W        W 6282  19.683  17.741  14.611
39874W        W 6283  29.352  27.141  14.110
39875W        W 6284  28.664  25.595   2.718
39876W        W 6285  10.137  26.031  10.557
39877W        W 6286   8.248  12.860  14.659
39878W        W 6287  41.409   0.182  14.449
39879W        W 6288  23.192  18.328   4.682
39880W        W 6289   9.763  23.649  12.419
39881W        W 6290   8.489  38.611  14.091
39882W        W 6291  36.588  20.730   4.219
39883W        W 6292  14.434   9.147  11.216
39884W        W 6293  30.105  25.410  14.029
39885W        W 6294  43.321  30.975   4.345
39886W        W 6295  42.950  30.851   4.974
39887W        W 6296   0.553   3.191  11.182
39888W        W 6297   0.905  23.249   2.211
39889W        W 6298  36.985  20.273   4.241
39890W        W 6299  15.399   7.680  10.781
39891W        W 6300  31.751  33.591  14.521
39892W        W 6301  37.818  25.209  14.599
39893W        W 6302  36.036   4.542   3.147
39894W        W 6303  41.814  44.647   3.864
39895W        W 6304  24.481  18.378  14.724
39896W        W 6305  14.410  19.279   2.795
39897W        W 6306  22.298  16.827  14.937
39898W        W 6307  23.517   8.194  14.474
39899W        W 6308  18.461  33.635  10.383
39900W        W 6309  27.058  44.855  13.069
39901W        W 6310  36.431   2.876  14.361
39902W        W 6311  29.309  42.212  14.733
39903W        W 6312  32.873  24.506  13.014
39904W        W 6313  33.544   9.150   4.731
39905W        W 6314  32.083  37.879  11.891
39906W        W 6315   8.117  44.574   0.855
39907W        W 6316  13.972  33.922   0.322
39908W        W 6317  40.957  44.881  14.521
39909W        W 6318   9.959  17.032  14.347
39910W        W 6319  35.066  15.640   2.234
39911W        W 6320  15.794  18.071   0.091
39912W        W 6321  10.774  12.114  13.474
39913W        W 6322  15.236  42.215  13.866
39914W        W 6323  42.428  35.402  14.432
39915W        W 6324   7.153  31.802  11.228
39916W        W 6325  23.710  28.024   3.699
39917W        W 6326   8.382  38.977  12.524
39918W        W 6327  21.999  17.765   2.823
39919W        W 6328  33.402  41.816  13.046
39920W        W 6329  44.473   7.779  14.022
39921W        W 6330  11.198   6.581  13.020
39922W        W 6331  39.317  39.346   3.318
39923W        W 6332  21.222  25.324  10.215
39924W        W 6333  36.068  35.007  14.981
39925W        W 6334   2.563  33.033   4.938
39926W        W 6335  44.290   8.206   4.162
39927W        W 6336  16.179  26.309   2.077
39928W        W 6337  16.713  30.964  12.333
39929W        W 6338  31.535  23.801   3.552
39930W        W 6339  12.343  32.571  14.998
39931W        W 6340   6.227  34.372  11.117
39932W        W 6341   0.008  27.597   3.551
39933W        W 6342  25.488   4.750   3.641
39934W        W 6343  27.363   0.270  11.614
39935W        W 6344  31.664  13.717   2.606
39936W        W 6345   0.872  13.588   2.662
39937W        W 6346  30.980  44.458  14.420
39938W        W 6347  37.474  40.898  13.307
39939W        W 6348  26.035  18.557   2.102
39940W        W 6349  18.066   2.152  14.941
39941W        W 6350  20.444  34.080   4.895
39942W        W 6351  41.193  33.257  10.209
39943W        W 6352   2.211  24.000   3.164
39944W        W 6353  25.462  31.795   2.588
39945W        W 6354  17.344  27.490  12.666
39946W        W 6355  35.161  12.624   1.911
39947W        W 6356  44.189  12.784  10.381
39948W        W 6357  22.697  24.759   4.527
39949W        W 6358  19.172  14.681  10.452
39950W        W 6359   9.842  21.513   4.212
39951W        W 6360  37.256   6.732   4.622
39952W        W 6361  34.838  30.263   4.990
39953W        W 6362  10.267  29.464   0.362
39954W        W 6363   6.140   6.176   2.604
39955W        W 6364  27.942  35.103   3.120
39956W        W 6365   2.222  42.486  14.649
39957W        W 6366  40.492  44.178   2.574
39958W        W 6367  42.248  15.607  13.018
39959W        W 6368  23.491  14.714   0.129
39960W        W 6369  22.636  14.608  11.221
39961W        W 6370   2.448   1.985  13.788
39962W        W 6371  21.815  20.177  10.675
39963W        W 6372  44.365  29.894  11.138
39964W        W 6373  39.019  43.983  13.399
39965W        W 6374  34.271  32.266  14.965
39966W        W 6375  16.174   4.081  14.809
39967W        W 6376  27.121  14.429   2.894
39968W        W 6377  44.570  33.477   1.187
39969W        W 6378  28.274  29.193  13.857
39970W        W 6379  14.258  24.795   3.653
39971W        W 6380  44.435  37.470  12.942
39972W        W 6381  26.483   5.381   1.693
39973W        W 6382  39.442   5.762  12.863
39974W        W 6383  26.755  40.848  11.690
39975W        W 6384  32.708   5.428  10.287
39976W        W 6385  24.231  17.163  11.619
39977W        W 6386   4.335  12.746  11.702
39978W        W 6387  28.982  38.028  14.017
39979W        W 6388  13.177  31.149   0.443
39980W        W 6389   5.475   3.571  10.996
39981W        W 6390  38.520  25.847  14.894
39982W        W 6391   8.568   3.467   0.807
39983W        W 6392  17.019  22.074   2.728
39984W        W 6393  34.533   0.033   3.718
39985W        W 6394  10.231   2.597  13.772
39986W        W 6395  34.839  10.911   2.758
39987W        W 6396   1.264  43.068  14.277
39988W        W 6397  19.912   3.400   3.828
39989W        W 6398   0.249  39.449   1.558
39990W        W 6399  12.770  42.048   4.861
39991W        W 6400  25.818  20.602   4.800
39992W        W 6401  41.543   0.334   3.871
39993W        W 6402  32.725   9.518  12.883
39994W        W 6403  38.910  38.385   1.317
39995W        W 6404  23.863  15.349   3.351
39996W        W 6405  16.591  23.659   4.169
39997W        W 6406  12.579  38.497   1.417
39998W        W 6407  30.162  41.414   2.197
39999W        W 6408  42.748   1.141  13.853
40000W        W 6409  11.546   9.059   3.537
40001W        W 6410  23.514  11.961   3.875
40002W        W 6411  11.551  20.231   2.370
40003W        W 6412   0.725  14.725   3.512
40004W        W 6413   2.828  19.794   4.947
40005W        W 6414  12.791  29.444   4.587
40006W        W 6415   8.753  30.404  12.419
40007W        W 6416  41.849  41.356   3.905
40008W        W 6417  26.241  14.116   4.333
40009W        W 6418  36.250  43.520   2.890
40010W        W 6419   5.646  43.586   2.770
40011W        W 6420  42.316   1.867  10.819
40012W        W 6421  41.884  42.950   0.727
40013W        W 6422  27.566  32.399   3.281
40014W        W 6423  26.513  31.496  12.147
40015W        W 6424  34.168  23.096   3.112
40016W        W 6425  14.028   8.139   3.757
40017W        W 6426  42.969   4.997  14.902
40018W        W 6427  35.066  32.612   2.862
40019W        W 6428  15.559  26.434   3.217
40020W        W 6429  44.711  37.888   4.094
40021W        W 6430  34.716   4.409   1.438
40022W        W 6431  27.030   0.416   2.748
40023W        W 6432  19.440   7.799  11.136
40024W        W 6433  14.822  32.675   1.294
40025W        W 6434  21.239  21.437  10.788
40026W        W 6435  41.296  22.076   3.689
40027W        W 6436  31.009  23.154   3.198
40028W        W 6437  15.663  21.956  13.513
40029W        W 6438  23.072   1.262  12.244
40030W        W 6439  29.908   8.727  10.027
40031W        W 6440  29.168   6.196   2.726
40032W        W 6441  18.655  19.552  11.553
40033W        W 6442   5.182   4.392   0.210
40034W        W 6443  28.610  12.883  12.602
40035W        W 6444  42.872  18.641  10.830
40036W        W 6445  12.676  23.997   4.329
40037W        W 6446   3.898  17.998   4.045
40038W        W 6447  34.663  40.362   1.413
40039W        W 6448  30.810  43.694  13.864
40040W        W 6449  24.275  22.650  14.314
40041W        W 6450  10.730  26.595   0.751
40042W        W 6451  23.156  15.111  12.977
40043W        W 6452   9.126   7.191  14.386
40044W        W 6453   4.309  39.005   1.979
40045W        W 6454   5.877  43.300   3.150
40046W        W 6455  29.674  30.055  12.347
40047W        W 6456  16.125  29.336   2.320
40048W        W 6457  37.491  24.996   1.578
40049W        W 6458  44.279  32.637   2.238
40050W        W 6459  15.195  12.722   2.171
40051W        W 6460   9.805  15.408  11.134
40052W        W 6461  28.685  28.022  11.876
40053W        W 6462  11.805   3.719   3.552
40054W        W 6463  31.889   2.080  11.398
40055W        W 6464  14.299  14.384  12.053
40056W        W 6465   2.498  24.214  13.391
40057W        W 6466  36.890  15.543  13.037
40058W        W 6467  27.970  17.195  14.386
40059W        W 6468   3.416  12.121  14.493
40060W        W 6469   4.287  15.808  13.455
40061W        W 6470  21.423  44.241  11.949
40062W        W 6471  25.901  23.700  13.318
40063W        W 6472   7.311  22.438  13.312
40064W        W 6473  27.246  11.651  12.492
40065W        W 6474  14.117  41.971   3.274
40066W        W 6475  24.423   2.687  11.983
40067W        W 6476  44.067  21.755   1.324
40068W        W 6477  44.672  37.116   4.646
40069W        W 6478  25.208  37.764   0.902
40070W        W 6479   8.322   9.214  13.207
40071W        W 6480  27.591  28.318  11.621
40072W        W 6481  34.079  37.148   1.188
40073W        W 6482  41.548  38.060   0.045
40074W        W 6483  14.768  32.927  11.888
40075W        W 6484  36.633   7.266  10.462
40076W        W 6485  25.966  19.600   2.025
40077W        W 6486  38.582  39.127   4.833
40078W        W 6487   6.419   3.581  13.293
40079W        W 6488  37.942   1.499  11.471
40080W        W 6489  25.620  25.660   4.148
40081W        W 6490  33.595  23.016   4.442
40082W        W 6491  24.050  44.288  10.231
40083W        W 6492  11.905  36.488   2.714
40084W        W 6493   4.664  11.409   4.902
40085W        W 6494  11.409  39.759   1.308
40086W        W 6495  25.989  44.405  14.953
40087W        W 6496   0.357  34.548  12.362
40088W        W 6497  29.025  23.047   1.649
40089W        W 6498   7.476  32.860   3.684
40090W        W 6499  17.124  27.967   2.650
40091W        W 6500  21.048   2.971  10.767
40092W        W 6501   5.354  22.619  11.428
40093W        W 6502  10.697  36.902   0.126
40094W        W 6503  29.204  12.587   3.131
40095W        W 6504   7.955  24.284   1.792
40096W        W 6505  32.415   4.216  13.889
40097W        W 6506   3.017  20.747   1.324
40098W        W 6507   3.012   2.669  12.156
40099W        W 6508  37.497  36.502   1.448
40100W        W 6509  25.001  37.197  11.192
40101W        W 6510  12.849  12.757  11.935
40102W        W 6511  34.096   0.748   3.632
40103W        W 6512   9.660  38.335   2.194
40104W        W 6513  13.215  17.532  12.049
40105W        W 6514  41.015   2.485   3.706
40106W        W 6515  19.507  18.813   3.129
40107W        W 6516  28.941  42.837  11.620
40108W        W 6517  30.870  39.806   5.184
40109W        W 6518  20.973   1.484   4.296
40110W        W 6519  13.329  44.343   1.199
40111W        W 6520  43.765  37.000  12.881
40112W        W 6521  43.796  36.652   4.874
40113W        W 6522  10.890  41.956   3.684
40114W        W 6523   0.700  11.245  10.906
40115W        W 6524  29.150  16.668   3.466
40116W        W 6525  39.634  18.250  13.344
40117W        W 6526   4.999   8.898   4.442
40118W        W 6527  33.907  11.737   0.768
40119W        W 6528  25.518  15.655   0.443
40120W        W 6529   1.322  44.484   2.232
40121W        W 6530  17.585   2.379   2.354
40122W        W 6531  12.436   3.381   2.360
40123W        W 6532  27.345  35.496  11.352
40124W        W 6533   2.202   6.860  13.367
40125W        W 6534  32.620  16.335  11.451
40126W        W 6535  26.985  22.049  12.546
40127W        W 6536  34.140  36.829  14.351
40128W        W 6537  13.784   1.794  11.072
40129W        W 6538  23.961  32.960  13.442
40130W        W 6539  25.938  10.219  13.494
40131W        W 6540  15.697  30.521  13.407
40132W        W 6541  30.339  29.248  14.411
40133W        W 6542  14.397   6.152  11.071
40134W        W 6543  31.882  31.174  11.989
40135W        W 6544   9.884  21.211  10.480
40136W        W 6545   7.726  28.685   1.195
40137W        W 6546  17.340  26.160  13.967
40138W        W 6547  13.689  29.522   1.945
40139W        W 6548  44.649  27.460  10.662
40140W        W 6549  22.187  15.840   2.941
40141W        W 6550  15.278   9.243  14.182
40142W        W 6551  34.094  29.427   3.776
40143W        W 6552  21.492  42.675   1.865
40144W        W 6553  28.168  41.210   3.219
40145W        W 6554  38.310  42.417  11.081
40146W        W 6555  15.425   9.800  12.476
40147W        W 6556  38.981  18.842   2.268
40148W        W 6557  27.668  29.003  10.532
40149W        W 6558  19.321  42.530   1.349
40150W        W 6559  37.000  41.918  13.627
40151W        W 6560  44.266  38.787  10.788
40152W        W 6561  27.574   5.468   5.083
40153W        W 6562  20.918  28.203   3.274
40154W        W 6563  32.990   6.665  13.033
40155W        W 6564  24.816   4.402   3.369
40156W        W 6565  25.995  22.842  13.441
40157W        W 6566   7.227   8.214  11.461
40158W        W 6567  12.320  28.566   0.394
40159W        W 6568  15.265  26.180  13.669
40160W        W 6569   0.173   3.572   4.304
40161W        W 6570  12.810   4.605   9.732
40162W        W 6571  35.368  31.312   3.011
40163W        W 6572  26.092   8.674  13.517
40164W        W 6573  11.695  25.109  13.845
40165W        W 6574  37.338   7.978  13.831
40166W        W 6575  10.425  43.640  10.693
40167W        W 6576  17.708  40.983   0.498
40168W        W 6577  19.251  33.370   2.773
40169W        W 6578   9.601  13.069   2.089
40170W        W 6579  16.151  27.796  10.262
40171W        W 6580   0.789   3.497   1.792
40172W        W 6581  28.310  18.034  10.353
40173W        W 6582  11.403   2.267  14.402
40174W        W 6583   4.622  42.004  13.368
40175W        W 6584  36.177   7.360   2.018
40176W        W 6585  23.372  19.653   0.867
40177W        W 6586  28.124  21.632  10.880
40178W        W 6587   9.666  15.218   3.808
40179W        W 6588  43.852   3.581   4.463
40180W        W 6589  43.589  24.589  12.838
40181W        W 6590  43.889   3.858   3.143
40182W        W 6591  34.918   6.698  14.297
40183W        W 6592  24.768   5.133  12.973
40184W        W 6593  44.909  20.401   4.043
40185W        W 6594  15.224  42.845  12.058
40186W        W 6595   4.056  38.520  13.002
40187W        W 6596  24.919  29.282   0.399
40188W        W 6597  37.193  14.622   5.436
40189W        W 6598  33.597  29.701  10.721
40190W        W 6599  43.025  40.177   2.450
40191W        W 6600  28.139  29.490  10.593
40192W        W 6601  23.762   6.366  11.654
40193W        W 6602  29.204  28.227  11.973
40194W        W 6603  35.690  25.966  10.929
40195W        W 6604  33.250  42.453   0.203
40196W        W 6605  44.400  39.418   1.721
40197W        W 6606   0.409  16.479   0.008
40198W        W 6607  14.142   3.862   3.748
40199W        W 6608  34.018  17.221   3.104
40200W        W 6609  17.532   6.612  11.397
40201W        W 6610  43.565  27.753  10.094
40202W        W 6611  26.175  44.933  12.520
40203W        W 6612   0.519  12.373  14.179
40204W        W 6613   9.810  34.329  13.051
40205W        W 6614  36.923  20.742  10.732
40206W        W 6615  15.559  28.574   2.298
40207W        W 6616   6.219  30.319  14.329
40208W        W 6617  15.306  20.650  12.493
40209W        W 6618  38.469  25.248   1.449
40210W        W 6619  44.420  16.012  13.571
40211W        W 6620  10.743  39.718   4.044
40212W        W 6621  30.497  22.804   4.490
40213W        W 6622  25.924  42.002  12.489
40214W        W 6623  38.387  44.373  13.070
40215W        W 6624  21.700  14.899  12.388
40216W        W 6625  24.206  28.486   3.113
40217W        W 6626  26.893  19.199   3.084
40218W        W 6627  30.999  12.669   1.256
40219W        W 6628  40.621  40.166  12.590
40220W        W 6629  17.729  28.506  10.815
40221W        W 6630  39.071   3.039   2.388
40222W        W 6631  28.292  12.377   4.146
40223W        W 6632  29.098  20.174   3.359
40224W        W 6633   6.664  33.908   0.797
40225W        W 6634  16.650  30.746   1.213
40226W        W 6635  23.014  15.606  13.076
40227W        W 6636   8.092   8.836   3.704
40228W        W 6637  24.387  39.905   0.206
40229W        W 6638  12.500  29.008   3.210
40230W        W 6639  12.859  10.110   2.796
40231W        W 6640  33.996   9.552   4.799
40232W        W 6641  23.497  37.024  14.404
40233W        W 6642  22.888  20.825   1.985
40234W        W 6643   1.912  38.544   4.513
40235W        W 6644  10.414   8.090   2.186
40236W        W 6645  10.520   5.675  11.620
40237W        W 6646  37.972  32.181  11.999
40238W        W 6647  36.267   4.149   2.177
40239W        W 6648   2.859  36.309   1.488
40240W        W 6649  30.401   2.790  12.502
40241W        W 6650  11.420  14.021  11.716
40242W        W 6651  15.758  39.423   3.912
40243W        W 6652  35.114  25.035  11.964
40244W        W 6653  28.014  21.123  12.607
40245W        W 6654   9.370  22.837   4.209
40246W        W 6655  34.285  18.313  13.926
40247W        W 6656   8.329  42.488   2.345
40248W        W 6657  18.242   5.859  13.939
40249W        W 6658   3.682   4.237  14.316
40250W        W 6659  28.333  15.755   4.116
40251W        W 6660   1.837  17.758   0.376
40252W        W 6661  28.369  14.426  11.113
40253W        W 6662  32.611  15.335   2.477
40254W        W 6663  40.274  26.904   0.946
40255W        W 6664  11.410  25.619  10.953
40256W        W 6665  21.293  29.597   2.193
40257W        W 6666  33.031   2.249   2.701
40258W        W 6667  36.455  27.671   2.231
40259W        W 6668   5.529  21.698  12.606
40260W        W 6669  15.218   5.193   3.201
40261W        W 6670  44.766  34.812  12.434
40262W        W 6671  17.596   9.946  13.952
40263W        W 6672   9.789  28.577  12.417
40264W        W 6673  28.881  23.066   1.170
40265W        W 6674  23.583  16.659  12.900
40266W        W 6675   0.875  18.783  11.620
40267W        W 6676  12.773  44.275  13.476
40268W        W 6677  12.835  25.511   0.074
40269W        W 6678  10.713   9.455   2.457
40270W        W 6679  28.479  44.339   2.152
40271W        W 6680  38.356  18.100  12.836
40272W        W 6681   7.821  38.466  11.319
40273W        W 6682   2.936  16.740  12.726
40274W        W 6683  39.059  25.769   2.695
40275W        W 6684  38.370  36.621   1.881
40276W        W 6685  31.871  36.351  11.429
40277W        W 6686  17.025  32.837  13.356
40278W        W 6687   5.363  37.664  14.157
40279W        W 6688  18.177  17.385  14.398
40280W        W 6689  26.484   6.187   2.795
40281W        W 6690   2.987   4.159  12.034
40282W        W 6691  24.965  39.071  14.846
40283W        W 6692   1.393   8.964   4.768
40284W        W 6693   4.735  16.645   3.206
40285W        W 6694   8.978  18.836   4.144
40286W        W 6695  24.887  25.949  11.737
40287W        W 6696  18.319   6.229  11.158
40288W        W 6697  10.144  43.128  13.263
40289W        W 6698   9.161  33.608  13.412
40290W        W 6699   1.389   7.758  13.699
40291W        W 6700   1.392  35.314   2.735
40292W        W 6701  12.738  15.607   1.286
40293W        W 6702  12.474  27.924  13.152
40294W        W 6703  44.055  14.340   4.256
40295W        W 6704  29.597  36.429   4.478
40296W        W 6705   0.297   5.394   1.878
40297W        W 6706  25.282  15.253  14.987
40298W        W 6707  16.786   8.668   3.661
40299W        W 6708  30.126  31.031  14.563
40300W        W 6709  30.587  15.352  14.763
40301W        W 6710  27.592  21.420  13.983
40302W        W 6711  41.986  20.138   0.376
40303W        W 6712  41.251  41.894   4.261
40304W        W 6713  41.730   4.411  12.453
40305W        W 6714  21.728  39.119   0.041
40306W        W 6715  27.724   9.077  11.626
40307W        W 6716   1.723  22.272  14.320
40308W        W 6717   7.878  39.056   3.058
40309W        W 6718  14.764  40.590  12.146
40310W        W 6719   5.294  21.343  12.092
40311W        W 6720  29.140   4.819   1.267
40312W        W 6721  38.760  30.265   4.552
40313W        W 6722  28.952  36.793   0.271
40314W        W 6723  23.092  20.020   2.427
40315W        W 6724  38.298  32.655   1.209
40316W        W 6725  35.553  37.099   1.841
40317W        W 6726   8.338  16.295  14.947
40318W        W 6727   4.405  14.823  14.747
40319W        W 6728  22.923  22.154  10.031
40320W        W 6729  11.625  11.035   4.606
40321W        W 6730  32.216   1.498  10.251
40322W        W 6731  34.079  11.583   1.747
40323W        W 6732   1.770  15.867   4.382
40324W        W 6733  32.221   5.183   2.149
40325W        W 6734  30.499  36.389   4.940
40326W        W 6735  23.603  25.342  10.653
40327W        W 6736  32.885  21.058   3.782
40328W        W 6737  23.902   9.395   1.731
40329W        W 6738   1.927  40.546   1.905
40330W        W 6739  36.336  40.305   1.457
40331W        W 6740   3.985   8.010  12.344
40332W        W 6741  10.645   9.808  12.092
40333W        W 6742   8.051  23.172  13.366
40334W        W 6743  26.213  13.862   2.117
40335W        W 6744  19.348  20.782  14.929
40336W        W 6745  39.321  41.645   1.222
40337W        W 6746   1.608  30.002  14.845
40338W        W 6747  23.917  10.616  12.087
40339W        W 6748  34.859   3.007   4.076
40340W        W 6749  34.673   5.099  10.996
40341W        W 6750   6.335  13.572  13.848
40342W        W 6751  14.662  25.624   1.299
40343W        W 6752   6.714  18.597   4.527
40344W        W 6753   2.124   1.675  13.533
40345W        W 6754   6.997  34.482   3.460
40346W        W 6755  17.658  43.953   4.983
40347W        W 6756   8.314  24.581  14.779
40348W        W 6757   5.104  44.861   3.652
40349W        W 6758  26.021   2.392   4.746
40350W        W 6759  44.717  35.362   3.798
40351W        W 6760  32.056  31.110   2.630
40352W        W 6761  26.553   4.005  10.974
40353W        W 6762  20.474  21.543  12.456
40354W        W 6763  44.140  25.828   9.829
40355W        W 6764  36.783  37.165   5.042
40356W        W 6765   4.969  44.548   2.304
40357W        W 6766  29.079  42.005  12.493
40358W        W 6767  42.057  15.809  14.310
40359W        W 6768  14.882  34.864   3.592
40360W        W 6769  41.414  15.764   2.603
40361W        W 6770   3.156   1.686  14.418
40362W        W 6771  42.785  11.699  12.468
40363W        W 6772  44.389   8.620  11.834
40364W        W 6773  44.056  18.949   1.302
40365W        W 6774   4.894  28.994   0.290
40366W        W 6775   7.414  44.578   4.563
40367W        W 6776  39.346  41.813  13.055
40368W        W 6777  12.262   8.872  12.672
40369W        W 6778  31.447  32.538   2.708
40370W        W 6779  40.332  11.116   2.146
40371W        W 6780  14.174  19.468   0.388
40372W        W 6781  30.590  25.948   0.326
40373W        W 6782  30.034   1.247  12.117
40374W        W 6783  14.685   5.225   3.366
40375W        W 6784  37.428   3.386   0.968
40376W        W 6785  30.380   0.437   4.149
40377W        W 6786  25.037  33.776   1.749
40378W        W 6787   8.306   4.492   3.113
40379W        W 6788  20.552  43.110   1.871
40380W        W 6789  39.961   7.695   2.601
40381W        W 6790  35.133  21.132  10.706
40382W        W 6791  34.720   3.491   1.958
40383W        W 6792  28.780  17.294  14.722
40384W        W 6793  30.137  15.678  14.017
40385W        W 6794  26.156   7.244   1.627
40386W        W 6795  42.258  14.826   1.831
40387W        W 6796  29.990  26.914   2.742
40388W        W 6797  41.476  11.184  10.736
40389W        W 6798   2.956   3.743  10.663
40390W        W 6799  14.288  17.561  14.531
40391W        W 6800  34.494  12.289   1.591
40392W        W 6801   6.977   1.643   1.030
40393W        W 6802  34.732   7.333  10.463
40394W        W 6803  30.149   6.683   0.908
40395W        W 6804  17.666  27.034  14.442
40396W        W 6805  37.753  37.264   2.292
40397W        W 6806   5.831  31.460  14.738
40398W        W 6807  37.987  39.999   1.492
40399W        W 6808  24.313  41.439  10.928
40400W        W 6809  11.814   9.897  12.872
40401W        W 6810  44.704  39.787  12.953
40402W        W 6811   8.819  14.525   4.664
40403W        W 6812  12.892  32.532   4.119
40404W        W 6813  22.656  43.763  10.999
40405W        W 6814   6.528  28.642  12.977
40406W        W 6815  35.124  42.049  12.056
40407W        W 6816  39.440  16.004  12.846
40408W        W 6817  13.856  11.347   2.774
40409W        W 6818  41.450  15.806  11.700
40410W        W 6819  14.154  10.708  12.468
40411W        W 6820  23.604  35.638  12.167
40412W        W 6821  12.768  28.354   0.260
40413W        W 6822   1.093   8.133  13.964
40414W        W 6823  25.340   1.515  10.706
40415W        W 6824  24.657  31.382  14.510
40416W        W 6825  42.024  23.366  12.470
40417W        W 6826  19.187  36.720   4.962
40418W        W 6827  33.967   8.859  12.614
40419W        W 6828  19.969  22.197   4.456
40420W        W 6829  12.005   9.673   1.973
40421W        W 6830   0.638   7.240   2.855
40422W        W 6831   3.252  22.603   0.477
40423W        W 6832  24.247  15.893   1.749
40424W        W 6833  16.705   9.412  12.035
40425W        W 6834   6.282  24.466  12.451
40426W        W 6835  31.405  13.183  13.034
40427W        W 6836  23.572  27.878  11.623
40428W        W 6837   5.055   5.134  14.860
40429W        W 6838  20.005  18.110  13.510
40430W        W 6839  36.787  40.198   5.127
40431W        W 6840   7.889  13.817   2.138
40432W        W 6841  35.012  18.619  14.843
40433W        W 6842   4.214  34.393   4.097
40434W        W 6843  16.294  24.184   0.984
40435W        W 6844  38.382  25.477  12.482
40436W        W 6845   1.025   6.692  13.146
40437W        W 6846  14.661  12.136  10.893
40438W        W 6847  35.584  15.878   2.368
40439W        W 6848   9.217  39.628  14.983
40440W        W 6849   2.029  12.918   4.647
40441W        W 6850  24.779  18.715  14.381
40442W        W 6851   2.531  10.806  13.975
40443W        W 6852  29.187  42.462  12.048
40444W        W 6853   6.195  39.737   0.900
40445W        W 6854  21.149  16.266   2.696
40446W        W 6855  38.007  25.276  11.620
40447W        W 6856  32.134  35.785  10.444
40448W        W 6857   3.247   2.169  11.145
40449W        W 6858  44.525  26.885  14.856
40450W        W 6859  10.318  21.579   2.340
40451W        W 6860  14.524  42.555   2.325
40452W        W 6861  34.029   6.330  10.982
40453W        W 6862  32.753  19.180   1.839
40454W        W 6863  26.172  10.160  10.320
40455W        W 6864  44.761  32.567   2.114
40456W        W 6865   2.183  33.464  10.758
40457W        W 6866  25.304  34.028   1.370
40458W        W 6867   1.009  41.773   3.905
40459W        W 6868   4.416  24.388  14.396
40460W        W 6869  35.391  41.387   2.014
40461W        W 6870  44.685   0.025  13.452
40462W        W 6871  24.813  26.761   4.137
40463W        W 6872  20.036   8.154   4.094
40464W        W 6873  29.624  44.998  10.950
40465W        W 6874  38.433  18.198   1.339
40466W        W 6875  23.166  15.860   3.905
40467W        W 6876  19.746   7.946  10.752
40468W        W 6877  32.206  28.406  10.836
40469W        W 6878   6.369  17.865   2.842
40470W        W 6879  24.590   4.520  14.255
40471W        W 6880  10.375  25.460   2.454
40472W        W 6881  15.359  17.047  11.394
40473W        W 6882  10.320  11.023  11.073
40474W        W 6883  29.484   5.139   9.769
40475W        W 6884  35.297   2.226   0.465
40476W        W 6885  35.382  23.572   0.911
40477W        W 6886  12.466  17.292   1.453
40478W        W 6887  26.750  26.019   3.711
40479W        W 6888  17.534  23.081  11.049
40480W        W 6889  19.314  11.667   3.299
40481W        W 6890  31.010  33.845  14.147
40482W        W 6891  35.980  13.413  14.390
40483W        W 6892  26.879  35.459   3.956
40484W        W 6893   6.287  20.662   3.214
40485W        W 6894  14.772  30.187  11.635
40486W        W 6895  31.884   9.945   2.301
40487W        W 6896  38.580  36.877  14.257
40488W        W 6897  24.945  34.857   0.986
40489W        W 6898  27.625  21.776   4.248
40490W        W 6899  18.723  28.411  10.555
40491W        W 6900  23.762  16.265   2.816
40492W        W 6901  27.531  13.210   4.090
40493W        W 6902  27.093  28.492  13.423
40494W        W 6903   2.254  41.413  12.437
40495W        W 6904  11.240  26.014   0.469
40496W        W 6905  11.431   8.577  13.008
40497W        W 6906  31.592  30.387   2.315
40498W        W 6907  33.539  11.724   3.181
40499W        W 6908  11.401  17.621   0.815
40500W        W 6909   4.390  44.959  10.746
40501W        W 6910   0.005  28.186  11.987
40502W        W 6911  11.204  28.527  10.719
40503W        W 6912  25.226  28.971   3.109
40504W        W 6913  39.402  35.617   0.244
40505W        W 6914  37.819  23.576   2.637
40506W        W 6915  18.866   7.640   2.399
40507W        W 6916  10.012  28.447   3.164
40508W        W 6917  23.518  28.400   0.720
40509W        W 6918  28.532  16.404   2.326
40510W        W 6919  36.882   3.824  11.794
40511W        W 6920  11.656  32.327   1.360
40512W        W 6921   7.576  37.284  14.585
40513W        W 6922  26.074  43.961  10.745
40514W        W 6923  37.114  29.063  13.970
40515W        W 6924  14.350  44.285   1.245
40516W        W 6925  18.221  31.988  13.103
40517W        W 6926  38.919  16.488  14.855
40518W        W 6927  40.708  31.446   3.131
40519W        W 6928  41.908  28.355  13.567
40520W        W 6929  39.352  20.391  12.914
40521W        W 6930   6.860  32.477  11.695
40522W        W 6931   6.190  31.652   2.851
40523W        W 6932  37.958  13.915   0.299
40524W        W 6933  40.563  16.485   2.119
40525W        W 6934   7.918  10.065   0.764
40526W        W 6935  13.804   5.271  13.598
40527W        W 6936  15.777   3.889   2.257
40528W        W 6937  39.099  42.875  13.429
40529W        W 6938  37.125  29.345  13.537
40530W        W 6939  18.793  19.213   3.642
40531W        W 6940  44.155  11.770  12.343
40532W        W 6941  11.108  18.362   3.227
40533W        W 6942   9.199  21.565  13.868
40534W        W 6943   4.020   7.483   0.908
40535W        W 6944  12.164   4.806  13.977
40536W        W 6945   3.850  38.013   4.108
40537W        W 6946  44.765  23.540  14.784
40538W        W 6947  13.264  19.370  11.096
40539W        W 6948  20.154  11.860  11.525
40540W        W 6949  18.048  14.292   4.144
40541W        W 6950  13.227  32.517  10.663
40542W        W 6951  19.259  30.694   2.308
40543W        W 6952  25.968  29.692   4.337
40544W        W 6953  22.070  20.485   4.845
40545W        W 6954  35.008  23.023  10.848
40546W        W 6955  44.801  41.549   1.347
40547W        W 6956  11.488  36.905   4.639
40548W        W 6957   3.261  42.009  13.343
40549W        W 6958  38.575  33.270   4.645
40550W        W 6959  12.303   7.894   4.136
40551W        W 6960  10.721  32.445   2.322
40552W        W 6961  30.489  30.638   1.781
40553W        W 6962  29.098   7.424  14.387
40554W        W 6963  12.369  22.924   1.052
40555W        W 6964  23.219  11.649   0.410
40556W        W 6965  28.444  21.545   1.288
40557W        W 6966  20.532  43.862   0.323
40558W        W 6967  24.483  25.015  11.642
40559W        W 6968  29.237  17.067  14.802
40560W        W 6969  16.043  33.538   1.684
40561W        W 6970  38.401   5.375  14.634
40562W        W 6971  16.895  39.134  13.197
40563W        W 6972  22.035  34.838  11.184
40564W        W 6973  39.642   1.685   4.149
40565W        W 6974  38.595  27.472   4.074
40566W        W 6975  22.054   9.987   0.974
40567W        W 6976  10.314  13.074   4.087
40568W        W 6977  14.554  14.565   2.634
40569W        W 6978  36.013   1.508   3.392
40570W        W 6979  13.790  16.602   4.115
40571W        W 6980  32.180  43.841   1.327
40572W        W 6981  28.320  27.018  14.440
40573W        W 6982   7.971  20.059  13.917
40574W        W 6983  44.968   8.912  11.981
40575W        W 6984  13.554  11.465  12.112
40576W        W 6985   5.842  16.832   4.028
40577W        W 6986   2.337  30.989  13.322
40578W        W 6987   2.237   0.833   4.122
40579W        W 6988  11.427  23.049  14.544
40580W        W 6989  31.842  10.911  11.175
40581W        W 6990  34.978  26.674  14.967
40582W        W 6991  10.589  21.514  14.827
40583W        W 6992  36.200  38.137  12.570
40584W        W 6993  39.440  31.409  11.953
40585W        W 6994  19.664  28.346  13.168
40586W        W 6995   9.129  43.539   3.685
40587W        W 6996  26.778  25.122   1.827
40588W        W 6997  44.935  10.142  12.502
40589W        W 6998  30.193  39.607  11.154
40590W        W 6999  25.446  32.370  11.836
40591W        W 7000  17.879  35.962   3.512
40592W        W 7001   7.751  11.727   3.679
40593W        W 7002  18.150  34.033   4.537
40594W        W 7003  29.360  18.251  11.027
40595W        W 7004   5.083   1.421  10.630
40596W        W 7005  40.937  36.688  14.279
40597W        W 7006  12.269  35.363   0.911
40598W        W 7007   0.863  13.252  11.056
40599W        W 7008   2.391   4.457  10.779
40600W        W 7009  31.052  29.404  11.689
40601W        W 7010  21.054  14.177  10.807
40602W        W 7011  39.585  42.617   1.383
40603W        W 7012  31.687  40.225  11.038
40604W        W 7013  35.049  23.038   2.232
40605W        W 7014  32.657  10.045  10.588
40606W        W 7015   3.336  38.016   2.789
40607W        W 7016  32.898  44.697  11.091
40608W        W 7017   7.119   8.811   1.313
40609W        W 7018  22.560  26.761   3.036
40610W        W 7019  44.642  23.232   2.895
40611W        W 7020   1.520  18.989  14.429
40612W        W 7021  40.807   5.448  11.454
40613W        W 7022  40.344  13.724  11.468
40614W        W 7023   0.853  10.891   3.198
40615W        W 7024   5.696  19.643   4.399
40616W        W 7025   3.449  27.021  10.729
40617W        W 7026   9.522   6.595  12.380
40618W        W 7027   2.306  19.286   3.752
40619W        W 7028  11.582  13.194   0.941
40620W        W 7029  24.597  16.804  10.670
40621W        W 7030  33.641   3.448  11.236
40622W        W 7031   9.245  17.157   1.534
40623W        W 7032  12.078  42.959  14.039
40624W        W 7033  17.180  16.083   1.260
40625W        W 7034  41.366  39.250   4.272
40626W        W 7035  22.806   7.275   3.199
40627W        W 7036  19.133  43.696   3.776
40628W        W 7037  39.922  29.536  13.478
40629W        W 7038   3.532   0.310   4.323
40630W        W 7039  20.061  30.232  14.763
40631W        W 7040  37.035  32.097   4.879
40632W        W 7041   2.304  12.393   3.326
40633W        W 7042  25.880  37.961   1.818
40634W        W 7043  20.870  26.939  10.789
40635W        W 7044   4.921  19.736  13.072
40636W        W 7045  35.087  28.229  12.912
40637W        W 7046  32.706   8.625  10.716
40638W        W 7047  30.197  14.756  13.460
40639W        W 7048  23.213  25.151   4.510
40640W        W 7049  16.288  44.567  12.027
40641W        W 7050   5.948  16.076   3.783
40642W        W 7051  11.250   3.260   0.343
40643W        W 7052   5.237  16.225  13.480
40644W        W 7053  34.958  28.844  14.151
40645W        W 7054  44.700  28.202  11.538
40646W        W 7055  19.319  16.582  13.837
40647W        W 7056  27.010  29.565  13.778
40648W        W 7057  15.542  27.230   3.600
40649W        W 7058  37.395   7.808  10.718
40650W        W 7059   1.390   3.492  10.783
40651W        W 7060   6.002  29.635   0.795
40652W        W 7061  18.251  12.863  11.504
40653W        W 7062  12.497  41.085  13.508
40654W        W 7063  27.549  33.208  11.726
40655W        W 7064  10.898  21.828   4.128
40656W        W 7065  40.942  30.122  11.412
40657W        W 7066  38.866  41.392  12.096
40658W        W 7067   9.267  31.618  14.510
40659W        W 7068  11.918  23.170  10.685
40660W        W 7069  41.003  13.116  12.842
40661W        W 7070  24.997  17.691  11.594
40662W        W 7071  38.844  36.386   4.775
40663W        W 7072  23.240  41.215   0.868
40664W        W 7073  35.635  41.485  14.930
40665W        W 7074  22.081  21.156   1.376
40666W        W 7075   4.740  36.494   1.192
40667W        W 7076  26.685  40.888   2.021
40668W        W 7077  32.525  30.072  14.452
40669W        W 7078  22.713  33.529   4.640
40670W        W 7079  36.313  14.158   4.294
40671W        W 7080  19.482  34.467  11.633
40672W        W 7081  24.853   5.211   4.033
40673W        W 7082  19.105  12.431   3.255
40674W        W 7083  27.156  15.722   2.346
40675W        W 7084  33.797  43.894  10.653
40676W        W 7085  41.385   4.781   1.821
40677W        W 7086  40.443  28.037  10.663
40678W        W 7087  42.232  12.375   0.288
40679W        W 7088  35.123  30.435  12.126
40680W        W 7089   6.634  32.678   4.547
40681W        W 7090  17.443  26.122  13.031
40682W        W 7091  43.304  14.238  13.834
40683W        W 7092  11.278  27.393  13.068
40684W        W 7093  21.225  35.127   0.320
40685W        W 7094  18.989  23.870  14.624
40686W        W 7095   7.347  10.788   3.513
40687W        W 7096  44.356  23.593  11.750
40688W        W 7097   7.590  22.501  14.612
40689W        W 7098  27.381  42.885  14.551
40690W        W 7099  21.869  16.344   1.648
40691W        W 7100  12.715  32.603   2.755
40692W        W 7101  16.210  28.806  13.038
40693W        W 7102  21.444  19.341  10.725
40694W        W 7103   2.850  20.881   1.799
40695W        W 7104  29.988  33.931   2.189
40696W        W 7105  24.035  13.112  12.856
40697W        W 7106  11.869  21.108  11.616
40698W        W 7107  10.487  36.894  12.119
40699W        W 7108   0.469  38.995  12.057
40700W        W 7109  43.780   7.950   1.899
40701W        W 7110   5.830   8.751  10.702
40702W        W 7111  39.913  17.270   1.233
40703W        W 7112  24.017   7.736   4.086
40704W        W 7113  32.384  38.651  14.105
40705W        W 7114  24.007  21.049  10.744
40706W        W 7115  33.426  38.101   2.280
40707W        W 7116  17.483  33.565   1.359
40708W        W 7117  16.639  25.960  14.966
40709W        W 7118   8.265  40.025   3.731
40710W        W 7119  21.818  36.081   0.265
40711W        W 7120   0.379   2.285   4.535
40712W        W 7121  10.781  35.459  11.594
40713W        W 7122  25.467  44.801   0.757
40714W        W 7123  10.613   6.681   3.119
40715W        W 7124  12.756  40.333   0.461
40716W        W 7125  16.893   0.914  11.565
40717W        W 7126   5.212  44.550  13.894
40718W        W 7127   9.631  16.505   4.019
40719W        W 7128  40.109  32.503  12.364
40720W        W 7129  28.280   4.466  14.433
40721W        W 7130  14.307  29.518  13.311
40722W        W 7131  29.464  13.292   2.833
40723W        W 7132   8.440  15.579   0.180
40724W        W 7133   0.847   0.301  10.348
40725W        W 7134   9.672  12.172  10.857
40726W        W 7135   6.560  20.884  12.949
40727W        W 7136  44.741  23.118  10.606
40728W        W 7137  38.245  13.252  13.845
40729W        W 7138  10.911  39.175   2.734
40730W        W 7139   6.219  24.922   0.999
40731W        W 7140  14.077  15.199  14.249
40732W        W 7141  40.830  33.801   0.718
40733W        W 7142  39.901  37.159   4.126
40734W        W 7143  25.660  39.848  13.192
40735W        W 7144  40.241   2.923   0.747
40736W        W 7145  39.107  19.855   5.032
40737W        W 7146   5.708  24.665  14.041
40738W        W 7147  13.574  37.131   9.976
40739W        W 7148   9.305  21.020   5.273
40740W        W 7149   8.714   2.523   2.856
40741W        W 7150  23.472  16.107  11.123
40742W        W 7151  28.986  17.620  11.402
40743W        W 7152   9.392   9.898  11.158
40744W        W 7153  22.070   2.837   3.983
40745W        W 7154  31.187  22.327   3.864
40746W        W 7155  38.440  23.104  13.845
40747W        W 7156  17.741   3.870   2.428
40748W        W 7157   5.201   8.430  14.408
40749W        W 7158  42.379  11.390   4.623
40750W        W 7159  20.438  13.721   3.199
40751W        W 7160  38.141  40.219  11.567
40752W        W 7161  29.009  43.804  11.875
40753W        W 7162  18.120  29.552  12.103
40754W        W 7163  33.783   5.214  13.510
40755W        W 7164  11.276  11.340  14.962
40756W        W 7165  35.854   9.584  11.910
40757W        W 7166  14.327  35.765   2.375
40758W        W 7167   5.009  14.801   3.701
40759W        W 7168  13.292  18.874   1.000
40760W        W 7169  41.918  18.810  14.110
40761W        W 7170  28.880  25.509  14.844
40762W        W 7171  21.764  22.649   2.663
40763W        W 7172  40.128  20.809   2.878
40764W        W 7173  40.953   2.001   2.759
40765W        W 7174  30.845  29.296  14.479
40766W        W 7175  41.489  37.860  10.844
40767W        W 7176   3.144   4.892  10.835
40768W        W 7177  31.895  31.398   3.674
40769W        W 7178  12.119  18.222   3.320
40770W        W 7179  41.338   3.220   0.704
40771W        W 7180  16.348   2.162   4.762
40772W        W 7181  14.594  39.955   4.161
40773W        W 7182  14.743  14.713   4.534
40774W        W 7183  20.721  24.001   3.239
40775W        W 7184  31.012   2.661   0.399
40776W        W 7185  33.797   1.236   2.737
40777W        W 7186  42.854  41.728   2.935
40778W        W 7187  44.429  28.502   2.309
40779W        W 7188  42.870  17.866  13.818
40780W        W 7189  13.057  27.033  11.239
40781W        W 7190   8.434  35.579  10.684
40782W        W 7191  10.901  42.949  11.964
40783W        W 7192   6.347  37.405   4.733
40784W        W 7193  42.911  43.640  14.306
40785W        W 7194   9.768   2.321   0.916
40786W        W 7195   0.349   7.099  14.627
40787W        W 7196  23.157  40.558   3.384
40788W        W 7197  21.933   6.391   2.151
40789W        W 7198  22.305   2.169  13.313
40790W        W 7199  42.124  19.565   3.316
40791W        W 7200  31.884  11.674   0.649
40792W        W 7201   7.015   7.839   2.209
40793W        W 7202   4.441   2.892  12.964
40794W        W 7203  37.745   8.428  12.415
40795W        W 7204   0.432  24.517  12.388
40796W        W 7205  24.933  16.247  13.011
40797W        W 7206   5.815  38.387  12.541
40798W        W 7207  24.227   9.095  12.591
40799W        W 7208  34.484  36.777   2.724
40800W        W 7209  28.655  38.035  12.408
40801W        W 7210  10.200   8.577  12.295
40802W        W 7211  25.718  31.020   1.976
40803W        W 7212  40.967  39.617  11.956
40804W        W 7213  11.077  18.729   0.226
40805W        W 7214  16.155  36.600  11.190
40806W        W 7215   0.299  16.753  10.781
40807W        W 7216  38.053  12.531   2.843
40808W        W 7217  34.426   6.390  14.071
40809W        W 7218  18.541   9.406  12.155
40810W        W 7219   3.727  27.123   2.827
40811W        W 7220  21.479   4.287  11.591
40812W        W 7221  27.508  11.429  11.057
40813W        W 7222  34.620  39.796   2.412
40814W        W 7223  34.635  34.175  11.950
40815W        W 7224   8.314  10.304   2.639
40816W        W 7225  36.476  14.190   0.430
40817W        W 7226  15.082  10.744  11.608
40818W        W 7227  29.035  14.224  12.483
40819W        W 7228  41.832   4.522   4.567
40820W        W 7229  43.262   7.784   4.575
40821W        W 7230  44.842  35.116  12.994
40822W        W 7231  24.534  19.980  14.859
40823W        W 7232  20.308  18.147   4.764
40824W        W 7233  28.144  33.908   0.444
40825W        W 7234   5.907  18.741   3.249
40826W        W 7235   5.893  16.279  14.796
40827W        W 7236  27.459  36.853  13.039
40828W        W 7237  44.343  15.029  13.519
40829W        W 7238  10.973  35.631  12.046
40830W        W 7239  34.807   8.646   1.087
40831W        W 7240  24.619  12.397   3.609
40832W        W 7241  19.227   7.280  11.213
40833W        W 7242   2.676  13.605  12.458
40834W        W 7243  44.281  30.046  12.612
40835W        W 7244  28.254   2.379  10.826
40836W        W 7245  37.857  37.411  13.560
40837W        W 7246  22.265  19.505   3.629
40838W        W 7247   3.907  41.940  14.477
40839W        W 7248  14.277  26.605  11.407
40840W        W 7249  35.771   4.652  12.761
40841W        W 7250  17.881  17.618  14.815
40842W        W 7251   8.362  40.513  10.660
40843W        W 7252  29.519  19.183   3.721
40844W        W 7253   1.949  11.593  10.789
40845W        W 7254   2.178  41.066   1.336
40846W        W 7255  15.985  34.072  11.945
40847W        W 7256   4.967  33.477   2.223
40848W        W 7257  37.914  16.575   2.092
40849W        W 7258  17.466   1.949  10.802
40850W        W 7259   8.194   3.484  11.446
40851W        W 7260  20.265  36.858   2.834
40852W        W 7261  27.900  13.821  11.912
40853W        W 7262  30.504   5.405  13.313
40854W        W 7263  20.544  37.817   3.996
40855W        W 7264   0.897   3.718  12.847
40856W        W 7265  31.894   9.115   1.868
40857W        W 7266  44.758   2.924   3.539
40858W        W 7267  33.681  21.774   2.848
40859W        W 7268  35.937   4.398  13.932
40860W        W 7269   2.397  44.557  14.819
40861W        W 7270  37.425  26.412   4.638
40862W        W 7271   9.566  39.552  10.927
40863W        W 7272  10.846  20.503  12.536
40864W        W 7273  23.302  27.933   0.889
40865W        W 7274  27.450  17.970   1.913
40866W        W 7275  34.386  20.218  11.178
40867W        W 7276   6.536  10.225  13.586
40868W        W 7277   7.844  36.415  13.895
40869W        W 7278  17.383  10.254  12.312
40870W        W 7279  41.139   7.018   0.665
40871W        W 7280  16.315  19.334   2.677
40872W        W 7281  17.602  44.010   2.373
40873W        W 7282   5.889  44.945  12.427
40874W        W 7283  18.542   8.443  11.108
40875W        W 7284  38.939  16.828  12.802
40876W        W 7285  22.154   1.117  12.687
40877W        W 7286  12.811   3.233  11.253
40878W        W 7287   1.187  43.311   4.055
40879W        W 7288  37.872  25.474   1.353
40880W        W 7289  35.400  29.706   4.505
40881W        W 7290  15.611  34.381  11.567
40882W        W 7291  24.396  19.384   3.231
40883W        W 7292  15.997  36.559  11.680
40884W        W 7293  36.898  27.917   2.115
40885W        W 7294  11.709  25.086  14.890
40886W        W 7295  14.169   7.051  13.301
40887W        W 7296  22.210   7.522   4.920
40888W        W 7297   5.352  11.896   0.383
40889W        W 7298  39.386  19.511   0.312
40890W        W 7299  18.694  22.056   0.153
40891W        W 7300  23.681   7.383  11.105
40892W        W 7301  32.354  15.095  11.973
40893W        W 7302  31.490  15.016   2.683
40894W        W 7303   5.121   1.284  14.540
40895W        W 7304  21.387   3.827  11.835
40896W        W 7305  16.547  42.195   2.340
40897W        W 7306  43.817  35.455  10.665
40898W        W 7307  44.085   1.692   0.437
40899W        W 7308  24.161  21.464   0.758
40900W        W 7309   5.912  31.849  12.726
40901W        W 7310  28.238  24.696  12.976
40902W        W 7311   7.438  39.261   2.860
40903W        W 7312  40.461   2.803   1.713
40904W        W 7313   3.225  13.595   3.849
40905W        W 7314  35.597  10.623  14.325
40906W        W 7315   4.931   2.350  13.438
40907W        W 7316  21.692   2.240   3.446
40908W        W 7317  26.581   4.089  13.986
40909W        W 7318  20.478  30.431   1.827
40910W        W 7319  26.685   5.085  13.919
40911W        W 7320  29.287  14.842   4.252
40912W        W 7321   7.465   1.824  13.208
40913W        W 7322   3.281  10.730  12.105
40914W        W 7323  36.481   3.613  13.965
40915W        W 7324  31.663  36.311  12.278
40916W        W 7325  35.811   7.710   2.834
40917W        W 7326  36.342  29.935  14.955
40918W        W 7327   0.373  39.071  13.054
40919W        W 7328  14.804  20.161   5.349
40920W        W 7329   8.084   5.720   0.331
40921W        W 7330   6.164   1.992  11.228
40922W        W 7331  41.287  38.185  11.214
40923W        W 7332   6.159  44.006  14.456
40924W        W 7333  22.752  21.492  10.581
40925W        W 7334   4.899   0.183  11.058
40926W        W 7335   9.770  15.032  10.781
40927W        W 7336  37.363  40.916   0.683
40928W        W 7337  35.945  26.450  12.008
40929W        W 7338  33.572  31.026  10.734
40930W        W 7339  13.843  39.271   0.907
40931W        W 7340   5.906  42.660   1.262
40932W        W 7341  42.878   3.694   1.743
40933W        W 7342  20.836  29.679  11.919
40934W        W 7343  13.395  40.133   1.371
40935W        W 7344  22.742   9.379  12.519
40936W        W 7345   1.744  24.403   3.214
40937W        W 7346   3.602  16.442  13.638
40938W        W 7347  44.926  42.659   2.207
40939W        W 7348  13.037  17.754   1.798
40940W        W 7349  22.032  44.168  12.497
40941W        W 7350  30.437   0.679   3.618
40942W        W 7351  25.583  16.243   4.391
40943W        W 7352  16.442  17.925   4.014
40944W        W 7353  43.442  42.327   3.316
40945W        W 7354  40.937  30.936   0.235
40946W        W 7355   4.893   2.558  10.140
40947W        W 7356  38.262  38.377  13.386
40948W        W 7357  27.813  15.489  10.691
40949W        W 7358  25.306  12.348   0.003
40950W        W 7359  25.953  25.253   4.144
40951W        W 7360  28.377  11.790  11.976
40952W        W 7361  14.270  12.167  14.519
40953W        W 7362  16.387  35.026  14.389
40954W        W 7363   5.810  10.753  13.110
40955W        W 7364  20.211   1.997   0.055
40956W        W 7365  36.052  44.549   1.462
40957W        W 7366  38.020  43.070   3.209
40958W        W 7367  15.769   9.204  13.978
40959W        W 7368   4.699  31.097   5.114
40960W        W 7369  13.366  16.284   1.427
40961W        W 7370  20.262  15.706   0.293
40962W        W 7371   1.984  42.674   0.964
40963W        W 7372  14.746   4.887   2.381
40964W        W 7373  36.055  18.096  12.716
40965W        W 7374  17.570  20.742  12.970
40966W        W 7375  29.670   3.055   0.472
40967W        W 7376  30.585  37.112   2.528
40968W        W 7377   8.344  28.677   4.378
40969W        W 7378  28.554  13.346   3.345
40970W        W 7379  17.368  41.070  12.936
40971W        W 7380  13.903  12.766   0.258
40972W        W 7381  40.149  35.219  13.008
40973W        W 7382   5.890  20.499  14.219
40974W        W 7383  40.210  32.249   4.449
40975W        W 7384  38.044  26.059   0.049
40976W        W 7385   9.331  23.547   3.723
40977W        W 7386  13.483  29.432  11.207
40978W        W 7387   3.348  17.625   2.648
40979W        W 7388  23.754  39.937   1.347
40980W        W 7389  14.542  30.073  12.499
40981W        W 7390  31.836  17.662   3.016
40982W        W 7391   8.605  39.051  13.823
40983W        W 7392   2.686  30.515  11.214
40984W        W 7393  11.242  35.672   1.895
40985W        W 7394   4.213  37.474   0.815
40986W        W 7395  18.157  18.177  11.182
40987W        W 7396   5.803   4.960   4.804
40988W        W 7397  27.725  43.151   2.754
40989W        W 7398   6.794  12.576   3.801
40990W        W 7399   5.005  13.692  11.141
40991W        W 7400  16.034  32.703  10.209
40992W        W 7401  17.122   7.543  13.397
40993W        W 7402  14.118  43.100  10.545
40994W        W 7403  28.437  19.194   1.007
40995W        W 7404   9.162  36.178  14.812
40996W        W 7405  15.598  24.279   4.155
40997W        W 7406  34.588  23.890   2.240
40998W        W 7407   0.524  37.961  13.479
40999W        W 7408  12.087  27.665   3.859
41000W        W 7409  35.650  24.560   2.592
41001W        W 7410   9.429  34.061   1.296
41002W        W 7411  36.936  40.010  10.656
41003W        W 7412  11.215   7.996   3.235
41004W        W 7413  25.409  39.974  11.667
41005W        W 7414  35.144  36.065  14.294
41006W        W 7415  40.950  39.682  11.058
41007W        W 7416  11.785  20.301  12.860
41008W        W 7417  44.365   1.338   4.304
41009W        W 7418  19.735  38.748  14.963
41010W        W 7419   9.062  27.760  11.592
41011W        W 7420   3.899  33.328   1.654
41012W        W 7421  22.461  40.028   0.235
41013W        W 7422  15.095  18.589  14.893
41014W        W 7423  26.520  40.603  12.629
41015W        W 7424  14.225  29.044   0.110
41016W        W 7425  34.957  16.549  13.937
41017W        W 7426  33.467  27.800   3.159
41018W        W 7427  35.983  20.475   3.894
41019W        W 7428   3.621  23.446  12.558
41020W        W 7429   9.031   9.230   4.320
41021W        W 7430  15.908   4.888   1.899
41022W        W 7431  13.128  11.593  10.321
41023W        W 7432  11.851  31.895   4.549
41024W        W 7433  14.673  19.815   2.186
41025W        W 7434  17.258  43.393  13.666
41026W        W 7435  14.022  28.080   4.947
41027W        W 7436  17.897  34.518   4.505
41028W        W 7437  38.938  22.626   1.623
41029W        W 7438   9.261   1.224  12.925
41030W        W 7439  18.764  10.658   4.166
41031W        W 7440  29.471  13.264   4.565
41032W        W 7441   1.999   0.353  10.593
41033W        W 7442   0.491  43.242   2.644
41034W        W 7443  22.125  42.254  12.722
41035W        W 7444   3.881  28.356  12.915
41036W        W 7445   9.313  32.762   2.412
41037W        W 7446  24.497   9.372  10.748
41038W        W 7447   7.595   2.886   3.630
41039W        W 7448  12.389  20.731   0.872
41040W        W 7449  40.382   8.908   1.441
41041W        W 7450  18.778  13.179   2.856
41042W        W 7451  11.317  22.052  12.941
41043W        W 7452   1.292   7.149   0.456
41044W        W 7453  35.997  41.788   2.369
41045W        W 7454  38.978  15.332  10.152
41046W        W 7455  36.826  27.756   4.610
41047W        W 7456  17.691  23.201  13.939
41048W        W 7457  30.645  17.236   0.211
41049W        W 7458   3.873   3.884  12.099
41050W        W 7459  27.246  12.644  13.865
41051W        W 7460   7.783  10.892   2.807
41052W        W 7461  29.403  41.335   1.464
41053W        W 7462  13.607   1.306   0.455
41054W        W 7463  19.230   4.388  12.829
41055W        W 7464  27.170  22.743   0.367
41056W        W 7465  32.172  14.749   0.716
41057W        W 7466  19.814  32.554   4.003
41058W        W 7467  28.867  10.198  13.362
41059W        W 7468   0.664   9.086   1.922
41060W        W 7469  43.948  38.931   1.916
41061W        W 7470  20.123  36.480  14.933
41062W        W 7471  29.963  29.661   1.115
41063W        W 7472   9.807  22.234  14.522
41064W        W 7473  18.271   5.362   3.299
41065W        W 7474  37.948  40.108   1.987
41066W        W 7475  19.291   1.292  14.423
41067W        W 7476   9.165  37.503  11.991
41068W        W 7477  37.188  26.013   1.281
41069W        W 7478  38.931  43.354  12.321
41070W        W 7479  14.083   1.540   5.327
41071W        W 7480  33.756  26.658   3.294
41072W        W 7481  34.901  24.087  12.025
41073W        W 7482  15.200  43.011  14.268
41074W        W 7483   5.200  33.288   1.780
41075W        W 7484  41.390  28.400   1.089
41076W        W 7485  10.556  44.467   0.747
41077W        W 7486  31.326  15.152   2.193
41078W        W 7487  15.280  20.051  12.895
41079W        W 7488  20.586   1.753   2.882
41080W        W 7489  29.603  43.002   3.149
41081W        W 7490  37.914  25.832   4.362
41082W        W 7491  24.678  18.597  10.700
41083W        W 7492  41.019  41.565  11.553
41084W        W 7493  10.445  28.656  13.273
41085W        W 7494  33.004  11.266   0.488
41086W        W 7495   0.953  39.395   4.736
41087W        W 7496  34.846  37.854   1.287
41088W        W 7497  21.757  25.028   2.027
41089W        W 7498  35.648   4.262  11.669
41090W        W 7499  32.661  38.862   0.826
41091W        W 7500  15.186   7.431  12.457
41092W        W 7501   6.514  23.985  12.409
41093W        W 7502  26.394  42.898   0.650
41094W        W 7503  15.266  35.155  11.548
41095W        W 7504  27.356  10.332  12.643
41096W        W 7505  35.147  14.316   3.787
41097W        W 7506  13.620  12.134   1.334
41098W        W 7507  41.568  39.428   1.568
41099W        W 7508  21.545  36.835  10.630
41100W        W 7509  31.541  42.323  12.143
41101W        W 7510  22.576   9.762   3.930
41102W        W 7511  35.804   7.025   3.627
41103W        W 7512  14.352   9.665   0.643
41104W        W 7513  44.791   6.143   3.122
41105W        W 7514   6.878  40.415  12.405
41106W        W 7515   9.379   3.350  13.379
41107W        W 7516  44.840  37.417  11.566
41108W        W 7517   5.480  21.325   4.510
41109W        W 7518   5.272  20.241  12.069
41110W        W 7519  40.462   5.408  12.341
41111W        W 7520  35.080  32.910   0.051
41112W        W 7521   7.259  35.161   0.625
41113W        W 7522  40.605   8.251   3.472
41114W        W 7523   5.781  42.320   4.222
41115W        W 7524  14.356  43.356  13.642
41116W        W 7525   6.283  10.110   2.255
41117W        W 7526   4.665  10.222  12.678
41118W        W 7527  31.222  37.838  14.913
41119W        W 7528  13.178  11.159   4.428
41120W        W 7529  10.261   4.973   4.515
41121W        W 7530  43.876  34.336  12.409
41122W        W 7531   8.200  27.012  12.939
41123W        W 7532  31.882  11.397   1.914
41124W        W 7533   9.737  16.829   0.329
41125W        W 7534  41.885  24.286   4.699
41126W        W 7535  20.352  26.983  10.756
41127W        W 7536  41.516   4.737   3.768
41128W        W 7537   8.125  30.508   4.143
41129W        W 7538  18.168  20.705   9.752
41130W        W 7539   5.416  15.849   2.363
41131W        W 7540   7.826  36.163   4.533
41132W        W 7541  25.648  10.442  10.713
41133W        W 7542  34.004  16.476  11.664
41134W        W 7543  32.653  21.218  11.128
41135W        W 7544  44.068  22.079   0.426
41136W        W 7545  19.199  29.509  10.653
41137W        W 7546  17.847  41.427  12.393
41138W        W 7547   4.642  38.923  13.580
41139W        W 7548  14.404  27.952  10.746
41140W        W 7549   1.760  20.141   0.810
41141W        W 7550  43.089  40.172  10.986
41142W        W 7551  39.233  34.480   1.969
41143W        W 7552  13.330   5.398   0.561
41144W        W 7553  30.528  43.799   2.793
41145W        W 7554   0.827  40.842   4.412
41146W        W 7555  20.982  26.457   0.959
41147W        W 7556  20.462  25.392   0.400
41148W        W 7557  18.651  10.970  13.281
41149W        W 7558  30.570  33.663  13.947
41150W        W 7559  11.274  28.665   0.191
41151W        W 7560  41.651  39.960   2.282
41152W        W 7561  19.637  44.755  12.894
41153W        W 7562  14.809   9.386   3.459
41154W        W 7563  33.923   8.692   2.172
41155W        W 7564  24.544   6.641  14.457
41156W        W 7565  12.625  29.200  11.277
41157W        W 7566  24.684  20.292  13.524
41158W        W 7567  17.537  40.832  14.526
41159W        W 7568  20.777  33.445  14.251
41160W        W 7569  43.787  40.723   2.216
41161W        W 7570  18.903  39.960   0.941
41162W        W 7571   1.051  33.014  11.114
41163W        W 7572  41.445  39.822  11.075
41164W        W 7573  30.781  15.615  14.376
41165W        W 7574  43.319   7.636   1.697
41166W        W 7575  40.354   6.723   1.839
41167W        W 7576   8.438  17.128   0.297
41168W        W 7577  14.894  41.499  14.343
41169W        W 7578   3.398  17.168  10.784
41170W        W 7579  17.504   8.971   3.310
41171W        W 7580   8.598  30.763  13.442
41172W        W 7581  13.620  39.621  11.135
41173W        W 7582  22.758  44.973  10.649
41174W        W 7583  26.786  26.208  12.514
41175W        W 7584  37.983  24.830   4.145
41176W        W 7585  25.248  24.992  12.020
41177W        W 7586   0.098  27.540   4.051
41178W        W 7587  36.064  41.998   4.156
41179W        W 7588   5.939  19.564   0.987
41180W        W 7589  32.930  24.707  13.934
41181W        W 7590  23.274  31.340   1.310
41182W        W 7591   3.280  27.172   2.561
41183W        W 7592  28.916   7.278   3.456
41184W        W 7593   2.483  38.125   0.923
41185W        W 7594  22.714  37.035   1.178
41186W        W 7595  30.931  16.559   0.275
41187W        W 7596  12.246   2.302   3.401
41188W        W 7597  24.772   5.968  13.348
41189W        W 7598  36.938  21.515   1.486
41190W        W 7599  42.840  28.379  12.952
41191W        W 7600  11.812  40.276   0.483
41192W        W 7601   1.797  21.133   0.305
41193W        W 7602  28.259  27.418  10.349
41194W        W 7603  12.322  10.867  11.675
41195W        W 7604  29.536  38.374  13.017
41196W        W 7605  43.449  20.691  13.435
41197W        W 7606   0.639   3.446   0.298
41198W        W 7607  23.410  29.508  12.159
41199W        W 7608  10.368  42.073  12.717
41200W        W 7609  29.591  39.450   4.103
41201W        W 7610  28.656  34.494   3.349
41202W        W 7611  31.438  34.802   1.765
41203W        W 7612  33.101  16.636  14.933
41204W        W 7613  20.764  43.956   0.774
41205W        W 7614  32.057  10.408  11.098
41206W        W 7615  25.713  21.633  13.007
41207W        W 7616  37.059  28.517   3.135
41208W        W 7617   2.812  21.711  12.899
41209W        W 7618  13.270  25.642   1.471
41210W        W 7619  16.573  38.535  12.430
41211W        W 7620  32.562  38.079  11.732
41212W        W 7621   8.945  30.484   2.328
41213W        W 7622  28.332  15.602  12.903
41214W        W 7623  37.350  27.711  10.526
41215W        W 7624  29.761  31.576   2.985
41216W        W 7625  21.056  39.138  12.857
41217W        W 7626  34.634  41.579  14.037
41218W        W 7627  12.253   1.088   0.277
41219W        W 7628  12.433  31.102   3.257
41220W        W 7629  36.063  25.720  14.942
41221W        W 7630  15.862   7.740   1.918
41222W        W 7631  34.156  37.026  12.554
41223W        W 7632   7.362  28.139   5.099
41224W        W 7633  35.569  35.146   0.062
41225W        W 7634  38.123   4.744   4.870
41226W        W 7635  12.243  36.154   4.756
41227W        W 7636  36.622   7.215   2.856
41228W        W 7637  26.590  10.288  11.618
41229W        W 7638  41.481  12.390  12.630
41230W        W 7639  13.656  41.920  13.890
41231W        W 7640  13.449  40.426   2.097
41232W        W 7641   2.971   7.378   0.493
41233W        W 7642  16.591  26.695  12.064
41234W        W 7643  40.400  32.531  11.377
41235W        W 7644   1.717  37.946   1.306
41236W        W 7645  22.664  30.055  11.986
41237W        W 7646   0.885  31.797   3.157
41238W        W 7647   6.678  24.165   2.550
41239W        W 7648  12.343  19.267   1.958
41240W        W 7649  40.101  10.367  12.649
41241W        W 7650  18.481   0.054   1.910
41242W        W 7651  44.327  41.857   0.145
41243W        W 7652  17.988  13.564  11.982
41244W        W 7653  31.895  24.457  10.748
41245W        W 7654  12.113   2.427   1.209
41246W        W 7655  26.293  20.542   4.533
41247W        W 7656  13.721  36.966   2.220
41248W        W 7657  29.383  12.302  13.464
41249W        W 7658  31.183   8.236   3.741
41250W        W 7659   9.830  34.155  10.430
41251W        W 7660  37.361  32.455  14.864
41252W        W 7661  35.432   4.304  13.984
41253W        W 7662   6.228  32.279   0.315
41254W        W 7663  41.075  31.436   1.006
41255W        W 7664  39.869  25.636  14.142
41256W        W 7665  22.978  12.847   3.937
41257W        W 7666  36.977  16.797  13.443
41258W        W 7667  14.539   6.229   2.877
41259W        W 7668  22.591  20.267   1.175
41260W        W 7669   8.934   7.361   3.753
41261W        W 7670   9.881   4.099   2.078
41262W        W 7671  25.707  10.654  13.793
41263W        W 7672  37.956  14.003   2.898
41264W        W 7673  30.592   3.424   0.668
41265W        W 7674  31.567  33.672   2.844
41266W        W 7675  23.298  39.369   3.375
41267W        W 7676  40.300  28.383   1.120
41268W        W 7677  43.434  22.988  14.710
41269W        W 7678  32.134  21.190   3.322
41270W        W 7679  32.167  17.113   4.852
41271W        W 7680  30.129  36.391  13.203
41272W        W 7681  31.589   7.172   2.322
41273W        W 7682  21.703  17.713   3.292
41274W        W 7683  38.347   4.838   1.249
41275W        W 7684  28.188  38.019   3.024
41276W        W 7685   8.651  17.596   0.313
41277W        W 7686  22.041  12.389  14.879
41278W        W 7687   2.254   0.172  14.036
41279W        W 7688  21.779  22.774  10.226
41280W        W 7689  37.419  32.153   2.810
41281W        W 7690  21.219   6.649   4.622
41282W        W 7691  43.233  30.444  13.483
41283W        W 7692  22.728  29.582   4.776
41284W        W 7693  12.766   2.473   3.314
41285W        W 7694   9.324  38.013   0.520
41286W        W 7695  13.854  39.722  14.469
41287W        W 7696  39.393  33.650  13.649
41288W        W 7697  43.305  11.724  11.530
41289W        W 7698  42.375  43.692   3.293
41290W        W 7699   0.732  12.561   0.839
41291W        W 7700  42.512   3.472  10.819
41292W        W 7701  33.167  12.121  10.769
41293W        W 7702   4.740  23.012   1.382
41294W        W 7703  34.600  25.468   3.795
41295W        W 7704  35.982   9.079  12.015
41296W        W 7705  28.663   9.510   1.817
41297W        W 7706  10.086  19.699  14.941
41298W        W 7707  35.969   6.458   2.327
41299W        W 7708  26.969  36.165   2.333
41300W        W 7709  43.767  44.816  12.589
41301W        W 7710  29.465   8.804   0.949
41302W        W 7711  34.940  30.862   1.050
41303W        W 7712  37.090  33.392  13.022
41304W        W 7713  35.045   9.613   0.812
41305W        W 7714  22.225  20.688  10.301
41306W        W 7715  34.641  33.707   4.158
41307W        W 7716  37.742   9.960   4.533
41308W        W 7717   8.230  25.573   0.838
41309W        W 7718  17.639  20.180   3.619
41310W        W 7719  14.128  23.621  12.761
41311W        W 7720  32.844  35.648   1.261
41312W        W 7721  18.867  18.109   1.623
41313W        W 7722  14.724  33.864   0.860
41314W        W 7723  13.611  40.996  14.852
41315W        W 7724  27.693   7.521   3.562
41316W        W 7725   7.563  20.629   3.910
41317W        W 7726  14.739  28.678   3.972
41318W        W 7727   0.220  21.159   2.019
41319W        W 7728  16.379  10.792  12.886
41320W        W 7729  21.606   9.349   4.904
41321W        W 7730  33.718  18.267   3.773
41322W        W 7731  44.352  31.609   0.013
41323W        W 7732  15.419  23.230  12.958
41324W        W 7733  25.824   9.318  13.816
41325W        W 7734  28.855  13.215   1.793
41326W        W 7735  15.651   0.700  12.093
41327W        W 7736  14.200   0.535  11.916
41328W        W 7737  16.299  23.567   3.731
41329W        W 7738   6.745  27.508  11.238
41330W        W 7739  26.760   5.215   0.696
41331W        W 7740  17.160  22.926  12.836
41332W        W 7741  35.617  11.566   4.236
41333W        W 7742  11.640  39.364  12.040
41334W        W 7743  19.479   1.380   3.972
41335W        W 7744  28.612  32.614   0.947
41336W        W 7745  12.172  42.752   0.306
41337W        W 7746  22.981  21.341   1.935
41338W        W 7747  28.697  40.859   4.017
41339W        W 7748  18.379  32.588   0.912
41340W        W 7749  36.041   6.244  12.275
41341W        W 7750   5.311  11.507   9.941
41342W        W 7751  33.523  14.690  12.104
41343W        W 7752  14.089  28.686  13.838
41344W        W 7753  27.714  27.622  10.480
41345W        W 7754  31.337  39.685   0.812
41346W        W 7755  25.997  16.483   0.141
41347W        W 7756   1.444  30.879  14.713
41348W        W 7757   1.511   6.392  14.978
41349W        W 7758  18.640   1.257  12.050
41350W        W 7759   2.302  25.865   1.001
41351W        W 7760   5.484  24.286  11.593
41352W        W 7761   6.404  17.027  10.853
41353W        W 7762  43.555  35.025  14.080
41354W        W 7763  37.900   4.290   2.585
41355W        W 7764  28.677   8.358  13.032
41356W        W 7765  25.767   3.459  13.983
41357W        W 7766  30.389  42.056  14.285
41358W        W 7767  23.725  15.716   1.752
41359W        W 7768  14.872  15.206  11.888
41360W        W 7769  35.158  23.424  13.992
41361W        W 7770   8.309   9.931   3.870
41362W        W 7771  17.594  21.055  13.465
41363W        W 7772  38.369  25.057   3.839
41364W        W 7773   7.754   4.292   1.408
41365W        W 7774  27.679  10.061   0.509
41366W        W 7775  32.273  17.886   1.778
41367W        W 7776  17.074   6.050   3.281
41368W        W 7777  24.671   0.546   2.367
41369W        W 7778   0.417  34.047   3.045
41370W        W 7779  41.297  28.789  11.870
41371W        W 7780  15.265   8.494  11.592
41372W        W 7781  30.039  24.173  14.697
41373W        W 7782  11.805  41.411   1.361
41374W        W 7783  31.631  22.073   1.330
41375W        W 7784   3.386  16.052  12.410
41376W        W 7785  33.903  19.822   4.515
41377W        W 7786  25.663   1.784  14.735
41378W        W 7787  17.174  13.576  11.340
41379W        W 7788  25.626  31.722   2.115
41380W        W 7789  30.211  39.545  12.017
41381W        W 7790  41.953  17.823   4.223
41382W        W 7791  30.367  18.328  14.996
41383W        W 7792  15.190  41.695  13.905
41384W        W 7793  24.795  38.037   0.267
41385W        W 7794  38.983  22.381  13.972
41386W        W 7795  11.292  16.739  11.354
41387W        W 7796   3.881  35.956   2.328
41388W        W 7797   1.836  27.895   2.681
41389W        W 7798  33.013  37.740  13.365
41390W        W 7799  38.006   3.030  11.479
41391W        W 7800  28.226   0.356  10.665
41392W        W 7801   1.025  12.824   4.541
41393W        W 7802  38.432  12.113  10.551
41394W        W 7803  41.526  13.524   4.553
41395W        W 7804  33.483  41.919   3.639
41396W        W 7805  20.135  25.004  14.675
41397W        W 7806  21.443  25.194   5.180
41398W        W 7807   8.410   5.427   4.135
41399W        W 7808  23.480  24.564  14.014
41400W        W 7809  18.414   2.717   0.755
41401W        W 7810   2.245  41.686  14.013
41402W        W 7811  26.029  29.229   0.937
41403W        W 7812  10.235  26.406  12.657
41404W        W 7813  31.913  28.839  11.737
41405W        W 7814  19.240   7.702   1.612
41406W        W 7815  14.205  13.955  12.364
41407W        W 7816  17.870   2.741  11.999
41408W        W 7817   6.179  27.807  14.364
41409W        W 7818  31.587  43.944   2.889
41410W        W 7819   5.429  30.480   3.576
41411W        W 7820   8.154  14.839   0.800
41412W        W 7821  20.159  42.995  12.144
41413W        W 7822   3.595   9.802   4.228
41414W        W 7823  18.312   1.537  13.283
41415W        W 7824  42.514  44.988   1.516
41416W        W 7825  18.740  43.715   1.295
41417W        W 7826   9.211   7.401   2.421
41418W        W 7827  35.129   4.890  10.836
41419W        W 7828  31.012  38.030   3.311
41420W        W 7829   9.726  39.827  10.450
41421W        W 7830   2.048  17.661  13.311
41422W        W 7831  42.488  15.241   3.315
41423W        W 7832   9.186  26.137   1.353
41424W        W 7833   1.429   5.174   1.320
41425W        W 7834  33.865  37.537  14.239
41426W        W 7835  31.595  38.519  11.904
41427W        W 7836  38.221  39.990  11.097
41428W        W 7837  23.812   8.569   5.496
41429W        W 7838  22.168  33.639   0.830
41430W        W 7839  10.649  35.646  11.115
41431W        W 7840  25.138  13.886  11.541
41432W        W 7841  36.893   3.409  12.705
41433W        W 7842  30.142   9.202  13.888
41434W        W 7843  40.417  12.463   3.558
41435W        W 7844  40.784  10.241   3.716
41436W        W 7845  43.040  28.163   2.175
41437W        W 7846  39.109  32.567  12.366
41438W        W 7847  43.760  11.573  10.680
41439W        W 7848  31.444   9.277   0.696
41440W        W 7849  30.032  44.735  10.760
41441W        W 7850   7.763   5.741   2.776
41442W        W 7851  23.550   0.929   1.222
41443W        W 7852  27.344  39.099   1.414
41444W        W 7853  28.374   5.561   2.628
41445W        W 7854  24.950  31.421   4.601
41446W        W 7855  14.048  29.116   3.217
41447W        W 7856  11.733  22.721   0.820
41448W        W 7857  28.131  27.269  11.971
41449W        W 7858  16.566   4.823   2.168
41450W        W 7859   3.083  33.089  12.610
41451W        W 7860  44.368  31.318   1.435
41452W        W 7861  32.231  25.076   3.378
41453W        W 7862   6.358  19.008  13.072
41454W        W 7863   8.284   3.873   4.164
41455W        W 7864  39.077   2.164   4.832
41456W        W 7865   6.708   6.662  10.873
41457W        W 7866  20.031  18.135  14.547
41458W        W 7867  15.665  31.971   3.196
41459W        W 7868  41.087  40.090  11.336
41460W        W 7869   6.183  34.611   0.394
41461W        W 7870  11.733  12.922  10.961
41462W        W 7871  44.769  15.612  10.222
41463W        W 7872  22.456   6.008   2.220
41464W        W 7873  38.043  27.878  13.810
41465W        W 7874   4.834  23.665   2.031
41466W        W 7875  14.680  24.174   4.108
41467W        W 7876  11.146  25.376  12.905
41468W        W 7877  22.580   2.942  12.554
41469W        W 7878  30.951  36.591   4.782
41470W        W 7879   8.808  23.593  13.539
41471W        W 7880  16.332   3.006   0.847
41472W        W 7881  23.861  39.951   0.314
41473W        W 7882  13.956  25.972   3.659
41474W        W 7883  11.811  40.360  14.462
41475W        W 7884  11.653  18.929  10.406
41476W        W 7885  22.853  21.041  14.227
41477W        W 7886  30.089  37.819   2.816
41478W        W 7887   1.466  28.208  10.718
41479W        W 7888   9.400  25.197   1.129
41480W        W 7889  44.275  40.349   4.146
41481W        W 7890  33.372  32.968  14.614
41482W        W 7891  26.914   7.234   3.072
41483W        W 7892  29.933  20.768   3.237
41484W        W 7893  25.926  40.886   4.503
41485W        W 7894  28.405   0.656  13.241
41486W        W 7895  26.579   9.399   0.673
41487W        W 7896  16.090  33.072  11.582
41488W        W 7897  27.120  42.251  10.676
41489W        W 7898   1.470  13.200   2.213
41490W        W 7899  38.988  42.959   0.387
41491W        W 7900  14.677  26.029  14.810
41492W        W 7901   4.690  10.255   4.371
41493W        W 7902  19.210   9.417   0.840
41494W        W 7903  27.654  27.118  11.973
41495W        W 7904   9.984  29.538  12.416
41496W        W 7905   0.769  18.228  13.369
41497W        W 7906  40.296  30.883  11.513
41498W        W 7907  43.711  41.866  14.469
41499W        W 7908  43.798  15.336  10.573
41500W        W 7909   0.505  13.558   4.794
41501W        W 7910   6.447   9.911  12.439
41502W        W 7911  44.885   9.752  13.997
41503W        W 7912  14.121  27.756   0.807
41504W        W 7913  44.685   1.747  11.264
41505W        W 7914  27.258  21.761   3.363
41506W        W 7915  34.431  35.345  11.187
41507W        W 7916  23.537  14.256  10.712
41508W        W 7917  21.025   3.865  11.382
41509W        W 7918  35.474  20.659  11.596
41510W        W 7919  27.476  11.549   0.411
41511W        W 7920   2.373  25.256   0.478
41512W        W 7921   0.437  20.271   4.610
41513W        W 7922  23.472   2.525   3.268
41514W        W 7923  33.485  33.972   1.383
41515W        W 7924   8.403  30.097  14.897
41516W        W 7925   1.498  36.973   2.469
41517W        W 7926   2.537   8.444   5.125
41518W        W 7927  29.430  12.456  12.604
41519W        W 7928  14.683  33.071   3.114
41520W        W 7929  17.568   4.046  14.950
41521W        W 7930   3.325  11.219   0.045
41522W        W 7931  36.943  32.525   4.083
41523W        W 7932  16.778  43.819  12.615
41524W        W 7933  28.559  23.256  14.401
41525W        W 7934  40.211  40.127   5.004
41526W        W 7935  21.132   8.756   0.855
41527W        W 7936   7.724  34.813  12.099
41528W        W 7937  33.147  17.133   2.238
41529W        W 7938   9.319   7.949  13.524
41530W        W 7939   0.583  30.568  10.359
41531W        W 7940   1.370   3.057   3.131
41532W        W 7941  44.911  20.917  10.707
41533W        W 7942  44.541  29.021   9.912
41534W        W 7943  27.248  39.031  14.251
41535W        W 7944  21.935   8.717  13.047
41536W        W 7945  29.040   2.826   4.502
41537W        W 7946  36.240   1.810   1.642
41538W        W 7947  16.581  28.166  14.897
41539W        W 7948  19.469  14.019  10.723
41540W        W 7949  25.554  34.393  13.988
41541W        W 7950  36.334  18.953   0.791
41542W        W 7951  16.235  16.688   2.881
41543W        W 7952  33.468  35.936  13.519
41544W        W 7953  32.869   6.282   1.976
41545W        W 7954  37.530   7.246   4.006
41546W        W 7955   4.093  12.192   0.785
41547W        W 7956  29.618  10.718  12.312
41548W        W 7957  24.599  12.302  11.063
41549W        W 7958  30.534  25.455   0.180
41550W        W 7959  15.123   8.727  12.032
41551W        W 7960  25.762   7.492  10.261
41552W        W 7961  35.541  11.824  13.915
41553W        W 7962  41.023  35.528   2.269
41554W        W 7963  32.295   6.917   3.309
41555W        W 7964  27.329   9.837  11.460
41556W        W 7965  40.602  35.603   0.824
41557W        W 7966  26.213  13.193   1.777
41558W        W 7967  34.532   7.915  11.968
41559W        W 7968  41.735  29.097   4.632
41560W        W 7969   2.281  29.765   0.167
41561W        W 7970  44.458   3.649   0.704
41562W        W 7971   4.804  23.993  13.298
41563W        W 7972  12.880  11.658  14.321
41564W        W 7973  15.010   1.117   2.271
41565W        W 7974  18.612  14.367   0.632
41566W        W 7975  26.025  28.333  12.072
41567W        W 7976  27.762   3.906   3.464
41568W        W 7977  22.673  43.636   0.924
41569W        W 7978  30.983   0.902  14.518
41570W        W 7979  25.138   6.228   1.481
41571W        W 7980  19.483  44.357  13.779
41572W        W 7981  44.828  39.708   1.691
41573W        W 7982  35.819   0.898  10.718
41574W        W 7983  32.787  42.075   2.456
41575W        W 7984  42.961  12.726   4.304
41576W        W 7985  26.999   1.343   3.980
41577W        W 7986  18.146   5.813   2.699
41578W        W 7987  39.204   5.276  12.031
41579W        W 7988  35.730  22.858  13.599
41580W        W 7989  27.593  43.471   3.988
41581W        W 7990  42.066  26.716   0.493
41582W        W 7991  32.137   2.960   1.824
41583W        W 7992  31.053  16.278   0.832
41584W        W 7993   5.837  27.659  10.412
41585W        W 7994  10.822  32.412  13.007
41586W        W 7995  18.688   5.636  13.909
41587W        W 7996  25.210  36.330   5.101
41588W        W 7997  22.494  37.153  14.418
41589W        W 7998  42.303   2.897  12.213
41590W        W 7999   3.186   5.336  14.794
41591W        W 8000  11.250  18.748  10.697
41592W        W 8001   8.158  34.497  12.047
41593W        W 8002  18.462  41.057  14.328
41594W        W 8003  11.341  21.268   4.666
41595W        W 8004  22.016  35.674  14.836
41596W        W 8005  34.410  20.698   4.803
41597W        W 8006  31.978  19.286  13.491
41598W        W 8007  24.552  10.802   2.156
41599W        W 8008  10.325  20.085   3.707
41600W        W 8009  32.905  13.191  14.012
41601W        W 8010  12.348  19.979   2.759
41602W        W 8011  41.059  39.178  10.985
41603W        W 8012  29.067  12.261   2.710
41604W        W 8013  38.296  36.462  12.058
41605W        W 8014  10.702  30.542   4.807
41606W        W 8015  15.675  25.868   9.774
41607W        W 8016  39.626  29.965  12.033
41608W        W 8017  31.655  23.977  10.771
41609W        W 8018   6.434  23.211   4.075
41610W        W 8019  38.498  35.221   4.107
41611W        W 8020   9.347  12.648   0.645
41612W        W 8021  33.045  29.429   2.972
41613W        W 8022  12.112   4.392   1.812
41614W        W 8023   0.846  41.884   4.377
41615W        W 8024  33.690  17.708  10.793
41616W        W 8025  40.801  17.211   2.434
41617W        W 8026  10.264  41.862   1.231
41618W        W 8027  22.130  28.681   4.020
41619W        W 8028   6.322  27.136  12.020
41620W        W 8029  44.928   3.824   3.851
41621W        W 8030  20.092  26.461  13.617
41622W        W 8031  35.828  42.181  12.586
41623W        W 8032  39.821  44.935  12.389
41624W        W 8033   1.064  23.136  14.473
41625W        W 8034  38.608  19.351  10.674
41626W        W 8035  18.603  28.869  11.135
41627W        W 8036  38.910  42.889  12.507
41628W        W 8037  18.512  19.764  11.996
41629W        W 8038  32.978  42.894   0.352
41630W        W 8039  24.006  26.086  12.887
41631W        W 8040  18.621  13.877  14.766
41632W        W 8041  34.595   6.424   2.205
41633W        W 8042  17.586  14.374   4.370
41634W        W 8043  19.129   3.487   3.417
41635W        W 8044   5.337   0.306   2.198
41636W        W 8045  33.702  27.655   4.081
41637W        W 8046  20.141   6.918   0.099
41638W        W 8047  37.330   1.254  13.315
41639W        W 8048   5.340  40.741   2.171
41640W        W 8049  38.888   4.301   1.227
41641W        W 8050   9.618   4.487  12.925
41642W        W 8051  14.746  19.638  13.353
41643W        W 8052   3.895  32.449   4.439
41644W        W 8053   4.776  34.919  11.651
41645W        W 8054  34.442   9.121  11.375
41646W        W 8055  35.971   2.941  11.050
41647W        W 8056   8.833   8.121   2.879
41648W        W 8057  27.842  15.493  12.837
41649W        W 8058   2.865  29.688   0.991
41650W        W 8059  27.398   6.656   4.083
41651W        W 8060   2.801  44.200   4.876
41652W        W 8061  21.914   0.280  14.465
41653W        W 8062  23.194  41.431   3.975
41654W        W 8063  18.630   4.285  10.789
41655W        W 8064  29.163  10.735  14.042
41656W        W 8065  27.663  28.542  14.025
41657W        W 8066  39.831   4.046   1.421
41658W        W 8067  34.037  43.944  11.133
41659W        W 8068  12.739  35.374   4.501
41660W        W 8069  44.260  13.806  14.738
41661W        W 8070   1.036  32.507  12.172
41662W        W 8071  19.140  37.934  11.839
41663W        W 8072  30.456  44.818   2.703
41664W        W 8073   7.324  17.427  12.640
41665W        W 8074  36.364  26.124   0.206
41666W        W 8075  26.389  38.506  12.010
41667W        W 8076  19.025  10.852   3.761
41668W        W 8077  10.750   8.357   1.228
41669W        W 8078   7.690  15.189  14.445
41670W        W 8079   1.727  17.245   3.157
41671W        W 8080  15.858  23.390  12.576
41672W        W 8081  36.230  22.160   4.012
41673W        W 8082  38.327  44.461  12.158
41674W        W 8083  26.090  16.344  12.336
41675W        W 8084  40.903  24.065  14.974
41676W        W 8085  23.277  12.805   1.336
41677W        W 8086  38.623  30.828   3.003
41678W        W 8087   4.425   7.353   3.276
41679W        W 8088   7.395  20.897  13.338
41680W        W 8089   2.376  42.457   2.702
41681W        W 8090  35.038  16.291  11.657
41682W        W 8091  21.726  35.377   1.457
41683W        W 8092  30.598  15.646   9.872
41684W        W 8093  13.459  25.248   3.279
41685W        W 8094   0.965  28.682   4.384
41686W        W 8095  26.272   1.851  11.127
41687W        W 8096  34.956  26.936   2.627
41688W        W 8097  18.594  15.636   5.309
41689W        W 8098  16.579  19.186   1.319
41690W        W 8099  44.916   8.925  14.146
41691W        W 8100  42.707  38.419  13.432
41692W        W 8101   8.245  34.404  14.392
41693W        W 8102  22.350  36.931   2.398
41694W        W 8103  26.299  24.626   5.410
41695W        W 8104  14.157  15.738   1.393
41696W        W 8105  27.457  18.283  11.121
41697W        W 8106  28.667  18.523  12.941
41698W        W 8107  14.321   4.923   2.914
41699W        W 8108   9.129  12.154  11.628
41700W        W 8109  30.926  29.107  13.049
41701W        W 8110  10.892  29.632  12.818
41702W        W 8111  20.409  36.955  10.538
41703W        W 8112  30.484   4.957  11.152
41704W        W 8113  29.294  22.688   0.028
41705W        W 8114  41.743  44.389   2.988
41706W        W 8115  30.995  20.964  12.374
41707W        W 8116   2.399  21.213   0.977
41708W        W 8117  17.819  23.512  12.545
41709W        W 8118  11.326  39.436   3.630
41710W        W 8119  27.249  22.638   1.179
41711W        W 8120   9.804  19.654   3.135
41712W        W 8121  38.469  12.257  14.204
41713W        W 8122   1.813  16.846  12.204
41714W        W 8123  35.368  20.670   1.110
41715W        W 8124  33.508  31.113  14.842
41716W        W 8125  44.014  26.519  10.468
41717W        W 8126  41.292  27.019  10.636
41718W        W 8127  35.909   1.302  11.552
41719W        W 8128   7.475  42.271   0.683
41720W        W 8129   7.793  41.514  11.204
41721W        W 8130   9.726  35.329  12.888
41722W        W 8131   2.253  17.526   0.192
41723W        W 8132   3.712  37.879  11.466
41724W        W 8133  14.815  33.459  14.384
41725W        W 8134  35.333  20.772   2.295
41726W        W 8135  28.688  20.126  12.790
41727W        W 8136  25.614  17.242   0.689
41728W        W 8137  38.131  20.389  10.727
41729W        W 8138   6.310   0.275  10.661
41730W        W 8139  17.546  29.645   4.666
41731W        W 8140  18.977  25.495  13.216
41732W        W 8141  36.762   2.885  11.649
41733W        W 8142  38.817   3.153  13.885
41734W        W 8143   0.756  34.977   3.295
41735W        W 8144   5.387   8.898  14.385
41736W        W 8145  14.546   8.787   4.652
41737W        W 8146   8.778  33.080   3.102
41738W        W 8147  24.498  29.912  12.513
41739W        W 8148  24.122  31.487   4.303
41740W        W 8149  19.661  16.802   1.807
41741W        W 8150  15.757  20.587  11.555
41742W        W 8151   2.735   4.393   3.647
41743W        W 8152  25.181   2.928  11.571
41744W        W 8153  16.230  12.744   3.728
41745W        W 8154  17.796  25.452   0.491
41746W        W 8155  14.892   8.103  12.004
41747W        W 8156  37.070  27.681   0.841
41748W        W 8157  26.938   0.496  12.351
41749W        W 8158  21.724  30.449   1.512
41750W        W 8159   1.284  24.177   4.200
41751W        W 8160  18.540  21.107  13.088
41752W        W 8161  29.072  34.986  11.963
41753W        W 8162   5.237  25.271   1.972
41754W        W 8163   8.700  22.209  12.142
41755W        W 8164   4.477  35.564  10.626
41756W        W 8165  24.748  42.774  14.834
41757W        W 8166  37.419   7.483   0.802
41758W        W 8167   1.247  35.040   1.769
41759W        W 8168  14.928  32.142   0.272
41760W        W 8169  31.902   8.067  13.396
41761W        W 8170   8.835  35.693   1.613
41762W        W 8171  32.976   5.326   4.129
41763W        W 8172  21.327  15.034  11.072
41764W        W 8173  17.822  10.663   4.461
41765W        W 8174  24.873  28.673  12.348
41766W        W 8175  25.186  30.582   4.909
41767W        W 8176  22.499  44.821   0.189
41768W        W 8177  31.917  26.873  13.630
41769W        W 8178   2.059   3.381   0.460
41770W        W 8179  27.928  31.991   1.051
41771W        W 8180  35.811  29.474   2.856
41772W        W 8181  28.177  13.066   1.008
41773W        W 8182  22.258  18.718   1.958
41774W        W 8183  37.840  33.890  13.426
41775W        W 8184  24.973  21.087  12.587
41776W        W 8185   3.047  10.758  11.662
41777W        W 8186   7.790  37.009  11.464
41778W        W 8187  25.310  40.068   2.372
41779W        W 8188   1.521  40.751  13.881
41780W        W 8189  21.971  44.621  11.176
41781W        W 8190  18.026  27.436   1.861
41782W        W 8191   2.803  42.505   3.163
41783W        W 8192  43.764   5.083   4.065
41784W        W 8193  20.287  38.082  11.088
41785W        W 8194   0.684  18.221   0.909
41786W        W 8195   8.830   7.574  11.117
41787W        W 8196  29.847  42.931  13.200
41788W        W 8197  14.813  33.678  12.586
41789W        W 8198   7.670  44.857   3.622
41790W        W 8199  33.673  15.828   1.404
41791W        W 8200  25.288  37.731   2.757
41792W        W 8201  31.633  16.271   1.731
41793W        W 8202  37.301  44.642  12.367
41794W        W 8203   6.788  18.320   1.956
41795W        W 8204  21.710  14.826  11.371
41796W        W 8205  32.745  26.639  11.648
41797W        W 8206  22.472  39.905   4.916
41798W        W 8207  34.308  26.212   1.776
41799W        W 8208  16.157  15.328   3.190
41800W        W 8209  11.923   0.642  12.408
41801W        W 8210  42.205  38.136   1.278
41802W        W 8211  38.687  21.041   3.743
41803W        W 8212   1.720  17.554   0.856
41804W        W 8213  39.992   3.972  12.839
41805W        W 8214  28.453  14.619   1.858
41806W        W 8215  29.350  26.417  14.760
41807W        W 8216   4.438  41.005  14.589
41808W        W 8217   7.035  12.308  12.016
41809W        W 8218  24.582   2.245   0.310
41810W        W 8219  27.443  17.741  11.985
41811W        W 8220   6.912   6.190   4.562
41812W        W 8221  12.952  39.972   4.643
41813W        W 8222  17.819  10.837  13.864
41814W        W 8223  44.909  43.515  10.478
41815W        W 8224  36.487  32.918  14.764
41816W        W 8225  19.436  28.902   4.526
41817W        W 8226  29.541  16.577  10.964
41818W        W 8227  44.029  14.842  11.979
41819W        W 8228   4.896   5.697  14.029
41820W        W 8229  33.718  13.757  12.588
41821W        W 8230  25.028  15.440   4.709
41822W        W 8231  15.841  16.702   3.838
41823W        W 8232   1.749   2.249   3.098
41824W        W 8233   0.807  33.892  14.437
41825W        W 8234  21.115  37.953  14.411
41826W        W 8235  44.283  27.089  12.835
41827W        W 8236   1.989  38.027  14.311
41828W        W 8237  26.991  21.583   1.821
41829W        W 8238  28.994  40.791   0.401
41830W        W 8239  40.980  23.952  10.893
41831W        W 8240  29.440  24.118  11.808
41832W        W 8241   6.281  26.619  10.339
41833W        W 8242   1.411  41.821   1.777
41834W        W 8243  41.123  19.147   2.569
41835W        W 8244  26.257   5.149   0.703
41836W        W 8245   3.437  31.026   3.553
41837W        W 8246  17.238   0.756  14.325
41838W        W 8247   5.333  34.138  14.317
41839W        W 8248   7.811  35.326  12.180
41840W        W 8249  32.654   8.602  12.917
41841W        W 8250  15.142  26.962   3.769
41842W        W 8251   2.860  16.340  10.470
41843W        W 8252   6.576  41.945   3.404
41844W        W 8253  10.700  17.552   3.177
41845W        W 8254  36.227  14.879   2.804
41846W        W 8255  22.455  21.089  10.514
41847W        W 8256  18.118   2.944   0.360
41848W        W 8257  19.023  12.871  13.086
41849W        W 8258  44.784   2.241  14.736
41850W        W 8259  24.121  31.448  14.410
41851W        W 8260  28.408  39.611   0.819
41852W        W 8261  26.227  39.268   3.270
41853W        W 8262  40.858  42.081   1.531
41854W        W 8263  22.588  21.124  11.887
41855W        W 8264  32.898   4.059  14.042
41856W        W 8265  36.942  18.135  13.056
41857W        W 8266  19.309  34.954   2.888
41858W        W 8267   4.361  41.074  14.103
41859W        W 8268  30.353   9.176   1.967
41860W        W 8269   3.474  13.152   3.693
41861W        W 8270  42.277   1.650  11.276
41862W        W 8271   5.327  28.966   4.136
41863W        W 8272   9.128  43.905   0.980
41864W        W 8273  12.573   1.262  11.191
41865W        W 8274  23.155  29.852   2.371
41866W        W 8275  26.744  22.786  12.950
41867W        W 8276  21.057  36.881   1.901
41868W        W 8277  43.575   9.669  14.881
41869W        W 8278  36.331   1.030   2.374
41870W        W 8279  39.382  40.967   2.922
41871W        W 8280  22.527  40.943  14.317
41872W        W 8281  18.667  37.094  11.223
41873W        W 8282  42.494  32.588  14.059
41874W        W 8283  36.065  29.179  12.968
41875W        W 8284  18.649  26.080  12.440
41876W        W 8285  43.404   2.437  12.858
41877W        W 8286  27.843   2.332  12.491
41878W        W 8287  18.266  19.077  12.024
41879W        W 8288   1.155   5.661   2.173
41880W        W 8289  26.457  26.386  10.229
41881W        W 8290  31.982   0.370   2.416
41882W        W 8291   2.515  34.645   0.474
41883W        W 8292  34.607   9.751  13.146
41884W        W 8293  15.781  19.727  13.468
41885W        W 8294  24.131  27.069  14.326
41886W        W 8295  10.607   7.632  13.082
41887W        W 8296  42.595   5.715   3.682
41888W        W 8297   3.641  30.612   2.216
41889W        W 8298  38.889  43.001   2.296
41890W        W 8299   3.379  26.141  12.901
41891W        W 8300  30.204  41.858   4.893
41892W        W 8301   9.849   3.306   0.451
41893W        W 8302  31.140  21.184   0.378
41894W        W 8303  21.975  11.852  11.574
41895W        W 8304   7.945  37.986   1.213
41896W        W 8305  21.622   0.049  13.488
41897W        W 8306  27.430  31.654  14.306
41898W        W 8307  34.530  16.911   1.209
41899W        W 8308   4.358   2.223   2.735
41900W        W 8309  43.925  19.829   0.313
41901W        W 8310  19.745   3.117  14.686
41902W        W 8311  22.336  25.146   0.240
41903W        W 8312  41.657  30.284   2.375
41904W        W 8313  21.222  42.109   1.273
41905W        W 8314  14.864  37.392  14.722
41906W        W 8315  39.979  40.426  13.730
41907W        W 8316  34.094  20.907  13.837
41908W        W 8317   2.821   8.530  12.523
41909W        W 8318  28.393  25.172  12.548
41910W        W 8319  22.017  43.055   3.693
41911W        W 8320  17.214   1.401   3.451
41912W        W 8321   4.878  11.947  13.282
41913W        W 8322  28.199  21.593   5.039
41914W        W 8323   8.307  44.106  14.328
41915W        W 8324   3.789  26.976  12.206
41916W        W 8325  14.520  36.095  14.870
41917W        W 8326  30.282   7.780   0.082
41918W        W 8327  38.972   3.934  12.957
41919W        W 8328  26.445  10.906  14.178
41920W        W 8329  41.457  10.231  10.524
41921W        W 8330  36.946  21.269   1.022
41922W        W 8331   7.706  17.477   1.484
41923W        W 8332  39.387  18.156  14.281
41924W        W 8333  39.533  13.798   3.239
41925W        W 8334  31.425  24.055  14.036
41926W        W 8335  24.386  31.389   0.790
41927W        W 8336  12.606  13.331  14.749
41928W        W 8337  17.406  24.684  10.557
41929W        W 8338  27.097  21.276   1.373
41930W        W 8339  15.700   0.761   4.092
41931W        W 8340  32.899  14.744  10.858
41932W        W 8341  27.444  32.056   0.912
41933W        W 8342  27.936  36.996   2.193
41934W        W 8343  12.365  30.764  11.558
41935W        W 8344  43.072  31.064  13.523
41936W        W 8345  13.180  37.818  13.532
41937W        W 8346  35.458   0.804   1.413
41938W        W 8347  28.634   5.385  13.904
41939W        W 8348  38.456  24.558   2.804
41940W        W 8349  26.576   9.646  12.833
41941W        W 8350   0.247   2.878   3.694
41942W        W 8351  35.000  43.869  14.412
41943W        W 8352  10.800  42.298  11.587
41944W        W 8353  11.294  44.433   9.848
41945W        W 8354  20.522  17.255  14.939
41946W        W 8355   7.250  38.666  11.913
41947W        W 8356  18.190   9.240  12.496
41948W        W 8357  26.030  15.668   0.504
41949W        W 8358   2.459  21.147  11.544
41950W        W 8359   8.937   1.736   0.334
41951W        W 8360   7.268  28.804  14.498
41952W        W 8361  44.955   6.795  14.791
41953W        W 8362  14.225  44.823   0.280
41954W        W 8363  17.360   7.733   0.548
41955W        W 8364  26.936  28.596  12.931
41956W        W 8365  36.651  42.751   3.769
41957W        W 8366  19.197  18.567  12.530
41958W        W 8367  16.322  23.173   2.109
41959W        W 8368   8.353  14.827  12.122
41960W        W 8369   3.260  13.718   2.492
41961W        W 8370  28.585  34.199   1.400
41962W        W 8371  20.159  31.262  12.231
41963W        W 8372  12.244  32.582   2.530
41964W        W 8373  35.857  44.887  10.724
41965W        W 8374  27.724  13.150  14.723
41966W        W 8375  35.354  32.674  10.558
41967W        W 8376  27.494  25.123  12.864
41968W        W 8377  26.991  10.722   2.117
41969W        W 8378  26.814  31.457   5.158
41970W        W 8379  28.445  30.970   3.557
41971W        W 8380  16.769  22.565   0.369
41972W        W 8381   0.136  16.573  11.247
41973W        W 8382  39.852  30.455  12.220
41974W        W 8383  40.395  35.385  14.970
41975W        W 8384  36.680  32.156   0.806
41976W        W 8385  16.610   1.449   2.670
41977W        W 8386  17.170  33.621  12.993
41978W        W 8387   1.388  39.999   1.151
41979W        W 8388  25.960  42.725   0.432
41980W        W 8389  16.746  13.330   0.716
41981W        W 8390   5.776  17.748  13.131
41982W        W 8391  17.163  27.076   4.108
41983W        W 8392  40.551  12.759   1.796
41984W        W 8393  10.138  14.723  13.405
41985W        W 8394  39.620   0.085   2.772
41986W        W 8395  11.041  16.956  12.083
41987W        W 8396  41.501  11.807   3.335
41988W        W 8397  29.178  28.910   4.464
41989W        W 8398  16.480  29.029   4.123
41990W        W 8399  21.625   3.648  13.042
41991W        W 8400  11.913  25.478  10.793
41992W        W 8401  17.805  13.187   2.268
41993W        W 8402   9.330   4.599  13.374
41994W        W 8403  10.373  21.035   1.004
41995W        W 8404  43.999  17.206   4.269
41996W        W 8405  44.511   8.136   3.689
41997W        W 8406  30.470   8.594   2.515
41998W        W 8407  32.876  41.547  14.812
41999W        W 8408   2.934  16.193   4.086
42000W        W 8409  36.808  39.748  13.391
42001W        W 8410  29.220  16.558  14.896
42002W        W 8411  38.874   1.188   3.180
42003W        W 8412  25.469  11.704  14.874
42004W        W 8413  10.361  42.980   3.533
42005W        W 8414   0.993  22.246   2.387
42006W        W 8415  38.617  32.519  12.481
42007W        W 8416  35.055  40.490  13.509
42008W        W 8417  16.186  31.441   2.479
42009W        W 8418  21.497  25.182   4.218
42010W        W 8419  36.125   1.880  13.324
42011W        W 8420  22.756  29.956   1.786
42012W        W 8421  24.143  32.336  10.266
42013W        W 8422  29.030   9.365  12.023
42014W        W 8423  31.786  37.346  13.915
42015W        W 8424  41.403  42.044  14.813
42016W        W 8425  32.170   8.597   3.757
42017W        W 8426  35.507  36.908   0.510
42018W        W 8427  18.817  24.535  14.710
42019W        W 8428  26.547  30.485  11.942
42020W        W 8429  14.565  20.021  10.658
42021W        W 8430   6.928  32.539   0.283
42022W        W 8431  28.992  24.396   4.711
42023W        W 8432  36.394  33.580   4.514
42024W        W 8433  11.923  28.169  11.734
42025W        W 8434   7.996  21.729   4.319
42026W        W 8435  36.036  12.672   3.250
42027W        W 8436  34.906  14.088  12.958
42028W        W 8437  24.426  22.594   0.800
42029W        W 8438  27.807  16.168  11.705
42030W        W 8439  15.037  29.412   9.921
42031W        W 8440   4.841  27.220   1.534
42032W        W 8441  16.852  26.648   5.077
42033W        W 8442  26.315   9.786   2.680
42034W        W 8443  33.547  44.793   4.922
42035W        W 8444  43.194  40.376   0.710
42036W        W 8445  38.787  29.439  12.033
42037W        W 8446   7.198  28.494  14.028
42038W        W 8447  17.986  39.007  11.491
42039W        W 8448  23.493   9.154   0.481
42040W        W 8449  11.876  38.597  10.225
42041W        W 8450   9.848  32.502  13.511
42042W        W 8451  40.739  22.070  12.873
42043W        W 8452  24.909  24.664  13.569
42044W        W 8453  25.324  13.120  11.948
42045W        W 8454  35.531  29.812  10.730
42046W        W 8455  17.036  35.610  12.778
42047W        W 8456  21.724  42.795  13.552
42048W        W 8457  19.976   4.259   0.796
42049W        W 8458  27.604   2.630  12.843
42050W        W 8459  19.605  36.254   0.034
42051W        W 8460  23.726  18.012  12.794
42052W        W 8461  42.751  10.791  11.524
42053W        W 8462  33.946  14.511  11.278
42054W        W 8463  25.606  17.878   1.910
42055W        W 8464  32.288  44.358   5.031
42056W        W 8465  31.679  19.154  13.990
42057W        W 8466  21.791  40.766  10.595
42058W        W 8467  15.760  11.897  11.615
42059W        W 8468  44.175   8.363  13.199
42060W        W 8469  23.254  42.968   1.229
42061W        W 8470  37.880  25.595   3.341
42062W        W 8471  23.084   2.689  10.349
42063W        W 8472  24.703  16.602  14.943
42064W        W 8473  26.914  16.386   1.882
42065W        W 8474  31.464  21.322  13.480
42066W        W 8475  23.496  20.823   2.343
42067W        W 8476  21.178  16.738   1.107
42068W        W 8477  42.740  10.890  10.068
42069W        W 8478  19.759   7.356  12.979
42070W        W 8479   1.044  10.605   0.308
42071W        W 8480  29.179  26.224  13.010
42072W        W 8481  28.518  14.631   3.725
42073W        W 8482  33.442  10.752  11.529
42074W        W 8483   3.260   9.680  10.538
42075W        W 8484  29.879  36.368   1.722
42076W        W 8485  25.674  38.326  11.155
42077W        W 8486   9.321  43.358  10.735
42078W        W 8487  33.332  38.897   4.158
42079W        W 8488   5.651  42.344  14.396
42080W        W 8489  38.883  14.905   3.556
42081W        W 8490  30.044   6.673  11.071
42082W        W 8491  12.685  12.101   2.909
42083W        W 8492  36.637  17.514  14.245
42084W        W 8493  41.008  29.707  11.700
42085W        W 8494  39.062  10.083   0.301
42086W        W 8495  16.818  23.010  11.515
42087W        W 8496  43.761  10.352  12.191
42088W        W 8497  14.238  23.541  12.232
42089W        W 8498  10.505  19.667  14.264
42090W        W 8499  23.178  24.411   3.976
42091W        W 8500  20.837  32.337  13.297
42092W        W 8501  17.630  37.415   4.147
42093W        W 8502  30.100   1.292   1.723
42094W        W 8503  31.905   0.286  10.710
42095W        W 8504  22.379   7.304  13.889
42096W        W 8505  36.945  39.903  12.452
42097W        W 8506  23.157  42.293  13.716
42098W        W 8507  21.219   4.975  13.010
42099W        W 8508  30.014  23.540   2.805
42100W        W 8509  43.271  35.021   2.648
42101W        W 8510  42.770  44.945   3.648
42102W        W 8511  11.783  36.122   0.808
42103W        W 8512  41.684  13.784  12.927
42104W        W 8513  20.347  33.997   1.275
42105W        W 8514  14.765  26.513   0.032
42106W        W 8515   6.766  33.853  10.563
42107W        W 8516  12.637  23.216  11.370
42108W        W 8517   3.130  39.006  11.074
42109W        W 8518  39.821  17.150  14.766
42110W        W 8519   2.879  30.589   3.803
42111W        W 8520  29.482  25.250  12.874
42112W        W 8521  37.326  11.622  11.630
42113W        W 8522  40.946  17.237  13.449
42114W        W 8523  26.392  41.937   0.791
42115W        W 8524  26.579  39.356   3.695
42116W        W 8525  44.695  23.722   2.724
42117W        W 8526  10.750  12.855  11.196
42118W        W 8527  10.649  37.245   9.843
42119W        W 8528  27.425  44.821   3.269
42120W        W 8529  26.847   6.283   5.028
42121W        W 8530  42.202  14.184   0.299
42122W        W 8531   2.814  32.723  11.654
42123W        W 8532   6.910  12.072  13.383
42124W        W 8533  20.152  29.138  13.937
42125W        W 8534   8.783   4.645  11.078
42126W        W 8535  38.300  34.127  13.381
42127W        W 8536  15.844  35.047   0.277
42128W        W 8537  43.835   2.213  13.101
42129W        W 8538  37.361  22.986   3.716
42130W        W 8539  43.236   2.768   2.908
42131W        W 8540  29.140  39.920  11.584
42132W        W 8541   7.210   4.069  12.535
42133W        W 8542   1.842  44.554  12.538
42134W        W 8543  23.223  17.625   1.671
42135W        W 8544  35.783  37.979   1.452
42136W        W 8545  36.619  13.309  13.956
42137W        W 8546  42.002  37.853   0.858
42138W        W 8547  37.447  25.300  13.967
42139W        W 8548  43.720  40.390  11.189
42140W        W 8549  30.667   0.047   0.741
42141W        W 8550  23.962  40.372   2.135
42142W        W 8551   2.245  22.652  13.689
42143W        W 8552  12.641  13.679   2.488
42144W        W 8553   8.926  28.446   1.610
42145W        W 8554  12.107  19.634  14.891
42146W        W 8555  15.666  18.306   1.417
42147W        W 8556   2.766  24.122   4.283
42148W        W 8557   6.977  41.827  12.509
42149W        W 8558  26.998  15.240   4.095
42150W        W 8559  15.153   6.115   4.066
42151W        W 8560  35.035   2.538  12.690
42152W        W 8561  32.522   3.361  14.699
42153W        W 8562  34.612  32.362   2.811
42154W        W 8563  37.039  38.553  12.025
42155W        W 8564  43.961  34.829   2.452
42156W        W 8565  39.037  20.701   0.705
42157W        W 8566  31.162  28.813   1.108
42158W        W 8567  19.581   2.549  12.786
42159W        W 8568   2.713  21.112  12.017
42160W        W 8569  39.855  27.590  14.840
42161W        W 8570  27.402  31.896   3.200
42162W        W 8571   3.909  37.858   0.187
42163W        W 8572  26.163  14.474   4.732
42164W        W 8573  31.877  42.111  12.916
42165W        W 8574  36.535  39.807  13.861
42166W        W 8575   4.812  40.281   3.734
42167W        W 8576  44.888  22.607  11.402
42168W        W 8577   4.247   2.217  14.778
42169W        W 8578  35.551  32.346  12.143
42170W        W 8579  34.527  22.734   1.485
42171W        W 8580  24.741  35.805   1.511
42172W        W 8581  32.669  17.717  10.761
42173W        W 8582  15.074  12.290   3.342
42174W        W 8583  44.903   4.207   0.896
42175W        W 8584  28.388  41.047   2.229
42176W        W 8585  23.783  14.863  13.332
42177W        W 8586  13.079   7.116   2.466
42178W        W 8587   4.698  19.105   2.768
42179W        W 8588  10.926  19.491  14.530
42180W        W 8589  41.472  32.354   2.872
42181W        W 8590   8.304  18.798   4.578
42182W        W 8591  19.005  21.703   3.077
42183W        W 8592  38.293  28.893   4.264
42184W        W 8593  44.794   3.872  14.301
42185W        W 8594  35.031  30.264  10.702
42186W        W 8595  31.908  16.484  12.563
42187W        W 8596  17.585   0.748  12.101
42188W        W 8597  29.476  11.714   4.800
42189W        W 8598  28.796  38.112   4.852
42190W        W 8599  29.494  18.264   1.791
42191W        W 8600  11.525   7.631  14.371
42192W        W 8601  25.243  42.810   4.174
42193W        W 8602  16.830  33.613  11.103
42194W        W 8603  23.944  38.080  13.076
42195W        W 8604  40.454  28.420  11.766
42196W        W 8605  18.628  29.992  10.708
42197W        W 8606  19.576  17.413   4.174
42198W        W 8607  10.439  19.702   1.329
42199W        W 8608   5.389  39.947   2.599
42200W        W 8609  29.639  30.476   4.592
42201W        W 8610  35.382  28.240  11.187
42202W        W 8611  35.978   3.912   1.619
42203W        W 8612  37.880   9.243   0.345
42204W        W 8613  44.749   8.820   2.674
42205W        W 8614  40.140   7.008  11.459
42206W        W 8615   2.343   4.906   1.500
42207W        W 8616  15.746   1.449   4.751
42208W        W 8617  14.604  25.933  13.001
42209W        W 8618  28.701  13.062   0.906
42210W        W 8619  16.708  11.367   4.737
42211W        W 8620  20.126  25.193   1.168
42212W        W 8621   1.859  37.360   3.246
42213W        W 8622   4.392   2.355  12.315
42214W        W 8623   2.535  16.935   5.054
42215W        W 8624   1.451   3.024  14.862
42216W        W 8625  36.925  14.607   0.719
42217W        W 8626   2.416   2.703   1.178
42218W        W 8627  37.187   7.953   3.975
42219W        W 8628  16.747  43.307  14.416
42220W        W 8629   0.809  43.185   3.730
42221W        W 8630  44.285   1.724   4.665
42222W        W 8631  18.204  40.296  11.110
42223W        W 8632  40.980  22.798   0.330
42224W        W 8633  18.290   5.743   3.656
42225W        W 8634  29.184   8.909   1.357
42226W        W 8635  24.488  15.080  14.287
42227W        W 8636  33.903  31.467   0.388
42228W        W 8637  12.253  25.964   1.879
42229W        W 8638   3.901  13.270  14.381
42230W        W 8639  11.132  11.912  12.474
42231W        W 8640  29.040  40.517   1.250
42232W        W 8641  37.245   7.715   2.453
42233W        W 8642   4.216  17.130   0.271
42234W        W 8643  21.116  35.940   4.436
42235W        W 8644  17.049  20.477  12.030
42236W        W 8645  37.879  40.981   0.852
42237W        W 8646   9.187  35.566  14.078
42238W        W 8647  38.550   3.027   3.210
42239W        W 8648   5.831  16.236  14.245
42240W        W 8649  12.428  25.256  11.535
42241W        W 8650  42.462  43.922  13.133
42242W        W 8651  28.425   8.402  14.852
42243W        W 8652  41.717   2.797  14.400
42244W        W 8653  10.257  43.796  14.077
42245W        W 8654  18.561  34.192   1.576
42246W        W 8655  15.835  21.649   3.108
42247W        W 8656  33.559  13.876  14.903
42248W        W 8657  27.793  33.480   4.624
42249W        W 8658  14.917  22.717   3.228
42250W        W 8659  37.428   8.274   1.480
42251W        W 8660  11.148   9.601  14.447
42252W        W 8661  31.571  27.608  14.254
42253W        W 8662  10.811   4.243   1.408
42254W        W 8663  36.375  29.085   3.387
42255W        W 8664  19.941  43.080  12.592
42256W        W 8665  31.920  41.937   0.482
42257W        W 8666  18.883  36.315   4.741
42258W        W 8667  43.124  42.752  14.427
42259W        W 8668   4.387  38.916  11.918
42260W        W 8669  16.197  19.150  14.033
42261W        W 8670  10.564  38.641  14.030
42262W        W 8671  41.938  30.127  11.166
42263W        W 8672   2.868  25.415   0.468
42264W        W 8673   7.574  40.776  14.842
42265W        W 8674  42.275  44.434  14.798
42266W        W 8675  30.102   3.360  12.866
42267W        W 8676  19.284  39.040  14.901
42268W        W 8677  31.844  16.689   3.780
42269W        W 8678  24.946   1.538   3.205
42270W        W 8679   7.577  17.983  11.088
42271W        W 8680  25.590  29.563   1.794
42272W        W 8681  16.716  41.280   3.361
42273W        W 8682   3.600   3.951   2.672
42274W        W 8683  17.742  16.427  14.509
42275W        W 8684  29.765   2.774  11.128
42276W        W 8685  10.327   7.887  10.632
42277W        W 8686  21.972  12.706   1.675
42278W        W 8687  23.928  16.291  12.965
42279W        W 8688   4.903  32.281   4.615
42280W        W 8689   1.420  19.292  13.017
42281W        W 8690   9.869  36.964   3.164
42282W        W 8691   2.226  40.493  11.639
42283W        W 8692   0.303   5.173  12.564
42284W        W 8693  25.968  41.544   0.548
42285W        W 8694  31.481   6.722   4.960
42286W        W 8695  16.740  12.100  10.758
42287W        W 8696   1.889   8.649  10.837
42288W        W 8697  25.268   5.616   3.154
42289W        W 8698  22.848  31.358   0.040
42290W        W 8699  38.877  10.419  10.801
42291W        W 8700  26.231  29.402   0.486
42292W        W 8701  35.120  42.324  10.731
42293W        W 8702  39.954  32.484   3.864
42294W        W 8703   4.488   9.929   0.336
42295W        W 8704  10.163  25.708  13.090
42296W        W 8705  22.743  39.784  10.670
42297W        W 8706  39.007  43.287  14.210
42298W        W 8707  10.948   5.665  12.279
42299W        W 8708   5.318  16.313   0.992
42300W        W 8709  32.210  13.263   1.057
42301W        W 8710  12.946   4.829   4.598
42302W        W 8711  22.517  11.061   4.446
42303W        W 8712  10.783   7.921   1.880
42304W        W 8713  10.673  39.855   0.739
42305W        W 8714  36.990   3.625   1.789
42306W        W 8715  14.728  11.229   4.035
42307W        W 8716  11.049  19.386   2.807
42308W        W 8717  21.178  27.722  12.057
42309W        W 8718  42.901  38.885  13.670
42310W        W 8719  30.037  10.560   4.293
42311W        W 8720  35.649  35.919  13.430
42312W        W 8721   9.427   6.941   2.549
42313W        W 8722  36.471  22.787   1.307
42314W        W 8723   8.524  38.599   0.018
42315W        W 8724  36.581  37.080   3.400
42316W        W 8725  43.462  26.068  10.498
42317W        W 8726   0.496  39.529  14.270
42318W        W 8727  12.033  40.040  11.540
42319W        W 8728  19.136  34.329  10.735
42320W        W 8729   7.343  33.302   5.328
42321W        W 8730  39.906  25.178   3.619
42322W        W 8731  26.640  14.379   4.532
42323W        W 8732   5.413  38.187  14.241
42324W        W 8733  13.125  15.750  11.884
42325W        W 8734  27.856  18.673   2.132
42326W        W 8735  30.107  17.760  13.411
42327W        W 8736   2.116   1.386  11.240
42328W        W 8737  30.543   7.613   3.682
42329W        W 8738  33.046  24.712   0.354
42330W        W 8739   0.907  36.027   3.805
42331W        W 8740  14.993   1.826  14.139
42332W        W 8741  17.697  20.990  12.546
42333W        W 8742  10.326  30.637   3.548
42334W        W 8743  12.662   6.839   1.926
42335W        W 8744  18.219  35.089   4.572
42336W        W 8745  24.094  30.003   4.549
42337W        W 8746  24.954  25.704  10.097
42338W        W 8747  25.809  36.469   2.871
42339W        W 8748   3.667  31.515   3.733
42340W        W 8749  26.108  32.330   4.262
42341W        W 8750  33.453  21.769  13.971
42342W        W 8751  39.500  24.664   4.795
42343W        W 8752   8.232   4.536   1.368
42344W        W 8753   0.579  22.593  11.511
42345W        W 8754  37.736   8.679   1.295
42346W        W 8755  43.380  16.851  10.355
42347W        W 8756  43.929   5.707  10.846
42348W        W 8757  21.862  11.684   4.635
42349W        W 8758  36.927  44.445  13.353
42350W        W 8759  10.877  14.863   0.816
42351W        W 8760  19.216  11.340   3.699
42352W        W 8761  18.080  24.215   0.216
42353W        W 8762  38.968  34.081   3.239
42354W        W 8763  27.700  16.336   3.676
42355W        W 8764  25.014  44.228   1.314
42356W        W 8765   8.183  35.871  13.434
42357W        W 8766  28.169  17.548  13.454
42358W        W 8767  16.781   2.489   1.420
42359W        W 8768   5.213  40.017   1.710
42360W        W 8769   8.777   0.228   0.356
42361W        W 8770  15.091  21.030   0.727
42362W        W 8771  41.048   9.570  14.360
42363W        W 8772  19.303   2.895   0.898
42364W        W 8773  17.198  10.293   1.203
42365W        W 8774   8.806  12.554   3.252
42366W        W 8775   5.383  42.382  11.463
42367W        W 8776   9.453  30.508   3.657
42368W        W 8777  36.656  34.431  13.015
42369W        W 8778   8.643  21.561   2.827
42370W        W 8779  16.643  38.279   3.055
42371W        W 8780  26.765   0.929   4.960
42372W        W 8781   9.359  21.187  13.044
42373W        W 8782   9.275  13.224  11.902
42374W        W 8783   2.864   8.923   4.679
42375W        W 8784  15.570  30.693   2.825
42376W        W 8785   1.466   5.795  14.228
42377W        W 8786   8.177  33.319   1.849
42378W        W 8787  36.405  18.886  13.987
42379W        W 8788  35.517  25.628  12.627
42380W        W 8789   4.315   5.452  12.033
42381W        W 8790  30.957  29.920   1.770
42382W        W 8791   8.379  22.156  14.761
42383W        W 8792  27.924   7.882   0.549
42384W        W 8793  37.328  15.551  10.557
42385W        W 8794  24.636  23.662  12.886
42386W        W 8795  14.726  13.697   0.673
42387W        W 8796   3.642  11.161   3.273
42388W        W 8797  22.332  22.663   3.097
42389W        W 8798  25.767  25.603   2.348
42390W        W 8799   1.780  35.257   1.357
42391W        W 8800  31.094  34.944  14.200
42392W        W 8801  37.600  13.314   2.672
42393W        W 8802  37.045   1.222  14.029
42394W        W 8803  20.442   1.961   3.340
42395W        W 8804   4.689   8.873   1.790
42396W        W 8805  40.521  19.013  13.707
42397W        W 8806   4.013  13.171   0.800
42398W        W 8807  37.419  20.066   0.007
42399W        W 8808  11.723  34.530  12.937
42400W        W 8809  26.906   9.203   4.031
42401W        W 8810  21.012  30.058   2.264
42402W        W 8811  43.362  25.208  13.984
42403W        W 8812  20.668  26.600  11.875
42404W        W 8813  39.585  44.446  14.369
42405W        W 8814  37.679  16.849   1.702
42406W        W 8815   6.705  37.066  14.322
42407W        W 8816  27.377  13.819  13.576
42408W        W 8817  29.687  23.935  14.410
42409W        W 8818   1.308   9.941  10.965
42410W        W 8819   6.146   4.260  14.577
42411W        W 8820  10.040  41.250   3.140
42412W        W 8821  40.495   5.709  11.098
42413W        W 8822  10.745   2.434  13.766
42414W        W 8823   7.675  13.709  12.153
42415W        W 8824  22.065  34.976   2.368
42416W        W 8825  15.901  16.116   4.156
42417W        W 8826  32.251  44.055  10.376
42418W        W 8827  29.537   9.511   3.881
42419W        W 8828  40.596  33.999  12.915
42420W        W 8829  25.046  11.087   0.341
42421W        W 8830   6.181  40.444  14.272
42422W        W 8831   3.408  24.216  10.591
42423W        W 8832  16.446  11.763   1.792
42424W        W 8833  11.329  31.872   4.543
42425W        W 8834  39.570  28.061   2.450
42426W        W 8835  18.232  39.753  13.341
42427W        W 8836  44.029   3.735   4.002
42428W        W 8837  34.924  11.123   1.809
42429W        W 8838   1.884  16.137   1.356
42430W        W 8839  22.970  37.502  12.123
42431W        W 8840  10.339  24.488   1.563
42432W        W 8841  19.141  12.869   2.139
42433W        W 8842  12.635  23.503  13.071
42434W        W 8843  28.690  39.299   2.182
42435W        W 8844  14.693  24.409   0.748
42436W        W 8845  15.876  12.427  12.399
42437W        W 8846   0.246   8.726  11.144
42438W        W 8847  14.077   1.081  11.097
42439W        W 8848  18.487   4.457  13.424
42440W        W 8849  28.421   2.483   3.590
42441W        W 8850   0.337  38.014   3.784
42442W        W 8851  19.069  30.214  11.106
42443W        W 8852  33.843  28.155   4.140
42444W        W 8853  38.240  27.212   4.324
42445W        W 8854  38.894  33.195   2.371
42446W        W 8855  15.708  37.433   3.662
42447W        W 8856   1.657   2.704   3.385
42448W        W 8857  33.439  21.003  12.472
42449W        W 8858  24.659  33.386   2.882
42450W        W 8859   1.969  26.427  14.276
42451W        W 8860  42.415  42.530   1.235
42452W        W 8861   4.810   3.387   1.045
42453W        W 8862  16.818   8.666   2.717
42454W        W 8863   0.708  28.062   2.124
42455W        W 8864   4.378  26.311   0.891
42456W        W 8865  24.623  15.216   4.181
42457W        W 8866  36.988   2.565   1.831
42458W        W 8867  15.763   6.452   2.080
42459W        W 8868  33.142  20.046  10.698
42460W        W 8869  27.595  18.685  14.002
42461W        W 8870  15.120  24.649   0.919
42462W        W 8871  31.362  25.145   0.536
42463W        W 8872   5.256  24.056  13.022
42464W        W 8873  17.341  17.306  12.028
42465W        W 8874  13.197  21.918  14.378
42466W        W 8875  42.445  11.837  14.387
42467W        W 8876  27.813  19.561   4.163
42468W        W 8877  29.698  26.186  13.032
42469W        W 8878  20.827  44.333  13.445
42470W        W 8879  27.952  34.281   0.743
42471W        W 8880   3.722  40.192   0.728
42472W        W 8881   5.736   1.718  13.512
42473W        W 8882  35.183  42.883   1.791
42474W        W 8883   5.353  11.729   4.422
42475W        W 8884  35.857  16.273  14.870
42476W        W 8885   7.892  20.457   0.476
42477W        W 8886  42.549  37.100   5.075
42478W        W 8887  29.373  18.957  12.415
42479W        W 8888  11.320   5.469  11.943
42480W        W 8889  10.876  32.077  12.014
42481W        W 8890  25.652  22.134  13.046
42482W        W 8891  14.119   0.713  11.448
42483W        W 8892  33.644  17.559  12.693
42484W        W 8893  31.077  37.375  12.005
42485W        W 8894  28.980  19.652   1.458
42486W        W 8895   6.840  24.026   3.548
42487W        W 8896  37.485  24.517   4.992
42488W        W 8897  43.301  35.585  12.415
42489W        W 8898  34.064  35.250  11.588
42490W        W 8899  40.292  35.705  13.024
42491W        W 8900  42.764  28.595   0.518
42492W        W 8901  11.791   6.923  13.552
42493W        W 8902  25.496  24.201   5.144
42494W        W 8903  26.442  14.928   0.699
42495W        W 8904   7.395  17.515  11.213
42496W        W 8905  37.526  11.018   2.794
42497W        W 8906  28.051  30.504  11.951
42498W        W 8907  24.660  33.578   4.639
42499W        W 8908   6.400  26.376  11.610
42500W        W 8909  30.682   3.420   4.138
42501W        W 8910  36.296  21.088   3.300
42502W        W 8911  14.568  24.036   2.602
42503W        W 8912  24.749  32.948   3.814
42504W        W 8913  13.122  30.568   4.781
42505W        W 8914  19.776  30.856   2.294
42506W        W 8915  29.440  22.264   1.674
42507W        W 8916   8.804  37.069  12.490
42508W        W 8917   1.854   8.480   2.105
42509W        W 8918   0.416   6.716   1.351
42510W        W 8919  34.434   8.698   0.251
42511W        W 8920  41.380  18.333  11.350
42512W        W 8921   4.510  18.313  13.992
42513W        W 8922  30.838  18.357   0.937
42514W        W 8923   7.286  31.562  10.349
42515W        W 8924  32.110   7.341  12.496
42516W        W 8925  23.061  33.414   0.917
42517W        W 8926  22.459  24.970   4.088
42518W        W 8927  35.061   8.413   3.654
42519W        W 8928  19.298  35.842   0.515
42520W        W 8929  12.046  34.252   3.106
42521W        W 8930   6.852  25.836   0.273
42522W        W 8931  44.724   4.883  10.084
42523W        W 8932  20.617  19.972   2.138
42524W        W 8933  35.057  25.568  13.874
42525W        W 8934  33.633   5.330   1.354
42526W        W 8935   8.606  30.389  11.062
42527W        W 8936  39.991   3.896   3.702
42528W        W 8937  36.423  38.952   1.143
42529W        W 8938  29.589  35.829   0.821
42530W        W 8939  13.789  24.654   0.300
42531W        W 8940   3.183  37.316   0.899
42532W        W 8941   6.391   4.099   3.844
42533W        W 8942   5.696   5.645   1.775
42534W        W 8943  19.676  12.961  11.646
42535W        W 8944  32.124  39.379   1.132
42536W        W 8945  22.271   9.391  11.133
42537W        W 8946  29.708  42.869   4.079
42538W        W 8947  11.336   9.940  13.551
42539W        W 8948  19.615  40.040  11.966
42540W        W 8949  43.218  37.543   2.675
42541W        W 8950  25.707  28.151   0.218
42542W        W 8951   6.771  40.251  13.868
42543W        W 8952  27.979  23.597   2.115
42544W        W 8953   0.250  41.026  11.933
42545W        W 8954  19.731  24.960  14.353
42546W        W 8955   3.166  41.791  13.807
42547W        W 8956   6.571   9.624   2.756
42548W        W 8957  34.680  44.384   2.760
42549W        W 8958  26.768  41.387  12.548
42550W        W 8959  32.442   5.758  12.606
42551W        W 8960  17.585  41.297  14.038
42552W        W 8961   8.313  43.996  11.851
42553W        W 8962   3.712  32.748  13.920
42554W        W 8963  15.908  37.399  14.039
42555W        W 8964   1.464   6.414  13.059
42556W        W 8965  13.423  10.316   5.080
42557W        W 8966  37.141  35.107   4.592
42558W        W 8967   9.399  31.341   4.091
42559W        W 8968  44.064   1.917   4.212
42560W        W 8969   0.295  18.035  13.066
42561W        W 8970   3.404  33.918   2.274
42562W        W 8971   0.486  22.548  14.774
42563W        W 8972   6.832  13.381   2.214
42564W        W 8973  20.651  14.418  12.051
42565W        W 8974  20.685  10.402   1.653
42566W        W 8975  11.775  12.749  11.956
42567W        W 8976  31.943  11.073   2.956
42568W        W 8977  44.579   4.389   3.346
42569W        W 8978  44.796  41.805  13.390
42570W        W 8979   7.512  21.222  10.711
42571W        W 8980   9.923  35.734   1.806
42572W        W 8981  23.256  24.972  11.958
42573W        W 8982  35.965   3.930  10.832
42574W        W 8983   5.438  17.331   3.787
42575W        W 8984  17.337  15.723  11.952
42576W        W 8985   8.358  34.516   3.650
42577W        W 8986   5.271  20.044   2.649
42578W        W 8987  37.328   6.878  14.809
42579W        W 8988  39.781   4.483   2.631
42580W        W 8989   1.391  30.855   4.916
42581W        W 8990  13.684   1.515  11.512
42582W        W 8991   5.677  10.383   1.158
42583W        W 8992  12.653  22.230  11.606
42584W        W 8993  19.512  33.556   1.550
42585W        W 8994  43.417  33.947  10.354
42586W        W 8995   0.493   0.171  11.607
42587W        W 8996  19.867  32.400   4.493
42588W        W 8997  15.309  31.344   2.354
42589W        W 8998  36.127  19.730  13.905
42590W        W 8999   1.283  36.267   2.950
42591W        W 9000   4.516  31.546  12.843
42592W        W 9001   7.279  27.459   1.441
42593W        W 9002  41.422  19.775   1.729
42594W        W 9003   1.014   3.377  11.918
42595W        W 9004  19.916  36.872  10.668
42596W        W 9005   3.701  14.656   3.188
42597W        W 9006  40.473   7.923   3.088
42598W        W 9007  39.309  35.164  11.113
42599W        W 9008  11.626  15.690  10.545
42600W        W 9009   8.748  28.521   2.397
42601W        W 9010  31.905  26.090  14.387
42602W        W 9011   2.780  18.707  14.226
42603W        W 9012   7.238  14.868  12.486
42604W        W 9013  41.843  11.741  11.503
42605W        W 9014  15.632  31.856  12.889
42606W        W 9015  10.138  36.443   0.714
42607W        W 9016  18.238  42.511  12.442
42608W        W 9017  37.895  36.978   2.721
42609W        W 9018  26.980  17.370   3.177
42610W        W 9019  21.003  28.599  11.054
42611W        W 9020  25.446   6.861  14.566
42612W        W 9021  26.574  30.625   3.293
42613W        W 9022  30.177  33.840   0.169
42614W        W 9023   8.340  40.751  13.367
42615W        W 9024  25.295  27.977  11.125
42616W        W 9025   0.575  21.249  14.268
42617W        W 9026  44.980  33.226  14.363
42618W        W 9027  37.693  21.204  11.688
42619W        W 9028   8.310   9.709  11.538
42620W        W 9029  10.272  40.133   3.735
42621W        W 9030  43.327  22.701  10.139
42622W        W 9031  40.094  36.319   3.804
42623W        W 9032  23.719  33.106  11.096
42624W        W 9033  13.528  10.326  11.117
42625W        W 9034   0.891   7.244   4.056
42626W        W 9035   2.342  10.010  12.198
42627W        W 9036   4.794  27.633   3.075
42628W        W 9037  33.312  34.130  11.618
42629W        W 9038  19.693   6.640   0.177
42630W        W 9039  16.643  36.599   2.407
42631W        W 9040  34.929  42.236   2.361
42632W        W 9041   6.455   4.948   4.182
42633W        W 9042  23.988  32.105  10.722
42634W        W 9043   5.184   9.367  14.328
42635W        W 9044   6.354  33.883  10.916
42636W        W 9045  11.046  13.804  13.588
42637W        W 9046   6.658  40.987  10.712
42638W        W 9047  36.473  25.751  10.555
42639W        W 9048  12.350   2.179  14.422
42640W        W 9049  18.786  29.050   3.722
42641W        W 9050  12.824  42.439   4.490
42642W        W 9051  20.663  42.443   3.863
42643W        W 9052  38.622  11.852  14.547
42644W        W 9053  10.770  23.625  13.404
42645W        W 9054  40.400  35.974  10.662
42646W        W 9055  26.943  35.367  12.964
42647W        W 9056   0.146  37.073   0.999
42648W        W 9057   7.268  29.147   1.897
42649W        W 9058  21.501   6.849  11.076
42650W        W 9059  23.883  40.302  14.374
42651W        W 9060  28.671   3.754   4.713
42652W        W 9061   5.856  15.939  13.262
42653W        W 9062  31.913  38.444   4.221
42654W        W 9063  27.445  25.863   3.193
42655W        W 9064  25.442  20.941  11.647
42656W        W 9065  27.026  32.187  12.974
42657W        W 9066  43.838  30.967  11.577
42658W        W 9067  40.813  39.241   1.250
42659W        W 9068  32.812   9.580   1.008
42660W        W 9069  16.390  43.842   3.323
42661W        W 9070  37.455  41.281  11.015
42662W        W 9071   6.851  31.091  12.401
42663W        W 9072   4.353   6.239   2.056
42664W        W 9073  21.248  32.016  13.433
42665W        W 9074   0.129  17.574  11.171
42666W        W 9075  29.434  40.614  10.584
42667W        W 9076   1.697   6.667  10.538
42668W        W 9077  44.352   2.623   3.072
42669W        W 9078  28.095   4.784   4.197
42670W        W 9079  17.778  10.004  12.548
42671W        W 9080   4.476  31.369  13.865
42672W        W 9081  44.908   2.448   3.714
42673W        W 9082  27.897   5.773  14.494
42674W        W 9083  28.967  17.185  14.254
42675W        W 9084  13.053   1.604   3.201
42676W        W 9085   4.482  11.704  12.338
42677W        W 9086  17.052   2.401  11.593
42678W        W 9087  20.718   8.355  10.628
42679W        W 9088  10.200  23.997  13.809
42680W        W 9089  42.459  33.327   2.723
42681W        W 9090  16.104   4.939  14.497
42682W        W 9091  32.084   0.476   3.746
42683W        W 9092  39.248  20.119   2.334
42684W        W 9093  43.743  29.984   3.557
42685W        W 9094   0.319  42.386  13.144
42686W        W 9095  14.253  44.042  13.072
42687W        W 9096  13.294  22.729   1.131
42688W        W 9097  20.266  28.905  14.398
42689W        W 9098  23.917  26.641   0.022
42690W        W 9099  32.205  17.772  14.915
42691W        W 9100   4.212   3.432   1.956
42692W        W 9101  13.934   8.773   2.592
42693W        W 9102  43.114  23.157   2.505
42694W        W 9103   7.184  43.444  14.815
42695W        W 9104  43.816  10.175   0.265
42696W        W 9105  43.469  22.883   3.902
42697W        W 9106   2.996  12.860   0.547
42698W        W 9107   2.402  15.595  13.813
42699W        W 9108  28.800  24.499   3.922
42700W        W 9109  40.804  12.081  13.788
42701W        W 9110   9.924   1.881   2.357
42702W        W 9111  27.725  24.670  12.949
42703W        W 9112  42.063  26.224  14.879
42704W        W 9113  30.448  35.070  11.195
42705W        W 9114   0.978   7.357  10.672
42706W        W 9115   4.132  44.947   4.697
42707W        W 9116  42.587   0.731  12.594
42708W        W 9117  43.608  41.692   0.420
42709W        W 9118  17.539  12.725  12.891
42710W        W 9119  11.341  37.492   4.288
42711W        W 9120  32.688  44.939  14.908
42712W        W 9121   6.710  27.183   3.754
42713W        W 9122  19.580  38.266   1.389
42714W        W 9123  23.761  30.017  10.453
42715W        W 9124  27.454  13.876  10.712
42716W        W 9125  25.650  38.077  11.640
42717W        W 9126  26.703  18.326  12.624
42718W        W 9127   2.171  30.614   2.131
42719W        W 9128  12.325  33.681   3.990
42720W        W 9129   3.166  20.527   4.159
42721W        W 9130  41.963  36.147  12.348
42722W        W 9131  14.627  33.173  12.651
42723W        W 9132   8.365  43.585   0.719
42724W        W 9133  39.301   1.390  14.423
42725W        W 9134  42.859  29.058  14.336
42726W        W 9135  21.914  13.620  11.947
42727W        W 9136  42.164  12.665   3.749
42728W        W 9137  40.285   1.328   0.739
42729W        W 9138  15.578  11.277  14.411
42730W        W 9139  16.969  39.993   4.706
42731W        W 9140  40.809  10.586  14.553
42732W        W 9141   0.093  29.524   3.686
42733W        W 9142  19.890   8.698   2.871
42734W        W 9143  36.963  30.946  14.048
42735W        W 9144   5.669  17.711   1.671
42736W        W 9145  35.306  35.606  14.880
42737W        W 9146  11.836   2.260   1.616
42738W        W 9147  19.533  40.422   1.378
42739W        W 9148  40.984  40.507  12.518
42740W        W 9149  17.585  31.795  11.221
42741W        W 9150  44.834  26.585  10.118
42742W        W 9151  27.605   6.519  14.932
42743W        W 9152  14.055  12.666  11.239
42744W        W 9153  26.884  14.666  13.014
42745W        W 9154  23.721   7.669  12.854
42746W        W 9155  18.622  17.336   3.106
42747W        W 9156  20.436   6.947  12.471
42748W        W 9157   6.251  44.247  12.062
42749W        W 9158  20.858  43.273  14.700
42750W        W 9159  32.966  26.403   3.572
42751W        W 9160  39.437  35.975  13.558
42752W        W 9161  24.286  26.347  11.048
42753W        W 9162  21.389  11.782  12.210
42754W        W 9163  14.080  37.011   0.799
42755W        W 9164   3.009  22.439  13.367
42756W        W 9165   7.196  40.307   4.078
42757W        W 9166  44.841  41.752   3.218
42758W        W 9167  43.033  30.366  13.002
42759W        W 9168  41.502  33.921  10.721
42760W        W 9169  15.146  34.170  11.640
42761W        W 9170  33.503  43.737  12.165
42762W        W 9171  10.117  12.009   2.675
42763W        W 9172  21.679   9.034   1.653
42764W        W 9173  41.825  20.207   3.664
42765W        W 9174  33.855  14.809   2.343
42766W        W 9175  31.738   1.333   4.556
42767W        W 9176  43.936   6.436   3.085
42768W        W 9177  12.376  23.059  13.004
42769W        W 9178  11.246   7.443  10.937
42770W        W 9179  33.947   1.912  13.496
42771W        W 9180   8.175  28.954   1.193
42772W        W 9181  15.549  40.755   0.840
42773W        W 9182  41.500  17.021   1.143
42774W        W 9183  26.627  23.059  12.522
42775W        W 9184  36.804  31.009  12.582
42776W        W 9185   6.558  30.875   1.404
42777W        W 9186  31.351   6.395  13.574
42778W        W 9187  40.429  42.027  14.389
42779W        W 9188  26.970   8.220   1.299
42780W        W 9189  27.484  24.216  12.845
42781W        W 9190  26.029  14.593  11.931
42782W        W 9191  14.628  19.051   4.888
42783W        W 9192  30.726   6.296   3.651
42784W        W 9193  34.037  21.369   2.720
42785W        W 9194  15.301  29.914  11.625
42786W        W 9195  12.604  24.596  10.685
42787W        W 9196  43.450  12.443   2.777
42788W        W 9197  10.821  23.708   0.378
42789W        W 9198  11.657   9.562   0.332
42790W        W 9199  26.981  29.955  12.962
42791W        W 9200  40.783  37.092   0.519
42792W        W 9201  18.902  30.824  12.233
42793W        W 9202  15.816  18.303  13.597
42794W        W 9203  43.285  19.366  13.552
42795W        W 9204  10.234  30.628   2.797
42796W        W 9205  36.702  13.132   2.803
42797W        W 9206  38.510  20.148  10.972
42798W        W 9207  37.099   4.228  14.606
42799W        W 9208   3.760   9.291   4.803
42800W        W 9209  26.652  12.110  12.843
42801W        W 9210  23.501   6.017   2.950
42802W        W 9211  14.822  39.409   3.371
42803W        W 9212  16.055  35.281   2.084
42804W        W 9213  19.864  25.602   2.767
42805W        W 9214  31.408  19.787  11.629
42806W        W 9215   2.169  15.507   3.195
42807W        W 9216  12.832  10.062   0.369
42808W        W 9217  10.037  22.727   1.737
42809W        W 9218   2.802   1.450   4.221
42810W        W 9219   3.339  16.879   4.379
42811W        W 9220  12.377  14.999  13.873
42812W        W 9221  19.717   6.456   0.706
42813W        W 9222  22.586  24.272  14.724
42814W        W 9223  36.628   4.785  11.545
42815W        W 9224  35.874  25.590   3.120
42816W        W 9225  31.658  24.737  11.130
42817W        W 9226  39.654  14.688   4.089
42818W        W 9227  13.426   3.701  12.799
42819W        W 9228  18.250  21.888   4.276
42820W        W 9229  17.954  12.474   0.490
42821W        W 9230  36.791  29.740   3.708
42822W        W 9231  41.497  14.743  10.392
42823W        W 9232   8.628   5.280  14.596
42824W        W 9233   0.595   8.594   4.912
42825W        W 9234  24.392  23.070   1.789
42826W        W 9235  25.757  41.338   1.804
42827W        W 9236  30.590  40.027  14.371
42828W        W 9237  20.606  36.363   2.223
42829W        W 9238  24.475  39.239   3.839
42830W        W 9239   8.927  39.505   1.468
42831W        W 9240   1.597   3.172  11.144
42832W        W 9241  39.274  35.576   4.683
42833W        W 9242  38.456  22.555  11.532
42834W        W 9243  29.680  11.306   4.510
42835W        W 9244  33.823  24.117  13.818
42836W        W 9245   2.103  44.813   4.138
42837W        W 9246  29.377  15.539  11.701
42838W        W 9247  25.707   3.424  10.659
42839W        W 9248  42.030  36.923   4.599
42840W        W 9249  21.367  38.064  12.501
42841W        W 9250   6.833  13.797   3.088
42842W        W 9251  29.431  14.107  12.145
42843W        W 9252  35.150   3.344  13.875
42844W        W 9253  29.524  27.687   4.402
42845W        W 9254   7.268  32.810  12.105
42846W        W 9255   6.644   2.932  11.407
42847W        W 9256  18.852  15.311  11.303
42848W        W 9257  20.239  41.417  10.873
42849W        W 9258  44.005  32.170  10.126
42850W        W 9259  37.332  20.806   3.664
42851W        W 9260   2.890  26.084  10.552
42852W        W 9261   2.346  44.503   2.687
42853W        W 9262  27.497  28.454   0.044
42854W        W 9263   3.821  27.693   3.732
42855W        W 9264  38.020  37.257   0.381
42856W        W 9265  44.741  18.151  12.055
42857W        W 9266  12.860  27.549  14.876
42858W        W 9267  22.539  27.497  14.064
42859W        W 9268  11.051  31.472  14.377
42860W        W 9269  11.444   3.339   2.165
42861W        W 9270   9.029  18.636   3.126
42862W        W 9271   5.591   8.368   1.523
42863W        W 9272  10.450  36.856   0.864
42864W        W 9273  40.563  17.040   3.306
42865W        W 9274  32.570  30.503  12.969
42866W        W 9275   0.113  44.353  11.900
42867W        W 9276  25.492  23.780   4.285
42868W        W 9277   7.895  25.553  11.906
42869W        W 9278   1.330   5.272  14.888
42870W        W 9279  26.157   1.730   0.271
42871W        W 9280  26.591  10.647  12.984
42872W        W 9281  34.375   4.299   5.195
42873W        W 9282  40.302  18.496  10.859
42874W        W 9283  15.265  14.372  11.258
42875W        W 9284  19.996  11.278  10.715
42876W        W 9285  10.754  17.380  12.093
42877W        W 9286  20.504  28.303  12.588
42878W        W 9287  33.164  43.432   4.618
42879W        W 9288  16.519  16.427   1.791
42880W        W 9289   1.306   0.360   3.273
42881W        W 9290  24.296  26.692  11.441
42882W        W 9291  44.458  43.846  14.578
42883W        W 9292   9.652  23.331  13.438
42884W        W 9293  43.493  24.709   0.546
42885W        W 9294  40.328  16.829  11.557
42886W        W 9295  13.421  10.200   4.580
42887W        W 9296  38.406  43.457  10.979
42888W        W 9297  22.112   9.222   1.449
42889W        W 9298  18.754  34.999  10.652
42890W        W 9299  25.334   5.781  10.565
42891W        W 9300  41.872  37.535   1.655
42892W        W 9301  40.853  39.293   0.707
42893W        W 9302  25.712  11.127  11.240
42894W        W 9303   6.893  44.545   2.202
42895W        W 9304  21.203  28.081   2.603
42896W        W 9305  40.082  31.033   1.232
42897W        W 9306  26.626  39.809  11.985
42898W        W 9307   3.993   7.070  12.664
42899W        W 9308  15.655  11.274   3.885
42900W        W 9309  19.328  42.049   1.906
42901W        W 9310   2.714  17.672  10.632
42902W        W 9311  30.634  28.349  14.788
42903W        W 9312  18.973  17.151  14.879
42904W        W 9313  27.741  24.063   4.530
42905W        W 9314   0.943  37.674  10.282
42906W        W 9315  10.297  28.473   1.269
42907W        W 9316  13.713  21.891  13.115
42908W        W 9317  35.472  34.363  10.995
42909W        W 9318   2.163   8.358   0.275
42910W        W 9319   4.276  41.562  11.507
42911W        W 9320   9.930  21.872   2.203
42912W        W 9321  23.514  26.013  12.816
42913W        W 9322   1.318  21.994  13.025
42914W        W 9323  37.886  41.342  12.069
42915W        W 9324  11.067   0.293   0.415
42916W        W 9325  37.841  12.820  11.146
42917W        W 9326  30.620  16.894  14.217
42918W        W 9327  27.684  31.530   1.748
42919W        W 9328   7.497  13.823   0.242
42920W        W 9329  24.559   3.528   2.600
42921W        W 9330  43.734   9.824  10.834
42922W        W 9331  33.411   7.440  12.467
42923W        W 9332   0.326  27.963  14.829
42924W        W 9333  37.754  32.549   2.973
42925W        W 9334   8.344  13.211  13.512
42926W        W 9335  34.797  25.195  11.437
42927W        W 9336  38.360  25.771   3.110
42928W        W 9337   4.486  44.073  12.321
42929W        W 9338   8.332   3.084  13.964
42930W        W 9339  11.302  33.118   3.385
42931W        W 9340  28.809  11.260   2.499
42932W        W 9341  30.407  40.539   3.262
42933W        W 9342  14.717  12.183  13.230
42934W        W 9343  15.581   3.308  13.054
42935W        W 9344  44.887  41.043   1.474
42936W        W 9345  40.004  24.616  11.629
42937W        W 9346  25.925  16.308   0.910
42938W        W 9347  43.304  26.748  11.128
42939W        W 9348   8.586  41.589   3.138
42940W        W 9349  15.286  35.752   3.079
42941W        W 9350  32.341   9.661  11.558
42942W        W 9351   8.273  32.847   3.192
42943W        W 9352   9.461  33.992  13.219
42944W        W 9353  39.848  12.029   3.716
42945W        W 9354   4.193   4.359  14.287
42946W        W 9355  29.610  28.693   4.746
42947W        W 9356  24.588  44.504   1.367
42948W        W 9357  12.802  29.990   2.183
42949W        W 9358   4.890  17.750  12.777
42950W        W 9359   8.908  40.479   2.414
42951W        W 9360   8.916  20.168   0.035
42952W        W 9361  26.179  42.430   0.834
42953W        W 9362   9.682   9.820   3.833
42954W        W 9363  31.655   8.917   2.981
42955W        W 9364   4.279   3.962   1.239
42956W        W 9365  24.556  28.214   4.205
42957W        W 9366  37.331  33.685  13.931
42958W        W 9367  32.408  42.001   0.907
42959W        W 9368  15.867   0.957   4.545
42960W        W 9369  36.740  12.358   2.168
42961W        W 9370  15.481  40.487   5.003
42962W        W 9371   2.306  21.500   1.408
42963W        W 9372  25.812  24.503   3.120
42964W        W 9373  43.490  23.349   0.688
42965W        W 9374  27.624  31.022   0.752
42966W        W 9375  24.424  13.285   4.488
42967W        W 9376   4.064  40.825   3.989
42968W        W 9377  23.173  19.023   2.273
42969W        W 9378   3.500   0.950   3.710
42970W        W 9379  40.061  27.546   4.115
42971W        W 9380  34.119  13.612  13.121
42972W        W 9381  37.628  39.794  11.861
42973W        W 9382   4.706  22.367  10.126
42974W        W 9383  24.074  11.490   4.564
42975W        W 9384  19.526  20.041  10.710
42976W        W 9385  42.949  27.653   0.795
42977W        W 9386  24.591  38.460  13.827
42978W        W 9387  36.413   8.672   4.730
42979W        W 9388  40.237  15.925   1.167
42980W        W 9389  23.406  17.287   3.527
42981W        W 9390   5.401  26.172  11.671
42982W        W 9391  18.072  40.444   2.335
42983W        W 9392  40.063  14.490  13.832
42984W        W 9393  39.404  15.038  11.826
42985W        W 9394  21.760  42.758   0.960
42986W        W 9395  12.084  14.690   2.896
42987W        W 9396  18.582  35.408  12.989
42988W        W 9397  41.043  29.129   3.175
42989W        W 9398  38.863  14.421   0.286
42990W        W 9399   6.412   0.037  12.459
42991W        W 9400  38.553   4.240   0.844
42992W        W 9401   7.976  22.224   4.197
42993W        W 9402  27.882  17.662   3.208
42994W        W 9403  41.038  36.935  12.557
42995W        W 9404  12.576  11.483   1.843
42996W        W 9405  27.686  43.360  13.387
42997W        W 9406  11.382  16.361   0.492
42998W        W 9407  30.570  11.138   2.410
42999W        W 9408   2.926  24.024  14.286
43000W        W 9409  40.411  39.024   0.630
43001W        W 9410  42.327   6.619   5.385
43002W        W 9411  42.211  10.206   3.577
43003W        W 9412  33.141  22.532  14.396
43004W        W 9413  41.839  15.775  12.555
43005W        W 9414   5.309  44.740  12.969
43006W        W 9415  28.975  41.551   1.224
43007W        W 9416  40.776  22.037   1.052
43008W        W 9417  35.972  23.296   4.806
43009W        W 9418  25.544  29.219   4.928
43010W        W 9419  16.680  20.814  12.898
43011W        W 9420  30.465  42.027  13.427
43012W        W 9421  19.361  39.864   0.728
43013W        W 9422  22.291  33.708  10.341
43014W        W 9423  43.003  22.197   3.365
43015W        W 9424  22.673  32.966   1.678
43016W        W 9425  28.699  34.665   2.232
43017W        W 9426  42.026   1.791   2.833
43018W        W 9427  38.287  40.434   1.357
43019W        W 9428   5.226  11.039  11.390
43020W        W 9429  17.302  19.880   4.577
43021W        W 9430   4.791  15.852   2.477
43022W        W 9431   8.766  40.751  13.094
43023W        W 9432  42.947   7.634  12.065
43024W        W 9433   4.354  40.535  10.560
43025W        W 9434  42.825  44.000   3.600
43026W        W 9435  35.406  44.342  12.331
43027W        W 9436  19.568  16.158  10.385
43028W        W 9437  26.329  37.883  11.454
43029W        W 9438   6.912  10.714  11.139
43030W        W 9439  18.806  12.527  11.621
43031W        W 9440  27.616  19.747   2.753
43032W        W 9441  14.542   9.244  13.418
43033W        W 9442  11.238  20.668  13.417
43034W        W 9443   0.894  19.697  14.399
43035W        W 9444  35.374   4.182  14.883
43036W        W 9445   6.134   3.984  11.473
43037W        W 9446  27.131  44.835  14.100
43038W        W 9447  41.412  13.712  11.131
43039W        W 9448   3.928  15.751   1.296
43040W        W 9449  29.909  42.409  13.473
43041W        W 9450  22.223  42.924  11.963
43042W        W 9451   2.476   3.501   3.891
43043W        W 9452  44.471  38.232   0.893
43044W        W 9453  18.838   1.739   9.596
43045W        W 9454   6.229   5.471   1.953
43046W        W 9455  17.146  17.035  11.640
43047W        W 9456  31.234  28.318   0.907
43048W        W 9457  11.114  38.964   3.657
43049W        W 9458  17.827  17.318   3.090
43050W        W 9459  21.182  31.488   3.104
43051W        W 9460  11.674  29.099   1.452
43052W        W 9461   4.245  29.557   0.787
43053W        W 9462  14.253  41.311   2.114
43054W        W 9463  37.997  21.656   4.576
43055W        W 9464  12.824  34.167  14.918
43056W        W 9465  36.127  31.079   0.388
43057W        W 9466   3.374  34.179   2.906
43058W        W 9467  23.902   1.804   3.570
43059W        W 9468  13.752  18.315  12.226
43060W        W 9469   4.786  11.178  11.126
43061W        W 9470  40.314  42.947   4.063
43062W        W 9471  30.983  38.124  11.507
43063W        W 9472   1.025  41.926  11.492
43064W        W 9473  42.330  12.095  13.960
43065W        W 9474  38.723  26.627  13.992
43066W        W 9475  34.011  17.137   1.220
43067W        W 9476  20.025  20.181  11.551
43068W        W 9477   3.625  13.775  11.522
43069W        W 9478  31.878  38.388  10.194
43070W        W 9479   1.194  22.204   4.193
43071W        W 9480   1.927  35.367   2.747
43072W        W 9481  24.078  18.688  10.760
43073W        W 9482  44.969  37.603   3.748
43074W        W 9483  41.623   5.747  12.081
43075W        W 9484   8.511  10.661   2.294
43076W        W 9485  34.737  12.982   3.728
43077W        W 9486  15.411  26.089   1.069
43078W        W 9487  34.206   5.980  11.935
43079W        W 9488  16.635  22.109   2.321
43080W        W 9489   0.897  11.562  14.436
43081W        W 9490  32.926  40.121  14.417
43082W        W 9491   4.717  25.597   4.568
43083W        W 9492   9.245  38.912  12.994
43084W        W 9493  13.060  39.079   3.655
43085W        W 9494  13.291  40.408  11.126
43086W        W 9495   4.625  23.338  11.638
43087W        W 9496  41.998  33.735  12.361
43088W        W 9497  36.840  32.104   1.664
43089W        W 9498  24.691   6.112  14.230
43090W        W 9499  44.690  31.063  12.038
43091W        W 9500  11.822  28.635   1.641
43092W        W 9501  18.038  21.221   3.759
43093W        W 9502  43.202  38.890   4.491
43094W        W 9503  36.571  10.350  11.173
43095W        W 9504  10.703  31.398  11.774
43096W        W 9505  14.374  16.135   2.125
43097W        W 9506   7.938  38.255   3.571
43098W        W 9507  39.706  34.978  14.438
43099W        W 9508  41.291  27.882  10.416
43100W        W 9509  19.894  16.707   0.917
43101W        W 9510  29.813  42.426  13.993
43102W        W 9511   7.549  11.616   3.232
43103W        W 9512  24.439  12.825  12.994
43104W        W 9513  27.978  23.603  13.418
43105W        W 9514  26.823  20.592   4.635
43106W        W 9515  14.007  25.126  12.937
43107W        W 9516  44.827  14.349  13.011
43108W        W 9517  40.616   0.013   4.171
43109W        W 9518  34.461  17.827   4.783
43110W        W 9519   0.324   8.663  14.419
43111W        W 9520  32.123  22.771   4.155
43112W        W 9521   1.024  34.555  11.552
43113W        W 9522  30.591  38.911   4.675
43114W        W 9523  11.282   6.789   1.791
43115W        W 9524  16.820  40.825   3.114
43116W        W 9525  13.093  25.701   4.038
43117W        W 9526  21.974  28.551  11.998
43118W        W 9527   6.026   7.054  11.163
43119W        W 9528  24.123  36.517   1.314
43120W        W 9529  22.741  23.224  14.819
43121W        W 9530  18.769   4.258  12.648
43122W        W 9531   6.390  41.319  14.197
43123W        W 9532  24.585  11.646  11.864
43124W        W 9533   3.716   1.431  10.571
43125W        W 9534  30.516  27.017   2.816
43126W        W 9535  24.678   8.341   3.612
43127W        W 9536  36.314  36.486   0.263
43128W        W 9537   7.152  25.101   3.276
43129W        W 9538  20.233   4.748  10.417
43130W        W 9539   7.320  11.742  14.333
43131W        W 9540  44.295  42.293   3.543
43132W        W 9541   1.463  36.567   3.347
43133W        W 9542  33.765  27.694   0.420
43134W        W 9543  44.438  24.761  12.405
43135W        W 9544   5.627  10.898  12.081
43136W        W 9545  28.581  22.674  12.047
43137W        W 9546  23.202   4.701  13.781
43138W        W 9547  38.117  25.863  13.815
43139W        W 9548   1.789  39.259   3.610
43140W        W 9549  41.360  43.583  11.650
43141W        W 9550   4.062  43.229  14.443
43142W        W 9551  16.081  15.456  10.897
43143W        W 9552  23.280   5.004  14.714
43144W        W 9553   4.855   6.683   2.842
43145W        W 9554   0.662   5.696  12.110
43146W        W 9555  34.461  11.634  12.827
43147W        W 9556  25.381  30.367   0.687
43148W        W 9557  28.391  24.781   4.978
43149W        W 9558  33.428  15.269   0.004
43150W        W 9559   8.884  31.037  11.693
43151W        W 9560  37.431  28.588   2.754
43152W        W 9561  15.464   3.061   9.689
43153W        W 9562   8.883  40.952   0.437
43154W        W 9563  21.178  41.173  11.247
43155W        W 9564  26.841  31.063   3.406
43156W        W 9565  44.275  29.484   0.869
43157W        W 9566   6.658  22.436   0.823
43158W        W 9567  15.821  10.143   0.076
43159W        W 9568  28.531  21.342  10.157
43160W        W 9569  15.306   3.605   2.256
43161W        W 9570  26.386   1.941  11.942
43162W        W 9571  27.288  28.268  11.190
43163W        W 9572   9.843  40.864  13.085
43164W        W 9573  23.494  24.568   0.048
43165W        W 9574   5.115   8.387  13.052
43166W        W 9575  43.995  13.232  11.214
43167W        W 9576  29.507  20.198   1.811
43168W        W 9577   8.355  39.028  14.772
43169W        W 9578   6.787   5.658   4.526
43170W        W 9579  23.067  25.011   1.430
43171W        W 9580  23.311  19.186   4.228
43172W        W 9581   0.174   2.998   3.158
43173W        W 9582  40.007  10.875  12.541
43174W        W 9583   1.744  29.635  13.775
43175W        W 9584  24.625  21.420  12.392
43176W        W 9585  23.047  16.902   1.725
43177W        W 9586  17.550  41.372  11.783
43178W        W 9587  19.071  40.064  12.918
43179W        W 9588  39.061   5.793   1.441
43180W        W 9589  32.905  37.846   1.280
43181W        W 9590  42.283  16.819   0.905
43182W        W 9591  27.443  41.662   0.188
43183W        W 9592  13.030  25.663  12.505
43184W        W 9593  39.468  44.915  14.088
43185W        W 9594  15.715  29.520  13.180
43186W        W 9595   1.698  38.718  11.847
43187W        W 9596  43.039  44.665  14.035
43188W        W 9597  15.323  27.294  11.996
43189W        W 9598  38.572  31.446   1.912
43190W        W 9599   9.511  28.035  14.108
43191W        W 9600  34.359   8.347  12.170
43192W        W 9601  22.594  35.339   4.629
43193W        W 9602  31.116  39.481   4.760
43194W        W 9603   0.859  27.142   2.624
43195W        W 9604  40.432  28.607   1.882
43196W        W 9605  35.891  42.410   1.697
43197W        W 9606  41.389   5.924   0.686
43198W        W 9607  25.965  31.497   1.788
43199W        W 9608  25.441  38.682   2.456
43200W        W 9609  12.389  14.687   0.672
43201W        W 9610   7.768  32.631  14.723
43202W        W 9611  27.456  15.304  14.412
43203W        W 9612   0.551  16.487   2.584
43204W        W 9613  26.360  32.030  12.083
43205W        W 9614  38.565  12.317   2.822
43206W        W 9615  39.620  18.591   0.978
43207W        W 9616   0.133  35.229   0.056
43208W        W 9617  18.822  39.595  14.099
43209W        W 9618   0.305  37.956  13.015
43210W        W 9619  35.072  27.961   1.907
43211W        W 9620   1.388   0.951  11.515
43212W        W 9621  17.304  22.156   0.727
43213W        W 9622  12.971  33.484  14.429
43214W        W 9623  22.519  30.954   0.015
43215W        W 9624  26.200  16.280  11.792
43216W        W 9625   5.864  27.161   4.378
43217W        W 9626   6.232  19.211  11.271
43218W        W 9627  13.836  44.100  13.377
43219W        W 9628  42.510   7.211  13.369
43220W        W 9629  20.199   7.817   2.587
43221W        W 9630  42.930   4.413  11.039
43222W        W 9631   3.473  10.922  12.532
43223W        W 9632  38.871  40.958   0.816
43224W        W 9633  42.777   6.966   1.375
43225W        W 9634  17.649  24.291   1.878
43226W        W 9635   6.091   2.243   1.456
43227W        W 9636   7.550  32.792   4.512
43228W        W 9637  20.581  39.811  14.973
43229W        W 9638   8.463   0.440   1.258
43230W        W 9639  25.963   8.395  11.390
43231W        W 9640  28.737  42.361  12.856
43232W        W 9641  25.047   0.281  14.174
43233W        W 9642  28.148  39.257  14.596
43234W        W 9643  43.395  37.306   1.177
43235W        W 9644  29.504  38.836   3.297
43236W        W 9645  21.115  40.370  11.070
43237W        W 9646  39.091  34.081  13.876
43238W        W 9647  27.446   6.267   2.236
43239W        W 9648  25.462  39.952   2.857
43240W        W 9649  44.178  39.241  10.976
43241W        W 9650  17.394  26.523   0.194
43242W        W 9651  42.860  30.425  11.672
43243W        W 9652  32.332  15.138  13.994
43244W        W 9653  24.617  39.465  10.845
43245W        W 9654  28.165  19.242  12.952
43246W        W 9655  14.319  32.437  11.215
43247W        W 9656  11.683  30.270   5.072
43248W        W 9657  32.278  28.660  12.988
43249W        W 9658  10.876  15.368  13.352
43250W        W 9659   3.409  25.307   2.362
43251W        W 9660  39.331  24.104   3.244
43252W        W 9661  11.799  40.389   3.333
43253W        W 9662  39.817  34.497  12.620
43254W        W 9663  37.068  22.718  11.242
43255W        W 9664  16.150   9.318  10.705
43256W        W 9665  17.616  30.845  11.137
43257W        W 9666  19.323  37.524   3.702
43258W        W 9667   1.402  31.820  12.972
43259W        W 9668  34.848   0.751  11.946
43260W        W 9669  28.064   5.427  10.359
43261W        W 9670   4.384   5.774   0.181
43262W        W 9671  25.075  12.781  12.213
43263W        W 9672  24.042   7.287  12.597
43264W        W 9673  36.304  14.066  13.090
43265W        W 9674   8.666  41.387   3.632
43266W        W 9675  21.166  24.266   3.254
43267W        W 9676   8.242  30.542  12.115
43268W        W 9677  28.175  32.533  11.084
43269W        W 9678  35.148   9.897   1.240
43270W        W 9679  10.421  31.648   2.734
43271W        W 9680   4.897  24.443  11.670
43272W        W 9681  17.837   9.639   2.419
43273W        W 9682  38.405  18.548  13.083
43274W        W 9683  12.801   5.974  13.090
43275W        W 9684  21.630  17.295  10.566
43276W        W 9685  11.680  31.606  13.022
43277W        W 9686  24.269  40.136  12.485
43278W        W 9687  15.599  31.522   4.822
43279W        W 9688   4.737  31.000   4.158
43280W        W 9689   0.995  37.582   0.472
43281W        W 9690  14.762   2.299   0.599
43282W        W 9691  17.416  24.365   2.627
43283W        W 9692   5.233   6.201   0.891
43284W        W 9693  44.695   0.421   1.400
43285W        W 9694   6.305  14.592  11.165
43286W        W 9695   2.011   4.532  13.602
43287W        W 9696  31.596   3.453   1.413
43288W        W 9697  42.442   7.082   5.146
43289W        W 9698  32.642   1.820   4.559
43290W        W 9699  40.616   8.818  14.434
43291W        W 9700  17.799  33.958  12.440
43292W        W 9701  43.920  26.010   1.759
43293W        W 9702  24.004  35.964  14.816
43294W        W 9703  27.559  35.304  14.858
43295W        W 9704   9.762   2.745  11.590
43296W        W 9705  29.305  37.318  10.094
43297W        W 9706  39.323  14.274   0.469
43298W        W 9707  13.221  32.886   3.793
43299W        W 9708  30.638  15.694   1.311
43300W        W 9709  26.007  28.951  10.612
43301W        W 9710  12.747  15.782   4.085
43302W        W 9711  11.633  13.168  11.663
43303W        W 9712  12.704  25.610  11.881
43304W        W 9713   1.376  31.123  13.496
43305W        W 9714  27.928  27.570   3.169
43306W        W 9715  13.508  30.882  10.951
43307W        W 9716  26.618  32.144   4.696
43308W        W 9717   6.223  29.922  11.634
43309W        W 9718   8.927   7.394  11.591
43310W        W 9719  39.615  22.690   0.541
43311W        W 9720   3.243  31.952   0.807
43312W        W 9721  43.999  16.546   2.949
43313W        W 9722   1.043   5.376  12.078
43314W        W 9723  40.459  40.868   0.471
43315W        W 9724  27.077  13.476   1.834
43316W        W 9725  32.391  33.676  10.470
43317W        W 9726   4.708  21.176   2.422
43318W        W 9727  38.295   2.303   1.805
43319W        W 9728   4.038  25.011   9.897
43320W        W 9729  31.517  39.414  13.567
43321W        W 9730  31.667  11.889  13.013
43322W        W 9731  15.117  41.238   3.431
43323W        W 9732  39.024  34.213   0.801
43324W        W 9733  28.470  13.390  11.211
43325W        W 9734  28.443  26.298  13.609
43326W        W 9735  38.386  20.532   9.570
43327W        W 9736  16.642  36.457  13.797
43328W        W 9737   7.637  24.566   0.504
43329W        W 9738  22.074   7.305  13.463
43330W        W 9739   1.390  44.234   0.022
43331W        W 9740  10.850  35.084   0.932
43332W        W 9741  23.920  36.815  11.140
43333W        W 9742  38.600  37.992  14.860
43334W        W 9743  17.132   8.239   4.913
43335W        W 9744  33.955  28.636   4.342
43336W        W 9745   4.955   9.359   3.199
43337W        W 9746  25.186  16.714   1.195
43338W        W 9747  39.341  41.518  14.879
43339W        W 9748  41.037   5.527   0.735
43340W        W 9749  40.047   3.828   0.195
43341W        W 9750   3.343  12.138  13.986
43342W        W 9751  33.074   3.262   1.730
43343W        W 9752  41.751  10.374   2.734
43344W        W 9753   6.277  22.123  13.128
43345W        W 9754  21.027  28.508   3.705
43346W        W 9755  32.667  15.674  10.520
43347W        W 9756   1.260  25.389  12.149
43348W        W 9757  13.831   2.373   0.315
43349W        W 9758  17.541  13.606   3.638
43350W        W 9759  12.101  22.465   1.092
43351W        W 9760  10.767  26.489  10.988
43352W        W 9761  37.272   8.480  13.811
43353W        W 9762  29.956  30.192   0.978
43354W        W 9763  20.167  30.868  12.910
43355W        W 9764   4.667  20.178  14.758
43356W        W 9765  11.958   3.270   3.320
43357W        W 9766  41.455  43.883   3.051
43358W        W 9767  24.236  43.847  12.036
43359W        W 9768   2.657  41.583  14.331
43360W        W 9769  35.094   2.769   3.653
43361W        W 9770   8.446  37.463  12.522
43362W        W 9771   8.914  10.286   3.866
43363W        W 9772  20.029   9.213   1.679
43364W        W 9773  42.428  14.910  13.346
43365W        W 9774  14.731  35.330  13.019
43366W        W 9775  38.691  28.889  11.432
43367W        W 9776  12.692  29.824  12.859
43368W        W 9777   0.906  35.145   0.875
43369W        W 9778  22.984  16.209  12.015
43370W        W 9779  19.481   7.233   1.320
43371W        W 9780   8.327  24.467  14.277
43372W        W 9781  25.580  30.536  13.746
43373W        W 9782  14.736  15.599   3.635
43374W        W 9783  31.496   2.221  12.532
43375W        W 9784  38.183  34.208   3.239
43376W        W 9785  12.816  20.253   2.783
43377W        W 9786  30.578   4.234   2.223
43378W        W 9787  43.704  43.950  10.478
43379W        W 9788  43.682  22.065  14.602
43380W        W 9789   6.439  38.615   4.186
43381W        W 9790   7.800  19.522   5.132
43382W        W 9791  35.211  18.093   1.107
43383W        W 9792  16.711  25.808  13.055
43384W        W 9793  38.919   9.678  14.544
43385W        W 9794  38.807  22.618  13.136
43386W        W 9795  12.420  11.399  13.421
43387W        W 9796  37.515  10.770   1.118
43388W        W 9797   9.741  13.884  13.494
43389W        W 9798   1.451  30.551   3.730
43390W        W 9799  44.110  11.280  10.426
43391W        W 9800  37.759   5.711  12.678
43392W        W 9801  32.479  11.674   2.164
43393W        W 9802  31.453  34.005   4.571
43394W        W 9803  20.950  14.101  13.337
43395W        W 9804  25.106  19.183  11.390
43396W        W 9805   3.003   4.117   2.700
43397W        W 9806   8.880  24.118  10.596
43398W        W 9807  16.835  40.965  11.181
43399W        W 9808  13.800   9.564  11.849
43400W        W 9809  25.631  15.098  12.536
43401W        W 9810  19.164  25.078   1.226
43402W        W 9811  39.735  11.142   3.772
43403W        W 9812  22.596  33.943   1.977
43404W        W 9813   9.172  41.744  13.506
43405W        W 9814  20.294  38.381   4.606
43406W        W 9815  35.690  26.891  12.934
43407W        W 9816  14.826  20.585   3.222
43408W        W 9817   2.789   5.377   4.585
43409W        W 9818  35.067  11.904  12.952
43410W        W 9819   9.821  39.889  13.392
43411W        W 9820   7.877  32.686   0.230
43412W        W 9821   9.065  20.717  13.254
43413W        W 9822   8.417   3.415   2.136
43414W        W 9823  44.499  43.539  11.530
43415W        W 9824  34.274   9.656  12.738
43416W        W 9825  42.273  43.467   1.297
43417W        W 9826   9.941  12.865  13.424
43418W        W 9827  20.556  27.794  12.554
43419W        W 9828  15.854   6.640  12.581
43420W        W 9829  23.482  34.131   2.834
43421W        W 9830   5.162   2.803  12.355
43422W        W 9831  17.548  38.103  14.372
43423W        W 9832   3.148  39.804  14.554
43424W        W 9833  44.644   6.932   0.762
43425W        W 9834  28.948  42.061  14.284
43426W        W 9835   3.836  41.097   3.593
43427W        W 9836  33.908  30.026  12.003
43428W        W 9837  19.153   5.894  13.938
43429W        W 9838  19.711  33.416   4.900
43430W        W 9839  18.804  36.637   9.951
43431W        W 9840   4.827  25.626   0.958
43432W        W 9841  43.381  30.191   3.872
43433W        W 9842   0.331  22.193  13.030
43434W        W 9843  40.117  44.932   2.633
43435W        W 9844   6.699  23.972   2.066
43436W        W 9845  40.830  37.894   0.373
43437W        W 9846  29.833  33.692  12.386
43438W        W 9847   7.936  28.173   1.865
43439W        W 9848  18.347  13.529   4.511
43440W        W 9849  23.006  27.706  11.597
43441W        W 9850   2.265  38.820   5.089
43442W        W 9851   9.867  11.637   4.096
43443W        W 9852  17.174  31.002   0.294
43444W        W 9853  22.229   0.833  10.588
43445W        W 9854  30.118   8.419   3.464
43446W        W 9855  18.195  15.174   1.631
43447W        W 9856  24.216  17.343   4.528
43448W        W 9857  28.500  14.750  10.521
43449W        W 9858  34.635  19.153  13.685
43450W        W 9859  43.925  20.323  11.608
43451W        W 9860  16.935  34.933   1.746
43452W        W 9861  13.529   3.547  13.772
43453W        W 9862  19.607   4.596  10.815
43454W        W 9863   4.322  37.718  14.915
43455W        W 9864  16.731  13.813  10.429
43456W        W 9865  20.059  15.060  10.609
43457W        W 9866  31.700  35.377   2.350
43458W        W 9867  33.330   5.714   2.344
43459W        W 9868  28.166   8.654  12.357
43460W        W 9869   1.806  40.319  14.998
43461W        W 9870   3.685  24.289  11.086
43462W        W 9871  27.517   3.165   1.254
43463W        W 9872  16.362  35.018   2.936
43464W        W 9873   4.586   2.527   2.212
43465W        W 9874  42.933  24.340   2.650
43466W        W 9875   9.710  14.079   0.928
43467W        W 9876  37.437   1.086  14.746
43468W        W 9877  16.843  31.043  14.902
43469W        W 9878  34.430  13.880  14.819
43470W        W 9879  12.089  44.441   4.712
43471W        W 9880  21.686  29.463   3.607
43472W        W 9881  10.901   9.149  12.615
43473W        W 9882   7.228  35.965   0.933
43474W        W 9883  15.658   3.742  11.844
43475W        W 9884  43.427  41.489   2.152
43476W        W 9885   8.840  24.118   4.139
43477W        W 9886  33.100  34.953  14.996
43478W        W 9887  36.759  11.782   1.349
43479W        W 9888   3.692  19.268   2.676
43480W        W 9889   9.396  31.670  12.150
43481W        W 9890  13.258  37.064   1.435
43482W        W 9891  44.008   1.953   1.778
43483W        W 9892  29.875   3.122   4.983
43484W        W 9893   0.334  21.804  12.061
43485W        W 9894  28.215  34.488   2.420
43486W        W 9895   5.110  44.882  14.432
43487W        W 9896  37.435  37.162  12.616
43488W        W 9897   9.592  28.405   2.247
43489W        W 9898  31.959   6.893   1.962
43490W        W 9899  34.079  23.218   4.526
43491W        W 9900  33.644   8.350   0.830
43492W        W 9901  32.969   6.838  10.588
43493W        W 9902  30.490   0.672   2.722
43494W        W 9903  36.560   7.914   0.670
43495W        W 9904  26.213  17.183  14.943
43496W        W 9905  34.554  23.372   4.666
43497W        W 9906   6.251  21.185   0.346
43498W        W 9907  10.216   8.976  11.878
43499W        W 9908   0.508  14.753   3.044
43500W        W 9909  35.835  13.380   4.259
43501W        W 9910  19.121  16.108  12.989
43502W        W 9911  38.394  17.023   0.851
43503W        W 9912  35.508  37.596  12.388
43504W        W 9913  37.159  16.402   0.106
43505W        W 9914   2.813  41.985   3.187
43506W        W 9915   5.758  30.159   2.648
43507W        W 9916  39.089   0.420   4.365
43508W        W 9917  17.801  15.788   4.601
43509W        W 9918   1.216  20.182  11.126
43510W        W 9919   0.700  40.196  10.705
43511W        W 9920  26.950   0.315  12.850
43512W        W 9921  25.861   4.398  12.896
43513W        W 9922  24.710  34.188   3.312
43514W        W 9923  37.973  26.797   4.240
43515W        W 9924  31.717  10.135  10.700
43516W        W 9925  19.913  32.504  14.475
43517W        W 9926  41.546  30.087   0.756
43518W        W 9927  41.995   2.873  10.854
43519W        W 9928  41.387  17.173  13.741
43520W        W 9929   2.999  10.801  13.703
43521W        W 9930   1.555  34.387   0.412
43522W        W 9931  34.128  17.353   4.853
43523W        W 9932   2.513  31.705  14.099
43524W        W 9933  44.971  18.314   0.285
43525W        W 9934  28.959  16.562   4.470
43526W        W 9935   8.741  25.124  10.183
43527W        W 9936   7.428  30.390   3.755
43528W        W 9937  12.353  15.864  11.219
43529W        W 9938   3.969  37.543   2.223
43530W        W 9939  16.068  34.402   0.948
43531W        W 9940   4.898  32.958   3.183
43532W        W 9941  19.127   5.489  14.973
43533W        W 9942   9.998  27.720  14.242
43534W        W 9943  21.136  15.222   3.314
43535W        W 9944  26.473  44.368   1.960
43536W        W 9945  22.340   3.237   3.843
43537W        W 9946   4.442  13.215  13.336
43538W        W 9947  34.104  43.787   4.116
43539W        W 9948  33.502  29.520   3.195
43540W        W 9949  23.161  26.112  10.376
43541W        W 9950  33.415  44.727  11.871
43542W        W 9951  23.021  19.226   2.840
43543W        W 9952  11.440   4.912  14.902
43544W        W 9953  24.391   8.597  14.374
43545W        W 9954  23.752  42.901  13.749
43546W        W 9955  12.760   3.168   0.806
43547W        W 9956  32.597   5.727  11.674
43548W        W 9957   3.874  37.517  12.044
43549W        W 9958  29.963  30.244  13.105
43550W        W 9959  28.900  21.255   3.820
43551W        W 9960  35.176  43.698   1.276
43552W        W 9961  35.916  34.068   1.349
43553W        W 9962  29.697  15.724  13.092
43554W        W 9963  22.485   5.355   3.664
43555W        W 9964   6.487   1.018  11.120
43556W        W 9965  29.113  33.978   2.624
43557W        W 9966  31.478  33.448  13.624
43558W        W 9967  39.007  13.100   1.777
43559W        W 9968  22.423  15.136  13.492
43560W        W 9969  32.018  12.181   1.297
43561W        W 9970  30.916  29.456   3.179
43562W        W 9971  35.627  19.592  14.001
43563W        W 9972   1.713  15.922  12.366
43564W        W 9973  35.967   1.855  10.217
43565W        W 9974  20.233   3.769   4.711
43566W        W 9975  16.247  41.759  14.265
43567W        W 9976  38.614  31.948   3.693
43568W        W 9977  23.238  28.419  14.383
43569W        W 9978   1.662  19.564   0.722
43570W        W 9979  42.590  26.386  11.569
43571W        W 9980   0.904  29.615   2.239
43572W        W 9981  22.311  22.140  11.192
43573W        W 9982  38.871   8.213   3.392
43574W        W 9983  10.360  43.642  13.260
43575W        W 9984   0.269  23.769   3.479
43576W        W 9985   7.887  32.924  11.999
43577W        W 9986  12.091  39.622  11.166
43578W        W 9987  15.208  30.013   4.463
43579W        W 9988  32.648   0.891   0.751
43580W        W 9989   3.220  28.102  14.583
43581W        W 9990  21.014   1.410   1.978
43582W        W 9991  44.437  34.821   1.220
43583W        W 9992  34.022  10.835   3.382
43584W        W 9993  38.798   7.596  13.118
43585W        W 9994  17.495   3.257  14.455
43586W        W 9995  36.140  23.621  12.995
43587W        W 9996  33.581  28.189  12.053
43588W        W 9997  33.184   8.686  11.984
43589W        W 9998  29.276  20.734   2.218
43590W        W 9999  19.492  16.158  11.401
43591W        W10000   0.445  26.584  11.555
43592W        W10001  23.484  22.707  12.659
43593W        W10002  36.531  24.950  14.476
43594W        W10003   3.283  33.959  14.574
43595W        W10004   1.315   9.764  11.462
43596W        W10005   4.235  34.319  12.079
43597W        W10006   2.893  40.599  14.436
43598W        W10007  27.397   7.185   3.281
43599W        W10008   4.679  41.281   3.128
43600W        W10009  15.222  18.228  11.706
43601W        W10010  43.947  22.616   4.575
43602W        W10011   6.974  35.827  12.905
43603W        W10012  44.956   2.506  13.541
43604W        W10013  13.347  36.067   1.359
43605W        W10014  31.856  35.991   0.412
43606W        W10015  36.106  28.360   4.720
43607W        W10016   7.277  11.044   2.640
43608W        W10017  37.643  44.298  10.549
43609W        W10018   3.240  30.926  14.828
43610W        W10019  28.858  42.760   0.499
43611W        W10020  39.819   2.191  12.966
43612W        W10021   8.193  16.682   0.280
43613W        W10022  13.097  35.853  10.908
43614W        W10023   5.269  24.976   0.256
43615W        W10024  36.879  23.475  10.269
43616W        W10025  36.479   4.991   0.960
43617W        W10026   3.051  23.542   1.681
43618W        W10027  30.502  40.081   0.549
43619W        W10028  32.165  24.606   0.360
43620W        W10029  19.742  17.897   1.842
43621W        W10030  35.419  14.122  12.978
43622W        W10031  37.606  25.804  13.839
43623W        W10032  38.859  13.008   3.963
43624W        W10033  25.923  38.885  11.563
43625W        W10034   9.371  17.218  12.075
43626W        W10035  14.214  26.591   1.438
43627W        W10036  42.728   4.313   3.377
43628W        W10037  25.668  42.747  12.027
43629W        W10038  25.245  19.549   4.126
43630W        W10039  34.937  33.046   4.032
43631W        W10040  44.010   5.279  11.149
43632W        W10041   3.842  37.891   0.729
43633W        W10042  40.051  31.136  11.878
43634W        W10043  31.758  23.093   1.407
43635W        W10044  36.794   1.034   4.117
43636W        W10045  11.261  40.120   4.095
43637W        W10046  42.413  26.709   3.623
43638W        W10047  10.315  29.957   5.365
43639W        W10048  42.034  32.997  11.002
43640W        W10049   8.720  25.238   2.408
43641W        W10050  32.492  22.777   0.334
43642W        W10051  34.904   9.083  14.509
43643W        W10052   4.734  30.355  10.203
43644W        W10053  20.151  33.961   2.918
43645W        W10054  35.694  34.995   1.877
43646W        W10055  20.742  29.903   2.682
43647W        W10056  34.369  39.008  10.724
43648W        W10057  10.814  15.701  11.062
43649W        W10058   6.475  39.391  14.148
43650W        W10059  14.354  27.295   0.829
43651W        W10060  37.293  16.247  12.631
43652W        W10061  23.242  29.836   1.000
43653W        W10062  38.170  10.231   0.337
43654W        W10063   9.558  43.490   5.715
43655W        W10064  37.384   0.922  12.850
43656W        W10065  24.374  17.116   3.678
43657W        W10066  28.056   9.263  13.846
43658W        W10067   1.851  11.934   2.200
43659W        W10068  15.698  18.117   5.067
43660W        W10069  30.043   8.859   3.725
43661W        W10070  29.224  22.464  14.185
43662W        W10071   7.156  21.661  13.772
43663W        W10072  17.419  32.529   4.658
43664W        W10073  34.070  43.479  11.615
43665W        W10074  26.805   4.449   2.178
43666W        W10075  30.118   2.733  12.064
43667W        W10076   0.377  42.411  12.007
43668W        W10077   4.871   3.779  10.173
43669W        W10078  16.588  35.678   1.353
43670W        W10079  14.399   3.385   3.715
43671W        W10080  34.932  19.643  14.057
43672W        W10081   1.902  35.742   1.428
43673W        W10082  11.868   7.732   3.862
43674W        W10083  19.466  26.969   0.892
43675W        W10084  34.991   6.006  11.144
43676W        W10085   7.892  44.329   1.701
43677W        W10086  40.011  33.208  12.936
43678W        W10087   3.441   5.343  10.829
43679W        W10088  33.454  27.239   0.288
43680W        W10089  20.276  35.018  13.607
43681W        W10090   7.804  42.135  12.248
43682W        W10091  21.688  22.081  11.396
43683W        W10092  41.462  17.705   3.857
43684W        W10093  27.454  44.051   1.749
43685W        W10094   8.944  26.644  14.366
43686W        W10095  14.340  15.981   0.478
43687W        W10096  16.392   8.219  14.215
43688W        W10097  23.420  26.013   3.321
43689W        W10098  26.184  30.886  12.958
43690W        W10099  15.086  34.208   2.243
43691W        W10100  14.596   0.461  11.512
43692W        W10101  39.935  21.689   1.667
43693W        W10102  26.134  35.083  14.535
43694W        W10103  16.545  26.535   1.769
43695W        W10104  39.857  12.432  11.567
43696W        W10105  13.695  44.863  10.676
43697W        W10106  39.262  28.675   4.086
43698W        W10107  37.688   0.390   0.872
43699W        W10108   8.351  15.831  14.725
43700W        W10109  14.069  43.680  11.850
43701W        W10110  44.856  26.981   2.129
43702W        W10111  39.487  13.318  13.403
43703W        W10112  24.185  11.271   0.824
43704W        W10113   0.603   6.919  12.946
43705W        W10114  44.853  21.731  14.438
43706W        W10115  40.784  33.524   1.829
43707W        W10116  26.378  24.042   2.595
43708W        W10117  11.739  31.077   1.792
43709W        W10118   4.265  27.495   0.848
43710W        W10119  30.620   1.089  10.690
43711W        W10120  23.780  31.848  14.438
43712W        W10121   4.833   8.757   0.875
43713W        W10122  35.826   7.258  11.476
43714W        W10123  33.364   4.917   3.117
43715W        W10124  28.950  28.662  12.070
43716W        W10125  27.740  30.164  14.897
43717W        W10126   7.669  14.791   2.816
43718W        W10127  29.574   0.514   3.153
43719W        W10128   2.137   0.908  14.784
43720W        W10129  27.211  34.785  13.840
43721W        W10130  22.688  28.223   2.756
43722W        W10131  36.500  20.430   3.612
43723W        W10132   6.810  36.925   2.889
43724W        W10133  38.188  29.660   3.334
43725W        W10134  42.567  16.890   1.874
43726W        W10135  32.886   3.189   0.675
43727W        W10136  21.563  43.446  12.179
43728W        W10137  44.900   6.212  14.825
43729W        W10138  19.651  25.489  10.880
43730W        W10139  12.821  13.777  14.811
43731W        W10140  26.999  24.950  11.648
43732W        W10141  32.120   2.356   3.068
43733W        W10142   7.672  34.579  14.393
43734W        W10143  13.560  27.719  14.478
43735W        W10144  25.119  18.551   5.008
43736W        W10145  23.477  32.624  11.973
43737W        W10146  40.317  20.969   0.361
43738W        W10147  44.367  15.293   4.051
43739W        W10148  13.372  14.537  14.449
43740W        W10149  44.490   5.793   3.571
43741W        W10150  37.605  37.418   0.706
43742W        W10151  13.664  37.997  11.554
43743W        W10152   5.355  28.199   3.989
43744W        W10153   8.803  36.152  10.800
43745W        W10154  27.293  38.363  13.543
43746W        W10155  28.382  25.684   3.259
43747W        W10156  22.398  16.724  11.400
43748W        W10157  32.153  32.559   2.950
43749W        W10158  26.633  18.075   1.127
43750W        W10159   8.825  39.038   0.737
43751W        W10160  15.498  21.057  14.672
43752W        W10161  25.056   8.355   0.101
43753W        W10162   4.408   1.278   0.668
43754W        W10163  22.016  17.258  12.610
43755W        W10164  30.620  31.440  13.186
43756W        W10165  28.167  15.080   0.928
43757W        W10166  28.052   5.708  14.979
43758W        W10167  27.658   0.359   1.507
43759W        W10168  36.406  12.935  10.635
43760W        W10169  28.978  30.209   3.752
43761W        W10170  14.399  13.307   2.798
43762W        W10171  37.553  10.874  13.903
43763W        W10172  38.936  21.769   3.598
43764W        W10173  17.098  36.953  11.983
43765W        W10174  39.250   4.118  11.931
43766W        W10175  21.088  43.851  13.319
43767W        W10176  19.058  13.229  13.440
43768W        W10177  34.040  27.797   4.828
43769W        W10178  16.248  21.139   1.069
43770W        W10179  25.343  35.858   3.751
43771W        W10180   2.211   9.352   1.776
43772W        W10181   9.371  39.333   3.215
43773W        W10182   4.795  35.455   3.770
43774W        W10183  42.344  32.383  14.514
43775W        W10184   9.881  19.710   2.098
43776W        W10185  38.283   0.237  13.447
43777W        W10186   8.498  18.662  13.959
43778W        W10187  12.859  28.075  11.597
43779W        W10188  29.680  28.563  13.080
43780W        W10189  27.681  20.349  11.862
43781W        W10190  18.312   1.893   0.332
43782W        W10191   5.983  29.874   4.013
43783W        W10192   0.277  24.410   2.722
43784W        W10193   8.845  34.147   3.930
43785W        W10194  38.522   8.184   2.275
43786W        W10195  13.938   3.977   3.271
43787W        W10196   4.355   3.691  12.020
43788W        W10197   2.247  33.554   4.231
43789W        W10198  42.974  37.817   3.075
43790W        W10199  10.418   9.135  13.930
43791W        W10200  23.037  10.318   2.651
43792W        W10201  31.127  17.229   1.663
43793W        W10202  21.680  22.275  10.448
43794W        W10203  40.946   1.786   4.390
43795W        W10204   4.229  28.948  14.530
43796W        W10205  15.536  23.765   1.730
43797W        W10206  33.985  36.567   3.361
43798W        W10207  22.219  17.454   4.595
43799W        W10208  10.316  34.561   0.302
43800W        W10209  21.621  10.176   1.223
43801W        W10210  31.563  22.142  10.430
43802W        W10211  12.894  41.820   1.881
43803W        W10212   3.990   4.595   3.623
43804W        W10213  12.322  20.116  14.782
43805W        W10214  38.917  21.211   4.702
43806W        W10215  41.486  29.658  11.488
43807W        W10216  27.769   0.886   0.297
43808W        W10217   8.595  12.693  13.300
43809W        W10218  40.809  11.337  11.496
43810W        W10219  24.749  44.424   2.255
43811W        W10220  33.999  41.414   5.191
43812W        W10221  43.005   0.374   3.863
43813W        W10222  18.763   3.999   2.733
43814W        W10223  21.944  42.924   1.901
43815W        W10224  31.890  14.173   2.994
43816W        W10225  32.054  27.906  13.520
43817W        W10226  42.686  24.005   2.085
43818W        W10227   2.010  24.813   4.199
43819W        W10228   9.679  44.377  11.510
43820W        W10229  43.394  27.033   1.779
43821W        W10230  28.920  22.105  13.010
43822W        W10231  15.640  44.652   5.189
43823W        W10232   7.158   6.412  12.502
43824W        W10233   6.448  24.492   3.586
43825W        W10234   7.138   5.653   3.272
43826W        W10235   2.395  29.679   1.684
43827W        W10236   8.718  12.818   4.624
43828W        W10237  14.472   4.581   2.065
43829W        W10238  12.838  26.985   0.437
43830W        W10239  26.411   1.004   2.675
43831W        W10240  41.209  20.150   0.449
43832W        W10241  32.875  32.101   4.188
43833W        W10242   6.815  35.545   2.701
43834W        W10243  17.695  11.898  12.321
43835W        W10244   2.872   5.639  14.405
43836W        W10245  10.809  26.103   2.604
43837W        W10246  14.734  15.098  13.556
43838W        W10247   4.839   1.068   2.285
43839W        W10248  42.714   1.341   2.431
43840W        W10249  36.061   8.373   1.772
43841W        W10250  15.073  18.631   3.581
43842W        W10251  22.558  36.382   4.868
43843W        W10252   2.812  26.256   1.765
43844W        W10253  36.189  20.141   4.852
43845W        W10254  10.546  19.138  14.477
43846W        W10255  25.084  25.454   2.247
43847W        W10256  31.208   0.522  13.047
43848W        W10257   6.918  42.575   4.810
43849W        W10258   2.757   0.965   4.090
43850W        W10259  11.025   4.878   0.722
43851W        W10260  39.886   9.119   1.748
43852W        W10261   3.068  12.443  14.314
43853W        W10262  12.197  41.909   3.401
43854W        W10263  36.861  42.353  14.762
43855W        W10264  42.817  11.893   0.922
43856W        W10265  34.140  33.597   0.782
43857W        W10266  11.644  17.477   1.249
43858W        W10267  10.508  38.260   2.324
43859W        W10268   0.969  18.430   0.532
43860W        W10269   5.389  26.574   2.894
43861W        W10270  37.380  40.382  13.955
43862W        W10271  24.116   5.854  13.174
43863W        W10272  39.238  35.078  12.019
43864W        W10273  44.049  20.384  14.526
43865W        W10274  29.441  40.325  11.483
43866W        W10275  24.526  41.989   2.148
43867W        W10276  10.380  37.805   2.779
43868W        W10277  12.221  39.620   4.283
43869W        W10278  32.151   9.576   1.918
43870W        W10279  10.671  26.536  11.977
43871W        W10280  20.567  19.102   4.219
43872W        W10281  11.608  38.300  12.077
43873W        W10282  42.844  17.118  10.978
43874W        W10283  19.675  26.923   1.394
43875W        W10284  16.354   6.787   4.692
43876W        W10285   0.505  23.015  12.613
43877W        W10286   2.313  32.858   3.472
43878W        W10287  42.427  19.227   4.163
43879W        W10288  19.013  29.527   0.786
43880W        W10289  14.768  15.551   3.106
43881W        W10290   8.763  13.791  11.250
43882W        W10291  10.843  10.334   1.981
43883W        W10292  33.920  31.371   3.126
43884W        W10293  35.017   2.295  10.067
43885W        W10294  16.780  43.559  14.888
43886W        W10295  42.373  24.189   4.642
43887W        W10296  29.727  21.510   3.329
43888W        W10297  36.730  33.025   3.290
43889W        W10298  25.920  44.316   2.855
43890W        W10299  40.318  31.132   1.767
43891W        W10300  33.944  35.603   4.183
43892W        W10301  44.415  10.816   2.644
43893W        W10302  18.767  27.725   1.383
43894W        W10303  30.278  37.779  12.875
43895W        W10304  35.610  19.744   1.351
43896W        W10305  24.717  25.679  12.134
43897W        W10306  29.913  44.866  13.065
43898W        W10307  25.058  26.446  10.395
43899W        W10308  37.945  35.280   2.424
43900W        W10309  27.143  23.024   9.894
43901W        W10310  23.329  29.469   1.377
43902W        W10311  20.190  37.591   5.137
43903W        W10312  34.449   6.186  13.094
43904W        W10313   3.790  43.982  12.350
43905W        W10314  10.395  38.851  14.901
43906W        W10315  24.966  26.612   0.989
43907W        W10316  14.398  30.541  11.701
43908W        W10317  40.684   5.379   3.892
43909W        W10318  32.195  44.526   2.788
43910W        W10319  42.203  24.713  11.101
43911W        W10320  13.585  39.990  14.853
43912W        W10321   3.816  31.600  11.464
43913W        W10322   5.384   7.271  10.728
43914W        W10323  37.339  12.269  12.343
43915W        W10324  38.099   6.846   0.516
43916W        W10325  31.509  31.979  14.385
43917W        W10326   3.792  28.171   0.850
43918W        W10327  37.332  35.590   1.284
43919W        W10328   6.552   1.786  12.046
43920W        W10329  42.949   5.786   0.211
43921W        W10330  16.095  31.130  12.958
43922W        W10331  41.896  23.913  11.321
43923W        W10332  15.465  34.405   4.123
43924W        W10333  38.953   7.716  11.525
43925W        W10334  33.491  25.806  14.790
43926W        W10335  27.593  44.485   2.342
43927W        W10336  39.000  39.040   3.581
43928W        W10337  25.690  42.527   2.263
43929W        W10338  21.589  11.734   4.195
43930W        W10339   7.183   4.926  10.162
43931W        W10340  30.357  42.985  12.390
43932W        W10341  36.535  11.417   3.939
43933W        W10342   0.248  20.449   3.233
43934W        W10343  23.729   9.244   3.791
43935W        W10344  31.671  17.562  10.598
43936W        W10345  23.378  35.183  12.104
43937W        W10346  13.805  37.373  14.613
43938W        W10347  38.101  35.393  13.427
43939W        W10348  40.512  29.212   1.267
43940W        W10349  15.713  27.514  11.465
43941W        W10350   3.341  44.091   2.759
43942W        W10351  33.143  18.864  14.980
43943W        W10352  19.659  26.731  13.822
43944W        W10353   3.144   9.692  14.895
43945W        W10354   7.235  21.298   4.533
43946W        W10355  16.145   4.478  13.074
43947W        W10356  22.973  32.234   1.241
43948W        W10357  40.349   4.742   3.622
43949W        W10358  38.564  18.992  12.830
43950W        W10359  20.643  28.897  10.852
43951W        W10360  23.976  41.369  11.293
43952W        W10361  38.477   2.305  14.857
43953W        W10362  24.718   0.522   4.523
43954W        W10363  24.519  18.308  11.954
43955W        W10364  31.174  18.585  12.151
43956W        W10365  12.201  15.298   2.349
43957W        W10366   3.811  25.234   4.827
43958W        W10367  21.189  23.620   0.444
43959W        W10368  35.650  37.092  10.912
43960W        W10369  40.842  35.840   0.444
43961W        W10370  33.974  16.517  14.998
43962W        W10371  20.258  19.725  11.519
43963W        W10372   5.836  24.844   1.388
43964W        W10373  18.729  19.282  11.981
43965W        W10374  25.181  20.330   2.616
43966W        W10375  11.717  20.751   4.535
43967W        W10376  12.865  31.246  12.631
43968W        W10377   4.767   0.671   0.850
43969W        W10378  13.662  34.031  14.493
43970W        W10379  13.458  38.155   3.471
43971W        W10380   3.015  18.709  10.677
43972W        W10381   8.050  16.808   4.786
43973W        W10382  25.512  17.500   3.180
43974W        W10383  40.862  34.125  12.148
43975W        W10384  26.382  30.273  12.368
43976W        W10385   7.130   2.805  11.230
43977W        W10386  20.265  12.183  11.997
43978W        W10387  19.176  28.489   2.132
43979W        W10388  10.292  38.861   5.174
43980W        W10389   4.378  15.227  10.287
43981W        W10390  33.800   6.808  10.982
43982W        W10391   2.253  13.261   0.320
43983W        W10392  25.368  39.919   0.383
43984W        W10393  27.437  15.508   1.144
43985W        W10394  23.150  41.539   2.893
43986W        W10395  22.476  40.600  12.550
43987W        W10396  22.919  25.142   4.973
43988W        W10397  30.565  35.002  12.513
43989W        W10398   3.694  25.686  14.633
43990W        W10399   4.481  14.314   3.134
43991W        W10400  11.644   1.399  14.344
43992W        W10401  35.232  36.609  14.303
43993W        W10402  31.455  23.415   0.497
43994W        W10403  34.954  12.826  14.445
43995W        W10404  31.116  16.230   1.805
43996W        W10405   8.925   1.560   2.634
43997W        W10406  12.151  25.205  12.857
43998W        W10407  19.357  43.824  12.404
43999W        W10408   9.454   4.365   0.871
44000W        W10409  16.321  13.343  14.748
44001W        W10410  10.702   5.148   0.414
44002W        W10411  20.098  39.100   1.313
44003W        W10412  26.654  11.777   3.079
44004W        W10413   5.348  20.750  13.338
44005W        W10414  14.135  18.546   1.955
44006W        W10415  42.435  26.217   0.821
44007W        W10416  20.698  22.606   0.580
44008W        W10417   2.658  26.065  11.195
44009W        W10418   3.880  14.080   2.175
44010W        W10419  24.908  26.647   3.634
44011W        W10420  28.826  15.955  12.839
44012W        W10421  43.336  10.122  14.381
44013W        W10422  21.618  11.118   3.049
44014W        W10423  30.404   6.858  13.834
44015W        W10424  30.689  33.483  10.482
44016W        W10425  18.186  33.705   2.015
44017W        W10426   2.186  12.795  11.277
44018W        W10427  40.044  41.094   1.686
44019W        W10428  33.502  38.254  14.477
44020W        W10429  41.331  13.682  10.628
44021W        W10430   7.574   8.752   3.644
44022W        W10431  20.127  21.247  14.874
44023W        W10432  38.825  11.261  14.787
44024W        W10433  11.584   7.293  10.558
44025W        W10434  33.481  29.433  14.079
44026W        W10435  29.544   4.833   4.481
44027W        W10436  35.993   8.415   4.580
44028W        W10437  33.922  21.822   1.301
44029W        W10438  30.303  17.615  13.870
44030W        W10439   4.682  14.341  14.282
44031W        W10440  25.631   6.752  12.011
44032W        W10441  14.405  26.959   0.255
44033W        W10442  11.204  42.795  13.668
44034W        W10443  42.934  16.294   1.240
44035W        W10444  27.018  12.199  12.118
44036W        W10445   2.382  25.344   0.982
44037W        W10446  30.019  40.182  13.405
44038W        W10447  14.736   8.828   1.494
44039W        W10448  44.682   6.173  14.088
44040W        W10449  25.779  28.147   3.741
44041W        W10450   4.965  13.375   1.700
44042W        W10451  33.009  27.097   2.986
44043W        W10452  17.530  20.530  11.629
44044W        W10453  14.547  40.754   2.793
44045W        W10454  30.954  10.992  14.970
44046W        W10455   8.248  24.975  14.238
44047W        W10456  11.153  29.106  13.615
44048W        W10457  14.080  19.154   1.363
44049W        W10458  34.697  32.536  14.057
44050W        W10459  38.338  19.846   2.710
44051W        W10460  17.249  42.437  12.565
44052W        W10461  28.041   7.825  13.911
44053W        W10462  20.577  14.581   4.165
44054W        W10463  41.526  28.168   2.752
44055W        W10464  31.730  25.059  10.125
44056W        W10465  20.690  12.845   2.403
44057W        W10466  34.521   2.555   0.176
44058W        W10467  30.538   0.121  14.687
44059W        W10468  30.709  40.352   3.676
44060W        W10469  33.841  19.934   0.722
44061W        W10470  29.472  10.254  10.729
44062W        W10471  28.910   0.626  13.348
44063W        W10472  15.290  22.000  13.909
44064W        W10473  34.172  41.630   4.195
44065W        W10474  11.929  37.547   3.114
44066W        W10475  21.355   2.979   4.844
44067W        W10476  30.568  17.680   0.525
44068W        W10477  16.302  40.863   2.434
44069W        W10478  31.610  20.119  13.027
44070W        W10479   3.476  33.464   1.945
44071W        W10480  21.092  21.741  12.069
44072W        W10481   9.318   8.958   4.676
44073W        W10482   6.953  22.733   1.178
44074W        W10483  16.022  17.357  14.061
44075W        W10484  42.622  43.313  13.923
44076W        W10485   5.079  24.571   2.073
44077W        W10486   2.216  12.200   1.261
44078W        W10487  20.264   1.060  14.488
44079W        W10488  14.256   3.582  12.141
44080W        W10489  16.341   2.967   3.756
44081W        W10490  39.745   4.267  14.407
44082W        W10491  35.181  10.521  11.020
44083W        W10492   6.565   7.184  12.866
44084W        W10493  25.761  31.850   5.036
44085W        W10494   2.561  18.374  14.971
44086W        W10495  34.794  22.549  11.597
44087W        W10496  44.756  43.598   4.518
44088W        W10497   4.746  20.173  13.844
44089W        W10498  36.934   8.289   2.252
44090W        W10499   6.677  44.908   1.855
44091W        W10500   2.902  13.635  11.973
44092W        W10501  38.871  37.007  12.839
44093W        W10502  35.907  33.911  13.971
44094W        W10503  43.278  34.405  14.346
44095W        W10504   2.858  10.722  11.194
44096W        W10505  17.578  10.791  14.624
44097W        W10506  42.888  17.333  13.725
44098W        W10507  41.530  28.190   2.177
44099W        W10508  36.491   0.820   0.676
44100W        W10509   3.703  42.099  13.094
44101W        W10510  30.020  43.840  11.187
44102W        W10511  11.855  21.741  13.132
44103W        W10512  36.815  32.086  11.887
44104W        W10513  14.898  29.945   2.384
44105W        W10514  31.789  32.646  13.996
44106W        W10515   9.784  43.157   4.170
44107W        W10516  23.870  14.718   2.674
44108W        W10517  12.074  24.504   2.731
44109W        W10518   5.276   1.266  14.037
44110W        W10519   7.305  26.234   3.777
44111W        W10520  41.334  10.672   2.595
44112W        W10521  27.849  38.037   3.417
44113W        W10522  14.906  27.537  13.957
44114W        W10523  40.128  10.543  13.355
44115W        W10524   4.694  37.001   2.814
44116W        W10525   1.993  36.886  11.720
44117W        W10526  28.443   4.150  11.126
44118W        W10527  18.162  35.863  11.566
44119W        W10528  24.736  32.755   0.870
44120W        W10529  42.037  39.369   1.760
44121W        W10530  41.839  18.700   1.589
44122W        W10531  38.290  41.317   1.418
44123W        W10532   6.314   2.173   4.376
44124W        W10533  34.081  43.180  13.107
44125W        W10534  40.536  16.181   0.809
44126W        W10535   7.666  16.255   4.148
44127W        W10536  14.075   8.418   2.967
44128W        W10537  23.521   1.920   4.848
44129W        W10538   4.932  15.296   0.857
44130W        W10539   6.701  19.641   3.444
44131W        W10540   4.618   4.364   1.439
44132W        W10541   0.736  11.667   3.661
44133W        W10542  41.359  38.699  11.193
44134W        W10543  43.975   3.239  12.922
44135W        W10544  14.669   5.745  12.461
44136W        W10545  37.124   5.257   2.822
44137W        W10546   4.805  15.181  14.361
44138W        W10547  31.904   9.671   0.029
44139W        W10548  21.712  27.092  10.749
44140W        W10549  39.157  21.148  12.417
44141W        W10550   0.236  17.204   1.226
44142W        W10551  31.574  39.239   2.906
44143W        W10552   9.140  10.458   0.974
44144W        W10553   9.416  26.787  11.564
44145W        W10554  12.098  21.486   2.853
44146W        W10555  16.823   1.283  10.620
44147W        W10556   7.278   1.115   4.857
44148W        W10557   1.757  23.902   3.366
44149W        W10558  34.102  34.914  12.469
44150W        W10559  31.170   5.814  10.975
44151W        W10560  29.578  24.421   4.591
44152W        W10561  39.275  33.580   0.038
44153W        W10562  33.107   6.886   0.064
44154W        W10563  25.514   6.227  11.946
44155W        W10564  39.157  41.514   4.924
44156W        W10565  18.328  33.470   2.446
44157W        W10566  19.716  23.001  13.959
44158W        W10567  15.702   8.845   2.304
44159W        W10568  17.569  36.033   1.624
44160W        W10569  34.759  16.498  12.039
44161W        W10570  20.552  21.671   1.760
44162W        W10571  25.568  18.690   3.341
44163W        W10572  10.768   2.477  10.830
44164W        W10573  24.609  13.392   2.785
44165W        W10574   4.937  35.329  12.426
44166W        W10575  21.829  26.186  10.580
44167W        W10576  26.974  15.822   0.268
44168W        W10577  27.744  15.395   0.763
44169W        W10578  30.736   0.863   2.299
44170W        W10579   7.667  20.131   0.848
44171W        W10580  15.886   5.379   1.766
44172W        W10581  40.585  17.251  11.317
44173W        W10582  15.786  19.076  11.784
44174W        W10583  23.972  41.592   3.211
44175W        W10584  33.407   0.290   1.924
44176W        W10585  12.623   7.225   2.266
44177W        W10586   2.188  30.583  11.316
44178W        W10587  29.102   4.070   0.716
44179W        W10588  20.113  31.895   0.970
44180W        W10589   4.237  40.835  11.981
44181W        W10590  21.497  30.036  14.935
44182W        W10591  12.052  17.354   3.302
44183W        W10592  34.803  44.850   4.208
44184W        W10593   9.989  19.639  14.364
44185W        W10594  13.719   4.377   4.483
44186W        W10595  32.802   4.788  12.362
44187W        W10596  19.212  12.334  11.946
44188W        W10597  29.111  28.937   3.894
44189W        W10598  42.049   0.706  10.767
44190W        W10599  40.072  10.414  14.086
44191W        W10600  28.444  12.384   0.457
44192W        W10601  12.093  42.031  12.498
44193W        W10602  16.713  22.235  11.558
44194W        W10603   6.582  30.013  14.534
44195W        W10604  23.129  44.011   2.782
44196W        W10605  13.176  42.458   1.871
44197W        W10606   5.252  11.084  10.872
44198W        W10607  23.999  31.203  10.682
44199W        W10608  41.227  44.513  14.845
44200W        W10609  32.791   1.941   2.069
44201W        W10610   4.310  18.194   1.236
44202W        W10611  32.040  31.992   0.911
44203W        W10612  40.977   1.254  11.543
44204W        W10613  32.465  39.991  13.380
44205W        W10614  22.798  13.129  13.174
44206W        W10615  28.252  31.504   4.569
44207W        W10616  12.840  36.806   4.172
44208W        W10617  29.688  43.497  10.995
44209W        W10618   1.802   5.386   0.042
44210W        W10619  18.812  43.063  12.887
44211W        W10620   0.336  12.822  11.686
44212W        W10621   7.736  11.187   3.708
44213W        W10622  11.389  41.218   3.273
44214W        W10623  11.586  34.376   0.744
44215W        W10624  33.014  18.224   2.189
44216W        W10625  38.746  20.465  11.310
44217W        W10626  23.623  37.421  14.745
44218W        W10627  27.139  24.976   3.170
44219W        W10628  20.537   0.253  12.337
44220W        W10629  37.000  17.116   2.698
44221W        W10630  28.453   7.387  14.862
44222W        W10631  41.941  42.528  10.596
44223W        W10632  36.854   8.650   1.791
44224W        W10633  11.803  29.381  12.872
44225W        W10634  23.584  37.482  14.204
44226W        W10635   6.653  10.146   0.446
44227W        W10636  10.638  13.700   0.794
44228W        W10637  13.188   4.990  12.079
44229W        W10638   0.783  17.824   4.602
44230W        W10639   8.208  27.562   0.506
44231W        W10640   3.478  43.239  10.970
44232W        W10641  44.244  27.557  12.580
44233W        W10642   5.515  33.152  11.412
44234W        W10643  18.498  40.049   0.624
44235W        W10644  14.892  28.623  13.399
44236W        W10645  36.523  19.267   3.155
44237W        W10646  27.071  27.239  11.079
44238W        W10647  23.025  36.313  12.419
44239W        W10648  19.790  22.215  11.184
44240W        W10649  12.263  38.828   2.880
44241W        W10650  24.065  32.182  13.264
44242W        W10651   2.977  34.478  11.694
44243W        W10652  19.963  38.898   3.290
44244W        W10653  32.618   8.523   2.787
44245W        W10654  39.384  21.751  14.543
44246W        W10655  28.971   2.331   2.274
44247W        W10656   7.372   3.670  14.737
44248W        W10657   4.761  38.421  11.603
44249W        W10658  35.000  32.419  14.937
44250W        W10659  42.083  23.520  14.528
44251W        W10660  40.778  22.524   3.289
44252W        W10661  13.994   5.790   4.655
44253W        W10662  33.478  26.512   2.883
44254W        W10663   2.333  30.869  13.816
44255W        W10664  13.049  31.669  10.964
44256W        W10665  24.609  12.663  14.621
44257W        W10666  20.509  22.539   3.171
44258W        W10667   9.268   8.702   2.414
44259W        W10668  35.910  14.610   3.257
44260W        W10669  14.827  34.012   4.377
44261W        W10670  25.025  28.507   3.713
44262W        W10671  11.833   2.917  10.184
44263W        W10672  19.212  32.461  10.828
44264W        W10673  40.119  41.014  12.845
44265W        W10674   9.114  40.439   3.639
44266W        W10675  33.525  32.732   3.271
44267W        W10676  24.457   1.515  10.544
44268W        W10677  32.902  22.491   0.932
44269W        W10678  34.841  32.958   3.515
44270W        W10679  28.264   5.723   0.469
44271W        W10680  42.150  30.418   2.337
44272W        W10681  25.093  13.623   3.948
44273W        W10682  40.817   9.681   3.708
44274W        W10683   1.344  34.019   0.096
44275W        W10684  32.519   8.447   4.211
44276W        W10685  16.558  33.933   2.393
44277W        W10686  11.411  10.557  14.599
44278W        W10687   1.926  16.869  14.714
44279W        W10688  30.944  12.728   2.161
44280W        W10689  14.864  28.437   4.844
44281W        W10690  18.700  25.165  11.585
44282W        W10691  32.300   4.610  14.783
44283W        W10692  23.062  20.125  14.351
44284W        W10693  16.245  41.002  11.540
44285W        W10694  27.329   9.264   2.775
44286W        W10695  23.970  34.355   1.773
44287W        W10696  43.698   4.339   4.813
44288W        W10697  31.485   1.826  13.541
44289W        W10698  12.720  10.939  12.908
44290W        W10699  20.773  41.368  14.338
44291W        W10700  15.943  19.683   4.303
44292W        W10701  37.820  43.972  11.580
44293W        W10702   3.867  23.464  12.102
44294W        W10703  19.037  40.568  13.044
44295W        W10704  16.730  20.996   0.332
44296W        W10705   0.051  13.945  11.185
44297W        W10706  31.642   2.848  12.041
44298W        W10707   7.876  12.606  10.567
44299W        W10708  16.179   3.207   1.301
44300W        W10709  26.164  28.612  12.516
44301W        W10710  19.517  36.476   4.148
44302W        W10711  11.337  10.568   0.516
44303W        W10712  34.689   4.311  13.359
44304W        W10713  38.473  40.702   0.552
44305W        W10714  31.447   1.787   4.561
44306W        W10715  37.824  40.102  14.590
44307W        W10716  35.761  31.030  14.384
44308W        W10717  18.564  21.973  13.579
44309W        W10718  22.546  14.146   4.887
44310W        W10719   4.353  19.038  11.377
44311W        W10720  33.136  16.500  12.745
44312W        W10721  26.467   2.243   2.376
44313W        W10722  11.869   0.871   3.109
44314W        W10723  36.348  28.144  12.646
44315W        W10724  35.396  38.257  14.173
44316W        W10725  21.987  34.610   4.084
44317W        W10726   7.196  13.923  12.346
44318W        W10727  38.794  35.589  12.463
44319W        W10728   5.875  37.395  12.447
44320W        W10729  38.475  31.943  14.519
44321W        W10730  25.613  36.490  14.359
44322W        W10731   1.783   9.934   3.657
44323W        W10732  22.268  26.270   1.999
44324W        W10733  37.000   1.505   0.490
44325W        W10734  26.715  44.468   1.462
44326W        W10735   6.729  34.177   1.245
44327W        W10736   6.581  20.640   4.222
44328W        W10737  41.900  20.619  11.831
44329W        W10738  33.153  18.143   2.667
44330W        W10739  24.956  11.086   2.801
44331W        W10740   7.272  28.452   4.120
44332W        W10741   6.163   7.867  10.656
44333W        W10742  25.451  18.396   3.754
44334W        W10743  11.309  12.340   4.520
44335W        W10744  11.056   4.234  13.961
44336W        W10745  16.036  12.584   0.367
44337W        W10746  21.587   1.938   1.786
44338W        W10747  31.915  40.421  14.409
44339W        W10748  14.582  20.801  13.887
44340W        W10749  34.373  38.441   3.369
44341W        W10750  42.297  41.086   1.328
44342W        W10751  34.321  32.461  13.682
44343W        W10752  40.851  27.059   0.527
44344W        W10753  19.506  41.924   2.735
44345W        W10754  11.148  39.276  11.996
44346W        W10755   4.014  34.416  14.442
44347W        W10756  10.610  40.579   3.641
44348W        W10757  26.201  36.016  14.291
44349W        W10758  14.490  33.155   1.256
44350W        W10759   6.936  44.961  10.601
44351W        W10760  38.015   9.220  14.421
44352W        W10761  31.046  11.692   5.348
44353W        W10762  12.545  37.816   3.188
44354W        W10763  14.173   2.189   3.191
44355W        W10764   0.608  14.706   0.491
44356W        W10765  15.048  39.579  11.232
44357W        W10766  23.672   3.942   2.984
44358W        W10767  19.174  19.648  10.694
44359W        W10768  32.039  15.040  10.771
44360W        W10769   3.833   5.784  14.351
44361W        W10770  29.518  11.204   4.988
44362W        W10771  27.097  41.369  10.053
44363W        W10772  31.750  38.108   0.785
44364W        W10773  42.458  41.745   2.221
44365W        W10774  33.518  40.855   1.316
44366W        W10775  37.367  11.578   2.363
44367W        W10776   1.869  40.419   4.213
44368W        W10777  16.790  32.849  11.489
44369W        W10778  10.559  40.016  11.693
44370W        W10779  32.653  23.397  13.466
44371W        W10780  44.596  44.398   2.903
44372W        W10781  39.134   4.007  13.493
44373W        W10782   3.062  11.649  11.619
44374W        W10783  26.736  15.699   3.705
44375W        W10784  40.465  15.798  13.552
44376W        W10785   1.207  44.600  14.288
44377W        W10786  15.025  19.939   4.922
44378W        W10787  35.655  18.621  11.485
44379W        W10788   8.280   0.254  12.083
44380W        W10789   3.390  15.021  12.468
44381W        W10790  16.137  35.974   2.715
44382W        W10791  21.286   3.835   5.115
44383W        W10792  12.163   8.187  13.022
44384W        W10793  14.937  22.583   4.163
44385W        W10794  28.771  24.951   4.129
44386W        W10795  15.565  16.501   1.704
44387W        W10796  20.661  20.550  12.373
44388W        W10797  38.633  40.820  12.268
44389W        W10798  10.367  35.416   0.693
44390W        W10799  41.508   5.440   2.376
44391W        W10800  44.970  24.263   4.556
44392W        W10801  42.810  27.711   4.594
44393W        W10802  38.959   6.229  12.480
44394W        W10803  25.549   1.494   2.446
44395W        W10804  31.233   6.228   3.808
44396W        W10805  24.033  21.242   1.214
44397W        W10806  12.067  44.995   2.630
44398W        W10807   9.219  15.818  13.455
44399W        W10808  16.807  34.366   2.708
44400W        W10809  14.857  30.536  14.556
44401W        W10810   7.904  22.148   2.462
44402W        W10811   0.801  26.784   4.632
44403W        W10812  26.680   0.808  10.948
44404W        W10813  17.800  37.170  12.481
44405W        W10814  32.985  27.581   3.204
44406W        W10815  22.172  13.265  13.567
44407W        W10816  13.154  12.279  10.665
44408W        W10817  17.528  14.255  11.626
44409W        W10818   4.157   6.907   3.171
44410W        W10819  32.630  31.498  13.974
44411W        W10820  13.533  30.111   0.722
44412W        W10821  21.468   6.593   2.328
44413W        W10822  21.267  14.630   4.596
44414W        W10823   1.432  28.931   4.119
44415W        W10824  31.043  14.133   0.474
44416W        W10825   6.477   7.249   2.172
44417W        W10826  26.451  43.032   1.619
44418W        W10827   4.278  19.945  11.701
44419W        W10828  21.729  41.788  11.584
44420W        W10829   6.395   8.380  12.393
44421W        W10830  30.442   0.262   2.415
44422W        W10831  33.904  13.515  10.953
44423W        W10832   2.916  10.131  11.015
44424W        W10833  23.676  36.858  11.604
44425W        W10834   6.946  26.404   4.144
44426W        W10835  13.598  27.856   4.747
44427W        W10836   2.863  44.346  12.519
44428W        W10837  42.675  33.579   0.891
44429W        W10838  14.661   8.316   1.354
44430W        W10839   6.738  30.049   2.887
44431W        W10840   0.210  35.129  14.553
44432W        W10841  15.007  11.648   2.805
44433W        W10842  10.611  43.690  12.682
44434W        W10843   4.552  39.982  13.342
44435W        W10844  35.587  11.887  12.119
44436W        W10845  10.793  32.791   1.313
44437W        W10846  29.511  29.588  14.423
44438W        W10847   4.132  26.413  10.945
44439W        W10848  29.098  20.124   3.880
44440W        W10849   1.894  18.205   4.475
44441W        W10850  28.533  13.008  13.467
44442W        W10851  41.072  44.498  13.925
44443W        W10852   9.847   9.475   1.957
44444W        W10853   8.882  21.156   4.196
44445W        W10854   3.717  40.523   4.289
44446W        W10855  37.890   1.383   3.280
44447W        W10856  26.579   8.388   0.361
44448W        W10857  30.978  25.508   4.686
44449W        W10858  33.924  28.111  14.410
44450W        W10859  24.706  28.658   0.803
44451W        W10860  20.609  39.809   0.481
44452W        W10861  22.349  43.918  10.617
44453W        W10862  22.170  10.633   3.664
44454W        W10863  21.365  21.336  11.831
44455W        W10864  10.916  43.384  14.483
44456W        W10865  36.809  16.737  10.578
44457W        W10866  20.702  26.959  12.237
44458W        W10867   0.805  19.538   3.682
44459W        W10868   4.683  14.708  13.002
44460W        W10869  23.031  38.449  13.805
44461W        W10870   6.724  41.572   3.075
44462W        W10871  39.153   1.872  11.959
44463W        W10872  24.531  21.373   1.235
44464W        W10873  35.992  14.217   3.649
44465W        W10874  26.581  39.386  11.644
44466W        W10875  21.211  11.446  13.545
44467W        W10876  44.251   1.986   3.354
44468W        W10877  33.149  39.878  14.005
44469W        W10878  18.095   8.083   0.925
44470W        W10879   7.948  44.388  12.531
44471W        W10880   1.428   3.471   2.795
44472W        W10881  26.095  17.266  14.062
44473W        W10882   4.189  21.407  11.521
44474W        W10883  24.630  18.787   3.190
44475W        W10884  15.322  44.792   4.427
44476W        W10885   3.145   0.310   2.690
44477W        W10886  37.017  15.025   3.534
44478W        W10887  17.527  24.520  12.511
44479W        W10888  33.059  38.081  13.752
44480W        W10889   4.413  14.493   0.181
44481W        W10890  41.009  18.436   1.907
44482W        W10891  24.613  31.565  14.007
44483W        W10892  19.480   2.344  11.931
44484W        W10893  17.711  32.928  13.996
44485W        W10894  43.275   9.596   3.558
44486W        W10895  28.110  22.026   4.179
44487W        W10896  44.458   7.481  13.474
44488W        W10897   1.285   9.867   4.415
44489W        W10898   8.888  16.373  11.075
44490W        W10899   9.540  16.837   3.624
44491W        W10900  32.041  40.423   3.297
44492W        W10901  40.539  24.167   3.366
44493W        W10902  30.769  39.403   1.295
44494W        W10903  36.640  30.682  14.565
44495W        W10904  27.137  20.123  11.187
44496W        W10905   9.646  27.878  14.584
44497W        W10906  41.550  38.927  12.946
44498W        W10907  31.539  31.561   4.372
44499W        W10908  33.676  15.799  12.063
44500W        W10909  34.738  35.306  14.885
44501W        W10910   0.524  18.109   1.425
44502W        W10911  30.074  44.509   3.806
44503W        W10912  33.842  33.944  10.208
44504W        W10913  16.706   0.302   0.047
44505W        W10914   1.232  20.551  12.355
44506W        W10915  41.857  20.509   4.180
44507W        W10916  40.353  22.258   3.689
44508W        W10917  22.084  42.682  12.418
44509W        W10918   5.831  24.176   0.729
44510W        W10919   6.391  27.441  11.607
44511W        W10920   2.783   4.430  13.166
44512W        W10921  25.708  14.859  13.335
44513W        W10922  31.707  32.121  11.580
44514W        W10923  13.509   5.385  13.178
44515W        W10924  34.940  10.116  12.113
44516W        W10925  27.451  32.616  14.399
44517W        W10926   6.755  39.750   3.635
44518W        W10927   4.905  13.886   1.700
44519W        W10928  26.042   3.226  13.614
44520W        W10929  15.200   6.616   4.016
44521W        W10930  12.004   4.086  12.152
44522W        W10931  19.809  13.014  10.754
44523W        W10932  13.600  19.628   2.669
44524W        W10933  27.013  40.735   3.750
44525W        W10934  16.337  35.578   1.780
44526W        W10935  28.931  10.026   0.334
44527W        W10936  13.409  22.914  14.260
44528W        W10937  33.916  10.639  13.858
44529W        W10938  29.156  44.913  14.700
44530W        W10939  17.698  18.108  14.861
44531W        W10940  17.041   6.556   0.774
44532W        W10941  16.272  32.451   1.858
44533W        W10942  22.764  42.616  13.603
44534W        W10943  12.810  32.074  11.835
44535W        W10944   6.992  36.457   0.968
44536W        W10945  20.965  10.780  11.551
44537W        W10946   6.105  27.567  13.715
44538W        W10947   9.878  13.596  13.929
44539W        W10948  43.923  31.481  10.836
44540W        W10949  10.002  33.419  12.820
44541W        W10950  25.641   9.782  13.894
44542W        W10951  44.292  17.176  14.783
44543W        W10952  13.280  22.022  14.894
44544W        W10953  41.465  42.710   1.512
44545W        W10954  10.134  15.156  11.710
44546W        W10955   8.399  40.843   2.809
44547W        W10956  18.849  31.592  14.390
44548W        W10957  43.855   0.897  12.150
44549W        W10958  13.937  28.012  12.687
44550W        W10959  41.390  38.740   0.270
44551W        W10960  44.127   7.332  14.299
44552W        W10961  38.015   3.864   3.193
44553W        W10962  11.904  15.259   1.930
44554W        W10963  11.990   1.427  11.960
44555W        W10964  14.321  36.030  11.229
44556W        W10965  33.852  29.148   3.185
44557W        W10966  32.935  40.283  13.086
44558W        W10967  33.543   6.701  13.739
44559W        W10968  28.268  14.812   4.165
44560W        W10969  41.844  20.000  14.857
44561W        W10970  43.507  36.905   1.467
44562W        W10971  30.129  16.738   1.378
44563W        W10972  44.204  39.876   2.381
44564W        W10973   9.409  21.681   0.357
44565W        W10974  32.197  14.677   1.235
44566W        W10975   5.644  32.477  13.983
44567W        W10976  25.740  11.678   1.272
44568W        W10977  15.579  10.845  11.582
44569W        W10978  19.085  37.124  12.027
44570W        W10979  27.797   3.762   1.987
44571W        W10980  18.445  22.273   4.619
44572W        W10981  16.759  44.983   4.771
44573W        W10982  20.536  17.529   4.225
44574W        W10983  24.369   0.092   4.577
44575W        W10984  39.496  26.403   3.811
44576W        W10985  29.989  29.839   4.214
44577W        W10986  37.819   5.291  10.895
44578W        W10987  33.524  26.634   2.374
44579W        W10988  24.577  43.223   0.939
44580W        W10989  17.125  27.073   2.062
44581W        W10990  34.477   7.315   4.013
44582W        W10991  27.887   8.234  12.340
44583W        W10992   0.514  25.629  14.344
44584W        W10993  34.012   1.693  12.788
44585W        W10994  34.418  16.683   2.780
44586W        W10995  26.342  26.413   4.848
44587W        W10996  18.908  42.819   2.837
44588W        W10997  40.432  16.699   3.724
44589W        W10998   4.537  27.732  13.435
44590W        W10999   6.309   7.010   0.674
44591W        W11000  11.798  26.186  14.284
44592W        W11001  24.687  16.051   3.118
44593W        W11002  17.510   9.076  12.727
44594W        W11003   4.843  39.493   2.122
44595W        W11004  15.672   9.895   3.296
44596W        W11005  21.929  39.344   0.466
44597W        W11006  24.192  14.211  12.226
44598W        W11007  17.939  37.983   0.821
44599W        W11008  12.025  21.611  13.950
44600W        W11009   3.769   4.679   4.149
44601W        W11010  16.254  23.274  10.602
44602W        W11011   8.411   7.399  10.829
44603W        W11012  38.851   4.811   2.868
44604W        W11013   6.896  19.713  14.714
44605W        W11014  15.612  38.590  13.640
44606W        W11015  15.937  32.692   4.263
44607W        W11016   3.995  26.507  10.204
44608W        W11017  14.181  43.840   0.379
44609W        W11018  43.892  30.883  13.011
44610W        W11019  19.005   3.867  11.309
44611W        W11020   8.430  10.762   0.464
44612W        W11021  11.760  16.293   1.790
44613W        W11022  25.555   3.002  13.526
44614W        W11023  31.613   9.261  11.233
44615W        W11024  21.047   0.890   2.094
44616W        W11025  19.570   2.750  10.703
44617W        W11026  16.094  40.830  14.338
44618W        W11027  32.220  17.312  11.591
44619W        W11028  10.801   5.882   1.804
44620W        W11029  22.450  18.179  14.023
44621W        W11030  15.768  42.557   1.349
44622W        W11031  44.203   9.885   1.280
44623W        W11032   3.082   6.845   0.472
44624W        W11033   9.672  27.377  14.477
44625W        W11034   8.169  19.094  10.455
44626W        W11035  32.368   4.324  13.041
44627W        W11036   1.921  19.501  13.072
44628W        W11037  32.043  23.872  11.477
44629W        W11038  34.122  43.930   2.063
44630W        W11039  31.030   4.228  14.039
44631W        W11040  26.457  28.621  12.086
44632W        W11041  31.444  22.193   0.798
44633W        W11042  40.760   2.781   4.109
44634W        W11043  18.742  23.154   2.725
44635W        W11044  12.104  15.766  10.754
44636W        W11045  19.837  37.012   0.289
44637W        W11046  10.425   2.747   4.276
44638W        W11047   7.390  25.598   4.991
44639W        W11048  21.024  13.676   4.802
44640W        W11049  21.931  44.885  13.908
44641W        W11050  31.024   5.833  12.694
44642W        W11051  30.885  44.015   4.546
44643W        W11052   0.905  18.005  11.060
44644W        W11053  10.324   8.121   1.414
44645W        W11054   2.833  28.122   2.356
44646W        W11055  27.655  26.800  13.360
44647W        W11056  33.070   8.655  14.485
44648W        W11057  44.357  20.317   0.402
44649W        W11058  33.564  23.085  10.721
44650W        W11059   8.228  21.283   1.785
44651W        W11060  39.338  32.708   2.817
44652W        W11061  10.422   4.276   3.936
44653W        W11062  42.553  44.355  11.428
44654W        W11063  33.829  10.835   0.233
44655W        W11064  39.581  17.531  13.804
44656W        W11065  30.980   4.658  14.333
44657W        W11066  40.372  38.024  11.584
44658W        W11067   1.712  10.877   2.910
44659W        W11068  16.202  16.677   3.427
44660W        W11069   3.859   2.273  14.447
44661W        W11070  15.499  23.232   1.766
44662W        W11071   4.777  37.904  13.007
44663W        W11072  19.898  11.769   4.137
44664W        W11073  27.479  25.506  11.014
44665W        W11074   0.811  21.781   1.700
44666W        W11075  43.223   1.061  12.994
44667W        W11076  23.635  26.794  14.047
44668W        W11077   1.730   6.469   2.210
44669W        W11078   8.915  25.064   4.033
44670W        W11079  40.046   0.890   3.655
44671W        W11080  43.222   8.633   4.262
44672W        W11081  39.385  11.386   1.687
44673W        W11082  44.035  34.195  14.353
44674W        W11083  33.911   7.151   4.609
44675W        W11084  30.959   1.728   4.729
44676W        W11085   5.054  21.615   4.478
44677W        W11086   1.678  27.037   3.162
44678W        W11087  10.689   4.344  12.021
44679W        W11088   3.536   2.281  13.822
44680W        W11089  26.701  40.815  12.204
44681W        W11090  20.822  14.667  10.663
44682W        W11091  33.207   9.113   3.211
44683W        W11092  38.437  34.676  14.601
44684W        W11093  17.476   4.794  12.592
44685W        W11094  28.615  19.763   2.890
44686W        W11095  38.378  41.271  12.200
44687W        W11096  23.650  34.910   2.460
44688W        W11097  21.053  15.085  12.453
44689W        W11098  30.384  22.132  10.456
44690W        W11099   6.678  33.877  14.875
44691W        W11100  34.782  39.958  10.580
44692W        W11101  25.536   7.572   3.288
44693W        W11102  11.140   6.735   3.742
44694W        W11103  38.802  13.351   4.937
44695W        W11104   5.276   9.336   0.700
44696W        W11105  22.792  12.560   0.298
44697W        W11106  30.358  16.603  10.770
44698W        W11107  39.719  16.841   0.806
44699W        W11108  19.288  29.773   2.626
44700W        W11109  44.980  32.454  11.640
44701W        W11110   1.470   0.894  10.746
44702W        W11111  27.085  35.024  14.269
44703W        W11112   8.940  15.036   4.568
44704W        W11113  15.884  28.812   4.897
44705W        W11114   6.744  29.590  12.416
44706W        W11115  22.684   0.937   0.530
44707W        W11116  22.685  28.969  10.406
44708W        W11117  43.920   4.299   2.320
44709W        W11118  11.725  30.849   2.280
44710W        W11119  22.619  39.708  10.146
44711W        W11120  22.687  24.472   4.100
44712W        W11121  31.498  12.611   4.541
44713W        W11122   3.851   5.197  12.105
44714W        W11123  18.873   1.782   0.372
44715W        W11124  17.447  33.521  11.704
44716W        W11125   3.410  44.524  12.454
44717W        W11126   0.757  33.615   0.036
44718W        W11127   6.403  18.142   3.265
44719W        W11128  12.382   7.101   3.709
44720W        W11129  37.015  42.507   4.801
44721W        W11130  21.256  21.647   4.917
44722W        W11131  43.968  19.680   0.825
44723W        W11132  15.015   4.327  14.771
44724W        W11133  39.748   7.313   2.258
44725W        W11134  28.196  42.051   0.585
44726W        W11135  31.089  26.732   1.685
44727W        W11136  10.303  13.280  11.229
44728W        W11137  31.590  29.656   3.559
44729W        W11138   0.892  34.072  12.984
44730W        W11139  16.298  30.977  10.712
44731W        W11140  30.062   1.313  12.617
44732W        W11141  30.701  38.757   2.634
44733W        W11142  38.408  21.685  13.984
44734W        W11143  44.085  16.278  11.881
44735W        W11144   6.418  26.446   4.080
44736W        W11145   6.867  22.982  14.910
44737W        W11146   1.164  11.636   3.363
44738W        W11147  35.052   5.911   2.758
44739W        W11148  14.546   1.796  11.711
44740W        W11149  33.040  38.026  14.279
44741W        W11150  41.724  14.688   0.868
44742W        W11151   5.745   7.564  12.405
44743W        W11152  10.053  16.615   2.663
44744W        W11153  10.088  34.682  12.758
44745W        W11154  41.935  17.684  10.412
44746W        W11155  23.678  37.871   4.133
44747W        W11156  23.109  26.389  14.178
44748W        W11157  30.206  28.206  11.965
44749W        W11158   8.906   7.249  10.707
44750W        W11159  15.109  33.715  14.917
44751W        W11160  37.653  23.613  12.976
44752W        W11161  42.222  36.676  14.905
44753W        W11162  41.505   8.795  10.804
44754W        W11163  21.554  31.891   2.725
44755W        W11164   8.198  40.782   0.936
44756W        W11165  42.349  39.656  12.553
44757W        W11166  15.027  27.134  10.761
44758W        W11167   9.172  35.392  11.194
44759W        W11168  14.683  28.396   0.566
44760W        W11169  35.123  37.296  14.799
44761W        W11170  39.080  42.704   4.291
44762W        W11171  39.633  34.399   4.228
44763W        W11172  17.739  44.728  13.026
44764W        W11173  17.981  21.209   1.950
44765W        W11174  39.758  18.702   2.747
44766W        W11175  23.236  33.686   2.875
44767W        W11176  44.044  29.599   0.419
44768W        W11177  34.080   5.655   4.565
44769W        W11178   7.835  22.084   3.729
44770W        W11179  41.283   8.597   4.640
44771W        W11180   0.659  39.805   4.153
44772W        W11181  41.499  30.384  12.980
44773W        W11182   2.473  20.657  12.107
44774W        W11183   3.728  21.125  13.028
44775W        W11184  36.432   2.847   3.378
44776W        W11185  12.419  38.381   5.106
44777W        W11186  41.647  10.689  10.718
44778W        W11187  43.151  36.952   2.537
44779W        W11188   3.048  36.110   2.724
44780W        W11189  20.833  28.582  13.876
44781W        W11190  15.871   5.516   4.719
44782W        W11191  40.586  31.895   4.289
44783W        W11192   0.375  43.750  10.437
44784W        W11193   5.168  42.591   2.845
44785W        W11194  15.888  12.726   3.342
44786W        W11195  39.829  44.999   3.822
44787W        W11196  26.736   5.855  12.944
44788W        W11197   5.759  11.884  14.447
44789W        W11198  17.253   7.202  12.596
44790W        W11199  24.162  31.131   0.399
44791W        W11200  13.642  28.057   2.181
44792W        W11201  27.526  12.235  10.485
44793W        W11202   7.341  42.909  10.783
44794W        W11203  24.593  23.980   0.781
44795W        W11204  18.569   8.941  11.203
44796W        W11205  19.814  17.549   0.602
44797W        W11206  12.591   3.944   4.977
44798W        W11207  22.799  36.673  14.365
44799W        W11208  38.754   3.484  10.689
44800W        W11209  26.978  33.845  12.146
44801W        W11210   0.049  11.731   1.250
44802W        W11211  25.101  17.814  12.425
44803W        W11212  37.065  43.340   0.737
44804W        W11213  13.526  29.923  10.985
44805W        W11214  11.137  31.985  12.462
44806W        W11215  17.090  14.613  12.006
44807W        W11216   0.290  33.475  14.816
44808W        W11217  19.261  19.284  11.969
44809W        W11218  31.390  36.556  13.662
44810W        W11219  21.964  30.368   2.184
44811W        W11220   3.004  14.283   3.660
44812W        W11221   0.472  32.973   4.065
44813W        W11222   8.769  18.203  14.900
44814W        W11223  39.305  37.476  12.413
44815W        W11224  13.852  27.950   1.728
44816W        W11225  37.277  39.818  10.977
44817W        W11226   0.673  10.765   3.683
44818W        W11227  39.555   5.840   1.273
44819W        W11228  15.639  43.943   4.732
44820W        W11229  17.565  44.800   2.895
44821W        W11230  40.460  17.358  11.814
44822W        W11231  22.720  27.705  14.510
44823W        W11232  42.404   3.655   3.708
44824W        W11233  14.120  43.824  11.323
44825W        W11234   6.703  26.731  13.956
44826W        W11235  11.631   9.760   4.670
44827W        W11236  44.267  42.835  12.051
44828W        W11237   2.945  10.097  10.497
44829W        W11238  35.691  26.632   0.219
44830W        W11239  15.860  35.307   4.309
44831W        W11240  29.592  31.377  10.859
44832W        W11241   7.876   7.120  12.581
44833W        W11242   3.678  23.499  11.623
44834W        W11243  38.548  32.864   2.182
44835W        W11244  21.483  20.418   1.124
44836W        W11245   1.486  29.731   0.989
44837W        W11246  19.838   5.646  13.456
44838W        W11247   7.921  13.339  11.906
44839W        W11248   1.947   7.013  13.835
44840W        W11249  17.050  39.832   3.110
44841W        W11250  32.981  23.485   4.364
44842W        W11251  23.290   4.379   2.269
44843W        W11252  27.984  37.509   2.174
44844W        W11253  38.043  21.507   2.164
44845W        W11254  41.251   2.259  11.899
44846W        W11255  43.533  32.988   4.540
44847W        W11256  37.920   5.935  11.737
44848W        W11257   3.659  26.482   4.317
44849W        W11258  11.113  30.693  12.006
44850W        W11259  26.362  13.740  14.479
44851W        W11260   3.375  44.229  10.724
44852W        W11261   5.087  29.426   2.750
44853W        W11262  33.795  29.563   1.115
44854W        W11263   3.979   7.306  13.553
44855W        W11264  43.187  29.692  12.020
44856W        W11265  12.069   7.687  14.301
44857W        W11266  20.070   1.646  12.186
44858W        W11267  33.951  33.104   4.211
44859W        W11268  37.778  19.606  14.546
44860W        W11269  22.070  29.049  14.436
44861W        W11270  32.151  17.493   3.977
44862W        W11271  43.920  16.726   4.071
44863W        W11272  44.381  16.623   3.633
44864W        W11273   5.120   4.339   2.827
44865W        W11274  33.906  26.492  10.756
44866W        W11275  35.843   2.160   1.727
44867W        W11276  19.624  43.747  13.154
44868W        W11277   9.935   3.925   4.097
44869W        W11278   4.788  19.923   4.910
44870W        W11279   0.839  34.439  12.008
44871W        W11280  12.330  21.559  12.960
44872W        W11281   2.165   8.216  13.605
44873W        W11282  20.740   3.748   4.890
44874W        W11283  21.563   3.433  12.571
44875W        W11284  13.349  34.077   3.336
44876W        W11285  11.460  12.842  14.992
44877W        W11286   0.212  15.605  14.524
44878W        W11287  26.897  13.769   3.669
44879W        W11288  28.509  38.558  12.938
44880W        W11289  16.283  41.836   4.144
44881W        W11290  16.174  15.962  10.762
44882W        W11291  33.080  40.130   3.650
44883W        W11292  37.600  23.129   0.995
44884W        W11293  30.006  39.794   2.172
44885W        W11294  11.846  34.153   2.644
44886W        W11295   2.402  27.492  10.484
44887W        W11296  42.325  36.057  12.716
44888W        W11297  29.870   8.362   0.339
44889W        W11298  20.305  35.168   0.419
44890W        W11299  44.333  13.567   1.757
44891W        W11300   8.251  18.216   3.307
44892W        W11301  10.291  27.699   4.297
44893W        W11302   2.716  43.384  12.668
44894W        W11303  12.208  22.585  13.090
44895W        W11304  24.236  37.383  13.345
44896W        W11305  28.732   2.240   3.929
44897W        W11306   2.811  30.721  14.008
44898W        W11307  37.275  37.300   1.698
44899W        W11308  20.647  15.662   1.716
44900W        W11309  17.077   1.821   3.191
44901W        W11310  29.162  39.344   0.424
44902W        W11311  31.512  43.089  13.605
44903W        W11312   1.299   3.400   0.792
44904W        W11313  31.438  35.954  14.475
44905W        W11314  33.062  12.303  11.228
44906W        W11315  20.008  13.299  14.276
44907W        W11316  20.952   1.504   0.757
44908W        W11317  27.712  15.903   0.882
44909W        W11318  25.106  37.034   1.339
44910W        W11319  23.991   3.386   0.242
44911W        W11320  36.711   3.073   4.102
44912W        W11321  18.778  28.055  13.602
44913W        W11322  21.253  38.346  14.785
44914W        W11323  44.355   6.751   3.096
44915W        W11324  14.293   2.190  14.408
44916W        W11325  26.970  30.247  12.532
44917W        W11326  31.416  10.313  14.621
44918W        W11327  23.650  43.324   2.951
44919W        W11328  31.727   6.629  11.279
44920W        W11329  39.044   2.990  10.684
44921W        W11330  27.176  29.067   2.967
44922W        W11331   1.117  25.053   2.684
44923W        W11332   6.535   6.233  11.116
44924W        W11333  37.489   2.710   3.658
44925W        W11334  29.418  15.415   4.121
44926W        W11335  15.552  38.370  12.204
44927W        W11336  21.250   5.944  13.996
44928W        W11337  23.158  34.039   0.931
44929W        W11338  34.827  29.340  14.269
44930W        W11339  41.781   9.073   3.156
44931W        W11340  13.728  16.856   1.984
44932W        W11341   9.642  20.738   1.968
44933W        W11342   3.144  43.053  12.746
44934W        W11343  27.988  30.914   2.551
44935W        W11344  28.049  34.948   1.154
44936W        W11345  20.557  20.335  11.138
44937W        W11346   4.709   1.951   3.061
44938W        W11347  18.022   8.857  11.144
44939W        W11348  16.196   8.880   0.967
44940W        W11349   8.230  11.223  11.156
44941W        W11350  29.935  10.330  14.827
44942W        W11351  30.109  43.451  12.330
44943W        W11352  17.268  28.447  13.709
44944W        W11353   8.567  10.234  13.254
44945W        W11354   9.367  24.117  10.733
44946W        W11355  24.964   8.754   3.747
44947W        W11356  17.608  36.838  11.143
44948W        W11357  35.363  19.961   1.748
44949W        W11358  22.692  39.503   0.876
44950W        W11359  19.558   6.620   4.575
44951W        W11360  29.245  37.525   3.727
44952W        W11361  25.498  16.753   4.337
44953W        W11362  38.010  26.114  11.952
44954W        W11363   2.753  40.078  13.484
44955W        W11364  39.366  32.066  12.671
44956W        W11365  23.078  21.783   3.622
44957W        W11366  38.644  43.193  10.581
44958W        W11367  32.528  43.257  10.565
44959W        W11368   7.199  15.179  14.203
44960W        W11369   4.160  38.058  10.623
44961W        W11370  42.441  37.258   4.582
44962W        W11371  42.410  37.778   4.736
44963W        W11372  34.910  23.410   4.189
44964W        W11373  15.180  12.644  11.570
44965W        W11374  30.195  37.366  14.844
44966W        W11375  37.549  41.029   3.134
44967W        W11376  15.569   0.248  11.836
44968W        W11377  17.109   5.463  11.631
44969W        W11378   4.748  15.096   4.949
44970W        W11379  12.643   0.003  13.222
44971W        W11380  27.793  37.356  11.507
44972W        W11381   2.000   4.939   5.054
44973W        W11382  22.274  27.278  12.448
44974W        W11383  15.694  16.869   0.691
44975W        W11384  38.226  25.610  11.228
44976W        W11385  26.940  42.753  13.465
44977W        W11386  43.360  26.968   4.118
44978W        W11387  41.892   1.973  11.145
44979W        W11388  44.306  29.557  14.143
44980W        W11389  23.992  40.537  10.756
44981W        W11390  36.455   4.547   2.474
44982W        W11391  41.579  40.836   2.016
44983W        W11392  38.332  14.215   4.157
44984W        W11393  21.042   0.400   0.727
44985W        W11394   2.329   8.681   1.940
44986W        W11395  18.089   6.120   1.263
44987W        W11396   2.733  25.031  11.204
44988W        W11397  18.286  32.502  13.628
44989W        W11398  43.928   1.099   2.619
44990W        W11399  10.872  22.745  13.815
44991W        W11400  25.427  37.427  11.895
44992W        W11401  25.916  37.057  11.605
44993W        W11402  14.795  29.904  14.981
44994W        W11403  35.618  12.697  13.432
44995W        W11404   2.901  23.723   0.663
44996W        W11405  37.014  14.237   3.825
44997W        W11406  22.940   3.407   1.166
44998W        W11407  18.966  33.605   5.050
44999W        W11408  36.425  33.274   4.091
45000W        W11409  26.327  10.078   1.929
45001W        W11410  24.368  13.547  11.238
45002W        W11411  11.025  14.297   3.975
45003W        W11412  17.826  26.485   2.934
45004W        W11413   8.377  20.525   4.450
45005W        W11414  23.677  12.063   2.703
45006W        W11415  24.211  14.909   1.354
45007W        W11416  11.677  27.591   0.289
45008W        W11417  31.616  13.847  11.125
45009W        W11418   8.114  23.317  14.249
45010W        W11419  19.574  37.022   4.745
45011W        W11420  29.293   8.225  10.188
45012W        W11421  22.160  41.135   1.194
45013W        W11422  27.571  23.938   2.157
45014W        W11423  20.663  10.855   1.903
45015W        W11424  19.694   6.065   3.805
45016W        W11425  28.199  15.633   0.868
45017W        W11426  38.308  32.307  13.787
45018W        W11427  14.291  37.767   1.353
45019W        W11428   3.375  41.384   3.675
45020W        W11429  43.392  23.997  13.516
45021W        W11430   3.769  17.613  13.950
45022W        W11431  35.955  22.414  14.873
45023W        W11432  23.673   9.537   2.864
45024W        W11433  17.650  33.140   3.559
45025W        W11434  25.465  10.672  11.137
45026W        W11435  29.934   3.253  11.122
45027W        W11436  12.467  22.562   1.466
45028W        W11437   9.011  27.084   4.531
45029W        W11438  19.227  41.054  13.889
45030W        W11439  10.357  10.337   1.823
45031W        W11440  39.615  31.577  11.396
45032W        W11441  28.207  40.805  14.295
45033W        W11442  20.256   3.397  11.525
45034W        W11443   8.858   5.329   2.763
45035W        W11444  35.633  24.099   0.447
45036W        W11445   8.378  38.800  12.040
45037W        W11446  40.301  11.509   0.285
45038W        W11447  17.202  43.006   0.764
45039W        W11448  14.646  40.772   4.251
45040W        W11449  26.128  16.344  12.856
45041W        W11450  18.355   9.193   0.939
45042W        W11451  34.035  23.647  13.306
45043W        W11452  40.794   8.930  10.137
45044W        W11453  18.419  31.964   2.681
45045W        W11454  20.278  26.890  12.523
45046W        W11455  22.848  19.603  10.269
45047W        W11456   1.303   9.699   1.940
45048W        W11457  28.718  32.052   1.675
45049W        W11458   5.384  42.826  14.358
45050W        W11459  16.681  28.150   3.924
45051W        W11460  39.362  19.743  14.849
45052W        W11461   7.965  39.257   1.666
45053W        W11462  11.076  15.367   0.750
45054W        W11463  23.212  27.110   2.555
45055W        W11464  21.358  12.365  12.865
45056W        W11465   3.220  31.212  14.394
45057W        W11466  32.593  28.590   0.581
45058W        W11467  36.344  42.442   4.104
45059W        W11468  21.275  36.581   3.644
45060W        W11469  26.160  34.475  13.099
45061W        W11470   0.703  15.124   3.842
45062W        W11471  12.572  14.062  13.504
45063W        W11472  17.837  11.795   1.650
45064W        W11473  11.260  43.436  10.108
45065W        W11474  44.821  21.821   1.736
45066W        W11475  14.761  29.080  12.468
45067W        W11476  34.189  23.329   5.024
45068W        W11477  12.110  39.707  12.943
45069W        W11478  27.850  31.849  12.040
45070W        W11479  14.417   4.657   0.348
45071W        W11480  29.664  32.081  14.884
45072W        W11481   8.791  18.185   3.212
45073W        W11482  32.301  11.440   2.678
45074W        W11483  37.364   4.742  10.368
45075W        W11484  22.017  25.475  11.720
45076W        W11485  30.002  18.333  12.480
45077W        W11486   2.724  15.816  14.419
45078W        W11487  37.957   2.668   0.958
45079W        W11488  25.522  42.478  14.432
45080W        W11489  38.798  35.900   3.107
45081W        W11490   4.054  29.426  14.448
45082W        W11491   8.395  41.039  14.347
45083W        W11492  34.045  32.444  11.371
45084W        W11493  23.468   1.091   2.613
45085W        W11494  20.486  25.274  12.467
45086W        W11495  28.374   3.021   0.094
45087W        W11496   8.732  35.942   4.089
45088W        W11497  19.940   9.579   4.999
45089W        W11498  15.115  23.059   2.709
45090W        W11499  31.806  27.413  11.396
45091W        W11500   3.143  20.097   2.972
45092W        W11501  24.999   1.136   0.851
45093W        W11502  41.446  25.045   2.411
45094W        W11503   6.618  19.667   4.196
45095W        W11504  22.470  27.670  11.732
45096W        W11505  39.593  18.543   1.865
45097W        W11506  37.701  12.328  11.040
45098W        W11507  18.358  10.756  10.618
45099W        W11508  41.860  12.120  11.874
45100W        W11509   3.904  38.117  11.898
45101W        W11510  10.601  17.528   0.494
45102W        W11511   8.429  25.667   2.377
45103W        W11512  28.771  21.180   2.522
45104W        W11513   6.327  30.415   1.378
45105W        W11514  13.941   6.983   0.494
45106W        W11515   5.718  39.898  14.350
45107W        W11516  21.105  29.537  13.721
45108W        W11517  25.154  37.826   4.397
45109W        W11518  32.255  30.988   0.839
45110W        W11519  31.526  23.489   2.318
45111W        W11520   8.400  18.730   0.759
45112W        W11521  38.932  44.744  11.160
45113W        W11522  42.365  41.788  11.452
45114W        W11523  38.619  15.426   9.787
45115W        W11524   4.256  36.538  11.516
45116W        W11525  27.572  32.384   5.011
45117W        W11526  26.023  40.904   2.727
45118W        W11527  19.573  10.078   4.161
45119W        W11528  43.742   4.437  11.591
45120W        W11529  34.852  14.755   4.433
45121W        W11530  44.076   0.306  10.680
45122W        W11531  38.370  29.426   2.162
45123W        W11532  15.037  15.774  14.134
45124W        W11533   9.896  26.636  10.440
45125W        W11534  27.778  31.614   3.558
45126W        W11535  12.190  32.030  12.531
45127W        W11536  29.713  16.790   2.807
45128W        W11537  12.678  22.439  12.359
45129W        W11538  21.191   7.392   4.166
45130W        W11539  23.319   6.156  14.334
45131W        W11540  10.229  39.522   2.757
45132W        W11541  15.553  34.971   4.577
45133W        W11542   1.865  43.936   0.736
45134W        W11543   6.846  25.968   0.807
45135W        W11544   4.670   0.137  14.525
45136W        W11545   7.387  19.092  13.314
45137W        W11546  32.082  10.191  12.964
45138W        W11547  34.822  33.339  11.566
45139W        W11548   1.879   8.134  10.660
45140W        W11549   1.330  38.410  14.985
45141W        W11550  28.209  16.107  11.411
45142W        W11551  32.087  44.549  12.576
45143W        W11552  28.937  41.390   1.708
45144W        W11553  30.427  37.502  13.915
45145W        W11554  13.922  20.579  12.535
45146W        W11555   6.330   9.753  13.628
45147W        W11556   3.911  41.374  12.529
45148W        W11557  35.972  42.780   4.096
45149W        W11558   2.378  29.015   0.892
45150W        W11559  20.634  14.777   1.850
45151W        W11560  30.703  29.462  11.145
45152W        W11561   3.468  10.885  10.685
45153W        W11562  16.991  30.580   3.187
45154W        W11563  34.222  10.734   2.095
45155W        W11564  44.696  10.885  13.610
45156W        W11565  40.839  17.833   0.576
45157W        W11566   1.968  19.127   0.908
45158W        W11567  27.011  31.860  14.692
45159W        W11568  43.426  12.124   3.770
45160W        W11569  38.926   1.828  11.172
45161W        W11570   8.170  38.081  12.430
45162W        W11571  11.082  15.302   3.594
45163W        W11572  41.232  29.915   1.148
45164W        W11573  25.862  41.440  14.549
45165W        W11574  28.937   4.462   2.119
45166W        W11575  20.810  43.923  10.559
45167W        W11576  14.163  10.824   4.518
45168W        W11577  27.842  41.721   2.672
45169W        W11578   5.222  30.446  13.466
45170W        W11579  27.654  16.953  14.042
45171W        W11580   6.131  12.919  14.151
45172W        W11581  40.117  39.266  11.363
45173W        W11582  44.817  29.392  14.883
45174W        W11583  30.038  24.492   4.303
45175W        W11584  42.934   2.899   1.148
45176W        W11585  24.476  43.926  13.525
45177W        W11586   4.255  43.777  11.538
45178W        W11587   2.441  26.245   5.014
45179W        W11588  42.928  15.380   0.457
45180W        W11589  17.339  20.657  14.344
45181W        W11590  19.745  16.613  13.524
45182W        W11591   2.355  22.999   2.281
45183W        W11592  42.729  23.013   1.417
45184W        W11593  38.205  29.659  10.367
45185W        W11594  18.548  23.474  11.215
45186W        W11595  19.610  27.261  11.646
45187W        W11596  27.193  42.079  13.004
45188W        W11597  44.762  43.380   4.058
45189W        W11598  23.958  19.834  12.266
45190W        W11599  35.918  12.376  14.560
45191W        W11600  34.410   8.865  12.107
45192W        W11601  19.648  21.886  12.537
45193W        W11602  31.735  16.875  14.988
45194W        W11603  17.321  21.676   2.906
45195W        W11604  40.214  31.154   4.756
45196W        W11605  43.912  12.721   2.910
45197W        W11606  35.164  30.106   2.667
45198W        W11607  17.992   7.914  10.749
45199W        W11608  31.430  17.674  11.376
45200W        W11609  30.622   5.918   2.293
45201W        W11610  26.055   4.463   2.854
45202W        W11611  31.100  11.395  10.627
45203W        W11612   2.467  11.386   2.803
45204W        W11613  17.871  37.482  10.894
45205W        W11614   3.378  39.577  14.968
45206W        W11615  43.478  22.482   0.998
45207W        W11616  32.129  15.878  14.242
45208W        W11617  27.181  20.055   1.912
45209W        W11618   8.342  42.355   4.100
45210W        W11619  31.855   4.380   1.903
45211W        W11620  26.541  16.445  12.571
45212W        W11621  41.854   2.715  12.037
45213W        W11622   7.685  25.172   2.204
45214W        W11623   9.234  22.030   3.541
45215W        W11624   0.065  31.998  11.452
45216W        W11625  27.995   5.913  10.170
45217W        W11626  29.628   1.555  13.238
45218W        W11627  15.907  19.815   1.639
45219W        W11628  32.424  29.145  11.158
45220W        W11629   8.884   6.272  14.101
45221W        W11630  15.355  12.594   4.175
45222W        W11631  42.516  16.761   9.829
45223W        W11632  29.745  27.157   3.176
45224W        W11633  13.163  27.710   3.871
45225W        W11634   4.322  33.806   4.807
45226W        W11635   2.971  25.342   4.051
45227W        W11636  16.820  30.116   3.414
45228W        W11637  15.348  36.334   0.938
45229W        W11638  26.261  30.799  12.445
45230W        W11639  12.585  15.235  12.522
45231W        W11640  32.488   4.970   3.104
45232W        W11641  36.546  16.652  12.444
45233W        W11642  20.762  32.385   0.529
45234W        W11643   4.813   7.451  11.952
45235W        W11644   9.647  34.866  12.542
45236W        W11645  24.104  17.971   0.479
45237W        W11646  13.705  42.207   1.881
45238W        W11647  39.413  11.651   0.318
45239W        W11648  33.927  13.645  13.600
45240W        W11649  22.297  30.702   2.903
45241W        W11650  40.718  26.510   0.174
45242W        W11651  32.675  31.702  11.435
45243W        W11652   9.376  31.015  11.600
45244W        W11653  33.195  31.410  10.710
45245W        W11654  22.040   0.892   2.354
45246W        W11655  34.657  27.899  14.921
45247W        W11656  15.167  40.060  12.471
45248W        W11657   1.795  32.889   1.331
45249W        W11658   4.470  43.261  11.265
45250W        W11659   3.381  37.446  12.161
45251W        W11660  36.323  38.284  10.796
45252W        W11661  42.034  32.305  14.097
45253W        W11662  17.563   1.762   0.708
45254W        W11663   5.548  28.171   0.985
45255W        W11664  39.654  42.455   0.196
45256W        W11665  19.682  32.401  10.601
45257W        W11666  43.531  29.059  13.012
45258W        W11667   7.253  15.370   0.195
45259W        W11668  20.174  40.542  13.903
45260W        W11669   5.976  10.153  14.313
45261W        W11670  41.400  40.399   2.190
45262W        W11671  21.759  40.466  11.656
45263W        W11672   3.947  43.215   2.496
45264W        W11673  20.580  19.755  13.000
45265W        W11674   2.911  40.921  11.289
45266W        W11675  13.108   2.093   5.006
45267W        W11676  31.225  13.653  11.415
45268W        W11677  26.408  37.831  10.550
45269W        W11678  22.025  35.655  12.514
45270W        W11679  11.517  34.579   4.789
45271W        W11680  24.567  31.963   2.887
45272W        W11681  17.364   5.109  14.911
45273W        W11682  39.395   5.688   0.392
45274W        W11683  10.250   5.060   5.033
45275W        W11684   4.381  29.055   4.170
45276W        W11685  10.791  18.774  12.043
45277W        W11686   2.491   4.089  12.897
45278W        W11687  30.171  43.879   0.917
45279W        W11688   1.731  35.790   3.028
45280W        W11689   6.914  30.735  10.654
45281W        W11690  44.443  17.814   1.451
45282W        W11691  35.613  41.902  11.619
45283W        W11692  42.460   8.237  14.775
45284W        W11693  15.997  43.940  10.435
45285W        W11694  14.439  23.072   3.757
45286W        W11695  33.107  32.019   3.728
45287W        W11696  16.553  12.585  13.084
45288W        W11697  23.127   1.278  14.415
45289W        W11698  11.775  39.886  12.003
45290W        W11699  37.762  20.139   4.667
45291W        W11700  42.515  28.575  12.581
45292W        W11701  22.548  22.410  10.830
45293W        W11702  36.553  42.703  13.106
45294W        W11703   6.752   1.759   0.022
45295W        W11704  15.769  32.253   1.417
45296W        W11705  16.117  42.968  10.898
45297W        W11706  40.401  21.541   1.811
45298W        W11707   3.728  33.924  12.444
45299W        W11708  26.992  42.528   4.054
45300W        W11709  17.658   7.054  11.140
45301W        W11710  18.143  12.672   4.072
45302W        W11711  25.122  21.029  13.419
45303W        W11712  20.689  15.291  11.688
45304W        W11713  28.191  13.684  12.812
45305W        W11714  39.910   2.013   0.349
45306W        W11715   7.856  15.835   1.757
45307W        W11716  16.092  14.172   0.814
45308W        W11717  37.657   4.351  13.414
45309W        W11718  22.427  11.430   1.423
45310W        W11719  19.683   8.784   2.406
45311W        W11720  44.239  33.998  11.230
45312W        W11721  44.444  23.776  14.436
45313W        W11722  27.542   9.170  12.494
45314W        W11723  10.895  10.738   3.269
45315W        W11724  24.406  27.065   3.392
45316W        W11725  25.907  17.076   2.439
45317W        W11726  15.077  32.566  14.939
45318W        W11727  30.464  19.166  14.331
45319W        W11728   4.371  41.341  12.877
45320W        W11729   9.451  26.208  14.838
45321W        W11730  18.724  27.030   2.289
45322W        W11731   0.805  10.499   5.036
45323W        W11732  40.334  28.707  12.185
45324W        W11733  35.127  13.065   1.257
45325W        W11734   7.530  21.602   4.159
45326W        W11735   2.818  13.804  14.344
45327W        W11736  18.699  27.428  13.189
45328W        W11737   0.275  33.283  13.864
45329W        W11738  38.467  35.426   2.241
45330W        W11739  16.793   2.893   2.305
45331W        W11740  28.476  14.768  12.949
45332W        W11741   8.768  15.611  12.568
45333W        W11742   9.789  20.322  12.327
45334W        W11743  39.747   3.290   2.284
45335W        W11744  38.939  38.588  10.602
45336W        W11745   2.764   2.268  13.472
45337W        W11746  30.130  28.427  13.986
45338W        W11747  44.199  36.287   1.032
45339W        W11748  29.424  16.657  12.841
45340W        W11749   5.505  24.296   3.448
45341W        W11750  42.937  34.015  10.574
45342W        W11751  18.568  22.966  11.259
45343W        W11752  35.868   4.369  14.887
45344W        W11753  17.705  30.013  10.656
45345W        W11754  42.457  16.882   5.078
45346W        W11755  36.659  23.740  13.011
45347W        W11756  28.228   6.592   2.523
45348W        W11757  10.651  37.016  10.725
45349W        W11758  21.793   9.495   4.418
45350W        W11759  42.485  30.479  12.948
45351W        W11760  16.160   7.426  14.407
45352W        W11761  42.946   1.782   2.610
45353W        W11762  36.818  13.681   1.977
45354W        W11763  19.401  38.702   2.217
45355W        W11764  38.446  17.236   1.331
45356W        W11765  15.116  32.108   3.240
45357W        W11766  15.111  21.189  14.338
45358W        W11767  38.992   2.689  12.951
45359W        W11768  38.832  15.055   4.242
45360W        W11769   3.035  40.854  11.777
45361W        W11770  44.297   1.115   0.815
45362W        W11771  30.537  12.868   4.877
45363W        W11772  26.142  26.978   2.814
45364W        W11773   1.865   5.282  13.026
45365W        W11774  21.226   3.174   1.958
45366W        W11775   3.311  43.377   4.186
45367W        W11776  37.984   2.160   0.212
45368W        W11777  20.311  41.481   4.029
45369W        W11778  28.721  13.719   3.655
45370W        W11779  12.107  37.465  11.575
45371W        W11780  26.572  40.433   0.471
45372W        W11781  15.606  14.010   0.731
45373W        W11782  21.772   2.188   2.878
45374W        W11783  43.845  31.171   2.231
45375W        W11784  22.557  15.897  10.645
45376W        W11785  29.512  33.243   4.076
45377W        W11786   6.426   8.177   1.532
45378W        W11787  26.473  23.887   1.823
45379W        W11788  35.310  19.532  14.413
45380W        W11789  33.416  38.650   2.282
45381W        W11790  26.776  29.866   4.038
45382W        W11791  40.337  17.323  14.301
45383W        W11792  30.676  13.719   3.378
45384W        W11793  24.861  12.232  13.412
45385W        W11794   2.416  19.351   0.818
45386W        W11795  25.818  33.702  11.612
45387W        W11796  44.384   8.226  12.360
45388W        W11797  43.259  19.523  10.651
45389W        W11798  16.209   4.273   4.233
45390W        W11799  13.573  12.214   3.393
45391W        W11800   3.355  25.574   1.908
45392W        W11801  43.272   8.482  11.589
45393W        W11802  26.120  41.008  12.086
45394W        W11803  32.332  32.116   2.721
45395W        W11804  31.659   3.384  14.346
45396W        W11805  35.573   9.346  12.353
45397W        W11806  42.323   2.420   1.614
45398W        W11807  40.885  13.488   3.226
45399W        W11808  18.676  26.239   4.572
45400W        W11809  13.595  37.306   2.582
45401W        W11810  28.129  16.868   5.368
45402W        W11811  13.792  25.649   1.571
45403W        W11812  18.544  22.165   3.725
45404W        W11813   4.583  30.140  13.921
45405W        W11814   6.689  22.984  13.064
45406W        W11815   5.978  23.088  11.656
45407W        W11816  25.469   8.143   1.362
45408W        W11817  22.293  22.888  12.981
45409W        W11818  43.186  25.575   3.785
45410W        W11819  44.251  15.115  12.525
45411W        W11820  23.618   3.156  12.170
45412W        W11821  44.811  11.233   1.348
45413W        W11822  20.261  42.306  12.374
45414W        W11823  20.432  31.529   3.678
45415W        W11824   8.730   1.647   1.199
45416W        W11825  19.751  23.737   5.044
45417W        W11826   9.915   0.628  14.044
45418W        W11827  41.202   1.326   0.884
45419W        W11828  29.830  19.684  13.703
45420W        W11829  42.705   7.783   4.535
45421W        W11830  36.463  40.623   3.537
45422W        W11831  43.240   7.279  10.308
45423W        W11832  21.003   0.821  11.753
45424W        W11833  26.468  33.657   5.107
45425W        W11834  14.987  22.102   0.189
45426W        W11835   0.735   8.326  14.320
45427W        W11836  21.556   8.234  12.675
45428W        W11837  36.800  14.308   4.301
45429W        W11838  32.907   6.606   5.406
45430W        W11839   4.680  40.919  10.669
45431W        W11840  23.005  43.054  11.509
45432W        W11841  44.552   9.243  13.532
45433W        W11842  26.091  30.526  10.715
45434W        W11843  19.593  19.803   0.793
45435W        W11844  30.377   0.315   4.653
45436W        W11845  36.555  42.719   2.406
45437W        W11846  23.159  34.142   4.110
45438W        W11847  44.479  20.196   2.274
45439W        W11848   4.874  35.661   4.228
45440W        W11849  15.587  19.767   2.442
45441W        W11850  29.772  31.353  11.550
45442W        W11851  27.979  20.218  12.616
45443W        W11852   7.963  44.519  14.338
45444W        W11853  40.943  19.282   3.028
45445W        W11854  35.385  23.934  11.992
45446W        W11855  37.219  17.552   1.447
45447W        W11856  40.301  22.216  12.567
45448W        W11857  36.865  44.002   2.072
45449W        W11858  12.384  36.351   2.889
45450W        W11859   8.331  15.953  13.566
45451W        W11860  40.345   1.160  14.378
45452W        W11861  41.375  36.120  14.823
45453W        W11862   5.698  23.186   0.964
45454W        W11863   7.899  36.672   3.827
45455W        W11864  30.013  39.323  10.756
45456W        W11865  27.075  13.388  12.509
45457W        W11866  21.408  43.423   1.465
45458W        W11867   0.192  30.122  13.563
45459W        W11868  41.308  33.884  11.654
45460W        W11869  44.109  38.512   4.230
45461W        W11870   4.875   4.245   4.597
45462W        W11871  41.021  16.976  10.727
45463W        W11872  21.570  41.035  14.042
45464W        W11873   7.293  19.514   2.274
45465W        W11874  27.965   4.158   1.708
45466W        W11875  20.728  28.068   3.735
45467W        W11876  44.356  29.558  13.354
45468W        W11877  13.707  33.496  11.867
45469W        W11878  29.970  36.273  11.514
45470W        W11879  17.179  35.374  10.575
45471W        W11880   5.487   5.802   4.557
45472W        W11881   0.481  28.624  12.639
45473W        W11882  43.609  33.298   4.088
45474W        W11883   0.821   4.162   0.817
45475W        W11884   5.726  17.106   2.715
45476W        W11885  23.522  25.132   1.199
45477W        W11886   9.911  12.565  12.846
45478W        W11887  34.494   1.722  12.017
45479W        W11888  14.162   8.602   3.908
45480W        W11889  39.419  26.037  13.032
45481W        W11890  15.329   9.300  13.655
45482W        W11891  42.142  20.182  10.705
45483W        W11892  10.449  39.576  14.291
45484W        W11893  27.105  36.776   0.033
45485W        W11894   9.318  40.339   1.237
45486W        W11895  21.482  37.865  14.774
45487W        W11896   0.832  12.973   1.112
45488W        W11897  35.541  33.163   1.857
45489W        W11898  16.046   0.967  11.903
45490W        W11899  34.140  34.161  10.582
45491W        W11900  17.335  16.158  14.863
45492W        W11901  18.080   2.792  14.409
45493W        W11902  19.225  43.539  10.777
45494W        W11903  44.494  26.352  14.710
45495W        W11904  19.669   9.591  14.479
45496W        W11905  30.706  41.738  12.022
45497W        W11906  18.291  13.127   1.202
45498W        W11907  42.095  42.109   0.245
45499W        W11908  32.010  15.337   4.954
45500W        W11909  10.277  43.175  10.517
45501W        W11910  36.995  34.574   3.781
45502W        W11911  23.732  39.512   1.969
45503W        W11912  23.772  37.917   0.908
45504W        W11913  11.575  25.108   1.849
45505W        W11914  13.834  25.594   3.345
45506W        W11915  34.238  41.322   0.000
45507W        W11916  40.068  36.928   2.332
45508W        W11917  35.022   6.414   2.809
45509W        W11918   8.175   0.679  13.496
45510W        W11919  20.071  28.712   1.099
45511W        W11920   2.437  20.287  12.981
45512W        W11921   8.141  38.842  13.755
45513W        W11922   5.489  41.479  13.837
45514W        W11923  40.933   6.199   1.184
45515W        W11924  30.093   4.021  12.776
45516W        W11925  18.000  26.524   4.863
45517W        W11926  18.793  25.494   0.254
45518W        W11927   4.914  18.984  10.419
45519W        W11928  29.904  23.586  11.092
45520W        W11929  32.171  25.704  12.560
45521W        W11930   6.999  42.936  14.970
45522W        W11931  29.964  30.516   3.048
45523W        W11932  17.115   4.886   1.320
45524W        W11933  36.681  35.812   3.122
45525W        W11934  16.229  42.111   3.322
45526W        W11935   9.856  19.064   1.902
45527W        W11936  16.395  44.423  11.207
45528W        W11937  41.657  30.903  10.743
45529W        W11938  28.846   1.301   4.341
45530W        W11939   4.126   6.972  12.156
45531W        W11940  32.655  12.609  11.502
45532W        W11941   3.606   3.827  11.649
45533W        W11942  30.964  31.728  11.171
45534W        W11943  17.051   6.896  14.523
45535W        W11944  19.683  26.516  12.301
45536W        W11945   2.417  10.257   0.920
45537W        W11946  43.855  23.304   0.068
45538W        W11947  42.828   3.730   0.351
45539W        W11948  20.526   6.662   3.755
45540W        W11949  14.440  36.469  10.337
45541W        W11950  23.480  11.798   0.827
45542W        W11951  43.315  33.818   3.730
45543W        W11952  22.400  21.730   3.090
45544W        W11953   6.493  34.409  11.569
45545W        W11954  42.517  14.588   3.425
45546W        W11955  43.429  21.553   1.840
45547W        W11956  38.332  42.575  14.757
45548W        W11957  17.034  36.039  11.950
45549W        W11958  30.779   2.283   5.352
45550W        W11959  29.463  16.448   4.271
45551W        W11960  34.938  40.185  12.647
45552W        W11961  21.034   9.192   4.718
45553W        W11962  30.524  14.208   3.598
45554W        W11963   1.935  24.476   0.399
45555W        W11964  40.172  15.753  13.115
45556W        W11965  34.420  37.392   0.406
45557W        W11966  36.304  10.439  11.951
45558W        W11967  28.787   0.923   1.152
45559W        W11968  39.312  23.947   2.720
45560W        W11969  37.081  25.541  13.012
45561W        W11970   0.279  20.883  14.043
45562W        W11971  41.972  28.448  11.683
45563W        W11972   2.073   6.966  11.482
45564W        W11973  35.101  42.602  12.025
45565W        W11974  27.863  42.913  13.606
45566W        W11975  11.420  27.662   3.140
45567W        W11976  20.810  20.091   3.929
45568W        W11977   3.962  12.699  11.366
45569W        W11978   3.458   9.315  11.924
45570W        W11979   3.720  40.831  11.847
45571W        W11980  37.558  11.780   1.930
45572W        W11981  32.613  34.014   4.317
45573W        W11982  18.744   9.965  12.973
45574W        W11983   3.650  30.975  14.234
45575W        W11984  21.289   6.884   4.141
45576W        W11985   9.765   1.558   1.981
45577W        W11986   0.981  10.245   2.779
45578W        W11987  34.315  25.179   4.698
45579W        W11988  35.005  33.413   4.409
45580W        W11989  23.683  23.207  14.564
45581W        W11990  10.201  18.802  14.689
45582W        W11991  38.040   0.342  10.926
45583W        W11992   4.246  15.686  11.650
45584W        W11993  21.612  37.436  13.823
45585W        W11994   0.375  33.695   3.417
45586W        W11995   5.743   1.439   3.850
45587W        W11996   3.677  29.035   1.786
45588W        W11997  22.949   7.720   0.273
45589W        W11998  14.331  42.667   3.607
45590W        W11999  29.388  34.391   1.807
45591W        W12000  15.296   1.295  14.975
45592W        W12001  19.404  37.299  12.398
45593W        W12002   2.806  28.523  10.646
45594W        W12003  43.858  44.169  11.458
45595W        W12004  29.987  28.308   0.937
45596W        W12005  13.690  19.357   2.246
45597W        W12006  16.000  32.590  13.206
45598W        W12007  42.130   4.093   1.034
45599W        W12008   6.490  31.538  13.969
45600W        W12009  14.772  43.258   1.825
45601W        W12010   4.380  11.395  11.409
45602W        W12011  36.036  21.228  11.545
45603W        W12012  43.528   5.547   4.145
45604W        W12013  17.691  34.929  10.726
45605W        W12014  43.500  25.449  12.991
45606W        W12015  30.329  13.137   1.747
45607W        W12016  38.490  24.825   1.151
45608W        W12017   4.016  28.648  10.729
45609W        W12018  40.728  24.098   4.459
45610W        W12019  16.172   2.948  14.082
45611W        W12020  38.760  34.217   4.182
45612W        W12021  15.450  42.219   4.873
45613W        W12022   2.421  23.983   1.178
45614W        W12023   9.832   9.226  14.952
45615W        W12024   9.422   4.159   2.320
45616W        W12025   7.474  22.922  11.494
45617W        W12026  14.564  19.519  10.668
45618W        W12027  29.961   2.469   3.570
45619W        W12028  38.820  24.054  12.902
45620W        W12029  43.924  35.475  13.952
45621W        W12030  36.531  20.530  13.427
45622W        W12031  18.281  16.439  12.514
45623W        W12032   9.409  17.091   0.026
45624W        W12033  24.723  35.044   0.530
45625W        W12034  22.604  22.611  13.815
45626W        W12035   6.426  40.005  14.142
45627W        W12036  29.186  32.799  13.602
45628W        W12037  10.301  26.736  11.089
45629W        W12038  19.739  14.768   3.908
45630W        W12039  26.473  19.652   4.669
45631W        W12040   7.620   4.748  13.085
45632W        W12041  44.025   7.890  14.992
45633W        W12042  17.338  10.414   2.266
45634W        W12043  22.109  32.623   0.885
45635W        W12044   2.545  14.422   0.876
45636W        W12045  44.720  37.421   0.985
45637W        W12046  42.973   4.485   3.822
45638W        W12047  43.435  13.354   4.162
45639W        W12048  12.302  14.382  11.492
45640W        W12049  29.080  20.526  14.412
45641W        W12050  35.056  22.056  12.880
45642W        W12051  10.255  42.897  14.500
45643W        W12052  14.752  40.838  13.572
45644W        W12053  15.287   2.472   2.719
45645W        W12054   3.731  26.442   1.687
45646W        W12055   7.182  41.801   1.400
45647W        W12056  26.762  33.983  10.736
45648W        W12057  35.965  11.441   0.190
45649W        W12058   6.198  15.638  10.720
45650W        W12059  32.038  36.044  14.786
45651W        W12060   5.659  10.858   0.905
45652W        W12061  15.789  30.924   1.090
45653W        W12062  15.119  30.975  14.545
45654W        W12063  17.057  22.826   3.822
45655W        W12064  33.612  39.472  10.564
45656W        W12065   8.619  24.535  13.006
45657W        W12066  34.277  42.744  14.888
45658W        W12067  37.815  43.513  10.778
45659W        W12068  31.912   4.323  14.036
45660W        W12069  16.167  33.070  13.020
45661W        W12070  18.205  11.374  11.294
45662W        W12071   1.810  23.651   1.397
45663W        W12072  25.077   1.638  13.545
45664W        W12073  24.775  27.831  14.608
45665W        W12074  44.741  37.030   0.680
45666W        W12075  12.724  37.619   3.658
45667W        W12076  12.260   2.020   4.975
45668W        W12077  31.045  44.319  11.338
45669W        W12078  12.297  11.747   3.411
45670W        W12079   1.865  38.838   3.334
45671W        W12080   2.935   5.677  13.011
45672W        W12081  31.037  12.656   3.190
45673W        W12082  37.368  19.304  12.400
45674W        W12083  42.269  33.205   0.863
45675W        W12084  20.230  42.167   3.173
45676W        W12085  13.764  11.852   0.223
45677W        W12086  21.066  32.024  14.739
45678W        W12087  36.881  15.784  10.414
45679W        W12088  12.147  24.267   1.390
45680W        W12089  41.861  40.133  11.110
45681W        W12090  33.692  35.416   1.462
45682W        W12091  30.078   2.244   0.525
45683W        W12092  23.304  42.470  12.337
45684W        W12093  39.053  27.472  10.631
45685W        W12094  25.188  17.176   1.455
45686W        W12095   7.883  41.012  14.306
45687W        W12096  23.546  38.442  13.815
45688W        W12097  36.017  28.700   2.585
45689W        W12098  30.367  22.810   0.873
45690W        W12099   2.348  16.625   0.386
45691W        W12100  26.412  23.730  13.314
45692W        W12101  42.034  14.340  10.916
45693W        W12102   1.229  14.133  11.677
45694W        W12103  34.419  30.909   0.927
45695W        W12104   0.480  39.968  14.731
45696W        W12105   0.371   9.053   4.071
45697W        W12106  10.343  19.212  12.606
45698W        W12107   1.123  41.597   3.414
45699W        W12108  44.757  26.218   0.817
45700W        W12109  17.156  21.011  13.078
45701W        W12110  31.086   8.142  11.032
45702W        W12111  42.296  16.835   0.078
45703W        W12112  15.258  39.120   0.776
45704W        W12113  30.569  26.104  14.410
45705W        W12114  35.679  30.879   3.116
45706W        W12115  16.468  24.626   1.239
45707W        W12116   4.332  20.446  11.593
45708W        W12117  10.852  38.972  13.025
45709W        W12118  24.775  20.274   0.697
45710W        W12119  31.822  27.184  14.473
45711W        W12120   5.174   8.296  11.288
45712W        W12121  37.801  37.621  13.074
45713W        W12122  27.439   7.068   1.792
45714W        W12123  41.783  38.365  11.221
45715W        W12124  37.009  41.903  12.097
45716W        W12125  42.402   4.782  10.146
45717W        W12126  14.499  20.531   0.299
45718W        W12127   2.436  35.344   3.823
45719W        W12128  29.503  12.642  13.098
45720W        W12129  34.167  32.873  14.887
45721W        W12130   6.402   1.304   0.902
45722W        W12131   4.426  26.864  14.285
45723W        W12132  24.696  42.890  12.581
45724W        W12133  32.847  13.248  13.113
45725W        W12134  23.483  19.155  14.460
45726W        W12135  44.427  17.317   2.847
45727W        W12136   8.043  41.551  11.637
45728W        W12137   3.062  37.424   4.509
45729W        W12138  40.948  43.262  11.004
45730W        W12139  44.381   5.292   1.363
45731W        W12140   3.593  37.326   4.590
45732W        W12141  32.446  16.243  14.454
45733W        W12142  24.586  11.274   0.492
45734W        W12143  37.335  42.081  11.149
45735W        W12144  36.036   2.780  14.001
45736W        W12145  39.390   9.846  11.055
45737W        W12146  30.036  35.004   1.945
45738W        W12147   4.078  44.266  12.058
45739W        W12148  15.860  12.401   4.586
45740W        W12149  17.225  15.005   1.906
45741W        W12150  41.026   0.287  11.382
45742W        W12151  24.069  21.286  12.199
45743W        W12152  11.499   3.079   4.697
45744W        W12153  24.442  10.925   3.719
45745W        W12154  43.524  23.664   0.285
45746W        W12155   2.083  11.298  14.566
45747W        W12156  21.208  30.006  11.646
45748W        W12157  33.226  19.694  10.291
45749W        W12158  17.058  14.066  10.727
45750W        W12159  16.237  27.242  14.919
45751W        W12160  27.706  29.615  12.674
45752W        W12161  10.856  17.037   2.291
45753W        W12162   6.398  12.177  13.379
45754W        W12163  27.564   9.140  13.835
45755W        W12164  15.533  19.293   2.224
45756W        W12165  42.787  20.580  12.133
45757W        W12166  32.367  11.790  11.283
45758W        W12167  36.359   0.420  13.408
45759W        W12168  19.748   7.144   2.662
45760W        W12169  28.396  41.762  12.087
45761W        W12170  20.648   1.464   3.325
45762W        W12171  34.667  31.977  11.955
45763W        W12172  16.327  36.332  14.774
45764W        W12173  24.110  36.902   4.087
45765W        W12174  15.607  39.904  11.906
45766W        W12175   7.417  16.034   4.554
45767W        W12176  23.924  22.185  12.166
45768W        W12177   6.888  35.779   2.202
45769W        W12178  11.680  34.531   2.291
45770W        W12179  22.851  13.587  11.067
45771W        W12180   8.858  40.910   1.893
45772W        W12181  44.992  31.948  12.871
45773W        W12182  39.971  27.998   4.379
45774W        W12183  27.498  35.270   4.688
45775W        W12184  14.603  34.065   1.361
45776W        W12185  27.609   9.865   4.213
45777W        W12186  43.647  12.303   4.698
45778W        W12187  12.426  18.632  11.056
45779W        W12188  27.413   5.671  14.643
45780W        W12189  32.061  44.464  10.667
45781W        W12190  20.227  39.567   1.133
45782W        W12191  31.048  17.505   0.374
45783W        W12192  36.232  19.003   4.083
45784W        W12193  34.838  18.264  11.595
45785W        W12194   9.886  20.156  14.164
45786W        W12195  11.757  22.247  13.936
45787W        W12196  16.583  16.684   4.944
45788W        W12197   4.184  12.287   3.049
45789W        W12198  19.339  11.567   0.691
45790W        W12199  19.014  13.129   0.259
45791W        W12200  18.291  42.824  13.290
45792W        W12201  16.545  41.336   2.439
45793W        W12202  22.048  31.169  13.369
45794W        W12203  13.612  37.664   3.415
45795W        W12204  30.977  40.985   2.863
45796W        W12205  14.743  25.217  12.474
45797W        W12206   8.139  39.877  12.587
45798W        W12207  10.211  40.990   4.122
45799W        W12208   2.208  42.791  12.617
45800W        W12209  17.394  14.770  12.398
45801W        W12210  41.758  22.624   4.141
45802W        W12211  22.006  13.197   2.330
45803W        W12212  27.180   5.839   3.237
45804W        W12213  33.834   0.497  11.894
45805W        W12214  28.247  18.347   2.204
45806W        W12215  42.386  21.281  14.405
45807W        W12216  15.078   4.404   1.875
45808W        W12217  32.021   0.039   1.641
45809W        W12218  10.344  40.389   1.825
45810W        W12219  40.968   1.051  10.889
45811W        W12220  14.214  44.697  13.843
45812W        W12221  15.426  23.843  10.817
45813W        W12222  44.605  10.557   3.048
45814W        W12223  23.127  37.422  11.619
45815W        W12224  12.060   6.804  13.986
45816W        W12225  32.222  39.769   3.911
45817W        W12226  22.244  28.100   0.238
45818W        W12227  21.121  31.523  13.301
45819W        W12228   2.453   7.145  12.992
45820W        W12229  12.207  20.411  10.262
45821W        W12230  19.745  11.323   0.976
45822W        W12231  14.742  21.759  14.841
45823W        W12232  21.265  24.974   1.872
45824W        W12233   2.894  37.022  11.369
45825W        W12234  38.066  16.687  14.711
45826W        W12235  23.287   5.564  11.214
45827W        W12236  35.328  40.496   4.891
45828W        W12237   7.618  19.660   1.091
45829W        W12238  37.614  34.859   0.916
45830W        W12239  20.118  35.451   0.011
45831W        W12240   4.338  42.087  11.453
45832W        W12241  19.043  21.537  11.991
45833W        W12242  16.221  30.176  12.493
45834W        W12243   0.955  43.822   0.618
45835W        W12244  27.629  22.661   3.947
45836W        W12245  36.471  17.230   1.382
45837W        W12246  41.973  10.143   2.314
45838W        W12247  28.207  27.091   0.915
45839W        W12248  42.511  32.958   4.481
45840W        W12249  36.512  38.801  10.721
45841W        W12250   0.676  26.633   1.077
45842W        W12251  32.034  17.414   4.461
45843W        W12252  29.638  34.002   0.879
45844W        W12253  22.478  42.998  12.402
45845W        W12254  26.737  27.362   0.931
45846W        W12255  28.735  20.087   1.338
45847W        W12256   4.027  21.319  12.431
45848W        W12257  12.368  39.653   3.750
45849W        W12258  30.385   9.979   5.101
45850W        W12259  25.472  19.579  12.398
45851W        W12260  37.394  25.361  12.344
45852W        W12261   4.821  34.100   1.399
45853W        W12262  26.306  32.651   2.259
45854W        W12263  39.157  14.363  10.258
45855W        W12264  12.994  16.055  10.548
45856W        W12265   3.875  24.550   1.237
45857W        W12266   2.899  31.670  14.923
45858W        W12267  40.459  20.120   1.348
45859W        W12268  12.526   2.403  13.973
45860W        W12269  10.159  20.981  14.203
45861W        W12270  25.371  13.016  11.279
45862W        W12271  23.866  19.196  12.075
45863W        W12272   4.476   2.711   0.916
45864W        W12273  11.234  42.901  10.738
45865W        W12274  27.368  31.836  13.581
45866W        W12275  13.118  30.230  14.220
45867W        W12276  44.020  42.432  13.032
45868W        W12277  10.601   7.757  12.184
45869W        W12278  28.943  44.422   0.057
45870W        W12279  19.013  30.372   4.309
45871W        W12280  35.521   9.156   0.909
45872W        W12281  12.255  26.491  11.138
45873W        W12282  41.820  30.934  12.493
45874W        W12283  13.258  43.544  10.513
45875W        W12284   0.949  30.990  14.867
45876W        W12285  43.311  41.108  13.825
45877W        W12286  20.017  43.977  11.175
45878W        W12287  12.237  37.476   1.964
45879W        W12288  26.528  10.190  14.822
45880W        W12289  31.596  31.556  12.244
45881W        W12290  40.904  41.779   4.621
45882W        W12291   8.154  25.756   4.571
45883W        W12292  24.650  20.580  11.218
45884W        W12293   9.912  26.707   2.700
45885W        W12294  34.571  16.589   2.278
45886W        W12295  24.597  11.996   0.445
45887W        W12296  32.607  19.913   2.378
45888W        W12297  35.841   5.343  12.214
45889W        W12298  44.458  32.702   5.031
45890W        W12299  26.494  43.791   2.123
45891W        W12300  11.160  43.139   4.556
45892W        W12301  35.189  11.706   3.975
45893W        W12302   5.025  40.722   3.633
45894W        W12303  37.295  25.095  14.922
45895W        W12304  34.590  32.986  12.454
45896W        W12305  15.062   9.679  12.121
45897W        W12306  38.366  34.690  11.918
45898W        W12307   3.010  12.783  10.755
45899W        W12308   5.645   8.376  13.081
45900W        W12309  38.430  24.706  10.668
45901W        W12310  18.239  11.133  14.050
45902W        W12311  37.884   4.471   2.097
45903W        W12312  40.490  39.029  11.596
45904W        W12313   2.011  43.829  12.932
45905W        W12314  28.580   0.848  11.021
45906W        W12315   3.831  39.954   1.388
45907W        W12316  31.604  18.590  11.841
45908W        W12317  35.448   7.311   3.376
45909W        W12318   9.958  21.051   2.261
45910W        W12319  18.482   5.868   4.323
45911W        W12320  20.317  14.010  10.292
45912W        W12321  19.154  36.004   3.574
45913W        W12322  40.301  31.894  11.584
45914W        W12323   8.775  32.181  14.289
45915W        W12324  10.880  28.621  13.586
45916W        W12325  16.233  15.187   1.630
45917W        W12326   5.099  33.414  11.006
45918W        W12327  28.215  37.143   2.607
45919W        W12328  30.322   9.245  12.955
45920W        W12329  19.471  17.034  11.219
45921W        W12330  26.576   5.968  13.482
45922W        W12331  23.094  34.615   1.620
45923W        W12332  43.809  16.236   2.581
45924W        W12333   3.848  30.138   1.249
45925W        W12334  29.445  17.089  11.991
45926W        W12335   0.473   5.989  11.551
45927W        W12336  23.270  19.812   2.865
45928W        W12337  41.045  36.035   2.917
45929W        W12338  34.554  22.189  13.570
45930W        W12339  38.141   5.400  12.905
45931W        W12340  21.612  27.507   4.487
45932W        W12341  21.858  26.357   0.830
45933W        W12342  32.603  42.965  13.551
45934W        W12343  22.916  26.963   0.347
45935W        W12344  33.148  23.045  14.082
45936W        W12345  32.012  44.158  14.492
45937W        W12346  14.051  24.154  13.330
45938W        W12347   6.788  32.158  10.529
45939W        W12348  42.156  15.523   2.970
45940W        W12349  44.711  12.818   2.365
45941W        W12350  23.195  36.881   2.344
45942W        W12351  16.490  16.230   3.527
45943W        W12352  19.120  28.165   1.653
45944W        W12353   7.843  37.908   2.171
45945W        W12354  27.132  40.779   0.907
45946W        W12355   7.117  42.570  14.401
45947W        W12356  25.973  25.152   0.071
45948W        W12357  10.665  32.814  13.342
45949W        W12358  35.019  38.934   1.811
45950W        W12359  32.905  10.577   4.140
45951W        W12360   6.538  39.025  11.964
45952W        W12361  32.104  43.260   3.334
45953W        W12362  21.335  31.665   0.823
45954W        W12363  39.878  19.502  11.994
45955W        W12364  41.310  39.046   0.686
45956W        W12365   1.881  17.183  10.515
45957W        W12366  28.493  44.499  14.310
45958W        W12367   8.288   8.773   1.042
45959W        W12368  42.019  34.496   1.763
45960W        W12369   6.658   4.991  10.053
45961W        W12370   1.926  35.085   3.613
45962W        W12371  10.402   1.959  10.418
45963W        W12372  35.243  30.681   1.436
45964W        W12373   5.803  40.951   3.617
45965W        W12374  15.640  18.589  11.915
45966W        W12375  31.484  19.069  12.074
45967W        W12376   0.323   8.825   4.519
45968W        W12377  39.562  32.347   3.156
45969W        W12378  32.310  43.835   3.116
45970W        W12379  28.082  21.082   3.190
45971W        W12380   3.899  30.615  10.665
45972W        W12381  16.753  36.021  12.915
45973W        W12382   7.487  29.051   3.000
45974W        W12383  10.311  14.901  14.001
45975W        W12384  34.638   0.913   4.166
45976W        W12385   7.777  26.162  13.843
45977W        W12386  14.403  37.534  13.875
45978W        W12387  37.656   4.800  10.818
45979W        W12388  27.652  44.414  14.523
45980W        W12389   5.493  30.416   0.927
45981W        W12390   9.078  31.492  13.054
45982W        W12391   2.327  32.555   0.259
45983W        W12392  44.901   5.309  11.156
45984W        W12393  11.882  38.712   1.953
45985W        W12394  29.906  26.135   0.272
45986W        W12395  30.074   7.747  11.114
45987W        W12396  22.008  30.552  11.109
45988W        W12397   1.253  30.088   3.818
45989W        W12398  39.830  42.596  13.912
45990W        W12399  25.929  20.519  14.332
45991W        W12400  26.567   9.459  12.332
45992W        W12401  21.074  21.199   5.126
45993W        W12402  36.903  11.213   0.835
45994W        W12403  25.011  38.796   3.383
45995W        W12404  23.900  38.606   2.357
45996W        W12405  13.427  33.970   0.647
45997W        W12406  43.872  31.187   1.303
45998W        W12407  33.949  32.618  14.060
45999W        W12408   7.095  16.577   4.544
46000W        W12409  17.621   9.645  13.541
46001W        W12410  22.099  27.049  11.121
46002W        W12411   1.698  37.359   2.761
46003W        W12412  42.631  33.194   0.063
46004W        W12413  29.540  19.363  12.088
46005W        W12414  34.350  42.791  11.613
46006W        W12415   4.397  43.880   2.396
46007W        W12416  44.284  40.540  13.455
46008W        W12417  22.580   1.298  12.902
46009W        W12418  12.161  17.223   4.710
46010W        W12419  27.137  11.710  13.367
46011W        W12420  22.522   2.648  13.839
46012W        W12421  21.150  38.258   2.150
46013W        W12422  19.061  36.922  14.372
46014W        W12423  11.777   5.288  12.402
46015W        W12424  31.634  26.500  13.429
46016W        W12425  39.900  44.203  13.046
46017W        W12426  38.219  23.614   4.959
46018W        W12427   4.277   7.691  11.118
46019W        W12428  28.010  23.915  11.618
46020W        W12429  33.025  13.630   2.855
46021W        W12430  40.025  36.627  10.732
46022W        W12431  36.344  18.482   2.854
46023W        W12432  13.100   1.567  14.439
46024W        W12433  29.181  27.001  12.641
46025W        W12434  13.953  42.746  12.965
46026W        W12435  12.634  11.540   3.760
46027W        W12436  15.698  44.316  14.907
46028W        W12437   1.773  31.352  11.216
46029W        W12438  10.308  19.459   0.855
46030W        W12439  16.638   8.642  14.881
46031W        W12440  24.940  14.147  12.981
46032W        W12441  15.429  39.941  14.551
46033W        W12442  41.447   6.871   1.046
46034W        W12443  38.331  25.109  11.137
46035W        W12444  40.027  41.513   4.902
46036W        W12445  43.450  25.193   2.813
46037W        W12446  36.012  31.265   4.953
46038W        W12447  25.608  32.657   1.739
46039W        W12448  37.382   7.872   1.148
46040W        W12449  28.577  34.418  10.744
46041W        W12450  21.466  23.889  11.268
46042W        W12451  31.576  24.065  11.644
46043W        W12452  37.114  32.141   4.370
46044W        W12453  14.260  26.027   0.272
46045W        W12454  34.155  26.531  14.542
46046W        W12455   6.172  33.531  11.641
46047W        W12456  11.188  30.382  11.090
46048W        W12457  37.171  22.959  12.501
46049W        W12458  19.238   4.448   0.119
46050W        W12459  44.363   3.813  12.373
46051W        W12460  14.162  36.834   3.704
46052W        W12461  26.750  38.441   1.735
46053W        W12462  15.621  15.152   1.437
46054W        W12463  24.160  29.209  10.715
46055W        W12464  31.441  17.103   1.275
46056W        W12465  15.882  42.354   1.835
46057W        W12466  26.446   8.183  11.515
46058W        W12467   6.137  15.534  12.100
46059W        W12468  42.415  41.701  10.428
46060W        W12469  21.669  35.053   4.771
46061W        W12470  11.610  30.846  13.791
46062W        W12471  32.545  40.061  12.456
46063W        W12472  18.042  32.939  11.911
46064W        W12473   5.895  13.731   3.260
46065W        W12474  34.561  21.230  11.421
46066W        W12475  44.466  16.570   2.230
46067W        W12476  29.060   3.867   2.839
46068W        W12477   4.681  37.428  14.060
46069W        W12478  13.584  22.732   0.346
46070W        W12479  41.843   9.715   0.572
46071W        W12480   5.824  13.223   5.007
46072W        W12481  39.515  12.291  11.104
46073W        W12482  32.098  23.120   0.464
46074W        W12483  29.303  41.365  14.889
46075W        W12484  42.282  16.101  10.927
46076W        W12485  27.750  16.345   4.460
46077W        W12486  28.518  17.216  13.976
46078W        W12487  27.011  16.215  13.425
46079W        W12488  16.829   6.792   3.189
46080W        W12489  17.839  14.037  12.048
46081W        W12490   3.812   4.276  11.798
46082W        W12491  24.719  29.995  12.048
46083W        W12492  39.801  19.186  11.495
46084W        W12493  44.479  44.995  10.813
46085W        W12494  44.208  25.535  14.887
46086W        W12495  27.934  19.592  10.170
46087W        W12496  12.641  14.877   3.445
46088W        W12497   4.815  31.464  10.790
46089W        W12498  28.097  40.791  13.398
46090W        W12499   8.699  22.856   0.932
46091W        W12500   4.370  39.534   4.854
46092W        W12501  13.581  38.886  11.591
46093W        W12502  33.189  12.083   4.150
46094W        W12503  25.599  24.516  11.526
46095W        W12504  44.205  15.199   2.077
46096W        W12505  10.148  15.440  10.758
46097W        W12506  31.405  19.131   4.787
46098W        W12507  37.447  16.630   4.143
46099W        W12508  14.267  40.763  14.384
46100W        W12509  18.903  36.028  10.400
46101W        W12510  24.707   0.888  14.794
46102W        W12511  37.356  17.257   1.856
46103W        W12512  28.592  14.376  13.773
46104W        W12513  44.975  13.592   0.954
46105W        W12514  39.670  14.755   1.720
46106W        W12515  42.049  16.530  12.081
46107W        W12516  38.135  44.820  14.820
46108W        W12517  14.851  10.566  12.031
46109W        W12518  15.737  32.171   0.885
46110W        W12519  35.713  27.441   4.543
46111W        W12520  31.083  44.317   0.741
46112W        W12521   7.721  30.707  12.141
46113W        W12522  35.263  31.190  11.626
46114W        W12523   4.993   6.338   1.323
46115W        W12524  36.818  24.244  13.087
46116W        W12525   1.358   5.352   4.109
46117W        W12526  36.072  11.170   1.410
46118W        W12527  23.494   6.717  13.469
46119W        W12528   0.471  13.301  11.887
46120W        W12529  27.417  41.840   2.429
46121W        W12530  20.223  37.178   1.200
46122W        W12531   4.890  44.961  13.843
46123W        W12532  18.545  15.871  14.596
46124W        W12533  42.045  33.445  13.971
46125W        W12534  44.041  20.675  14.076
46126W        W12535  42.009  17.557   2.180
46127W        W12536   7.172  26.882  14.263
46128W        W12537   8.477   0.984   2.397
46129W        W12538  37.338   1.045   4.952
46130W        W12539  43.038   7.348   3.812
46131W        W12540   2.056  10.395   3.699
46132W        W12541  32.071  25.255  13.937
46133W        W12542   6.390  38.561  11.861
46134W        W12543  16.655  42.199   4.984
46135W        W12544  30.999  18.579  13.904
46136W        W12545  28.282   6.878  13.100
46137W        W12546  23.732  18.607   3.238
46138W        W12547   6.783   6.718  14.359
46139W        W12548  39.865  20.074   3.233
46140W        W12549  38.885  36.991  10.228
46141W        W12550  27.717  23.171   5.033
46142W        W12551  26.135   0.815  12.307
46143W        W12552  23.288   3.629   2.792
46144W        W12553  14.231  42.903   4.471
46145W        W12554  22.377  33.567  13.317
46146W        W12555  22.270  36.230  11.602
46147W        W12556  36.364  32.212  13.161
46148W        W12557  18.269  29.128   4.578
46149W        W12558  18.153  22.799   0.266
46150W        W12559  21.673  28.039   4.474
46151W        W12560   1.426   5.626   0.315
46152W        W12561  11.807   5.276  11.895
46153W        W12562  13.771  44.824   0.539
46154W        W12563   8.465  35.942  11.113
46155W        W12564   1.864  37.918  10.483
46156W        W12565  22.445  28.596  12.185
46157W        W12566  17.985   5.311   4.249
46158W        W12567  12.439  38.951  12.514
46159W        W12568  17.096   2.408  10.695
46160W        W12569  10.641  38.021   3.189
46161W        W12570   3.866  23.678  12.955
46162W        W12571   9.994  44.784   3.677
46163W        W12572  32.441  18.150   4.237
46164W        W12573   1.450  31.852  14.879
46165W        W12574  14.358  33.879   4.544
46166W        W12575  32.376  26.117  12.249
46167W        W12576   7.320  34.880  13.404
46168W        W12577  16.045   3.336   4.681
46169W        W12578  36.016  40.055  10.714
46170W        W12579  12.917  33.809  10.228
46171W        W12580  11.924   7.686   1.465
46172W        W12581  11.252  11.519   1.766
46173W        W12582   6.174   5.954  10.387
46174W        W12583   3.687  29.677   4.197
46175W        W12584  43.039  22.576  13.839
46176W        W12585  20.572  30.897   4.805
46177W        W12586  39.939   5.154  13.803
46178W        W12587  12.297  43.531   1.797
46179W        W12588  13.910  41.389   1.425
46180W        W12589  24.930  20.289   3.329
46181W        W12590  43.551  13.643   1.388
46182W        W12591  24.289  39.883  11.315
46183W        W12592  15.958  19.591  10.525
46184W        W12593  43.307  10.761   4.030
46185W        W12594  39.657   2.526  11.113
46186W        W12595  19.206  24.206  14.309
46187W        W12596   1.320  42.399  11.452
46188W        W12597  25.143  10.085  14.308
46189W        W12598  26.699  16.244   0.041
46190W        W12599   9.775  44.771   1.449
46191W        W12600  21.246  39.808  14.729
46192W        W12601  38.145  14.122   4.634
46193W        W12602  29.308  11.650   3.779
46194W        W12603  39.533  21.496   0.762
46195W        W12604  37.624   5.234   2.855
46196W        W12605  16.705   0.265  10.716
46197W        W12606   2.854   3.274   3.592
46198W        W12607  30.025  41.944   3.007
46199W        W12608  38.795  22.116  12.402
46200W        W12609  15.520  29.218   9.905
46201W        W12610  31.643  30.344   1.407
46202W        W12611  18.331  31.927  10.813
46203W        W12612  35.413  34.839   1.441
46204W        W12613  22.559   2.415  12.482
46205W        W12614  19.711  24.419   0.235
46206W        W12615  30.001   0.400   3.399
46207W        W12616   3.341  16.152   1.719
46208W        W12617  19.598  23.687  12.160
46209W        W12618   3.158   0.973  14.868
46210W        W12619   5.193  13.227  13.791
46211W        W12620  35.153  17.543  10.589
46212W        W12621  23.238  40.112   2.225
46213W        W12622  15.105   8.834  13.874
46214W        W12623  44.939  15.712  12.934
46215W        W12624  24.548  29.259   4.257
46216W        W12625   5.905  17.134   3.620
46217W        W12626  17.973  16.867  13.406
46218W        W12627  24.101   6.520  14.930
46219W        W12628  20.680  42.038   5.037
46220W        W12629  17.658  39.985  13.498
46221W        W12630   1.194  17.031   0.088
46222W        W12631  37.631   4.021  11.579
46223W        W12632  43.388   7.763  10.281
46224W        W12633   1.460  23.559  13.511
46225W        W12634  28.946  32.817   3.265
46226W        W12635   7.954  37.407   2.306
46227W        W12636  15.228  14.782  11.654
46228W        W12637  10.221  41.240  12.422
46229W        W12638  14.644  10.818   1.116
46230W        W12639   9.383   0.392  11.574
46231W        W12640  30.006   4.590  12.559
46232W        W12641  41.900  20.928   3.376
46233W        W12642  36.898   0.486  11.126
46234W        W12643   5.312  43.500   1.841
46235W        W12644  33.025  34.156   0.306
46236W        W12645  26.185  21.417  13.094
46237W        W12646  24.592  20.748  14.473
46238W        W12647  27.568  14.326   3.534
46239W        W12648   0.516   1.499   0.169
46240W        W12649  12.218  11.810   4.427
46241W        W12650  26.239  13.034  11.955
46242W        W12651  16.500  26.400   1.265
46243W        W12652   5.218  44.905   0.827
46244W        W12653  25.300   2.765   0.199
46245W        W12654   7.345  37.323  11.496
46246W        W12655  18.891  31.571   1.684
46247W        W12656  27.138   9.137  14.373
46248W        W12657  13.108  32.351   3.699
46249W        W12658  18.215   7.447  12.404
46250W        W12659  37.089  25.650   1.781
46251W        W12660   0.297  35.014  10.738
46252W        W12661   0.553   6.319   3.623
46253W        W12662  42.904  16.609  11.077
46254W        W12663  31.898   7.501  11.526
46255W        W12664  18.464  27.034   1.814
46256W        W12665  34.252   5.340  11.221
46257W        W12666  14.821  42.809   3.727
46258W        W12667   7.698  36.977   0.318
46259W        W12668  12.208  30.660   4.766
46260W        W12669  41.307   3.029  11.594
46261W        W12670   6.353  42.838   2.489
46262W        W12671  26.670   1.526   3.186
46263W        W12672  15.657  22.693  13.812
46264W        W12673  22.063  38.433   0.468
46265W        W12674  20.212   6.228   3.798
46266W        W12675   6.419  30.493   4.864
46267W        W12676  37.298  31.220  14.355
46268W        W12677  21.249  43.761  11.900
46269W        W12678  41.777  41.491   1.661
46270W        W12679  12.233  20.646   2.192
46271W        W12680  44.990   0.107  10.721
46272W        W12681  29.336  27.390  11.596
46273W        W12682  19.642   4.139   1.873
46274W        W12683   3.966  12.656   0.985
46275W        W12684   7.704  15.495   3.599
46276W        W12685  26.548  23.172   2.664
46277W        W12686   8.153   6.281  14.516
46278W        W12687  15.841  22.000  14.430
46279W        W12688  43.646   8.218  11.809
46280W        W12689  28.492  21.363   9.649
46281W        W12690  13.707  36.953  12.339
46282W        W12691  29.030  38.801  12.877
46283W        W12692  37.094   7.240  13.996
46284W        W12693  30.342  34.894   0.925
46285W        W12694  24.790  26.179   9.967
46286W        W12695  41.039  24.050  10.388
46287W        W12696  37.953   7.314   3.146
46288W        W12697   4.818   3.889   1.295
46289W        W12698   3.407  24.398  12.372
46290W        W12699  10.614  12.329  13.924
46291W        W12700  40.921  19.721  11.721
46292W        W12701  26.643  26.931  11.030
46293W        W12702  24.687  20.313  10.143
46294W        W12703  11.350  23.998   4.929
46295W        W12704  15.249  21.819  14.855
46296W        W12705  13.769  10.362   0.701
46297W        W12706  17.836  13.366  13.988
46298W        W12707  41.255  20.368  13.292
46299W        W12708  39.422  28.177  10.858
46300W        W12709  40.033   2.481  14.365
46301W        W12710  15.682  27.038  12.573
46302W        W12711   2.754  17.097  13.060
46303W        W12712  16.197  34.429  10.287
46304W        W12713   3.525  28.335   4.181
46305W        W12714  19.583  29.596  12.343
46306W        W12715   4.508  34.763  11.044
46307W        W12716   9.329  14.658  11.706
46308W        W12717  36.092  21.667   3.182
46309W        W12718  27.499  43.130   3.624
46310W        W12719  24.586   4.787  12.247
46311W        W12720  31.529  40.251   2.753
46312W        W12721  16.993  17.313  13.318
46313W        W12722   5.470  17.981  14.865
46314W        W12723  19.249  23.487  10.712
46315W        W12724  24.554   8.870   9.873
46316W        W12725  22.244   1.266   3.289
46317W        W12726  21.745  43.852  14.855
46318W        W12727  19.130  29.480  12.129
46319W        W12728  30.054   4.170  14.568
46320W        W12729  16.736  19.551  11.093
46321W        W12730  37.844  28.690  14.037
46322W        W12731  18.774  14.346  14.613
46323W        W12732  40.695  12.853   2.279
46324W        W12733  13.748  25.762  12.328
46325W        W12734  10.569  36.057   2.422
46326W        W12735   5.024   9.450   4.077
46327W        W12736  43.222  38.666   4.017
46328W        W12737  39.249   8.850  13.880
46329W        W12738  10.191  10.302   4.360
46330W        W12739  34.894  40.265   2.367
46331W        W12740  19.070   8.461  14.919
46332W        W12741  35.843  27.068  14.577
46333W        W12742  42.014  40.889   4.620
46334W        W12743  40.495  12.218  12.529
46335W        W12744  30.520   9.124   3.748
46336W        W12745  34.483  34.560   2.193
46337W        W12746  44.394  31.326  11.137
46338W        W12747  28.497  40.062   3.571
46339W        W12748   8.890  10.685  14.676
46340W        W12749  23.696  33.617  11.106
46341W        W12750  10.424  21.673   0.315
46342W        W12751   3.450   0.751   2.671
46343W        W12752   6.444  16.625   3.385
46344W        W12753   5.246  27.180  14.743
46345W        W12754  36.523   0.370   3.110
46346W        W12755  11.118  34.401   0.957
46347W        W12756  39.392  28.416  13.055
46348W        W12757  17.970   5.240  14.407
46349W        W12758  27.658  36.397  12.910
46350W        W12759  33.566  18.196  10.065
46351W        W12760   6.773  15.931  13.179
46352W        W12761  12.567  40.604   3.651
46353W        W12762  19.068   9.162  10.419
46354W        W12763  11.158   6.519   0.265
46355W        W12764  28.495   4.938  14.280
46356W        W12765  33.660  26.420  11.402
46357W        W12766  26.893  35.781  13.881
46358W        W12767  13.699   5.709  14.901
46359W        W12768  37.190  33.190   0.216
46360W        W12769  13.735  22.769  13.392
46361W        W12770  40.421  20.560   1.658
46362W        W12771  39.053   9.086   4.119
46363W        W12772   0.929   9.242  10.254
46364W        W12773  27.708   4.266  11.995
46365W        W12774  34.690  34.728   0.917
46366W        W12775  12.123  42.070   0.863
46367W        W12776  29.378   6.277  14.490
46368W        W12777  39.169   9.606   2.473
46369W        W12778  41.314  34.418  11.618
46370W        W12779  29.402   9.884  13.848
46371W        W12780  23.127  14.374  13.908
46372W        W12781  14.368  33.916  10.898
46373W        W12782  39.827  36.953  12.938
46374W        W12783  40.133   1.121  12.892
46375W        W12784  43.949  10.317  11.701
46376W        W12785  37.918  15.054   4.444
46377W        W12786  18.406  41.474   3.834
46378W        W12787  13.102  41.167  11.720
46379W        W12788  42.931  10.796   0.042
46380W        W12789  19.157  37.206  11.111
46381W        W12790   3.021  22.298  13.910
46382W        W12791  20.547  16.990  11.181
46383W        W12792   9.666  41.382  10.755
46384W        W12793  19.960  40.352  14.891
46385W        W12794  36.864  43.211  12.500
46386W        W12795  23.593  24.992   0.394
46387W        W12796  14.804   4.961   4.702
46388W        W12797  33.815  16.777  12.168
46389W        W12798  13.233  28.391   0.646
46390W        W12799  17.181   0.351   3.277
46391W        W12800  19.090   6.925  11.948
46392W        W12801  41.979   9.791  14.589
46393W        W12802  31.657  13.334  11.154
46394W        W12803   7.484   6.229   2.225
46395W        W12804   0.434  44.917  12.551
46396W        W12805   3.763  16.604   4.299
46397W        W12806   7.253  21.298   3.643
46398W        W12807  35.019   4.683   2.175
46399W        W12808  12.078  21.552   1.515
46400W        W12809  23.801  14.034  11.943
46401W        W12810   4.039  44.723  11.205
46402W        W12811  29.468  42.566  13.251
46403W        W12812   6.270  35.828   5.069
46404W        W12813  35.501  25.692  13.609
46405W        W12814  13.783  17.099  14.884
46406W        W12815  18.544   7.426   2.781
46407W        W12816  23.266  29.025   3.691
46408W        W12817  22.503  33.609  14.849
46409W        W12818  30.796  43.929  10.531
46410W        W12819   5.649   7.484   2.709
46411W        W12820  20.509  44.226  14.953
46412W        W12821   0.042  30.443   4.630
46413W        W12822  32.559   8.836   3.546
46414W        W12823  15.724  31.442   1.822
46415W        W12824  12.200  33.580  12.514
46416W        W12825  29.804   8.460   2.199
46417W        W12826  39.085  36.922  14.079
46418W        W12827  40.400   5.310   1.976
46419W        W12828  34.371  31.887  14.577
46420W        W12829  39.324   7.905   2.489
46421W        W12830   7.632  21.798   0.918
46422W        W12831  15.866  36.249  14.529
46423W        W12832  33.597  22.290   3.783
46424W        W12833  21.642   7.142  11.499
46425W        W12834  32.770  10.628  14.171
46426W        W12835  41.947  29.987  10.679
46427W        W12836  32.890   3.316  10.758
46428W        W12837  31.230  30.889  13.709
46429W        W12838  28.285   7.380   4.622
46430W        W12839  44.467  35.921   0.081
46431W        W12840  22.721  22.590  13.294
46432W        W12841  39.020  39.020   2.536
46433W        W12842  24.527  35.233  13.879
46434W        W12843   6.315  27.690   1.387
46435W        W12844  32.389  41.093   2.656
46436W        W12845   2.379  22.006   2.327
46437W        W12846  13.237  43.420  11.013
46438W        W12847  39.457  34.918  11.581
46439W        W12848  34.487  10.416   4.292
46440W        W12849  31.659  16.719  12.171
46441W        W12850  20.310  20.351  12.030
46442W        W12851  25.826  30.776   1.538
46443W        W12852  40.400  39.505   0.364
46444W        W12853  12.309  41.899   2.682
46445W        W12854  14.186  14.801   0.455
46446W        W12855   4.801   6.623  10.701
46447W        W12856   9.193  18.627  13.456
46448W        W12857  10.673  19.847  12.016
46449W        W12858  11.724  25.940   1.149
46450W        W12859  41.825  14.176   0.676
46451W        W12860  43.794   7.327  13.829
46452W        W12861  27.136  30.396  10.682
46453W        W12862  17.661   2.280   1.857
46454W        W12863  10.275   7.263  14.000
46455W        W12864  14.586   0.342   2.080
46456W        W12865  43.218  42.406   2.230
46457W        W12866   1.389   2.406  10.710
46458W        W12867  41.444  35.853   2.643
46459W        W12868   4.175  40.621  14.347
46460W        W12869  25.115  25.117   1.224
46461W        W12870  23.980  19.786   3.129
46462W        W12871  39.483  23.151   3.359
46463W        W12872  12.234  21.043  14.644
46464W        W12873   5.316   1.874  14.787
46465W        W12874  43.004  13.540  11.299
46466W        W12875  34.356  42.937   3.202
46467W        W12876  36.430  26.948   0.885
46468W        W12877  28.409   1.704   2.755
46469W        W12878   7.566  19.102  11.112
46470W        W12879   5.506  25.488   4.367
46471W        W12880  20.226  29.571  10.635
46472W        W12881  18.025  31.362   0.331
46473W        W12882  20.907  32.985  13.213
46474W        W12883  41.401  31.286   3.633
46475W        W12884  22.141  16.880   1.419
46476W        W12885  39.104  33.890  11.467
46477W        W12886  23.150  19.696   1.442
46478W        W12887  42.530  17.252   9.999
46479W        W12888  12.936  14.281  14.861
46480W        W12889   6.567  43.425  13.434
46481W        W12890  22.993  26.446   4.239
46482W        W12891   6.745  11.624   0.439
46483W        W12892  35.915  11.097  11.107
46484W        W12893  22.481  21.580   0.600
46485W        W12894   9.627  36.381  12.608
46486W        W12895  40.323  41.359  14.811
46487W        W12896  12.277   8.986   3.199
46488W        W12897  42.748  21.218   3.243
46489W        W12898  28.325  43.337   2.148
46490W        W12899   5.357  36.076   0.851
46491W        W12900   3.620  28.222  11.589
46492W        W12901  20.950  12.926  11.010
46493W        W12902  30.809   8.602   1.869
46494W        W12903  11.754   5.829  14.020
46495W        W12904  40.873   7.417   0.489
46496W        W12905  42.880  20.343   4.780
46497W        W12906  17.965  12.981   1.800
46498W        W12907   0.215  42.910  11.136
46499W        W12908  15.219  44.783   1.535
46500W        W12909  26.190  44.973   2.176
46501W        W12910  17.530  12.258   2.366
46502W        W12911  36.993  12.140   3.603
46503W        W12912  36.779  23.019  12.170
46504W        W12913  24.558  25.068   1.113
46505W        W12914   3.705  24.397  11.956
46506W        W12915  21.557  19.966  14.847
46507W        W12916  21.257  44.035  14.872
46508W        W12917  31.997  18.358  12.123
46509W        W12918  33.532  11.399  10.665
46510W        W12919  40.142   5.740   2.116
46511W        W12920   7.654  39.023   0.417
46512W        W12921  37.626  10.228   1.199
46513W        W12922  21.482  24.180  13.040
46514W        W12923  29.231  33.150   4.593
46515W        W12924  30.050  11.912  11.594
46516W        W12925   4.167  31.421   3.616
46517W        W12926  20.544  10.253   4.058
46518W        W12927   5.227  15.305   4.889
46519W        W12928  25.425   5.770  12.708
46520W        W12929  12.627  11.265   3.324
46521W        W12930  23.915  18.806  12.837
46522W        W12931  13.731   3.499   3.318
46523W        W12932  18.979  33.749   3.099
46524W        W12933  23.033  36.118  12.888
46525W        W12934  25.718  30.141  11.985
46526W        W12935   4.756  12.659  13.024
46527W        W12936  43.257  25.743  14.094
46528W        W12937  40.373  21.074  13.890
46529W        W12938  43.943  11.315   2.343
46530W        W12939  11.340   3.655   3.784
46531W        W12940  35.973  19.154   3.622
46532W        W12941   0.049  37.038  10.768
46533W        W12942  11.816   6.281   0.690
46534W        W12943   3.721  41.263   4.082
46535W        W12944  43.179  37.411  12.419
46536W        W12945   5.814  17.705  14.029
46537W        W12946  26.924   7.675  10.957
46538W        W12947  18.680  11.474   3.241
46539W        W12948   9.334  17.185   4.703
46540W        W12949   0.536   3.190  13.422
46541W        W12950  16.739  18.286  13.835
46542W        W12951  28.908   8.969   3.080
46543W        W12952  39.351  34.635  12.837
46544W        W12953   3.305   1.810  13.922
46545W        W12954   6.309  38.526   4.703
46546W        W12955  12.233  32.719   2.042
46547W        W12956  40.470  32.448   3.187
46548W        W12957   0.589  14.005   2.778
46549W        W12958  36.180  25.613  11.828
46550W        W12959  27.261  27.589  10.740
46551W        W12960   7.402  44.201  14.403
46552W        W12961   5.178  19.968   1.303
46553W        W12962  30.306  29.174  11.063
46554W        W12963   2.364  36.956   1.878
46555W        W12964   3.393  25.643  12.880
46556W        W12965  44.017  34.948  13.908
46557W        W12966   7.151  39.839  14.870
46558W        W12967  33.961  14.132  14.301
46559W        W12968   7.167  38.580   4.171
46560W        W12969  28.602  27.703   3.867
46561W        W12970  19.772  43.294   3.200
46562W        W12971   5.930  40.778  11.931
46563W        W12972  40.310  28.604   5.204
46564W        W12973  44.854  43.082  14.986
46565W        W12974  15.808  17.354   0.844
46566W        W12975  19.160  18.640  10.757
46567W        W12976  18.113  33.034   3.334
46568W        W12977  25.659  40.453   4.418
46569W        W12978  42.233   6.433   0.983
46570W        W12979   1.439  23.791   1.051
46571W        W12980  36.741  26.136  13.858
46572W        W12981  15.089  31.646   0.023
46573W        W12982   4.589  19.217   2.276
46574W        W12983   7.636  42.491  13.590
46575W        W12984  28.875   6.490   1.896
46576W        W12985  34.294  26.139   0.923
46577W        W12986  25.884  36.457  11.077
46578W        W12987  21.938  38.371  11.043
46579W        W12988  30.424   9.157  10.783
46580W        W12989  10.380   9.675   1.358
46581W        W12990  12.679   0.219   0.943
46582W        W12991   1.860  38.357   3.045
46583W        W12992  12.009   7.339   0.020
46584W        W12993  35.041  43.444   4.396
46585W        W12994  30.647  38.408   3.332
46586W        W12995  40.477  32.599   4.780
46587W        W12996  39.780  21.499  14.795
46588W        W12997  21.693   7.518   2.233
46589W        W12998  19.074  10.255   0.316
46590W        W12999   7.949   1.062  12.815
46591W        W13000  33.069  38.536  14.498
46592W        W13001  27.339   8.422   2.235
46593W        W13002  15.690  17.976   4.059
46594W        W13003  36.821  44.930   2.922
46595W        W13004  29.195  30.843  13.157
46596W        W13005  14.713  10.645  10.686
46597W        W13006   8.696  16.535   4.543
46598W        W13007  32.416  17.344  13.543
46599W        W13008  10.290  17.260   1.426
46600W        W13009  31.483  16.347  13.971
46601W        W13010  20.657  40.958  11.957
46602W        W13011  39.481  43.123   1.371
46603W        W13012  25.204   6.170  11.535
46604W        W13013  23.203   2.373  12.051
46605W        W13014  14.250  24.565  14.048
46606W        W13015  30.142   2.280  13.548
46607W        W13016  16.238   5.624   3.388
46608W        W13017   1.066   0.602  12.104
46609W        W13018  29.601  13.367  14.326
46610W        W13019   8.263   3.361  12.902
46611W        W13020  26.599  39.371   0.446
46612W        W13021  19.582  14.375   4.758
46613W        W13022   4.281  30.404  13.529
46614W        W13023   9.908   9.447   1.438
46615W        W13024  32.338   5.075  10.204
46616W        W13025  21.077  12.135   0.846
46617W        W13026  22.375  42.484   2.158
46618W        W13027  15.828  33.621  14.578
46619W        W13028  41.460  18.824  11.126
46620W        W13029  34.073  16.759  14.297
46621W        W13030  17.798  42.211   3.486
46622W        W13031  38.826  37.933   4.334
46623W        W13032  31.096   6.380   0.261
46624W        W13033  38.057   2.692   3.709
46625W        W13034  43.346  19.856  13.453
46626W        W13035  18.096  27.049   3.427
46627W        W13036  34.156  13.578  11.407
46628W        W13037  41.761  16.119   1.406
46629W        W13038  37.200  26.898  12.978
46630W        W13039  14.237  10.544   4.093
46631W        W13040  18.234  44.306  11.115
46632W        W13041  18.983   9.261   1.762
46633W        W13042  43.223  21.622  12.827
46634W        W13043   5.990  37.471   0.288
46635W        W13044  20.158  34.449   2.778
46636W        W13045  28.523  42.505  13.291
46637W        W13046  17.824   4.946   1.756
46638W        W13047  13.751  19.853  11.957
46639W        W13048   3.798   2.440   1.809
46640W        W13049  26.069  44.959  14.895
46641W        W13050  14.274  14.777  14.948
46642W        W13051  18.455  11.086   4.146
46643W        W13052   4.957   5.877   0.152
46644W        W13053   1.792  30.478  10.990
46645W        W13054  15.821  10.546  11.240
46646W        W13055  30.949  43.299   0.856
46647W        W13056   8.346  13.681   1.901
46648W        W13057  29.340  36.289  13.764
46649W        W13058   2.768  32.326   4.263
46650W        W13059  31.081  44.557  12.999
46651W        W13060   1.676  44.457  13.452
46652W        W13061  33.549  29.343  14.765
46653W        W13062  19.514  38.715   1.694
46654W        W13063  12.452   5.138   0.607
46655W        W13064  31.056  40.028   2.293
46656W        W13065  39.254  17.936  14.742
46657W        W13066   5.385  15.004   3.234
46658W        W13067  30.928   7.429  11.574
46659W        W13068  36.098  31.402   1.789
46660W        W13069   0.749  21.277   3.350
46661W        W13070  41.966   3.999   3.040
46662W        W13071  21.427  19.667   1.352
46663W        W13072  20.546  20.144  11.610
46664W        W13073  36.392  25.160   3.076
46665W        W13074  19.984  24.214  13.924
46666W        W13075   0.254  32.568  11.093
46667W        W13076   0.955  34.588  14.723
46668W        W13077  40.789   2.264   2.318
46669W        W13078  21.563   9.030   4.493
46670W        W13079  33.495   3.789  14.916
46671W        W13080   8.802  22.280  11.533
46672W        W13081  21.670  23.684   0.715
46673W        W13082   1.825  13.334  11.092
46674W        W13083  17.341  12.651  14.457
46675W        W13084  44.025  26.877  13.792
46676W        W13085  18.232  23.987  10.854
46677W        W13086  32.646  22.329   0.527
46678W        W13087  27.374  42.967  11.585
46679W        W13088  21.760  34.518   1.678
46680W        W13089  42.139  23.483   4.597
46681W        W13090  40.482  17.863  12.703
46682W        W13091  22.616  24.229   4.551
46683W        W13092  44.379  40.262   0.433
46684W        W13093  39.537  24.667  11.843
46685W        W13094   7.799  31.857  11.687
46686W        W13095  35.437  16.178  12.384
46687W        W13096  10.831  21.056  14.877
46688W        W13097   2.728  27.945  11.930
46689W        W13098   3.211  21.118  12.130
46690W        W13099  33.038  42.453   3.257
46691W        W13100  17.214  38.606  13.617
46692W        W13101  10.247  36.153  10.492
46693W        W13102  15.395  28.171  10.687
46694W        W13103  21.007  43.701   2.446
46695W        W13104  39.402  42.127   0.498
46696W        W13105  44.266  35.354  10.414
46697W        W13106   7.274  24.041  14.872
46698W        W13107  20.161  18.623  14.746
46699W        W13108  10.502  27.703  11.124
46700W        W13109   8.371  21.436   1.299
46701W        W13110   2.301   3.844   3.185
46702W        W13111   9.813   6.386   0.214
46703W        W13112  43.786  42.123  12.237
46704W        W13113  25.259  34.214  13.512
46705W        W13114   6.259   1.890  14.961
46706W        W13115  22.308  24.083   4.128
46707W        W13116  14.783   5.924   0.314
46708W        W13117   5.336  38.027   1.911
46709W        W13118   8.982  37.504  14.402
46710W        W13119  15.230  40.438   1.127
46711W        W13120   1.748  12.084  13.811
46712W        W13121  33.085  34.135  13.087
46713W        W13122  26.674  27.837   0.694
46714W        W13123  19.284  18.161   4.620
46715W        W13124  31.499  26.192   2.351
46716W        W13125  11.112  21.632  14.860
46717W        W13126  41.907  43.926   2.180
46718W        W13127  21.349  39.898   4.672
46719W        W13128   0.507   4.287   3.347
46720W        W13129  40.338  11.373   1.714
46721W        W13130  15.820  34.199  12.457
46722W        W13131  39.249  41.866  10.488
46723W        W13132  34.488   8.195   3.717
46724W        W13133  31.436   9.688   2.375
46725W        W13134  35.900  26.248   3.650
46726W        W13135  12.712  21.036   9.827
46727W        W13136   0.989  11.738  12.871
46728W        W13137  18.208   2.358   4.561
46729W        W13138  12.212  11.627  12.057
46730W        W13139  27.279  34.044  10.804
46731W        W13140  36.824  33.363  12.028
46732W        W13141   7.350  32.936  14.513
46733W        W13142  18.303  32.683   1.920
46734W        W13143  38.657  29.975   3.186
46735W        W13144  38.735  26.177   0.762
46736W        W13145   0.857  42.560   4.405
46737W        W13146  15.075   1.311   1.206
46738W        W13147  37.498  29.915   4.502
46739W        W13148  32.092  12.386  12.048
46740W        W13149  11.877   5.392  14.750
46741W        W13150  28.958  39.346   3.353
46742W        W13151  11.005  19.626  12.792
46743W        W13152  27.275   6.486  11.682
46744W        W13153  44.352   3.646   4.476
46745W        W13154  44.091  19.244   4.133
46746W        W13155  41.536  39.797   3.225
46747W        W13156  39.382  25.890   0.214
46748W        W13157  42.574  39.799   3.279
46749W        W13158   8.192  41.992   1.398
46750W        W13159  26.918  33.894  14.833
46751W        W13160  39.254  19.055   3.222
46752W        W13161   7.774  27.014   2.087
46753W        W13162  14.775  20.967   0.313
46754W        W13163   4.216   7.634  12.615
46755W        W13164  43.857  12.259  14.966
46756W        W13165   1.544  28.168   1.754
46757W        W13166  27.703  27.124   3.347
46758W        W13167  44.232  25.578  13.781
46759W        W13168  39.118  18.185  13.385
46760W        W13169  15.570  25.361  14.763
46761W        W13170  10.299  43.417   4.157
46762W        W13171   6.472   4.996  12.408
46763W        W13172  36.612  16.595  11.094
46764W        W13173  11.106  25.295  11.230
46765W        W13174  43.247  39.891  13.987
46766W        W13175  17.245  32.208   4.285
46767W        W13176   2.986  21.540  11.928
46768W        W13177   8.286  42.952  12.925
46769W        W13178  29.395   3.777  13.852
46770W        W13179  15.094  11.795  12.029
46771W        W13180  15.897  43.802   3.564
46772W        W13181  31.253  33.711   0.838
46773W        W13182  43.389  15.659  13.704
46774W        W13183  12.757  22.019  12.601
46775W        W13184  43.855  42.089   0.979
46776W        W13185  17.127  44.225   2.344
46777W        W13186  20.066  38.616  12.190
46778W        W13187   0.213  39.922   2.739
46779W        W13188  27.246  17.790   0.523
46780W        W13189  32.630  19.487   3.156
46781W        W13190  27.626  19.046  10.623
46782W        W13191  17.315  18.112  11.691
46783W        W13192  31.914  44.494  13.594
46784W        W13193  42.412   7.536   4.913
46785W        W13194  21.244  42.236   0.329
46786W        W13195  27.978  16.494   1.727
46787W        W13196  35.176  28.705  13.075
46788W        W13197  10.323  14.623   2.327
46789W        W13198   5.780  44.548   3.843
46790W        W13199  27.461  19.122   0.007
46791W        W13200  10.844  29.984   5.492
46792W        W13201  36.941  17.014   3.257
46793W        W13202  23.097  22.010   3.166
46794W        W13203  27.604   7.425   4.634
46795W        W13204  23.042   2.476  13.876
46796W        W13205   5.247  42.031   4.578
46797W        W13206  20.332  33.139   1.838
46798W        W13207  30.078   1.682   2.332
46799W        W13208  19.072  40.744   0.651
46800W        W13209   0.946  30.865   4.430
46801W        W13210  20.542  16.204  13.314
46802W        W13211  30.582   8.643   0.713
46803W        W13212   1.838  33.297  11.120
46804W        W13213  13.372  40.828  11.458
46805W        W13214   5.752  11.321  11.213
46806W        W13215  34.687  29.128   4.536
46807W        W13216  12.864  31.411  10.558
46808W        W13217  25.128  34.356  10.824
46809W        W13218  30.027  36.456   4.783
46810W        W13219  44.187   6.055  14.266
46811W        W13220  17.706  41.943  11.581
46812W        W13221  19.236  20.537   3.831
46813W        W13222  12.588  42.046   0.556
46814W        W13223  18.740  43.446   2.597
46815W        W13224  38.191   6.276  12.962
46816W        W13225   7.434  13.176  12.042
46817W        W13226  36.627  14.236  13.956
46818W        W13227  13.007  33.437   0.381
46819W        W13228  26.463  40.145  12.839
46820W        W13229  41.149  43.936   1.433
46821W        W13230  33.240   6.530   4.999
46822W        W13231  24.835  33.362  12.497
46823W        W13232   7.237  33.481  10.015
46824W        W13233  31.660  23.159  11.188
46825W        W13234  26.741  39.005   4.525
46826W        W13235  22.270  26.578  11.892
46827W        W13236  36.743  16.943  14.331
46828W        W13237  11.441  41.971  14.289
46829W        W13238  14.025  24.147  14.283
46830W        W13239   1.927  19.189  10.762
46831W        W13240  33.673   3.231   3.132
46832W        W13241  11.642   0.459   3.314
46833W        W13242  34.880   4.395  14.857
46834W        W13243  38.468  21.177  14.811
46835W        W13244  16.036  33.392  14.985
46836W        W13245   9.795  30.537  11.157
46837W        W13246  40.558  15.493   0.281
46838W        W13247  32.708  24.619  11.411
46839W        W13248  16.798  15.308   2.617
46840W        W13249  29.511  24.580  14.812
46841W        W13250  39.000   5.208   1.870
46842W        W13251  32.398  14.162   3.856
46843W        W13252   5.720  18.163  13.583
46844W        W13253  26.503  35.562  14.953
46845W        W13254  23.096  38.808  10.722
46846W        W13255  29.699   3.953  14.237
46847W        W13256  37.037  28.243   2.603
46848W        W13257  11.360   9.428   3.173
46849W        W13258  44.911  25.000  12.767
46850W        W13259  16.772   4.804  11.192
46851W        W13260  24.646  21.531  14.906
46852W        W13261   7.319  13.314  14.518
46853W        W13262  12.557  38.459  12.987
46854W        W13263  39.562  43.353   1.883
46855W        W13264  31.241   9.088   4.372
46856W        W13265  41.887  19.555  11.217
46857W        W13266  29.718  24.621   0.291
46858W        W13267  34.931  32.549  13.531
46859W        W13268  37.569  13.705   9.827
46860W        W13269  31.466  26.700   2.063
46861W        W13270  29.979   4.695   3.191
46862W        W13271  34.021  26.048   2.717
46863W        W13272  37.966  30.487   1.344
46864W        W13273  25.966  37.463  10.620
46865W        W13274   5.694   2.401  13.048
46866W        W13275  35.298  35.027   4.955
46867W        W13276  27.658  19.096   3.318
46868W        W13277  36.192  32.338  10.699
46869W        W13278  44.484  28.459  12.248
46870W        W13279  18.839  39.277  11.437
46871W        W13280  16.260   1.454  13.909
46872W        W13281   9.628  36.955   1.247
46873W        W13282  31.698  44.413   2.642
46874W        W13283   5.761  41.068   3.103
46875W        W13284  24.614   4.779   2.280
46876W        W13285  12.847  41.034  14.406
46877W        W13286  11.703  17.809   4.762
46878W        W13287  34.159  20.009   2.735
46879W        W13288  25.202   8.207  13.256
46880W        W13289  35.684  20.076   4.821
46881W        W13290  33.917  37.897  12.108
46882W        W13291  20.609   7.753   2.193
46883W        W13292  24.942   3.274  14.452
46884W        W13293  12.813  35.983   2.280
46885W        W13294  35.490   7.682  14.374
46886W        W13295  33.034  31.882  12.977
46887W        W13296  33.893   4.837   1.333
46888W        W13297   9.482  19.429  11.159
46889W        W13298  31.566  19.438   0.466
46890W        W13299   3.252  44.953   0.651
46891W        W13300  19.873  20.688  14.934
46892W        W13301  21.197  16.083   4.939
46893W        W13302   8.249  35.357  13.392
46894W        W13303  22.060  41.998   2.900
46895W        W13304  34.179  24.068  11.205
46896W        W13305  29.508   7.834  13.891
46897W        W13306  13.656   6.726  11.139
46898W        W13307  33.185  18.192   3.692
46899W        W13308  21.463  32.643  11.513
46900W        W13309  43.197  31.877  11.005
46901W        W13310  13.064  20.582   1.517
46902W        W13311  16.701  12.671   4.680
46903W        W13312   7.219  23.646  13.529
46904W        W13313   1.814  10.158  10.982
46905W        W13314  32.031  20.266   0.734
46906W        W13315  22.870   3.431   2.583
46907W        W13316  21.633  24.635   1.700
46908W        W13317  43.320   7.166   1.892
46909W        W13318  29.217   6.755  14.608
46910W        W13319  37.725   9.091   4.135
46911W        W13320  29.001   9.179  14.271
46912W        W13321  14.174  31.886  12.027
46913W        W13322   6.231  12.965  12.867
46914W        W13323   1.374   9.031   3.754
46915W        W13324  21.304  18.587  11.175
46916W        W13325  17.131   4.289   0.261
46917W        W13326  11.643  22.602   2.759
46918W        W13327  24.427  27.650  12.934
46919W        W13328  38.668  13.920  11.554
46920W        W13329  44.728  38.535  12.464
46921W        W13330  21.219   5.815  12.622
46922W        W13331   5.519   0.664  11.850
46923W        W13332  34.987  40.786   2.268
46924W        W13333  24.730   0.328   3.236
46925W        W13334  15.656  29.173  13.627
46926W        W13335  28.121  15.287   0.449
46927W        W13336  15.190  23.014   4.079
46928W        W13337  40.899   5.898  14.002
46929W        W13338   9.871  37.540   4.539
46930W        W13339   1.454  44.912  11.623
46931W        W13340   2.227  28.817   0.409
46932W        W13341   6.806  32.392  14.422
46933W        W13342  15.370   4.161   3.749
46934W        W13343  19.123  41.117  11.231
46935W        W13344  28.636  35.711  13.862
46936W        W13345  34.640  13.233   3.283
46937W        W13346  32.422  38.665   2.316
46938W        W13347  16.272  24.096   2.014
46939W        W13348  27.843  30.421   2.610
46940W        W13349   2.865  35.461  13.805
46941W        W13350  42.383  35.794   4.927
46942W        W13351   4.328  24.047  14.786
46943W        W13352   5.601  36.895  12.550
46944W        W13353  15.371  13.022   1.790
46945W        W13354  33.660  34.980   1.786
46946W        W13355  18.530  12.660   1.184
46947W        W13356  22.548  35.928   9.971
46948W        W13357  11.670   4.279   5.054
46949W        W13358  29.724   5.887   0.483
46950W        W13359  38.915  11.807   3.712
46951W        W13360  34.254  11.602  11.512
46952W        W13361  29.695  12.828   0.293
46953W        W13362  17.424  30.024  13.062
46954W        W13363  26.450  23.551  12.467
46955W        W13364  11.889   9.143  11.964
46956W        W13365   4.901  40.429  10.656
46957W        W13366  35.524  13.067   0.432
46958W        W13367  38.677   6.665   3.344
46959W        W13368  26.106  33.372   0.486
46960W        W13369  22.717  42.861   2.303
46961W        W13370  14.143  13.643   2.357
46962W        W13371   9.246  43.039   2.399
46963W        W13372  34.968  41.267   1.284
46964W        W13373  18.595  39.049  10.535
46965W        W13374   3.772  40.463  12.628
46966W        W13375  30.866  19.768   1.861
46967W        W13376  28.762  42.737   4.140
46968W        W13377  27.823  42.473  13.878
46969W        W13378  28.631  17.612   2.761
46970W        W13379   3.713  10.266   4.037
46971W        W13380  41.875   5.754  14.308
46972W        W13381   6.142  26.666   4.524
46973W        W13382  21.999   3.662   1.635
46974W        W13383  37.820  19.980  12.094
46975W        W13384  43.145  16.478  13.943
46976W        W13385  21.723  10.659  13.391
46977W        W13386  15.722  26.069   0.228
46978W        W13387  38.344  37.587  11.876
46979W        W13388  27.878  15.176   1.404
46980W        W13389   6.284   7.539   0.813
46981W        W13390  15.594  18.280   2.293
46982W        W13391   5.653  40.274   1.451
46983W        W13392   0.665  39.151  11.552
46984W        W13393  26.664  28.261   2.698
46985W        W13394   5.370  28.905  10.559
46986W        W13395  17.594  29.692   3.774
46987W        W13396  14.279  23.034  14.824
46988W        W13397  17.650  29.158   1.215
46989W        W13398   8.902  27.439  11.162
46990W        W13399  37.529  21.208   1.731
46991W        W13400  38.101   4.765  12.408
46992W        W13401  16.922  32.047   2.913
46993W        W13402  24.469   6.999  13.429
46994W        W13403   5.652  29.943   1.684
46995W        W13404   3.350  21.022   0.226
46996W        W13405  28.998  39.357  12.874
46997W        W13406  30.408  27.008  10.659
46998W        W13407  44.680  40.583  11.447
46999W        W13408  23.724  19.096   3.513
47000W        W13409   6.354   9.942   3.106
47001W        W13410  22.064  42.479   1.262
47002W        W13411  25.614  17.308   1.193
47003W        W13412  12.240  28.403   1.444
47004W        W13413  14.316   9.110   3.581
47005W        W13414  12.738   0.435  14.228
47006W        W13415  44.653  25.227  12.333
47007W        W13416   1.220  24.632  14.865
47008W        W13417   9.271  24.363   4.308
47009W        W13418  42.979  40.310  13.755
47010W        W13419   4.683  12.159  14.828
47011W        W13420  32.131  19.885   2.143
47012W        W13421  14.910  26.773  14.583
47013W        W13422  31.120  40.633   3.810
47014W        W13423  29.887  14.768   1.799
47015W        W13424  43.558   6.564  12.782
47016W        W13425  23.999  12.791  13.283
47017W        W13426  26.798  30.157   3.260
47018W        W13427  20.840  18.832  13.058
47019W        W13428  24.314  10.794   0.565
47020W        W13429  34.169  32.874   2.321
47021W        W13430   1.207  27.586  13.966
47022W        W13431  19.786   0.420  13.483
47023W        W13432  13.540  29.084   3.208
47024W        W13433   6.675  16.586  11.734
47025W        W13434  15.713  17.354  13.403
47026W        W13435  22.977   3.524   0.625
47027W        W13436  22.183  35.112  10.772
47028W        W13437  21.013  10.988  14.931
47029W        W13438  26.071   5.629   3.788
47030W        W13439  33.888  24.597  10.737
47031W        W13440  37.100   1.011   0.480
47032W        W13441  43.940  40.579  10.754
47033W        W13442  18.901  37.047   2.252
47034W        W13443   1.497  43.213   0.198
47035W        W13444  26.020  26.539  14.510
47036W        W13445  44.826  41.887   0.265
47037W        W13446   3.915   0.510  12.455
47038W        W13447  34.854  41.786   3.232
47039W        W13448   4.156  13.083  13.740
47040W        W13449  20.668  40.678  13.360
47041W        W13450   3.335  21.718   2.728
47042W        W13451  20.831  33.875  11.547
47043W        W13452  14.688   2.319  13.529
47044W        W13453   2.886  16.208  14.786
47045W        W13454  27.409   5.918  11.100
47046W        W13455  15.175   2.341   1.755
47047W        W13456  25.629  17.271  10.576
47048W        W13457  36.219  35.883  12.689
47049W        W13458  12.653   4.728   2.239
47050W        W13459  40.378  20.323  14.451
47051W        W13460  12.892  15.200  11.641
47052W        W13461  22.528  24.157  13.861
47053W        W13462  25.395  15.410   2.244
47054W        W13463  10.349   3.683   0.703
47055W        W13464  26.020   6.385  11.916
47056W        W13465   7.765  40.434   3.196
47057W        W13466   6.374  32.927  13.981
47058W        W13467  26.077   0.663  14.318
47059W        W13468  13.767   4.833   4.858
47060W        W13469  21.756  24.507  14.376
47061W        W13470  10.687  31.407   5.257
47062W        W13471  11.797   8.435   4.082
47063W        W13472  43.382   7.472  11.600
47064W        W13473  38.687  25.668   0.798
47065W        W13474  38.443  13.330  10.735
47066W        W13475  34.864   4.915   0.335
47067W        W13476  16.796  43.208  13.907
47068W        W13477  26.473  13.231   3.081
47069W        W13478  21.830   4.171   4.185
47070W        W13479  28.731  29.093   0.305
47071W        W13480  25.057  17.984  12.927
47072W        W13481  30.201  40.817  14.483
47073W        W13482  18.934  18.604  11.627
47074W        W13483  22.168  38.562  13.421
47075W        W13484  39.952  29.258  11.307
47076W        W13485  17.874  21.418  10.183
47077W        W13486  19.759  23.921  14.307
47078W        W13487   0.775   1.582  13.123
47079W        W13488  24.665  24.455  12.219
47080W        W13489  33.167   6.654  11.714
47081W        W13490   7.680  35.012  10.387
47082W        W13491   5.423   0.720   3.959
47083W        W13492  26.018   4.852  13.888
47084W        W13493  39.402  37.043   1.358
47085W        W13494  44.921  26.663   0.508
47086W        W13495  20.630   3.078  14.080
47087W        W13496  33.492  33.414  13.955
47088W        W13497  17.719  12.347  12.585
47089W        W13498  27.611   3.357  13.272
47090W        W13499  29.842   5.510   2.192
47091W        W13500  36.992  22.464  12.756
47092W        W13501  12.470  43.438   4.589
47093W        W13502  24.901  10.314  13.891
47094W        W13503  37.979  24.324  13.771
47095W        W13504  15.064  11.249   2.139
47096W        W13505   7.144  43.907  12.831
47097W        W13506  20.972  12.288   0.354
47098W        W13507  12.544   4.712  11.139
47099W        W13508  27.692   5.704  12.986
47100W        W13509  11.444  29.120   4.131
47101W        W13510  12.279  19.827   0.544
47102W        W13511  44.494  22.251   3.233
47103W        W13512  39.773  40.391   4.699
47104W        W13513  23.000  13.257   1.367
47105W        W13514  25.375  27.046  11.500
47106W        W13515  23.615  13.159  10.676
47107W        W13516  22.269   1.860   0.789
47108W        W13517  24.988  36.505   0.093
47109W        W13518  26.730  31.076  11.134
47110W        W13519   3.204  42.801   3.309
47111W        W13520  11.699  41.857   0.616
47112W        W13521  36.069  26.869   0.502
47113W        W13522  32.081  38.061   3.454
47114W        W13523   6.335  21.536   1.896
47115W        W13524  17.404  29.569   0.939
47116W        W13525  24.761  34.810  14.075
47117W        W13526  26.661   7.990  10.634
47118W        W13527  34.625  25.751   0.857
47119W        W13528  16.908  42.514  12.173
47120W        W13529  44.079  24.155  12.000
47121W        W13530   5.335  40.822   4.419
47122W        W13531  26.428   1.999  10.663
47123W        W13532  38.373  20.373  11.732
47124W        W13533   9.631  39.910   1.406
47125W        W13534  41.879  37.782   0.360
47126W        W13535  10.406  35.918   1.927
47127W        W13536  43.758  39.982  14.859
47128W        W13537   0.804  31.138  11.538
47129W        W13538  44.346  35.767   2.457
47130W        W13539  41.505  33.261   3.626
47131W        W13540  14.911  29.779   3.266
47132W        W13541   7.240  14.636   4.571
47133W        W13542  22.940  28.870  14.421
47134W        W13543  10.051  33.448  13.869
47135W        W13544   1.079  40.974   1.696
47136W        W13545   8.812   0.128   2.392
47137W        W13546  12.818  26.896  14.096
47138W        W13547  34.575  44.373  10.490
47139W        W13548   7.606  33.096   9.716
47140W        W13549  31.988  44.840   1.149
47141W        W13550  13.632  27.450   3.496
47142W        W13551  28.653  35.102   4.189
47143W        W13552  23.614  37.151   2.692
47144W        W13553  43.243  26.149   4.523
47145W        W13554  18.206  15.703   3.687
47146W        W13555   7.892  11.639  12.981
47147W        W13556   3.736  26.210  14.527
47148W        W13557   8.148   6.791  14.248
47149W        W13558  39.518  33.024   3.958
47150W        W13559  16.621  28.175   2.690
47151W        W13560  31.313   0.302   4.166
47152W        W13561  24.806   6.316  13.755
47153W        W13562   0.043  11.905   2.146
47154W        W13563  24.574  31.059   3.905
47155W        W13564   2.801   8.091   3.597
47156W        W13565   8.295   1.720   4.867
47157W        W13566  28.712   4.513  14.754
47158W        W13567  16.734  40.447  12.985
47159W        W13568   2.648  34.032  11.582
47160W        W13569   9.357  36.856   3.106
47161W        W13570  43.055   4.560   4.316
47162W        W13571   4.375  18.838  13.837
47163W        W13572  38.531   6.940   1.454
47164W        W13573   1.485  28.723   3.046
47165W        W13574   5.822  12.683  11.584
47166W        W13575  19.468  27.568  10.810
47167W        W13576  33.096  32.620  10.384
47168W        W13577  19.275  29.460   1.236
47169W        W13578  42.834  22.734   5.000
47170W        W13579  22.012  23.009   2.903
47171W        W13580  13.800  12.303  14.301
47172W        W13581   0.814  28.971  11.538
47173W        W13582  30.943  27.085  10.661
47174W        W13583   5.127   2.408  14.820
47175W        W13584  18.605  20.512  13.734
47176W        W13585  12.150  43.305   3.684
47177W        W13586   1.170  31.310   4.986
47178W        W13587  37.828  36.568   0.264
47179W        W13588  26.750  29.607  14.386
47180W        W13589  34.026  17.090   0.251
47181W        W13590  27.244  26.945  12.468
47182W        W13591  41.620   1.514   3.072
47183W        W13592  15.520  32.344  11.547
47184W        W13593  12.287  20.120  14.245
47185W        W13594  10.184  40.456   0.272
47186W        W13595   7.482   7.804  11.279
47187W        W13596  12.607   5.471  13.033
47188W        W13597  18.737  32.546  13.863
47189W        W13598  12.521  26.964   0.005
47190W        W13599  27.537  35.796   4.643
47191W        W13600   0.370  30.559  12.749
47192W        W13601  13.245  34.381  13.839
47193W        W13602  27.381  40.034  12.646
47194W        W13603   8.839  31.636  13.482
47195W        W13604  22.337   7.518  12.927
47196W        W13605  12.797  43.995   0.362
47197W        W13606  26.242  25.715   1.270
47198W        W13607  32.227   8.892  14.830
47199W        W13608  25.606   6.392   2.169
47200W        W13609   6.626  10.267  11.962
47201W        W13610   0.435  40.030  13.346
47202W        W13611  23.312  35.078   2.112
47203W        W13612  13.253  31.927  13.792
47204W        W13613  20.764   6.436   3.353
47205W        W13614   6.163  36.630   1.221
47206W        W13615  10.034  35.526   1.079
47207W        W13616  38.715  41.008  12.749
47208W        W13617  25.383  20.728  10.059
47209W        W13618  36.727   1.996  11.769
47210W        W13619  25.970   1.444  11.155
47211W        W13620   4.762  32.714  13.117
47212W        W13621  43.014  27.543  11.969
47213W        W13622  18.653  20.166   1.140
47214W        W13623   1.566  35.520   1.823
47215W        W13624   2.085  16.111   0.851
47216W        W13625  33.458  24.899  10.683
47217W        W13626  28.834  38.456   4.480
47218W        W13627   3.539   9.687  14.051
47219W        W13628  10.616  34.347  13.319
47220W        W13629   0.491  24.793   4.045
47221W        W13630  28.613   2.634   4.228
47222W        W13631  43.570  18.941  11.516
47223W        W13632  42.060  14.115  12.146
47224W        W13633  36.778   0.063   4.094
47225W        W13634  39.550   5.496  13.945
47226W        W13635  10.666  33.582   1.763
47227W        W13636  32.677   7.482  11.376
47228W        W13637   3.546   7.823   2.406
47229W        W13638  26.940  30.858  14.917
47230W        W13639  22.062  25.037   1.128
47231W        W13640   2.656  22.291  12.973
47232W        W13641  31.658   5.502   1.176
47233W        W13642  37.988  28.261   0.269
47234W        W13643  15.667  38.294   0.779
47235W        W13644  12.806  15.439  12.112
47236W        W13645  33.032  37.900  11.742
47237W        W13646  23.121  36.786  12.560
47238W        W13647   4.256   2.944  13.437
47239W        W13648  10.566  16.769   1.430
47240W        W13649   2.406   0.551  14.379
47241W        W13650  27.257  23.415   5.120
47242W        W13651   9.272  20.934   4.750
47243W        W13652   0.596  20.771   3.659
47244W        W13653  21.566   9.659   3.129
47245W        W13654  10.643  37.638  12.556
47246W        W13655   1.794  42.875  10.959
47247W        W13656  27.530   2.243   1.231
47248W        W13657  26.197   6.258  10.561
47249W        W13658  21.537  10.448  12.959
47250W        W13659  12.672  22.523   0.450
47251W        W13660  34.202  35.738  11.518
47252W        W13661   5.671  18.597  12.674
47253W        W13662  41.843  29.462   1.847
47254W        W13663  14.615  15.529   1.845
47255W        W13664  12.021  30.005  11.112
47256W        W13665  20.005  26.760   4.213
47257W        W13666  39.637  44.493  12.539
47258W        W13667  14.305  15.646  12.520
47259W        W13668   6.442   4.932  13.965
47260W        W13669  39.414   8.838  10.843
47261W        W13670  27.796  12.203   5.452
47262W        W13671   3.768  15.774  12.599
47263W        W13672  24.666  38.644  13.351
47264W        W13673  27.089  36.100   4.892
47265W        W13674  23.726  37.601   3.690
47266W        W13675  39.800  34.112   1.355
47267W        W13676   3.270  24.873   2.120
47268W        W13677  23.566   3.691   1.454
47269W        W13678   2.884   1.768  13.604
47270W        W13679  30.888  39.643  14.931
47271W        W13680  24.975   5.454   2.750
47272W        W13681   5.678  15.588   2.830
47273W        W13682  23.784  28.529  12.486
47274W        W13683  32.841  44.261   0.386
47275W        W13684  25.993  25.320  10.711
47276W        W13685   8.391  10.644   3.205
47277W        W13686  11.168  35.621   4.326
47278W        W13687  12.225  27.440  13.371
47279W        W13688  36.796  36.474   0.762
47280W        W13689  13.691  35.849   0.451
47281W        W13690  14.085   8.639   4.440
47282W        W13691   5.343  41.344   2.658
47283W        W13692  33.936  30.914   3.335
47284W        W13693  28.990  43.806  12.775
47285W        W13694  13.884   2.059   5.000
47286W        W13695  43.122   3.339   4.098
47287W        W13696  32.568  28.885  12.117
47288W        W13697  13.604  39.884  14.011
47289W        W13698  13.189   1.782  13.971
47290W        W13699   3.287   9.344   2.254
47291W        W13700  23.514  23.202  10.423
47292W        W13701  29.926  39.947  12.943
47293W        W13702  39.052   4.526  11.614
47294W        W13703   6.773  43.594  12.175
47295W        W13704  41.049  16.861   4.927
47296W        W13705  36.481  15.674   0.387
47297W        W13706  18.999  17.673   1.380
47298W        W13707  32.935  22.923  13.532
47299W        W13708   0.390  21.273   4.736
47300W        W13709  13.047  27.072   1.292
47301W        W13710  34.663  17.340  10.748
47302W        W13711  33.054   0.843  14.957
47303W        W13712   7.962  23.806  14.198
47304W        W13713  40.459  43.267  11.532
47305W        W13714   1.406  11.726  11.509
47306W        W13715  39.295  37.387   2.214
47307W        W13716  10.741  12.759  11.705
47308W        W13717   8.188   0.058  12.796
47309W        W13718  20.628  14.747  13.338
47310W        W13719  41.919  22.106  12.864
47311W        W13720  42.161  16.127   3.363
47312W        W13721  19.137  26.459   4.432
47313W        W13722  23.205  40.853  13.396
47314W        W13723   5.470  24.993   3.169
47315W        W13724  11.952   4.754   0.903
47316W        W13725  17.116   9.473   2.670
47317W        W13726  23.632   5.915   4.139
47318W        W13727  38.323  25.672   1.189
47319W        W13728  27.611  33.848   4.296
47320W        W13729  10.755   7.846   0.422
47321W        W13730  22.222  19.259   0.050
47322W        W13731  16.950  31.605  12.009
47323W        W13732  21.661  36.696   0.536
47324W        W13733  42.464  30.491  14.400
47325W        W13734  31.382  14.897  12.033
47326W        W13735  30.628   5.824  13.587
47327W        W13736  12.878  38.419  11.104
47328W        W13737  30.375   6.190  12.786
47329W        W13738  12.901  32.412  14.355
47330W        W13739  21.805  36.038   3.241
47331W        W13740  22.240  37.022  14.926
47332W        W13741  29.037  23.957   0.178
47333W        W13742  11.289   6.216  11.574
47334W        W13743  18.012  17.074  13.939
47335W        W13744   3.947  36.892  12.937
47336W        W13745  43.942  13.139  10.710
47337W        W13746  10.393  17.687   3.705
47338W        W13747  31.504  15.611   0.385
47339W        W13748   5.931  21.607   0.370
47340W        W13749  26.703  19.205   4.532
47341W        W13750  17.514   5.273   1.182
47342W        W13751  15.855  10.838  14.475
47343W        W13752   0.888   0.817   4.571
47344W        W13753  40.004  13.291   3.605
47345W        W13754  10.360  25.661   0.800
47346W        W13755  24.248   1.954   0.014
47347W        W13756  43.735  32.271  13.630
47348W        W13757  43.678  28.643  13.398
47349W        W13758  13.775  22.739  12.383
47350W        W13759   6.244  42.999  13.327
47351W        W13760  15.568   6.337   0.786
47352W        W13761   5.311  26.301   4.655
47353W        W13762   1.901  42.974   3.361
47354W        W13763  31.224  44.349   2.919
47355W        W13764  28.632  44.064  13.046
47356W        W13765  17.736  36.489  10.787
47357W        W13766   9.154   6.776  12.034
47358W        W13767   0.819  23.202  10.688
47359W        W13768  22.346  34.895   3.830
47360W        W13769  44.634   3.919   4.876
47361W        W13770   7.616  19.598   4.331
47362W        W13771   6.877  13.250  12.080
47363W        W13772  28.532  15.604   0.446
47364W        W13773  23.126  40.230  11.701
47365W        W13774   0.345  41.927   0.369
47366W        W13775   7.430  14.708  14.405
47367W        W13776   0.931   7.749  11.893
47368W        W13777  15.610  31.020   5.000
47369W        W13778  44.012  13.282  10.231
47370W        W13779  25.447  33.904  14.842
47371W        W13780  18.640  26.548   0.787
47372W        W13781  24.236  37.005   3.199
47373W        W13782  34.669   6.256  11.502
47374W        W13783  14.245  29.540   2.907
47375W        W13784  36.960  43.472  11.208
47376W        W13785  33.968  12.776   4.063
47377W        W13786  12.241   6.047   3.738
47378W        W13787   3.528  15.366  12.852
47379W        W13788  10.060  19.706   5.046
47380W        W13789   8.783  26.544   4.309
47381W        W13790  33.096  42.432   4.649
47382W        W13791  42.343  42.193   1.699
47383W        W13792  38.033   4.253   0.889
47384W        W13793  15.667  16.131  14.509
47385W        W13794  15.773  17.237   5.000
47386W        W13795  35.955   4.854  14.747
47387W        W13796  40.279  16.114   0.340
47388W        W13797  18.758   2.810   1.143
47389W        W13798  12.271  29.923   3.916
47390W        W13799  29.641  34.601   1.395
47391W        W13800  44.957   2.322   4.232
47392W        W13801   9.164  21.507   1.408
47393W        W13802   7.037   7.268  13.775
47394W        W13803  31.062  12.837   2.678
47395W        W13804  24.655   0.088   4.141
47396W        W13805  16.566  44.744  10.793
47397W        W13806  44.917  43.266  14.524
47398W        W13807   7.429  34.465  12.604
47399W        W13808  18.057  25.494   2.000
47400W        W13809  41.083  15.569   0.390
47401W        W13810  37.713  33.851   1.813
47402W        W13811   8.915  42.979   2.798
47403W        W13812  13.541  40.473  14.244
47404W        W13813  12.614  25.085  11.061
47405W        W13814  39.645  41.890   0.877
47406W        W13815  37.993  12.034   4.580
47407W        W13816  44.452  37.778   4.527
47408W        W13817  38.658  26.086   4.904
47409W        W13818  42.363  39.404   2.184
47410W        W13819   1.867  44.477   1.446
47411W        W13820   2.765   0.317   4.791
47412W        W13821  27.784  42.749   4.638
47413W        W13822  44.428  31.666  14.021
47414W        W13823  36.481  27.222  10.512
47415W        W13824  31.753  27.555   4.923
47416W        W13825   5.663   3.130  13.515
47417W        W13826  40.495   9.350  13.013
47418W        W13827  44.942   1.264  12.565
47419W        W13828  21.281   3.475  10.640
47420W        W13829  16.713  19.620   1.038
47421W        W13830  27.512  35.418   3.047
47422W        W13831   4.111  44.475  14.725
47423W        W13832   7.731   6.731  12.255
47424W        W13833   8.334  29.107  14.044
47425W        W13834  30.887  14.102   4.700
47426W        W13835  12.839  42.610  14.356
47427W        W13836  19.151  22.994  13.352
47428W        W13837  26.938  31.526  14.316
47429W        W13838  34.954  37.975  13.152
47430W        W13839  29.792  19.636  11.477
47431W        W13840   9.053  26.977   2.784
47432W        W13841  13.297  30.492  13.745
47433W        W13842  22.472  44.419  12.629
47434W        W13843  29.845  33.956  14.261
47435W        W13844   3.741  41.678   0.679
47436W        W13845  19.362   0.347   3.186
47437W        W13846  18.293  36.528  13.564
47438W        W13847  41.361  12.920   4.622
47439W        W13848  15.874  26.189   1.270
47440W        W13849  17.107  25.206   4.545
47441W        W13850   2.366  16.428  11.607
47442W        W13851   0.994  28.913   3.125
47443W        W13852  44.628   0.217  14.482
47444W        W13853  16.558  20.430   1.687
47445W        W13854  24.237   7.156  14.282
47446W        W13855  16.396  35.330   4.369
47447W        W13856  29.542  29.630   1.441
47448W        W13857  16.709  33.791  13.119
47449W        W13858  24.652   1.693  12.045
47450W        W13859  31.389  16.783   0.856
47451W        W13860   5.116  20.580   1.758
47452W        W13861   8.457  38.125  14.365
47453W        W13862  36.277  36.564   1.604
47454W        W13863   6.387  23.174   4.931
47455W        W13864  23.779   8.731   0.381
47456W        W13865  17.036  41.287  14.012
47457W        W13866  25.612  14.053   1.625
47458W        W13867  14.218  42.508  11.185
47459W        W13868   9.959   5.894  11.062
47460W        W13869   1.356   4.844  10.207
47461W        W13870  28.431  20.934   2.157
47462W        W13871  25.436  29.911   0.902
47463W        W13872  43.806  15.625   3.192
47464W        W13873   3.915   0.977  10.325
47465W        W13874   6.423  26.582  12.423
47466W        W13875   8.228   1.866   3.367
47467W        W13876   4.296  27.080   4.065
47468W        W13877  34.173  27.795  10.965
47469W        W13878  26.830  31.965   2.799
47470W        W13879  28.269  41.967  11.338
47471W        W13880  19.729   4.935  11.165
47472W        W13881  38.793  11.103   2.303
47473W        W13882  44.246  37.398  12.041
47474W        W13883  28.666  25.672   4.657
47475W        W13884   0.514   4.866   4.782
47476W        W13885  23.864   3.905  12.437
47477W        W13886  20.350   4.484   4.104
47478W        W13887  23.611  42.449   1.951
47479W        W13888  35.748  26.648  10.626
47480W        W13889   3.509   7.649   0.471
47481W        W13890   6.194  11.219   2.387
47482W        W13891   5.263  26.473   4.180
47483W        W13892  28.509   8.559   0.588
47484W        W13893  10.158  22.370  10.000
47485W        W13894  33.906   2.240   2.751
47486W        W13895  28.884  14.034   0.835
47487W        W13896  15.684  22.457   2.083
47488W        W13897  39.942  42.297  13.510
47489W        W13898  44.513   5.210   2.291
47490W        W13899   9.838  36.616  11.920
47491W        W13900  37.113  28.793  14.429
47492W        W13901  35.837   1.962   2.591
47493W        W13902  31.565  36.020   4.090
47494W        W13903   4.000  37.328   1.294
47495W        W13904  22.102   8.572   3.378
47496W        W13905   8.095  22.038  14.345
47497W        W13906  12.218  40.525  12.428
47498W        W13907  17.557  21.113  10.631
47499W        W13908  25.057   5.806  11.871
47500W        W13909   4.511  16.708  13.604
47501W        W13910   3.022   1.015   2.450
47502W        W13911   0.868  33.083   0.030
47503W        W13912  14.186  27.481  10.763
47504W        W13913   6.554   5.696  10.644
47505W        W13914  30.575  32.914  11.604
47506W        W13915  41.529  26.603   3.577
47507W        W13916  41.525   6.715  10.686
47508W        W13917  41.993   7.199  14.509
47509W        W13918  44.293  17.174  13.803
47510W        W13919  21.634  20.963  12.233
47511W        W13920  27.466  24.047   1.465
47512W        W13921   7.560  22.167  10.739
47513W        W13922  17.612  10.404   1.821
47514W        W13923  26.211   0.169   4.894
47515W        W13924  37.591  29.004  12.958
47516W        W13925  32.853  36.813  12.830
47517W        W13926   3.438  38.890  11.526
47518W        W13927  42.349  32.837   1.239
47519W        W13928   6.993  29.099   4.373
47520W        W13929  38.589  22.243   5.079
47521W        W13930  17.473  29.994   1.231
47522W        W13931  18.980  40.491   3.120
47523W        W13932  32.519   0.749   3.672
47524W        W13933  32.094  33.519  14.932
47525W        W13934  27.393  44.226   4.911
47526W        W13935  31.684  10.145  12.605
47527W        W13936  38.348  12.576   0.419
47528W        W13937  28.750  15.759   3.173
47529W        W13938  44.263  26.005  11.169
47530W        W13939  35.811  19.277   4.165
47531W        W13940  31.454  13.597   4.554
47532W        W13941  11.145  20.719  13.947
47533W        W13942  30.249   1.638   2.801
47534W        W13943  30.245  17.332   1.993
47535W        W13944  17.791   0.277  12.108
47536W        W13945  12.891  16.335  13.855
47537W        W13946   0.799  32.617  14.041
47538W        W13947  20.150  33.654  12.572
47539W        W13948  10.734  30.061  11.559
47540W        W13949   1.993  33.445  11.588
47541W        W13950  23.460  32.496  14.562
47542W        W13951  23.588   0.779   0.660
47543W        W13952  30.240  18.615  12.079
47544W        W13953  10.916  30.156   2.205
47545W        W13954  38.010  37.689  14.468
47546W        W13955  24.219   0.282   3.242
47547W        W13956  35.634  43.224  11.638
47548W        W13957   0.008  29.349  12.555
47549W        W13958  13.456  24.585  10.980
47550W        W13959  40.293   5.667  14.532
47551W        W13960  28.996  22.033   2.872
47552W        W13961  22.944  15.337  14.818
47553W        W13962   6.089  26.172   0.238
47554W        W13963  23.876  38.957  14.050
47555W        W13964  22.658  15.868   0.341
47556W        W13965  41.917  10.218  13.335
47557W        W13966  11.580   9.708  12.083
47558W        W13967  12.820  14.938  12.132
47559W        W13968  41.838  22.273  10.897
47560W        W13969   3.270  22.728  13.728
47561W        W13970   1.973  43.418  12.017
47562W        W13971   9.180   2.678  12.816
47563W        W13972   6.180  28.587   0.469
47564W        W13973  10.919   4.932  14.940
47565W        W13974   0.017  12.608  12.404
47566W        W13975  43.243   2.524  12.059
47567W        W13976   9.254   5.451   1.351
47568W        W13977  19.836  25.870  11.169
47569W        W13978  31.830  39.419   3.772
47570W        W13979   9.435  30.001   3.678
47571W        W13980   4.445   1.171   2.653
47572W        W13981   6.255  22.606   3.187
47573W        W13982  35.871  22.189   1.820
47574W        W13983   4.474  34.702  14.562
47575W        W13984   7.896  34.457  13.941
47576W        W13985  42.260  41.686   1.754
47577W        W13986   0.140  10.498   4.491
47578W        W13987  39.296   7.363   0.964
47579W        W13988  44.484  11.727  13.103
47580W        W13989  29.192  22.943  12.866
47581W        W13990  12.777  38.052  14.393
47582W        W13991  23.711  28.570   4.499
47583W        W13992  22.785  35.973   4.638
47584W        W13993  20.172  12.749   5.181
47585W        W13994   6.180  28.303  14.496
47586W        W13995  34.016  20.445   1.787
47587W        W13996  37.779  39.471   0.375
47588W        W13997  21.623  17.352  13.371
47589W        W13998  15.336  26.275   2.653
47590W        W13999   9.285   6.207  13.794
47591W        W14000  18.992  24.564  13.602
47592W        W14001  31.179  24.662   0.734
47593W        W14002  16.987   4.756  14.832
47594W        W14003  29.128  26.887   2.415
47595W        W14004  29.655  36.329  10.734
47596W        W14005  11.172  37.409  13.469
47597W        W14006  35.849  35.856  11.146
47598W        W14007  22.644  34.495   3.743
47599W        W14008  23.671  30.959  13.780
47600W        W14009   6.717  21.077   4.820
47601W        W14010  38.340   7.781  12.263
47602W        W14011   3.066  26.681  10.467
47603W        W14012   0.461  26.689   0.545
47604W        W14013   6.125  11.669   2.655
47605W        W14014  33.103  22.278  12.251
47606W        W14015   1.790   8.796  10.347
47607W        W14016  12.433  20.554  14.495
47608W        W14017  44.992  28.428   4.525
47609W        W14018   4.396  16.444  14.054
47610W        W14019  20.213  15.393  11.561
47611W        W14020  13.974  39.198   3.749
47612W        W14021   0.488   7.058   0.959
47613W        W14022  11.079   4.199   2.750
47614W        W14023  12.873  26.920   2.862
47615W        W14024  31.395  20.948   1.486
47616W        W14025  13.182  13.428   1.294
47617W        W14026   5.440  13.629   2.938
47618W        W14027  17.101   4.817   5.093
47619W        W14028  12.066  10.059   9.913
47620W        W14029  32.191  24.547  11.170
47621W        W14030  18.295  20.724  11.586
47622W        W14031  16.334  14.641  13.229
47623W        W14032  27.005  17.085   1.223
47624W        W14033  26.549  26.501   4.371
47625W        W14034  23.126  12.313  10.682
47626W        W14035  37.576  42.814  13.383
47627W        W14036  15.244  26.220   0.071
47628W        W14037  24.713   1.062  12.597
47629W        W14038  35.872  16.336   3.692
47630W        W14039  12.666  26.692  14.548
47631W        W14040  24.823   5.719  10.717
47632W        W14041  34.171  25.543  11.613
47633W        W14042   3.683  38.768   0.647
47634W        W14043  26.121   8.659   0.327
47635W        W14044  22.200  33.117  11.676
47636W        W14045  11.788  42.141  10.817
47637W        W14046   2.835  24.020   0.226
47638W        W14047   3.389  38.690  13.684
47639W        W14048  22.786  43.999  11.949
47640W        W14049  32.133   9.327  11.212
47641W        W14050  30.963  23.444   9.905
47642W        W14051  37.962   8.866   2.184
47643W        W14052  33.709  33.694  14.884
47644W        W14053   1.312  19.362   0.360
47645W        W14054  11.129  38.149   3.146
47646W        W14055  23.327  25.592  11.031
47647W        W14056  12.354  25.487  14.830
47648W        W14057  19.875  15.600   2.934
47649W        W14058  22.875   6.423  13.854
47650W        W14059   7.315   7.250  14.222
47651W        W14060  13.381  26.631  12.529
47652W        W14061  34.864  20.195   1.718
47653W        W14062  34.990  32.521   4.231
47654W        W14063  20.651   7.665   1.299
47655W        W14064  15.607  25.205  12.060
47656W        W14065   4.713  26.125  13.903
47657W        W14066  43.292  13.840   0.036
47658W        W14067  30.569   3.937  11.107
47659W        W14068  21.758  40.846   3.440
47660W        W14069  42.024  25.119   4.120
47661W        W14070  28.447  21.564   3.784
47662W        W14071   4.262  38.522   1.781
47663W        W14072  11.178  26.881  13.062
47664W        W14073   3.396  28.454   2.808
47665W        W14074  22.283   3.001   4.693
47666W        W14075  39.036  22.034   3.170
47667W        W14076  30.650  11.655  11.041
47668W        W14077  18.764  28.994   0.305
47669W        W14078  24.517  26.611   2.503
47670W        W14079  12.115  29.760  11.577
47671W        W14080  15.473   3.064  12.605
47672W        W14081  13.338  21.782  10.302
47673W        W14082  19.004   2.672  14.903
47674W        W14083  35.440  31.733   4.761
47675W        W14084  15.687  13.393   1.984
47676W        W14085   5.231  39.350   3.895
47677W        W14086   1.535  15.873  14.794
47678W        W14087  18.193  19.152   4.463
47679W        W14088  18.715   4.424   1.728
47680W        W14089  15.636  20.973  12.793
47681W        W14090  35.888  21.982  13.438
47682W        W14091  38.863  33.045  14.044
47683W        W14092  13.791  38.493  12.423
47684W        W14093  16.690   7.611   1.175
47685W        W14094  21.214  19.007  13.932
47686W        W14095  41.048  21.178   1.313
47687W        W14096   1.863  42.734   3.814
47688W        W14097   1.929  13.319   2.442
47689W        W14098   0.935  38.003   1.774
47690W        W14099  28.047   4.636   1.878
47691W        W14100  19.257  40.393  10.723
47692W        W14101  20.749  24.294  14.313
47693W        W14102  14.570   6.240   0.850
47694W        W14103  33.742  39.548   3.677
47695W        W14104  27.470   0.093   2.817
47696W        W14105   8.815  27.422   0.924
47697W        W14106  29.949  21.922  13.863
47698W        W14107  29.997  22.000   0.968
47699W        W14108  43.998  13.557   4.478
47700W        W14109  41.920  42.961   4.497
47701W        W14110  34.560  34.998  11.561
47702W        W14111  16.509   7.277   3.196
47703W        W14112   6.575   3.438  11.521
47704W        W14113  27.079  22.077   3.004
47705W        W14114  33.458  30.006  13.354
47706W        W14115   0.325  29.357  12.112
47707W        W14116  37.615  29.143  13.852
47708W        W14117  35.123  32.117  13.324
47709W        W14118  17.011  33.139  11.130
47710W        W14119  42.680  20.232  12.972
47711W        W14120  29.474  18.038   1.160
47712W        W14121  29.354  30.450  12.486
47713W        W14122   7.766   6.170  12.575
47714W        W14123  16.188  44.037   1.109
47715W        W14124  10.634   4.531  14.048
47716W        W14125  30.882  42.800  13.879
47717W        W14126  42.402  42.555   0.240
47718W        W14127  16.601  20.625  14.882
47719W        W14128   9.110  23.064   3.820
47720W        W14129  22.833  15.472  11.541
47721W        W14130  27.036  15.621  14.404
47722W        W14131   1.731  38.384   3.552
47723W        W14132  24.564  31.857  12.528
47724W        W14133  37.061  31.212   1.157
47725W        W14134  40.247  32.276   2.763
47726W        W14135  11.824  25.657  11.268
47727W        W14136  11.637  32.887   0.681
47728W        W14137  27.089  18.551  14.412
47729W        W14138   7.215  44.326  11.692
47730W        W14139   9.815  44.976   4.567
47731W        W14140  37.831   0.062  13.280
47732W        W14141  30.026  14.193   3.914
47733W        W14142  41.069  18.269   3.263
47734W        W14143  25.110  44.738   1.337
47735W        W14144  38.587  26.073  13.539
47736W        W14145   2.272  32.567   4.415
47737W        W14146  39.674  10.737  11.108
47738W        W14147  10.391  10.018  10.391
47739W        W14148  30.690  22.263   3.761
47740W        W14149  11.414   5.804   0.982
47741W        W14150  13.438  26.117   2.300
47742W        W14151  29.058  33.800  12.337
47743W        W14152  36.407  23.497  14.347
47744W        W14153  36.574  38.487   1.214
47745W        W14154  21.599  38.155   0.223
47746W        W14155  25.680  43.013   3.067
47747W        W14156  28.879  22.366  14.958
47748W        W14157  25.561  41.202  14.916
47749W        W14158   5.373   8.118  11.742
47750W        W14159  43.406  33.489   1.926
47751W        W14160  27.983  12.199  10.724
47752W        W14161  14.159  10.863  13.552
47753W        W14162  30.767  31.865   2.676
47754W        W14163  30.416  38.279   0.884
47755W        W14164   6.471  22.767   3.703
47756W        W14165  40.593  22.725  14.630
47757W        W14166  22.458  16.762   4.173
47758W        W14167   3.637  32.546  11.141
47759W        W14168   2.384  10.849   4.101
47760W        W14169  21.724  41.158  11.057
47761W        W14170  31.306  43.351  11.623
47762W        W14171  42.585  31.965   1.385
47763W        W14172   0.926  28.025   1.164
47764W        W14173  41.979  26.661   3.297
47765W        W14174   9.490   6.450   3.753
47766W        W14175  34.894  23.044  11.413
47767W        W14176  20.360   5.844   2.781
47768W        W14177  32.536  24.475   2.742
47769W        W14178   8.690  21.007  12.323
47770W        W14179  15.126   6.720  14.912
47771W        W14180  33.535  40.506  12.414
47772W        W14181  12.902  39.109  12.386
47773W        W14182  18.319  26.176  14.038
47774W        W14183  31.006  38.953  10.361
47775W        W14184   1.394  32.374  14.841
47776W        W14185  30.834  33.351   0.814
47777W        W14186   5.772  41.409  13.364
47778W        W14187  43.818  25.714  11.151
47779W        W14188  26.926  35.014   1.979
47780W        W14189  25.010  38.425   5.117
47781W        W14190  35.460   8.904  12.049
47782W        W14191  31.581  25.667   2.346
47783W        W14192  33.040  24.898  14.827
47784W        W14193  25.212   8.277   3.658
47785W        W14194   6.903   7.224   1.872
47786W        W14195  11.662  30.575   1.751
47787W        W14196  23.688  11.598  12.883
47788W        W14197   5.100   6.493  11.938
47789W        W14198  24.465  26.594  12.391
47790W        W14199  38.928  27.867   0.446
47791W        W14200  17.018   3.387  14.234
47792W        W14201  19.077  23.634  13.060
47793W        W14202  40.972  31.984   4.817
47794W        W14203   0.250  27.149   1.824
47795W        W14204  42.953   3.196   2.597
47796W        W14205  44.289   6.182   1.741
47797W        W14206   3.688  10.761   0.291
47798W        W14207  29.534  42.500   3.317
47799W        W14208  14.690  18.412  11.965
47800W        W14209  27.494  22.017  13.129
47801W        W14210  16.165   4.953  12.070
47802W        W14211  12.778  25.623  14.517
47803W        W14212  37.217  35.666  12.942
47804W        W14213  24.007  27.656   3.426
47805W        W14214   9.927  22.506   1.267
47806W        W14215  24.683  32.583  14.992
47807W        W14216   8.718  18.187  14.037
47808W        W14217   5.296  41.034  13.011
47809W        W14218   7.170   2.582   4.629
47810W        W14219  10.598  17.034  11.733
47811W        W14220  39.059  10.578  13.382
47812W        W14221  11.333  13.532   3.751
47813W        W14222   0.169  40.333  12.361
47814W        W14223  38.782  41.781  10.659
47815W        W14224  35.059  35.837   0.305
47816W        W14225  11.876  19.088   1.767
47817W        W14226  40.270   7.783   2.205
47818W        W14227  17.246  27.068   2.555
47819W        W14228  41.869  35.067   2.422
47820W        W14229  11.685  28.462   2.651
47821W        W14230  22.539  38.483  14.080
47822W        W14231  27.915  41.339  14.265
47823W        W14232  39.827   7.766   1.271
47824W        W14233  44.779  22.880   1.664
47825W        W14234  41.422   1.275  13.527
47826W        W14235  11.705  44.225  10.112
47827W        W14236  36.301  16.828   0.463
47828W        W14237  39.424   4.807   4.574
47829W        W14238  27.283   2.974  13.066
47830W        W14239  12.852  31.579   2.573
47831W        W14240  35.481   2.815  14.251
47832W        W14241  38.363  43.403  14.812
47833W        W14242  20.709  43.179   4.592
47834W        W14243  37.428  38.614   3.250
47835W        W14244  24.500  15.650  14.103
47836W        W14245   6.693   5.982   4.138
47837W        W14246  33.154   6.140   3.323
47838W        W14247  35.354  17.894  13.231
47839W        W14248  24.924  24.142  12.986
47840W        W14249  28.363  34.679   4.910
47841W        W14250  31.980   3.765   2.223
47842W        W14251  23.216   3.034   2.675
47843W        W14252   9.461   5.194   0.898
47844W        W14253   1.787   1.183   1.594
47845W        W14254  29.836  42.210  14.828
47846W        W14255   2.849  44.070   3.986
47847W        W14256   4.076  38.988  14.438
47848W        W14257  23.063  32.126  10.398
47849W        W14258  15.580  31.468   0.211
47850W        W14259  21.862  20.468  13.800
47851W        W14260  34.253  33.870  13.281
47852W        W14261  38.295  28.088   1.235
47853W        W14262  29.456   5.137   2.276
47854W        W14263  27.637  33.661  14.284
47855W        W14264  38.635   6.869   0.512
47856W        W14265  33.056  19.070   2.810
47857W        W14266  12.824  23.700   0.836
47858W        W14267  32.959   5.294   5.011
47859W        W14268  29.007  14.550  14.896
47860W        W14269  22.089   2.171   0.418
47861W        W14270  23.422  23.561   3.565
47862W        W14271  44.760  40.983   3.574
47863W        W14272  41.873  11.509  10.665
47864W        W14273  39.359  12.796  12.250
47865W        W14274  40.970  10.723   0.371
47866W        W14275  43.959  39.176   2.918
47867W        W14276  33.076  31.431  11.640
47868W        W14277  44.846  14.253   3.296
47869W        W14278  31.795  34.505  10.788
47870W        W14279   5.253  18.823   2.125
47871W        W14280   6.201  14.816   4.594
47872W        W14281  28.139   4.176   3.206
47873W        W14282  44.870  10.955   3.253
47874W        W14283  30.128  17.026  14.557
47875W        W14284  16.835   6.568   4.849
47876W        W14285  41.853   3.350  11.016
47877W        W14286  39.516  39.367  10.888
47878W        W14287  16.450  26.687   0.805
47879W        W14288   2.679  29.056  14.483
47880W        W14289   2.509  19.809  11.156
47881W        W14290   9.153   4.217  11.180
47882W        W14291   4.812  12.618   1.225
47883W        W14292  28.071  31.091   4.925
47884W        W14293  10.150   8.744  10.833
47885W        W14294  17.075   5.244   4.361
47886W        W14295  31.629  42.581  13.532
47887W        W14296  41.606  10.677   4.569
47888W        W14297   8.271   3.739  13.315
47889W        W14298  24.711   0.073  13.784
47890W        W14299  21.579   5.451  12.497
47891W        W14300  37.146  32.391  12.120
47892W        W14301  31.606  21.469   3.236
47893W        W14302  11.405  38.542  14.493
47894W        W14303  37.293  37.985   1.391
47895W        W14304  16.749  22.154   4.974
47896W        W14305  35.070  33.582  14.306
47897W        W14306   7.832  44.409   2.209
47898W        W14307  38.998  36.736  10.664
47899W        W14308  12.780  32.721  13.941
47900W        W14309  40.332  27.754  14.975
47901W        W14310   9.860  16.010   0.860
47902W        W14311  35.414  22.225   0.022
47903W        W14312  12.289  15.586   1.934
47904W        W14313   2.726  37.092   1.051
47905W        W14314   9.802   0.306  10.833
47906W        W14315  34.441   5.212   1.991
47907W        W14316   8.256  25.657   1.729
47908W        W14317  23.107  15.277   1.165
47909W        W14318   7.894   5.899   1.307
47910W        W14319  20.451  18.557   0.219
47911W        W14320  21.123  10.183  10.032
47912W        W14321   7.187  22.307   4.675
47913W        W14322   7.738  37.174  12.425
47914W        W14323  41.547   6.337  13.439
47915W        W14324  21.761   6.441  11.986
47916W        W14325  16.901  43.371  11.852
47917W        W14326  35.136  20.549  12.389
47918W        W14327  40.389  11.282  12.408
47919W        W14328  13.186   8.501   0.563
47920W        W14329   0.501  13.778  13.955
47921W        W14330  23.209   1.634  13.512
47922W        W14331  14.175  41.616   3.673
47923W        W14332  24.961  15.757   1.254
47924W        W14333  44.493  27.718   2.807
47925W        W14334  26.735  44.472  10.316
47926W        W14335  37.010  16.591  11.507
47927W        W14336   7.628   8.394  12.995
47928W        W14337  18.797   0.978  11.627
47929W        W14338  37.586   3.740   4.482
47930W        W14339  16.124  40.977  14.853
47931W        W14340   6.740  39.410   2.336
47932W        W14341  35.437  20.543  13.923
47933W        W14342   1.893  43.820   3.738
47934W        W14343   7.419  29.337   3.785
47935W        W14344  30.468  31.148   0.387
47936W        W14345  10.825  28.051   0.968
47937W        W14346  42.091  40.458  13.986
47938W        W14347  38.185   4.332   0.388
47939W        W14348  40.777  14.736  11.839
47940W        W14349  11.588  28.067  12.112
47941W        W14350  13.216  10.306  10.703
47942W        W14351  15.602  13.680   4.642
47943W        W14352  16.699  23.122   3.125
47944W        W14353  15.272  34.615  11.941
47945W        W14354  30.592  20.338   2.214
47946W        W14355  34.439   0.826  13.045
47947W        W14356  44.408  25.126  14.655
47948W        W14357  13.797  35.145  13.418
47949W        W14358  23.246   4.682  12.148
47950W        W14359  39.718   1.673   3.227
47951W        W14360  31.124   6.214   2.801
47952W        W14361  37.131  30.404  10.558
47953W        W14362  41.717  26.326  12.558
47954W        W14363   7.931  38.911  11.115
47955W        W14364  36.715  26.669   1.839
47956W        W14365  15.032  11.104  13.062
47957W        W14366  32.971  31.136  14.170
47958W        W14367  26.993  27.655  13.019
47959W        W14368  16.084  24.556  12.437
47960W        W14369  37.615  20.907   4.426
47961W        W14370  22.872   6.306  10.067
47962W        W14371   2.079  32.502  14.448
47963W        W14372  14.506  42.451  14.182
47964W        W14373  12.287  34.529   4.518
47965W        W14374  28.234  19.184   1.495
47966W        W14375  18.068  43.835  11.259
47967W        W14376  30.929  31.215  11.167
47968W        W14377   4.926  12.568  11.654
47969W        W14378  43.497  13.711   3.149
47970W        W14379  32.973  17.107  13.779
47971W        W14380  36.544  28.380  11.475
47972W        W14381  16.864  38.578   0.022
47973W        W14382  17.198  21.665   0.552
47974W        W14383  11.152  43.745  13.847
47975W        W14384  39.731   2.580  13.904
47976W        W14385  23.028  33.704   1.329
47977W        W14386   8.943  27.604   4.799
47978W        W14387  28.594  43.888   3.390
47979W        W14388  34.688   3.815   0.831
47980W        W14389  15.419  18.829  11.534
47981W        W14390  42.814  43.927  11.572
47982W        W14391  31.428  28.909  14.843
47983W        W14392  36.224  25.133   0.855
47984W        W14393  31.948  35.415   1.524
47985W        W14394  40.114   4.395   1.717
47986W        W14395  14.666  33.636  10.164
47987W        W14396  30.787  27.679   2.215
47988W        W14397  24.808  22.102   0.683
47989W        W14398  19.689  19.679   4.084
47990W        W14399  36.636   1.480  11.681
47991W        W14400  38.608  30.450   3.382
47992W        W14401  19.015  15.888  14.357
47993W        W14402   6.687  39.501  11.934
47994W        W14403  16.542  40.722  14.077
47995W        W14404  21.274  43.963   0.740
47996W        W14405  30.161  20.926  13.987
47997W        W14406  31.960  17.988   4.183
47998W        W14407  30.192  13.892   2.708
47999W        W14408  19.985  29.044   1.455
48000W        W14409   3.244  27.349  11.054
48001W        W14410  37.009  11.096   1.864
48002W        W14411   6.209   2.728  12.261
48003W        W14412  25.513   4.495   0.773
48004W        W14413  44.129  15.726  10.658
48005W        W14414   2.290   6.653  11.939
48006W        W14415  21.428  26.230   1.075
48007W        W14416  17.011  42.273   4.613
48008W        W14417   4.624  36.217   0.307
48009W        W14418  34.041  39.875  12.144
48010W        W14419  29.379  44.299   0.341
48011W        W14420  41.112  32.153  14.934
48012W        W14421  37.403  22.473   0.463
48013W        W14422  14.120  19.859   1.656
48014W        W14423  12.147  16.022  12.872
48015W        W14424  43.799  36.080   1.796
48016W        W14425  16.321   3.898  14.339
48017W        W14426   0.267  24.314   4.129
48018W        W14427  33.547   6.833   0.817
48019W        W14428   4.411  16.081  14.426
48020W        W14429  10.875  35.101   1.887
48021W        W14430   4.028  13.220   3.752
48022W        W14431  21.018  40.358  14.556
48023W        W14432  37.516  33.384  11.476
48024W        W14433  39.856  39.536  13.878
48025W        W14434  38.544  28.588  12.209
48026W        W14435  13.273  16.169  13.115
48027W        W14436   6.685  34.418  12.901
48028W        W14437  34.946   6.628   4.184
48029W        W14438  34.013  13.899   1.962
48030W        W14439  33.356   0.328   0.572
48031W        W14440  17.919  28.256   2.299
48032W        W14441  43.244  22.616   4.278
48033W        W14442   5.703  39.398  14.276
48034W        W14443  42.564  28.161  11.038
48035W        W14444  27.499  20.017   2.331
48036W        W14445   7.294   4.830  12.030
48037W        W14446   2.478   0.840   3.664
48038W        W14447  16.686  17.411   2.804
48039W        W14448  29.927  19.576  12.853
48040W        W14449   5.282  20.891  11.037
48041W        W14450   1.287  21.215   4.048
48042W        W14451  23.805   8.735   2.239
48043W        W14452   3.346  20.805  12.916
48044W        W14453  15.911   7.123  13.011
48045W        W14454  26.148  25.488   4.988
48046W        W14455   4.893   5.380  13.359
48047W        W14456   7.969   9.235   0.140
48048W        W14457   8.426  30.078  12.138
48049W        W14458  22.078   8.417   1.301
48050W        W14459  11.759  30.457   4.592
48051W        W14460  42.475  38.887  12.088
48052W        W14461  35.578  17.478   1.665
48053W        W14462  34.601  35.092  10.747
48054W        W14463  44.700  27.682  11.555
48055W        W14464  22.025  40.630   2.834
48056W        W14465   6.489   2.184  13.506
48057W        W14466  18.264  26.659   0.449
48058W        W14467  26.457   3.503  14.967
48059W        W14468  28.350  17.406   2.371
48060W        W14469  23.148  22.974   1.365
48061W        W14470  27.076  12.208  13.121
48062W        W14471   0.829  29.477   2.834
48063W        W14472  15.390  35.888   4.119
48064W        W14473   0.243   4.748  14.070
48065W        W14474  21.849  22.612  13.133
48066W        W14475  43.056  38.482  10.807
48067W        W14476  31.033  37.345   0.187
48068W        W14477  21.611  17.814  10.572
48069W        W14478  42.977  30.504  14.401
48070W        W14479   1.491  42.717   3.220
48071W        W14480  16.494  31.817  12.099
48072W        W14481  24.051  12.203  14.558
48073W        W14482   4.930  11.699  10.358
48074W        W14483  42.735   5.452  14.885
48075W        W14484   5.754  41.936   3.097
48076W        W14485   8.842  38.943   4.414
48077W        W14486  13.779   6.339  11.889
48078W        W14487  39.529  39.957  11.910
48079W        W14488  37.808   6.496   1.847
48080W        W14489  38.159  21.488  13.578
48081W        W14490  32.570   2.484   3.306
48082W        W14491  36.607  40.427  13.595
48083W        W14492  21.647  23.223   1.400
48084W        W14493   8.008   6.075   2.434
48085W        W14494  27.560  24.009  13.980
48086W        W14495  37.781  15.265  14.979
48087W        W14496  13.312  10.631  12.151
48088W        W14497  36.473  14.645  12.686
48089W        W14498  31.711  12.252  10.849
48090W        W14499   3.470  17.084   2.230
48091W        W14500  20.467  37.183   3.178
48092W        W14501   9.324  24.463  12.403
48093W        W14502   6.253  18.095   4.497
48094W        W14503  39.536   9.902  13.331
48095W        W14504  20.448  26.714  14.854
48096W        W14505   9.817   0.037   1.940
48097W        W14506  39.458  30.846  14.019
48098W        W14507  15.854  31.231   3.682
48099W        W14508  18.182  26.960   0.944
48100W        W14509   4.140  42.960   4.538
48101W        W14510  19.992  28.516  11.441
48102W        W14511  43.519  41.589  13.839
48103W        W14512  19.530  15.639   3.923
48104W        W14513  14.631   3.503   4.174
48105W        W14514  42.955  11.979   9.756
48106W        W14515   4.680  17.259   2.767
48107W        W14516  36.413  12.653  11.600
48108W        W14517  24.049  40.881  12.993
48109W        W14518  11.201  29.059   1.657
48110W        W14519  37.719  17.895   9.698
48111W        W14520  14.795  37.401  12.954
48112W        W14521  33.113  24.124  14.560
48113W        W14522   0.582  41.351   0.393
48114W        W14523  17.521  10.666   0.502
48115W        W14524  25.208  31.044  12.179
48116W        W14525   0.984  37.379   4.300
48117W        W14526  15.396  36.001   9.879
48118W        W14527  34.813  30.038  12.003
48119W        W14528  28.944   9.729   0.759
48120W        W14529  28.059  11.105   9.757
48121W        W14530  33.204  42.718   4.235
48122W        W14531  11.564  31.546  14.317
48123W        W14532  13.754  19.208  11.092
48124W        W14533  25.234  24.656   1.882
48125W        W14534  28.506  10.871  14.897
48126W        W14535   8.278  28.577  13.067
48127W        W14536  17.279  23.217   1.624
48128W        W14537  39.602  19.075   4.187
48129W        W14538  27.461   1.335   2.107
48130W        W14539   3.919  18.335   1.778
48131W        W14540   0.942  37.192  12.712
48132W        W14541  21.193  35.861  13.670
48133W        W14542   2.483  27.545   4.162
48134W        W14543  36.557   6.823   3.407
48135W        W14544   4.187   3.479   4.051
48136W        W14545  14.207  16.761   4.339
48137W        W14546  35.128  10.912   4.694
48138W        W14547  25.662  35.967   2.883
48139W        W14548  19.139   9.414   3.965
48140W        W14549  35.088   8.256   1.335
48141W        W14550  37.075  30.807   1.480
48142W        W14551  21.101  32.927  12.232
48143W        W14552  35.610   0.272   1.994
48144W        W14553  39.301  38.390   2.298
48145W        W14554  21.540  26.427  11.389
48146W        W14555  32.381  30.930   0.320
48147W        W14556  25.965   3.228   0.709
48148W        W14557   1.807  30.506  14.834
48149W        W14558  22.630   0.294  13.031
48150W        W14559  20.513  26.443  14.395
48151W        W14560  17.750  16.538  11.138
48152W        W14561  21.908  11.745  12.104
48153W        W14562  22.843  44.083  10.607
48154W        W14563  44.906   2.712   0.869
48155W        W14564  36.426  25.472  11.020
48156W        W14565   3.905  18.235   0.859
48157W        W14566  39.428  29.450   2.260
48158W        W14567  14.218  29.131   0.640
48159W        W14568  14.812   6.268  13.172
48160W        W14569  26.622   1.844  11.492
48161W        W14570   9.157  12.055  14.894
48162W        W14571  40.980   1.247   2.320
48163W        W14572   7.797  14.825  11.993
48164W        W14573  26.519  29.198  11.449
48165W        W14574  40.002  33.105   1.115
48166W        W14575  34.766  14.696  10.747
48167W        W14576   3.829  15.227  14.525
48168W        W14577   1.486  31.578  11.949
48169W        W14578  24.637  35.515   2.942
48170W        W14579  14.760  27.138  14.246
48171W        W14580  33.879  11.204  13.959
48172W        W14581  24.826  15.449  13.356
48173W        W14582  33.571   0.999  12.843
48174W        W14583  35.886   5.508   3.173
48175W        W14584  31.973  29.173  13.838
48176W        W14585  26.789  15.173   0.993
48177W        W14586  14.110  14.319   0.161
48178W        W14587  35.991  40.364   3.705
48179W        W14588  39.305  19.589  14.046
48180W        W14589  16.868   6.301  13.038
48181W        W14590  33.610  21.524  10.583
48182W        W14591  22.747  28.231  14.457
48183W        W14592   7.424  12.799  12.866
48184W        W14593  26.740   1.410   2.666
48185W        W14594   2.460  25.370  11.971
48186W        W14595  31.599  37.938  12.250
48187W        W14596   0.438   5.526  12.935
48188W        W14597   1.265  10.624   3.056
48189W        W14598  39.040  16.735   3.788
48190W        W14599  20.983   8.104   2.198
48191W        W14600  23.721  11.625   1.264
48192W        W14601  12.425   3.634   4.595
48193W        W14602  15.289  19.826  10.150
48194W        W14603  44.360  18.988   1.927
48195W        W14604  22.921  17.251  11.164
48196W        W14605  15.589  37.944   3.654
48197W        W14606  16.747  40.926  11.680
48198W        W14607   2.353  30.914  10.540
48199W        W14608  13.052   4.922   3.658
48200W        W14609  29.073  14.417   4.486
48201W        W14610   0.337   7.388  11.814
48202W        W14611  24.460   7.895   0.274
48203W        W14612  26.651  16.241  14.512
48204W        W14613   3.821  16.362   1.773
48205W        W14614  37.791   9.100  12.025
48206W        W14615  39.418   5.380  14.975
48207W        W14616  34.064  42.393   4.604
48208W        W14617  32.002  21.138  14.535
48209W        W14618  22.809  18.002  11.698
48210W        W14619   0.692  31.139   2.361
48211W        W14620  25.199  14.596   4.201
48212W        W14621  14.733   3.141  11.930
48213W        W14622  23.742  12.120  11.478
48214W        W14623   4.859  14.320  10.411
48215W        W14624  15.964  39.555   5.030
48216W        W14625  22.559  33.803   3.214
48217W        W14626  14.704  28.798   0.892
48218W        W14627  23.525  40.962  13.003
48219W        W14628  29.633   9.818  11.939
48220W        W14629   4.457  28.386   0.210
48221W        W14630  43.397  17.772  12.544
48222W        W14631  35.860  22.075   0.266
48223W        W14632   3.300  43.572   3.714
48224W        W14633  27.094  23.268   0.437
48225W        W14634  25.972   4.214   0.718
48226W        W14635   4.955   4.874  12.200
48227W        W14636  40.685   5.096   3.454
48228W        W14637   1.778  12.313  13.299
48229W        W14638  43.809  44.452   1.860
48230W        W14639  32.324  36.852   3.739
48231W        W14640   2.233  13.700   5.074
48232W        W14641  11.671  18.918  12.863
48233W        W14642   8.271  32.335   3.249
48234W        W14643  24.508  18.505   1.239
48235W        W14644   0.762  14.170  11.369
48236W        W14645  23.008  10.902   4.435
48237W        W14646  11.402  29.971   3.922
48238W        W14647  33.396  34.557   0.258
48239W        W14648  28.614  27.242   4.106
48240W        W14649  35.096   2.235  13.930
48241W        W14650  13.276  42.299  12.556
48242W        W14651  18.156   8.919   0.543
48243W        W14652  32.693  35.110   0.420
48244W        W14653  39.022   3.430  13.446
48245W        W14654  25.374  30.447  11.181
48246W        W14655  30.523  17.656  11.412
48247W        W14656  38.719   0.548   0.937
48248W        W14657  32.402  11.890   2.949
48249W        W14658  10.393  11.234  11.974
48250W        W14659  32.819   9.129  14.576
48251W        W14660  33.565   5.917  11.172
48252W        W14661  11.282  44.567   3.739
48253W        W14662  28.657   6.516  13.007
48254W        W14663   1.450   5.974  12.793
48255W        W14664  37.918  14.587  11.325
48256W        W14665  37.560  37.410   4.629
48257W        W14666   0.219  44.052   2.171
48258W        W14667  32.702  21.814   1.331
48259W        W14668  18.775  43.416   4.178
48260W        W14669  35.532  38.078  14.642
48261W        W14670   9.159  25.533   2.801
48262W        W14671   4.181  25.731  14.879
48263W        W14672   1.897   7.266  14.987
48264W        W14673  24.691  44.026   4.216
48265W        W14674  31.238   7.340  10.750
48266W        W14675  31.479  16.709  11.677
48267W        W14676  22.867   5.222  13.106
48268W        W14677  16.101  40.912  13.359
48269W        W14678  22.755   4.889   2.803
48270W        W14679  40.550  24.016  11.148
48271W        W14680  25.584  29.038  12.978
48272W        W14681  20.335  38.539   3.313
48273W        W14682  26.179   5.721  10.633
48274W        W14683   8.093  27.960  12.410
48275W        W14684  22.519   9.905  10.750
48276W        W14685  12.543  24.945   3.167
48277W        W14686   9.116   2.506   4.483
48278W        W14687  35.532   1.448   0.163
48279W        W14688  41.709  22.156  10.402
48280W        W14689  15.117  19.023   1.288
48281W        W14690   2.823   6.069   2.353
48282W        W14691  17.801  30.990   0.047
48283W        W14692   7.931  13.686   1.114
48284W        W14693  15.677  24.537   2.146
48285W        W14694  12.868  18.478   0.041
48286W        W14695  28.473  23.393   4.629
48287W        W14696  36.519  29.133  11.012
48288W        W14697  16.521  30.316   1.450
48289W        W14698  14.691   4.482  11.601
48290W        W14699   0.516  30.966   4.119
48291W        W14700  36.015  39.837  13.869
48292W        W14701  32.948  25.100  12.367
48293W        W14702  23.258  38.561   4.660
48294W        W14703  12.124  39.630   3.263
48295W        W14704  19.083  30.821  14.923
48296W        W14705  15.222  17.321  10.354
48297W        W14706  26.474  33.964  11.171
48298W        W14707  42.892  37.890  13.806
48299W        W14708  22.011  31.901  12.950
48300W        W14709  14.542  40.073   2.046
48301W        W14710  38.013  27.032   4.770
48302W        W14711  18.641  34.837   0.192
48303W        W14712   9.330   8.625   3.345
48304W        W14713  30.724  24.561   0.497
48305W        W14714  40.889  41.934   3.759
48306W        W14715  10.312   9.731  11.178
48307W        W14716  27.503  23.963  10.794
48308W        W14717  17.538  24.671  11.548
48309W        W14718  14.676   9.877   3.904
48310W        W14719  34.797  19.536   0.951
48311W        W14720  36.825   8.909  12.152
48312W        W14721  25.915   1.737  12.003
48313W        W14722  27.697  13.290   1.168
48314W        W14723  44.882  36.649   3.570
48315W        W14724  35.891  41.040  13.343
48316W        W14725  17.160  24.276  14.745
48317W        W14726  42.322   2.646  14.897
48318W        W14727   9.580  36.513   5.157
48319W        W14728   9.049  11.649  10.159
48320W        W14729  39.731  35.195   0.341
48321W        W14730  21.121  35.742  11.263
48322W        W14731   3.409  41.442  10.742
48323W        W14732   2.748  20.878   3.261
48324W        W14733  27.504  23.262  12.947
48325W        W14734   6.962  38.851  12.573
48326W        W14735  40.019  37.327  12.651
48327W        W14736  24.927  27.249   1.849
48328W        W14737  38.157  13.891   1.308
48329W        W14738  30.441  25.607   1.179
48330W        W14739  26.566   5.320   1.165
48331W        W14740  34.851  30.115  14.054
48332W        W14741   4.597  16.565   4.503
48333W        W14742  26.579  20.915  10.491
48334W        W14743   3.918  14.967  14.962
48335W        W14744  17.821  16.683  12.447
48336W        W14745  14.189  15.680  13.422
48337W        W14746  17.590  44.833   0.778
48338W        W14747  17.209   3.954  12.899
48339W        W14748   3.402  18.402  10.540
48340W        W14749  32.857  40.906  13.940
48341W        W14750  42.826  36.082  10.621
48342W        W14751  22.197  16.303   2.616
48343W        W14752   7.882  15.349   4.985
48344W        W14753  26.581  41.502   3.733
48345W        W14754  42.340  35.690  14.002
48346W        W14755  30.580  37.540   4.510
48347W        W14756  17.860   9.821  11.506
48348W        W14757  44.170  11.099   3.618
48349W        W14758  38.919  12.251  14.441
48350W        W14759  19.697  29.530   2.861
48351W        W14760  19.531   3.884   0.865
48352W        W14761  23.149   8.509  14.868
48353W        W14762  44.580  30.878  11.260
48354W        W14763   4.335  17.143  13.336
48355W        W14764  35.349  42.805  11.629
48356W        W14765   5.812  11.127   1.869
48357W        W14766  11.817  18.245   3.715
48358W        W14767  32.590  37.980  10.632
48359W        W14768  35.501  28.169   0.816
48360W        W14769  17.649  15.541   0.463
48361W        W14770  31.674  28.977   3.962
48362W        W14771  25.239   4.755   0.395
48363W        W14772   7.075  32.142   1.278
48364W        W14773  43.880  22.569  10.421
48365W        W14774  14.961  28.080   3.353
48366W        W14775  23.215  18.971  11.000
48367W        W14776  40.620  34.482   4.359
48368W        W14777  42.822  26.800  11.281
48369W        W14778  34.461  39.902   3.226
48370W        W14779  25.718  32.732  12.071
48371W        W14780  22.018   4.980   4.327
48372W        W14781  36.046  19.766  12.136
48373W        W14782  30.206  34.646   3.995
48374W        W14783  26.557  35.942  11.144
48375W        W14784  35.977  23.127  12.859
48376W        W14785   7.130  22.176  12.023
48377W        W14786   9.925  35.455   2.909
48378W        W14787  32.202  40.828   4.626
48379W        W14788  44.836  20.211   0.225
48380W        W14789  23.646  30.399  12.858
48381W        W14790  24.441  13.539   1.726
48382W        W14791  20.948  20.437  11.914
48383W        W14792  29.378  43.115  11.582
48384W        W14793  43.302  37.838   4.736
48385W        W14794  44.482  43.390  14.289
48386W        W14795  40.343   6.145   0.360
48387W        W14796  25.517  36.461   2.427
48388W        W14797  38.309  33.390  10.737
48389W        W14798   3.914   1.029  12.290
48390W        W14799  24.879  21.737   1.698
48391W        W14800  29.622  42.023  12.431
48392W        W14801  16.560   4.787   3.149
48393W        W14802  26.044  26.634   5.205
48394W        W14803  35.503  15.756  13.779
48395W        W14804  12.287  33.319  12.066
48396W        W14805  30.508  19.050  13.321
48397W        W14806  27.078   6.365   1.224
48398W        W14807  36.046   2.544  11.390
48399W        W14808  39.609  31.617   0.685
48400W        W14809   8.218  34.542   1.290
48401W        W14810  24.971  37.015   3.762
48402W        W14811   2.491  13.403  12.909
48403W        W14812  33.191  18.808   3.262
48404W        W14813  27.502  34.520  10.670
48405W        W14814  23.866  43.157  14.506
48406W        W14815  19.105   1.967  10.622
48407W        W14816  14.139  41.086  14.785
48408W        W14817  33.129  41.923  11.364
48409W        W14818   3.472   3.904   1.718
48410W        W14819  25.261  25.174   4.837
48411W        W14820  16.777  42.779  13.101
48412W        W14821  24.917  44.423  14.446
48413W        W14822  22.786  15.279   2.485
48414W        W14823  14.443   1.972  14.880
48415W        W14824  43.743  31.715  14.364
48416W        W14825   3.439  14.164   3.909
48417W        W14826  15.810   5.984   1.180
48418W        W14827  14.829  16.336   1.462
48419W        W14828  41.975  28.683  14.456
48420W        W14829  15.067  25.915  11.153
48421W        W14830   6.416  18.776   1.154
48422W        W14831  31.060  28.877  11.735
48423W        W14832   3.477  31.227  11.163
48424W        W14833  28.683  19.978   2.208
48425W        W14834   1.386  35.532  14.737
48426W        W14835  31.686  30.367  13.106
48427W        W14836  27.509  43.895  13.465
48428W        W14837  26.466  35.430   4.285
48429W        W14838  38.870  31.823  12.025
48430W        W14839  43.075   1.402  13.562
48431W        W14840  44.780  10.524   5.026
48432W        W14841  35.149  15.552  10.650
48433W        W14842   4.987  13.472   0.881
48434W        W14843  12.236  17.985  12.035
48435W        W14844   4.425  15.848   1.238
48436W        W14845  24.580  16.662   3.855
48437W        W14846  39.999  19.193  12.876
48438W        W14847   0.008   1.571   0.260
48439W        W14848  24.633  34.415   3.759
48440W        W14849   3.672  39.878  10.682
48441W        W14850  27.958  39.476  10.260
48442W        W14851  19.773  34.871  11.938
48443W        W14852  21.313  31.614   0.288
48444W        W14853  28.709  33.025  12.961
48445W        W14854  33.323  20.297  11.164
48446W        W14855  22.661  26.515   5.021
48447W        W14856  31.331  23.228   2.726
48448W        W14857  17.559  34.366  12.954
48449W        W14858  14.812  14.820  13.100
48450W        W14859  14.295   2.912  10.432
48451W        W14860  42.286  35.963  14.450
48452W        W14861  33.624  33.397  14.457
48453W        W14862  39.313   8.694   0.339
48454W        W14863   3.973   8.606  12.415
48455W        W14864  25.232   9.875  12.928
48456W        W14865   0.325  12.323  10.272
48457W        W14866  27.465  38.627   2.240
48458W        W14867  23.271  41.330   1.869
48459W        W14868  39.768  30.668  13.618
48460W        W14869  33.027  32.727  14.316
48461W        W14870  39.847  42.828  10.427
48462W        W14871  29.537  38.075   1.356
48463W        W14872  31.791   1.440   3.732
48464W        W14873   1.798  32.949  14.711
48465W        W14874  35.201  38.607  13.805
48466W        W14875  17.541  26.759   2.066
48467W        W14876   5.925  39.790   4.659
48468W        W14877  30.726  13.829  11.479
48469W        W14878  27.299  34.490  11.141
48470W        W14879  33.365  30.577   2.669
48471W        W14880  21.603  32.353  10.812
48472W        W14881  31.914   3.860   1.344
48473W        W14882  19.999  43.296   4.665
48474W        W14883   3.875  35.946   0.709
48475W        W14884   1.820   9.430   2.811
48476W        W14885  15.153  34.822   4.169
48477W        W14886  36.484  15.638  14.479
48478W        W14887   1.032  14.003   1.825
48479W        W14888  24.015   9.712   3.794
48480W        W14889  37.084  19.732  12.525
48481W        W14890  33.869  37.597   4.189
48482W        W14891  26.059  22.471  12.109
48483W        W14892  30.226   6.857   4.794
48484W        W14893  42.886   3.464   0.807
48485W        W14894  36.587  37.340  14.768
48486W        W14895  32.148  20.171  10.603
48487W        W14896  24.366   1.615   3.751
48488W        W14897   2.800  44.333  13.472
48489W        W14898  13.145   4.436   1.911
48490W        W14899  14.503  43.395   0.413
48491W        W14900  34.798   5.268  13.417
48492W        W14901  17.205  24.790  14.808
48493W        W14902  22.747   8.876  12.476
48494W        W14903  20.841  34.383   2.289
48495W        W14904  33.552   5.866   0.330
48496W        W14905  26.958  14.714   0.836
48497W        W14906  35.890  28.145   0.133
48498W        W14907  38.804  22.947  11.510
48499W        W14908  18.825  31.102   3.286
48500W        W14909  19.091  18.669   4.408
48501W        W14910  36.150  43.058  11.128
48502W        W14911  17.868   3.501  10.716
48503W        W14912  13.268  42.928   3.208
48504W        W14913  12.731  35.068   3.283
48505W        W14914  25.650  33.930  13.804
48506W        W14915  12.556  23.967   3.350
48507W        W14916   0.213  42.467  13.651
48508W        W14917  30.916  39.286  12.566
48509W        W14918   9.088  38.019  10.763
48510W        W14919  38.117   9.913  12.394
48511W        W14920  10.921  38.834  14.958
48512W        W14921  23.019  27.592  14.935
48513W        W14922  44.461  12.310   0.780
48514W        W14923  19.292  25.519   3.654
48515W        W14924  30.923  16.188  12.414
48516W        W14925  18.240  43.765   3.605
48517W        W14926   2.422  25.134  10.812
48518W        W14927  24.112   7.487   1.629
48519W        W14928  32.372   2.090  14.220
48520W        W14929  31.694  32.624   1.208
48521W        W14930   6.386  11.578  10.789
48522W        W14931   5.625   8.914   1.514
48523W        W14932   7.904   2.898   4.162
48524W        W14933  19.896  19.289  14.966
48525W        W14934   1.674  35.941  14.860
48526W        W14935   2.444  33.548   1.734
48527W        W14936  32.406  23.042   3.367
48528W        W14937  15.924  43.369  12.430
48529W        W14938   0.467  21.443  12.407
48530W        W14939   2.561  37.311   0.587
48531W        W14940   5.431   7.516   4.579
48532W        W14941  44.635  41.935  12.105
48533W        W14942  22.563  11.667  14.456
48534W        W14943  18.379  21.035  13.970
48535W        W14944   1.521  33.088  13.336
48536W        W14945  43.278  29.250  14.995
48537W        W14946   7.762  21.521   1.781
48538W        W14947   8.334  15.951   2.495
48539W        W14948  16.866  39.492  11.606
48540W        W14949  24.163   6.312   0.861
48541W        W14950  13.006  40.289   2.374
48542W        W14951  11.586  34.776  14.277
48543W        W14952  22.172  30.482   1.240
48544W        W14953   1.809  30.548   0.735
48545W        W14954   3.104  41.875   1.959
48546W        W14955   8.399  42.994   2.750
48547W        W14956   4.442   1.729  13.886
48548W        W14957  25.597  35.934   2.303
48549W        W14958  30.754  35.787  12.041
48550W        W14959  10.246  35.216  10.680
48551W        W14960  34.133  44.268  10.735
48552W        W14961  40.371   3.142  11.227
48553W        W14962   5.243  39.172  12.451
48554W        W14963  36.910   6.466   4.102
48555W        W14964  29.947  41.903  13.371
48556W        W14965  26.649   7.272   1.432
48557W        W14966  16.967  18.626  11.998
48558W        W14967  32.609  41.552  13.823
48559W        W14968  18.982   9.949  13.840
48560W        W14969  39.924  14.674   2.222
48561W        W14970  44.760  33.442  11.274
48562W        W14971   7.397  18.700  10.750
48563W        W14972   0.410  26.609  13.130
48564W        W14973   5.426  15.160  10.621
48565W        W14974  22.638  29.429  11.721
48566W        W14975  17.278  22.186   3.662
48567W        W14976  23.219  33.438  14.290
48568W        W14977  38.950  28.863   1.438
48569W        W14978   7.648   9.653   1.917
48570W        W14979   7.760   6.756  10.867
48571W        W14980  34.820  14.867   3.376
48572W        W14981  37.895  29.461  14.239
48573W        W14982   3.067   2.387   4.236
48574W        W14983  24.359  14.398   1.332
48575W        W14984  30.646  37.770  11.183
48576W        W14985   2.939  22.936  12.186
48577W        W14986  10.098  12.179   2.181
48578W        W14987  15.190  12.858  13.329
48579W        W14988  27.855  24.940  11.622
48580W        W14989  44.403  35.914   1.364
48581W        W14990  33.280  15.293  13.769
48582W        W14991  39.383  19.035   3.730
48583W        W14992  13.368  42.815  11.011
48584W        W14993   8.607  34.049   4.782
48585W        W14994  27.101  27.946  10.383
48586W        W14995   0.384  21.741  14.366
48587W        W14996   4.523   4.736   1.863
48588W        W14997   5.400  26.120  10.773
48589W        W14998  13.874  16.789   0.477
48590W        W14999  25.505  34.144  11.550
48591W        W15000  27.974  27.403   1.276
48592W        W15001  40.323  41.577   3.622
48593W        W15002  13.094  31.903  11.436
48594W        W15003  25.717  42.002  14.405
48595W        W15004  15.036  36.307   4.994
48596W        W15005  20.245  35.622   1.338
48597W        W15006   7.591   0.107   4.480
48598W        W15007  16.126  25.511  12.491
48599W        W15008   2.038  27.505  14.286
48600W        W15009  16.800  23.976  11.614
48601W        W15010  29.617   9.834  13.039
48602W        W15011  20.992   7.249   1.788
48603W        W15012  40.470   0.101  14.402
48604W        W15013  26.895   0.308  13.958
48605W        W15014  17.663   2.458  11.607
48606W        W15015  11.902  23.522  11.065
48607W        W15016   9.123   4.024   0.144
48608W        W15017   1.520  22.314   2.350
48609W        W15018  31.875   9.876   4.129
48610W        W15019  43.020  15.502   4.170
48611W        W15020  29.419   2.875   5.712
48612W        W15021   4.921   2.634   5.020
48613W        W15022  19.884  25.139   4.904
48614W        W15023  35.787  30.389  11.066
48615W        W15024  42.809  13.368  13.891
48616W        W15025  17.556  11.819   3.633
48617W        W15026   2.354  19.312   2.855
48618W        W15027  29.874  41.387   3.663
48619W        W15028  18.352   5.497  10.145
48620W        W15029  31.415   5.941  14.470
48621W        W15030  16.247  28.429   4.831
48622W        W15031  43.300  23.093  13.851
48623W        W15032  25.663  44.052   0.367
48624W        W15033  42.287   3.918  13.103
48625W        W15034  40.442   4.138  11.209
48626W        W15035  23.287  35.470  14.955
48627W        W15036  18.986  44.022   2.346
48628W        W15037   1.799  36.566   2.342
48629W        W15038  25.947  24.609  13.602
48630W        W15039  14.360  41.971   4.604
48631W        W15040  21.537  39.010   3.647
48632W        W15041  38.430  41.979   0.419
48633W        W15042   2.911  22.680   2.649
48634W        W15043  27.930  11.122  10.964
48635W        W15044  38.969  29.095  13.402
48636W        W15045  16.590  39.633   0.865
48637W        W15046  27.635  43.373   1.399
48638W        W15047  32.152  43.211  14.392
48639W        W15048  26.973   8.747   1.424
48640W        W15049   2.281  29.954  13.362
48641W        W15050  12.722   5.193  11.969
48642W        W15051  22.475  44.465   2.310
48643W        W15052   3.697   0.470  10.778
48644W        W15053  32.938   5.758   2.001
48645W        W15054  42.196  19.000  12.457
48646W        W15055   2.143   5.283  12.067
48647W        W15056  18.519  23.075   0.537
48648W        W15057   2.388  28.710  12.312
48649W        W15058  12.367  14.130  11.043
48650W        W15059  17.925  36.163   0.289
48651W        W15060   2.493  11.223  12.123
48652W        W15061  29.069  29.495   1.991
48653W        W15062   5.117  26.101   2.244
48654W        W15063  38.608   5.774  13.760
48655W        W15064  37.501  26.200  12.106
48656W        W15065  11.533  35.526   1.376
48657W        W15066  37.374  36.659  12.598
48658W        W15067  30.033  13.291  11.319
48659W        W15068  14.586  11.471  12.101
48660W        W15069   2.710   1.040   3.231
48661W        W15070  41.830  27.152  14.215
48662W        W15071  15.132  39.727  12.067
48663W        W15072   4.702  32.192  13.913
48664W        W15073  21.249  12.733  12.541
48665W        W15074  27.455  23.569  13.364
48666W        W15075   8.263  10.103   4.487
48667W        W15076   8.927  22.544   2.764
48668W        W15077  38.341  40.506  10.369
48669W        W15078  12.942  39.018  11.208
48670W        W15079  22.662  16.215   1.232
48671W        W15080  33.140  30.037  14.463
48672W        W15081   8.424  27.502   3.213
48673W        W15082  20.068  28.631  10.942
48674W        W15083  41.833  10.927   1.870
48675W        W15084  40.758  32.330   4.462
48676W        W15085  17.173  12.307  12.022
48677W        W15086  31.559  43.967  11.942
48678W        W15087  20.743   1.281   3.814
48679W        W15088  21.128  34.133  12.554
48680W        W15089  30.320   3.057   4.019
48681W        W15090  32.966  20.589   0.081
48682W        W15091  26.374  25.322   3.179
48683W        W15092  15.746  26.483  11.650
48684W        W15093  30.623  37.547   2.233
48685W        W15094  14.795  34.923  14.367
48686W        W15095   6.872  27.641  13.667
48687W        W15096   5.379  21.031   1.630
48688W        W15097  32.524  26.209   4.093
48689W        W15098  37.330  19.790  12.080
48690W        W15099  22.215  25.097  12.008
48691W        W15100  30.985  11.902  10.699
48692W        W15101   2.228  20.013   4.306
48693W        W15102   3.197   4.249   3.802
48694W        W15103  23.273  42.851   4.437
48695W        W15104   4.678  25.560  10.501
48696W        W15105  42.356  10.307   1.726
48697W        W15106  42.775  20.841   0.471
48698W        W15107  36.366  26.054   3.586
48699W        W15108  28.181  36.301  10.430
48700W        W15109  13.352  26.076   0.322
48701W        W15110  40.817  12.698  12.486
48702W        W15111  22.826  27.356  13.602
48703W        W15112  29.587   4.157   4.147
48704W        W15113  37.112  22.845  14.217
48705W        W15114  38.898  17.005  10.127
48706W        W15115   7.347  39.521   4.612
48707W        W15116  22.600  33.826  10.746
48708W        W15117  14.078  43.286   1.280
48709W        W15118  20.076  37.686   1.159
48710W        W15119  20.462  29.883  11.143
48711W        W15120  31.409  37.087  13.644
48712W        W15121  22.897  42.241  13.284
48713W        W15122   3.655  39.102   3.692
48714W        W15123  39.918  25.593   4.154
48715W        W15124  22.180  27.494  14.493
48716W        W15125  34.628  38.442   0.048
48717W        W15126  44.921   6.497  14.387
48718W        W15127   1.456  37.946   1.769
48719W        W15128  37.925  22.142   4.378
48720W        W15129  16.704  28.649   3.688
48721W        W15130   6.685  25.427  12.554
48722W        W15131  35.504   6.261   2.892
48723W        W15132  19.573  22.936   2.557
48724W        W15133  20.028  20.170  10.639
48725W        W15134  23.553  38.517   0.214
48726W        W15135  40.245  32.386   1.561
48727W        W15136  10.680  15.555   1.245
48728W        W15137  14.585  34.838  13.033
48729W        W15138  18.244   5.675   0.342
48730W        W15139  42.798  15.665  14.082
48731W        W15140   4.895  14.574   2.372
48732W        W15141  42.500  41.998   2.659
48733W        W15142  38.256  17.195  13.885
48734W        W15143  24.181   9.564  12.962
48735W        W15144  33.165  21.508  14.733
48736W        W15145  13.138  11.154  12.150
48737W        W15146  33.435  42.898  11.769
48738W        W15147  31.024  25.894   4.337
48739W        W15148  18.978  21.655  13.515
48740W        W15149  32.795  44.427  14.865
48741W        W15150  12.403  16.855   4.958
48742W        W15151  38.334   5.446  10.789
48743W        W15152   0.973   9.201  12.872
48744W        W15153  33.494  15.323   1.390
48745W        W15154   6.468  13.167  11.165
48746W        W15155   7.387  38.945   1.409
48747W        W15156   7.684  20.565   3.421
48748W        W15157   6.207  32.941   3.726
48749W        W15158  31.209   9.907  10.645
48750W        W15159  42.511  43.515  11.531
48751W        W15160  10.622  44.127  14.895
48752W        W15161  31.412   8.998  13.560
48753W        W15162  21.033  26.240   2.183
48754W        W15163   5.404  13.617  14.100
48755W        W15164  29.424  24.905   3.237
48756W        W15165  28.029  35.677  10.748
48757W        W15166  23.432  38.845   2.321
48758W        W15167  19.002   4.978  10.724
48759W        W15168   0.366  18.621  12.179
48760W        W15169  12.987   0.936  14.162
48761W        W15170  13.847  36.068   3.229
48762W        W15171  26.034  43.298  11.467
48763W        W15172   7.601  15.723  13.052
48764W        W15173  20.794  19.598  12.547
48765W        W15174  24.010  29.532   0.300
48766W        W15175  23.461  35.982  11.143
48767W        W15176  31.536  14.652   4.631
48768W        W15177  14.327  25.577   3.139
48769W        W15178  11.113  16.194   3.297
48770W        W15179  14.648  27.419   0.436
48771W        W15180  34.810  18.346  13.797
48772W        W15181  41.234  14.832   1.673
48773W        W15182  20.787  22.186  12.092
48774W        W15183  20.575  40.844  12.448
48775W        W15184  32.420  38.031   4.457
48776W        W15185   1.412  35.102   0.289
48777W        W15186  40.451  32.434   9.977
48778W        W15187  12.201  14.589  11.965
48779W        W15188  36.571   7.199  13.815
48780W        W15189  38.572   8.242  12.143
48781W        W15190  29.433  14.722  14.537
48782W        W15191  33.065   5.646   0.443
48783W        W15192   8.669  22.607  12.511
48784W        W15193   9.210  19.282   4.280
48785W        W15194  11.231  42.029   1.725
48786W        W15195   4.994   3.599   3.680
48787W        W15196  42.324   0.447   2.340
48788W        W15197  28.373  22.541   0.951
48789W        W15198  32.522  27.100  11.598
48790W        W15199  31.175  17.272   2.168
48791W        W15200   9.472  30.232  10.073
48792W        W15201   7.350   4.836   0.185
48793W        W15202   9.345  34.466   4.630
48794W        W15203  24.175  36.566  12.788
48795W        W15204   4.410  26.901   2.178
48796W        W15205   0.991   9.634   0.890
48797W        W15206   3.548   6.780  12.899
48798W        W15207  23.574  43.271  11.156
48799W        W15208   2.171  14.008  11.635
48800W        W15209  12.708  10.938   4.595
48801W        W15210  38.077   3.417  12.460
48802W        W15211  14.671  36.609   9.793
48803W        W15212  23.167  24.732   0.508
48804W        W15213  10.756  29.148   1.914
48805W        W15214   2.446  42.878   4.932
48806W        W15215  17.265  43.480   2.819
48807W        W15216  23.596  26.335  14.383
48808W        W15217  10.827  10.270   3.529
48809W        W15218  25.560  27.464   0.888
48810W        W15219  36.074  27.989  10.755
48811W        W15220   7.010   0.919  14.839
48812W        W15221  22.265   2.667  13.370
48813W        W15222   7.971   9.348  12.829
48814W        W15223  39.825  29.589   4.656
48815W        W15224  32.563  17.596   4.299
48816W        W15225  31.011  25.681   0.503
48817W        W15226  16.768  34.936  14.022
48818W        W15227   8.704   5.925   0.839
48819W        W15228  32.831   5.072  11.116
48820W        W15229  37.236  35.688  14.851
48821W        W15230  44.203  42.664  10.315
48822W        W15231  32.617  27.419   4.479
48823W        W15232  43.113  28.395  11.724
48824W        W15233  25.001  44.510   0.862
48825W        W15234   9.361  40.478  11.485
48826W        W15235  13.469  42.566  12.076
48827W        W15236  12.361  23.572  13.989
48828W        W15237  14.640  10.170  11.038
48829W        W15238  20.265  13.082   3.849
48830W        W15239  20.265  27.129   3.630
48831W        W15240   1.106  27.632  13.061
48832W        W15241  28.602   3.237  10.664
48833W        W15242  43.897  22.979  12.264
48834W        W15243  42.332  24.746  12.975
48835W        W15244  37.380  42.761   0.636
48836W        W15245  40.452  22.718  11.966
48837W        W15246   0.796  39.377  12.894
48838W        W15247  41.374   1.310   4.838
48839W        W15248  16.649  43.996   2.299
48840W        W15249  20.108  18.963   2.442
48841W        W15250  21.236  28.222  11.945
48842W        W15251  29.453  35.505   2.773
48843W        W15252  36.318  19.188   0.293
48844W        W15253   6.641  10.761  12.134
48845W        W15254  15.547  42.439   0.418
48846W        W15255  26.656  23.585   1.415
48847W        W15256   6.607   1.339  10.724
48848W        W15257  40.079  27.085  12.480
48849W        W15258  14.776  16.046  10.609
48850W        W15259  27.992   1.814  12.921
48851W        W15260  16.839  42.999   2.110
48852W        W15261   2.960  11.339  12.405
48853W        W15262  14.534  21.314   0.037
48854W        W15263   6.930  13.613  10.751
48855W        W15264  27.644  43.318  14.470
48856W        W15265  33.530  23.541   4.351
48857W        W15266  12.159  32.102   4.186
48858W        W15267  21.271   9.450   4.350
48859W        W15268  22.772  24.730  14.543
48860W        W15269  43.399   2.302   3.163
48861W        W15270  25.544   4.649   2.643
48862W        W15271  29.383  37.070   1.894
48863W        W15272  35.289  11.758  11.174
48864W        W15273  26.907  40.028  10.735
48865W        W15274  42.039  30.648   3.786
48866W        W15275  33.384   2.212  14.923
48867W        W15276  36.862   0.745   4.530
48868W        W15277  43.662  12.114   0.458
48869W        W15278  24.738  20.698   3.664
48870W        W15279  42.980   0.564  13.071
48871W        W15280  44.373  21.891   3.602
48872W        W15281   3.753  34.766  14.123
48873W        W15282  44.096   3.937   4.825
48874W        W15283  42.524  38.506   1.144
48875W        W15284  20.544  28.562  13.042
48876W        W15285  18.825  11.752   2.304
48877W        W15286  27.077   3.922   2.769
48878W        W15287   4.869  13.779   2.807
48879W        W15288  43.091  12.940   3.598
48880W        W15289   8.803  21.745  11.539
48881W        W15290  26.940  17.522  12.051
48882W        W15291   4.479   9.719   0.846
48883W        W15292  12.157  14.174   3.693
48884W        W15293  13.192   4.816   2.279
48885W        W15294   1.857   8.700  11.353
48886W        W15295  15.538  20.250  14.239
48887W        W15296  39.087  14.278   4.833
48888W        W15297  37.034  17.489   3.063
48889W        W15298  22.398   7.066   5.175
48890W        W15299  38.401  12.830  10.944
48891W        W15300   5.264  30.718  13.000
48892W        W15301  27.187   4.819   3.626
48893W        W15302  36.550  17.165  10.732
48894W        W15303  41.639  34.561   4.169
48895W        W15304  27.092  24.458   4.008
48896W        W15305  35.452  29.375   1.432
48897W        W15306  29.973  15.834  11.121
48898W        W15307  16.316  15.849   1.088
48899W        W15308  25.632  12.701  10.415
48900W        W15309  13.726   3.551   1.235
48901W        W15310  29.437   9.561  13.450
48902W        W15311  17.452  41.934   2.432
48903W        W15312  24.112  33.945   3.241
48904W        W15313  22.583  20.571   0.012
48905W        W15314  26.627  13.257   4.463
48906W        W15315  29.977   6.783   2.825
48907W        W15316   4.706  25.073   2.488
48908W        W15317  35.307  37.616  14.364
48909W        W15318  18.781  32.574  13.353
48910W        W15319  28.386  10.390   2.850
48911W        W15320  15.489   1.084  10.734
48912W        W15321  15.761  41.006  11.371
48913W        W15322  42.316  34.501  13.345
48914W        W15323  44.827  14.086   1.041
48915W        W15324  39.577  19.081  11.937
48916W        W15325  15.127  34.597   0.377
48917W        W15326  39.510  34.523  13.309
48918W        W15327  13.369  12.526   2.404
48919W        W15328  25.525  32.949  13.561
48920W        W15329  23.976   4.999   1.740
48921W        W15330  19.772   5.248  12.420
48922W        W15331  13.280   3.736   1.449
48923W        W15332  14.391   0.687   2.945
48924W        W15333  39.827   9.044   4.080
48925W        W15334  34.893  12.328   3.212
48926W        W15335  25.086  15.526   4.189
48927W        W15336  28.606  22.514  10.976
48928W        W15337   8.514  33.126   3.557
48929W        W15338  42.342  39.073   1.321
48930W        W15339  31.242  36.018  12.016
48931W        W15340  36.053  33.550   1.307
48932W        W15341  26.543  41.807   2.873
48933W        W15342  16.375   6.187   2.886
48934W        W15343  23.009  23.583   1.256
48935W        W15344  25.981   5.959   0.914
48936W        W15345   2.097   2.038   0.324
48937W        W15346  24.936   5.202   3.187
48938W        W15347  13.653  10.138   3.300
48939W        W15348  29.508  10.703   4.823
48940W        W15349  38.418  43.141   0.932
48941W        W15350  43.277  17.059   1.432
48942W        W15351  17.640  15.799   2.138
48943W        W15352   8.591  24.212   2.334
48944W        W15353  32.732  16.258  13.547
48945W        W15354  11.321  13.192  12.814
48946W        W15355   6.965  20.657   4.574
48947W        W15356   9.339  16.572  11.248
48948W        W15357  24.526   8.925   4.174
48949W        W15358   3.741  24.145  10.192
48950W        W15359  36.552   9.494  14.374
48951W        W15360  23.137  30.831   1.226
48952W        W15361  43.308  43.487   4.279
48953W        W15362  33.975  41.292   2.751
48954W        W15363  34.097  18.733   3.235
48955W        W15364   8.962   6.621  11.114
48956W        W15365   8.193   8.818   4.604
48957W        W15366  28.148  43.418   2.618
48958W        W15367   8.256  21.784   1.737
48959W        W15368   9.475  39.835   4.235
48960W        W15369  43.313  28.658   2.905
48961W        W15370  10.008  38.580  10.206
48962W        W15371  41.728  27.944  10.726
48963W        W15372   6.008  30.975   0.277
48964W        W15373  35.175  44.863  13.570
48965W        W15374  20.037  33.338   4.504
48966W        W15375  24.996  13.212   1.209
48967W        W15376  39.378  25.207   2.339
48968W        W15377   0.458  36.979  13.522
48969W        W15378  22.650   1.855  10.090
48970W        W15379   0.376  32.515  13.385
48971W        W15380   7.987  14.322  14.860
48972W        W15381   5.579  11.966   3.174
48973W        W15382  41.779  43.743  11.907
48974W        W15383  36.235  22.964  13.647
48975W        W15384   3.957  30.564  14.385
48976W        W15385  25.588   9.310   1.766
48977W        W15386   6.917   2.709   3.263
48978W        W15387  12.597  24.653  11.893
48979W        W15388  44.917   6.101   3.627
48980W        W15389  33.671  23.309  13.240
48981W        W15390   6.242  28.150   1.122
48982W        W15391  20.094  12.098   4.859
48983W        W15392  30.697  13.311  10.773
48984W        W15393   9.737   2.838  12.102
48985W        W15394  15.392  37.331  14.827
48986W        W15395  31.497  38.944  10.580
48987W        W15396  14.266  28.125   2.566
48988W        W15397  12.807  26.569   3.608
48989W        W15398  16.233  16.076   2.649
48990W        W15399  25.002   3.212   1.009
48991W        W15400  21.247  24.013  14.182
48992W        W15401   0.245  42.917   4.319
48993W        W15402  40.895  16.185  12.544
48994W        W15403  28.257  32.366   4.589
48995W        W15404  10.138  39.440  13.330
48996W        W15405  37.471  22.528  12.504
48997W        W15406  16.349  27.124  13.377
48998W        W15407  24.587  37.383  12.953
48999W        W15408  17.020  24.547   1.949
49000W        W15409  15.290   9.378  14.835
49001W        W15410  35.500   6.366  13.085
49002W        W15411  42.848  17.259   2.366
49003W        W15412  44.359  23.802  13.927
49004W        W15413  30.992   5.125  14.588
49005W        W15414  33.282  19.195   2.071
49006W        W15415  21.296  36.169   0.345
49007W        W15416  21.007  44.328  10.269
49008W        W15417  31.671  17.249   4.052
49009W        W15418  28.640  31.504   3.309
49010W        W15419   5.856   6.264   3.044
49011W        W15420  10.358   0.921   3.114
49012W        W15421  29.571  29.875  14.871
49013W        W15422  20.616  32.896   3.390
49014W        W15423  10.133   3.657  10.768
49015W        W15424  30.742  34.685  13.932
49016W        W15425  13.600  12.879   2.730
49017W        W15426  42.307  29.171   3.627
49018W        W15427   4.961  30.919  14.509
49019W        W15428  11.344  17.210  10.618
49020W        W15429   3.315  12.084   3.867
49021W        W15430   5.845  37.920  14.456
49022W        W15431  33.327  41.042   2.287
49023W        W15432  25.142  24.987  14.806
49024W        W15433  23.966  26.581   4.563
49025W        W15434  19.759  42.157   4.096
49026W        W15435   5.515   8.784  12.379
49027W        W15436   4.427   5.947  13.006
49028W        W15437  27.932  16.269   3.212
49029W        W15438  28.404  38.197  12.004
49030W        W15439   2.259   0.340  11.033
49031W        W15440  23.501   0.505  12.570
49032W        W15441   8.396  12.564   2.872
49033W        W15442  38.876  14.271  12.965
49034W        W15443  28.268   7.882  14.867
49035W        W15444  12.336  11.633  11.053
49036W        W15445  38.018   2.633   1.475
49037W        W15446  24.945  12.771   1.478
49038W        W15447  25.376   0.252  12.472
49039W        W15448  40.833  17.500  14.417
49040W        W15449  26.132  16.230  14.323
49041W        W15450  30.454  39.619   1.880
49042W        W15451  34.916  24.698   3.688
49043W        W15452  18.081  17.553  10.696
49044W        W15453  28.843  43.468   2.187
49045W        W15454   4.695  18.027   3.544
49046W        W15455  36.972  43.820  14.924
49047W        W15456  21.684  24.734   0.211
49048W        W15457  18.007  23.675   2.703
49049W        W15458  34.460   0.807   2.163
49050W        W15459  26.716  26.167  14.809
49051W        W15460   9.844   6.351   4.896
49052W        W15461  10.641   4.135   3.489
49053W        W15462  21.854  42.537   2.260
49054W        W15463   3.449   5.857   4.619
49055W        W15464  23.032  25.276   2.371
49056W        W15465  16.915  29.625  13.545
49057W        W15466  18.334  43.796  14.345
49058W        W15467   3.473  22.030   4.610
49059W        W15468   7.645  21.625  12.847
49060W        W15469  16.742   6.692  11.611
49061W        W15470   3.207  32.063   2.601
49062W        W15471   0.914  31.415  10.598
49063W        W15472  41.809  29.415   2.847
49064W        W15473  21.755  28.196  14.889
49065W        W15474  21.012  40.193  11.988
49066W        W15475  12.180  33.948   3.530
49067W        W15476  17.939  22.226   4.581
49068W        W15477  16.184  43.420  11.161
49069W        W15478   4.548  39.011   0.468
49070W        W15479  11.042  35.827  14.873
49071W        W15480  25.039  12.791  14.928
49072W        W15481  30.676  43.944   2.277
49073W        W15482  30.346  18.853   3.814
49074W        W15483  12.357  28.767   4.906
49075W        W15484  25.759  12.892   2.602
49076W        W15485   0.738   4.461   0.380
49077W        W15486  13.842   0.386  14.298
49078W        W15487   4.917  14.068   3.252
49079W        W15488  15.064  14.664   1.695
49080W        W15489  39.400   1.285   4.376
49081W        W15490   8.311  34.990   1.524
49082W        W15491  41.327  31.893   0.976
49083W        W15492  26.117  43.456  10.974
49084W        W15493   8.888  24.164   0.053
49085W        W15494  38.726   5.474  12.002
49086W        W15495  32.489  17.318  14.060
49087W        W15496  28.589  22.475   2.225
49088W        W15497  32.849  30.476  12.501
49089W        W15498  40.895  19.817  13.549
49090W        W15499  24.857  28.938   3.958
49091W        W15500  11.923  42.409  12.842
49092W        W15501  44.027  38.045   2.053
49093W        W15502  10.881  25.469  14.914
49094W        W15503  25.467  14.064   0.276
49095W        W15504  21.825  31.660   0.163
49096W        W15505  21.798   3.241   3.791
49097W        W15506  11.230  24.004  12.229
49098W        W15507   1.122  19.580   1.887
49099W        W15508  15.858  21.438   0.890
49100W        W15509  39.832   8.288   1.821
49101W        W15510  37.861   3.308   2.753
49102W        W15511  17.599  26.019  13.524
49103W        W15512  32.678  19.944   1.412
49104W        W15513  10.122  22.748  10.492
49105W        W15514  12.272  28.959   2.181
49106W        W15515  33.224  33.418  14.842
49107W        W15516  40.105  30.434  12.672
49108W        W15517  34.384  12.900   1.806
49109W        W15518  13.580  32.507   3.784
49110W        W15519  43.978  28.785   2.262
49111W        W15520  10.772  24.248  14.484
49112W        W15521  44.906  33.760  14.385
49113W        W15522  32.374  42.728   1.751
49114W        W15523  44.140  38.473   9.968
49115W        W15524  24.913  10.270   1.566
49116W        W15525   4.823  19.310  11.932
49117W        W15526  16.290   2.325  13.595
49118W        W15527  25.485  30.604  12.091
49119W        W15528  12.190   6.795   1.720
49120W        W15529  12.624   1.983   3.183
49121W        W15530  42.363  35.629   1.241
49122W        W15531  18.985  25.675   1.860
49123W        W15532  22.648  12.741  11.358
49124W        W15533  30.216   9.467   5.088
49125W        W15534  15.435  14.387   0.386
49126W        W15535  24.813  18.198  14.319
49127W        W15536  21.245  34.678   2.420
49128W        W15537   4.170  39.006  13.363
49129W        W15538  18.268  18.065   3.069
49130W        W15539   3.675  37.844  10.740
49131W        W15540  28.505  33.572  14.511
49132W        W15541  25.231   5.749   1.303
49133W        W15542   1.953  26.629   2.100
49134W        W15543  39.868  19.225   3.625
49135W        W15544  44.485  12.329   3.349
49136W        W15545  28.440  40.377   0.022
49137W        W15546   4.178  44.924  14.456
49138W        W15547   2.954  29.084  10.555
49139W        W15548   1.086  14.667   0.632
49140W        W15549   1.917  40.784  12.320
49141W        W15550   8.377  35.583  12.912
49142W        W15551  25.223  33.021  12.604
49143W        W15552  24.704  30.791  12.372
49144W        W15553  33.180  43.582   4.109
49145W        W15554  34.917  26.813   0.825
49146W        W15555  38.385  27.005   3.870
49147W        W15556  35.958  44.278  11.600
49148W        W15557  18.617   5.938   2.976
49149W        W15558  29.917  35.278   2.783
49150W        W15559  22.585  22.542   3.731
49151W        W15560  39.618   1.799  13.718
49152W        W15561   4.318  15.325  14.814
49153W        W15562  28.062  36.825   4.065
49154W        W15563  13.325  38.670  11.190
49155W        W15564   8.049  31.116   1.502
49156W        W15565  27.196  11.650  11.543
49157W        W15566  17.141  36.787   1.829
49158W        W15567  11.300  32.983  14.778
49159W        W15568  38.901  41.880  11.446
49160W        W15569  19.211  27.484   4.881
49161W        W15570   1.412   7.270   3.284
49162W        W15571  42.293   0.410  13.827
49163W        W15572  19.596  22.539   1.404
49164W        W15573  17.441  20.791  12.132
49165W        W15574  11.044  35.604   1.246
49166W        W15575  40.467  10.354  12.993
49167W        W15576   2.775  17.252   3.215
49168W        W15577  35.804   8.848  11.584
49169W        W15578   8.044  13.049  13.887
49170W        W15579  31.207  10.673   4.601
49171W        W15580  42.171  11.840   4.434
49172W        W15581  36.963  27.246   4.559
49173W        W15582   5.221  14.957   2.374
49174W        W15583  19.255  35.876   3.053
49175W        W15584  22.128  23.393   2.028
49176W        W15585   4.672  20.029   1.412
49177W        W15586  16.623   6.659  14.352
49178W        W15587   3.740   7.073  10.855
49179W        W15588  27.623  35.962   0.720
49180W        W15589  35.883  31.987   3.087
49181W        W15590   5.667  26.324   2.177
49182W        W15591  32.342   7.152   0.965
49183W        W15592  39.632  34.489   2.312
49184W        W15593  33.954  25.663  12.108
49185W        W15594  21.577  14.503   2.896
49186W        W15595  31.681  44.701  14.059
49187W        W15596   2.682  21.212  12.950
49188W        W15597  38.327  24.255  12.913
49189W        W15598  24.459   6.161  10.840
49190W        W15599   9.722  40.075  14.356
49191W        W15600   8.632  11.207   3.701
49192W        W15601  22.738  19.834  13.492
49193W        W15602  23.255  30.712  12.516
49194W        W15603  17.493  21.007   5.042
49195W        W15604   8.724  42.869  14.463
49196W        W15605   2.347  39.513   2.905
49197W        W15606  31.963   6.048  14.942
49198W        W15607  27.681  22.059  10.709
49199W        W15608  12.578  31.927  10.990
49200W        W15609  23.071  37.440  13.502
49201W        W15610   9.625  28.313   3.496
49202W        W15611  44.165  39.731  13.876
49203W        W15612   0.012   9.988   3.419
49204W        W15613  25.744   2.842  13.991
49205W        W15614  20.840  34.580   1.694
49206W        W15615  11.744  12.380   1.719
49207W        W15616   2.300  14.809   3.785
49208W        W15617  22.089  22.937  12.376
49209W        W15618   0.795  39.428  10.607
49210W        W15619  38.101  41.179   2.951
49211W        W15620  38.316  12.822   4.281
49212W        W15621  42.776  35.777  14.288
49213W        W15622  39.198  33.557  14.533
49214W        W15623  37.656  24.903  12.470
49215W        W15624  35.321  18.322   2.102
49216W        W15625   4.299   4.879   4.759
49217W        W15626   8.831   0.934   1.844
49218W        W15627  43.321  19.060   2.781
49219W        W15628  34.324  15.704   1.660
49220W        W15629  41.086   0.721   0.941
49221W        W15630  13.293  24.240  10.201
49222W        W15631   2.827  34.004   3.054
49223W        W15632  41.678  32.352   2.314
49224W        W15633  11.343  17.577   3.852
49225W        W15634  37.931  28.077  11.426
49226W        W15635  19.426  41.978  12.435
49227W        W15636  23.092   6.753   0.222
49228W        W15637  12.606  28.135   2.241
49229W        W15638  22.166   2.447  14.145
49230W        W15639   6.215  38.647   3.240
49231W        W15640   2.326   7.288  14.059
49232W        W15641   6.034  10.371   4.215
49233W        W15642  19.100  15.615  13.933
49234W        W15643  36.807  20.152   3.267
49235W        W15644   2.966   6.475   0.874
49236W        W15645   1.263  27.148   2.263
49237W        W15646  40.395  20.822   4.135
49238W        W15647  12.166   0.005   0.896
49239W        W15648  42.949  28.466   3.898
49240W        W15649  42.867  36.803  11.157
49241W        W15650   4.059  37.093  14.355
49242W        W15651  18.289   1.879  11.733
49243W        W15652  31.151  23.064   2.253
49244W        W15653  28.560  16.813   0.968
49245W        W15654  35.084  40.033   3.723
49246W        W15655  17.243  29.072  11.088
49247W        W15656  38.138  21.756   4.077
49248W        W15657  18.844  23.528   3.089
49249W        W15658  29.416  33.624  14.457
49250W        W15659  29.280   7.215   3.854
49251W        W15660  38.896  37.013   1.277
49252W        W15661  33.381  14.396   1.625
49253W        W15662  22.540  22.349  10.314
49254W        W15663  21.119  20.285  13.296
49255W        W15664  19.711  11.197  11.176
49256W        W15665  14.661   9.886   3.387
49257W        W15666  28.712   1.236  12.527
49258W        W15667   2.152  20.772   0.853
49259W        W15668  15.229  33.229   1.895
49260W        W15669  25.458   2.444   3.262
49261W        W15670  21.082  29.716  12.365
49262W        W15671  30.468  24.254   4.554
49263W        W15672   0.388  41.148   4.345
49264W        W15673  24.610  44.358   4.612
49265W        W15674  26.233   6.225  14.987
49266W        W15675   2.799  16.788   0.560
49267W        W15676  19.535  31.520   1.132
49268W        W15677  20.674  32.702   2.916
49269W        W15678  30.464  31.872  14.850
49270W        W15679  30.148   0.797   3.135
49271W        W15680  44.515  21.530   2.610
49272W        W15681  35.102  17.484   1.953
49273W        W15682  40.452  41.769  13.913
49274W        W15683  13.222  18.556  10.043
49275W        W15684  20.187  34.962   2.734
49276W        W15685  21.221  20.952   0.215
49277W        W15686  42.374  40.996  13.415
49278W        W15687  14.325   8.784  14.846
49279W        W15688  31.578  25.080  14.013
49280W        W15689  31.165  17.029  14.391
49281W        W15690  40.075  34.959   3.127
49282W        W15691  39.855  27.975   3.873
49283W        W15692  11.740  14.810   3.311
49284W        W15693  11.923  19.173   1.267
49285W        W15694  22.769  39.366   2.703
49286W        W15695  11.262  37.554   3.748
49287W        W15696  44.926  12.238   3.012
49288W        W15697  38.347  15.154   4.121
49289W        W15698  44.421  43.406  10.600
49290W        W15699  41.238  27.040   0.882
49291W        W15700  14.172  32.762   1.361
49292W        W15701  16.655  35.572   2.186
49293W        W15702  38.235  12.979   3.791
49294W        W15703   5.534   6.478   3.884
49295W        W15704  30.330  24.640  11.625
49296W        W15705  42.377  25.140  11.981
49297W        W15706  29.743  24.160  12.230
49298W        W15707  31.167  13.803  14.541
49299W        W15708  26.782  12.741   1.413
49300W        W15709  10.581   7.110   1.394
49301W        W15710  18.271  35.565   4.359
49302W        W15711  41.480  23.058   4.087
49303W        W15712  14.814  13.782  12.906
49304W        W15713  11.786  11.775   4.121
49305W        W15714  43.948  19.230   1.769
49306W        W15715  17.853   7.642  11.980
49307W        W15716  40.993  22.104   0.127
49308W        W15717  19.333  31.934   2.954
49309W        W15718  42.248  38.669   4.215
49310W        W15719  18.628  24.179   2.008
49311W        W15720  19.461  24.060  13.879
49312W        W15721  11.987  41.781   4.281
49313W        W15722  28.275  24.108   1.863
49314W        W15723  24.435  39.617   1.011
49315W        W15724  13.882  32.239   1.874
49316W        W15725   6.792  26.616   1.913
49317W        W15726  10.117  25.632   9.622
49318W        W15727   2.972  37.574  11.879
49319W        W15728   6.814  23.352  10.724
49320W        W15729  19.809   2.193   0.413
49321W        W15730  41.812   7.520  10.934
49322W        W15731  11.733  14.844  11.862
49323W        W15732  28.089  15.424  12.398
49324W        W15733   4.364  20.495  13.435
49325W        W15734  26.752  27.952   3.114
49326W        W15735  42.827  21.993  14.425
49327W        W15736  30.214  37.080   2.112
49328W        W15737  26.161  16.787  12.607
49329W        W15738  27.549   4.497   1.676
49330W        W15739   2.077   3.381  12.510
49331W        W15740   5.654  11.811  11.083
49332W        W15741  25.466  36.945   0.363
49333W        W15742  33.686  15.611  10.341
49334W        W15743  23.735  42.690  13.280
49335W        W15744   6.324  14.559   3.294
49336W        W15745  21.276  15.470  13.508
49337W        W15746  24.097  37.311  11.023
49338W        W15747   8.232  10.341  10.963
49339W        W15748  35.089   6.268  10.687
49340W        W15749  11.800   6.743  10.956
49341W        W15750   4.244   4.314   0.186
49342W        W15751  11.721  30.966   3.698
49343W        W15752   3.205  27.686   1.413
49344W        W15753  12.339   3.667   2.797
49345W        W15754  20.784   0.847  10.839
49346W        W15755  38.112  42.871  12.079
49347W        W15756  39.078  29.151  12.380
49348W        W15757  10.133  14.300  11.657
49349W        W15758  29.933  40.740   4.170
49350W        W15759  44.016  40.569   4.559
49351W        W15760  29.027  22.568   2.856
49352W        W15761  26.253   7.145   5.034
49353W        W15762  18.015   3.299  14.321
49354W        W15763  42.258  22.952   1.161
49355W        W15764  32.592  30.216   2.884
49356W        W15765  15.374   5.384   1.827
49357W        W15766  21.537  35.313   3.880
49358W        W15767  39.862  40.529   2.196
49359W        W15768  26.332  36.584   0.883
49360W        W15769   5.173  24.706   3.546
49361W        W15770  36.555  37.383   0.714
49362W        W15771   9.648  30.191   3.236
49363W        W15772  24.107  13.896  10.943
49364W        W15773   7.887  17.789  13.888
49365W        W15774  25.080  44.976   3.093
49366W        W15775  34.867  17.784  10.948
49367W        W15776  38.479  28.117  13.952
49368W        W15777   2.377   4.412  12.472
49369W        W15778  42.885  43.423  13.400
49370W        W15779   5.822  24.737  13.563
49371W        W15780  33.331  27.724   0.110
49372W        W15781  33.004  10.454  10.233
49373W        W15782  20.030  19.950  14.437
49374W        W15783  43.127  20.462   3.810
49375W        W15784  25.306   4.073  13.469
49376W        W15785  25.140  14.323  12.524
49377W        W15786  20.469  43.949   4.133
49378W        W15787  17.554   3.071   2.861
49379W        W15788  17.228  37.045   1.357
49380W        W15789  35.535  22.716  14.396
49381W        W15790   6.427  16.696  11.246
49382W        W15791   2.752   8.422   4.586
49383W        W15792   3.053   4.200  11.203
49384W        W15793   7.451  22.202   2.693
49385W        W15794  29.655  37.497  11.747
49386W        W15795  23.496  17.838   2.629
49387W        W15796  27.462  28.833  13.335
49388W        W15797  44.303  27.554   1.802
49389W        W15798  40.314   0.970   3.241
49390W        W15799   9.219  12.815   4.662
49391W        W15800  38.735  42.459   3.563
49392W        W15801  18.098  42.009   4.722
49393W        W15802  16.621  34.082   0.509
49394W        W15803   4.865  17.159   3.234
49395W        W15804   1.662  15.466   2.987
49396W        W15805  39.436  28.038  14.013
49397W        W15806  17.175  34.486   1.724
49398W        W15807  23.317  27.727   1.832
49399W        W15808  11.079  21.656  13.736
49400W        W15809  29.517  33.006  14.363
49401W        W15810  44.822  14.738  12.674
49402W        W15811  22.568  31.907  10.467
49403W        W15812  26.218  15.102  11.976
49404W        W15813   3.843  31.157  12.425
49405W        W15814  11.204  34.617   0.456
49406W        W15815  25.931  12.069   4.265
49407W        W15816  41.998  15.005  13.683
49408W        W15817  18.503   8.303  11.907
49409W        W15818  30.201  37.543  11.151
49410W        W15819  26.607  25.202  11.831
49411W        W15820   5.916  27.190   1.797
49412W        W15821  38.905   1.183   4.213
49413W        W15822   2.327  25.288  13.206
49414W        W15823  29.815  36.567   0.325
49415W        W15824  30.856  16.060  11.186
49416W        W15825  37.461  20.707  13.483
49417W        W15826  13.713  11.136   3.639
49418W        W15827   3.445  31.974   3.621
49419W        W15828  21.755  43.511   3.610
49420W        W15829  34.157  36.336  13.538
49421W        W15830  22.859  13.646   3.674
49422W        W15831  40.434  19.313  14.634
49423W        W15832  30.331  25.890  11.120
49424W        W15833  11.042  43.799  12.414
49425W        W15834   1.796   4.691  13.172
49426W        W15835   9.763  23.714  13.790
49427W        W15836  28.715   1.778   0.440
49428W        W15837  27.914  18.360   0.471
49429W        W15838  27.893   6.227   4.216
49430W        W15839  17.318  40.995   1.695
49431W        W15840  29.406  38.925   1.176
49432W        W15841  11.731  13.931   5.044
49433W        W15842   8.872  16.039   4.606
49434W        W15843   1.078  30.918   3.667
49435W        W15844   2.568   4.968   2.835
49436W        W15845  19.999  22.052   0.069
49437W        W15846   9.848  31.671  10.362
49438W        W15847   2.302   6.791   2.132
49439W        W15848   6.815  43.245   3.225
49440W        W15849  22.031  34.680  14.953
49441W        W15850  19.800  26.579   1.031
49442W        W15851  34.731  42.614   0.310
49443W        W15852  38.440  28.440  13.094
49444W        W15853   5.923  41.278  12.057
49445W        W15854  26.255  28.054   2.980
49446W        W15855   4.370  22.380   4.507
49447W        W15856  13.557  13.900   5.172
49448W        W15857  13.687  20.531  14.952
49449W        W15858  43.793   2.447   1.758
49450W        W15859  17.599  40.279   0.186
49451W        W15860  17.857  21.110   9.763
49452W        W15861   7.778   3.779   4.913
49453W        W15862  29.564  42.794  12.805
49454W        W15863   0.846  10.745   2.621
49455W        W15864  29.498  29.527  13.137
49456W        W15865  41.473  21.264  11.347
49457W        W15866  21.140  17.808   0.382
49458W        W15867  17.872  14.780   4.228
49459W        W15868  14.555  10.638  13.855
49460W        W15869   5.904  31.717  13.246
49461W        W15870  13.801   0.358  10.465
49462W        W15871   5.077  20.769  10.397
49463W        W15872   9.328   7.159   4.305
49464W        W15873   7.415  17.551   4.349
49465W        W15874  27.911   7.301  13.168
49466W        W15875  10.614  18.924   0.904
49467W        W15876  18.224  21.950   4.946
49468W        W15877  10.870  14.713   4.568
49469W        W15878  29.947   9.936  13.404
49470W        W15879   9.197  35.218  14.960
49471W        W15880  28.230  26.088   0.823
49472W        W15881  23.989  37.415  11.952
49473W        W15882  30.118   7.181  11.175
49474W        W15883   5.839   5.225   2.763
49475W        W15884  13.042  13.570   0.240
49476W        W15885  12.700  17.295  11.471
49477W        W15886  22.656  22.572  12.785
49478W        W15887  22.479  37.355   0.777
49479W        W15888  33.963  17.850   0.143
49480W        W15889  42.641  12.771  12.470
49481W        W15890  32.853   8.177  14.346
49482W        W15891   9.817  43.538  13.325
49483W        W15892  43.482   0.826   3.897
49484W        W15893  16.245   2.741  14.542
49485W        W15894  20.983  27.947   0.797
49486W        W15895  42.098  44.487  10.653
49487W        W15896  35.049  39.510   3.669
49488W        W15897  24.630  39.462   2.947
49489W        W15898  42.654  42.226   3.081
49490W        W15899   2.768   2.783   4.409
49491W        W15900  29.005  32.007  10.711
49492W        W15901  11.595  15.076  14.353
49493W        W15902   0.974  28.853   1.784
49494W        W15903  24.991  36.111  12.110
49495W        W15904  21.099   4.700  13.441
49496W        W15905  10.406   9.255  12.921
49497W        W15906  43.399  17.584   3.128
49498W        W15907  21.600  44.505   0.956
49499W        W15908  31.536  36.854   3.200
49500W        W15909  33.531  38.801  11.110
49501W        W15910  20.157   9.795  13.206
49502W        W15911  44.051  17.199   4.797
49503W        W15912   2.910  19.140   1.982
49504W        W15913  26.049  43.417   3.198
49505W        W15914  44.155  12.093  11.577
49506W        W15915  27.612   4.843  10.149
49507W        W15916  31.159  25.610  11.380
49508W        W15917  32.427  39.952  11.948
49509W        W15918  25.203  29.511   2.925
49510W        W15919  44.017   2.560   2.677
49511W        W15920  42.274  38.960   3.666
49512W        W15921  38.263  11.634  12.947
49513W        W15922  33.688  38.790  11.956
49514W        W15923  38.878  14.983   1.252
49515W        W15924  43.839  27.406  14.761
49516W        W15925  26.635  39.562   2.321
49517W        W15926  40.892  15.563   3.119
49518W        W15927  38.688  27.601  13.320
49519W        W15928  18.561  24.795   4.557
49520W        W15929   3.630  29.514   4.680
49521W        W15930  40.932  25.610  11.519
49522W        W15931  27.163   4.982  13.037
49523W        W15932  11.364  32.694   2.431
49524W        W15933   5.521  16.335   3.604
49525W        W15934  38.900  38.371   0.375
49526W        W15935   3.262  36.915   2.367
49527W        W15936  26.180   5.764   2.281
49528W        W15937  12.026  33.527   1.956
49529W        W15938  36.043   1.439   1.343
49530W        W15939   8.306  19.855   3.244
49531W        W15940  42.904  11.091   4.065
49532W        W15941  22.817  25.547   0.010
49533W        W15942  32.125   5.349  12.641
49534W        W15943  13.340  44.010   1.730
49535W        W15944   6.805   7.433   1.372
49536W        W15945   6.629  37.126   1.288
49537W        W15946  29.474  13.697   4.875
49538W        W15947  24.571   4.160   3.763
49539W        W15948  12.275  13.169   3.346
49540W        W15949  27.564  40.786  12.102
49541W        W15950  33.829  38.389   2.100
49542W        W15951  43.814  12.082  10.684
49543W        W15952  33.618  39.479   1.688
49544W        W15953  27.658   4.753  13.043
49545W        W15954  23.378  42.311  13.168
49546W        W15955  39.276   1.658  11.500
49547W        W15956   1.187  37.341   2.757
49548W        W15957  15.051   8.755   4.514
49549W        W15958  26.400  20.019  14.856
49550W        W15959  21.255  30.927   2.675
49551W        W15960  40.035   7.291  13.375
49552W        W15961  36.757   0.764   2.353
49553W        W15962  10.123  15.533  12.422
49554W        W15963  31.104  27.410   3.235
49555W        W15964  15.516   4.722  11.336
49556W        W15965  30.227  11.342   4.560
49557W        W15966  21.248  20.920  10.659
49558W        W15967   3.261  34.882   3.357
49559W        W15968  43.416  18.556   1.286
49560W        W15969  33.047  16.217   0.648
49561W        W15970  26.498  12.876  14.062
49562W        W15971  14.584   3.924  13.897
49563W        W15972  19.814  24.947  13.444
49564W        W15973  26.466   0.395  12.636
49565W        W15974   2.832  12.346  14.767
49566W        W15975  17.664  35.264  12.122
49567W        W15976  16.142  39.158   1.744
49568W        W15977  13.636  10.486   2.951
49569W        W15978   1.407  25.877  12.048
49570W        W15979  17.080   9.776  11.185
49571W        W15980  28.110  14.974  12.113
49572W        W15981   2.809  34.851  10.761
49573W        W15982   8.782   3.194   3.333
49574W        W15983  43.391  17.579  11.639
49575W        W15984  31.813  19.769   2.922
49576W        W15985  11.135  13.014   3.350
49577W        W15986  20.655   2.562  13.969
49578W        W15987  43.966  30.184  11.241
49579W        W15988  11.718  43.759  12.384
49580W        W15989   6.920  28.492   1.535
49581W        W15990  30.221  26.085   1.874
49582W        W15991  43.286  12.247  11.869
49583W        W15992   8.935  12.606  12.559
49584W        W15993   2.468  20.917   3.768
49585W        W15994  31.845  15.651   4.602
49586W        W15995  26.222  22.830  12.909
49587W        W15996   4.282  27.470   3.724
49588W        W15997   7.707  39.062   2.147
49589W        W15998  18.502  25.752   3.013
49590W        W15999  11.135  38.776   1.311
49591W        W16000  20.587  25.448  14.146
49592W        W16001  38.506  40.548  14.233
49593W        W16002  43.531   5.889  10.569
49594W        W16003   5.131  31.897   1.613
49595W        W16004  31.372  28.740   3.361
49596W        W16005  32.817   6.289  10.241
49597W        W16006  41.029  22.041   4.263
49598W        W16007  28.021  14.611  11.757
49599W        W16008  42.471  37.159   1.321
49600W        W16009  26.644  29.858  12.582
49601W        W16010  12.171  29.780   0.503
49602W        W16011  14.282  42.220   2.653
49603W        W16012  42.231  42.587  13.459
49604W        W16013  33.948  30.156  13.512
49605W        W16014  25.210  26.422   4.102
49606W        W16015   3.262  23.345   4.030
49607W        W16016  11.458  30.690   0.435
49608W        W16017   9.652   8.737   0.246
49609W        W16018  23.499  12.823   3.151
49610W        W16019   2.898  26.010  12.148
49611W        W16020   7.924  22.301  11.158
49612W        W16021   4.768  36.185   3.105
49613W        W16022  32.715  24.948   4.411
49614W        W16023   6.154  27.927   4.947
49615W        W16024   6.054  17.767  13.576
49616W        W16025  41.794   3.291   4.604
49617W        W16026   3.771  22.897   1.776
49618W        W16027   1.380   3.469  11.538
49619W        W16028  26.402  20.094   3.216
49620W        W16029   0.161   3.915   4.714
49621W        W16030  44.936  42.221  14.549
49622W        W16031  14.558   3.783   0.200
49623W        W16032  43.297  33.858   4.646
49624W        W16033  19.713  30.870  14.339
49625W        W16034   9.787  29.057  12.587
49626W        W16035   2.505  40.548   1.239
49627W        W16036  11.175  44.492   5.064
49628W        W16037  17.681  14.195   2.352
49629W        W16038  30.614  44.832  11.421
49630W        W16039  11.510  42.225   0.958
49631W        W16040  13.156  37.890   3.813
49632W        W16041  14.216   4.871   0.799
49633W        W16042  35.560   1.657  14.596
49634W        W16043  33.343   3.353   2.255
49635W        W16044  33.142  43.365   0.214
49636W        W16045  41.926  21.493  14.556
49637W        W16046  32.504  27.027  10.729
49638W        W16047  37.743  24.236  11.144
49639W        W16048  10.118   4.942   4.035
49640W        W16049   1.970  37.894   1.762
49641W        W16050   4.688  19.651   1.774
49642W        W16051  18.298  29.615  11.616
49643W        W16052  22.541  25.490  13.467
49644W        W16053  28.506  41.015  10.700
49645W        W16054  24.402  27.904   3.180
49646W        W16055   5.217  35.926  10.931
49647W        W16056  39.575   8.327   2.287
49648W        W16057  13.409  13.766   1.656
49649W        W16058  35.826  40.670  11.400
49650W        W16059  22.259  17.192   2.712
49651W        W16060  38.039  11.076   2.804
49652W        W16061  39.521  44.917  14.601
49653W        W16062  19.691  21.123   0.146
49654W        W16063  31.846  10.625  13.154
49655W        W16064  37.750  35.572  13.065
49656W        W16065  13.083  19.009   1.445
49657W        W16066  41.608  42.300   4.226
49658W        W16067  32.493   0.857   2.821
49659W        W16068  25.440  43.947   1.196
49660W        W16069  20.619   6.110   1.430
49661W        W16070  14.249   7.806  10.774
49662W        W16071  36.056  34.473  12.245
49663W        W16072  23.849   7.215  11.561
49664W        W16073   9.676  27.127  10.688
49665W        W16074  34.694  40.116   1.901
49666W        W16075  28.029  37.128  14.873
49667W        W16076  15.104  35.555  12.270
49668W        W16077   8.664  30.882  12.136
49669W        W16078  24.434  19.041   2.298
49670W        W16079  35.519  32.633   1.810
49671W        W16080   8.932  12.466  14.682
49672W        W16081   8.880  42.459   4.481
49673W        W16082  14.259  30.020  11.581
49674W        W16083  43.218  33.363   4.810
49675W        W16084   6.717  16.094  11.624
49676W        W16085  39.830  20.583  14.306
49677W        W16086  19.641  20.700  13.241
49678W        W16087  16.466   2.190  10.860
49679W        W16088   7.873   7.275  14.968
49680W        W16089  28.548  38.368   2.334
49681W        W16090  26.113   6.998  14.393
49682W        W16091  30.227  11.215   2.772
49683W        W16092  22.822  34.920  14.355
49684W        W16093  39.465   6.378   0.795
49685W        W16094  20.207  43.819   2.199
49686W        W16095  28.726  33.507  14.985
49687W        W16096  29.455  23.208  13.955
49688W        W16097  17.408  26.016   4.164
49689W        W16098  43.012  37.360   4.981
49690W        W16099  43.645  41.050  11.989
49691W        W16100  20.607  12.249   1.214
49692W        W16101  19.092  21.120  10.642
49693W        W16102  20.122   1.505  14.701
49694W        W16103  21.815  26.684  10.442
49695W        W16104  19.281  42.973  13.096
49696W        W16105  27.969  13.595   1.832
49697W        W16106  13.612  13.113  14.986
49698W        W16107  25.624   8.347   5.286
49699W        W16108   0.532  10.345   0.333
49700W        W16109   5.421  23.558  11.165
49701W        W16110  26.014  29.518  12.210
49702W        W16111  29.413  15.991   3.237
49703W        W16112  16.023  40.441   2.585
49704W        W16113  31.095   6.691  12.603
49705W        W16114  31.403  30.064   4.296
49706W        W16115  32.581  18.481   1.085
49707W        W16116  35.148  34.677  13.353
49708W        W16117  17.110  13.751   3.341
49709W        W16118  19.181  24.910   2.187
49710W        W16119  37.616  40.957  11.425
49711W        W16120  18.668   9.275   3.707
49712W        W16121   3.854  20.317   0.544
49713W        W16122  18.460   3.922  12.925
49714W        W16123   3.898  35.381  12.492
49715W        W16124  20.624  39.753   1.427
49716W        W16125  42.167  28.180   4.930
49717W        W16126  22.018  43.382  11.969
49718W        W16127   4.943  43.697  14.270
49719W        W16128  43.534   8.223   3.634
49720W        W16129   8.761  29.212  13.379
49721W        W16130  17.717  15.819  14.975
49722W        W16131   5.907  36.896  14.500
49723W        W16132  40.058  40.227  11.100
49724W        W16133   6.412  13.019   3.204
49725W        W16134   6.717  42.939   0.820
49726W        W16135  39.120  44.493  12.560
49727W        W16136   3.775   1.333  13.089
49728W        W16137  21.202   2.986  13.285
49729W        W16138  31.776  33.781   0.848
49730W        W16139   4.452  11.178  12.493
49731W        W16140  44.580  40.831   4.041
49732W        W16141  43.304  13.337   4.652
49733W        W16142  22.709  25.254   2.801
49734W        W16143  25.831  15.781   0.032
49735W        W16144  10.908  21.206   2.098
49736W        W16145  35.490  14.656   0.240
49737W        W16146  38.564   8.828   1.700
49738W        W16147   7.135  11.622  13.273
49739W        W16148   1.733  36.021   3.530
49740W        W16149  24.757  22.421   2.800
49741W        W16150  28.167  24.929   2.753
49742W        W16151  11.586  37.003  14.963
49743W        W16152  39.968  43.326  12.056
49744W        W16153   7.664  32.626  14.207
49745W        W16154  33.561  16.245  12.879
49746W        W16155  12.285  21.049  11.072
49747W        W16156  32.109  20.153   3.129
49748W        W16157  24.899  22.030   3.627
49749W        W16158  29.430  43.612  11.606
49750W        W16159  15.845  11.259  13.530
49751W        W16160  24.088  26.204  12.351
49752W        W16161  19.032   4.148  14.757
49753W        W16162  30.562  22.862  13.610
49754W        W16163  10.408   4.356  12.455
49755W        W16164  29.928   6.178   4.332
49756W        W16165   0.237  38.849  10.759
49757W        W16166  11.400  32.123   0.227
49758W        W16167  17.109  32.597  12.232
49759W        W16168  39.964   1.781   4.613
49760W        W16169   2.513  12.599   1.420
49761W        W16170  11.646  22.121  13.426
49762W        W16171  43.675  35.641   0.325
49763W        W16172  27.074  44.394   2.418
49764W        W16173   6.374  38.993  12.910
49765W        W16174   6.095  18.182  13.952
49766W        W16175   9.815  15.952  11.183
49767W        W16176   6.727  13.791  12.130
49768W        W16177   3.314  11.827   0.940
49769W        W16178  28.215   3.155  13.534
49770W        W16179  10.229  12.255   1.252
49771W        W16180  43.329   3.188   0.920
49772W        W16181  36.031   6.674  12.559
49773W        W16182  39.815   9.865   3.370
49774W        W16183  10.351  33.078   1.249
49775W        W16184  11.270  20.432   4.496
49776W        W16185  43.344  30.796   9.507
49777W        W16186  21.978  40.409   3.292
49778W        W16187  29.772   8.402   0.846
49779W        W16188  21.947  19.206  10.680
49780W        W16189   4.293  11.080  10.957
49781W        W16190   8.675  20.988  13.419
49782W        W16191   2.483  21.109  12.482
49783W        W16192  14.618  15.724  12.012
49784W        W16193   5.369  13.316   0.113
49785W        W16194  38.966  28.974   4.451
49786W        W16195  25.051  35.131   2.247
49787W        W16196   8.270  10.711  11.299
49788W        W16197  21.843  33.068  12.657
49789W        W16198  37.263  10.004  12.944
49790W        W16199  41.362  40.612   0.173
49791W        W16200  32.245   8.225  11.778
49792W        W16201  30.432  10.221  14.875
49793W        W16202  29.008  38.486   3.473
49794W        W16203   0.463  27.112  13.282
49795W        W16204   8.009  29.887   3.073
49796W        W16205   3.528   1.906  12.293
49797W        W16206  20.605  30.522  12.103
49798W        W16207   6.243  29.979  10.730
49799W        W16208  20.700  13.664   2.711
49800W        W16209  32.903  25.074  13.386
49801W        W16210  13.638  35.706  11.089
49802W        W16211   5.758  24.191   1.233
49803W        W16212  14.542  43.370   3.569
49804W        W16213  38.364  16.094   1.784
49805W        W16214   9.789  29.126  11.248
49806W        W16215  21.164   8.760  10.119
49807W        W16216  12.896  22.200   4.081
49808W        W16217  10.387   2.712  12.856
49809W        W16218  19.691   1.685  13.866
49810W        W16219  26.039  17.111   1.420
49811W        W16220   5.129  18.197   3.336
49812W        W16221   1.200  33.730  11.704
49813W        W16222  28.391  18.868   4.854
49814W        W16223  30.051   8.419  14.862
49815W        W16224  12.025  42.532   4.707
49816W        W16225  28.105  22.944   2.838
49817W        W16226  19.087  17.593   3.182
49818W        W16227  40.456  12.979   3.569
49819W        W16228  21.157   3.835   3.580
49820W        W16229  42.734  18.088  10.318
49821W        W16230  44.973  44.004   0.268
49822W        W16231  12.278   7.698   1.982
49823W        W16232  21.229  14.684   3.740
49824W        W16233  25.757  31.676   4.229
49825W        W16234  39.014  21.548   4.082
49826W        W16235  22.109  34.437   0.428
49827W        W16236  12.333   6.628  14.394
49828W        W16237  20.772   4.311  14.674
49829W        W16238  29.178  41.610  14.158
49830W        W16239  40.011  24.287  13.414
49831W        W16240  19.742  42.834  13.577
49832W        W16241  43.641  22.979   1.012
49833W        W16242   0.787  23.134  12.014
49834W        W16243  41.086  27.873  13.852
49835W        W16244  40.002  13.343  10.755
49836W        W16245  28.413  24.451  12.415
49837W        W16246  32.852   1.000  12.586
49838W        W16247  37.093  24.081  14.397
49839W        W16248  31.504  36.497  14.715
49840W        W16249  13.673  27.204  11.904
49841W        W16250  22.331   4.091   4.077
49842W        W16251  16.615  10.123  10.705
49843W        W16252  42.384  26.203   2.411
49844W        W16253  14.180  22.485   3.236
49845W        W16254  15.731  25.237  13.405
49846W        W16255  16.639   1.813  11.203
49847W        W16256   1.337  40.770  13.037
49848W        W16257  17.730  43.054  11.115
49849W        W16258  13.561  22.543   2.652
49850W        W16259  30.296  14.914   2.650
49851W        W16260  38.963  26.539   4.156
49852W        W16261   2.573   7.298   0.810
49853W        W16262  16.389  28.114  11.415
49854W        W16263   2.213  22.107  14.383
49855W        W16264   2.784  18.553   3.652
49856W        W16265  28.436  43.296   4.559
49857W        W16266  23.196  19.602  13.467
49858W        W16267  26.201   8.633  12.255
49859W        W16268   1.159  12.209  12.778
49860W        W16269  10.754  34.181   2.277
49861W        W16270  17.795   7.231   3.817
49862W        W16271  26.598  29.552   0.806
49863W        W16272  32.961  38.946  13.129
49864W        W16273  27.441   5.018   1.697
49865W        W16274   5.323  14.699   0.453
49866W        W16275   3.132  35.514   2.275
49867W        W16276  36.570  25.491  12.936
49868W        W16277  25.122  36.955  11.749
49869W        W16278  38.741   5.108   5.115
49870W        W16279   7.082  25.621   1.099
49871W        W16280  38.786   7.672  13.620
49872W        W16281  10.683  18.661   2.425
49873W        W16282  15.549   2.786   0.719
49874W        W16283   4.318  23.234  10.700
49875W        W16284   9.671  32.057   2.757
49876W        W16285  17.515  37.598  11.559
49877W        W16286  17.131  40.056  11.438
49878W        W16287  12.229  15.597   3.652
49879W        W16288  43.883   6.326   2.592
49880W        W16289   0.721   8.715  13.976
49881W        W16290  14.166   8.187   1.454
49882W        W16291  14.350   4.371   3.641
49883W        W16292  35.588  19.270   4.992
49884W        W16293   3.189  29.382   3.660
49885W        W16294   1.238  11.066  14.568
49886W        W16295   6.277  27.173   1.223
49887W        W16296  25.578   4.297   4.813
49888W        W16297  38.547   3.995   3.323
49889W        W16298  14.863  44.849   3.369
49890W        W16299  14.704  36.070   1.438
49891W        W16300  30.357  40.572  13.484
49892W        W16301  43.732  17.107   0.662
49893W        W16302   1.420  10.563   1.522
49894W        W16303  11.906  18.178   0.291
49895W        W16304   0.388  33.758   3.929
49896W        W16305  18.218  35.928   4.907
49897W        W16306   9.618   8.504   4.074
49898W        W16307  29.191  24.496   4.250
49899W        W16308  24.074  11.869   4.212
49900W        W16309  39.411  14.271  12.990
49901W        W16310  17.181  14.045   4.540
49902W        W16311  16.141  26.674  11.424
49903W        W16312  44.003   6.310  12.802
49904W        W16313  35.267  27.962  12.506
49905W        W16314  13.051  27.184  10.746
49906W        W16315   4.788  38.095   0.304
49907W        W16316  29.725  35.527   3.212
49908W        W16317  29.149   2.753  14.867
49909W        W16318  33.041   3.598  13.828
49910W        W16319  29.958   7.215   3.102
49911W        W16320  34.622  12.048  14.100
49912W        W16321   1.809  28.128   2.222
49913W        W16322  31.700   7.682   2.369
49914W        W16323  20.457   3.264   2.640
49915W        W16324   0.336  43.256  10.647
49916W        W16325  10.835   4.199   2.275
49917W        W16326   2.246  19.083   0.409
49918W        W16327  11.290  34.388  14.453
49919W        W16328  15.250  37.618  14.403
49920W        W16329  13.586  29.621   0.512
49921W        W16330   5.255  41.902  11.639
49922W        W16331  12.605   2.937   3.538
49923W        W16332  12.342  41.006   2.941
49924W        W16333  34.951  17.664   0.952
49925W        W16334  28.507   1.982  12.020
49926W        W16335  13.300  24.637  13.419
49927W        W16336  40.733  29.592  11.295
49928W        W16337   6.428   1.819   0.835
49929W        W16338  36.793   4.764  14.283
49930W        W16339  43.023  33.985  14.247
49931W        W16340  43.983  44.767  10.641
49932W        W16341  30.979  16.218  13.800
49933W        W16342  31.492  38.082   1.253
49934W        W16343  12.188  20.148   1.950
49935W        W16344  42.356   5.330   2.244
49936W        W16345  12.514  13.563  14.289
49937W        W16346  12.648  33.618   0.820
49938W        W16347  10.835  37.923  13.527
49939W        W16348  20.628   6.571   2.841
49940W        W16349  41.453  18.225   0.933
49941W        W16350  17.864  31.611   2.259
49942W        W16351   5.752  31.468  12.423
49943W        W16352  40.566  23.931  12.080
49944W        W16353  14.302   0.387  11.085
49945W        W16354   6.160  33.628   0.522
49946W        W16355  41.418  34.906  10.734
49947W        W16356  25.053  17.727   2.653
49948W        W16357  23.918  25.238   3.252
49949W        W16358  43.225  38.283   4.372
49950W        W16359  28.956  39.350   4.770
49951W        W16360   6.805  32.683   5.030
49952W        W16361   2.205  14.236   4.927
49953W        W16362  18.088  23.492  12.988
49954W        W16363  36.018  30.155   1.191
49955W        W16364  16.676   2.910  14.769
49956W        W16365  33.644  16.803   1.317
49957W        W16366  24.389  30.433  14.041
49958W        W16367  41.286  27.492  12.303
49959W        W16368  36.300   1.391  13.443
49960W        W16369  20.550  21.320   2.780
49961W        W16370  33.015  33.092  12.501
49962W        W16371  17.710  35.674  13.471
49963W        W16372   3.774  14.774   1.387
49964W        W16373  10.946  23.500   2.185
49965W        W16374  19.187   0.728  12.491
49966W        W16375  19.051  44.504  14.026
49967W        W16376  20.112  37.666  12.502
49968W        W16377   3.009  30.405  14.362
49969W        W16378  16.761   3.673  13.621
49970W        W16379  39.301  26.498   4.716
49971W        W16380  29.588  12.092  11.735
49972W        W16381  24.006  42.229   1.652
49973W        W16382  17.399  25.005  11.132
49974W        W16383  16.912   4.791   1.782
49975W        W16384  19.229  17.602  14.839
49976W        W16385   8.481  30.865   4.050
49977W        W16386  31.484  33.031   2.479
49978W        W16387  34.645   8.681  14.194
49979W        W16388  19.289  24.683   3.305
49980W        W16389  28.065   3.497  11.510
49981W        W16390   8.962  25.675   2.265
49982W        W16391   0.284  11.398   1.589
49983W        W16392  17.032   9.965   0.770
49984W        W16393  38.829  40.305   3.126
49985W        W16394  26.601  29.184   4.600
49986W        W16395  38.398  19.601   0.733
49987W        W16396  22.132  22.409  13.965
49988W        W16397  24.611  44.201   1.809
49989W        W16398  42.113  40.946  13.845
49990W        W16399  13.909  31.853  14.383
49991W        W16400  18.298  44.237  14.031
49992W        W16401  34.702  11.721   4.219
49993W        W16402  31.071  25.649  12.537
49994W        W16403  39.549   3.310   0.907
49995W        W16404  37.097  27.604   4.193
49996W        W16405  32.832  19.031   0.416
49997W        W16406  11.919   1.100   3.966
49998W        W16407  15.180   3.830  11.664
49999W        W16408  21.266   1.872   1.034
50000W        W16409   8.170  19.345   2.367
50001W        W16410  18.185  24.073  12.450
50002W        W16411  29.004  36.221   1.480
50003W        W16412  32.689  39.343  12.955
50004W        W16413  17.158  17.441   2.564
50005W        W16414  28.166  36.311  14.496
50006W        W16415   9.451  38.472  10.333
50007W        W16416  28.646  15.737  10.371
50008W        W16417   9.141  28.169   2.205
50009W        W16418   6.701  28.080   2.299
50010W        W16419  24.903  26.242   2.716
50011W        W16420  12.073  23.948   3.137
50012W        W16421  34.884   2.011   1.862
50013W        W16422  24.670   7.274  10.940
50014W        W16423  20.538  19.437  12.123
50015W        W16424  43.688  39.895  13.097
50016W        W16425  14.325   2.551   0.464
50017W        W16426  42.367  33.135  12.984
50018W        W16427   5.843  31.729   0.764
50019W        W16428  12.171  17.729   0.350
50020W        W16429  35.133  39.441  10.795
50021W        W16430  39.509  14.536   3.618
50022W        W16431  15.088   6.534   0.871
50023W        W16432   7.287  39.334  10.713
50024W        W16433  20.295  32.453   4.119
50025W        W16434  32.093  13.524  13.458
50026W        W16435   2.762  18.195   2.831
50027W        W16436  44.344  38.038  11.086
50028W        W16437  34.905  24.980   1.883
50029W        W16438   5.834   5.168   1.831
50030W        W16439  20.985  18.205  11.089
50031W        W16440   8.302  13.124   2.834
50032W        W16441  44.273  34.466   2.195
50033W        W16442  33.995   9.380  11.309
50034W        W16443   0.693  42.736  11.114
50035W        W16444  43.058   0.944  10.650
50036W        W16445  40.134  30.929  12.868
50037W        W16446  28.248  32.859  12.052
50038W        W16447   3.729   7.279  10.391
50039W        W16448  38.521  14.320   5.001
50040W        W16449  17.145   5.334   0.373
50041W        W16450   6.932   3.830   4.437
50042W        W16451  19.174   3.768  13.532
50043W        W16452  41.312  19.732   0.137
50044W        W16453  15.908   1.939  12.894
50045W        W16454  17.981  30.921   2.667
50046W        W16455   1.776  43.006  12.455
50047W        W16456   3.688  43.948   1.781
50048W        W16457   7.287  12.996  11.170
50049W        W16458  29.304   0.967   1.304
50050W        W16459  18.086   9.804   3.231
50051W        W16460  35.850   4.797   4.118
50052W        W16461  13.126   9.872  12.464
50053W        W16462  22.478  13.254   1.380
50054W        W16463  20.620  12.780  11.360
50055W        W16464  44.476  18.434  11.693
50056W        W16465  36.042  14.484   0.257
50057W        W16466   9.742   1.961   4.979
50058W        W16467  38.972  43.222   2.857
50059W        W16468  28.674  39.997  13.430
50060W        W16469  39.501   9.428   3.899
50061W        W16470  15.341  14.779  10.617
50062W        W16471  38.739   0.790   4.516
50063W        W16472  38.386   0.929   3.248
50064W        W16473   8.040   9.924  11.938
50065W        W16474  15.178   8.147   2.238
50066W        W16475  35.296   5.385  10.209
50067W        W16476  39.122  23.705  10.331
50068W        W16477  20.275  30.074  10.621
50069W        W16478   1.342  40.449   4.216
50070W        W16479   2.694  33.385  10.780
50071W        W16480  12.116  44.561  10.274
50072W        W16481  34.410  41.493   3.076
50073W        W16482  40.043  16.502  14.004
50074W        W16483  32.453  25.234   0.897
50075W        W16484  19.088  21.191  12.380
50076W        W16485  35.647  10.197   1.369
50077W        W16486  31.917  29.945  13.390
50078W        W16487  34.533  42.323  11.483
50079W        W16488  36.858  40.323  14.268
50080W        W16489  28.419  37.099   4.333
50081W        W16490   5.242  17.983  10.831
50082W        W16491  27.915  37.763   3.855
50083W        W16492  39.143  21.805   0.933
50084W        W16493  26.158  41.365  14.129
50085W        W16494  25.496  44.526   3.139
50086W        W16495  25.162  11.349   0.829
50087W        W16496   7.291  32.152   1.779
50088W        W16497   5.020   7.902  12.093
50089W        W16498  37.072  43.956  13.406
50090W        W16499  35.806  36.108  14.894
50091W        W16500   9.605  27.215   4.580
50092W        W16501  13.772  40.588   3.340
50093W        W16502   5.806   5.503   2.284
50094W        W16503  29.454  39.388   0.906
50095W        W16504   4.477  36.459   1.639
50096W        W16505  32.987  19.257  10.465
50097W        W16506   1.522  35.391   3.310
50098W        W16507  44.308   1.015   1.684
50099W        W16508  33.879   9.854  13.675
50100W        W16509   3.172  44.822   1.764
50101W        W16510  23.026  32.264   4.082
50102W        W16511   1.356  27.662   1.053
50103W        W16512  31.401  15.098   1.292
50104W        W16513   4.610  20.956   4.920
50105W        W16514   4.760  30.202  13.417
50106W        W16515  31.630  21.047  13.060
50107W        W16516  35.094  24.372   0.411
50108W        W16517   7.977   2.957  14.862
50109W        W16518  43.438  12.341  10.443
50110W        W16519  26.998  21.653  13.430
50111W        W16520  14.812  16.262   2.369
50112W        W16521  17.019  18.730  13.887
50113W        W16522  31.885   5.204   0.779
50114W        W16523  32.194   0.748   4.149
50115W        W16524  40.833  39.561   2.322
50116W        W16525  39.733   3.088  13.802
50117W        W16526  31.043  39.916  12.146
50118W        W16527  26.238  20.177  12.592
50119W        W16528  40.767   0.835  14.927
50120W        W16529  23.110  29.191  10.587
50121W        W16530  18.505  20.625  12.067
50122W        W16531   4.268  44.388  13.763
50123W        W16532  13.670   2.671  14.913
50124W        W16533  37.125   7.518   3.590
50125W        W16534  27.230  23.719  12.906
50126W        W16535   3.430  35.657  12.481
50127W        W16536  21.264  29.073  14.532
50128W        W16537   8.628  18.485  12.556
50129W        W16538  19.590  18.582   3.619
50130W        W16539  29.405  24.289  13.169
50131W        W16540  17.139  21.133  14.313
50132W        W16541   6.620  22.069  11.163
50133W        W16542   8.170  34.873   2.414
50134W        W16543  13.691  13.972  11.176
50135W        W16544  13.759   6.360  14.535
50136W        W16545  22.618  31.720  13.425
50137W        W16546  43.427  19.752  12.970
50138W        W16547   5.620  21.582  14.042
50139W        W16548   7.617  41.380   0.695
50140W        W16549  38.725  33.534  12.398
50141W        W16550  43.899   0.306  13.868
50142W        W16551  10.102  41.731  12.985
50143W        W16552   6.701   3.054   2.912
50144W        W16553  28.512  29.044   4.726
50145W        W16554  27.452   4.079  11.590
50146W        W16555   9.769  10.275   4.039
50147W        W16556   6.911  26.943  12.481
50148W        W16557   3.709  37.607   3.288
50149W        W16558  41.424  27.275   2.767
50150W        W16559  21.932  38.932  12.424
50151W        W16560  23.709  34.437  11.573
50152W        W16561  29.732  11.692  14.834
50153W        W16562  14.176  33.012   4.211
50154W        W16563   4.757  18.335  11.613
50155W        W16564  16.598  33.041   4.448
50156W        W16565   1.747  10.435   1.138
50157W        W16566  35.375  41.444  14.485
50158W        W16567   0.404  40.744   0.332
50159W        W16568  10.803  27.472  11.934
50160W        W16569  24.073  37.862   1.862
50161W        W16570   1.220  13.190   2.667
50162W        W16571  14.908   8.885  13.385
50163W        W16572  19.116   3.484  11.640
50164W        W16573  17.761  39.393   4.527
50165W        W16574  32.898  15.982  11.140
50166W        W16575   4.020  12.776   4.939
50167W        W16576  10.022  17.333  12.955
50168W        W16577  30.829  39.023   0.899
50169W        W16578   9.568   2.215   1.387
50170W        W16579  28.023   4.237   0.431
50171W        W16580  42.406  38.648  13.787
50172W        W16581  11.301  33.308  12.492
50173W        W16582  12.671   7.607   0.749
50174W        W16583  22.077  20.552  14.362
50175W        W16584  42.842  40.192   2.955
50176W        W16585  43.062  23.932   0.276
50177W        W16586  18.657  23.068   3.220
50178W        W16587  20.223  19.209   4.682
50179W        W16588   8.232  39.296  11.896
50180W        W16589  11.424   3.230  13.614
50181W        W16590   9.149   5.627   4.048
50182W        W16591   8.339  19.022   3.688
50183W        W16592   5.055  27.729  13.367
50184W        W16593  27.688   3.944  13.363
50185W        W16594  26.092   3.509   4.179
50186W        W16595  13.863  27.612  14.903
50187W        W16596  32.348  18.282  14.999
50188W        W16597  36.422  30.168   3.338
50189W        W16598   7.900  33.704   3.100
50190W        W16599  32.961  31.766   0.459
50191W        W16600  12.946  26.117   3.770
50192W        W16601   9.728  30.563   2.837
50193W        W16602   8.668  35.661  13.339
50194W        W16603  16.481  30.627  13.943
50195W        W16604   8.449  20.837   3.301
50196W        W16605  13.527  30.680   1.668
50197W        W16606   3.873  25.295  11.127
50198W        W16607  29.560  39.963  13.323
50199W        W16608  26.376  19.196   1.756
50200W        W16609   2.379  22.520   3.213
50201W        W16610  18.164  22.549   3.162
50202W        W16611  41.406  27.247   4.656
50203W        W16612  31.717  28.842   0.309
50204W        W16613   1.797  13.056   0.427
50205W        W16614  36.514   9.651  14.891
50206W        W16615  44.795  20.821   4.889
50207W        W16616   1.304  33.483   2.196
50208W        W16617  15.785   7.806  13.630
50209W        W16618   9.317  26.945   0.370
50210W        W16619   6.416  12.710  14.572
50211W        W16620  24.315  11.226  11.720
50212W        W16621  21.827   9.347   3.449
50213W        W16622  32.619  30.798   3.682
50214W        W16623   3.284  23.486   0.914
50215W        W16624  20.753  33.183   3.830
50216W        W16625  18.786  36.984   4.200
50217W        W16626  17.638  20.565   4.166
50218W        W16627  25.042   9.764   5.244
50219W        W16628  36.554  27.506  14.960
50220W        W16629   2.716  26.889  14.702
50221W        W16630   2.456  39.974   3.153
50222W        W16631  44.937  29.676  12.149
50223W        W16632  10.871  21.514  14.375
50224W        W16633  22.413  26.465  14.969
50225W        W16634  10.644  14.053  14.354
50226W        W16635   0.250  34.221   0.380
50227W        W16636  16.797  19.568  11.958
50228W        W16637   0.661  18.210   3.815
50229W        W16638  24.473   1.703  12.915
50230W        W16639  42.801  10.545   0.475
50231W        W16640  19.659  25.494   0.307
50232W        W16641  25.474  37.604   1.748
50233W        W16642  38.361  30.890  11.145
50234W        W16643   2.034   6.367   3.637
50235W        W16644  37.629  24.707  14.912
50236W        W16645  26.575   5.146  12.387
50237W        W16646  32.571  12.789  11.957
50238W        W16647  18.029  22.900   4.066
50239W        W16648  44.224  24.507   2.782
50240W        W16649  37.784  33.686  14.825
50241W        W16650  28.821  29.088   1.748
50242W        W16651  35.379  39.471   2.453
50243W        W16652  34.893  39.450   1.710
50244W        W16653  11.365  36.011  13.614
50245W        W16654  24.552  15.185  11.916
50246W        W16655  38.742  42.550   3.059
50247W        W16656  24.205  15.794  14.917
50248W        W16657  18.511  19.730   0.904
50249W        W16658  29.168   8.873  11.958
50250W        W16659  42.727  30.979  14.436
50251W        W16660  26.327  33.825  11.650
50252W        W16661  24.986  13.685   0.418
50253W        W16662  24.673   7.798   3.030
50254W        W16663  12.683  40.334   4.073
50255W        W16664   9.317  17.592   1.905
50256W        W16665   4.953  16.363  11.858
50257W        W16666   3.800  44.363  10.089
50258W        W16667  33.818  11.065  14.465
50259W        W16668  21.995  29.233   3.268
50260W        W16669  25.477   3.375   2.301
50261W        W16670  34.653  13.583   3.692
50262W        W16671  11.311  10.299   0.054
50263W        W16672  12.014  37.344  12.927
50264W        W16673  32.813  32.402  12.864
50265W        W16674  22.055  11.160   2.744
50266W        W16675  22.166   9.369   2.468
50267W        W16676  44.372  31.573  13.499
50268W        W16677   3.818   9.432  13.021
50269W        W16678  31.019   2.433  12.597
50270W        W16679  29.102  29.733  10.279
50271W        W16680  20.104  22.072  11.579
50272W        W16681  18.792  19.672   0.436
50273W        W16682  41.243   2.503  10.721
50274W        W16683  44.582  12.414  14.438
50275W        W16684  31.539  27.044  11.701
50276W        W16685  43.571   4.692  12.284
50277W        W16686   7.096   5.539   1.721
50278W        W16687  16.245  35.581   3.941
50279W        W16688  17.080  17.589  10.812
50280W        W16689   7.786  17.350   1.975
50281W        W16690  38.174   9.266   2.525
50282W        W16691  35.397  28.097   2.369
50283W        W16692   1.271  42.123  11.900
50284W        W16693  18.738   1.009   3.372
50285W        W16694   6.248  23.539  11.565
50286W        W16695  43.631  37.514  14.697
50287W        W16696  35.033   8.474  11.418
50288W        W16697   5.268  38.983   4.623
50289W        W16698  33.132  30.940   4.780
50290W        W16699   2.395  18.060  10.757
50291W        W16700   5.338  31.965   4.590
50292W        W16701  19.667  37.261  14.866
50293W        W16702   7.127  21.720  14.299
50294W        W16703  32.189  24.696   1.276
50295W        W16704  37.533  28.472   1.773
50296W        W16705  33.350  16.599   0.917
50297W        W16706  33.940  43.510   3.176
50298W        W16707  30.747  20.045   5.274
50299W        W16708  12.286  21.162   1.849
50300W        W16709  32.426  19.403   2.245
50301W        W16710   4.425  21.481   2.786
50302W        W16711  10.365  23.886   0.172
50303W        W16712   8.334  11.171  14.041
50304W        W16713   2.723   0.375   3.551
50305W        W16714  33.656  29.599  13.625
50306W        W16715  26.552  28.744   3.586
50307W        W16716  18.834  30.486  10.745
50308W        W16717  20.574   3.137  11.176
50309W        W16718  33.727  29.000  13.965
50310W        W16719   3.657  16.287   2.707
50311W        W16720  30.688   0.544  13.009
50312W        W16721   3.442  28.593  12.088
50313W        W16722  28.740  36.551  12.037
50314W        W16723  33.475  23.212   0.044
50315W        W16724  20.380  41.363   2.233
50316W        W16725  40.574  13.302  13.092
50317W        W16726  33.202  28.965  13.899
50318W        W16727  19.298   2.439  14.082
50319W        W16728  21.084  31.042  14.921
50320W        W16729   3.696  11.769   5.129
50321W        W16730   1.825  31.406  13.514
50322W        W16731  19.729  33.462  10.573
50323W        W16732  19.318   9.507   3.143
50324W        W16733  25.037  13.261  14.689
50325W        W16734  23.629  10.346  13.498
50326W        W16735  17.059   3.328  14.759
50327W        W16736  17.346  27.180  14.820
50328W        W16737  14.357  34.558  10.393
50329W        W16738  28.576  43.683   2.913
50330W        W16739  17.776  20.255   0.754
50331W        W16740  24.218  30.668   3.736
50332W        W16741  30.912   7.213   3.631
50333W        W16742   4.327  42.927   2.708
50334W        W16743  13.638  18.544   4.531
50335W        W16744   7.689   4.249   4.705
50336W        W16745  31.569  44.681   1.381
50337W        W16746  35.743   9.326  13.423
50338W        W16747  27.963  21.425  14.393
50339W        W16748  30.398  30.154   3.864
50340W        W16749  33.954  14.092   2.832
50341W        W16750  37.366   9.581  12.103
50342W        W16751   8.691  38.513  13.638
50343W        W16752   5.877  39.329  11.468
50344W        W16753  36.500   7.102  13.293
50345W        W16754  33.193  30.836   0.978
50346W        W16755  43.807  17.739   1.711
50347W        W16756   8.139  27.419   1.394
50348W        W16757  11.348  24.957   2.300
50349W        W16758   1.834  40.046   1.986
50350W        W16759  15.347  35.309   4.231
50351W        W16760   6.161  43.696   3.586
50352W        W16761  38.059  34.600   0.893
50353W        W16762   1.464  32.399  11.764
50354W        W16763  25.887  11.535   4.141
50355W        W16764   0.277  11.216   1.116
50356W        W16765   9.801  16.025  11.824
50357W        W16766  35.820  44.428  12.621
50358W        W16767  38.807  42.041   3.253
50359W        W16768   2.809   0.964   1.411
50360W        W16769  16.080   1.348  11.557
50361W        W16770   7.201   5.295  14.986
50362W        W16771  10.937  32.169  14.932
50363W        W16772  39.638  14.267  12.499
50364W        W16773  23.239  39.585  12.920
50365W        W16774  29.573  15.696   0.250
50366W        W16775  34.020  25.175   2.599
50367W        W16776  12.883  20.678   3.609
50368W        W16777  38.090  40.703   3.858
50369W        W16778   1.511  41.782   4.109
50370W        W16779  24.274  10.256  12.151
50371W        W16780  20.173  15.384   4.424
50372W        W16781  11.751  23.848   2.383
50373W        W16782  21.173   8.489  14.484
50374W        W16783   2.741  32.869   1.408
50375W        W16784  44.690  26.418  13.571
50376W        W16785  12.303  32.984   3.810
50377W        W16786  26.446  19.111  11.614
50378W        W16787  21.210  17.098   4.665
50379W        W16788   7.818  37.724   2.704
50380W        W16789   2.560  30.451  10.370
50381W        W16790  39.787  35.384   1.868
50382W        W16791  43.558   3.223  13.393
50383W        W16792  13.055   9.556   0.523
50384W        W16793  34.893  21.433   1.314
50385W        W16794  24.653   9.431  11.219
50386W        W16795  43.294  37.779   4.216
50387W        W16796   4.840  11.316  10.002
50388W        W16797  24.816   3.798   4.033
50389W        W16798  34.840  12.709   2.875
50390W        W16799   5.674   4.131  12.198
50391W        W16800   8.446   5.341   0.907
50392W        W16801  42.525  40.960   4.544
50393W        W16802  29.279   6.715   1.636
50394W        W16803  31.537  17.672   0.498
50395W        W16804  15.433  26.176  10.857
50396W        W16805  44.762   8.386   2.333
50397W        W16806   5.476  37.400   2.580
50398W        W16807  28.807   4.494  14.024
50399W        W16808  18.555   2.653  11.676
50400W        W16809  20.230  35.780   4.429
50401W        W16810  28.335  30.412   0.707
50402W        W16811   1.251  21.014   1.922
50403W        W16812  29.622   8.166  10.584
50404W        W16813  12.244  23.523  11.477
50405W        W16814  33.042  11.598  10.634
50406W        W16815  31.287   1.791  10.550
50407W        W16816  43.376  14.132  10.714
50408W        W16817   9.723  29.907  11.717
50409W        W16818   4.869  17.564   1.387
50410W        W16819  29.551  17.574  12.089
50411W        W16820   1.265  33.066  12.887
50412W        W16821  12.793  20.126  14.555
50413W        W16822  26.082  43.596   3.713
50414W        W16823  37.914  41.986   2.314
50415W        W16824   5.631  18.118  11.126
50416W        W16825  16.696  23.622   0.448
50417W        W16826  41.751  23.092  10.723
50418W        W16827  42.781  19.007  14.567
50419W        W16828  14.264  42.837  12.493
50420W        W16829  42.069   2.237   1.111
50421W        W16830  35.845  12.924  12.413
50422W        W16831   2.891  14.637   4.432
50423W        W16832  29.892  29.566  13.494
50424W        W16833   4.251  25.123   5.039
50425W        W16834  37.530   9.138  14.250
50426W        W16835  35.152  36.168  10.663
50427W        W16836  14.677   8.040  12.998
50428W        W16837  20.547  43.741  14.039
50429W        W16838   6.366   5.587   0.826
50430W        W16839  17.322  38.571  14.279
50431W        W16840  22.466  40.545  13.515
50432W        W16841  16.218   5.216  10.742
50433W        W16842  21.255   8.150   1.757
50434W        W16843  40.813   6.517   1.595
50435W        W16844  18.523  39.079   0.319
50436W        W16845  26.987  16.734  13.591
50437W        W16846  18.196  11.105   4.637
50438W        W16847   9.643  27.985   3.110
50439W        W16848  30.482   3.902  14.590
50440W        W16849   7.343   8.636  14.530
50441W        W16850   8.335  33.107  13.272
50442W        W16851  12.402  35.010  10.471
50443W        W16852   8.804   1.963   0.795
50444W        W16853  25.537  30.520   3.289
50445W        W16854  31.160  44.977   1.406
50446W        W16855  21.729   5.936  12.474
50447W        W16856  27.731  39.844   3.977
50448W        W16857  29.483  28.198   2.577
50449W        W16858  33.910  26.605  14.090
50450W        W16859  33.027  40.066   2.593
50451W        W16860   9.461  30.711   9.872
50452W        W16861  27.081   1.728   4.843
50453W        W16862  30.803  13.809  10.504
50454W        W16863  41.611  12.811   1.789
50455W        W16864   9.984  11.560  12.436
50456W        W16865  39.303  23.143  13.412
50457W        W16866  21.225  10.105   3.771
50458W        W16867  12.481  33.669  11.136
50459W        W16868   8.632  41.989  12.902
50460W        W16869   4.822  23.545   0.062
50461W        W16870  27.566  16.354   2.802
50462W        W16871  15.877  33.561  14.061
50463W        W16872   2.717  23.250  11.321
50464W        W16873  44.237  16.969   1.289
50465W        W16874  12.435  33.506  14.575
50466W        W16875   0.112  35.315   2.598
50467W        W16876   3.576  12.596   1.357
50468W        W16877  43.918  38.997   4.184
50469W        W16878  35.837  38.611   4.465
50470W        W16879   5.725  15.252  12.041
50471W        W16880  30.989  11.733   0.713
50472W        W16881   3.268   8.060   0.798
50473W        W16882  37.389   6.809  10.751
50474W        W16883   8.406  10.815  14.942
50475W        W16884  16.816  20.321   0.897
50476W        W16885  39.476   3.478   4.498
50477W        W16886  36.805  35.617  13.918
50478W        W16887  39.804   6.927  14.947
50479W        W16888  39.459  17.287   0.927
50480W        W16889  14.340  15.278  11.935
50481W        W16890  11.806  38.806  13.735
50482W        W16891  23.167  21.257  14.574
50483W        W16892  18.013  29.537  11.189
50484W        W16893  10.319  18.292   2.572
50485W        W16894  41.867  31.324  14.477
50486W        W16895   2.450  40.467   2.779
50487W        W16896  10.085  15.624  11.513
50488W        W16897  12.652  14.644   2.659
50489W        W16898  14.244  19.766   3.006
50490W        W16899  19.722  40.912   1.483
50491W        W16900  36.359  31.152  12.012
50492W        W16901  44.566  12.938  14.472
50493W        W16902  21.293  19.146   3.742
50494W        W16903  29.395   7.418  12.410
50495W        W16904  14.533  43.878  11.694
50496W        W16905  20.919  44.822   1.700
50497W        W16906   7.435  14.627   1.256
50498W        W16907   4.448  13.801   3.143
50499W        W16908   0.050  19.292   4.662
50500W        W16909  20.719   6.043  13.367
50501W        W16910  32.002  21.263   0.924
50502W        W16911  16.573  22.420   1.749
50503W        W16912   1.436   3.769  14.421
50504W        W16913  27.941   5.876   3.622
50505W        W16914   5.267   2.020   2.647
50506W        W16915  44.464  12.899  13.011
50507W        W16916  37.941   0.539  13.010
50508W        W16917  32.950   9.034  12.945
50509W        W16918  28.576   3.702  14.230
50510W        W16919  43.573   4.229  13.002
50511W        W16920  38.027  24.680  11.251
50512W        W16921   5.459   9.710  12.517
50513W        W16922  35.022  21.740  12.468
50514W        W16923  22.580  23.677   1.861
50515W        W16924   9.301  24.549  11.455
50516W        W16925  13.334  14.585   3.775
50517W        W16926  14.215  41.725  12.446
50518W        W16927  21.707  36.370   4.212
50519W        W16928   8.374   1.033  11.610
50520W        W16929  32.728  16.737  12.334
50521W        W16930  12.614  44.710   0.861
50522W        W16931   7.300  41.432  11.216
50523W        W16932  19.245  26.449  13.963
50524W        W16933  16.345   1.878   2.558
50525W        W16934   8.414  30.556   3.646
50526W        W16935  16.806   9.884   4.108
50527W        W16936  34.290  23.079   2.497
50528W        W16937  22.541   8.516   1.925
50529W        W16938  11.932  10.013  11.824
50530W        W16939  43.147  35.761  11.214
50531W        W16940   6.949   8.235  13.757
50532W        W16941  11.830  43.379  14.539
50533W        W16942   1.398   3.342  12.929
50534W        W16943  24.178  23.300   0.756
50535W        W16944  31.327  39.562   3.734
50536W        W16945  37.957  19.535   2.895
50537W        W16946  21.575  36.849  14.771
50538W        W16947  44.508  32.082  14.878
50539W        W16948  44.821   2.222   0.997
50540W        W16949  13.357  20.080   2.755
50541W        W16950  21.306  40.863  12.822
50542W        W16951  17.096  27.597  11.896
50543W        W16952  34.534  13.810   4.723
50544W        W16953   9.132  14.733   1.996
50545W        W16954  29.576  10.763  11.814
50546W        W16955  25.815  20.177  12.907
50547W        W16956  41.827  27.959  11.690
50548W        W16957  28.168   9.204   3.704
50549W        W16958  23.868   1.954   4.070
50550W        W16959  16.162  26.479  14.483
50551W        W16960  32.882   9.132   3.832
50552W        W16961  27.261   3.315  13.885
50553W        W16962  30.958  24.977   4.723
50554W        W16963  27.414  43.120   4.713
50555W        W16964  41.250   1.168   2.861
50556W        W16965  14.944   7.575   4.186
50557W        W16966  40.342  17.009   0.432
50558W        W16967  22.290  20.670   1.409
50559W        W16968   9.768  26.385  12.421
50560W        W16969  12.593  21.620  13.863
50561W        W16970  14.191  38.091  14.771
50562W        W16971   5.327  14.630  12.601
50563W        W16972  24.688  12.915   3.641
50564W        W16973  32.608  41.322   3.062
50565W        W16974   1.557  22.987  13.254
50566W        W16975   8.864  13.179  13.499
50567W        W16976  14.558  22.282   0.396
50568W        W16977  37.905  31.607  12.927
50569W        W16978   0.479  11.711  13.005
50570W        W16979   5.505  27.805  12.601
50571W        W16980  16.754  35.510  11.028
50572W        W16981   2.869  12.789  12.922
50573W        W16982   8.169  10.430   3.659
50574W        W16983  27.597  30.385   3.444
50575W        W16984   3.175  26.614  12.960
50576W        W16985  37.444  19.786   1.048
50577W        W16986  33.405  32.065  12.504
50578W        W16987  28.915  11.368   3.003
50579W        W16988   6.488  35.599  10.651
50580W        W16989   5.274  15.255   1.409
50581W        W16990   1.344   6.912   2.208
50582W        W16991  16.584  41.981  13.580
50583W        W16992  15.265  42.491   2.822
50584W        W16993  36.195  25.482   2.715
50585W        W16994  40.736   3.918   4.107
50586W        W16995   9.707  34.557   1.032
50587W        W16996   4.445  20.973  11.621
50588W        W16997  25.109  14.137   1.713
50589W        W16998   7.805  41.640  12.080
50590W        W16999  30.695  39.771  11.227
50591W        W17000  39.815  17.824   3.669
50592W        W17001  37.485  19.571   3.650
50593W        W17002  37.382  21.559  10.914
50594W        W17003  36.461  31.436  10.723
50595W        W17004  22.149  43.910   1.764
50596W        W17005  31.638  15.510   2.872
50597W        W17006   0.336  33.217   4.980
50598W        W17007  12.877  22.248  14.608
50599W        W17008  27.063   1.489   0.849
50600W        W17009   9.675   6.808  11.944
50601W        W17010  39.393  16.755  13.084
50602W        W17011  32.338  14.572  12.059
50603W        W17012  11.799   3.663   0.879
50604W        W17013  30.947  27.298  13.402
50605W        W17014  38.470  22.459   1.457
50606W        W17015   6.240   1.085   1.374
50607W        W17016   0.947  31.605  11.642
50608W        W17017  11.604  40.874   2.191
50609W        W17018  12.769  42.897  11.615
50610W        W17019  44.726  18.517   0.917
50611W        W17020   9.438   1.891  14.466
50612W        W17021  41.806  13.619   4.120
50613W        W17022   4.902   6.386   3.277
50614W        W17023  36.436  43.191  12.950
50615W        W17024   9.171  14.159   0.248
50616W        W17025  16.218   6.446  13.529
50617W        W17026  38.010  28.697   1.774
50618W        W17027  16.220  31.459   0.315
50619W        W17028  32.116  11.176   1.001
50620W        W17029  23.682   7.700  11.544
50621W        W17030  18.598  18.530   1.796
50622W        W17031  42.229  13.405  11.577
50623W        W17032  28.933  23.019  10.407
50624W        W17033  11.952  40.887  12.114
50625W        W17034  11.269   8.037   0.432
50626W        W17035  18.660   4.443  12.158
50627W        W17036  34.394  10.259   2.200
50628W        W17037   4.918  44.278   0.330
50629W        W17038  14.557  34.396  10.845
50630W        W17039  42.983   8.678  11.180
50631W        W17040  26.175  10.956  12.898
50632W        W17041  41.096   7.045   4.068
50633W        W17042  22.567   4.462  11.725
50634W        W17043  31.326   5.192   2.461
50635W        W17044  15.225   4.641   2.309
50636W        W17045   0.826  44.768  11.569
50637W        W17046  27.714  34.459  12.998
50638W        W17047  30.878   8.742   0.257
50639W        W17048  43.872  25.120   3.447
50640W        W17049  34.998  41.240   0.339
50641W        W17050  23.993  33.557   4.034
50642W        W17051  40.779   4.795  11.690
50643W        W17052   4.054  34.727   4.527
50644W        W17053  37.719  36.551  14.742
50645W        W17054  33.731   1.317  14.523
50646W        W17055  34.799   8.601   4.044
50647W        W17056  30.603  33.538  11.005
50648W        W17057  34.330   9.386  13.416
50649W        W17058  33.489  40.095   2.782
50650W        W17059   1.999  28.419  12.486
50651W        W17060  40.939  25.096   3.244
50652W        W17061  43.379  15.406   1.887
50653W        W17062  38.482  39.265  12.607
50654W        W17063  10.559  30.116  10.680
50655W        W17064  25.630   7.393  11.065
50656W        W17065   2.079  41.938   4.781
50657W        W17066  21.201   8.752  11.136
50658W        W17067  17.732  10.525  12.060
50659W        W17068  11.899   2.000   3.671
50660W        W17069  32.069  30.360  10.862
50661W        W17070  38.420  20.380   5.569
50662W        W17071  19.792  35.891   2.606
50663W        W17072  26.245   4.921   0.231
50664W        W17073  22.810  29.428  11.229
50665W        W17074  29.136   5.491  14.063
50666W        W17075  27.754  37.371   2.644
50667W        W17076  25.493  17.660  13.730
50668W        W17077   9.947  15.669  13.706
50669W        W17078  25.519  30.191   4.536
50670W        W17079   5.274  11.414  14.692
50671W        W17080  16.096  43.866   4.373
50672W        W17081  43.161   5.220  14.000
50673W        W17082   9.228  29.759  11.024
50674W        W17083  21.958  28.252   2.302
50675W        W17084  10.595  21.710   1.259
50676W        W17085   7.481  19.595   0.576
50677W        W17086  35.938  29.526   4.044
50678W        W17087  20.727  38.904   3.337
50679W        W17088  23.547   0.473  10.511
50680W        W17089  12.831  39.820   4.154
50681W        W17090  32.945  11.536   0.915
50682W        W17091  15.295  18.072  13.868
50683W        W17092  37.502  16.738  12.721
50684W        W17093  43.276   2.299   1.652
50685W        W17094  26.789  31.041  14.398
50686W        W17095  30.853   9.788   0.666
50687W        W17096  15.720  43.499  13.358
50688W        W17097  41.074  42.552   3.108
50689W        W17098  43.263   5.426  14.961
50690W        W17099  22.632  29.211   1.256
50691W        W17100  29.394  17.064  13.405
50692W        W17101   4.847  32.977   2.200
50693W        W17102  42.246  13.172  11.097
50694W        W17103  20.046   7.277   3.876
50695W        W17104  39.014  40.206   1.850
50696W        W17105  30.856  12.952   1.673
50697W        W17106  19.707  28.017   2.701
50698W        W17107  28.167  14.044  10.749
50699W        W17108   0.987   0.393  14.596
50700W        W17109  38.990  12.489  13.304
50701W        W17110   9.787  17.011  13.480
50702W        W17111  27.986   7.748   3.190
50703W        W17112  40.388  19.866  10.914
50704W        W17113  43.284  11.155   1.772
50705W        W17114   1.901  29.174   2.236
50706W        W17115  14.344   7.243  11.090
50707W        W17116  41.952  14.115  13.497
50708W        W17117   1.544  13.894   1.718
50709W        W17118  16.629   6.653   2.137
50710W        W17119  24.536   2.456   0.791
50711W        W17120  37.084  15.900   0.228
50712W        W17121  21.304   0.770   3.104
50713W        W17122   0.241   1.532  13.075
50714W        W17123  42.671  19.710  14.112
50715W        W17124  12.503  18.267   1.860
50716W        W17125  36.956  33.109   2.822
50717W        W17126  29.283  31.123   3.996
50718W        W17127  26.415   3.365   0.878
50719W        W17128  43.006  13.147  10.439
50720W        W17129   6.128   2.765   3.720
50721W        W17130  20.706  37.863  10.925
50722W        W17131  12.949  29.650  14.945
50723W        W17132  14.752  18.169   1.962
50724W        W17133  41.739  22.983  11.712
50725W        W17134  37.081  28.187   1.647
50726W        W17135  11.920   6.176   5.110
50727W        W17136   7.430  15.742   1.032
50728W        W17137  16.517  17.396  14.838
50729W        W17138  35.628  24.195  11.622
50730W        W17139  43.026  32.506   0.797
50731W        W17140  34.182  21.148  12.937
50732W        W17141  28.267  32.078   1.441
50733W        W17142  31.810  12.157   3.743
50734W        W17143   7.636  43.885   3.549
50735W        W17144  42.855  37.364  10.296
50736W        W17145  25.090  41.048   0.096
50737W        W17146   0.546  24.010  12.420
50738W        W17147  26.406  15.793   4.563
50739W        W17148  35.594  20.188   2.445
50740W        W17149  27.120  40.046   3.175
50741W        W17150  28.457  19.863  11.916
50742W        W17151  11.418  27.128   0.233
50743W        W17152   5.150  20.328  13.037
50744W        W17153  28.775  11.367   3.758
50745W        W17154   2.849  39.830   2.849
50746W        W17155  23.297  43.861  11.933
50747W        W17156  44.306  26.606  12.629
50748W        W17157  26.193  34.080   2.675
50749W        W17158  26.031  28.297  14.535
50750W        W17159   3.842  15.471   3.328
50751W        W17160  14.830  22.323   2.204
50752W        W17161  41.393  29.959  10.664
50753W        W17162   4.666  29.255   0.684
50754W        W17163  32.010  25.452   2.149
50755W        W17164  33.059  43.568  13.819
50756W        W17165  10.765  15.712   4.083
50757W        W17166  14.801  19.208   0.920
50758W        W17167  11.071  29.549   1.764
50759W        W17168  27.919   2.268   2.170
50760W        W17169  32.964   7.859  12.475
50761W        W17170  14.093   5.428   1.709
50762W        W17171  30.490  24.752   4.713
50763W        W17172   2.719  28.438   3.653
50764W        W17173  43.042   6.571  12.837
50765W        W17174  42.401  17.693  13.672
50766W        W17175  44.854  16.824   1.979
50767W        W17176  33.479  17.883  11.774
50768W        W17177  40.243  16.522   4.471
50769W        W17178   6.069  16.725   4.726
50770W        W17179  36.063  31.893   2.186
50771W        W17180   0.529  32.333  14.845
50772W        W17181   8.280   7.879  13.420
50773W        W17182  36.035  19.522   1.541
50774W        W17183  38.595   6.426   4.579
50775W        W17184   5.411  33.691   2.377
50776W        W17185  35.402  44.464  13.876
50777W        W17186  32.969  10.082   3.028
50778W        W17187  35.061  26.891  11.205
50779W        W17188  13.790  29.139  11.549
50780W        W17189   9.804   4.354  12.452
50781W        W17190  34.474  25.654  12.172
50782W        W17191   3.783  27.934   2.216
50783W        W17192   7.461  28.357   4.614
50784W        W17193  10.758  43.796   1.879
50785W        W17194  15.339  43.067  11.592
50786W        W17195  44.052  12.993   2.134
50787W        W17196  43.572  28.973   3.222
50788W        W17197  32.541   0.226   3.625
50789W        W17198   3.273  18.311   3.652
50790W        W17199  18.517  25.480   1.710
50791W        W17200  20.919  41.120   0.565
50792W        W17201  34.352   8.905   1.937
50793W        W17202  31.996  20.271   4.601
50794W        W17203  34.845  25.658   2.403
50795W        W17204   6.019   8.292   1.814
50796W        W17205   4.451   6.713  13.415
50797W        W17206  24.450  30.537   2.324
50798W        W17207  23.534  43.885   4.583
50799W        W17208  42.804  18.854   4.069
50800W        W17209   0.107  41.550   4.547
50801W        W17210  11.665  21.640   4.522
50802W        W17211   8.378   3.159  12.393
50803W        W17212  19.867  10.786   3.268
50804W        W17213   7.088   6.910   2.848
50805W        W17214  14.046  29.624   2.401
50806W        W17215  20.113   7.782  12.530
50807W        W17216  18.148  10.966   2.919
50808W        W17217  16.030  33.888  10.662
50809W        W17218  11.505  29.999  10.934
50810W        W17219  11.751  15.747   4.463
50811W        W17220  19.478  41.153   3.758
50812W        W17221  42.371  11.310   1.284
50813W        W17222   8.682   4.694   0.330
50814W        W17223  38.298  40.345   3.117
50815W        W17224  43.838   9.851   2.236
50816W        W17225  23.907   4.307  13.526
50817W        W17226  32.824  20.104   3.740
50818W        W17227  44.997  41.888   0.753
50819W        W17228   4.127  42.433   2.708
50820W        W17229  33.669   7.112   4.106
50821W        W17230  38.426  15.606  14.529
50822W        W17231  21.058  33.624  12.496
50823W        W17232  40.846  44.466   2.786
50824W        W17233  13.798  40.945  14.293
50825W        W17234  22.541  17.161   2.223
50826W        W17235   9.377  16.334   2.925
50827W        W17236  14.919  40.909   3.823
50828W        W17237   0.800   3.839   3.220
50829W        W17238  40.729  16.146  14.461
50830W        W17239  41.372  41.375  14.080
50831W        W17240   7.451  37.564   2.344
50832W        W17241  25.053  29.548   0.830
50833W        W17242  38.165  30.471  10.616
50834W        W17243  37.890   5.314   3.292
50835W        W17244  13.050  20.056  11.473
50836W        W17245  29.352  44.638   0.743
50837W        W17246   4.617  44.727   3.686
50838W        W17247  37.609   5.918   1.213
50839W        W17248  29.316  41.749  12.114
50840W        W17249   2.785  29.954  14.267
50841W        W17250  24.974  32.004   0.338
50842W        W17251  26.514   3.272   2.786
50843W        W17252  42.844  12.087   4.883
50844W        W17253  16.145   6.336  11.593
50845W        W17254  33.886  25.963  11.553
50846W        W17255  14.182  42.553  11.702
50847W        W17256   7.774   5.857  13.249
50848W        W17257   0.909  44.064   2.656
50849W        W17258  33.876  25.015  11.489
50850W        W17259  27.077  25.548  14.504
50851W        W17260  40.635  20.359  12.682
50852W        W17261  30.293  38.387  12.516
50853W        W17262  34.127   5.685  13.559
50854W        W17263  36.036  31.609  11.890
50855W        W17264  21.928  38.844  11.718
50856W        W17265  13.741  29.729   4.113
50857W        W17266  28.989  12.614   0.835
50858W        W17267  40.995   8.759   0.401
50859W        W17268  40.583  12.877  12.059
50860W        W17269  38.398  16.977  11.650
50861W        W17270   7.304  43.522   1.233
50862W        W17271  15.734  23.046   4.581
50863W        W17272  19.705  20.290  11.125
50864W        W17273  44.392   6.407  13.281
50865W        W17274  40.801   4.296   2.739
50866W        W17275   9.544  40.517  14.159
50867W        W17276  40.267  13.549   4.166
50868W        W17277  35.342  14.815  11.424
50869W        W17278  29.068  22.562   3.388
50870W        W17279  17.960  38.462   4.987
50871W        W17280  27.280  33.612   4.635
50872W        W17281  25.647   2.810   0.791
50873W        W17282   9.283  20.703  12.440
50874W        W17283  25.187  32.045   2.233
50875W        W17284  18.999   9.903  14.938
50876W        W17285  38.670  14.194   4.538
50877W        W17286  19.740  17.070  10.775
50878W        W17287  24.796  19.782   3.458
50879W        W17288  10.382  33.050  13.731
50880W        W17289   7.934  34.774  11.609
50881W        W17290   5.643  37.920   0.934
50882W        W17291   2.539  13.801  11.153
50883W        W17292  30.937  30.970   0.437
50884W        W17293   3.560  44.660   1.409
50885W        W17294  38.281  42.026   1.957
50886W        W17295  16.194  25.727   3.621
50887W        W17296  29.463  41.191  12.102
50888W        W17297  30.607  16.088  14.495
50889W        W17298  32.498  33.874  10.941
50890W        W17299  25.941  12.225   2.719
50891W        W17300   1.355  21.707   4.176
50892W        W17301  30.337  33.624  12.468
50893W        W17302   2.631  31.543   0.336
50894W        W17303   8.394   7.606   0.845
50895W        W17304   7.380  37.497   1.438
50896W        W17305  22.075  25.806   3.200
50897W        W17306   7.890  32.947   2.774
50898W        W17307  11.171  37.018   3.732
50899W        W17308  19.820  18.569  14.362
50900W        W17309   8.733  37.493  13.003
50901W        W17310  44.767  40.252   3.205
50902W        W17311   1.882  44.039  12.451
50903W        W17312  44.309  34.622  12.585
50904W        W17313  14.681   7.653  12.611
50905W        W17314  30.517  18.495  13.235
50906W        W17315   6.714   3.749  10.749
50907W        W17316   4.612  32.425   0.769
50908W        W17317  12.106  30.687   0.741
50909W        W17318  43.517  40.011   2.628
50910W        W17319  12.203  14.236   0.428
50911W        W17320  16.040  16.288   3.121
50912W        W17321  23.435  36.600  12.211
50913W        W17322  36.350  14.881   3.295
50914W        W17323  24.739  18.166  11.422
50915W        W17324  10.642  42.822  10.592
50916W        W17325  29.396   1.453   1.392
50917W        W17326  27.388  39.558  12.872
50918W        W17327  44.464  42.603   3.179
50919W        W17328  33.461  11.407   0.732
50920W        W17329  11.566  26.600  12.260
50921W        W17330   0.097  10.580   0.530
50922W        W17331  26.525   6.563   2.390
50923W        W17332  43.848  30.090   4.081
50924W        W17333  14.256  33.573   2.020
50925W        W17334  15.803  25.292   4.035
50926W        W17335  23.742   1.945   0.157
50927W        W17336  17.497  41.018   2.440
50928W        W17337   0.407  33.905  13.001
50929W        W17338  44.417  19.277   1.517
50930W        W17339   8.884  31.790  12.120
50931W        W17340   6.868   9.395   4.356
50932W        W17341  15.791  33.363   3.698
50933W        W17342  25.725  27.878   0.654
50934W        W17343  41.870   6.924   4.507
50935W        W17344  24.134  12.911   2.456
50936W        W17345  24.805  40.447   4.597
50937W        W17346   9.733  12.208   1.389
50938W        W17347  41.567   3.457  10.586
50939W        W17348  25.177  41.213  11.120
50940W        W17349  33.609  18.252   0.323
50941W        W17350   2.682  10.624   3.176
50942W        W17351   8.289  26.624   4.141
50943W        W17352  24.663  21.237   1.733
50944W        W17353  29.396  13.620   0.027
50945W        W17354  39.432  35.416   4.190
50946W        W17355  38.808  20.844   5.040
50947W        W17356  33.157  40.506   2.844
50948W        W17357  37.956   6.976  12.485
50949W        W17358  27.214  21.633  12.373
50950W        W17359  27.446  43.490   3.012
50951W        W17360  12.549  34.960   4.118
50952W        W17361  10.248   6.355   4.589
50953W        W17362  29.484   3.176  10.332
50954W        W17363  41.296  25.549   2.276
50955W        W17364  35.103  31.751   2.243
50956W        W17365  29.702  16.216  12.926
50957W        W17366  24.641  32.093  13.915
50958W        W17367  27.040  14.674  10.956
50959W        W17368   7.454   8.231  12.456
50960W        W17369  30.006  19.788   1.935
50961W        W17370  41.378  10.862  11.136
50962W        W17371  23.655  24.718   2.756
50963W        W17372  37.822  21.780   1.276
50964W        W17373  24.627  24.262   2.699
50965W        W17374  26.060  31.995  12.915
50966W        W17375  29.607  17.819   2.066
50967W        W17376  12.964  37.492  12.451
50968W        W17377  34.664  10.412  11.144
50969W        W17378  41.033  42.508   0.546
50970W        W17379  27.048  12.868  12.470
50971W        W17380  20.047   2.107  13.396
50972W        W17381  43.968   8.381   0.901
50973W        W17382  11.791  25.153   4.145
50974W        W17383  26.117  40.224   2.150
50975W        W17384  33.382  15.017   2.468
50976W        W17385  22.101   5.382   4.649
50977W        W17386  36.110  41.048  11.090
50978W        W17387  13.453   4.953   0.343
50979W        W17388  14.051  18.232  13.382
50980W        W17389  42.488   5.580   0.327
50981W        W17390  16.994   6.117  11.057
50982W        W17391   2.274  28.734   4.956
50983W        W17392  10.769   5.765  14.592
50984W        W17393   4.383  33.366   0.825
50985W        W17394  17.176  18.376  14.904
50986W        W17395   3.661   7.615  13.813
50987W        W17396   6.701  16.360   4.245
50988W        W17397  35.754  33.694   2.650
50989W        W17398  29.206  23.740   0.662
50990W        W17399  36.582  29.041   4.725
50991W        W17400   8.337  15.481  13.816
50992W        W17401  13.796  11.261   1.774
50993W        W17402  35.988  26.746  13.311
50994W        W17403  36.801  12.806   3.750
50995W        W17404   0.329   5.235  14.925
50996W        W17405  31.901  27.118   1.778
50997W        W17406  29.615  44.644   4.855
50998W        W17407  28.555  26.973  12.024
50999W        W17408  43.015  41.850  11.629
51000W        W17409   2.199  37.361   2.858
51001W        W17410  34.883  39.216   1.236
51002W        W17411  40.192  16.226  13.292
51003W        W17412  19.113  42.971   1.876
51004W        W17413  18.003  25.607   2.912
51005W        W17414  26.278   0.807   4.727
51006W        W17415   7.720   2.795  12.460
51007W        W17416  13.856  17.034  12.962
51008W        W17417  32.508  41.146  10.591
51009W        W17418  10.385  44.241  13.346
51010W        W17419   3.855  21.126   1.619
51011W        W17420  44.329  15.315   0.737
51012W        W17421  12.168  31.649  11.171
51013W        W17422  42.950  36.949  13.582
51014W        W17423   7.867   7.297  10.769
51015W        W17424  36.081  11.321   4.158
51016W        W17425  31.378   1.162  14.077
51017W        W17426  24.533  32.027   4.414
51018W        W17427   7.584   7.474   3.234
51019W        W17428  37.884  34.528   5.029
51020W        W17429  12.497   7.913  13.412
51021W        W17430   7.097  41.430   0.661
51022W        W17431  33.381  30.055  14.933
51023W        W17432  38.474  42.859   0.491
51024W        W17433   6.673  23.849  10.736
51025W        W17434   7.125  17.018  11.861
51026W        W17435  42.550  24.959  14.430
51027W        W17436   0.984  37.351   3.270
51028W        W17437  24.445  23.753  14.845
51029W        W17438  40.350  12.685  11.618
51030W        W17439  24.096   9.518   0.802
51031W        W17440  19.286  34.436   2.709
51032W        W17441  10.265  39.046   3.679
51033W        W17442  10.839  29.822  14.978
51034W        W17443  16.132   9.619   3.152
51035W        W17444  13.306  35.488  12.900
51036W        W17445  23.056  22.703   0.923
51037W        W17446  15.191  36.525  12.664
51038W        W17447  39.766  32.130   2.707
51039W        W17448  24.170   7.286  10.166
51040W        W17449  11.714   0.262  14.339
51041W        W17450   4.294   6.719   0.013
51042W        W17451  42.611   2.217   0.330
51043W        W17452  44.766  27.174  14.392
51044W        W17453  15.918  23.358  14.894
51045W        W17454  39.294   6.921  14.895
51046W        W17455  17.443   0.255   4.098
51047W        W17456  39.312  24.186   4.716
51048W        W17457  21.560   0.555  13.480
51049W        W17458  30.665   7.326  14.019
51050W        W17459   1.322   4.453   3.751
51051W        W17460  16.033  11.362   3.257
51052W        W17461   4.772  17.804  14.043
51053W        W17462   9.913  10.385   1.550
51054W        W17463  17.849   8.793  10.637
51055W        W17464  23.459  29.979  14.902
51056W        W17465  40.800   4.653  12.954
51057W        W17466   3.421  35.466   4.608
51058W        W17467  33.654   6.325   4.811
51059W        W17468  20.170  34.746   4.388
51060W        W17469  32.514  39.639   1.967
51061W        W17470   9.920  41.296  14.711
51062W        W17471  37.863  31.832  13.397
51063W        W17472  19.184  39.073  11.097
51064W        W17473  22.005  16.773   2.875
51065W        W17474  14.940  17.758  11.685
51066W        W17475  29.349   3.498   2.371
51067W        W17476  27.992  14.947  14.835
51068W        W17477  13.268  14.377  13.884
51069W        W17478  13.148  25.703   2.375
51070W        W17479  10.112  24.519  14.018
51071W        W17480  40.761  23.283  11.559
51072W        W17481   8.089  29.451   4.983
51073W        W17482   8.792  40.429   1.391
51074W        W17483  16.161  38.432   0.631
51075W        W17484  32.368   8.842   0.832
51076W        W17485  10.636  14.999   2.131
51077W        W17486  43.362   9.173  13.372
51078W        W17487  20.584   7.741   3.563
51079W        W17488  18.946  39.560  12.846
51080W        W17489  23.734  43.077  12.839
51081W        W17490  25.118   5.681  11.388
51082W        W17491  43.617  28.132  10.984
51083W        W17492  27.543  28.955   3.526
51084W        W17493  29.652  35.135   1.463
51085W        W17494  38.382  13.718  11.164
51086W        W17495  43.090  15.803   1.278
51087W        W17496  19.695  19.804  13.055
51088W        W17497   5.372  24.030  14.039
51089W        W17498  29.645   9.862   4.664
51090W        W17499  24.771  36.117   4.890
51091W        W17500  43.862  41.237  11.560
51092W        W17501  16.024  28.343   2.313
51093W        W17502  12.394  21.270   4.688
51094W        W17503  37.501   6.977  13.848
51095W        W17504  15.067  35.978  12.004
51096W        W17505  22.625   2.713  13.009
51097W        W17506  43.599   3.466   1.291
51098W        W17507  30.124   8.426   4.042
51099W        W17508  32.736   1.827   0.713
51100W        W17509  27.482   3.504  10.822
51101W        W17510  22.809   7.976  10.738
51102W        W17511  13.381  11.503   2.714
51103W        W17512  12.221  30.558   1.762
51104W        W17513   4.737   9.680  10.581
51105W        W17514  30.604   3.875   0.937
51106W        W17515  37.543  23.104  10.461
51107W        W17516  44.389  21.175   0.690
51108W        W17517  12.059  18.822   2.181
51109W        W17518  11.242  13.133   1.344
51110W        W17519   7.035  17.479  11.599
51111W        W17520  37.673  10.813   2.030
51112W        W17521   6.299  37.349   0.686
51113W        W17522  39.435  43.357  12.100
51114W        W17523  32.114  38.416  11.850
51115W        W17524  27.770  42.347   0.713
51116W        W17525  37.774  29.431  11.972
51117W        W17526   1.291  33.079   3.152
51118W        W17527  20.231  40.097   0.263
51119W        W17528  26.253  38.649   0.421
51120W        W17529  21.946   1.846  11.373
51121W        W17530  11.465  34.946  12.250
51122W        W17531  13.094  13.644  12.465
51123W        W17532  35.099  13.819  11.600
51124W        W17533  32.025  12.229   4.243
51125W        W17534  39.414  31.912  11.753
51126W        W17535  32.680  40.310  11.011
51127W        W17536  15.750  31.364  11.586
51128W        W17537   3.269  24.688  11.967
51129W        W17538  16.701  21.770   0.659
51130W        W17539   7.446  26.558   4.182
51131W        W17540  44.539  22.863   5.061
51132W        W17541  39.337  13.180   2.457
51133W        W17542  28.426  22.352   4.482
51134W        W17543  40.450  34.915  12.739
51135W        W17544  37.145  21.738  14.409
51136W        W17545  34.179  34.960   2.037
51137W        W17546  31.981  14.646  13.320
51138W        W17547  16.812  39.743   1.373
51139W        W17548  19.729   4.597   3.723
51140W        W17549  20.212  23.171  13.997
51141W        W17550  12.165  31.110  11.143
51142W        W17551  38.853  37.682  11.904
51143W        W17552  40.692  30.544  11.517
51144W        W17553  36.842  18.025  12.079
51145W        W17554   5.456  30.660  11.513
51146W        W17555  25.953  32.010   3.865
51147W        W17556   5.794   3.011  14.302
51148W        W17557  12.660   8.664   4.762
51149W        W17558  18.650  21.636   4.929
51150W        W17559  25.514  20.524  13.862
51151W        W17560   6.754  39.711   4.747
51152W        W17561  32.480  20.703   0.250
51153W        W17562  34.392  39.547  12.351
51154W        W17563  20.580  35.105  13.006
51155W        W17564  35.478  33.084   4.648
51156W        W17565  18.454   9.643   2.901
51157W        W17566   2.121  31.367   1.176
51158W        W17567  29.949  40.049  11.231
51159W        W17568  39.351  39.994   2.873
51160W        W17569  10.294  24.682   4.651
51161W        W17570  31.586   5.779   4.599
51162W        W17571  25.035  15.028  11.890
51163W        W17572   1.227  43.743   2.390
51164W        W17573  11.126  30.855   1.444
51165W        W17574  36.885  12.370   4.039
51166W        W17575   1.447   8.257   1.851
51167W        W17576  40.923   1.490   1.864
51168W        W17577  16.274  33.279   3.555
51169W        W17578  24.171   9.722   4.808
51170W        W17579  14.028  27.984  11.264
51171W        W17580  21.252  15.619  12.210
51172W        W17581  16.801  31.977  14.924
51173W        W17582   4.993   4.760  10.663
51174W        W17583  15.273  38.624  10.716
51175W        W17584   8.574  33.572  12.420
51176W        W17585  28.074   8.212  11.395
51177W        W17586  23.584   0.435   1.055
51178W        W17587  26.969  21.077  11.697
51179W        W17588  34.128  33.995  14.719
51180W        W17589  27.568  30.573  10.977
51181W        W17590  32.849   4.560  13.947
51182W        W17591  17.983   2.815   3.013
51183W        W17592  18.036   4.723  14.445
51184W        W17593  40.334   3.110  13.033
51185W        W17594  21.221  23.744   3.291
51186W        W17595  15.555  20.765   4.181
51187W        W17596  11.311  39.517   1.876
51188W        W17597   1.938   4.681   1.736
51189W        W17598   5.573  43.309  13.551
51190W        W17599  31.185  38.303   2.087
51191W        W17600  14.240  21.645   1.009
51192W        W17601  22.511   6.625  11.645
51193W        W17602  39.380  21.635   3.329
51194W        W17603  14.594  39.066   2.091
51195W        W17604   4.717  26.460   0.224
51196W        W17605  33.293  23.132   1.317
51197W        W17606   2.929  39.025  13.692
51198W        W17607  21.125   7.015  11.573
51199W        W17608  37.373   7.623   0.311
51200W        W17609  42.553  15.848  13.374
51201W        W17610  44.246  30.837   4.714
51202W        W17611  30.975  43.167  11.233
51203W        W17612  29.655  15.119  11.525
51204W        W17613  17.184  44.744  14.426
51205W        W17614   9.632  38.268   2.719
51206W        W17615  44.897  25.912  12.949
51207W        W17616  28.413  34.179  11.770
51208W        W17617  16.608   1.357  11.621
51209W        W17618  32.009  36.210   1.324
51210W        W17619  40.470   1.798   1.877
51211W        W17620  10.219   6.194  13.909
51212W        W17621  37.084   7.941   0.711
51213W        W17622  16.725   4.033   2.792
51214W        W17623   9.399  33.098   3.243
51215W        W17624  34.978   0.371  13.510
51216W        W17625  18.180  30.527   3.773
51217W        W17626  30.687  32.964   3.717
51218W        W17627  36.499  30.322  12.492
51219W        W17628  20.352  33.581   4.794
51220W        W17629  21.386   7.266  14.029
51221W        W17630  11.388  24.892   4.995
51222W        W17631  18.800  36.103   3.185
51223W        W17632   9.626   5.685   3.253
51224W        W17633  38.503  10.454  13.921
51225W        W17634  24.100   8.742   4.561
51226W        W17635  33.820  18.086  13.846
51227W        W17636   0.480  10.772  10.901
51228W        W17637  21.775  27.710   2.755
51229W        W17638   9.292  20.731   0.013
51230W        W17639  30.255   0.728   2.205
51231W        W17640  21.794  25.971   1.982
51232W        W17641   9.299  17.164  13.533
51233W        W17642  17.528  31.739  12.899
51234W        W17643   6.904  33.262  14.705
51235W        W17644  44.242  23.984   2.700
51236W        W17645  25.572  14.388  11.987
51237W        W17646   9.993  42.843   1.379
51238W        W17647  43.082   3.415  13.379
51239W        W17648  17.717  10.646  13.373
51240W        W17649  31.217   3.388   1.006
51241W        W17650  10.180  43.790  12.406
51242W        W17651  28.472  39.219  11.027
51243W        W17652   8.807   9.809   3.659
51244W        W17653  21.363   2.670  12.902
51245W        W17654  34.507  23.918   3.664
51246W        W17655  15.186  35.353   5.019
51247W        W17656  39.816  13.794  14.232
51248W        W17657  34.324  34.858   3.443
51249W        W17658  20.030  28.410  12.399
51250W        W17659   7.754  21.677  10.582
51251W        W17660  39.770   6.867  12.462
51252W        W17661  23.898   1.877   2.574
51253W        W17662  20.063  23.561   4.220
51254W        W17663  31.939  32.124  12.033
51255W        W17664  32.193   7.307  10.636
51256W        W17665  38.658  42.319   1.718
51257W        W17666  20.648   4.033  12.332
51258W        W17667  16.909   9.418   4.874
51259W        W17668  34.167  33.652   4.390
51260W        W17669  42.937   7.151   0.618
51261W        W17670  41.399  39.319  11.977
51262W        W17671  13.267  36.774   2.436
51263W        W17672  22.173  12.913  14.901
51264W        W17673  42.407   0.915   0.535
51265W        W17674   0.436  17.816  10.857
51266W        W17675   0.848   6.491  11.661
51267W        W17676  33.967  34.906   0.474
51268W        W17677  26.517   2.492  10.611
51269W        W17678  17.890  25.874   1.281
51270W        W17679   4.337  20.819  13.846
51271W        W17680  15.831  16.862  11.365
51272W        W17681   5.293  14.335  11.731
51273W        W17682  29.213   1.767   0.223
51274W        W17683  27.083   7.179  10.212
51275W        W17684  13.577   5.574   3.613
51276W        W17685  11.828  32.471   3.372
51277W        W17686   6.291  30.324  11.963
51278W        W17687  27.225  16.550   3.687
51279W        W17688  27.048  23.261  13.888
51280W        W17689  18.660  33.054  13.570
51281W        W17690  21.199  25.168  13.525
51282W        W17691  16.196  18.647   3.533
51283W        W17692  26.405  35.124   2.053
51284W        W17693  40.369   2.315   0.350
51285W        W17694  42.944  12.768   1.323
51286W        W17695  34.157  31.412  13.826
51287W        W17696  27.587   5.738   4.620
51288W        W17697   0.336   8.837  13.511
51289W        W17698  30.873   8.287  14.967
51290W        W17699  33.655  31.443  10.419
51291W        W17700  36.576  28.545   4.918
51292W        W17701  40.236  28.203  11.106
51293W        W17702  39.702  27.046   2.438
51294W        W17703  13.876  18.183  14.001
51295W        W17704  33.600  24.156   2.219
51296W        W17705   4.391  11.365  11.955
51297W        W17706  29.417  14.661  13.095
51298W        W17707  20.450  16.122   1.891
51299W        W17708   4.467  44.746   2.338
51300W        W17709  33.916   5.220  11.676
51301W        W17710  16.454  20.099   3.264
51302W        W17711  16.467  36.395   0.756
51303W        W17712  31.911  16.701   0.828
51304W        W17713   2.346  32.439   3.162
51305W        W17714  24.357   8.300  13.917
51306W        W17715  42.812  21.929  12.983
51307W        W17716  16.695   5.370  12.380
51308W        W17717  22.995  21.087   1.487
51309W        W17718  10.260  27.121  11.525
51310W        W17719  42.911  35.051  12.905
51311W        W17720  40.191  42.663   2.703
51312W        W17721   8.172  19.610  11.576
51313W        W17722  25.094   2.510  11.217
51314W        W17723   4.922  35.096   4.157
51315W        W17724  28.763   3.326   5.002
51316W        W17725  11.984  38.104  10.111
51317W        W17726   3.443  16.902  14.988
51318W        W17727  21.781  23.534   4.633
51319W        W17728   7.600   7.777  14.862
51320W        W17729  21.097   7.978   0.429
51321W        W17730  19.566  43.321  12.876
51322W        W17731  22.626   3.879  14.382
51323W        W17732  23.490  35.461  10.912
51324W        W17733   9.897  30.543  10.098
51325W        W17734  14.188  44.556  12.961
51326W        W17735  40.442  28.410   0.629
51327W        W17736  36.475   4.737   3.368
51328W        W17737   4.377  35.982  13.838
51329W        W17738  24.000  17.878   3.888
51330W        W17739  22.011  41.866   0.904
51331W        W17740  26.665   5.884  12.067
51332W        W17741  20.806   8.274  14.125
51333W        W17742  13.121  24.132  13.695
51334W        W17743   2.295  12.829  14.818
51335W        W17744  29.973  18.667   4.659
51336W        W17745  39.051   6.367  13.424
51337W        W17746  26.109  20.503   1.632
51338W        W17747  24.221  41.497   2.775
51339W        W17748  43.221  40.145   0.235
51340W        W17749   4.789  39.907   3.341
51341W        W17750  30.152  20.580  13.578
51342W        W17751   5.882  14.184   1.614
51343W        W17752   2.262  16.619   2.428
51344W        W17753   2.840  36.983   3.222
51345W        W17754   6.220  22.906   2.290
51346W        W17755  38.799  34.514   4.614
51347W        W17756  18.896  10.811  11.443
51348W        W17757  12.641  20.345  11.469
51349W        W17758  19.518  18.284  10.879
51350W        W17759   2.619  36.449   1.946
51351W        W17760   3.534  26.515  14.905
51352W        W17761  23.239  39.908   1.326
51353W        W17762  18.299  17.509  13.913
51354W        W17763  14.125   3.410  10.690
51355W        W17764  22.533  19.749   2.323
51356W        W17765  23.182   6.478   1.256
51357W        W17766  23.625  27.094   1.234
51358W        W17767  23.761  22.929  14.997
51359W        W17768  15.856  23.538   2.740
51360W        W17769  39.303  15.078  14.359
51361W        W17770   1.611   1.064   2.086
51362W        W17771  20.069   9.310  12.385
51363W        W17772  42.497  32.084  13.930
51364W        W17773  14.828  10.781  14.317
51365W        W17774  19.206  42.155   3.715
51366W        W17775  29.013   9.966   2.246
51367W        W17776  44.950  24.609   0.442
51368W        W17777  20.835  16.118  14.365
51369W        W17778  40.934   0.482   2.773
51370W        W17779  21.463  30.010  11.206
51371W        W17780   8.256  44.430  11.529
51372W        W17781   7.099   6.816   3.835
51373W        W17782   6.364  31.518  14.803
51374W        W17783  30.588  10.841   2.957
51375W        W17784  26.555  24.019  14.978
51376W        W17785  44.277  20.638   2.780
51377W        W17786  18.179  41.993   1.368
51378W        W17787  28.477  31.934   4.803
51379W        W17788  42.686  37.544  12.096
51380W        W17789  24.638  40.344   0.001
51381W        W17790   2.492   9.546  13.029
51382W        W17791  32.694  14.618   2.964
51383W        W17792  34.954   0.870  12.638
51384W        W17793  27.680  26.665   2.079
51385W        W17794   5.197   8.901   2.724
51386W        W17795  18.756  42.201   1.107
51387W        W17796  31.404  37.006   0.359
51388W        W17797  36.284  13.673  14.775
51389W        W17798  16.544  17.393   3.653
51390W        W17799  11.882  37.924  10.908
51391W        W17800   8.779  11.877   1.559
51392W        W17801  22.720  15.979  11.612
51393W        W17802  27.194  43.124   4.132
51394W        W17803  34.394  29.742  11.965
51395W        W17804  22.408   2.825  14.947
51396W        W17805  21.957  20.028   4.606
51397W        W17806  31.403  11.973   0.537
51398W        W17807  25.534  14.911  13.945
51399W        W17808  15.118  16.330   3.504
51400W        W17809  15.834  19.868   3.846
51401W        W17810  29.652  34.901  10.554
51402W        W17811   3.855  23.989  10.688
51403W        W17812  24.991  44.761  10.707
51404W        W17813  10.939  13.536   1.186
51405W        W17814  43.715  21.947  10.685
51406W        W17815   2.200   0.913   3.231
51407W        W17816  22.438  36.816  12.990
51408W        W17817  41.259  19.278   1.805
51409W        W17818   3.481  10.329   2.297
51410W        W17819  18.825   9.639  14.242
51411W        W17820   7.951  12.136   4.821
51412W        W17821  37.081  37.912   3.805
51413W        W17822  31.626   4.155  12.507
51414W        W17823  21.008  37.076   4.300
51415W        W17824  42.389  43.266  10.446
51416W        W17825  11.277  37.883  12.305
51417W        W17826  33.706  13.203   1.223
51418W        W17827  39.567   2.018  11.215
51419W        W17828   1.009  16.599  11.516
51420W        W17829   3.792  40.802  14.713
51421W        W17830   9.823  16.149   2.729
51422W        W17831  12.746  19.735   0.358
51423W        W17832  14.289  15.378   3.810
51424W        W17833  38.048  41.712  14.535
51425W        W17834  26.141  18.386   4.822
51426W        W17835  13.162  22.182   2.437
51427W        W17836  16.090  34.521  11.691
51428W        W17837   1.301   7.791   0.386
51429W        W17838  18.639  13.971  13.361
51430W        W17839  13.916  24.458  12.180
51431W        W17840  19.109  14.155  13.611
51432W        W17841  30.199  33.454  14.251
51433W        W17842  11.525   6.468  13.427
51434W        W17843   7.870  34.386   3.680
51435W        W17844  40.089   8.257   3.215
51436W        W17845  28.673  30.647  14.842
51437W        W17846  42.803   0.083   1.069
51438W        W17847  39.809  24.630  13.017
51439W        W17848  11.772  22.709  12.777
51440W        W17849  41.163   8.660  10.370
51441W        W17850  44.800  15.169  11.544
51442W        W17851   0.920  20.224  14.369
51443W        W17852  17.737  19.214  12.876
51444W        W17853  41.251  22.708   3.252
51445W        W17854  24.123  39.279  13.700
51446W        W17855  22.371  41.616   4.275
51447W        W17856  33.084   6.518   0.797
51448W        W17857  19.950   5.263  11.506
51449W        W17858  25.153  31.515   2.272
51450W        W17859  27.639  18.799  11.976
51451W        W17860  22.817  31.731   3.951
51452W        W17861  13.619  10.684   1.216
51453W        W17862  42.054  29.642  12.972
51454W        W17863  42.887  27.162  11.647
51455W        W17864  35.622  13.985  14.032
51456W        W17865  16.184  22.733   4.749
51457W        W17866  28.066  34.620   3.288
51458W        W17867   8.262  36.980  12.560
51459W        W17868  11.643   2.583  13.557
51460W        W17869  12.347  44.227  11.210
51461W        W17870  26.416  36.053  14.802
51462W        W17871  34.982   9.322   4.576
51463W        W17872   3.462  15.615  13.311
51464W        W17873  35.470  27.693   2.706
51465W        W17874  30.441  37.450  11.653
51466W        W17875  36.675   6.265   4.942
51467W        W17876  35.579   7.153  11.952
51468W        W17877  18.703   5.128   3.232
51469W        W17878  43.513  31.718  10.635
51470W        W17879  42.976   6.848  10.453
51471W        W17880  43.990  33.098  13.486
51472W        W17881  38.614   4.705  12.425
51473W        W17882  32.127  16.079   0.206
51474W        W17883  34.542  26.601  11.179
51475W        W17884  40.598  29.479  14.048
51476W        W17885   6.089   5.303   4.013
51477W        W17886  30.492   2.239   1.872
51478W        W17887  26.991  24.902  13.468
51479W        W17888   5.183  36.251   1.305
51480W        W17889   1.651  44.980   1.285
51481W        W17890   0.993  13.593  13.912
51482W        W17891  34.408  23.587   4.216
51483W        W17892  21.694  12.182   1.005
51484W        W17893  44.708  32.645   4.179
51485W        W17894  17.287  41.775   0.349
51486W        W17895  37.577  14.995  13.832
51487W        W17896  40.100  35.996   0.473
51488W        W17897  16.167   7.343  12.487
51489W        W17898  17.614  18.676   4.044
51490W        W17899  36.810  16.146  11.290
51491W        W17900  24.673  10.192   3.303
51492W        W17901  11.986  17.493  12.671
51493W        W17902   5.139   9.898   2.942
51494W        W17903   7.804  42.538   4.309
51495W        W17904   3.751  23.020   2.867
51496W        W17905  34.153   1.547  11.085
51497W        W17906  39.988  22.659   1.414
51498W        W17907  26.184  44.650  14.466
51499W        W17908  39.338   0.505   1.802
51500W        W17909   9.677   1.649  11.103
51501W        W17910  31.950  34.826  11.169
51502W        W17911  28.507  17.137   3.283
51503W        W17912  18.703  43.208   0.052
51504W        W17913  43.942  27.596   0.826
51505W        W17914  43.975  15.656   4.140
51506W        W17915  34.237  44.175   0.907
51507W        W17916  23.337  22.967   2.232
51508W        W17917   6.377  19.100  13.601
51509W        W17918  29.206  21.511   3.322
51510W        W17919   1.198  17.676  12.172
51511W        W17920   0.922  36.918  11.880
51512W        W17921  44.817  29.678   3.263
51513W        W17922   4.251  33.385   0.252
51514W        W17923  29.565  39.461  13.149
51515W        W17924  26.092   3.879   1.146
51516W        W17925  40.776   0.658  11.147
51517W        W17926  18.833  44.218   4.509
51518W        W17927  17.866   7.838   2.217
51519W        W17928  27.717  34.824  13.856
51520W        W17929  43.474  37.858  14.291
51521W        W17930  17.810  27.236  10.702
51522W        W17931  16.653  41.697  14.977
51523W        W17932  39.469  20.095   1.849
51524W        W17933  32.947  38.771   1.432
51525W        W17934  13.419   8.350  14.785
51526W        W17935  26.938  37.094  10.729
51527W        W17936  22.064  41.583   4.731
51528W        W17937   1.152  10.734   4.661
51529W        W17938  16.741  15.894   1.878
51530W        W17939   8.950  19.096   2.859
51531W        W17940   4.448  36.606   2.300
51532W        W17941  17.831  36.917  12.959
51533W        W17942  17.301  10.635  10.826
51534W        W17943   9.543  15.606   4.153
51535W        W17944  39.553  43.178  10.741
51536W        W17945   4.294   3.495  13.361
51537W        W17946  20.454  41.687  13.434
51538W        W17947  29.384  15.308   1.290
51539W        W17948   5.249   0.225  11.943
51540W        W17949   4.945  16.194   3.324
51541W        W17950  27.658  31.453  12.827
51542W        W17951  29.196   1.434  12.439
51543W        W17952  30.545   0.927  14.228
51544W        W17953  25.179   6.211   0.975
51545W        W17954   5.801   5.233   3.583
51546W        W17955  13.197   0.651  12.519
51547W        W17956  20.285  31.615  13.495
51548W        W17957   8.173   3.395  14.345
51549W        W17958  25.404   4.093  14.784
51550W        W17959  14.842  17.249   3.299
51551W        W17960   2.377  40.259  13.864
51552W        W17961  29.017  35.835   0.500
51553W        W17962  11.666  38.085  14.448
51554W        W17963  31.896   3.228  14.794
51555W        W17964  41.294   5.767   4.215
51556W        W17965   8.313   6.925  12.356
51557W        W17966  29.699  29.270  13.938
51558W        W17967  32.393  21.183  14.997
51559W        W17968  35.296  42.364   3.682
51560W        W17969  44.020  27.509  12.094
51561W        W17970  26.538  24.106  11.682
51562W        W17971  17.637  42.719  13.040
51563W        W17972  27.387  42.106  13.929
51564W        W17973  43.108  33.260   1.318
51565W        W17974  38.798  35.452  14.533
51566W        W17975  34.925  40.689  12.538
51567W        W17976  35.079  42.251   0.370
51568W        W17977  44.689  11.257  14.409
51569W        W17978  22.618   9.311   1.307
51570W        W17979  24.614  17.301   0.949
51571W        W17980  33.357  42.852   3.203
51572W        W17981   8.083  31.990   3.595
51573W        W17982  37.509  36.598  13.078
51574W        W17983   3.481  22.534   3.731
51575W        W17984  31.567  21.762  12.599
51576W        W17985  41.265  21.654   0.220
51577W        W17986  41.989  32.463  14.979
51578W        W17987  13.946  23.768   3.649
51579W        W17988  20.140  13.580  10.515
51580W        W17989  32.962  40.880  13.080
51581W        W17990  12.703   0.855   0.157
51582W        W17991  22.153   7.697  14.944
51583W        W17992  38.198  11.892   1.153
51584W        W17993  37.353   5.852  12.092
51585W        W17994  13.102  36.618  14.093
51586W        W17995  17.635  26.955   3.190
51587W        W17996  19.542  12.831   3.814
51588W        W17997  41.938  23.069   4.835
51589W        W17998  41.024   9.869  12.569
51590W        W17999  26.117  21.566   1.395
51591W        W18000  30.941  34.571   1.212
51592W        W18001  28.620  20.748   2.754
51593W        W18002  43.050  18.801   0.504
51594W        W18003   7.431  25.563  12.264
51595W        W18004  26.450  15.790   0.225
51596W        W18005  18.941  38.931   2.372
51597W        W18006  41.470  19.501   2.788
51598W        W18007  43.493  40.814   4.415
51599W        W18008  22.124  41.475  11.634
51600W        W18009  35.850  41.893   4.614
51601W        W18010   4.316  32.481  12.437
51602W        W18011   7.725   9.143   3.927
51603W        W18012   4.999   8.180  13.960
51604W        W18013   0.226  44.483   1.174
51605W        W18014  40.960  30.027   0.710
51606W        W18015   3.254   7.916  11.837
51607W        W18016  40.948  28.453   0.462
51608W        W18017  25.111  39.581  12.520
51609W        W18018   4.248  44.937   1.898
51610W        W18019  38.861   9.197  12.102
51611W        W18020  28.037  43.822   3.515
51612W        W18021   0.989   8.492  13.585
51613W        W18022  30.147  28.579   4.785
51614W        W18023   3.856  27.321   3.289
51615W        W18024  40.808  35.988  14.403
51616W        W18025  10.706  10.797  13.904
51617W        W18026  42.362  30.878   0.375
51618W        W18027  42.442  19.973  12.461
51619W        W18028  29.677  33.782   4.149
51620W        W18029  10.644  30.948  12.043
51621W        W18030  26.952  19.727   1.326
51622W        W18031   6.899  43.804  11.261
51623W        W18032  14.532  23.472  11.204
51624W        W18033  29.188  10.968   2.221
51625W        W18034  18.531  14.034  14.270
51626W        W18035  40.566   8.922   2.809
51627W        W18036  20.154  20.751   3.785
51628W        W18037  15.367  27.737   0.028
51629W        W18038  28.289  44.594  10.171
51630W        W18039  26.392  21.291  10.794
51631W        W18040  30.895  20.241   3.561
51632W        W18041  33.667   8.682   4.948
51633W        W18042  27.198  18.706   0.410
51634W        W18043  31.307  15.147   0.407
51635W        W18044   5.116  12.162   3.250
51636W        W18045   5.711  14.849   4.079
51637W        W18046  10.895  31.160  10.815
51638W        W18047  31.094  40.481   2.566
51639W        W18048  15.322  29.940   3.605
51640W        W18049   6.345  15.264  14.801
51641W        W18050  29.871  35.027   3.881
51642W        W18051  34.185  16.130   3.610
51643W        W18052  37.407  19.705  13.549
51644W        W18053   4.609   4.137   2.801
51645W        W18054  11.295  18.038   4.521
51646W        W18055  23.654  19.052   1.747
51647W        W18056  14.150  34.046   1.142
51648W        W18057  18.936  26.966   0.984
51649W        W18058  24.093  15.751   3.119
51650W        W18059  15.503   6.845  12.885
51651W        W18060   6.257  31.756   0.251
51652W        W18061  29.269  31.430  11.705
51653W        W18062  35.782  17.352   2.754
51654W        W18063  40.848   7.868   0.258
51655W        W18064  40.127  37.462  11.415
51656W        W18065   2.454   3.957   3.677
51657W        W18066  16.073   4.575  12.541
51658W        W18067  15.525  24.654   3.164
51659W        W18068  22.247  42.915   3.240
51660W        W18069   7.873  11.219  13.285
51661W        W18070  24.460  21.124   3.618
51662W        W18071  18.595   7.058  10.618
51663W        W18072  25.307  43.351   0.402
51664W        W18073   3.764   0.881  12.780
51665W        W18074  21.832  18.139  13.131
51666W        W18075   2.487  20.949   4.593
51667W        W18076  28.038  19.589   4.633
51668W        W18077  17.167  24.140  12.476
51669W        W18078   9.318  19.348  12.965
51670W        W18079  40.777  31.047  11.606
51671W        W18080  34.475  44.401  12.588
51672W        W18081  15.580  24.674   1.158
51673W        W18082  10.607  32.118   0.725
51674W        W18083  20.975   0.024  14.124
51675W        W18084  21.512  41.285   1.888
51676W        W18085  10.264  18.023  10.380
51677W        W18086  33.534  26.975   3.680
51678W        W18087  28.691  17.372  12.568
51679W        W18088  40.313  43.333  12.455
51680W        W18089  43.843  19.190  10.682
51681W        W18090  10.195  32.546  13.978
51682W        W18091  25.783  38.282  13.420
51683W        W18092  25.467  11.612   2.201
51684W        W18093   0.807  26.089   1.217
51685W        W18094  23.935   6.338   4.107
51686W        W18095  22.914   9.766   1.366
51687W        W18096  40.416   5.928   4.644
51688W        W18097  37.830   1.811   4.719
51689W        W18098  28.483  26.149   4.612
51690W        W18099   6.942   6.912  13.379
51691W        W18100  42.343  21.792  11.414
51692W        W18101   0.470  36.757   4.122
51693W        W18102  40.031  44.225   3.781
51694W        W18103  27.817  35.894  11.214
51695W        W18104   7.225  23.231   3.583
51696W        W18105  32.848  33.378   3.240
51697W        W18106   6.252  22.220   4.554
51698W        W18107   0.232  12.294   2.588
51699W        W18108   6.027  21.498  11.406
51700W        W18109  23.072   3.306  13.552
51701W        W18110  34.118  24.797   4.015
51702W        W18111   7.399  27.483   0.934
51703W        W18112   9.979  34.216   4.876
51704W        W18113  12.420  26.115   3.929
51705W        W18114  44.990  13.884   1.515
51706W        W18115  31.073  20.304   0.711
51707W        W18116  33.342  29.938  13.874
51708W        W18117  23.234  35.520   2.962
51709W        W18118   8.281  44.454   2.856
51710W        W18119  37.038  37.498  10.293
51711W        W18120  15.491  11.318   0.269
51712W        W18121  39.144   2.295  11.058
51713W        W18122  14.801  20.284   1.834
51714W        W18123   7.423   3.201  13.261
51715W        W18124  14.585  13.110   4.970
51716W        W18125  33.625  11.798   1.888
51717W        W18126  34.986  44.552   4.608
51718W        W18127  28.226  21.582  11.371
51719W        W18128  30.498  42.881  14.881
51720W        W18129  38.807  16.878   0.535
51721W        W18130  41.662  40.820  12.920
51722W        W18131  19.058   7.372  13.682
51723W        W18132  44.972  16.389  14.113
51724W        W18133  35.403  41.289  13.628
51725W        W18134  22.329  14.731   4.556
51726W        W18135  14.896  21.763   4.035
51727W        W18136  12.801  19.678  12.479
51728W        W18137  22.523  28.416   3.683
51729W        W18138  36.469  12.680   0.261
51730W        W18139  28.600  25.227   2.246
51731W        W18140  10.643   3.833   2.586
51732W        W18141  44.230   3.241   0.445
51733W        W18142   0.083  38.584   4.471
51734W        W18143  28.786  28.530   3.740
51735W        W18144  40.014  35.460  13.878
51736W        W18145  22.685  30.455  14.926
51737W        W18146  26.066  14.627   0.931
51738W        W18147  27.665  43.970   3.159
51739W        W18148   0.871  25.039  13.472
51740W        W18149  28.243  42.037   2.740
51741W        W18150  18.623   9.301   4.756
51742W        W18151  18.520  38.020   3.560
51743W        W18152  11.238  12.354  10.676
51744W        W18153  43.797   6.817   1.284
51745W        W18154  35.095  24.207  13.420
51746W        W18155  37.912  41.392  11.305
51747W        W18156   3.255  42.788  12.196
51748W        W18157   8.740  13.911  13.058
51749W        W18158  21.286  32.162   2.301
51750W        W18159  26.207  42.811  13.970
51751W        W18160  14.664  27.989   2.197
51752W        W18161  42.306   9.654  13.946
51753W        W18162  33.131  31.632  11.165
51754W        W18163  11.828  15.293  12.983
51755W        W18164  21.933  36.821   4.292
51756W        W18165  12.447  29.993  11.932
51757W        W18166  23.689  33.634  14.752
51758W        W18167   2.814  33.538   3.270
51759W        W18168  44.352  24.424  13.322
51760W        W18169  33.710  35.511  13.329
51761W        W18170  37.620   0.863  12.011
51762W        W18171   1.786  42.888   2.365
51763W        W18172  42.453  22.614  10.411
51764W        W18173  10.884  20.093  11.597
51765W        W18174  17.992  19.076  12.449
51766W        W18175  44.370  31.170   2.894
51767W        W18176  21.208  15.568   4.933
51768W        W18177  16.269  27.053  14.415
51769W        W18178  17.972   1.247  11.024
51770W        W18179   1.457  32.634   1.691
51771W        W18180  43.011  13.630   1.453
51772W        W18181  21.214  24.899  10.778
51773W        W18182   3.188  27.966  11.717
51774W        W18183  27.501  43.452  13.978
51775W        W18184  37.499   2.706   1.639
51776W        W18185  33.762   2.025  11.070
51777W        W18186  26.773  33.115  14.950
51778W        W18187  24.014  36.270   3.824
51779W        W18188  36.413  16.765   2.191
51780W        W18189  17.681   0.414   4.529
51781W        W18190   4.911  25.520   2.297
51782W        W18191  28.724  33.220   4.538
51783W        W18192  32.411  13.431  14.994
51784W        W18193  22.965  35.416  12.318
51785W        W18194  10.374  23.201  10.581
51786W        W18195  41.699  32.533  13.742
51787W        W18196  21.708  13.297   4.561
51788W        W18197  12.316  12.687   4.078
51789W        W18198  16.573  28.380   1.483
51790W        W18199  20.310  41.484  11.366
51791W        W18200  27.671   1.291  11.551
51792W        W18201  18.076  37.463   2.350
51793W        W18202   8.752   0.468  12.083
51794W        W18203  19.099  44.599  13.479
51795W        W18204  24.063  14.380  10.746
51796W        W18205   9.160  19.767   4.081
51797W        W18206  42.885  25.097  13.361
51798W        W18207   0.845  32.822   3.260
51799W        W18208   9.523  26.508  14.328
51800W        W18209   3.819  21.565   2.770
51801W        W18210   5.336  22.833  10.493
51802W        W18211  16.573  21.733  11.288
51803W        W18212  42.731  13.632  11.736
51804W        W18213  35.472  12.846   0.918
51805W        W18214  23.013  24.345  12.708
51806W        W18215  40.855   7.743  10.300
51807W        W18216  28.603  21.722   4.235
51808W        W18217  27.950   6.549  13.299
51809W        W18218  24.231  17.431  12.044
51810W        W18219  15.269  22.838  10.696
51811W        W18220   1.873   1.174  11.626
51812W        W18221  25.597  32.487  13.302
51813W        W18222   4.823  16.058  11.483
51814W        W18223  25.992  17.071   1.929
51815W        W18224  25.695  28.876   0.704
51816W        W18225   0.012  19.916  14.838
51817W        W18226  38.172   9.112  11.140
51818W        W18227   2.976  29.652  14.932
51819W        W18228  39.056  18.724   4.118
51820W        W18229  26.252  41.851   0.258
51821W        W18230  10.379  14.411  14.091
51822W        W18231   4.610  22.387  13.971
51823W        W18232  19.696  20.571   3.605
51824W        W18233   1.915   4.661  14.288
51825W        W18234  39.027  23.547   1.687
51826W        W18235  41.696   0.701   1.791
51827W        W18236  42.545  31.525   1.671
51828W        W18237  17.121  44.769   1.697
51829W        W18238  19.115   5.260   1.455
51830W        W18239  36.576  37.440  13.796
51831W        W18240  28.571  36.974  10.901
51832W        W18241  36.948  20.683   1.786
51833W        W18242  15.097  37.766   2.385
51834W        W18243   5.935  12.831   4.387
51835W        W18244  24.344  41.833  11.254
51836W        W18245  41.284  34.851  12.497
51837W        W18246  44.013  11.628   4.154
51838W        W18247  41.389  23.165   3.098
51839W        W18248   8.603  30.948  11.231
51840W        W18249  19.597  23.795  13.041
51841W        W18250   8.548   1.478  14.272
51842W        W18251  29.337  27.932  12.385
51843W        W18252  34.544  31.660   4.210
51844W        W18253  26.502  15.806  10.354
51845W        W18254  31.082  18.332   4.050
51846W        W18255  29.551  16.869  11.398
51847W        W18256  18.770  32.484   1.233
51848W        W18257  17.315  35.851  13.768
51849W        W18258  37.876  18.328   0.070
51850W        W18259   2.514  18.059  12.120
51851W        W18260  16.501   1.387  12.497
51852W        W18261  23.064  44.562  10.757
51853W        W18262  36.007  30.892   1.816
51854W        W18263  20.229   2.972   0.471
51855W        W18264   5.244  38.009  12.790
51856W        W18265   5.669  43.585  11.658
51857W        W18266  42.208  15.328   1.125
51858W        W18267  33.597  37.614  13.326
51859W        W18268  20.709   1.039   0.824
51860W        W18269  12.757   2.809  12.071
51861W        W18270  10.323  24.970  12.445
51862W        W18271  33.915   8.023   4.265
51863W        W18272  17.948   3.220   4.944
51864W        W18273  31.032   9.575  10.230
51865W        W18274  17.009  34.374   0.745
51866W        W18275  32.076  43.296   4.864
51867W        W18276   4.818  37.916  10.103
51868W        W18277  20.032  24.199   1.483
51869W        W18278  29.096  37.319   1.438
51870W        W18279  42.028  28.357  14.943
51871W        W18280  10.369  32.054   2.318
51872W        W18281   0.563  13.030   0.692
51873W        W18282  42.426  13.131  14.824
51874W        W18283  19.439   8.254   0.840
51875W        W18284  28.402   3.031  13.067
51876W        W18285  27.427  24.656  12.533
51877W        W18286  20.733  18.171   1.345
51878W        W18287  24.820  42.568  11.173
51879W        W18288  11.380  17.780   1.772
51880W        W18289  33.998  18.184  14.345
51881W        W18290  13.841   7.788  12.109
51882W        W18291   9.969   1.244  11.858
51883W        W18292  13.290   1.691   1.336
51884W        W18293  42.084  13.708   3.122
51885W        W18294  43.292   1.687   0.001
51886W        W18295  38.957   9.960   4.930
51887W        W18296   2.100   3.480   4.717
51888W        W18297  14.277  36.842   0.346
51889W        W18298  41.394   8.150  14.142
51890W        W18299   8.592  12.519   4.229
51891W        W18300   9.653   5.314  14.521
51892W        W18301  17.604  25.607   0.030
51893W        W18302  21.255   9.705   2.727
51894W        W18303  42.408  43.464  14.382
51895W        W18304   5.711  31.938  14.588
51896W        W18305   0.008   4.262  12.005
51897W        W18306  27.226   2.836   3.420
51898W        W18307  41.853  10.182  14.951
51899W        W18308  36.044  30.588   0.250
51900W        W18309  38.551  42.001   4.506
51901W        W18310  43.590  14.461   2.795
51902W        W18311  25.545  31.605  13.292
51903W        W18312  37.529  11.756  10.418
51904W        W18313  35.566  33.409   1.395
51905W        W18314  27.780  37.556  13.347
51906W        W18315  28.093   9.448  14.347
51907W        W18316  34.469  18.117  13.481
51908W        W18317  36.018  40.886   2.217
51909W        W18318   0.076   6.851  12.008
51910W        W18319   4.660  30.951  14.077
51911W        W18320  26.677  16.105   2.894
51912W        W18321  13.583  30.413  11.119
51913W        W18322  31.691   1.534  10.324
51914W        W18323  15.115  10.704  12.494
51915W        W18324  31.178  36.538  12.454
51916W        W18325  26.551   2.975   5.156
51917W        W18326  13.598  16.528   2.379
51918W        W18327   3.255   7.709  12.910
51919W        W18328  20.271  11.802   2.426
51920W        W18329  23.172  40.722  10.821
51921W        W18330   3.778   6.692  11.882
51922W        W18331  13.263  13.807  13.973
51923W        W18332  40.535  17.264  13.817
51924W        W18333  28.002  28.269   3.597
51925W        W18334  31.018  39.358  11.297
51926W        W18335  38.801  39.311  13.857
51927W        W18336  21.998  28.288   0.674
51928W        W18337  14.067  34.292  10.722
51929W        W18338   5.245  22.264  11.796
51930W        W18339  32.881  27.026   1.151
51931W        W18340  19.207  14.864   2.490
51932W        W18341   5.496  36.472   1.677
51933W        W18342  28.098  41.951   3.722
51934W        W18343  20.623  39.896  13.986
51935W        W18344  18.648  18.355   3.268
51936W        W18345   6.416  14.073   0.046
51937W        W18346  31.202  26.898   0.766
51938W        W18347   6.641  24.714  12.815
51939W        W18348  40.876  25.542   4.421
51940W        W18349   5.172  17.727   0.234
51941W        W18350  11.237  38.365  12.436
51942W        W18351  16.982  18.611  10.652
51943W        W18352  43.526   4.394   1.370
51944W        W18353  30.506  37.974  10.736
51945W        W18354  39.622  16.822  12.198
51946W        W18355  37.378   6.186  12.516
51947W        W18356  12.086   1.520   2.361
51948W        W18357  31.823  41.472  14.214
51949W        W18358   4.765  14.027   0.778
51950W        W18359  44.756  17.527  13.882
51951W        W18360  23.935  37.873   3.041
51952W        W18361   8.575  16.822   1.288
51953W        W18362  43.844   8.734   2.664
51954W        W18363  17.167  21.247   0.250
51955W        W18364  35.527  28.582   2.445
51956W        W18365  12.855   1.030  12.453
51957W        W18366  42.587  14.297   4.115
51958W        W18367  13.743  17.284   0.348
51959W        W18368  27.952  22.139   0.782
51960W        W18369  41.493  28.964   0.217
51961W        W18370  35.129  29.206  13.822
51962W        W18371   5.935   6.492  14.066
51963W        W18372  12.542  28.573  12.533
51964W        W18373  43.716  37.880   0.521
51965W        W18374   8.051  32.204  13.481
51966W        W18375  28.493  32.074  13.772
51967W        W18376  39.730  33.372  13.395
51968W        W18377  20.783  24.651  10.646
51969W        W18378  23.154   7.649  11.080
51970W        W18379  26.596   5.980  10.716
51971W        W18380  27.566   7.834  13.646
51972W        W18381   5.400  18.140   1.498
51973W        W18382  36.071  42.549  11.217
51974W        W18383  32.535  19.798   0.206
51975W        W18384   0.735  31.599  14.254
51976W        W18385  36.407  44.411  12.188
51977W        W18386  10.659  10.800   1.802
51978W        W18387  20.614  25.648  10.627
51979W        W18388  17.891   8.884  13.401
51980W        W18389  36.418  39.208  11.914
51981W        W18390   4.467  42.574  11.586
51982W        W18391  20.349  10.884   3.031
51983W        W18392  38.612  10.310   3.262
51984W        W18393   5.261  11.333  12.035
51985W        W18394   4.841   1.963   3.990
51986W        W18395   2.464  35.310   4.397
51987W        W18396   2.905  31.475  13.146
51988W        W18397  10.477   7.282  14.729
51989W        W18398  13.053  17.065  11.136
51990W        W18399  18.334  19.073   2.768
51991W        W18400  40.528  20.629   0.704
51992W        W18401  11.017  30.183  11.972
51993W        W18402  17.827   6.607  13.942
51994W        W18403  20.096  43.420   1.843
51995W        W18404  12.822  13.058   3.247
51996W        W18405   4.351  42.054   1.405
51997W        W18406  39.960  44.338   0.542
51998W        W18407  35.294  18.076  10.687
51999W        W18408  31.571  16.102  14.466
52000W        W18409  22.674  22.429  14.423
52001W        W18410  33.819   4.968   0.483
52002W        W18411  10.961  35.159   2.607
52003W        W18412  22.692  39.911   1.299
52004W        W18413  30.011  14.777   3.062
52005W        W18414   4.200  31.887  13.034
52006W        W18415  41.356   1.922   0.257
52007W        W18416  27.613   7.331   5.152
52008W        W18417  34.557  33.828  14.464
52009W        W18418  18.144  24.557   4.327
52010W        W18419   1.054   9.469   9.756
52011W        W18420  42.864  35.314  12.429
52012W        W18421  24.224  40.373  12.970
52013W        W18422  42.376  38.912  10.972
52014W        W18423  33.646   0.391  10.279
52015W        W18424  27.589  30.412   4.462
52016W        W18425   9.461  29.663  13.334
52017W        W18426  23.702  39.282  13.001
52018W        W18427  29.139   6.321   3.586
52019W        W18428  25.600   0.510  11.756
52020W        W18429  34.638  38.853   3.210
52021W        W18430  12.625   6.894   4.111
52022W        W18431  20.750  23.508   4.488
52023W        W18432  22.022   1.993   3.898
52024W        W18433   0.923  41.205  14.385
52025W        W18434   4.255   5.672  12.511
52026W        W18435  27.496  15.077  13.941
52027W        W18436   9.130  44.719   2.204
52028W        W18437  40.394  38.246  13.369
52029W        W18438  31.728  21.067   1.884
52030W        W18439  10.235   9.939   3.564
52031W        W18440   3.914  43.783  14.410
52032W        W18441   5.272   3.509  12.834
52033W        W18442  39.424   0.859  12.241
52034W        W18443  38.527  13.659  14.444
52035W        W18444  29.098  35.207  11.176
52036W        W18445   0.407  25.139  11.166
52037W        W18446  14.258   1.525  10.933
52038W        W18447  26.702  27.601  14.329
52039W        W18448  27.157  40.226  11.508
52040W        W18449  34.340  40.295  11.951
52041W        W18450  30.923  28.977   3.375
52042W        W18451  43.402  30.989  11.893
52043W        W18452  42.902  23.719  14.319
52044W        W18453  27.229  42.266   3.694
52045W        W18454  20.616  33.796   0.246
52046W        W18455  31.594  18.623   0.624
52047W        W18456   5.285   2.221  14.367
52048W        W18457  14.192  39.647  14.884
52049W        W18458  18.877   4.900   1.802
52050W        W18459  38.334  42.716   3.871
52051W        W18460  22.926  40.280   0.301
52052W        W18461  35.540  10.266  13.030
52053W        W18462  26.505  43.313   3.406
52054W        W18463  32.088  13.377  14.442
52055W        W18464  32.036  42.764   2.403
52056W        W18465   7.694  17.730  11.575
52057W        W18466  38.335   6.812  12.131
52058W        W18467  31.445  31.982  11.165
52059W        W18468  13.675   8.716  10.789
52060W        W18469  22.326   5.778  11.986
52061W        W18470  16.757  18.242   1.759
52062W        W18471  22.432  24.635  12.102
52063W        W18472  19.795   8.986  10.483
52064W        W18473   2.751  19.060   3.702
52065W        W18474   8.737   7.258   2.337
52066W        W18475  44.585   6.727  12.018
52067W        W18476  14.286  31.017  11.540
52068W        W18477  29.533  43.277  13.897
52069W        W18478   0.714  33.986   0.409
52070W        W18479   8.097  29.813  11.484
52071W        W18480  31.865  27.624   1.019
52072W        W18481   0.574  37.969  11.700
52073W        W18482  18.142  43.715   1.790
52074W        W18483  24.224  20.521  14.809
52075W        W18484   8.687  32.113  12.474
52076W        W18485  11.977  33.571  13.100
52077W        W18486  22.996  40.226  10.792
52078W        W18487  39.319  19.561   5.421
52079W        W18488  31.456  35.446   1.296
52080W        W18489  12.901  10.083   1.724
52081W        W18490   2.209  17.639  12.095
52082W        W18491   9.984  34.704  12.192
52083W        W18492  40.419   0.491   4.303
52084W        W18493   3.993   0.646  11.166
52085W        W18494  12.039  17.621   4.408
52086W        W18495  37.523  43.768  13.510
52087W        W18496  13.557  23.153   0.959
52088W        W18497  21.111   2.242  13.978
52089W        W18498  37.203   2.235   0.924
52090W        W18499  36.561   1.855   4.115
52091W        W18500   7.251  29.567  11.356
52092W        W18501  37.638   0.011   1.298
52093W        W18502  22.770  26.676  14.497
52094W        W18503  40.551  35.957  11.148
52095W        W18504  10.378  32.296   4.105
52096W        W18505  26.081  12.841   4.943
52097W        W18506  13.203   5.879   0.826
52098W        W18507   5.749  41.040  13.945
52099W        W18508  38.260  26.820   0.182
52100W        W18509   1.823  16.005  11.718
52101W        W18510  27.061  39.732   0.910
52102W        W18511   6.353  35.956  11.533
52103W        W18512  24.184  29.608  11.649
52104W        W18513  38.383  32.061  12.320
52105W        W18514  10.265  13.465   0.502
52106W        W18515  41.342   6.237  10.555
52107W        W18516   8.674  19.757  11.555
52108W        W18517  10.636   4.415  12.905
52109W        W18518  26.918  18.222   2.526
52110W        W18519   6.788  24.105  12.003
52111W        W18520  12.767  27.395   3.038
52112W        W18521  36.943  34.838  14.965
52113W        W18522  25.977  19.096   2.203
52114W        W18523   2.890  18.558  12.750
52115W        W18524  19.832  12.833  14.751
52116W        W18525  13.201  33.900  14.689
52117W        W18526  22.531  10.286  11.097
52118W        W18527  38.301  28.486   2.201
52119W        W18528  44.737  31.711  11.195
52120W        W18529  20.241  35.133   2.254
52121W        W18530  32.402  32.056  12.796
52122W        W18531  17.387  41.509  12.648
52123W        W18532  18.721  21.472   0.835
52124W        W18533   3.724  36.462   0.445
52125W        W18534  41.817  34.563  13.225
52126W        W18535   7.363   8.661   2.802
52127W        W18536  17.556  17.101   2.697
52128W        W18537  30.530   4.841  14.063
52129W        W18538  25.496  44.027   2.923
52130W        W18539  19.180  23.177  12.369
52131W        W18540   9.688   3.196  14.042
52132W        W18541  39.583  13.659   2.372
52133W        W18542   5.612  18.630  13.362
52134W        W18543   1.758  38.311  13.044
52135W        W18544  39.955  11.648  11.164
52136W        W18545  31.793  33.400   3.251
52137W        W18546  20.607  40.220   2.850
52138W        W18547  13.911  29.988   0.321
52139W        W18548  10.912  20.305   2.729
52140W        W18549  42.410  17.729  14.640
52141W        W18550  32.610   6.702   2.200
52142W        W18551  37.845  37.451  11.092
52143W        W18552  11.326   3.432  11.533
52144W        W18553  41.499  38.058  14.520
52145W        W18554   5.611  44.588   4.324
52146W        W18555   0.706  23.300   4.060
52147W        W18556  37.275  18.997  12.835
52148W        W18557  16.323  23.628  12.614
52149W        W18558  22.299  43.470   3.587
52150W        W18559  23.303  17.111   0.830
52151W        W18560  43.720  36.370  11.576
52152W        W18561  25.517  19.835   0.340
52153W        W18562  37.489  25.872  12.524
52154W        W18563  28.434  16.559  14.933
52155W        W18564  21.778   8.200  13.137
52156W        W18565  44.316  22.978   2.595
52157W        W18566  27.964  29.617   4.990
52158W        W18567  20.569  44.881  11.041
52159W        W18568  35.239   8.203   4.109
52160W        W18569  13.814  44.361  10.653
52161W        W18570  14.614  24.737   3.274
52162W        W18571  14.071  17.694   1.881
52163W        W18572   1.417  21.259   1.478
52164W        W18573   7.220   3.921   2.648
52165W        W18574  30.234  13.918   0.420
52166W        W18575  28.900   7.638   0.375
52167W        W18576  17.267  11.934  12.593
52168W        W18577  24.185  10.855  12.931
52169W        W18578   4.718   5.488   1.875
52170W        W18579  20.066   9.780  11.387
52171W        W18580  26.994  42.381  12.625
52172W        W18581  20.197   0.888  12.615
52173W        W18582  13.217  31.261  13.033
52174W        W18583  32.242  26.527   0.083
52175W        W18584   4.681  41.019   2.252
52176W        W18585  24.863   6.926  11.267
52177W        W18586   0.362  20.948   3.231
52178W        W18587  36.776   8.679  13.866
52179W        W18588   4.025  23.291   3.794
52180W        W18589   5.169  15.624  10.746
52181W        W18590  18.543  35.786  12.618
52182W        W18591  12.830  33.602   4.111
52183W        W18592  23.001  39.429   1.279
52184W        W18593  22.377   7.213   1.664
52185W        W18594  19.667  17.993  11.308
52186W        W18595  16.807   0.056   2.431
52187W        W18596  29.481  13.802   2.192
52188W        W18597  44.266  35.145   3.098
52189W        W18598   2.841   9.098   0.471
52190W        W18599   1.491   2.438   1.462
52191W        W18600  15.785  27.084   2.215
52192W        W18601  36.813  12.637   2.841
52193W        W18602  35.010  42.427   4.553
52194W        W18603  18.726  23.994  12.084
52195W        W18604  40.246   2.543  12.941
52196W        W18605  33.912  27.537  14.043
52197W        W18606  29.129  42.679  14.803
52198W        W18607  11.808  37.372   4.098
52199W        W18608  15.130  13.771   0.035
52200W        W18609  28.788  37.479   2.117
52201W        W18610  19.468  22.080   3.601
52202W        W18611  44.493  34.469   3.622
52203W        W18612  20.249  27.384   2.378
52204W        W18613  23.553  15.287   4.508
52205W        W18614  36.360  13.836   1.261
52206W        W18615  25.077  23.005   1.281
52207W        W18616  31.155  34.934   0.373
52208W        W18617  43.621  13.598  12.092
52209W        W18618  14.683  38.520  12.679
52210W        W18619  32.445  25.534   3.534
52211W        W18620   6.926  13.353  11.192
52212W        W18621  33.322  38.536  13.697
52213W        W18622  43.381   5.651   0.996
52214W        W18623  15.999  18.574  12.623
52215W        W18624  28.513   0.346   4.478
52216W        W18625   1.480  19.194   1.208
52217W        W18626  15.838  34.039   1.638
52218W        W18627  30.617  19.672   0.038
52219W        W18628  25.138  24.202  13.459
52220W        W18629  42.219  25.679   0.096
52221W        W18630  32.922  22.532  14.888
52222W        W18631  25.967   2.217  10.543
52223W        W18632  11.639  25.091   0.927
52224W        W18633   5.400  25.601  12.851
52225W        W18634  20.369   6.103   3.319
52226W        W18635  44.207   8.750  14.989
52227W        W18636   3.774  31.190  10.705
52228W        W18637  18.171  28.722   3.707
52229W        W18638  20.285  38.762   2.413
52230W        W18639   8.849  39.063   3.897
52231W        W18640  37.802  20.089  14.310
52232W        W18641  39.153  12.770   3.530
52233W        W18642   8.431  13.171  11.639
52234W        W18643  11.294  10.140   2.173
52235W        W18644   9.159  23.083   0.911
52236W        W18645   8.192  11.311  10.642
52237W        W18646  21.042  26.496   4.666
52238W        W18647  16.523  35.955  10.987
52239W        W18648  13.032  20.950   3.180
52240W        W18649   6.281   1.433   4.644
52241W        W18650  11.277  14.577   3.181
52242W        W18651  42.587  14.822  12.480
52243W        W18652  14.299  14.919   2.942
52244W        W18653  12.576  21.038   3.380
52245W        W18654  44.068  21.559  13.922
52246W        W18655  22.108  23.558   4.154
52247W        W18656  37.437  21.959   0.400
52248W        W18657  12.228  16.776   0.775
52249W        W18658  18.389  12.883   2.624
52250W        W18659  38.903  15.936   1.769
52251W        W18660   2.826  33.530   4.751
52252W        W18661  21.667  23.468   3.198
52253W        W18662  29.886  11.785   4.451
52254W        W18663  23.452  39.130  12.602
52255W        W18664  35.523   8.411  11.572
52256W        W18665  15.630  28.546  11.607
52257W        W18666  40.770  29.657   1.367
52258W        W18667   0.283  23.521  14.850
52259W        W18668  10.429  42.338  10.600
52260W        W18669   8.247  34.979   1.002
52261W        W18670  34.566  23.408  11.669
52262W        W18671  40.767  24.358   2.769
52263W        W18672  14.768   5.780  11.196
52264W        W18673   5.726  37.509  13.848
52265W        W18674  40.504   4.314   4.328
52266W        W18675  33.707  44.553  14.804
52267W        W18676  15.541  25.700   1.393
52268W        W18677  29.973   7.243   2.561
52269W        W18678  28.042   9.144  12.393
52270W        W18679  42.513  17.425   3.061
52271W        W18680  37.528   5.662   0.196
52272W        W18681   0.005  32.991   4.460
52273W        W18682  17.282  32.355   2.632
52274W        W18683  41.248   3.009  14.330
52275W        W18684  33.729  12.630  13.943
52276W        W18685  14.908   4.392   3.589
52277W        W18686  28.480   3.473   0.328
52278W        W18687  20.328   4.332   2.316
52279W        W18688   3.436   4.641   4.688
52280W        W18689  19.746  30.045   2.761
52281W        W18690   9.291  14.141  13.347
52282W        W18691  19.235   2.358  13.119
52283W        W18692  23.122  17.035   4.487
52284W        W18693  18.140   7.212  13.332
52285W        W18694  38.349  34.828  11.176
52286W        W18695  24.272  18.698  14.359
52287W        W18696  41.852  23.291   3.341
52288W        W18697  30.963   3.711   3.176
52289W        W18698  36.062  16.954  10.730
52290W        W18699  32.648  11.350  11.210
52291W        W18700  12.772  19.338   1.681
52292W        W18701  25.226   2.318   2.840
52293W        W18702   1.843  22.740   1.587
52294W        W18703  36.101  31.824  10.628
52295W        W18704   9.740  34.108   3.085
52296W        W18705  13.326  17.491   4.083
52297W        W18706  14.529  39.439   2.593
52298W        W18707  19.522  35.493   2.798
52299W        W18708  42.273  26.152   4.724
52300W        W18709  37.471  25.973   2.745
52301W        W18710  31.016  38.295  14.523
52302W        W18711  40.001  33.871   0.950
52303W        W18712  20.806  41.587   0.798
52304W        W18713  16.650  40.693   1.244
52305W        W18714   2.805  13.396   1.402
52306W        W18715  23.250  42.747  11.915
52307W        W18716  37.453  13.162   0.260
52308W        W18717   7.206  13.381   3.716
52309W        W18718   9.852  27.452  10.311
52310W        W18719  19.863  36.328   3.801
52311W        W18720  36.953  30.856  10.791
52312W        W18721  36.525  31.423   4.699
52313W        W18722  30.484   1.934   0.444
52314W        W18723  20.726   4.856   0.971
52315W        W18724   4.640   7.627  11.490
52316W        W18725  16.595  21.640  13.511
52317W        W18726  23.103  27.353  14.430
52318W        W18727  27.076  15.210  12.419
52319W        W18728  18.093   0.444   0.339
52320W        W18729   6.773  18.580   2.578
52321W        W18730   4.045  39.591  10.864
52322W        W18731   7.452   2.369  12.576
52323W        W18732  36.635  30.467  10.739
52324W        W18733  13.185  29.216  13.973
52325W        W18734  15.881  14.708   1.361
52326W        W18735  10.403  20.150  14.049
52327W        W18736  34.740  31.330   0.912
52328W        W18737  15.908  35.019   0.797
52329W        W18738  20.171  16.774  13.853
52330W        W18739  14.369  39.560   3.595
52331W        W18740  21.267  36.139  14.390
52332W        W18741  31.534   8.670   4.456
52333W        W18742  43.924  33.818  12.352
52334W        W18743  30.509  36.575   3.452
52335W        W18744  33.890   9.384  10.809
52336W        W18745  32.087  18.319  10.841
52337W        W18746  15.550  12.937  11.740
52338W        W18747   5.717  27.923  13.762
52339W        W18748  12.405  21.689  12.441
52340W        W18749  16.778  31.365  14.237
52341W        W18750  14.755  35.034  10.291
52342W        W18751  38.965   6.969   9.856
52343W        W18752  16.041  12.538   5.111
52344W        W18753   0.889   0.005  14.275
52345W        W18754  41.208  27.118   2.197
52346W        W18755  11.816  32.854   2.621
52347W        W18756  15.843  38.903  12.805
52348W        W18757  25.456   0.218   1.915
52349W        W18758  17.157  10.750   3.196
52350W        W18759  22.290  23.436  13.672
52351W        W18760  20.100  27.460  11.656
52352W        W18761   9.268  30.028   4.542
52353W        W18762   7.225  15.794  10.744
52354W        W18763  40.939  42.299  11.072
52355W        W18764   8.851  27.475  11.972
52356W        W18765  28.199  17.068   0.697
52357W        W18766   4.972  29.532   0.993
52358W        W18767  33.174  38.400   4.186
52359W        W18768   6.231  43.180  13.821
52360W        W18769  44.478  41.366  10.784
52361W        W18770  15.703  43.289  10.861
52362W        W18771  40.148  38.110  13.987
52363W        W18772   7.597  38.802   4.819
52364W        W18773  39.335   7.352  11.503
52365W        W18774   3.183  14.781   3.064
52366W        W18775   7.860  23.787   1.143
52367W        W18776   1.702  29.933   2.819
52368W        W18777  36.040  30.055   0.348
52369W        W18778  25.109  21.613  12.543
52370W        W18779  16.309  20.410  12.216
52371W        W18780  38.502   8.000  13.927
52372W        W18781  25.507  35.126  10.446
52373W        W18782  24.073  27.706   3.944
52374W        W18783  35.894  24.189   1.330
52375W        W18784  44.512  10.112  14.862
52376W        W18785  26.612  29.945   1.933
52377W        W18786  43.095   2.119   0.195
52378W        W18787  42.685  29.624   0.179
52379W        W18788  14.993  34.937   3.074
52380W        W18789  37.923  21.598   2.668
52381W        W18790   1.471  26.867   1.385
52382W        W18791  12.725  38.436  11.589
52383W        W18792   6.855  44.061  10.764
52384W        W18793   7.428  10.688   0.394
52385W        W18794   9.882  43.903   0.430
52386W        W18795   2.234  19.644   2.489
52387W        W18796  39.291   2.224  12.937
52388W        W18797  24.427  18.069   3.670
52389W        W18798   8.258  20.793   1.929
52390W        W18799  14.577   4.467  13.006
52391W        W18800  15.690  41.823  10.178
52392W        W18801   7.831  32.947   5.163
52393W        W18802   5.147  25.068  13.265
52394W        W18803  33.913  29.919  11.070
52395W        W18804  16.571  43.723  13.988
52396W        W18805  29.854  21.376   1.904
52397W        W18806  11.864  36.205   2.265
52398W        W18807  38.554  20.538   0.681
52399W        W18808   0.479  20.646   0.786
52400W        W18809  19.317  36.933  13.923
52401W        W18810  35.059  19.195  10.564
52402W        W18811  20.740  30.428   2.828
52403W        W18812  27.264  37.510   2.707
52404W        W18813  34.332  39.417  11.046
52405W        W18814   6.339  34.877   4.756
52406W        W18815  11.006  27.623  14.506
52407W        W18816  23.428   5.377  10.710
52408W        W18817  17.816  11.689  13.427
52409W        W18818  28.590  44.440   1.334
52410W        W18819  22.704   1.431   4.553
52411W        W18820  23.585  44.199   2.964
52412W        W18821  15.528  21.423   0.051
52413W        W18822  33.835   5.849   1.682
52414W        W18823  39.733  13.206  11.185
52415W        W18824  11.383   1.802  14.082
52416W        W18825  28.482  31.056   4.611
52417W        W18826  12.076  44.762  12.505
52418W        W18827  28.062  16.875  10.378
52419W        W18828  44.528   6.576  14.974
52420W        W18829  18.224  16.640  12.987
52421W        W18830  38.990  11.357   0.371
52422W        W18831  16.344  17.158  12.910
52423W        W18832  37.110  18.341  11.339
52424W        W18833   4.011   0.315   2.127
52425W        W18834  24.152   1.745   0.952
52426W        W18835  36.819   9.745   4.188
52427W        W18836  18.503  23.730  10.351
52428W        W18837  25.030   5.592   4.671
52429W        W18838  27.673  29.905   3.672
52430W        W18839  34.359  21.146  13.437
52431W        W18840   9.224   2.263   3.157
52432W        W18841  24.187  29.483   4.578
52433W        W18842   6.396   7.275   1.658
52434W        W18843  30.960  18.050  12.121
52435W        W18844  23.143   4.831   1.155
52436W        W18845   7.403  28.453  13.532
52437W        W18846  13.740  29.981  14.840
52438W        W18847  35.349  12.587  12.520
52439W        W18848  25.528  28.428  14.771
52440W        W18849  23.938  24.743   2.327
52441W        W18850   4.281  10.340   1.857
52442W        W18851  43.684   3.713   2.283
52443W        W18852   8.073  14.789   3.185
52444W        W18853   3.884  11.338  11.889
52445W        W18854   4.342  12.357   1.233
52446W        W18855  22.375  25.224  11.069
52447W        W18856  12.271  20.991  11.950
52448W        W18857  44.529   5.411   0.435
52449W        W18858   1.928  40.999  14.315
52450W        W18859   9.624  13.131  13.933
52451W        W18860  30.438  23.048  12.146
52452W        W18861  42.126  18.703   0.201
52453W        W18862  27.934  36.092   1.941
52454W        W18863  19.217  13.385   2.191
52455W        W18864  17.191   7.925   1.419
52456W        W18865  41.375  44.535  13.036
52457W        W18866  32.595   2.301  10.685
52458W        W18867  42.048  38.068  14.956
52459W        W18868  20.547  29.433   3.899
52460W        W18869   1.379   4.684   4.234
52461W        W18870   6.704  35.177  13.607
52462W        W18871  29.407  21.591   2.046
52463W        W18872  37.427   9.936   0.828
52464W        W18873  32.899  38.942  13.635
52465W        W18874  16.474   1.421   4.147
52466W        W18875  30.686  28.357  12.022
52467W        W18876   0.851  25.433   0.351
52468W        W18877  34.566  23.988   0.883
52469W        W18878  24.648  17.852  13.196
52470W        W18879  14.808  34.115   9.998
52471W        W18880   9.948  22.417  12.981
52472W        W18881  22.986  20.960  12.266
52473W        W18882  42.368  39.582  14.095
52474W        W18883  20.214  44.367  14.257
52475W        W18884   6.348  17.016  14.803
52476W        W18885   8.227   1.890   4.381
52477W        W18886  11.542  14.054   1.744
52478W        W18887  40.388   6.670   0.547
52479W        W18888   9.336  40.329   2.155
52480W        W18889  12.047  41.499   1.796
52481W        W18890  16.277  17.589  12.548
52482W        W18891  36.651  36.857   1.367
52483W        W18892  42.248  10.811  11.609
52484W        W18893  32.721  17.633   3.222
52485W        W18894  19.571  42.040  11.216
52486W        W18895   6.172  20.451   0.800
52487W        W18896  20.662   8.676   1.156
52488W        W18897  33.088  28.830   0.264
52489W        W18898  33.499   6.400  14.580
52490W        W18899  12.385  18.199   3.756
52491W        W18900  23.127  12.367   2.643
52492W        W18901  31.924  27.501   3.944
52493W        W18902  37.492  41.214  14.239
52494W        W18903  11.860  16.142   3.733
52495W        W18904  42.310  20.052   4.822
52496W        W18905  41.368  42.139   2.909
52497W        W18906   2.689  16.016  13.911
52498W        W18907  42.960  15.065   1.807
52499W        W18908  39.293  20.325  12.048
52500W        W18909  12.783  13.110   0.175
52501W        W18910   8.175   1.292   0.214
52502W        W18911   1.818  14.147  12.799
52503W        W18912  13.673  16.085   4.151
52504W        W18913  43.900  11.244  11.120
52505W        W18914  22.986  20.193  10.506
52506W        W18915  19.633   2.195  12.409
52507W        W18916  39.198   7.524  10.593
52508W        W18917   7.356  42.328   3.226
52509W        W18918  31.523   6.204   1.673
52510W        W18919  18.249  25.217  12.566
52511W        W18920  26.782   3.894  12.820
52512W        W18921   2.596  41.496  12.058
52513W        W18922  31.922  23.582  11.004
52514W        W18923   6.104  38.992   3.602
52515W        W18924   6.401  40.393  12.739
52516W        W18925  15.703  26.940  14.852
52517W        W18926  18.574  10.223   1.613
52518W        W18927  28.439  13.175   3.835
52519W        W18928   7.205  44.724  13.438
52520W        W18929   7.811  36.055   3.063
52521W        W18930  17.551  23.266  12.930
52522W        W18931  36.888  15.342  10.680
52523W        W18932  18.781  33.001  12.479
52524W        W18933  14.877  28.068  11.648
52525W        W18934  33.654  16.215  13.385
52526W        W18935  34.096  27.922  10.475
52527W        W18936   2.679   3.713   2.826
52528W        W18937   5.095   7.436  12.959
52529W        W18938  34.389  36.385  14.362
52530W        W18939  18.335   6.175   3.361
52531W        W18940  38.365  35.014   0.012
52532W        W18941   4.843  11.756  10.906
52533W        W18942  15.622   5.202  12.888
52534W        W18943  23.738  28.111   2.687
52535W        W18944  17.876  13.720   4.265
52536W        W18945  28.461  15.375   4.859
52537W        W18946   0.908  28.143   2.588
52538W        W18947  20.896   0.401  11.162
52539W        W18948  37.790   7.199  14.284
52540W        W18949  17.423  34.810   4.996
52541W        W18950  22.154  41.851   3.403
52542W        W18951   0.578   9.255   9.868
52543W        W18952  18.639  15.793  11.165
52544W        W18953  40.267  14.050  14.335
52545W        W18954  28.384  40.503   1.869
52546W        W18955  33.894  23.544  14.632
52547W        W18956   6.354  23.403   5.381
52548W        W18957  17.733  12.345  12.051
52549W        W18958  29.389   4.737   1.891
52550W        W18959  31.827  41.119  13.826
52551W        W18960  35.568  32.358   2.817
52552W        W18961  18.996  19.148  11.561
52553W        W18962  37.395  27.187  10.460
52554W        W18963  42.046   5.730   1.170
52555W        W18964  13.499  38.509   5.254
52556W        W18965  41.427  41.845   0.725
52557W        W18966  22.181  15.078  10.689
52558W        W18967  18.253   9.831   2.209
52559W        W18968   7.119  26.758  10.257
52560W        W18969  43.104  15.253  14.002
52561W        W18970  32.965  11.787  12.941
52562W        W18971  28.898  36.330  11.424
52563W        W18972  12.900  18.116   1.388
52564W        W18973   2.963  41.995  14.395
52565W        W18974  26.531  32.693  12.384
52566W        W18975  18.560  20.369   9.915
52567W        W18976  22.444  25.757  10.466
52568W        W18977  27.969  12.075  11.738
52569W        W18978   3.390   7.013   4.059
52570W        W18979  40.877   3.286   2.356
52571W        W18980  21.406  41.045   3.775
52572W        W18981  27.974  14.278   1.289
52573W        W18982  30.337  43.250   3.673
52574W        W18983  37.595  27.664  11.555
52575W        W18984  33.554  27.329   1.772
52576W        W18985   8.081  33.058   2.310
52577W        W18986  17.829  11.764   3.201
52578W        W18987  29.501   3.483  14.552
52579W        W18988  32.814   8.762   1.765
52580W        W18989  25.205  27.231   2.868
52581W        W18990  44.980  39.388  10.862
52582W        W18991   9.143  42.746  11.664
52583W        W18992  15.793   1.053   1.238
52584W        W18993  25.010   0.044  14.876
52585W        W18994   5.610   1.694   4.279
52586W        W18995  41.996  11.040   0.983
52587W        W18996  29.558  34.447  10.307
52588W        W18997   8.986   3.343  12.007
52589W        W18998   8.026  35.339   4.491
52590W        W18999   6.976  13.862   0.942
52591W        W19000  27.831  38.940  10.326
52592W        W19001   5.592  41.918   3.632
52593W        W19002  33.438  26.292  14.935
52594W        W19003  13.544  26.095  11.080
52595W        W19004  42.459   6.701  10.298
52596W        W19005  32.826  26.967  14.373
52597W        W19006  15.552  31.022  14.285
52598W        W19007  34.318  27.365  10.737
52599W        W19008  18.207  16.191   0.231
52600W        W19009   2.435   4.891   3.674
52601W        W19010  27.546  24.727   1.831
52602W        W19011  42.896   0.485  11.656
52603W        W19012  27.050  44.976   3.903
52604W        W19013   7.151  34.877   3.987
52605W        W19014  37.454  13.123   4.080
52606W        W19015   2.583   3.224  13.332
52607W        W19016  20.687  12.201   3.691
52608W        W19017  23.985   1.285   3.273
52609W        W19018   7.638  26.598  12.988
52610W        W19019  43.476   1.486  13.886
52611W        W19020  20.625  32.363  11.583
52612W        W19021  41.292  36.798   1.758
52613W        W19022  14.279  14.449   3.212
52614W        W19023   2.355   8.812   3.457
52615W        W19024  38.437  41.925  13.452
52616W        W19025  37.790  31.384  14.356
52617W        W19026   4.584  13.044   1.819
52618W        W19027  43.700  39.370  11.079
52619W        W19028   1.878  29.426   4.628
52620W        W19029  25.671  43.054   3.995
52621W        W19030   9.710  44.225   4.995
52622W        W19031  44.467  33.899  13.058
52623W        W19032  17.317  23.734  14.779
52624W        W19033  26.906  13.501   4.832
52625W        W19034   9.898  25.081   1.206
52626W        W19035  43.539  32.399  12.463
52627W        W19036  23.009  43.414   1.263
52628W        W19037  40.317  13.795  11.959
52629W        W19038  44.210  40.717   1.772
52630W        W19039  35.541  30.014   3.193
52631W        W19040  30.137  11.680  11.130
52632W        W19041  14.912   1.445   9.780
52633W        W19042  17.711   9.616   1.490
52634W        W19043  25.845   6.717   1.253
52635W        W19044  25.637  22.251   0.293
52636W        W19045  29.437  20.065  11.538
52637W        W19046  35.545  26.222   3.285
52638W        W19047  27.158   5.889  11.564
52639W        W19048  34.517  37.637   4.438
52640W        W19049  34.732   3.870  13.059
52641W        W19050  32.461   9.005  10.454
52642W        W19051  24.565  26.197  11.446
52643W        W19052   1.209  23.841  13.136
52644W        W19053   2.440  43.562  13.061
52645W        W19054  12.075  18.069   4.155
52646W        W19055  32.506   3.773  12.554
52647W        W19056  42.203  33.913   0.623
52648W        W19057  15.188  15.361  13.523
52649W        W19058  20.549  18.722  10.931
52650W        W19059  35.898  37.737  11.487
52651W        W19060  27.617  43.267  11.920
52652W        W19061   1.037   8.218  11.073
52653W        W19062   9.811  26.537   1.820
52654W        W19063  27.543  26.738   0.752
52655W        W19064   8.635  10.912   4.607
52656W        W19065  19.790   3.188   0.215
52657W        W19066  42.755  26.438   2.702
52658W        W19067  24.955  21.072   5.403
52659W        W19068  36.446   8.275   3.351
52660W        W19069  14.584  35.112  14.826
52661W        W19070  16.814   2.978  12.874
52662W        W19071  43.467  23.871   0.875
52663W        W19072  13.596  13.305   3.818
52664W        W19073  11.860  44.691   1.230
52665W        W19074  11.551  13.927  14.261
52666W        W19075  34.478  33.001  13.881
52667W        W19076  41.831   7.653  14.297
52668W        W19077  29.065  35.595  13.596
52669W        W19078  38.452  29.389   0.854
52670W        W19079  33.906   7.380   1.867
52671W        W19080  42.319  12.299  12.047
52672W        W19081  36.036  22.798  14.536
52673W        W19082  15.791  26.803  13.486
52674W        W19083   8.289  28.563  13.984
52675W        W19084  32.099   5.803  12.979
52676W        W19085  25.955  34.423   0.809
52677W        W19086  19.144  11.365  11.183
52678W        W19087  23.713  36.145  14.425
52679W        W19088   0.292   7.328  11.310
52680W        W19089  13.221  31.829   2.831
52681W        W19090  29.146  29.106  13.291
52682W        W19091   0.720  27.837   4.923
52683W        W19092  40.005  20.705  13.809
52684W        W19093  35.073   2.263   3.523
52685W        W19094  27.074  22.746   3.598
52686W        W19095  27.807  37.468  12.373
52687W        W19096  26.154   9.153  14.961
52688W        W19097   6.845   1.283   0.188
52689W        W19098  36.322  20.335   0.035
52690W        W19099  15.939  39.595  14.838
52691W        W19100  29.230  13.732   1.206
52692W        W19101  43.062  18.727   3.624
52693W        W19102  31.507  17.040  13.138
52694W        W19103   1.707  32.985   2.836
52695W        W19104  31.134   5.880   2.388
52696W        W19105  18.553  14.253  12.928
52697W        W19106  32.636   5.388   3.374
52698W        W19107  22.726  10.139   4.760
52699W        W19108  36.406  23.996  12.120
52700W        W19109  23.823  15.181  11.572
52701W        W19110   2.738  34.344  10.851
52702W        W19111  44.597  30.393  12.128
52703W        W19112  17.035  19.550  14.089
52704W        W19113   3.991  30.378  12.855
52705W        W19114   2.832  14.334  14.395
52706W        W19115  30.500  33.052   3.207
52707W        W19116   8.672  23.432  12.047
52708W        W19117  17.923   3.339  13.807
52709W        W19118  41.352  42.126   3.806
52710W        W19119  18.326  36.960   3.084
52711W        W19120  33.437  29.923   4.095
52712W        W19121   4.100  23.809   3.991
52713W        W19122   6.204  11.382  13.030
52714W        W19123  19.008   7.243   1.529
52715W        W19124   6.316   4.122  13.972
52716W        W19125  27.017  37.518   3.179
52717W        W19126  40.528   4.407   3.243
52718W        W19127   7.790  30.904   2.748
52719W        W19128   5.352  32.598   3.146
52720W        W19129   7.640   9.216   0.595
52721W        W19130  13.623  41.892  10.704
52722W        W19131  34.947  21.938  13.836
52723W        W19132  26.250   4.421  11.125
52724W        W19133   5.588  37.941  11.224
52725W        W19134  19.008  13.633  11.933
52726W        W19135  25.601   6.118   1.271
52727W        W19136   9.942  44.435   3.300
52728W        W19137  14.159  32.005  10.365
52729W        W19138  19.994  14.043  10.709
52730W        W19139  13.772  14.701   0.167
52731W        W19140  33.627  10.360  14.891
52732W        W19141  15.337  35.097   3.760
52733W        W19142   3.281   3.472   3.370
52734W        W19143  33.970   6.891   2.140
52735W        W19144  12.258  19.173  11.707
52736W        W19145  10.223   6.960  10.565
52737W        W19146  44.976  27.060   4.195
52738W        W19147   9.890  11.889  11.230
52739W        W19148  13.304  40.753  13.430
52740W        W19149  29.486  17.380  10.713
52741W        W19150  35.150  36.912   3.314
52742W        W19151  17.665  39.462  14.690
52743W        W19152  16.859  39.148   4.612
52744W        W19153  40.702  14.417  13.456
52745W        W19154  32.482  23.755   1.310
52746W        W19155   7.725  30.108   4.348
52747W        W19156   5.218  14.719  10.413
52748W        W19157   2.847  25.163   0.912
52749W        W19158  33.924  40.530  11.560
52750W        W19159  41.380  36.421   1.422
52751W        W19160   4.688  24.198  12.845
52752W        W19161  24.490   0.964  11.118
52753W        W19162  22.595  25.890   1.848
52754W        W19163  37.447   0.073  13.929
52755W        W19164   0.478  24.612  14.094
52756W        W19165  28.689   2.724  12.425
52757W        W19166   4.368  37.485  11.853
52758W        W19167  11.402  37.607  14.366
52759W        W19168  38.853  43.282   1.219
52760W        W19169  11.858  15.334   3.205
52761W        W19170  28.133  35.112  10.441
52762W        W19171  38.270  37.717   0.400
52763W        W19172  38.115   7.782   2.995
52764W        W19173  39.484  36.890  12.548
52765W        W19174  38.630  20.729  13.502
52766W        W19175  31.451  44.361   0.353
52767W        W19176   6.652  41.499   2.252
52768W        W19177  24.419  24.267  13.104
52769W        W19178  15.856   2.382   0.608
52770W        W19179  39.304  22.158  12.500
52771W        W19180  24.778  30.837   1.886
52772W        W19181  26.673  43.351   0.417
52773W        W19182  24.661  21.933   2.678
52774W        W19183   9.584  27.093   2.848
52775W        W19184  11.180  27.939   1.732
52776W        W19185   6.646   3.184   3.947
52777W        W19186  31.351   0.529   1.197
52778W        W19187  20.495  18.008  14.321
52779W        W19188  10.912  33.936  13.836
52780W        W19189  14.828  41.595   1.423
52781W        W19190  40.041  31.035  14.878
52782W        W19191  35.607  27.206  12.083
52783W        W19192   8.754  12.726   0.525
52784W        W19193  18.176  36.387  13.043
52785W        W19194   2.405  11.587  12.976
52786W        W19195  34.162  26.129   0.327
52787W        W19196   6.529  41.693  13.772
52788W        W19197  37.902  10.019  14.913
52789W        W19198  20.275   0.687   9.562
52790W        W19199  42.442  14.515   1.417
52791W        W19200  33.463  19.227   2.553
52792W        W19201  43.580  32.140   1.188
52793W        W19202   6.197   2.255   4.873
52794W        W19203  19.487  41.793   0.030
52795W        W19204  43.776   8.375  13.546
52796W        W19205  29.075  19.247   0.586
52797W        W19206  20.774  17.222   2.934
52798W        W19207  31.304  34.195   4.109
52799W        W19208  15.715   9.804   0.522
52800W        W19209  12.619  35.325   0.397
52801W        W19210  14.688  19.984   1.408
52802W        W19211  24.194   3.934   0.910
52803W        W19212  44.961  17.328  14.524
52804W        W19213  35.005  38.706   1.319
52805W        W19214  24.676  28.993   2.445
52806W        W19215  12.585   8.318   2.770
52807W        W19216   5.167  24.028  11.939
52808W        W19217  31.516  10.606  13.854
52809W        W19218  21.836  27.907  14.447
52810W        W19219   0.569  21.743   3.452
52811W        W19220  12.494  16.757   4.372
52812W        W19221   5.512  44.037  11.471
52813W        W19222  32.821   7.831   0.526
52814W        W19223  42.550  41.228  14.714
52815W        W19224  21.184  27.205   0.358
52816W        W19225  33.323  12.620   4.586
52817W        W19226  19.553   2.294   3.598
52818W        W19227   6.291   7.850  13.944
52819W        W19228   0.260  16.926  14.783
52820W        W19229  26.671   9.898   1.130
52821W        W19230  26.453   9.107   2.725
52822W        W19231  30.046  32.654   2.687
52823W        W19232  32.532  37.095   0.266
52824W        W19233  35.644  34.634   0.753
52825W        W19234   0.320  25.382  10.725
52826W        W19235  23.151  35.539   0.466
52827W        W19236  35.582   1.526  12.792
52828W        W19237  11.942  16.859  13.314
52829W        W19238  25.390  36.350  14.816
52830W        W19239  40.722   7.220  10.109
52831W        W19240  22.940  44.165  14.496
52832W        W19241  16.784  28.016  12.179
52833W        W19242  18.085  23.698  11.234
52834W        W19243   2.828  23.587  12.786
52835W        W19244  41.530  14.107  14.696
52836W        W19245  38.571  37.585   4.605
52837W        W19246  34.500   3.918   2.118
52838W        W19247  11.284  12.732   2.386
52839W        W19248   5.331  14.312  11.214
52840W        W19249  36.535   0.297   2.330
52841W        W19250  24.085   5.505   1.761
52842W        W19251  23.072  41.896  12.937
52843W        W19252  21.671  11.334  12.480
52844W        W19253  27.567  34.617  11.591
52845W        W19254   0.944  42.290  11.105
52846W        W19255  23.218  13.250  13.452
52847W        W19256  35.357   5.981   3.721
52848W        W19257   8.897  36.332   3.773
52849W        W19258   0.302  10.157  12.920
52850W        W19259  32.371   9.899   3.658
52851W        W19260  37.962  28.424   2.713
52852W        W19261  37.052   7.623  12.593
52853W        W19262  30.889   1.312  14.229
52854W        W19263   7.791  10.387  10.710
52855W        W19264  21.638  44.132  11.067
52856W        W19265  15.749   8.613  14.865
52857W        W19266  20.645   2.802   0.059
52858W        W19267   0.961  27.786   4.480
52859W        W19268   2.264  28.189   2.841
52860W        W19269   7.216  12.237   3.050
52861W        W19270  31.840  23.199   2.731
52862W        W19271  26.041  15.598   1.382
52863W        W19272   1.336  40.932   0.053
52864W        W19273  21.282  36.667   0.190
52865W        W19274  23.721   1.667   0.588
52866W        W19275  27.053   8.389   4.145
52867W        W19276  18.726  21.871   4.498
52868W        W19277  27.448  16.689   0.544
52869W        W19278  17.667   2.995  10.703
52870W        W19279  29.550  23.966  13.531
52871W        W19280  20.302  22.239   1.859
52872W        W19281  20.050  21.693   4.211
52873W        W19282  23.139  27.034  10.761
52874W        W19283  31.231   9.585  11.057
52875W        W19284   2.349  31.448  12.826
52876W        W19285  29.964  29.722  12.974
52877W        W19286  18.734  44.420   4.061
52878W        W19287  38.059   4.215  13.705
52879W        W19288   4.933  12.804   4.038
52880W        W19289  26.725  23.722  12.930
52881W        W19290  44.176  23.458   2.766
52882W        W19291  38.863  36.008   1.296
52883W        W19292  15.280  18.189  10.816
52884W        W19293   7.988  17.410   2.743
52885W        W19294  39.521  18.830   2.298
52886W        W19295  24.234  26.998  13.839
52887W        W19296  38.436  15.139  14.789
52888W        W19297  37.701  19.064   0.758
52889W        W19298  16.188  25.932  13.031
52890W        W19299  30.656  19.357  11.604
52891W        W19300  24.877  28.116   1.850
52892W        W19301  36.172  13.688   4.508
52893W        W19302   1.643  20.848  12.398
52894W        W19303  30.060  22.943  13.753
52895W        W19304  30.457  15.081   3.130
52896W        W19305  25.245  25.082  13.321
52897W        W19306  21.977  39.632   3.617
52898W        W19307  24.140  22.682  12.083
52899W        W19308  37.495  44.884  12.806
52900W        W19309  10.415  14.152   2.133
52901W        W19310  13.140  16.325  14.940
52902W        W19311  32.731  10.862   3.715
52903W        W19312  31.011  35.450   4.709
52904W        W19313  23.545  25.846  10.645
52905W        W19314  23.015  18.595  10.709
52906W        W19315   5.444  44.250  12.846
52907W        W19316   9.473  24.317   3.031
52908W        W19317  29.048  13.933  12.893
52909W        W19318   8.563   1.228   2.835
52910W        W19319  12.238  40.508   4.280
52911W        W19320  13.870  19.615   1.241
52912W        W19321  10.537   4.687   1.419
52913W        W19322   4.391  11.726   1.837
52914W        W19323   5.785  31.120   0.732
52915W        W19324  14.819   3.807  12.448
52916W        W19325  24.441  16.356  12.924
52917W        W19326  13.255  18.402  13.349
52918W        W19327   1.186  10.362  13.893
52919W        W19328  16.799  25.208   4.136
52920W        W19329  19.641   0.764  14.984
52921W        W19330  37.466  34.069   3.821
52922W        W19331  12.850  24.824   3.683
52923W        W19332  44.593  10.684   1.364
52924W        W19333  29.420  33.602   3.719
52925W        W19334  35.120  19.310   3.204
52926W        W19335   9.909  38.602   1.790
52927W        W19336   0.397   2.802   4.590
52928W        W19337  12.911  10.749   4.160
52929W        W19338  33.992  37.094   0.331
52930W        W19339  31.655   2.972  14.008
52931W        W19340  43.767  21.623   0.893
52932W        W19341  14.750   0.376   9.775
52933W        W19342   1.997   2.714   1.832
52934W        W19343  41.758  24.109   2.991
52935W        W19344  23.158  18.842   1.772
52936W        W19345   5.452  30.681  14.390
52937W        W19346  17.264   5.944   0.379
52938W        W19347  36.830  11.184  10.955
52939W        W19348  25.366  26.117  11.620
52940W        W19349  18.972  41.064   4.442
52941W        W19350   4.507  40.516   0.450
52942W        W19351  41.430  40.290   4.097
52943W        W19352  25.316  16.564  12.888
52944W        W19353  28.312   8.193  12.639
52945W        W19354  28.115  14.732   3.271
52946W        W19355  21.731  25.127  12.128
52947W        W19356  44.300  26.601  12.091
52948W        W19357  19.715  26.602  13.310
52949W        W19358   4.879  24.252   1.167
52950W        W19359  31.344  36.535  11.961
52951W        W19360  14.648  18.380   0.128
52952W        W19361  32.275  37.105   1.501
52953W        W19362  26.746  30.384  14.818
52954W        W19363  31.495  20.546   4.681
52955W        W19364  36.243  34.671   0.454
52956W        W19365  43.018  23.597   0.847
52957W        W19366  27.471  23.416   0.752
52958W        W19367  12.937  23.998   1.249
52959W        W19368   5.595   9.698   2.696
52960W        W19369  16.631  41.795   2.664
52961W        W19370  39.649  22.159  11.062
52962W        W19371  32.052  32.516   2.446
52963W        W19372   7.371  41.362  12.094
52964W        W19373  39.324  41.880   3.311
52965W        W19374  33.116  30.435   2.199
52966W        W19375  42.657  19.656   0.075
52967W        W19376  29.520   2.782  11.563
52968W        W19377  19.866  24.724  13.907
52969W        W19378  32.525  20.880  11.512
52970W        W19379  31.018  33.723   1.289
52971W        W19380   3.210   4.162  14.541
52972W        W19381  15.333  14.864  14.197
52973W        W19382  20.573  25.928   1.305
52974W        W19383  27.799  22.415  11.501
52975W        W19384  18.933   6.748   4.016
52976W        W19385   2.786  33.062  11.279
52977W        W19386  26.665  26.024  10.566
52978W        W19387  13.637  35.266   1.255
52979W        W19388  12.749   2.815   1.241
52980W        W19389  39.371  33.191   3.491
52981W        W19390  30.440  34.198  14.887
52982W        W19391   4.379  21.333  13.865
52983W        W19392  31.109   0.894  11.427
52984W        W19393  16.190   7.916   0.387
52985W        W19394  38.934   8.747  14.274
52986W        W19395  44.457   1.988   0.206
52987W        W19396  37.368  20.279   0.902
52988W        W19397   5.269  13.364  13.027
52989W        W19398  11.093  17.540  13.470
52990W        W19399  32.460  24.455  13.994
52991W        W19400  15.987  43.004   1.171
52992W        W19401  43.478   5.174  12.023
52993W        W19402   1.265  20.351   0.536
52994W        W19403  20.469  29.108  12.604
52995W        W19404  25.458  21.751   0.323
52996W        W19405  15.899  43.068   5.351
52997W        W19406  44.883  16.116  12.569
52998W        W19407  19.918  42.091   0.150
52999W        W19408  31.433  24.603   3.142
53000W        W19409  41.960   4.212  12.007
53001W        W19410  30.646   7.688  11.907
53002W        W19411  38.509  43.277  12.911
53003W        W19412  11.766  11.147  12.537
53004W        W19413  39.274  38.768   0.866
53005W        W19414  14.057  34.522  13.397
53006W        W19415  21.095   8.080  12.521
53007W        W19416  15.893   5.437   3.778
53008W        W19417   1.174  16.674  13.327
53009W        W19418  37.813   8.215  14.307
53010W        W19419   4.988   4.497  13.855
53011W        W19420   8.457  14.377   2.341
53012W        W19421  19.975  15.878  12.621
53013W        W19422  42.571  18.496  12.536
53014W        W19423   7.162  32.383  11.229
53015W        W19424  30.919  36.083   4.771
53016W        W19425  41.310  12.862  12.509
53017W        W19426  20.044  17.160   1.145
53018W        W19427  14.980  20.111  13.583
53019W        W19428  33.608  15.004  11.694
53020W        W19429  24.063  38.883  13.012
53021W        W19430  32.960  30.533   1.323
53022W        W19431  31.315  18.991   0.390
53023W        W19432  29.096   0.419  11.674
53024W        W19433  33.644  35.047  12.621
53025W        W19434   5.273  32.844   1.103
53026W        W19435  10.476  38.867   2.760
53027W        W19436  11.679  14.358  12.639
53028W        W19437   4.319  15.151   2.726
53029W        W19438  40.281  11.429   1.217
53030W        W19439  31.926  12.632  14.894
53031W        W19440  22.335  36.157   0.256
53032W        W19441   1.013  11.100  12.361
53033W        W19442  32.030  14.169  11.948
53034W        W19443  23.888  13.826   3.761
53035W        W19444  24.457  11.365   9.519
53036W        W19445  31.976  16.473  11.606
53037W        W19446  24.098  37.583  14.271
53038W        W19447  17.128  12.845  14.891
53039W        W19448  42.479   8.249   1.083
53040W        W19449  10.159  15.816   3.377
53041W        W19450  23.951   0.311  14.323
53042W        W19451  25.259  36.896  14.902
53043W        W19452   0.729  12.232   0.222
53044W        W19453   7.991  42.901   0.188
53045W        W19454   7.555   4.956  14.743
53046W        W19455  42.410   8.501  10.582
53047W        W19456  36.517  29.969  10.649
53048W        W19457   2.402  44.366   2.194
53049W        W19458   6.762  14.633  11.437
53050W        W19459  16.893  24.466   3.752
53051W        W19460  37.984  40.882   1.380
53052W        W19461   8.286  14.589   4.540
53053W        W19462  37.017  40.870  12.123
53054W        W19463   9.629  29.459   2.793
53055W        W19464  26.249  33.304  11.628
53056W        W19465  26.968  34.456  10.737
53057W        W19466   1.742  25.515  11.989
53058W        W19467   7.339  29.169  10.993
53059W        W19468  36.424  42.868  10.726
53060W        W19469  12.079  36.173  11.111
53061W        W19470  18.998  33.564   3.623
53062W        W19471  17.500  18.956  12.436
53063W        W19472  42.383  31.575  11.040
53064W        W19473  13.062  35.626   0.206
53065W        W19474   8.433   8.367   1.370
53066W        W19475  11.445   7.118  14.344
53067W        W19476  21.988  15.829  14.002
53068W        W19477   0.457  41.014  13.331
53069W        W19478  24.761  41.278   3.726
53070W        W19479  27.379   3.244   4.749
53071W        W19480  27.066   0.357   2.186
53072W        W19481  24.066   2.812  13.618
53073W        W19482  17.179  28.884   3.638
53074W        W19483  41.704  34.895  14.406
53075W        W19484  14.769  27.849  13.003
53076W        W19485  34.819   0.106  11.454
53077W        W19486  31.679   7.214  14.932
53078W        W19487   9.166  33.504   0.381
53079W        W19488  33.977  26.474   1.169
53080W        W19489  44.315  20.836  13.354
53081W        W19490  33.380  11.477   1.252
53082W        W19491  26.468   1.937  13.355
53083W        W19492   1.368  38.977  14.439
53084W        W19493  17.142   0.992   4.016
53085W        W19494  18.227  21.655   2.630
53086W        W19495   3.326  23.887  11.546
53087W        W19496  35.516  16.360   2.641
53088W        W19497  19.111   3.990   0.400
53089W        W19498  20.998   7.593   4.655
53090W        W19499   3.881  14.945  13.511
53091W        W19500  23.424  37.458   1.762
53092W        W19501  39.094  44.929   3.323
53093W        W19502  39.385   7.829   4.726
53094W        W19503  31.410  32.487  11.096
53095W        W19504  22.444  18.483   2.424
53096W        W19505  12.374   3.505   1.566
53097W        W19506  34.023  16.173  12.083
53098W        W19507  39.392  20.926  12.932
53099W        W19508  15.773  35.779   5.067
53100W        W19509  31.610   6.227   0.827
53101W        W19510  43.718   5.275   1.849
53102W        W19511  34.535  40.993   1.335
53103W        W19512  41.934  32.853  12.901
53104W        W19513  26.459   1.277   0.683
53105W        W19514  42.335  40.248   3.148
53106W        W19515  31.670  37.095   1.641
53107W        W19516  41.635  36.424  13.079
53108W        W19517  32.921  42.431  14.792
53109W        W19518  25.453   2.700   3.702
53110W        W19519   3.856   3.716   2.259
53111W        W19520  37.930  31.017  13.998
53112W        W19521   6.269  41.310   4.101
53113W        W19522   0.397  31.613  13.844
53114W        W19523   3.367   2.234  14.288
53115W        W19524  26.411  18.418   3.294
53116W        W19525  11.163  27.090   1.916
53117W        W19526   2.907  38.444   4.175
53118W        W19527  28.129   2.433   4.488
53119W        W19528  27.017  39.658  13.497
53120W        W19529  19.842  29.604  14.926
53121W        W19530   4.862  28.000   0.374
53122W        W19531  22.052  13.634   3.830
53123W        W19532  24.063  18.787   4.321
53124W        W19533   4.480  12.679   4.290
53125W        W19534  16.157  41.107   4.630
53126W        W19535  36.513  20.591  10.441
53127W        W19536  42.204   5.995   0.280
53128W        W19537   9.682  29.086   3.147
53129W        W19538   1.714  26.509   3.106
53130W        W19539  37.750  25.265   0.096
53131W        W19540  14.670   6.987  14.840
53132W        W19541  36.072  16.369  10.257
53133W        W19542  13.018   6.322   2.794
53134W        W19543  24.584   6.764   2.888
53135W        W19544   4.908   8.127   3.263
53136W        W19545  19.979   6.933   2.271
53137W        W19546   3.509  36.659  10.823
53138W        W19547  10.791  29.434  11.128
53139W        W19548  39.536  36.407   2.146
53140W        W19549   6.463   4.917  14.903
53141W        W19550  23.941   6.718   2.291
53142W        W19551  18.427  41.968   2.336
53143W        W19552   4.538  17.140  11.513
53144W        W19553   4.726  31.970   1.945
53145W        W19554  39.811  20.245   0.543
53146W        W19555   4.960   0.742   1.874
53147W        W19556   0.818  37.908  13.062
53148W        W19557  10.832   7.962  13.408
53149W        W19558  30.392  26.790  11.945
53150W        W19559  21.739  25.603   1.387
53151W        W19560  28.773   1.737  12.547
53152W        W19561  32.553   9.169  11.494
53153W        W19562  12.380   2.948  11.108
53154W        W19563  25.050  40.529   2.277
53155W        W19564  30.091   8.627  14.386
53156W        W19565  43.495  10.904   2.726
53157W        W19566   1.324  34.978  10.654
53158W        W19567   6.241  24.482  11.601
53159W        W19568  34.576  13.455  12.383
53160W        W19569  44.731  15.290   1.998
53161W        W19570  40.985   6.083   3.395
53162W        W19571  33.106  22.136   1.315
53163W        W19572  34.419   3.977   0.410
53164W        W19573  15.237  15.821   3.667
53165W        W19574  43.277  14.840   2.722
53166W        W19575  11.875   2.802   4.902
53167W        W19576  44.664  22.194  13.041
53168W        W19577  29.408   2.953   9.859
53169W        W19578   9.236  34.657  14.988
53170W        W19579  18.361  10.648  13.921
53171W        W19580   4.093   3.207  11.298
53172W        W19581  31.520   1.688  14.579
53173W        W19582  16.764   5.537   4.660
53174W        W19583   9.036  20.150  10.697
53175W        W19584   3.376   5.966   4.103
53176W        W19585  20.266   0.421  13.293
53177W        W19586   9.248   1.706  12.025
53178W        W19587   8.427   9.869   1.024
53179W        W19588   8.358  39.803  13.512
53180W        W19589  23.768  18.064  11.625
53181W        W19590  39.398   9.710  14.283
53182W        W19591  18.281  41.881   3.497
53183W        W19592  20.194   8.934  13.529
53184W        W19593  30.066  28.704  12.012
53185W        W19594  43.388  31.020  13.043
53186W        W19595   6.756  40.989   2.193
53187W        W19596  38.643  41.744  13.938
53188W        W19597  16.301   1.242   4.592
53189W        W19598  33.209  33.725  14.413
53190W        W19599  22.427  19.531   4.591
53191W        W19600  13.166   8.412   3.585
53192W        W19601  40.492  13.284   1.683
53193W        W19602  18.123  14.118   1.330
53194W        W19603  38.794  13.693  14.873
53195W        W19604  25.724  39.798   1.298
53196W        W19605  18.687  20.996  13.565
53197W        W19606  26.646  16.980  10.857
53198W        W19607  16.010  22.623  11.586
53199W        W19608  14.081   0.726  13.612
53200W        W19609  27.083  29.617   1.761
53201W        W19610  27.492   2.526  14.871
53202W        W19611  10.679  44.212  11.750
53203W        W19612   6.373  14.195   5.184
53204W        W19613  34.912  22.101   0.216
53205W        W19614  11.516  28.562  12.498
53206W        W19615  28.377  10.326  13.112
53207W        W19616  14.323  19.973  14.742
53208W        W19617  31.401  19.809   2.601
53209W        W19618  35.969  44.952  14.772
53210W        W19619  16.671  28.583  13.055
53211W        W19620  29.739  30.350   2.363
53212W        W19621  33.902  40.307  13.950
53213W        W19622  34.143   8.225   2.825
53214W        W19623   8.473  42.484  12.887
53215W        W19624  38.751  37.871   0.352
53216W        W19625  35.595   3.000   1.970
53217W        W19626  33.647  39.032   1.979
53218W        W19627  19.596  39.995  14.730
53219W        W19628  31.862  29.933   2.249
53220W        W19629  39.633  11.495  13.664
53221W        W19630  17.243   7.328  14.299
53222W        W19631  16.663   0.803   3.896
53223W        W19632   3.037  11.221   1.392
53224W        W19633  41.523   5.482   3.380
53225W        W19634   3.839  28.999   2.313
53226W        W19635  40.636   0.302  12.418
53227W        W19636  44.920  33.370   0.301
53228W        W19637  41.317  40.522  11.504
53229W        W19638   2.197  25.601   2.303
53230W        W19639  14.460   1.759   4.548
53231W        W19640   1.359  41.664  10.695
53232W        W19641   4.363  44.719   4.157
53233W        W19642  44.332  38.869  13.057
53234W        W19643  18.830  40.549  13.770
53235W        W19644   1.815   9.307   3.937
53236W        W19645  12.166  23.197   3.518
53237W        W19646  29.017  27.586  14.173
53238W        W19647   4.240  18.715  13.263
53239W        W19648  20.432   7.919   1.701
53240W        W19649  37.267  40.747  12.564
53241W        W19650  11.250  28.027  14.698
53242W        W19651  26.061  32.017   2.224
53243W        W19652  33.887   4.501   3.606
53244W        W19653  13.936  21.464  13.407
53245W        W19654  40.535  23.208   2.175
53246W        W19655  43.760  38.258  12.414
53247W        W19656  10.378  37.533   4.608
53248W        W19657  37.498   0.921   1.221
53249W        W19658  10.299  20.735   1.429
53250W        W19659  11.741   2.074  13.819
53251W        W19660  32.925   4.329   0.832
53252W        W19661  34.620  41.823  11.602
53253W        W19662   0.902  28.477   3.409
53254W        W19663   2.483  43.226   1.778
53255W        W19664   9.171   4.714   4.082
53256W        W19665   4.993   2.771   0.266
53257W        W19666  43.662   3.915   3.629
53258W        W19667   2.753  38.020   3.924
53259W        W19668  39.019  22.609  12.653
53260W        W19669  15.497  38.064  14.550
53261W        W19670  14.030  26.658   2.967
53262W        W19671  24.638  32.658  11.047
53263W        W19672  27.621  43.941  11.644
53264W        W19673   3.970  38.996  10.731
53265W        W19674  39.997   0.427   1.712
53266W        W19675  25.192   1.990   3.249
53267W        W19676  29.393  43.007   5.109
53268W        W19677  34.914   6.412  14.874
53269W        W19678   2.480  17.991  10.256
53270W        W19679   7.829  16.004   1.258
53271W        W19680   4.305  14.079   0.487
53272W        W19681  33.033  34.080   1.731
53273W        W19682  38.221  26.323   2.748
53274W        W19683  42.984  32.909   3.519
53275W        W19684  28.580  20.781  11.659
53276W        W19685   6.895  33.389  10.410
53277W        W19686   7.150  21.753   0.773
53278W        W19687   9.233   5.859   4.505
53279W        W19688  38.420  20.249   2.027
53280W        W19689   1.233   4.337   4.584
53281W        W19690  32.261  29.656  13.001
53282W        W19691  31.398  15.768   1.768
53283W        W19692  41.037  26.620   2.270
53284W        W19693  30.136  10.662  11.049
53285W        W19694  42.725  25.486   3.556
53286W        W19695   4.505  14.219  13.056
53287W        W19696  38.288   3.803   0.787
53288W        W19697   1.990   8.923  14.323
53289W        W19698  23.522  14.983  14.076
53290W        W19699  44.206   1.897  11.180
53291W        W19700  44.905  43.486   1.701
53292W        W19701  26.748   0.799   4.469
53293W        W19702  10.670  14.263  12.341
53294W        W19703  36.029  27.702  11.526
53295W        W19704  17.688   5.486  14.743
53296W        W19705  16.832  21.114  14.825
53297W        W19706  25.792  19.170  13.102
53298W        W19707  25.423  29.141   0.340
53299W        W19708  12.812  39.418  14.586
53300W        W19709  18.678  44.343  13.688
53301W        W19710   1.672  10.269   2.389
53302W        W19711  18.721   2.537  12.454
53303W        W19712  24.716   5.978   0.267
53304W        W19713  15.585  25.037   0.221
53305W        W19714   8.097  34.979   0.497
53306W        W19715  20.941  13.685  10.901
53307W        W19716  23.659  15.298   0.437
53308W        W19717  20.571  37.447  11.629
53309W        W19718  44.314  34.619  13.535
53310W        W19719  10.226  41.304   4.528
53311W        W19720  27.491  44.388  14.035
53312W        W19721  20.549  21.701   3.186
53313W        W19722  43.862   1.429   0.837
53314W        W19723  19.773  44.708   2.215
53315W        W19724  41.477  36.989   4.545
53316W        W19725  40.053  38.177   2.734
53317W        W19726  39.053  41.428  13.965
53318W        W19727  37.340   7.455  11.087
53319W        W19728  39.489  10.047   2.235
53320W        W19729  19.821  33.993  10.644
53321W        W19730  35.807  13.560   3.073
53322W        W19731  25.035   4.950  13.362
53323W        W19732  11.149   8.743   0.942
53324W        W19733   4.477  42.359  10.632
53325W        W19734  29.597  22.963  13.510
53326W        W19735  37.699   0.245   1.759
53327W        W19736  12.482  14.878  14.375
53328W        W19737  32.783   8.389   0.274
53329W        W19738   2.827  42.241   3.644
53330W        W19739   5.470  30.651  10.647
53331W        W19740   7.841  16.323   4.667
53332W        W19741  28.019  44.164  11.982
53333W        W19742  13.863  19.876   2.173
53334W        W19743  20.172  38.763   0.920
53335W        W19744  29.369   9.487   9.937
53336W        W19745  17.345   5.371   3.647
53337W        W19746  25.191  10.783  12.377
53338W        W19747   0.461  30.403   2.665
53339W        W19748  35.933  19.598  13.021
53340W        W19749  25.125   6.222  10.710
53341W        W19750  35.784  24.962   0.660
53342W        W19751  27.156  27.069  11.965
53343W        W19752  16.079   1.473   3.710
53344W        W19753  27.447  42.196   0.341
53345W        W19754  22.542  21.837  10.230
53346W        W19755   1.718   6.756  11.994
53347W        W19756  20.814  10.823   2.436
53348W        W19757  38.478  38.913  11.766
53349W        W19758  29.461  14.283  14.803
53350W        W19759  26.512  35.092  12.060
53351W        W19760  19.620   7.952   3.354
53352W        W19761  32.523   4.415  14.358
53353W        W19762  39.614  31.610  12.651
53354W        W19763  16.709   8.905   0.861
53355W        W19764  35.981  22.128  13.926
53356W        W19765   8.160   1.677  13.554
53357W        W19766   9.247   8.902  11.236
53358W        W19767  17.619  24.343   4.748
53359W        W19768   5.155  26.236  12.149
53360W        W19769  26.010  15.705  11.077
53361W        W19770   1.828   4.084  11.954
53362W        W19771   5.262  24.526  12.829
53363W        W19772  37.587  16.137   2.283
53364W        W19773  34.724   4.973  14.046
53365W        W19774  37.366  21.802  14.905
53366W        W19775  24.184  34.835   4.641
53367W        W19776  37.653  34.831   3.282
53368W        W19777  21.884   1.679  12.061
53369W        W19778  16.724  18.786  13.436
53370W        W19779  27.108   1.734  14.783
53371W        W19780  17.323  14.138  12.076
53372W        W19781  16.580  15.425  14.753
53373W        W19782  16.489   9.448   3.498
53374W        W19783  22.195  38.297   4.328
53375W        W19784  11.295  31.119   2.415
53376W        W19785  37.058   0.309   2.244
53377W        W19786  15.288  15.859  13.505
53378W        W19787  21.064  38.422   1.674
53379W        W19788   6.368  16.511   1.658
53380W        W19789  33.788   2.308   9.864
53381W        W19790  36.373  16.106  10.971
53382W        W19791   4.699  42.994   1.181
53383W        W19792   0.799  16.637  10.659
53384W        W19793  22.060  43.619  11.511
53385W        W19794  43.826  44.999  14.633
53386W        W19795  25.647  33.156   1.924
53387W        W19796  22.771  14.781  11.709
53388W        W19797  39.516  16.593   0.387
53389W        W19798  36.342  37.065  12.104
53390W        W19799  15.591  44.817   3.928
53391W        W19800  13.700  22.734  11.380
53392W        W19801  25.038   3.732   2.180
53393W        W19802  18.531   1.252  14.234
53394W        W19803  14.852  44.212   3.674
53395W        W19804  11.920  42.458  14.122
53396W        W19805  10.361   8.245  13.740
53397W        W19806   4.020  43.203  12.629
53398W        W19807  11.656   4.310  13.062
53399W        W19808  26.952   4.167   1.751
53400W        W19809  22.541   3.738  14.894
53401W        W19810   1.217  29.231  10.678
53402W        W19811   2.164  24.370   0.870
53403W        W19812   3.955  27.083   1.533
53404W        W19813  12.742  42.928  13.572
53405W        W19814  41.680  38.785   0.977
53406W        W19815  36.085  27.032   3.598
53407W        W19816   9.187   3.612  13.823
53408W        W19817  37.088   4.828   3.111
53409W        W19818  27.970  20.804   0.304
53410W        W19819  20.462  18.242  11.116
53411W        W19820  40.524  16.350   1.319
53412W        W19821   3.746  23.567  13.987
53413W        W19822  31.635  23.720  13.374
53414W        W19823  26.428  40.002   2.502
53415W        W19824  31.343  39.430  14.903
53416W        W19825  38.614  35.069  10.799
53417W        W19826  32.789  37.118   1.676
53418W        W19827   5.455  16.787   1.672
53419W        W19828  36.648  26.643   4.110
53420W        W19829  25.219  24.038   1.213
53421W        W19830  38.581  39.467  14.938
53422W        W19831  13.067  28.597   3.912
53423W        W19832   1.399  23.309   1.321
53424W        W19833  25.014   5.456  12.673
53425W        W19834   6.415   2.652   1.443
53426W        W19835  43.035  29.960   1.153
53427W        W19836  30.957  35.408   1.558
53428W        W19837  25.744  22.126   2.756
53429W        W19838  24.175  42.738   2.188
53430W        W19839  30.665  40.446   1.413
53431W        W19840  21.143  14.182   3.594
53432W        W19841   5.273  34.138   3.256
53433W        W19842  33.884  41.804  10.643
53434W        W19843   1.327   4.772   0.012
53435W        W19844   3.025  38.280   0.132
53436W        W19845  20.879  44.957  11.441
53437W        W19846   6.097  14.546  10.308
53438W        W19847  35.967   7.672   2.357
53439W        W19848  25.514   3.896  13.892
53440W        W19849  44.106  15.140   1.180
53441W        W19850  14.608  11.190  14.604
53442W        W19851  19.345  34.994   3.407
53443W        W19852  43.566   6.071   3.243
53444W        W19853  23.072  30.043  11.136
53445W        W19854   5.299  31.395  13.880
53446W        W19855   7.113   1.323  10.632
53447W        W19856  28.089  15.914  12.576
53448W        W19857   6.131  18.990  14.031
53449W        W19858  14.531  22.965  11.042
53450W        W19859   1.747  21.138  10.235
53451W        W19860   6.127   4.866  12.778
53452W        W19861  35.115  34.401  11.882
53453W        W19862  23.205  23.958   4.872
53454W        W19863  32.803  38.473   4.996
53455W        W19864  37.690  19.296   4.043
53456W        W19865  42.703  22.218  10.651
53457W        W19866  12.737  18.973   3.152
53458W        W19867   6.211  18.741   1.917
53459W        W19868  15.318   6.665   0.424
53460W        W19869   8.165  31.596   1.698
53461W        W19870  25.569  19.811  14.682
53462W        W19871  41.303  36.978   3.160
53463W        W19872   2.334  10.817   1.866
53464W        W19873  19.080  24.726   4.589
53465W        W19874   7.874  20.046   3.011
53466W        W19875  21.091   5.297   4.874
53467W        W19876  28.852  34.374   1.808
53468W        W19877  20.576  40.114   3.747
53469W        W19878   7.330   5.389   2.844
53470W        W19879  27.116  20.216   1.403
53471W        W19880  31.029  32.728  11.424
53472W        W19881  41.005  15.928   0.770
53473W        W19882  28.605   4.359  13.563
53474W        W19883  15.561  44.393   4.212
53475W        W19884  41.479  30.195  14.823
53476W        W19885  11.634   3.892  12.438
53477W        W19886  11.837  25.211   2.302
53478W        W19887  43.023  16.626   1.693
53479W        W19888  44.398  43.110  13.335
53480W        W19889  24.860  31.983  12.116
53481W        W19890  37.436  11.623   3.236
53482W        W19891  28.260  44.554   4.122
53483W        W19892  17.310  40.572   2.641
53484W        W19893  19.700  14.887  13.467
53485W        W19894  43.773  17.615  14.026
53486W        W19895  30.789  20.114   0.280
53487W        W19896   9.679   7.693   0.798
53488W        W19897  36.552  24.169   2.808
53489W        W19898  44.482  23.959  14.921
53490W        W19899  43.708  37.457  12.124
53491W        W19900  44.889  31.411  13.894
53492W        W19901  40.486  23.580   2.577
53493W        W19902   0.152  42.261  14.111
53494W        W19903  30.409   0.269  11.633
53495W        W19904   6.649   2.283  14.003
53496W        W19905  41.258  34.143   4.662
53497W        W19906  10.291  35.325  11.551
53498W        W19907  33.982  33.919   1.174
53499W        W19908  36.870  11.397   2.264
53500W        W19909  13.584  28.419  12.568
53501W        W19910  39.202  40.815  12.850
53502W        W19911  25.505  33.583   1.672
53503W        W19912  22.744  17.074  14.533
53504W        W19913   7.147   7.791   2.712
53505W        W19914  37.515  22.308   2.352
53506W        W19915  19.240  19.120   4.083
53507W        W19916  30.955  25.536   0.989
53508W        W19917   9.751   3.497  14.957
53509W        W19918   8.201  43.601  14.399
53510W        W19919   3.467  31.052   1.275
53511W        W19920  11.196   6.674  14.411
53512W        W19921  34.180  38.345   1.677
53513W        W19922  24.086  35.795  14.320
53514W        W19923   9.799  20.607   1.493
53515W        W19924  19.541  17.037   2.870
53516W        W19925  11.937  11.018  10.888
53517W        W19926  13.663  17.259  14.417
53518W        W19927  30.607  36.179   2.144
53519W        W19928  18.217  12.108  14.918
53520W        W19929  31.142  13.119   0.260
53521W        W19930  10.086  10.185  11.388
53522W        W19931  38.262  44.233   1.254
53523W        W19932  24.239  28.545   0.214
53524W        W19933  22.005   3.178  12.453
53525W        W19934   7.626  13.153   3.939
53526W        W19935  42.396   8.399   2.560
53527W        W19936  29.531  22.199  13.871
53528W        W19937  17.821  12.168  10.706
53529W        W19938  25.532  41.165   4.653
53530W        W19939   0.460  35.606   0.255
53531W        W19940  23.471  27.531   0.195
53532W        W19941  14.117  14.282  13.333
53533W        W19942  15.857  17.705   0.449
53534W        W19943  15.067  13.702   4.661
53535W        W19944   1.750  37.135  13.700
53536W        W19945   6.399  36.876  14.713
53537W        W19946  10.694  34.856  13.250
53538W        W19947  29.669  13.827  12.543
53539W        W19948   5.475  35.578   3.532
53540W        W19949  11.029  41.721   4.916
53541W        W19950  11.271  25.103   4.050
53542W        W19951   3.257  14.698   3.554
53543W        W19952  22.736  36.758   2.122
53544W        W19953  11.159  13.441  13.226
53545W        W19954  22.431  10.654   0.637
53546W        W19955   5.485  42.883   1.451
53547W        W19956   2.369  18.529   1.239
53548W        W19957  37.623   5.286   3.761
53549W        W19958  44.943  27.464  10.227
53550W        W19959  24.307  32.780   4.903
53551W        W19960  32.038  16.283  12.105
53552W        W19961  38.378  37.611   2.886
53553W        W19962  18.715  22.105   5.084
53554W        W19963  21.453  26.994   4.416
53555W        W19964  14.046  17.936  11.994
53556W        W19965   7.906  40.881   2.140
53557W        W19966   7.647  33.173  14.142
53558W        W19967  12.723   2.522  11.382
53559W        W19968  15.242   9.330  11.214
53560W        W19969  42.380  42.015  12.519
53561W        W19970  43.005  35.650  10.360
53562W        W19971   6.338  25.799  14.438
53563W        W19972  31.427  28.124   4.129
53564W        W19973   4.343  13.817   2.238
53565W        W19974  35.419  22.981   1.858
53566W        W19975  15.140  16.972   1.256
53567W        W19976  21.722  27.398  11.163
53568W        W19977   1.829  42.288   0.650
53569W        W19978  16.800  33.540   4.440
53570W        W19979  29.504   4.687  10.486
53571W        W19980  16.056  40.630   3.067
53572W        W19981  35.398   3.650   1.315
53573W        W19982  24.580  25.825   4.987
53574W        W19983  29.697  11.609  11.905
53575W        W19984  31.522  19.875  14.559
53576W        W19985   1.377  33.367   4.902
53577W        W19986  14.895  13.223   1.918
53578W        W19987  36.074  41.377  12.064
53579W        W19988   0.431  40.778   3.436
53580W        W19989  25.479  25.486   3.259
53581W        W19990  20.254  22.592  12.468
53582W        W19991  34.593  44.029   1.259
53583W        W19992   3.652  42.987  12.932
53584W        W19993   1.001  38.525   4.575
53585W        W19994  30.801  37.371  14.243
53586W        W19995  11.914  25.452   2.771
53587W        W19996  13.734  20.777  11.770
53588W        W19997   6.178  40.960   0.843
53589W        W19998  33.203  39.362  12.889
53590W        W19999  17.253   0.034  14.863
53591W        W20000   9.670   6.357   2.875
53592W        W20001   0.886  22.601   4.114
53593W        W20002   0.148  39.213  11.346
53594W        W20003  16.632  37.465  11.779
53595W        W20004   4.744  27.151  14.597
53596W        W20005  27.477  33.231  13.394
53597W        W20006  36.987   3.076   1.699
53598W        W20007   9.324  41.609   0.264
53599W        W20008   5.757  38.385   3.236
53600W        W20009  40.864  11.561  13.817
53601W        W20010  40.326   0.353   9.976
53602W        W20011  15.901   0.890  11.417
53603W        W20012  32.620   9.889   2.707
53604W        W20013   1.626  41.807   5.025
53605W        W20014   1.970   3.696  14.348
53606W        W20015  38.748  40.959  10.333
53607W        W20016  36.117  21.549   2.259
53608W        W20017  36.651  12.829  12.577
53609W        W20018  39.397   2.631   2.871
53610W        W20019  10.321   5.364  14.341
53611W        W20020  38.083  19.143  11.848
53612W        W20021  15.378  24.163  12.825
53613W        W20022  13.638   4.453  13.611
53614W        W20023  12.351   1.005  11.607
53615W        W20024  31.368  31.203  11.954
53616W        W20025  35.093  17.322  14.827
53617W        W20026  38.483   8.844  12.927
53618W        W20027   5.549  22.916   1.954
53619W        W20028  26.208   4.345  13.730
53620W        W20029  44.253  40.564  12.604
53621W        W20030  44.047  12.760  12.142
53622W        W20031  22.190   7.877  11.961
53623W        W20032  20.702   8.102   2.645
53624W        W20033  28.734   5.659  13.343
53625W        W20034   4.859  40.775   4.643
53626W        W20035  32.253  22.335   2.307
53627W        W20036  31.343  20.576  13.003
53628W        W20037   9.130   2.360  13.245
53629W        W20038   4.681   5.306  12.372
53630W        W20039  22.489  43.959  12.385
53631W        W20040  28.593  10.281   2.383
53632W        W20041  13.518  38.481  12.851
53633W        W20042  31.081  35.162   3.255
53634W        W20043  32.399  40.338   9.592
53635W        W20044   3.763  29.155   4.281
53636W        W20045  44.722  42.366  13.847
53637W        W20046  36.665  31.476   3.818
53638W        W20047  18.493  40.005  13.733
53639W        W20048  41.925   6.138  12.224
53640W        W20049  40.668   8.833   4.293
53641W        W20050  29.624  24.166   4.140
53642W        W20051  32.606   2.259   0.963
53643W        W20052  20.812  12.651   2.864
53644W        W20053  43.427  12.213  13.430
53645W        W20054  19.227  22.013  11.996
53646W        W20055   0.280  43.669  11.571
53647W        W20056  25.171  14.878  12.459
53648W        W20057  15.657  29.082   2.210
53649W        W20058   3.511  33.985   3.709
53650W        W20059  17.493  12.890   0.603
53651W        W20060  18.053   3.952   0.145
53652W        W20061   7.232  31.972   4.658
53653W        W20062  36.984   7.085  13.513
53654W        W20063  23.320  35.883   2.170
53655W        W20064  13.543   4.693  11.476
53656W        W20065  11.314  22.732  14.095
53657W        W20066  26.715  21.594  14.977
53658W        W20067  43.342  42.067  12.671
53659W        W20068  44.704  28.921  12.410
53660W        W20069  16.197  16.645  13.325
53661W        W20070  18.181  39.098   3.814
53662W        W20071   3.544  29.001   3.691
53663W        W20072   4.371  44.257  11.642
53664W        W20073   9.411  15.798   2.819
53665W        W20074  24.221  16.373   4.399
53666W        W20075   9.921  32.635   1.138
53667W        W20076  41.326   3.448  12.873
53668W        W20077  20.294  38.457   1.975
53669W        W20078  14.893  12.754   1.700
53670W        W20079  19.563   2.192  14.954
53671W        W20080  14.359   1.505   0.534
53672W        W20081  37.979  14.330   1.536
53673W        W20082  43.419  40.371  14.739
53674W        W20083  10.826  36.190   4.605
53675W        W20084  14.733  39.242   4.683
53676W        W20085  27.971  43.334   3.648
53677W        W20086  33.891  24.191  12.051
53678W        W20087   3.304   8.648  14.943
53679W        W20088  43.146  42.781   1.840
53680W        W20089   3.474  34.420   2.466
53681W        W20090  11.819  36.173   3.661
53682W        W20091  15.314  11.027   3.085
53683W        W20092   6.820  29.535  13.430
53684W        W20093   5.105  20.000  12.644
53685W        W20094  10.723  38.985   0.463
53686W        W20095   9.161  25.925   4.600
53687W        W20096  37.530  12.288   4.627
53688W        W20097  20.044  17.437  12.990
53689W        W20098  25.127  36.751  13.090
53690W        W20099  37.131  12.498   0.812
53691W        W20100  32.322   9.798   0.970
53692W        W20101  18.820  21.263   1.903
53693W        W20102  24.125  14.265   2.799
53694W        W20103  42.138  16.905   3.735
53695W        W20104  14.778  24.065  10.161
53696W        W20105  15.722  33.632   4.148
53697W        W20106  36.167   7.869   1.880
53698W        W20107  28.641  40.956   1.783
53699W        W20108  11.640  27.244   2.293
53700W        W20109  36.752  11.264  13.455
53701W        W20110  29.664  11.621  13.962
53702W        W20111  11.794  29.008   3.747
53703W        W20112   7.282  39.708   0.348
53704W        W20113  31.404  34.611  12.695
53705W        W20114   6.394  17.752   4.964
53706W        W20115  33.021  29.123  14.827
53707W        W20116  36.619  29.497   0.843
53708W        W20117   6.479  22.560   2.689
53709W        W20118  41.467  19.580  13.339
53710W        W20119  35.863  26.294  14.142
53711W        W20120  43.708  15.641  10.153
53712W        W20121   8.060  39.250   0.703
53713W        W20122  30.085  37.419   3.812
53714W        W20123  28.881   7.328  12.470
53715W        W20124  17.108  31.444   2.715
53716W        W20125  14.180  32.552   0.735
53717W        W20126  19.226  28.043  12.062
53718W        W20127   3.868   6.211  10.636
53719W        W20128  12.984  29.671  11.994
53720W        W20129  17.102   4.816   0.343
53721W        W20130  27.765   3.330  13.752
53722W        W20131   6.212  28.080  13.869
53723W        W20132  39.157   4.700   1.887
53724W        W20133   0.710   6.993  13.445
53725W        W20134  10.394   1.413  13.845
53726W        W20135  34.094  16.776  13.473
53727W        W20136  41.092  41.011  13.783
53728W        W20137  11.046  14.319   1.646
53729W        W20138   0.437  44.302   2.608
53730W        W20139  37.448  31.031  10.744
53731W        W20140  21.667  19.142   0.952
53732W        W20141  14.522  40.058  13.043
53733W        W20142  16.339  30.922   3.655
53734W        W20143   7.993  21.291  10.849
53735W        W20144  29.789  33.576  11.652
53736W        W20145  12.709  39.879  11.110
53737W        W20146  18.576  40.085  11.399
53738W        W20147  43.491   5.233  14.535
53739W        W20148  14.663  29.589   1.774
53740W        W20149   7.131  20.037  14.366
53741W        W20150  41.813  16.974   0.364
53742W        W20151  35.845  31.170   2.695
53743W        W20152  25.732  21.127   4.102
53744W        W20153  11.426  44.418   1.395
53745W        W20154  34.985  37.038   0.235
53746W        W20155  26.914  28.203   1.418
53747W        W20156  39.975  27.474   1.392
53748W        W20157  27.485  31.230   2.576
53749W        W20158  11.628  17.652   3.414
53750W        W20159  32.497  14.269   2.353
53751W        W20160  31.250   0.321   3.053
53752W        W20161  12.220  41.352   0.128
53753W        W20162   3.144  35.588  11.520
53754W        W20163  44.924   6.257   2.621
53755W        W20164  15.384  10.177   3.712
53756W        W20165  23.420  29.051  14.455
53757W        W20166  30.569  18.998  11.954
53758W        W20167  44.210  38.019   4.145
53759W        W20168   9.308   0.800   4.593
53760W        W20169  12.843   5.908   0.438
53761W        W20170   8.293  29.651   0.809
53762W        W20171   6.216  39.553   2.289
53763W        W20172  36.388   8.407  12.448
53764W        W20173  30.931  12.021  14.346
53765W        W20174   7.241   0.429  14.835
53766W        W20175   2.434  39.150   0.222
53767W        W20176  14.623  26.675  14.087
53768W        W20177  29.952  41.068  14.103
53769W        W20178  14.770  35.965  10.269
53770W        W20179  31.645  12.214  14.753
53771W        W20180   7.787  19.955   0.374
53772W        W20181  25.544  37.423   3.173
53773W        W20182  27.707  13.462   4.518
53774W        W20183   4.700  33.859   1.866
53775W        W20184  24.328  14.028  13.612
53776W        W20185  39.260  32.449  11.110
53777W        W20186  32.603  44.723  12.375
53778W        W20187  19.265  36.870   0.346
53779W        W20188  26.791  19.886  14.559
53780W        W20189  14.798  42.079  12.818
53781W        W20190  19.755  19.245   3.780
53782W        W20191  15.037  39.204   0.005
53783W        W20192  33.571  12.969   4.307
53784W        W20193  12.090  15.848  11.846
53785W        W20194  34.749  42.581   3.617
53786W        W20195  44.670   6.852  13.576
53787W        W20196  24.810   2.125   4.631
53788W        W20197  42.216   7.864   2.704
53789W        W20198  29.514  26.651  12.325
53790W        W20199  35.809  34.915   2.385
53791W        W20200  38.004  39.464  12.649
53792W        W20201  18.746  41.394   2.799
53793W        W20202  33.770  30.911  11.218
53794W        W20203  23.448  32.646  13.970
53795W        W20204  24.610  44.925   0.241
53796W        W20205  17.093  14.228   5.020
53797W        W20206  25.547   2.018   0.317
53798W        W20207  26.684   2.234  11.105
53799W        W20208  33.585  41.868   1.671
53800W        W20209  35.322  18.477   2.923
53801W        W20210   6.039  27.623  13.191
53802W        W20211   7.163  18.753   3.618
53803W        W20212  14.024  20.968  13.337
53804W        W20213  25.830  41.257   0.952
53805W        W20214  18.575  15.131   4.453
53806W        W20215  39.116   8.271   4.584
53807W        W20216  36.106  19.328  10.697
53808W        W20217  12.121  35.632  12.402
53809W        W20218  39.548  31.997  14.886
53810W        W20219  18.257   9.297   2.338
53811W        W20220  16.394  20.604   3.770
53812W        W20221   5.498   9.664   4.076
53813W        W20222  36.938  25.608  12.533
53814W        W20223  39.439  18.667   4.478
53815W        W20224   0.237  19.445  14.874
53816W        W20225   6.451   9.636  12.897
53817W        W20226  36.181  38.816   4.804
53818W        W20227  41.009  22.110  14.596
53819W        W20228   0.435  20.715  13.324
53820W        W20229  36.555   3.797   4.964
53821W        W20230   9.291  12.136  14.397
53822W        W20231  19.111  27.422  14.717
53823W        W20232  37.358  33.717   4.215
53824W        W20233   6.877   3.848  13.139
53825W        W20234  37.115  42.571  14.340
53826W        W20235  15.917   9.710  11.624
53827W        W20236  43.587  11.831  12.093
53828W        W20237  28.402  15.597  14.538
53829W        W20238  42.913  32.053   2.360
53830W        W20239  19.475   7.112   0.268
53831W        W20240   3.750   9.260   2.039
53832W        W20241  11.202  33.104   1.460
53833W        W20242  14.689  13.445   3.571
53834W        W20243  22.656   4.407   3.822
53835W        W20244  43.021  31.143  12.719
53836W        W20245  17.756  38.048  14.844
53837W        W20246  23.134  19.042  11.491
53838W        W20247  31.859   0.938   3.748
53839W        W20248  17.993  25.239  13.007
53840W        W20249  39.630   6.842   3.393
53841W        W20250   4.952  32.053  10.676
53842W        W20251  36.626   9.043  10.819
53843W        W20252  35.408  11.261   2.011
53844W        W20253   2.195  36.932   0.423
53845W        W20254   0.277  18.573   2.859
53846W        W20255   4.837  11.294   2.406
53847W        W20256  20.385  33.430   4.086
53848W        W20257  25.461  20.766  14.311
53849W        W20258   9.725   6.903   0.165
53850W        W20259  20.760  27.921  13.490
53851W        W20260  11.159  36.101  12.080
53852W        W20261  36.429   4.776  12.005
53853W        W20262  27.752   1.446   1.692
53854W        W20263  29.104  26.411   1.241
53855W        W20264  27.392  28.913   1.681
53856W        W20265  15.585  17.072   3.553
53857W        W20266  43.491  23.752  12.608
53858W        W20267   1.741  43.856   2.307
53859W        W20268  21.203  12.710   2.474
53860W        W20269  17.946  39.956  12.019
53861W        W20270   1.710  15.083  13.527
53862W        W20271  33.903  40.582   1.604
53863W        W20272  30.442  10.126   2.220
53864W        W20273  33.357  20.286  12.990
53865W        W20274  26.202  27.977   0.475
53866W        W20275  12.918  32.928   0.260
53867W        W20276   8.370  32.598  13.442
53868W        W20277  22.341  37.476  11.074
53869W        W20278  41.221  22.070   0.741
53870W        W20279   3.359  35.979   2.291
53871W        W20280  39.514   8.832   2.864
53872W        W20281  21.902  22.046  12.567
53873W        W20282   0.444   9.866   3.746
53874W        W20283  44.326  25.236  11.914
53875W        W20284  32.558   3.956  11.288
53876W        W20285   3.523  26.965   1.774
53877W        W20286   4.466  13.647  12.077
53878W        W20287  32.006  18.669   1.894
53879W        W20288  41.957  42.804  13.839
53880W        W20289  38.948  14.100   1.726
53881W        W20290   8.927  25.485  11.240
53882W        W20291  35.170  40.590  12.059
53883W        W20292  29.780  37.813  13.047
53884W        W20293  33.959  38.560   3.679
53885W        W20294  19.971  10.087   2.701
53886W        W20295  17.642  16.837   3.156
53887W        W20296  25.006  43.395  12.955
53888W        W20297  39.437  44.196   2.345
53889W        W20298  22.340  32.127  13.281
53890W        W20299   2.794  33.158   1.848
53891W        W20300  26.236  12.139  13.123
53892W        W20301  10.874  19.011   3.384
53893W        W20302   6.348  26.446   2.819
53894W        W20303  28.594  15.869   2.220
53895W        W20304   9.143  27.867   5.235
53896W        W20305   4.822   5.920   1.617
53897W        W20306  27.243   3.308  11.233
53898W        W20307  36.482  10.723   2.815
53899W        W20308  24.573  25.842  12.627
53900W        W20309   5.895  31.113  14.348
53901W        W20310   0.464   5.651   4.373
53902W        W20311  25.145  31.441  11.073
53903W        W20312  21.140  34.926  12.116
53904W        W20313   7.891  10.878   1.379
53905W        W20314   3.882  20.838  12.616
53906W        W20315  41.438  33.011   0.237
53907W        W20316  44.553  34.937  13.916
53908W        W20317  26.719   4.946   2.303
53909W        W20318  11.998  44.706  13.986
53910W        W20319  43.011  33.532   0.492
53911W        W20320  22.376  35.349  14.574
53912W        W20321  41.755  37.897   1.319
53913W        W20322  24.275  30.978   1.768
53914W        W20323  10.766  42.319   2.849
53915W        W20324  18.391   3.709   4.375
53916W        W20325  32.628  43.839  13.196
53917W        W20326  44.841  24.076  13.151
53918W        W20327  11.280  41.213   4.762
53919W        W20328  31.036  18.141   3.560
53920W        W20329  37.506  42.081  11.944
53921W        W20330   2.331  14.815  11.249
53922W        W20331  23.555  12.357  11.063
53923W        W20332  18.350   3.221   4.593
53924W        W20333  42.392  14.835   2.984
53925W        W20334  39.011  12.203  11.208
53926W        W20335  17.556   5.333  11.421
53927W        W20336   3.403  38.693   1.529
53928W        W20337  21.009  32.939  12.716
53929W        W20338   6.341  36.084   3.225
53930W        W20339   3.443  15.531   3.687
53931W        W20340  42.849  10.263   1.952
53932W        W20341   8.815  37.261   2.867
53933W        W20342  15.596  44.909   1.146
53934W        W20343  15.247  22.679  14.548
53935W        W20344  23.561  16.601   0.896
53936W        W20345  35.882  14.076   3.155
53937W        W20346  31.194  36.114  13.008
53938W        W20347  13.141  26.809   2.391
53939W        W20348  15.060   7.658   2.368
53940W        W20349  11.833   4.821   2.753
53941W        W20350   1.382  15.521   4.307
53942W        W20351  17.717  42.987   0.759
53943W        W20352   4.738   8.055  10.645
53944W        W20353   3.687  36.140   1.898
53945W        W20354  41.038  41.496  10.708
53946W        W20355  20.976  28.474   2.846
53947W        W20356   4.742  32.572   2.603
53948W        W20357  22.805  37.577  11.239
53949W        W20358  28.183  13.613   4.684
53950W        W20359  41.021  14.339   1.762
53951W        W20360   5.296   8.956  11.942
53952W        W20361  15.317  39.350   4.163
53953W        W20362  44.977  19.571  11.983
53954W        W20363  44.993   9.008   3.575
53955W        W20364  37.599   7.050   2.813
53956W        W20365  13.275  29.888   1.128
53957W        W20366  23.814  26.079  11.909
53958W        W20367  19.397  39.178   4.123
53959W        W20368  30.217  14.354   1.728
53960W        W20369  19.843  31.947  10.739
53961W        W20370  19.161  41.282   2.135
53962W        W20371  39.013  32.003  14.941
53963W        W20372  41.812   7.632   4.061
53964W        W20373  29.036   9.455   2.213
53965W        W20374  22.335  37.956  13.920
53966W        W20375  27.777   2.695   1.204
53967W        W20376   1.269  18.819   0.275
53968W        W20377   7.067  37.426  14.602
53969W        W20378  24.700   2.868  11.136
53970W        W20379  27.138  43.049  14.105
53971W        W20380   6.173  15.782   1.198
53972W        W20381  29.993   0.919  14.864
53973W        W20382  30.303  26.284  11.936
53974W        W20383  39.826  14.266   1.848
53975W        W20384   8.697  11.260   2.230
53976W        W20385  17.554  16.786  10.671
53977W        W20386  27.693  30.822   2.119
53978W        W20387  16.774  34.583  13.447
53979W        W20388  44.040   8.265   2.803
53980W        W20389  25.515  26.255   2.809
53981W        W20390  17.516  20.203  13.577
53982W        W20391  31.608  35.002   4.144
53983W        W20392  32.028  18.514   0.342
53984W        W20393  33.546  34.132   0.882
53985W        W20394  34.432  24.751  12.085
53986W        W20395  19.145  32.963  13.345
53987W        W20396  43.624   9.188  13.987
53988W        W20397  10.710  35.451   0.286
53989W        W20398  37.806  44.830   0.220
53990W        W20399  23.783  42.012   4.949
53991W        W20400  17.525   5.282   2.611
53992W        W20401  43.158  29.868   0.288
53993W        W20402  18.459  21.188  14.898
53994W        W20403  43.463  17.385   1.892
53995W        W20404  13.395  10.766  10.890
53996W        W20405  33.360   8.262   3.207
53997W        W20406  44.332  24.742   4.152
53998W        W20407   5.695  36.439  12.761
53999W        W20408  33.400  10.177  14.390
54000W        W20409  21.597  44.308  10.558
54001W        W20410   8.127   1.420  12.464
54002W        W20411  26.639  15.892   0.693
54003W        W20412  44.639   0.852   5.096
54004W        W20413  20.696  31.889   3.409
54005W        W20414  34.517  14.006  12.332
54006W        W20415  18.187  34.094  12.087
54007W        W20416  10.766  22.201   3.755
54008W        W20417  29.862  42.581  10.634
54009W        W20418  35.563  20.141  14.293
54010W        W20419  25.172   5.827  13.650
54011W        W20420  37.119  23.286  10.696
54012W        W20421  32.471  35.359  13.029
54013W        W20422  33.109   2.185   0.770
54014W        W20423  34.340  19.241   0.445
54015W        W20424   0.217  26.423   0.934
54016W        W20425   6.155  23.081   4.493
54017W        W20426  18.004  26.245  14.597
54018W        W20427  37.445  27.621   2.383
54019W        W20428  15.550  27.893   4.652
54020W        W20429   0.787  31.436   1.932
54021W        W20430  38.998  37.773   2.066
54022W        W20431  25.968  17.636   4.174
54023W        W20432  14.236  26.263   1.864
54024W        W20433  27.051  42.028   1.459
54025W        W20434   5.032  40.499   0.353
54026W        W20435  25.345  14.072  14.381
54027W        W20436  13.356  30.854   0.047
54028W        W20437  36.049  30.077  14.566
54029W        W20438   1.947  35.927  11.969
54030W        W20439  34.868  38.310   4.803
54031W        W20440  42.966  23.654  14.841
54032W        W20441  25.978  24.115   1.686
54033W        W20442  38.897  41.528  13.061
54034W        W20443   3.214  11.260   2.354
54035W        W20444  32.502  31.046  12.899
54036W        W20445  19.715   8.512  12.468
54037W        W20446  29.780   9.316   3.025
54038W        W20447  23.267   1.450   0.403
54039W        W20448   0.475  24.602   4.511
54040W        W20449   5.900  39.524  13.431
54041W        W20450  16.671  17.295  10.702
54042W        W20451  12.439  16.552   2.886
54043W        W20452   7.756  10.279   4.598
54044W        W20453   6.784   0.371   1.562
54045W        W20454   7.700  33.105   0.535
54046W        W20455  26.015  19.629   4.927
54047W        W20456   4.801  22.067  14.367
54048W        W20457  13.104   6.201  13.576
54049W        W20458  21.729  27.222   4.024
54050W        W20459  26.469  11.950   4.918
54051W        W20460  21.255  25.222  12.022
54052W        W20461  13.150  13.311  14.801
54053W        W20462  33.326  34.976  13.579
54054W        W20463  12.253   4.231   0.418
54055W        W20464  32.037  36.552  14.818
54056W        W20465  17.851  37.914  10.596
54057W        W20466   9.866   0.735   2.260
54058W        W20467  28.086  36.661  12.726
54059W        W20468  16.784  23.375   4.548
54060W        W20469  36.229  39.775  11.078
54061W        W20470  36.997  32.619   3.568
54062W        W20471  40.914  24.990   1.688
54063W        W20472  28.746  14.134   1.623
54064W        W20473  12.670  26.022  13.101
54065W        W20474  39.331  41.098   1.181
54066W        W20475   7.854  10.664   3.283
54067W        W20476   9.680  36.427  11.017
54068W        W20477   5.387  41.437   5.218
54069W        W20478   7.684  15.090  12.429
54070W        W20479  18.603   7.917  13.279
54071W        W20480   4.938   9.675  12.513
54072W        W20481  15.532  43.878   2.286
54073W        W20482  30.904  10.826   4.179
54074W        W20483  16.005  19.690   2.139
54075W        W20484   8.930  32.490   2.235
54076W        W20485  39.232  10.857   0.850
54077W        W20486  38.107  31.571   4.291
54078W        W20487  14.876  13.366  14.358
54079W        W20488  21.038  27.950  11.544
54080W        W20489  28.677  32.377  11.110
54081W        W20490  20.251  41.206  12.122
54082W        W20491  31.198  18.934   1.679
54083W        W20492  34.515  31.036   2.445
54084W        W20493  20.717  34.616  12.857
54085W        W20494  43.258  23.905   1.368
54086W        W20495  30.201  13.793  11.519
54087W        W20496  22.080  27.430  11.511
54088W        W20497  14.721   0.357  13.751
54089W        W20498  18.334  44.245   4.608
54090W        W20499  18.194  35.101  11.988
54091W        W20500  35.090   2.104   3.026
54092W        W20501  22.046  22.118   5.333
54093W        W20502  17.112  28.694  11.430
54094W        W20503  34.318  18.020  14.777
54095W        W20504  12.383   1.818   4.517
54096W        W20505  39.612  14.010  10.984
54097W        W20506   2.444  42.477  10.880
54098W        W20507   4.471  13.951  14.013
54099W        W20508   3.683   0.546  11.620
54100W        W20509  41.657  17.456   0.262
54101W        W20510  25.702  31.512  14.813
54102W        W20511  30.962   6.522  14.743
54103W        W20512  21.593  43.311  13.587
54104W        W20513   8.117   4.888  11.805
54105W        W20514  44.440   5.651  12.531
54106W        W20515  41.254  30.392  12.122
54107W        W20516  39.930  34.870   0.738
54108W        W20517   0.900  12.071  14.376
54109W        W20518   9.708  36.461   3.152
54110W        W20519  37.155  32.792   1.142
54111W        W20520  31.924  33.335  10.259
54112W        W20521  19.210  18.184   0.562
54113W        W20522  13.915  11.804  14.300
54114W        W20523   4.695  36.442  13.016
54115W        W20524  12.410   8.357   0.892
54116W        W20525   4.121  41.811  13.410
54117W        W20526  41.759  33.560  13.574
54118W        W20527  20.972  15.417  10.897
54119W        W20528  39.647   0.068   1.879
54120W        W20529  25.640  43.000  12.476
54121W        W20530  12.238  22.041  11.295
54122W        W20531  41.930  15.719   1.684
54123W        W20532  22.148  38.039  13.446
54124W        W20533  38.851  40.059   3.698
54125W        W20534  32.191  42.376  10.481
54126W        W20535  20.701   6.996  12.041
54127W        W20536   7.101  15.634  12.878
54128W        W20537  27.595  37.448  14.967
54129W        W20538  33.508  20.446   4.120
54130W        W20539  25.944  15.558   3.841
54131W        W20540   4.204  34.841  11.941
54132W        W20541  27.351  26.045   2.667
54133W        W20542  29.398  27.229   4.219
54134W        W20543  11.312  33.936  13.493
54135W        W20544  28.239   0.103  10.213
54136W        W20545  34.999  15.085   4.826
54137W        W20546  11.602  40.783  13.508
54138W        W20547  10.093  44.920   3.177
54139W        W20548  24.465   4.843   1.763
54140W        W20549  13.104  21.103   0.301
54141W        W20550  31.465  35.574   0.783
54142W        W20551  35.023  33.033  14.187
54143W        W20552  31.373   6.777  14.947
54144W        W20553  35.101   8.772  10.745
54145W        W20554  41.817   4.915   1.572
54146W        W20555   7.903   1.497   1.926
54147W        W20556  34.364   0.769  12.529
54148W        W20557  22.580  20.606   4.604
54149W        W20558  36.792  37.875  11.616
54150W        W20559  44.145  42.818  11.161
54151W        W20560   8.301  22.633   0.008
54152W        W20561  43.791  36.367  13.438
54153W        W20562  26.101  32.133   4.759
54154W        W20563   5.795  16.016   0.268
54155W        W20564  33.296   4.887   5.124
54156W        W20565   0.416  16.993   4.879
54157W        W20566  43.022   8.291   1.009
54158W        W20567  31.985  39.276   4.746
54159W        W20568  12.241  35.007  13.639
54160W        W20569  43.698  16.048   4.342
54161W        W20570  18.988  35.383   1.389
54162W        W20571  11.564  17.241  10.110
54163W        W20572   4.904  41.494   1.391
54164W        W20573  16.653   2.986  14.254
54165W        W20574   2.483  30.987   1.258
54166W        W20575  27.781   3.029   5.010
54167W        W20576  13.421  17.760  13.972
54168W        W20577  32.988  26.504  14.931
54169W        W20578  42.462   7.571  11.669
54170W        W20579  17.055  42.212   2.318
54171W        W20580  10.797  17.053   3.167
54172W        W20581  44.809   0.056   3.557
54173W        W20582   8.450   7.751  11.994
54174W        W20583   0.370  25.726  13.024
54175W        W20584   9.100  31.966   0.575
54176W        W20585  34.917   4.202   1.910
54177W        W20586  15.890  40.968   0.501
54178W        W20587  30.911  35.258  13.826
54179W        W20588   7.877  20.217  12.163
54180W        W20589  24.689  18.267   3.207
54181W        W20590  40.357   1.996   1.363
54182W        W20591  38.050  12.885   1.897
54183W        W20592  23.732  24.031   0.464
54184W        W20593  14.951  18.547  12.993
54185W        W20594   7.705  29.024   0.181
54186W        W20595   7.610  10.210   3.237
54187W        W20596   5.319  32.622  10.624
54188W        W20597  38.867   4.773   1.458
54189W        W20598   1.397   3.017   4.800
54190W        W20599  15.541  19.220   3.138
54191W        W20600   9.887  11.306   1.689
54192W        W20601  40.498   4.814   1.914
54193W        W20602  20.201  36.034   2.881
54194W        W20603  28.491  37.071   3.840
54195W        W20604   9.119  41.922  13.016
54196W        W20605   1.768  20.991   1.215
54197W        W20606  29.466  26.498   2.403
54198W        W20607  26.309   5.449   3.115
54199W        W20608  36.865  38.416  11.563
54200W        W20609  32.402  18.827   3.641
54201W        W20610  20.493  44.580  12.060
54202W        W20611  19.633  36.780   3.679
54203W        W20612   1.922   8.290   3.389
54204W        W20613   4.030   4.854   1.705
54205W        W20614  31.078  28.057   4.535
54206W        W20615  16.545  16.094   3.048
54207W        W20616  16.734  13.660   1.712
54208W        W20617   3.400  22.811  13.240
54209W        W20618  25.930  42.365  13.079
54210W        W20619  14.705  15.090   3.327
54211W        W20620  30.631  16.368   2.905
54212W        W20621   6.415  41.283   0.491
54213W        W20622  18.240  36.156   3.883
54214W        W20623  20.765   5.681   4.616
54215W        W20624  33.508  44.137  12.484
54216W        W20625  43.940   6.211   4.572
54217W        W20626  27.461  10.541   3.657
54218W        W20627  37.990  35.646   3.720
54219W        W20628  39.376   6.607   1.818
54220W        W20629  15.324  34.049   1.752
54221W        W20630  10.237   6.070   1.201
54222W        W20631  18.237  18.271  12.206
54223W        W20632  28.019   4.522  11.654
54224W        W20633   2.315  44.979   2.876
54225W        W20634  15.509   5.140   3.633
54226W        W20635  36.895  14.786   1.737
54227W        W20636  32.908   1.303  14.766
54228W        W20637  35.315  24.454  13.817
54229W        W20638  13.349  15.111   3.520
54230W        W20639  13.799   2.299  12.479
54231W        W20640  37.765  23.144  13.332
54232W        W20641  32.412   8.418   3.260
54233W        W20642  20.064   9.786  14.723
54234W        W20643  12.052  14.184   4.677
54235W        W20644  32.608  31.156  12.420
54236W        W20645  31.918   4.258  12.102
54237W        W20646   3.477  34.343   4.619
54238W        W20647  41.486  32.506  14.764
54239W        W20648  39.401   9.197  12.129
54240W        W20649   4.733  24.969   1.994
54241W        W20650  20.524  22.180  10.669
54242W        W20651  36.536   3.394   1.768
54243W        W20652  26.906  29.466   3.174
54244W        W20653   7.485  41.776  12.516
54245W        W20654  16.229  30.152   4.676
54246W        W20655  21.143  39.424  14.347
54247W        W20656   4.030  15.518  11.111
54248W        W20657  35.633   7.799   3.297
54249W        W20658  15.800  42.623   2.725
54250W        W20659   1.862   9.384  14.533
54251W        W20660  22.005  10.171   2.781
54252W        W20661  11.392   9.102  13.833
54253W        W20662  19.833  37.802   2.331
54254W        W20663   9.626  21.693   4.667
54255W        W20664  34.297  43.753  10.728
54256W        W20665   3.791   9.551   3.797
54257W        W20666  24.158  12.329  11.662
54258W        W20667  14.588  38.886  14.853
54259W        W20668  28.604  18.237   0.054
54260W        W20669  22.784  17.352   1.801
54261W        W20670   5.706  17.290   4.210
54262W        W20671  10.968  21.139  11.034
54263W        W20672  31.231  43.451   1.290
54264W        W20673  10.245  13.834   3.132
54265W        W20674   4.675  41.389  13.415
54266W        W20675   5.400  43.628   4.091
54267W        W20676  21.815  23.133   2.417
54268W        W20677   0.640  26.232  11.222
54269W        W20678   1.204   4.216   0.400
54270W        W20679   7.428  42.506  13.136
54271W        W20680  16.732  15.028  13.961
54272W        W20681  35.386  10.863  12.262
54273W        W20682  10.590  41.657   4.614
54274W        W20683  38.536   7.465   1.485
54275W        W20684  15.076  43.426   3.090
54276W        W20685  31.240  21.309   1.824
54277W        W20686  36.708  13.305   3.683
54278W        W20687   0.348  18.597   1.497
54279W        W20688  38.933  29.691   0.846
54280W        W20689  30.858  31.109  11.952
54281W        W20690  11.542   4.953  10.629
54282W        W20691  11.715  38.969   4.600
54283W        W20692  10.453  19.839  11.548
54284W        W20693  43.256  10.876   3.166
54285W        W20694  24.601  39.919  14.722
54286W        W20695  10.361  22.610  13.898
54287W        W20696  42.769  18.580  13.574
54288W        W20697  32.314  23.546   3.095
54289W        W20698  23.637   5.732   1.988
54290W        W20699  24.687  17.687  11.194
54291W        W20700  24.528  27.611  11.520
54292W        W20701  38.045   0.966  13.720
54293W        W20702  20.040  10.389   2.301
54294W        W20703  32.780   9.188   2.050
54295W        W20704  44.848  30.961   2.913
54296W        W20705  13.472  22.194   4.076
54297W        W20706  30.325   2.963   9.895
54298W        W20707  32.499  40.946   0.369
54299W        W20708   2.617  26.466  10.293
54300W        W20709  36.479   2.021   0.324
54301W        W20710  23.333  23.053  12.200
54302W        W20711  31.464  34.573   1.156
54303W        W20712  39.815  37.713   2.714
54304W        W20713  16.056  34.277   2.381
54305W        W20714  24.705   6.272   2.671
54306W        W20715  37.847   7.674   1.041
54307W        W20716  17.560   5.350  11.927
54308W        W20717   4.596  19.057  13.393
54309W        W20718  31.866   1.683   4.902
54310W        W20719   0.203  20.684   2.778
54311W        W20720  12.251   7.626   1.052
54312W        W20721   4.900  12.647  14.891
54313W        W20722   0.857   9.460  13.282
54314W        W20723  23.104  36.618   1.792
54315W        W20724  22.572  16.788  13.384
54316W        W20725  35.385  33.501   2.309
54317W        W20726  30.658  36.435   0.275
54318W        W20727  42.821  27.423   3.843
54319W        W20728  36.222  41.914  12.754
54320W        W20729  11.866  17.165  10.558
54321W        W20730  23.965   9.170   3.136
54322W        W20731  26.931  18.212   0.234
54323W        W20732   9.274  18.715  12.090
54324W        W20733  32.623  26.712   4.060
54325W        W20734  32.096  44.466   3.674
54326W        W20735  12.848  14.167  13.078
54327W        W20736  44.819   8.677   1.900
54328W        W20737  13.889  13.293   1.962
54329W        W20738  40.370  15.051   1.277
54330W        W20739  42.188  32.110  10.942
54331W        W20740  21.710  18.345   1.193
54332W        W20741   7.941  25.723  14.096
54333W        W20742  30.066  19.505   0.491
54334W        W20743  36.335  25.686   1.320
54335W        W20744  35.604   5.060   3.733
54336W        W20745  18.819  21.964   0.995
54337W        W20746  26.788   3.238  14.100
54338W        W20747  31.829  27.532  13.831
54339W        W20748  28.885  23.450  11.668
54340W        W20749  40.733  25.762  13.963
54341W        W20750  17.772  40.568  11.056
54342W        W20751  40.499  33.327  13.965
54343W        W20752  10.356  37.492  10.780
54344W        W20753   7.408  28.404   1.811
54345W        W20754   5.414  37.660  13.464
54346W        W20755  41.753  17.712   3.272
54347W        W20756   7.250  33.489   4.498
54348W        W20757   5.979  40.677   1.243
54349W        W20758  39.460  20.470  13.398
54350W        W20759  13.846  39.303  10.743
54351W        W20760  25.140  43.691   2.684
54352W        W20761  26.127  30.427   2.491
54353W        W20762  39.339  35.446   2.118
54354W        W20763  34.151  15.030  12.953
54355W        W20764   7.362  26.155  11.630
54356W        W20765  10.112  34.317   2.772
54357W        W20766   9.657   3.751   1.227
54358W        W20767  35.431  42.687   2.328
54359W        W20768  31.851  22.459   1.014
54360W        W20769   4.677  30.573   3.897
54361W        W20770  18.417  13.312   4.046
54362W        W20771  20.047  41.287   3.139
54363W        W20772  30.946  21.218   0.869
54364W        W20773  29.903   9.325  12.648
54365W        W20774  23.659  18.257   4.452
54366W        W20775  43.934  10.644   4.306
54367W        W20776   0.396  11.005   4.560
54368W        W20777  27.495  11.409  13.592
54369W        W20778  35.072  12.933  11.109
54370W        W20779  33.347  11.525  10.182
54371W        W20780  25.388   9.379   5.331
54372W        W20781   0.257  17.430  14.928
54373W        W20782  30.706  34.424   2.190
54374W        W20783  10.646  44.728  11.648
54375W        W20784   0.914  40.110   3.703
54376W        W20785  10.128  29.468   4.024
54377W        W20786  31.185  31.692   1.322
54378W        W20787  44.153  34.044   3.598
54379W        W20788  43.219  25.563  14.893
54380W        W20789  36.655  43.123   2.804
54381W        W20790  34.875   2.821  14.888
54382W        W20791   9.880  25.080   0.201
54383W        W20792  41.567  33.960   1.951
54384W        W20793   1.046  21.449  10.725
54385W        W20794   6.999  26.947  10.719
54386W        W20795  43.977  36.516  12.967
54387W        W20796  43.358  33.983  10.855
54388W        W20797  44.843  12.130  12.509
54389W        W20798  32.148  39.751  12.588
54390W        W20799  11.862  11.831  14.457
54391W        W20800   6.783  17.343   3.233
54392W        W20801  10.342  13.243  13.106
54393W        W20802   7.416  13.788   2.346
54394W        W20803  31.005  12.785  12.966
54395W        W20804  20.663  26.716  12.808
54396W        W20805  34.928  17.976   1.888
54397W        W20806   9.855  21.464   2.540
54398W        W20807  22.234  14.643  14.391
54399W        W20808  11.109  14.946   2.819
54400W        W20809  35.820  17.932  11.375
54401W        W20810   2.843  23.058  10.805
54402W        W20811  40.866  28.700  11.599
54403W        W20812  12.942  13.108  13.456
54404W        W20813  41.912  14.474  13.898
54405W        W20814  36.581  30.754   0.388
54406W        W20815  17.203  29.389   1.926
54407W        W20816  33.409  33.332   4.031
54408W        W20817  20.547  18.034   4.292
54409W        W20818  29.966   1.960   4.556
54410W        W20819  23.989   9.698   3.256
54411W        W20820  21.666   0.412  11.593
54412W        W20821   7.241   9.596   1.620
54413W        W20822  39.441  14.972  10.224
54414W        W20823   6.299   3.876   3.120
54415W        W20824  36.942   1.524   4.193
54416W        W20825  37.937  22.134  11.991
54417W        W20826  43.939  25.078   2.903
54418W        W20827  15.484   5.858   3.142
54419W        W20828  26.445  44.608   3.318
54420W        W20829  19.973  21.578  11.521
54421W        W20830   2.181   8.203   2.412
54422W        W20831  35.912  31.231  13.935
54423W        W20832  12.326   9.731  10.884
54424W        W20833  24.467  39.575   1.528
54425W        W20834  27.042  10.389  11.239
54426W        W20835   0.302  29.017   1.481
54427W        W20836  35.093   6.094   4.130
54428W        W20837  10.632  31.459   1.850
54429W        W20838   0.611  15.331  11.133
54430W        W20839   5.792   0.022  10.719
54431W        W20840  21.907  19.511   4.472
54432W        W20841  38.645  38.948  12.229
54433W        W20842   8.670  10.815  13.299
54434W        W20843  20.136   5.860  14.089
54435W        W20844   6.615  24.625   2.765
54436W        W20845  27.376  26.548   2.571
54437W        W20846  11.456  36.988   5.562
54438W        W20847  25.653  25.751  11.873
54439W        W20848  41.051  16.104  13.934
54440W        W20849  25.697  32.364  12.438
54441W        W20850  43.534  36.839  11.683
54442W        W20851   9.248  28.110   1.373
54443W        W20852  10.191  42.765   4.917
54444W        W20853  24.080  10.213   5.042
54445W        W20854  24.155  14.032   3.339
54446W        W20855  27.274   0.744   0.400
54447W        W20856  38.942  39.956  12.624
54448W        W20857  21.454  39.133   0.483
54449W        W20858   9.698  36.957   0.341
54450W        W20859  30.313  27.088   4.096
54451W        W20860  10.726  32.312  12.477
54452W        W20861   9.896  43.904   2.824
54453W        W20862  40.445  30.375  13.085
54454W        W20863  11.653   1.289  11.595
54455W        W20864  17.051   6.344   3.707
54456W        W20865   3.741  11.221  13.377
54457W        W20866  36.107  34.117   4.188
54458W        W20867  26.150  35.620   2.900
54459W        W20868  36.545   8.631   3.758
54460W        W20869   1.877   5.351  12.508
54461W        W20870  20.200  26.548  13.065
54462W        W20871   0.321  31.118  14.032
54463W        W20872  44.054  40.956   0.029
54464W        W20873   1.887   9.123   1.316
54465W        W20874  18.054  42.392  12.947
54466W        W20875  20.641  40.338  13.745
54467W        W20876  39.104   2.014  14.456
54468W        W20877  20.418  27.638   3.772
54469W        W20878  28.527  29.594  11.964
54470W        W20879  24.140  16.199  12.483
54471W        W20880  39.902   2.916  13.357
54472W        W20881  16.628  15.682   3.392
54473W        W20882  15.166  25.647   0.964
54474W        W20883  19.058  14.600   2.906
54475W        W20884  39.142  42.068  12.386
54476W        W20885  32.885  33.562  10.672
54477W        W20886  33.914  24.562  14.053
54478W        W20887  40.806  25.243  13.987
54479W        W20888  39.404  38.570   1.336
54480W        W20889  21.468  22.724   2.262
54481W        W20890  28.001  27.911  14.923
54482W        W20891  24.825   0.734  10.799
54483W        W20892   1.754  38.364  13.874
54484W        W20893  30.514  30.922   4.269
54485W        W20894  25.489  44.280  13.311
54486W        W20895  28.760  29.854  11.076
54487W        W20896  10.119  37.045  10.708
54488W        W20897  18.749  30.250   5.141
54489W        W20898  17.191  36.386  13.768
54490W        W20899  18.397  25.906  14.870
54491W        W20900   5.339  35.005  12.603
54492W        W20901  18.251  39.126   1.609
54493W        W20902  32.513  31.582   2.752
54494W        W20903  39.871  38.713   0.500
54495W        W20904  21.948  11.081  14.295
54496W        W20905  28.945  39.828   3.574
54497W        W20906  34.587  40.416  10.425
54498W        W20907  13.140   4.548   0.221
54499W        W20908   6.833  27.472   3.342
54500W        W20909  44.994  44.509   9.958
54501W        W20910  14.077  28.170  13.960
54502W        W20911  19.122  37.962   4.628
54503W        W20912   7.694  29.146   2.209
54504W        W20913  32.141  23.622  14.872
54505W        W20914  31.600   1.028  10.633
54506W        W20915  13.848  44.362   1.224
54507W        W20916  10.342  25.374   4.912
54508W        W20917   3.157  30.428   2.756
54509W        W20918  11.262  20.072   3.640
54510W        W20919  36.887  33.172  13.452
54511W        W20920  38.351  35.186  14.525
54512W        W20921  39.942   2.441   2.184
54513W        W20922  21.812  28.930   3.642
54514W        W20923  44.957  35.624  12.892
54515W        W20924  12.214  22.938  10.331
54516W        W20925   4.710  33.230   0.435
54517W        W20926  38.922   3.526  11.589
54518W        W20927  23.873  26.626  11.117
54519W        W20928  35.408  11.124  10.429
54520W        W20929   9.575  21.405  14.886
54521W        W20930  16.392   5.770  12.515
54522W        W20931   0.193  13.119   2.671
54523W        W20932   1.445  13.799  13.612
54524W        W20933  20.040  29.842  12.185
54525W        W20934  12.278  30.245  11.509
54526W        W20935   9.161  14.640  13.498
54527W        W20936   2.818  44.301  14.003
54528W        W20937  39.916   8.836   5.037
54529W        W20938   4.227   1.451  10.486
54530W        W20939   1.926  18.240   1.329
54531W        W20940   5.015  24.454   2.585
54532W        W20941  32.664   3.574  12.124
54533W        W20942   7.681  16.570   2.406
54534W        W20943  25.235  16.096   0.436
54535W        W20944   3.719  12.324  11.090
54536W        W20945  11.641  25.093   4.621
54537W        W20946  13.758  16.691  11.221
54538W        W20947  26.239   8.616   1.702
54539W        W20948  25.671  18.167   0.968
54540W        W20949  10.838  22.632   3.192
54541W        W20950  15.569  19.571  12.976
54542W        W20951   6.420   1.815   3.673
54543W        W20952  41.769   1.738  10.703
54544W        W20953  30.950   7.363   2.142
54545W        W20954  23.008  25.658   1.053
54546W        W20955  32.867  42.876  10.622
54547W        W20956   4.771  40.514  13.510
54548W        W20957  39.415  12.129  11.577
54549W        W20958  30.262  28.246  14.455
54550W        W20959  15.038   9.165   0.412
54551W        W20960  43.545  24.466  10.760
54552W        W20961  21.403  32.470  14.847
54553W        W20962  17.561  16.723   0.830
54554W        W20963  42.522  13.804   3.409
54555W        W20964  33.681  23.729   0.939
54556W        W20965  41.263  19.282  14.560
54557W        W20966  14.038  32.695   2.393
54558W        W20967  32.487  26.140   0.735
54559W        W20968  35.023  24.517  14.910
54560W        W20969  43.021  39.032  12.067
54561W        W20970  35.337  42.072  11.175
54562W        W20971  19.326  39.576  14.245
54563W        W20972  22.540  28.037  10.629
54564W        W20973  23.147  32.661   4.548
54565W        W20974   4.946  32.820   0.693
54566W        W20975  35.691  27.164   3.288
54567W        W20976  29.930   4.340  11.791
54568W        W20977  20.797  26.531   1.830
54569W        W20978   4.678  42.365  14.484
54570W        W20979  10.901  36.811   2.352
54571W        W20980  40.862  38.949   4.587
54572W        W20981  15.119  41.994   1.649
54573W        W20982  14.734  41.780   1.911
54574W        W20983  42.778  43.500   4.238
54575W        W20984  16.819  14.125  12.079
54576W        W20985  21.560  20.077  11.121
54577W        W20986  17.509  17.163  13.467
54578W        W20987  14.140  44.177   2.587
54579W        W20988  26.896   2.324   2.107
54580W        W20989  38.995  31.161   3.632
54581W        W20990  31.874  14.221   3.991
54582W        W20991  43.861  28.371  12.927
54583W        W20992  19.473  31.952  12.463
54584W        W20993  18.374  19.774  13.607
54585W        W20994  38.045  43.731  14.272
54586W        W20995  41.324  12.823   2.407
54587W        W20996  40.738  35.090   2.163
54588W        W20997   8.231  11.714   1.266
54589W        W20998  11.826  38.457   4.531
54590W        W20999   5.988  35.362  14.417
54591W        W21000  35.329  14.680   4.124
54592W        W21001   1.732  10.627  13.412
54593W        W21002  34.477  14.161   2.788
54594W        W21003   1.634  32.580  13.521
54595W        W21004  31.249   0.893   0.849
54596W        W21005   9.961   7.386   3.761
54597W        W21006  13.800  27.096   3.154
54598W        W21007  41.255  32.955  14.310
54599W        W21008  36.103  33.912   2.310
54600W        W21009  39.273  29.866   1.265
54601W        W21010  29.463  43.809  13.931
54602W        W21011  44.243  11.286  12.655
54603W        W21012  39.235   7.680   0.274
54604W        W21013  22.131  36.186  14.786
54605W        W21014  10.782  33.965   3.711
54606W        W21015  11.420  33.620  14.006
54607W        W21016  25.655  23.519   3.655
54608W        W21017   8.464  34.000  11.255
54609W        W21018  13.335  14.252   0.788
54610W        W21019  11.242  40.464   2.253
54611W        W21020   6.247   0.329   4.461
54612W        W21021  20.594  44.271  13.910
54613W        W21022  16.119  43.835  13.377
54614W        W21023   4.647  31.793  14.310
54615W        W21024  30.539  10.097   0.950
54616W        W21025  12.196  10.788   0.230
54617W        W21026  15.131  40.106   5.086
54618W        W21027  35.124  13.816   3.653
54619W        W21028  17.771   4.833   3.599
54620W        W21029   0.183  28.994   2.795
54621W        W21030   7.686   1.886  11.269
54622W        W21031  24.707  27.142   3.792
54623W        W21032  10.388  39.559  10.796
54624W        W21033   5.599  41.567  11.403
54625W        W21034  30.086   2.742   0.296
54626W        W21035   6.384   1.409   1.788
54627W        W21036  20.161  38.540  12.696
54628W        W21037  25.151  23.765   1.728
54629W        W21038  33.012  15.878   2.541
54630W        W21039  11.539  17.283  12.832
54631W        W21040  41.821  31.849   2.287
54632W        W21041   7.684  43.354  11.540
54633W        W21042  25.602  13.380   3.879
54634W        W21043  15.492  23.091  11.156
54635W        W21044  13.102  12.648  13.266
54636W        W21045   1.331  17.805   1.961
54637W        W21046   7.191  41.450   2.647
54638W        W21047  17.194  30.388  12.785
54639W        W21048  27.638  37.825  12.705
54640W        W21049  24.095  35.381   4.573
54641W        W21050   0.019  10.630  12.166
54642W        W21051  25.019  10.466   4.054
54643W        W21052  36.352   4.086  11.138
54644W        W21053  10.602  38.737   1.352
54645W        W21054  35.954  44.602   0.180
54646W        W21055  11.173   0.910  12.034
54647W        W21056   9.192  24.580  10.958
54648W        W21057  27.963  17.084   2.429
54649W        W21058  15.701  25.680   0.898
54650W        W21059  43.512  26.626   4.474
54651W        W21060  34.526  18.513  11.023
54652W        W21061   3.013  12.709  11.567
54653W        W21062  23.793  19.581  14.335
54654W        W21063  14.729  35.644  12.594
54655W        W21064  18.290   4.873  13.006
54656W        W21065  40.536  19.260  12.007
54657W        W21066  11.653   6.255   3.163
54658W        W21067  44.836  24.007   3.271
54659W        W21068   7.613  40.275  13.903
54660W        W21069  44.716  12.129  10.639
54661W        W21070  35.603   5.577  10.991
54662W        W21071  41.302  26.973   3.204
54663W        W21072  36.449  25.985  11.025
54664W        W21073  37.657  23.943  10.639
54665W        W21074  23.265  38.392   3.598
54666W        W21075  32.885  35.931  14.267
54667W        W21076   9.843   8.934   1.319
54668W        W21077  41.937  25.648  11.906
54669W        W21078  12.125  12.276   1.199
54670W        W21079   8.793  15.782  11.963
54671W        W21080  42.029  40.127   2.666
54672W        W21081  10.290  42.950   4.431
54673W        W21082  23.081  36.090  13.917
54674W        W21083  41.972  31.146   3.697
54675W        W21084  33.669   3.774  11.625
54676W        W21085   8.637  10.114  12.234
54677W        W21086  15.683   2.363  12.019
54678W        W21087  16.907  43.329  11.322
54679W        W21088  24.217  16.622   2.566
54680W        W21089   0.080  22.252   0.335
54681W        W21090  10.116   4.439   1.757
54682W        W21091  27.505   2.499  13.820
54683W        W21092  33.500  29.661  11.240
54684W        W21093  16.716   6.637  12.651
54685W        W21094  27.189  26.578   1.688
54686W        W21095  14.342  33.629   1.518
54687W        W21096  42.940  44.687   1.406
54688W        W21097   9.687  10.304   4.554
54689W        W21098  16.174   8.451  13.219
54690W        W21099   7.169  12.918   3.989
54691W        W21100   6.603   5.635   3.287
54692W        W21101  31.980  35.978  10.912
54693W        W21102  23.009   4.728  11.190
54694W        W21103   4.923  44.270  12.091
54695W        W21104   7.166  20.757   2.752
54696W        W21105  33.674  36.831  14.567
54697W        W21106  15.292   9.911  10.609
54698W        W21107  29.978  37.175  12.012
54699W        W21108  19.069  29.411   1.759
54700W        W21109   6.135  14.351  13.407
54701W        W21110  25.463   2.376  12.696
54702W        W21111  11.843  39.655   2.817
54703W        W21112  18.793  35.653   0.047
54704W        W21113  33.193   1.218   3.150
54705W        W21114  36.051  21.675   4.039
54706W        W21115  32.182  13.861   4.804
54707W        W21116  32.903  37.590  10.786
54708W        W21117   8.873  23.213  12.995
54709W        W21118  33.566  33.546   1.680
54710W        W21119   1.947  24.214  12.659
54711W        W21120   6.793  26.033  10.711
54712W        W21121   2.446   8.661  13.449
54713W        W21122  19.787  21.653  14.787
54714W        W21123  28.944  37.035  12.029
54715W        W21124   9.075  18.113  12.634
54716W        W21125  31.888  21.670  11.264
54717W        W21126  21.214  44.821   2.108
54718W        W21127  22.049  26.959   0.487
54719W        W21128  29.716  34.925  14.774
54720W        W21129  12.749   2.727   4.927
54721W        W21130   4.410  41.982  13.951
54722W        W21131  21.958  16.506  14.422
54723W        W21132  28.743  23.790   0.972
54724W        W21133  22.250  25.513   2.769
54725W        W21134  20.694  10.173   4.558
54726W        W21135   9.955   1.670  14.690
54727W        W21136  25.705  11.997   0.235
54728W        W21137   4.835  42.280  13.875
54729W        W21138   6.595  37.254   2.380
54730W        W21139  36.056   3.297  13.894
54731W        W21140  21.662  16.320  13.530
54732W        W21141   8.936  30.571   3.692
54733W        W21142  12.653  40.792   0.717
54734W        W21143   2.731  40.107  14.400
54735W        W21144   8.730  38.944  12.916
54736W        W21145   2.414  42.959   0.906
54737W        W21146  23.467   6.929   0.947
54738W        W21147  33.449   4.058   2.670
54739W        W21148  34.685  17.198   0.771
54740W        W21149  38.623  26.728  11.583
54741W        W21150  28.093   0.250   4.744
54742W        W21151   3.743   8.921  14.850
54743W        W21152  36.592  37.839  10.825
54744W        W21153  42.578  33.396   4.201
54745W        W21154   2.884  25.299  11.617
54746W        W21155  26.877  38.912   9.972
54747W        W21156   1.860  31.764   4.069
54748W        W21157   5.341   1.148   3.673
54749W        W21158  36.581  12.340  13.330
54750W        W21159   3.927  17.735  12.587
54751W        W21160   9.336  36.545   2.378
54752W        W21161   7.417  24.214   3.262
54753W        W21162  24.170   3.340   3.900
54754W        W21163  32.017  29.639  12.153
54755W        W21164   1.455  25.715   3.432
54756W        W21165   3.143  27.228  13.038
54757W        W21166  35.967  17.760   1.875
54758W        W21167  37.023  42.093   3.449
54759W        W21168  11.342   2.734   0.817
54760W        W21169  11.286  39.933   3.628
54761W        W21170  33.440  41.873   0.340
54762W        W21171  38.685  39.287   0.417
54763W        W21172  28.244   0.055   4.094
54764W        W21173  13.617  31.576   4.265
54765W        W21174  28.945  24.419  12.471
54766W        W21175  43.098  41.976  13.954
54767W        W21176  41.404  25.184  12.120
54768W        W21177  40.989   3.390   2.912
54769W        W21178  29.425  38.820  14.867
54770W        W21179  25.248  30.133   4.077
54771W        W21180   8.690  29.027   4.251
54772W        W21181  21.620  22.668   3.968
54773W        W21182  30.140  23.906   2.143
54774W        W21183  14.183  11.600   0.400
54775W        W21184   8.215  12.740  12.327
54776W        W21185  33.521   6.316   0.662
54777W        W21186  30.316  41.446  10.384
54778W        W21187  24.926  26.584  14.835
54779W        W21188  43.890  27.881   4.320
54780W        W21189   4.675   4.292   0.937
54781W        W21190  11.917  26.484   4.594
54782W        W21191  27.749   5.734  10.621
54783W        W21192  41.375  25.942  12.610
54784W        W21193  23.795   7.455   3.306
54785W        W21194   3.959  37.372   0.365
54786W        W21195  13.284  22.121   9.904
54787W        W21196  40.041  27.710  10.684
54788W        W21197   9.060  31.137  13.471
54789W        W21198  15.760  23.040  10.684
54790W        W21199  19.942  27.973   0.757
54791W        W21200  39.541  44.843  13.067
54792W        W21201  19.071  17.712   4.792
54793W        W21202   9.323  22.430   3.204
54794W        W21203  19.078  23.646   2.653
54795W        W21204  33.425  40.251  13.785
54796W        W21205  32.175  35.980   4.728
54797W        W21206  20.702  28.421   0.207
54798W        W21207   2.812   3.937  13.325
54799W        W21208   5.958  31.011  12.370
54800W        W21209  16.853  10.294   3.363
54801W        W21210   8.859  10.033   0.799
54802W        W21211  21.597  26.634  13.933
54803W        W21212   2.354  41.066   4.060
54804W        W21213  44.036  43.189  11.534
54805W        W21214  30.086  33.036   4.558
54806W        W21215   1.858  20.333   1.672
54807W        W21216  39.824  19.027   3.155
54808W        W21217  23.509  30.162   3.095
54809W        W21218   2.858  26.018   4.111
54810W        W21219  11.504   3.967  13.933
54811W        W21220  42.061  44.401  12.417
54812W        W21221  35.056   3.420   2.820
54813W        W21222  20.153  33.710  10.334
54814W        W21223  21.194  42.336  13.831
54815W        W21224  15.795  14.305  11.236
54816W        W21225  33.129  34.431   0.730
54817W        W21226  36.888  20.767  14.354
54818W        W21227  28.461  23.490  13.939
54819W        W21228  19.774  17.664   3.689
54820W        W21229  12.837  19.716   2.218
54821W        W21230  43.179   3.965  11.163
54822W        W21231   3.321  30.725   4.065
54823W        W21232  13.076  23.972   0.303
54824W        W21233  26.881  42.117  14.018
54825W        W21234   1.816  34.986   3.104
54826W        W21235  22.048   7.432  11.670
54827W        W21236  16.118  31.533  11.256
54828W        W21237   8.200  17.777  11.586
54829W        W21238  11.796  22.230  12.929
54830W        W21239  23.143   9.635   3.086
54831W        W21240  44.238  28.366  11.782
54832W        W21241  21.533  36.334   1.770
54833W        W21242  24.180  21.508  12.644
54834W        W21243  15.101  38.904   3.231
54835W        W21244  42.864   1.743  12.502
54836W        W21245  28.545   2.937   1.236
54837W        W21246   5.772  28.420   2.196
54838W        W21247  43.286  26.317   1.122
54839W        W21248   1.335  17.684   0.263
54840W        W21249  11.272  14.255   2.137
54841W        W21250   4.765  36.153   4.329
54842W        W21251  10.365  12.290   3.243
54843W        W21252  28.451  11.251   0.277
54844W        W21253  30.363  27.861   2.929
54845W        W21254  30.420  16.164   1.518
54846W        W21255  23.918  17.237   5.074
54847W        W21256   8.442  21.962   4.185
54848W        W21257  32.073   6.248   2.595
54849W        W21258  23.975  32.696  13.911
54850W        W21259  25.242  37.729   0.385
54851W        W21260  21.610   5.157   4.611
54852W        W21261  14.081   5.265  14.037
54853W        W21262  41.877  11.905  10.985
54854W        W21263   5.876  21.709  10.941
54855W        W21264   9.857  33.846  11.736
54856W        W21265  24.472  22.573   1.906
54857W        W21266  20.261   4.859   4.538
54858W        W21267  12.856  44.821   1.342
54859W        W21268  17.136  33.234   2.162
54860W        W21269  23.472  26.896   1.699
54861W        W21270  42.831   8.930   4.049
54862W        W21271   8.172  17.355  12.884
54863W        W21272   8.186  40.918  13.849
54864W        W21273   0.128  23.059   3.133
54865W        W21274  30.177  24.468   1.530
54866W        W21275  34.545   7.801  14.370
54867W        W21276  44.292  10.969   3.115
54868W        W21277  36.149   9.594   0.464
54869W        W21278  33.673  31.494   4.123
54870W        W21279   2.502   3.947  10.773
54871W        W21280  22.626  29.475  14.870
54872W        W21281   1.938   3.828   3.880
54873W        W21282  32.817  16.065  14.096
54874W        W21283  18.672  30.742   2.959
54875W        W21284  25.151  21.757   2.635
54876W        W21285   8.461  20.298   0.306
54877W        W21286  10.601   7.066   2.358
54878W        W21287  43.855  34.497   4.814
54879W        W21288   8.615  26.533  13.998
54880W        W21289  31.484  12.259   4.164
54881W        W21290   3.017  38.181   0.938
54882W        W21291   1.388  35.355   0.760
54883W        W21292  18.292  23.227   2.454
54884W        W21293  34.378  14.044  11.449
54885W        W21294  40.804  27.401  12.106
54886W        W21295  27.696  27.495   1.812
54887W        W21296  41.963  26.406  11.441
54888W        W21297  27.229  40.357  11.023
54889W        W21298  28.924  14.699  11.699
54890W        W21299  25.123  13.286   2.705
54891W        W21300  32.234  12.350  13.984
54892W        W21301  26.954  44.465   3.760
54893W        W21302  27.749  14.802   4.078
54894W        W21303  37.400  28.141   3.008
54895W        W21304  22.166   8.346  12.222
54896W        W21305  35.645  34.110   1.815
54897W        W21306  30.890   8.428   2.774
54898W        W21307  27.577  15.015  10.733
54899W        W21308  30.524  28.691   3.477
54900W        W21309  41.589  27.856  14.267
54901W        W21310  22.154  18.740  10.761
54902W        W21311  10.437  18.909  13.726
54903W        W21312   1.745  24.666  14.436
54904W        W21313  28.406  15.187   1.416
54905W        W21314   3.248  32.951  13.868
54906W        W21315  27.067  25.301   0.828
54907W        W21316  13.292  18.506   0.344
54908W        W21317  34.363  18.533   0.915
54909W        W21318  38.667   1.421  12.932
54910W        W21319  30.088  23.574  14.378
54911W        W21320  12.409  32.692  11.220
54912W        W21321  42.532   8.372  13.236
54913W        W21322   4.381   8.372  10.468
54914W        W21323  44.872   3.225  12.950
54915W        W21324  40.339  14.728  10.927
54916W        W21325  19.133  19.078   2.323
54917W        W21326  36.959  34.562  11.714
54918W        W21327  33.183   8.281   1.081
54919W        W21328   0.648  14.759   4.260
54920W        W21329   2.136  42.824  12.113
54921W        W21330  20.603  15.258   3.415
54922W        W21331  27.578   7.408  12.303
54923W        W21332  30.971  23.111  14.779
54924W        W21333  29.723  10.336  11.191
54925W        W21334  38.890  17.649  12.096
54926W        W21335  31.659  21.545   4.141
54927W        W21336  44.458   3.594   2.722
54928W        W21337  35.875  41.398   4.782
54929W        W21338  25.200  22.227   3.242
54930W        W21339  23.720   9.934  11.219
54931W        W21340  15.111  11.521  13.885
54932W        W21341   2.907  42.334  13.058
54933W        W21342  15.312  41.829  11.985
54934W        W21343   0.050  13.190   2.176
54935W        W21344  42.729  40.320   1.756
54936W        W21345  43.224   9.858  11.735
54937W        W21346   2.210  37.968   4.579
54938W        W21347  32.347  34.427  12.893
54939W        W21348  39.333  23.612  11.012
54940W        W21349   7.203  11.325   2.190
54941W        W21350  39.955   0.958  11.645
54942W        W21351  14.042  30.118   0.800
54943W        W21352   0.186  38.043   3.254
54944W        W21353  13.633   0.560   4.178
54945W        W21354  38.127  34.922  10.698
54946W        W21355  15.838   8.672  12.750
54947W        W21356  18.584  41.717  14.902
54948W        W21357  18.406   7.831   3.258
54949W        W21358   8.024   2.171   4.788
54950W        W21359  12.518  13.292   4.457
54951W        W21360  42.401  17.054  14.621
54952W        W21361  10.215  22.067   1.241
54953W        W21362  19.547   3.119   1.284
54954W        W21363   8.937  38.379   0.389
54955W        W21364  37.415  21.190  12.130
54956W        W21365   9.507  11.753  14.671
54957W        W21366  32.515   9.326   0.630
54958W        W21367  30.678  22.367   1.280
54959W        W21368  36.486   9.093  11.801
54960W        W21369  12.098   4.326  11.015
54961W        W21370  33.558  33.433   0.312
54962W        W21371  37.145   2.171  14.898
54963W        W21372  17.774   6.116   2.865
54964W        W21373  19.451  25.867   4.315
54965W        W21374  31.912  33.099  13.748
54966W        W21375  38.634  37.123   4.391
54967W        W21376  32.035   7.783   0.591
54968W        W21377  42.898  40.294  14.812
54969W        W21378  16.567  24.738  11.150
54970W        W21379  39.984  25.716   4.654
54971W        W21380  15.572  25.116  14.278
54972W        W21381   5.245  16.747   3.172
54973W        W21382  34.086   1.925  12.343
54974W        W21383   3.687   3.807   3.218
54975W        W21384  29.656  20.693   1.760
54976W        W21385  37.165   4.228  11.532
54977W        W21386  34.579  17.860  13.931
54978W        W21387  38.920  11.154   3.144
54979W        W21388   7.185  11.904   3.459
54980W        W21389   7.769  20.229   4.535
54981W        W21390  20.475  18.957   3.333
54982W        W21391  42.583  42.446  12.859
54983W        W21392  43.451  25.133   3.738
54984W        W21393  37.329  28.947  12.081
54985W        W21394  39.762  15.693   4.643
54986W        W21395   7.789  16.035   3.591
54987W        W21396  40.077  28.981   2.293
54988W        W21397   8.473  43.340   2.376
54989W        W21398  11.863   1.278  13.085
54990W        W21399  29.410  11.785   5.318
54991W        W21400  15.897  32.917   2.851
54992W        W21401   6.400  13.047   4.150
54993W        W21402  28.521  23.497  12.612
54994W        W21403   3.416  43.385  11.482
54995W        W21404  17.084  11.674   4.547
54996W        W21405   5.868  25.498  14.365
54997W        W21406  43.941  29.903   2.686
54998W        W21407  41.357  38.281   4.335
54999W        W21408  14.027  40.156  10.621
55000W        W21409  41.741  24.250  14.962
55001W        W21410   2.923   3.987   0.744
55002W        W21411  26.203  40.302   3.162
55003W        W21412  36.499  11.938   3.942
55004W        W21413   5.383   1.423  11.469
55005W        W21414  26.185  38.613  13.476
55006W        W21415  37.570  37.650  12.577
55007W        W21416   2.002  34.504   3.009
55008W        W21417   6.238  20.750   2.606
55009W        W21418  34.553  43.571   4.265
55010W        W21419  41.854  11.072  14.574
55011W        W21420  12.693   6.805  14.860
55012W        W21421  32.923  44.461   3.326
55013W        W21422  30.080  28.380   0.433
55014W        W21423  33.136  19.608  12.054
55015W        W21424  42.971  25.587  11.100
55016W        W21425   9.636  44.040   3.257
55017W        W21426   9.702  36.280  14.783
55018W        W21427  14.729  39.164  11.151
55019W        W21428  20.278  16.566  11.103
55020W        W21429  31.878  42.428   1.410
55021W        W21430   3.243  39.004  11.983
55022W        W21431  11.775   4.891  14.483
55023W        W21432   2.129  25.284   2.737
55024W        W21433  12.704   5.777   3.621
55025W        W21434  12.329   8.625  13.962
55026W        W21435  39.412  21.784   3.850
55027W        W21436  39.809  19.330  14.006
55028W        W21437  43.534  30.187   3.003
55029W        W21438  43.671  26.436   1.873
55030W        W21439   9.965  37.373   2.145
55031W        W21440  27.124  12.656  10.938
55032W        W21441  19.481   0.683   1.312
55033W        W21442  17.442  30.331   4.236
55034W        W21443   9.191   8.890  12.208
55035W        W21444  18.532  24.013   0.027
55036W        W21445  29.265  29.571   2.458
55037W        W21446   9.391  20.327  13.281
55038W        W21447  19.156   7.213   3.443
55039W        W21448  41.353  26.231  11.222
55040W        W21449  38.275   7.748  13.522
55041W        W21450   9.662  34.122   2.546
55042W        W21451  26.009   4.813  11.396
55043W        W21452  41.881  17.630   1.649
55044W        W21453  40.826   5.437  13.292
55045W        W21454  23.144  33.141  12.904
55046W        W21455  12.854  41.385  10.900
55047W        W21456   7.406  37.536  12.674
55048W        W21457  22.737  22.961   4.077
55049W        W21458  21.547   8.668  13.768
55050W        W21459  20.935  41.351   2.125
55051W        W21460  44.328   0.767   2.539
55052W        W21461  19.069  32.859   1.398
55053W        W21462  29.227  36.335   4.090
55054W        W21463  13.693  36.431   2.303
55055W        W21464  10.097   3.785   0.278
55056W        W21465   3.129  38.741   2.277
55057W        W21466  10.236  30.019  11.675
55058W        W21467   1.993  30.132   3.325
55059W        W21468  28.284  10.779   0.483
55060W        W21469  39.540  15.280   1.806
55061W        W21470   8.728   2.783   1.531
55062W        W21471   0.864  26.321  10.767
55063W        W21472  33.413  10.365   1.690
55064W        W21473  26.272  12.757   1.325
55065W        W21474  34.472   6.920  14.166
55066W        W21475  39.012  44.215  13.846
55067W        W21476  23.057  31.646   2.057
55068W        W21477  41.958  30.442  14.768
55069W        W21478  12.346  22.124  14.792
55070W        W21479  25.863   6.941  10.987
55071W        W21480  43.342  33.091  12.565
55072W        W21481  18.023  20.158  13.517
55073W        W21482   5.207  23.067  11.209
55074W        W21483  21.138  38.487  14.293
55075W        W21484  31.902  13.347  12.982
55076W        W21485   6.191  12.249   4.570
55077W        W21486   5.360  14.185   1.692
55078W        W21487  35.271  17.580  14.407
55079W        W21488  22.674  33.267   3.377
55080W        W21489  42.275  28.390   1.016
55081W        W21490  41.771   7.426   4.541
55082W        W21491  16.113  18.221   4.301
55083W        W21492  44.714  34.604  12.931
55084W        W21493  34.129  27.584  13.314
55085W        W21494  27.950  40.989   4.522
55086W        W21495  20.106   7.790  14.424
55087W        W21496  10.305  16.993  10.300
55088W        W21497  23.235   1.745   0.821
55089W        W21498   1.539   4.980   1.806
55090W        W21499  18.708  38.281   4.582
55091W        W21500   1.594  23.592  10.747
55092W        W21501   7.558  36.194   1.240
55093W        W21502   5.348   7.480   0.864
55094W        W21503  33.738  28.023  10.833
55095W        W21504   3.803  23.488   0.840
55096W        W21505  15.234  16.840  10.528
55097W        W21506  28.239   3.261   5.043
55098W        W21507  20.622  23.027   3.759
55099W        W21508   0.080  29.515  11.669
55100W        W21509  21.599  20.693  14.194
55101W        W21510   3.674  41.952   3.369
55102W        W21511  22.876   7.823   2.301
55103W        W21512   9.809  27.161   9.747
55104W        W21513  23.739  17.382   3.148
55105W        W21514  19.589  22.071  11.643
55106W        W21515  34.497  13.711   1.430
55107W        W21516  28.050  40.517   4.164
55108W        W21517  34.865  27.549  14.441
55109W        W21518   2.967  40.072   0.969
55110W        W21519   9.389  24.120   2.348
55111W        W21520  29.713  17.087  12.998
55112W        W21521  34.857   4.810  12.225
55113W        W21522  18.682  29.558  12.897
55114W        W21523  40.418   5.001   2.548
55115W        W21524  26.721  39.072   3.210
55116W        W21525  22.996   3.270   3.064
55117W        W21526  21.991  24.646  10.313
55118W        W21527  39.957  15.536   4.182
55119W        W21528  13.673  37.833   0.847
55120W        W21529  40.889  40.407   2.098
55121W        W21530   2.286  39.050   2.576
55122W        W21531   3.243  42.237   3.281
55123W        W21532  33.575  26.267  10.054
55124W        W21533  41.895   6.604  10.324
55125W        W21534   5.183  31.705   4.138
55126W        W21535  25.120  11.624  11.896
55127W        W21536  18.729  18.139   2.129
55128W        W21537   7.208  38.936   3.786
55129W        W21538  11.403  16.469  14.284
55130W        W21539  15.524  40.508   0.378
55131W        W21540  25.240  30.626  14.493
55132W        W21541  11.619  42.150   4.158
55133W        W21542  11.860  11.442  11.205
55134W        W21543  39.934  16.331   1.327
55135W        W21544  28.112  32.091  14.134
55136W        W21545  23.963  43.795   1.434
55137W        W21546  23.074  10.795   1.327
55138W        W21547  15.043  32.140  11.610
55139W        W21548   7.773  14.296   0.326
55140W        W21549  34.897  28.441  11.203
55141W        W21550  20.869  31.430   0.779
55142W        W21551  12.256   9.371  12.660
55143W        W21552  38.257  23.097  14.801
55144W        W21553  27.511   1.729   1.225
55145W        W21554   9.860  17.786   3.643
55146W        W21555  38.339   6.973   0.969
55147W        W21556  15.195  28.403   2.661
55148W        W21557  34.552  38.328   0.549
55149W        W21558   3.409   4.452   0.423
55150W        W21559  19.419  10.565   1.577
55151W        W21560   7.606  16.462   1.223
55152W        W21561   8.140  17.011   4.270
55153W        W21562  40.562  35.564   3.431
55154W        W21563  31.801  20.300  13.906
55155W        W21564  40.331  12.658   2.612
55156W        W21565  43.682  27.396   3.412
55157W        W21566   4.104  26.441   1.320
55158W        W21567   4.707  37.359  12.968
55159W        W21568  27.729   3.096  10.615
55160W        W21569  32.644   2.685   1.264
55161W        W21570  18.450  26.730   4.139
55162W        W21571  23.590   1.626  11.941
55163W        W21572  22.596  41.765   4.708
55164W        W21573  14.732  23.961  14.730
55165W        W21574  17.569  38.467   0.145
55166W        W21575  14.364   0.713   9.814
55167W        W21576  25.017  34.075  11.703
55168W        W21577  10.112  19.647  11.873
55169W        W21578  22.805  35.643  14.519
55170W        W21579  25.051  23.730  13.696
55171W        W21580  17.806  31.931   0.774
55172W        W21581   6.291  42.343   3.211
55173W        W21582  33.954   7.039   0.149
55174W        W21583  27.572   8.327  13.823
55175W        W21584  43.694  21.304   4.058
55176W        W21585  24.034  27.707  11.485
55177W        W21586  24.062  38.977   1.725
55178W        W21587  17.317  15.752  12.455
55179W        W21588  28.850  29.897  12.873
55180W        W21589  11.208  23.164   4.839
55181W        W21590  44.025  44.054   4.234
55182W        W21591  10.586   6.366   2.696
55183W        W21592  23.155  39.690  13.791
55184W        W21593   0.545  26.942  12.402
55185W        W21594  24.069  15.542  14.368
55186W        W21595  43.709  33.916   3.321
55187W        W21596  31.562  14.183  13.340
55188W        W21597  38.887  43.252  11.027
55189W        W21598  15.439  43.202  10.391
55190W        W21599  36.025  17.542  13.923
55191W        W21600  34.462  24.228   2.686
55192W        W21601  42.397  29.682  12.560
55193W        W21602  11.932  12.098  14.911
55194W        W21603  14.111  35.090  12.981
55195W        W21604  13.562  34.673  13.369
55196W        W21605   5.515  36.084  11.956
55197W        W21606  32.545   0.056   4.558
55198W        W21607  25.040  27.539   0.866
55199W        W21608  19.042  15.609  10.916
55200W        W21609  21.095  29.478   2.674
55201W        W21610  34.073  36.122   0.769
55202W        W21611   7.689  41.876   1.307
55203W        W21612   1.549  37.981  13.405
55204W        W21613  21.138   0.469  10.708
55205W        W21614  35.132  11.690  10.641
55206W        W21615  35.002  12.890  10.595
55207W        W21616   3.348  39.091  13.996
55208W        W21617  33.407  33.427  12.625
55209W        W21618  29.436  16.242   1.217
55210W        W21619  15.594  15.322   0.498
55211W        W21620  29.047  19.594  12.036
55212W        W21621  23.992  36.306  10.554
55213W        W21622   5.907  30.832   2.004
55214W        W21623  28.916  43.431  12.417
55215W        W21624  21.418  37.970   3.854
55216W        W21625  29.240  12.095   4.002
55217W        W21626   9.621  35.603   4.219
55218W        W21627   3.667  30.597   1.430
55219W        W21628  30.885   5.308  11.881
55220W        W21629  24.535  29.603   0.542
55221W        W21630  35.054  42.011   2.795
55222W        W21631  25.575  24.131   5.675
55223W        W21632  30.277   5.817   2.764
55224W        W21633  44.195  29.644   3.400
55225W        W21634   3.063  43.381   5.062
55226W        W21635   3.326  10.122  11.310
55227W        W21636  15.871  18.780   3.149
55228W        W21637  32.774   4.758   0.528
55229W        W21638   0.023  18.073  11.073
55230W        W21639  40.133   0.388  12.401
55231W        W21640  30.933  11.223   2.010
55232W        W21641  39.830  28.900  12.198
55233W        W21642  27.197  37.764  12.430
55234W        W21643  11.451   0.005  11.024
55235W        W21644  20.989  25.523  14.530
55236W        W21645  19.070  29.869  13.778
55237W        W21646  29.594  26.936   0.898
55238W        W21647  14.559  17.292  11.168
55239W        W21648  13.201  44.767  14.831
55240W        W21649  12.129  15.298  14.209
55241W        W21650   7.850   8.205  13.464
55242W        W21651  21.005  21.704   3.437
55243W        W21652  22.225  15.360  14.039
55244W        W21653  39.518  20.254  14.772
55245W        W21654  16.191  32.411   0.700
55246W        W21655  32.825   0.467  13.843
55247W        W21656  26.612  38.020   0.946
55248W        W21657  38.576   2.015   1.019
55249W        W21658   5.083  30.139  13.939
55250W        W21659  30.505  19.222   0.293
55251W        W21660  16.525  16.174   4.660
55252W        W21661  14.282  35.179   0.899
55253W        W21662  19.604  14.880  10.809
55254W        W21663  43.270   0.202  12.318
55255W        W21664  37.015  18.019   0.016
55256W        W21665  34.322  37.556  14.878
55257W        W21666  40.475  27.464  11.517
55258W        W21667  28.134  14.034  13.165
55259W        W21668  19.748   2.292  14.291
55260W        W21669  44.752   0.964  12.107
55261W        W21670  34.117  17.606  13.859
55262W        W21671  33.922  39.880   0.370
55263W        W21672  23.297  25.492   1.508
55264W        W21673  41.611  44.277  12.637
55265W        W21674   1.215   5.344  14.353
55266W        W21675  28.650  21.263  14.488
55267W        W21676  42.017  33.327  12.663
55268W        W21677  41.995  38.374   0.865
55269W        W21678  39.076  35.326  14.953
55270W        W21679  31.725   4.899  11.654
55271W        W21680   6.547  15.418  13.961
55272W        W21681  34.582   0.949  13.950
55273W        W21682   3.049  28.473   0.322
55274W        W21683  24.293  19.002   2.836
55275W        W21684  40.344   5.005   3.088
55276W        W21685  21.359  30.587   0.750
55277W        W21686  15.609  11.154   0.740
55278W        W21687   4.898   2.755   1.819
55279W        W21688   7.644  13.604  14.796
55280W        W21689  16.502  13.637  11.989
55281W        W21690  40.401  27.982  13.060
55282W        W21691   8.122  44.337  13.500
55283W        W21692   6.666   0.402   2.042
55284W        W21693  35.655   3.516   1.796
55285W        W21694  21.223   5.751  14.845
55286W        W21695  36.579   8.896   9.862
55287W        W21696   2.187  31.351  14.304
55288W        W21697   8.088  35.783  11.397
55289W        W21698  35.218  17.713   3.487
55290W        W21699  37.395   1.282   3.217
55291W        W21700  36.883  20.611   0.281
55292W        W21701  25.010  35.804  14.288
55293W        W21702  15.636   0.698  10.391
55294W        W21703  36.505   5.674  13.042
55295W        W21704  19.820   7.346  14.430
55296W        W21705  40.562  35.911  12.406
55297W        W21706  31.650  39.059  14.382
55298W        W21707   2.448   0.025  14.539
55299W        W21708  31.009   4.219  11.067
55300W        W21709  24.608   9.205  11.672
55301W        W21710  17.374  29.525   1.460
55302W        W21711  28.048   2.211   1.344
55303W        W21712  11.547  14.053  13.719
55304W        W21713   9.255   9.886   4.988
55305W        W21714  25.034  15.881  11.489
55306W        W21715  34.022   2.015   2.273
55307W        W21716   9.921  43.284  11.490
55308W        W21717   3.875  34.455   0.632
55309W        W21718  26.380  37.584  10.074
55310W        W21719  29.019  42.385   4.593
55311W        W21720  41.942  14.021   4.781
55312W        W21721  27.106   3.167   1.932
55313W        W21722   2.477  35.616   0.785
55314W        W21723  20.142  20.719   2.191
55315W        W21724  13.064  34.395   0.359
55316W        W21725  36.660  34.954   4.468
55317W        W21726  40.157  10.637  11.185
55318W        W21727  13.656   5.355  12.695
55319W        W21728  13.704  20.226  14.517
55320W        W21729  41.792  42.272  13.555
55321W        W21730  23.061  34.064  10.687
55322W        W21731  15.387   8.324   0.855
55323W        W21732  35.538  15.918   2.914
55324W        W21733   4.981  43.222  11.138
55325W        W21734  13.860  15.627  14.049
55326W        W21735  14.775  38.667   1.641
55327W        W21736   2.799  18.273   1.388
55328W        W21737  43.876  36.146   2.604
55329W        W21738  36.756  13.062  11.481
55330W        W21739  24.335   5.173   4.048
55331W        W21740  10.269   9.633   2.223
55332W        W21741  31.141  21.230  11.146
55333W        W21742   3.232  19.473   1.712
55334W        W21743  38.016  28.542   4.560
55335W        W21744  29.290  21.574  13.531
55336W        W21745  41.016  34.470   1.647
55337W        W21746  29.988   0.013   4.858
55338W        W21747  13.349  38.374  14.706
55339W        W21748  37.192  42.288   1.938
55340W        W21749  43.505   5.683  12.474
55341W        W21750  39.389  31.740  14.240
55342W        W21751  28.723  20.315  11.912
55343W        W21752  38.294   8.441   1.892
55344W        W21753  10.927  21.098  11.635
55345W        W21754   4.940  39.661   2.581
55346W        W21755  15.172  37.550   0.804
55347W        W21756  41.040  34.786  14.787
55348W        W21757   5.960   1.667   1.959
55349W        W21758  22.031  18.123  11.277
55350W        W21759   8.464   1.257  12.084
55351W        W21760   6.536  24.523  11.179
55352W        W21761   8.838  33.925  14.556
55353W        W21762   2.791  26.264  11.676
55354W        W21763  28.571  32.142   0.685
55355W        W21764  29.851  25.751  11.184
55356W        W21765  29.717   1.522   4.525
55357W        W21766  14.885  43.888   3.191
55358W        W21767  32.699   1.076   0.247
55359W        W21768  42.929  31.633  10.620
55360W        W21769  33.369  12.784   2.808
55361W        W21770   3.815  42.579  13.286
55362W        W21771  27.707  37.293   4.598
55363W        W21772  34.415   4.666  11.174
55364W        W21773   0.989  17.175  14.349
55365W        W21774  34.602  17.138  14.814
55366W        W21775  30.465  10.800   4.472
55367W        W21776  42.447  12.277  13.487
55368W        W21777  11.082  35.168  13.031
55369W        W21778  10.545   4.993   0.907
55370W        W21779   5.847  28.183  10.409
55371W        W21780   9.699  22.040   1.213
55372W        W21781  35.135  41.744   2.322
55373W        W21782   5.227   7.443  14.461
55374W        W21783   1.538  15.166  14.464
55375W        W21784  19.142  34.797   1.396
55376W        W21785  28.886   1.329   1.477
55377W        W21786  36.045  30.415   0.721
55378W        W21787   4.813   4.351   3.246
55379W        W21788   4.167  25.763  13.478
55380W        W21789  13.688  11.059   4.538
55381W        W21790   3.806  36.839   1.317
55382W        W21791  16.571  43.314  10.395
55383W        W21792   4.685  11.666   1.147
55384W        W21793  34.589  29.413  10.747
55385W        W21794   8.533  42.329   3.602
55386W        W21795  27.875  28.646  11.973
55387W        W21796  37.974  22.961  10.747
55388W        W21797  18.176  10.888  13.496
55389W        W21798   9.156  32.409  14.043
55390W        W21799  14.396   0.393  13.319
55391W        W21800   8.842   9.192   4.825
55392W        W21801  35.098   0.724  13.969
55393W        W21802  23.691   7.858  14.825
55394W        W21803   6.799  15.833   3.267
55395W        W21804   9.669   7.229  11.120
55396W        W21805   0.891   4.686  13.476
55397W        W21806  17.820  37.498   2.781
55398W        W21807  12.046   6.181  14.300
55399W        W21808  13.826  27.863   4.249
55400W        W21809  11.272   9.427  13.471
55401W        W21810  43.259  14.576  14.406
55402W        W21811   1.663  44.206  12.961
55403W        W21812  38.913  31.552  12.851
55404W        W21813  29.005   4.556   0.831
55405W        W21814  33.535  38.359   4.573
55406W        W21815  15.855  21.807  13.061
55407W        W21816  33.449   8.411   2.286
55408W        W21817   0.190  37.860  11.040
55409W        W21818  41.633  36.033  11.091
55410W        W21819  43.378  16.552   3.283
55411W        W21820  37.843  11.761  13.689
55412W        W21821  20.563  40.461  11.971
55413W        W21822  42.853  28.547   4.389
55414W        W21823   0.025  38.255   1.068
55415W        W21824  24.089  10.286   4.024
55416W        W21825  27.517  24.499   4.327
55417W        W21826  16.440  41.226   3.790
55418W        W21827   6.094  16.666  14.428
55419W        W21828   2.622  34.769   5.189
55420W        W21829  13.887   2.654  10.723
55421W        W21830   7.096  41.976   0.079
55422W        W21831  43.520  15.510  10.955
55423W        W21832   9.345   7.845   1.178
55424W        W21833  11.853  23.124  13.071
55425W        W21834   0.251  25.501  13.894
55426W        W21835  44.448  31.612   4.271
55427W        W21836  43.582  14.119  12.880
55428W        W21837  40.208   2.847   4.894
55429W        W21838  29.453  33.953  14.955
55430W        W21839  31.689  23.705   0.839
55431W        W21840  17.765  32.071   1.294
55432W        W21841   7.118  16.246   2.786
55433W        W21842  40.443  10.563   5.241
55434W        W21843  37.551  11.572  12.092
55435W        W21844  15.599  37.249   3.193
55436W        W21845  26.015  30.498   4.329
55437W        W21846  41.521  21.736  11.127
55438W        W21847  36.321   3.250  10.768
55439W        W21848  11.822  10.656  12.337
55440W        W21849   5.445  33.233   4.049
55441W        W21850  31.478  43.983  11.064
55442W        W21851  16.563  24.402   1.695
55443W        W21852  33.316  29.547   1.318
55444W        W21853  22.319  41.533  12.098
55445W        W21854  41.300  35.371   4.064
55446W        W21855  21.707   7.828  11.742
55447W        W21856  10.238  22.474   3.244
55448W        W21857  11.337  17.075   4.359
55449W        W21858  13.571  37.477  11.621
55450W        W21859   7.306  40.959   2.830
55451W        W21860  12.306  31.762   3.811
55452W        W21861  14.270  36.461   4.089
55453W        W21862  24.107  41.735   2.000
55454W        W21863  27.581  37.200  11.964
55455W        W21864  20.242   8.820  11.667
55456W        W21865  33.038   6.838  13.539
55457W        W21866   8.447  43.472  13.653
55458W        W21867  43.275   7.848   1.227
55459W        W21868  35.334  33.638   1.798
55460W        W21869  40.720  26.198  13.423
55461W        W21870   7.309  29.041  14.042
55462W        W21871  28.988   5.737   1.271
55463W        W21872  23.362  27.595  11.989
55464W        W21873  12.253  21.691  13.499
55465W        W21874   5.876   2.660   4.173
55466W        W21875  12.151  31.982   0.780
55467W        W21876   4.655  42.490   1.379
55468W        W21877  36.549  44.540  10.385
55469W        W21878  38.695  36.142  11.915
55470W        W21879  41.039  26.568   0.610
55471W        W21880  30.641  17.340  10.441
55472W        W21881  28.046  36.005  13.197
55473W        W21882  34.027  42.043  13.757
55474W        W21883  26.192  33.872   0.325
55475W        W21884  15.831   4.258  10.661
55476W        W21885  11.796  28.331   4.634
55477W        W21886  15.341   8.866   0.080
55478W        W21887  16.617  22.661   5.016
55479W        W21888  19.722  28.913  11.220
55480W        W21889  24.025   5.922   3.795
55481W        W21890  44.392   8.162   0.684
55482W        W21891  28.612  31.236   0.757
55483W        W21892  33.246  41.897   2.208
55484W        W21893  36.421   5.352  10.917
55485W        W21894  14.065  39.520  11.968
55486W        W21895  22.654   4.836   4.517
55487W        W21896  28.553   6.272  11.941
55488W        W21897  20.916  19.699   4.756
55489W        W21898   7.304  25.417  14.460
55490W        W21899  17.923  15.586  10.417
55491W        W21900  21.549  29.164  11.730
55492W        W21901  20.700  16.224   3.668
55493W        W21902  28.781  20.531   3.640
55494W        W21903  23.123  29.203  11.623
55495W        W21904   3.591  10.619  12.939
55496W        W21905   7.476  14.844  11.563
55497W        W21906   6.704  19.627  12.046
55498W        W21907  35.833  11.824  11.653
55499W        W21908  21.496   9.374  11.728
55500W        W21909   5.389  33.135   0.680
55501W        W21910  12.345   2.468  11.734
55502W        W21911  14.493  14.040   0.374
55503W        W21912  29.035   9.882  14.509
55504W        W21913  42.562  16.651  10.678
55505W        W21914  44.814   4.509   2.620
55506W        W21915  29.154  39.022  11.556
55507W        W21916  29.950  43.215  13.609
55508W        W21917  23.271  18.104  11.488
55509W        W21918  35.002   9.123   4.080
55510W        W21919  24.617  22.927  12.656
55511W        W21920  38.517  39.749  13.938
55512W        W21921  29.752  21.447   2.410
55513W        W21922  19.557  35.350   4.751
55514W        W21923  15.528   8.210  12.517
55515W        W21924  28.476  38.793   3.172
55516W        W21925  28.602   4.293  13.033
55517W        W21926  23.057  42.017   4.664
55518W        W21927  41.261  17.650  12.981
55519W        W21928  41.253   6.396   4.698
55520W        W21929  21.169  21.456  13.015
55521W        W21930   5.015  31.855   0.209
55522W        W21931   4.821  23.216   3.304
55523W        W21932  17.175  26.170  12.227
55524W        W21933  13.891   0.749   3.331
55525W        W21934  12.588  37.024  10.225
55526W        W21935  31.029  12.302  13.915
55527W        W21936  11.174  40.726  10.527
55528W        W21937  19.791  42.571   0.302
55529W        W21938  12.195  23.944   0.066
55530W        W21939  19.765  15.390  10.868
55531W        W21940  18.225  13.603  12.426
55532W        W21941   1.829  27.665   4.299
55533W        W21942  20.542  29.443  14.321
55534W        W21943   9.662  37.461   4.082
55535W        W21944   2.183   3.894  12.543
55536W        W21945  23.097  35.041   4.394
55537W        W21946   7.924  40.223  10.702
55538W        W21947  29.669  24.557   2.290
55539W        W21948  37.300  23.500   3.593
55540W        W21949  13.280  26.964  12.144
55541W        W21950  14.554   5.774  11.969
55542W        W21951  12.600   7.354  11.994
55543W        W21952  36.986  10.913  14.866
55544W        W21953  31.288  43.876  13.899
55545W        W21954   2.494  34.404  14.752
55546W        W21955  38.989  29.961  14.094
55547W        W21956  30.224  11.588  13.903
55548W        W21957  20.736  23.530  12.934
55549W        W21958  41.111   9.247   1.112
55550W        W21959   1.615   3.412   4.540
55551W        W21960  36.464   6.340  10.449
55552W        W21961  23.036  32.536  14.868
55553W        W21962  38.260  27.665  10.745
55554W        W21963  19.493  37.205  11.492
55555W        W21964  16.572   0.112  11.202
55556W        W21965   0.286  26.261   0.252
55557W        W21966  15.181   0.738  12.822
55558W        W21967  14.641  13.391   4.536
55559W        W21968  19.621  23.511   4.540
55560W        W21969  21.330  41.457   0.651
55561W        W21970   2.180  22.449  13.061
55562W        W21971  28.973  11.685  14.608
55563W        W21972  35.474  23.491   1.826
55564W        W21973   5.850   0.966  11.001
55565W        W21974  43.817  32.050   0.279
55566W        W21975  10.436   7.622   1.469
55567W        W21976  38.341  33.110   1.774
55568W        W21977  31.230  23.699  11.745
55569W        W21978  39.970  25.972   2.064
55570W        W21979  10.238  37.533  12.860
55571W        W21980  42.689   9.336  14.479
55572W        W21981   6.105  41.469   0.854
55573W        W21982  14.270  44.810   1.246
55574W        W21983  21.127  12.631  14.046
55575W        W21984   8.384   6.421   2.372
55576W        W21985  34.803  29.464   1.781
55577W        W21986   2.067  14.820  10.449
55578W        W21987  32.458   1.613   2.994
55579W        W21988  12.088   8.149   1.806
55580W        W21989  31.369  14.826   1.742
55581W        W21990   5.497   2.264  10.699
55582W        W21991  18.300  22.509  13.663
55583W        W21992  35.443  36.826   4.807
55584W        W21993  12.640  37.191   0.775
55585W        W21994  34.662   2.240  12.451
55586W        W21995  20.317  42.324  14.230
55587W        W21996   7.064  40.889   3.310
55588W        W21997   2.852  44.855   3.441
55589W        W21998   5.874  10.547   0.567
55590W        W21999   3.964  27.132   2.050
55591W        W22000  14.217  22.695   1.119
55592W        W22001  35.737   1.320   0.940
55593W        W22002  18.056  18.813  13.926
55594W        W22003   0.405  29.990   4.436
55595W        W22004  37.089  10.425  12.518
55596W        W22005  11.642  16.225   4.212
55597W        W22006   2.435  16.985   1.497
55598W        W22007  30.824  40.867   1.129
55599W        W22008  21.538  26.453   4.496
55600W        W22009   0.999  12.584  14.344
55601W        W22010  26.627   5.698  11.575
55602W        W22011  28.555   6.125   4.721
55603W        W22012  32.385  39.001  10.658
55604W        W22013  12.745   2.672  14.859
55605W        W22014  39.854  21.810   4.606
55606W        W22015   2.538   4.782  11.974
55607W        W22016  10.281  31.403   4.475
55608W        W22017   7.091  36.202   0.508
55609W        W22018  12.513  20.234  12.357
55610W        W22019  31.564  44.601  12.770
55611W        W22020   6.363  39.424  13.632
55612W        W22021  26.495  22.343  12.916
55613W        W22022  32.751   2.874  13.822
55614W        W22023   6.339  26.152   4.489
55615W        W22024  41.556   6.204  14.768
55616W        W22025  35.937  26.078   4.545
55617W        W22026   1.766  17.486  12.889
55618W        W22027   6.399  44.789  13.844
55619W        W22028  43.830   6.408  14.418
55620W        W22029   1.210   6.183   4.189
55621W        W22030   5.351  37.526   1.726
55622W        W22031  25.093  16.642  10.802
55623W        W22032  10.676  19.985   3.226
55624W        W22033  26.981  22.603  13.376
55625W        W22034  13.162  40.777   2.418
55626W        W22035  25.005   5.925   1.876
55627W        W22036  25.774  43.013   2.438
55628W        W22037  42.938  18.336  14.010
55629W        W22038  34.895  43.381   2.408
55630W        W22039  35.892   6.350   1.464
55631W        W22040   3.812  40.818   2.627
55632W        W22041  32.419  40.532   1.131
55633W        W22042  42.928  16.177  13.242
55634W        W22043   3.794  18.952   4.515
55635W        W22044  43.158   4.495   4.830
55636W        W22045  31.057  12.807   0.694
55637W        W22046   6.389  34.973  13.260
55638W        W22047  15.150  20.047   2.231
55639W        W22048  13.441   3.523  14.288
55640W        W22049  37.831  33.175  10.779
55641W        W22050  31.684  14.367   1.846
55642W        W22051   2.350   8.428   1.484
55643W        W22052  33.980  41.375  14.159
55644W        W22053  34.015  16.084   0.322
55645W        W22054  17.091  35.285   2.116
55646W        W22055  36.837   0.871  12.601
55647W        W22056  34.403  24.234  12.116
55648W        W22057  22.017   4.705  13.392
55649W        W22058  25.554  14.345   2.054
55650W        W22059  37.900  32.736  11.946
55651W        W22060  29.246  10.304  12.959
55652W        W22061  30.916  29.820   1.265
55653W        W22062  18.655   5.442  12.102
55654W        W22063  15.808  18.199   0.942
55655W        W22064  28.904  17.639   3.216
55656W        W22065  39.343   6.818   2.311
55657W        W22066  31.666  42.936   4.181
55658W        W22067   9.336  42.078   2.608
55659W        W22068   9.448  18.576   4.126
55660W        W22069  27.380  18.475   2.258
55661W        W22070   5.729   0.012   0.837
55662W        W22071  35.232   0.402  11.929
55663W        W22072  22.186  15.079   0.330
55664W        W22073  36.880  14.801  11.084
55665W        W22074   8.124  14.759   2.221
55666W        W22075   7.045  12.705  13.978
55667W        W22076  13.065  30.043  13.724
55668W        W22077  35.565  34.999  13.287
55669W        W22078  32.442  23.196  12.619
55670W        W22079   7.859  26.049   2.676
55671W        W22080  33.552  40.457   0.695
55672W        W22081  31.072  14.519   4.442
55673W        W22082   5.871  31.582  13.755
55674W        W22083  44.441   3.167  13.235
55675W        W22084  42.935  35.897   2.572
55676W        W22085   2.707  38.529   3.165
55677W        W22086   8.552  11.412  13.623
55678W        W22087  36.378  25.202  10.603
55679W        W22088  41.200   3.699   3.283
55680W        W22089  40.305  31.584  12.105
55681W        W22090  16.517  34.427   2.268
55682W        W22091  42.314   2.968   4.203
55683W        W22092   9.992  31.841   4.581
55684W        W22093  38.526  15.588   1.882
55685W        W22094  23.018  36.892  11.592
55686W        W22095  11.289  23.960   2.149
55687W        W22096  27.210  17.640   1.471
55688W        W22097  17.651  26.204   0.965
55689W        W22098  35.140  37.804  14.816
55690W        W22099  31.541  30.568   0.938
55691W        W22100  21.560  26.269   2.769
55692W        W22101   8.453  42.108   3.138
55693W        W22102  39.485  30.063  13.933
55694W        W22103   0.463  32.362  11.520
55695W        W22104  21.022  26.991   0.817
55696W        W22105   9.283  21.058   3.089
55697W        W22106   5.353  31.669  11.526
55698W        W22107  21.055   0.216   1.226
55699W        W22108  35.328  12.364   3.768
55700W        W22109  36.426  39.105   0.666
55701W        W22110   9.224  25.558   9.988
55702W        W22111   4.205  38.018   4.495
55703W        W22112  36.406  33.350   2.385
55704W        W22113  37.486  33.843   4.723
55705W        W22114  28.674  31.508  13.067
55706W        W22115  36.308  23.506  11.558
55707W        W22116   1.222  41.414  11.639
55708W        W22117  42.466  38.933  14.602
55709W        W22118  24.694  41.801  11.621
55710W        W22119  22.671   6.874   1.914
55711W        W22120  39.916   8.749  11.094
55712W        W22121  26.000  44.392  14.013
55713W        W22122  10.702  31.387   3.219
55714W        W22123  16.186  26.771   5.138
55715W        W22124  40.941  30.395  10.970
55716W        W22125  23.630  42.054   1.309
55717W        W22126  16.750  15.014  11.996
55718W        W22127  41.556  12.353   2.626
55719W        W22128  37.680  22.058   2.772
55720W        W22129  36.509  11.703   2.466
55721W        W22130  32.849  19.652  13.448
55722W        W22131  13.723  36.538  13.409
55723W        W22132  37.570  22.805   1.395
55724W        W22133   2.850  32.087  13.969
55725W        W22134  16.577  11.482  14.892
55726W        W22135  12.803   3.468   1.824
55727W        W22136  39.363  36.801   1.822
55728W        W22137  44.960  22.618  13.111
55729W        W22138  41.495  30.886  13.073
55730W        W22139   8.833  41.417   1.774
55731W        W22140  10.316  34.354  12.451
55732W        W22141  29.582  23.112  14.797
55733W        W22142  39.806  33.180  13.874
55734W        W22143   7.429  30.272  12.130
55735W        W22144  10.668   5.644   1.298
55736W        W22145  44.580  18.063   4.155
55737W        W22146  26.577  11.395  12.596
55738W        W22147  24.764   3.837   1.736
55739W        W22148  23.699  37.264  12.927
55740W        W22149   0.893   5.802   1.703
55741W        W22150  44.287  42.960   2.885
55742W        W22151  12.931  16.119  11.057
55743W        W22152  12.226  28.180   3.157
55744W        W22153  20.589  43.077  11.177
55745W        W22154  20.262  16.870   2.319
55746W        W22155  10.436   4.913  12.815
55747W        W22156  40.012  15.251   4.755
55748W        W22157  10.716  36.738  10.044
55749W        W22158  28.858  34.007   3.505
55750W        W22159  43.630  33.562  10.670
55751W        W22160  23.659  16.621   3.798
55752W        W22161   5.809  37.351  13.357
55753W        W22162   7.483  10.052   4.172
55754W        W22163  39.852   9.713   0.200
55755W        W22164  13.746  24.198   3.376
55756W        W22165  21.524  34.972   1.697
55757W        W22166   2.169  25.894  11.251
55758W        W22167  35.832  21.135   2.208
55759W        W22168  30.861  39.512   0.792
55760W        W22169   6.111  32.011  12.261
55761W        W22170   1.666  30.646   1.521
55762W        W22171  18.045  18.646  11.909
55763W        W22172   7.262  27.731   2.828
55764W        W22173   2.512  29.344  10.790
55765W        W22174  36.117  35.704  13.536
55766W        W22175   1.990  23.962   0.398
55767W        W22176  24.853  16.667  13.380
55768W        W22177  17.340  43.893  12.433
55769W        W22178   4.739  13.603  11.614
55770W        W22179  35.027   2.215  13.080
55771W        W22180  31.790  43.987  13.999
55772W        W22181  18.535  42.412   0.679
55773W        W22182  28.502   0.217   3.632
55774W        W22183  27.711  19.670  12.426
55775W        W22184  13.630  37.116  13.309
55776W        W22185  44.290  28.789   3.255
55777W        W22186  43.413   9.954   4.479
55778W        W22187  13.076  11.604   1.732
55779W        W22188   5.148  44.532   4.061
55780W        W22189  38.265   6.781   0.017
55781W        W22190  14.912  15.262   4.346
55782W        W22191  15.280  35.404  12.718
55783W        W22192  40.583  37.953  10.672
55784W        W22193  44.538  22.188  12.466
55785W        W22194  32.336  44.091   0.380
55786W        W22195  38.282  27.770  14.309
55787W        W22196  30.995   3.894   2.212
55788W        W22197  25.814   6.205  12.357
55789W        W22198   3.869  29.903  11.959
55790W        W22199  30.196  19.723   3.775
55791W        W22200  28.957  32.120  12.085
55792W        W22201  15.682  37.873  14.116
55793W        W22202  24.427  26.547   3.393
55794W        W22203  33.912  35.089   4.236
55795W        W22204  39.880   9.289  11.200
55796W        W22205  30.671  42.012  14.737
55797W        W22206  35.402   7.369  12.429
55798W        W22207  24.459   2.015  10.709
55799W        W22208   5.963  28.198   2.774
55800W        W22209  17.096   2.765   2.893
55801W        W22210  43.084  39.555   1.352
55802W        W22211  15.610  27.370   4.644
55803W        W22212  38.078  14.710   1.211
55804W        W22213  23.307  28.731  12.534
55805W        W22214  15.499  27.804  10.211
55806W        W22215  32.898  27.772  11.015
55807W        W22216  38.597   2.747  12.600
55808W        W22217  23.913  17.590  10.787
55809W        W22218  41.275  20.438  14.542
55810W        W22219   9.214  32.130  11.925
55811W        W22220  43.255  24.562  11.167
55812W        W22221  39.803  27.556   4.654
55813W        W22222  11.592  10.380  13.725
55814W        W22223  38.894  21.640  11.168
55815W        W22224  38.647  36.358  13.556
55816W        W22225  24.554  24.199   4.038
55817W        W22226  12.202  43.210   2.209
55818W        W22227  42.034  41.362   4.937
55819W        W22228  10.164  38.907  10.614
55820W        W22229  40.753  40.505  14.438
55821W        W22230  16.664   5.337  11.874
55822W        W22231  10.771  20.333   3.637
55823W        W22232  42.462  34.082  14.989
55824W        W22233  30.303   3.112   2.261
55825W        W22234  15.200  38.079  11.268
55826W        W22235  38.252  33.579   2.739
55827W        W22236  23.114  40.492   3.926
55828W        W22237  36.365   9.713  13.013
55829W        W22238  37.070  37.169   4.623
55830W        W22239   1.123   0.934   2.167
55831W        W22240  10.223  23.363   4.451
55832W        W22241   1.457   1.987   4.077
55833W        W22242  11.947  26.616  13.945
55834W        W22243  21.274  38.817  13.244
55835W        W22244  39.329  17.782   3.881
55836W        W22245  10.774   0.353  14.144
55837W        W22246  39.119   3.978  12.418
55838W        W22247   2.732  17.678  11.852
55839W        W22248  34.267  34.719   4.158
55840W        W22249  35.299  37.598   3.811
55841W        W22250   9.670  19.291   4.621
55842W        W22251  44.909  17.906   3.226
55843W        W22252  44.284   2.743  10.208
55844W        W22253  10.774  39.471   1.952
55845W        W22254  15.685  34.877   4.090
55846W        W22255   7.329  15.841   3.749
55847W        W22256  14.347  28.472   4.812
55848W        W22257  21.210   9.996  12.449
55849W        W22258  11.656  21.988   3.616
55850W        W22259  26.778   7.419   2.448
55851W        W22260  43.073   9.212  11.228
55852W        W22261   9.952  11.753   1.920
55853W        W22262  26.979  23.759  11.197
55854W        W22263  35.046  23.449  11.172
55855W        W22264   3.943  10.362  13.385
55856W        W22265  12.865  28.748  11.238
55857W        W22266  43.506  39.941   0.686
55858W        W22267   0.440   0.014  14.542
55859W        W22268  31.165  39.247   1.614
55860W        W22269   9.463  25.116   2.731
55861W        W22270   8.416  19.192  12.305
55862W        W22271  37.056  11.853  10.676
55863W        W22272  13.886   8.158  14.962
55864W        W22273  33.403  17.125  13.421
55865W        W22274  30.268  41.309  11.258
55866W        W22275  12.325   1.882  14.888
55867W        W22276  43.002  11.069   2.733
55868W        W22277  28.675   4.348  12.122
55869W        W22278  22.672  34.253   0.995
55870W        W22279  29.383   4.202  10.379
55871W        W22280  37.373  43.131  13.715
55872W        W22281  37.514  41.545  10.557
55873W        W22282   4.450   9.390   1.822
55874W        W22283  21.459   9.808   2.230
55875W        W22284   0.376  19.116  14.050
55876W        W22285  28.421  19.769  11.404
55877W        W22286  32.725   1.441  10.122
55878W        W22287  33.594  40.146  12.803
55879W        W22288  34.783  13.039  14.896
55880W        W22289  29.688   9.864  14.265
55881W        W22290   5.763  21.456   2.345
55882W        W22291   5.330  29.091  13.318
55883W        W22292  36.964  18.398   0.435
55884W        W22293  41.702  30.040  14.346
55885W        W22294  13.526  27.061  11.440
55886W        W22295  15.124  24.874   1.400
55887W        W22296  10.924   9.257  14.037
55888W        W22297   4.921  27.652  11.401
55889W        W22298  21.092   3.203  12.436
55890W        W22299  25.647  32.318   2.613
55891W        W22300  18.135  34.217   3.029
55892W        W22301  31.001  29.377  10.758
55893W        W22302  18.741   1.028  12.491
55894W        W22303  31.959  36.958  12.093
55895W        W22304  31.118  25.926   0.062
55896W        W22305  28.289  21.209   0.293
55897W        W22306   0.776  30.125   0.336
55898W        W22307  19.488  29.698  11.844
55899W        W22308   3.176  36.979   1.336
55900W        W22309  25.470  20.292  14.489
55901W        W22310  23.462  31.596  12.072
55902W        W22311  21.663  26.024  14.256
55903W        W22312  44.370  11.696  13.605
55904W        W22313   8.172   9.808   2.820
55905W        W22314  42.873  32.407  13.131
55906W        W22315   8.642  12.830   1.411
55907W        W22316   7.169  22.945  13.294
55908W        W22317   3.440  21.233   2.893
55909W        W22318  44.531  11.336  11.839
55910W        W22319  11.585  17.642  13.577
55911W        W22320  36.780   6.731  10.714
55912W        W22321   2.692  23.647  10.135
55913W        W22322  39.560  12.634   0.046
55914W        W22323  39.018  14.616  14.844
55915W        W22324  21.593  28.440   0.328
55916W        W22325  17.213  29.859  13.904
55917W        W22326  33.241   6.255  12.521
55918W        W22327  33.854   8.207   4.747
55919W        W22328  10.453  21.578   4.231
55920W        W22329  26.848   3.660  13.819
55921W        W22330  35.846  11.615  11.175
55922W        W22331   7.654  25.546   2.881
55923W        W22332  15.368  19.797   1.414
55924W        W22333  44.369  14.529  13.417
55925W        W22334  40.919  28.179   2.744
55926W        W22335   7.149  42.568   3.659
55927W        W22336  19.493  38.356  10.660
55928W        W22337  19.383   5.775   4.640
55929W        W22338  23.740  37.466  12.453
55930W        W22339  10.028  12.405  11.174
55931W        W22340  12.335  37.980  11.703
55932W        W22341  36.968  41.043  14.856
55933W        W22342  15.180  19.524  12.064
55934W        W22343   0.312  23.256  12.200
55935W        W22344   9.141  18.609  12.578
55936W        W22345  10.816   1.620   3.563
55937W        W22346   0.227  15.883   3.666
55938W        W22347  13.103  23.939  11.611
55939W        W22348  19.094  31.825  12.040
55940W        W22349   9.866   7.840   3.392
55941W        W22350  27.641  32.293  12.210
55942W        W22351  17.015   7.013   2.266
55943W        W22352  37.709  44.511   2.281
55944W        W22353  22.741  31.531   3.472
55945W        W22354   7.167  14.177  14.003
55946W        W22355  14.579  24.186   0.277
55947W        W22356  13.557   5.300  14.067
55948W        W22357  21.175   3.378  12.924
55949W        W22358   7.207  33.407   1.225
55950W        W22359   5.844  22.045  14.095
55951W        W22360  11.339  28.078   2.834
55952W        W22361  37.344   9.197   0.366
55953W        W22362  34.413   9.931   3.280
55954W        W22363  44.388   1.220   3.263
55955W        W22364  35.298  20.111   3.404
55956W        W22365  36.484  12.368   3.672
55957W        W22366  40.589  12.932  11.177
55958W        W22367  36.432   2.483   0.537
55959W        W22368  19.228  28.586  13.153
55960W        W22369  38.827  11.730  10.780
55961W        W22370   2.288  11.793   4.797
55962W        W22371  36.843  19.679  13.509
55963W        W22372  39.073  37.252   1.743
55964W        W22373  30.846  15.040  10.865
55965W        W22374  29.720  42.312  12.867
55966W        W22375  25.458  11.828   0.849
55967W        W22376  23.070   9.202   2.197
55968W        W22377  44.448  23.704   0.384
55969W        W22378   1.070  42.378  12.637
55970W        W22379   2.999  36.436   2.321
55971W        W22380  21.498  23.205   0.456
55972W        W22381   3.810  38.777  13.998
55973W        W22382  42.342   9.375   2.162
55974W        W22383  19.880  29.412  11.964
55975W        W22384  17.665   7.652   2.666
55976W        W22385  19.970  18.186  14.030
55977W        W22386   6.084  10.361   3.243
55978W        W22387  27.387  26.668   3.474
55979W        W22388  27.072  19.249   4.130
55980W        W22389  21.505  18.934  14.530
55981W        W22390  32.924  27.043   4.312
55982W        W22391  22.928  32.649   2.768
55983W        W22392  16.871   6.323   2.909
55984W        W22393  37.081  36.016  13.757
55985W        W22394  24.213  18.509   2.983
55986W        W22395  30.113  44.048  14.576
55987W        W22396  24.926  21.022  10.756
55988W        W22397   2.945  23.636   2.178
55989W        W22398  14.271  30.566   0.867
55990W        W22399  24.283  41.257   1.875
55991W        W22400   8.922   3.256  11.080
55992W        W22401  44.137  27.168  13.326
55993W        W22402  31.625  10.154  13.618
55994W        W22403  35.751  39.929   2.761
55995W        W22404  36.582  39.551  12.561
55996W        W22405   6.841   4.245  13.982
55997W        W22406  34.659  37.625  12.129
55998W        W22407  37.794  16.954  13.061
55999W        W22408  37.875  31.996  12.472
56000W        W22409  31.553  21.823  13.469
56001W        W22410   3.464  32.162   4.487
56002W        W22411   5.481   6.312  11.534
56003W        W22412  30.603  18.120  14.022
56004W        W22413  33.756  25.626   2.535
56005W        W22414   3.476  41.243   2.598
56006W        W22415   2.796  32.539  11.118
56007W        W22416  30.549  42.934  12.866
56008W        W22417  19.501   8.234  13.410
56009W        W22418  41.593  42.493   4.707
56010W        W22419  26.230  36.004   0.334
56011W        W22420  24.196  12.238   3.879
56012W        W22421   7.431   7.330   2.662
56013W        W22422  38.664  22.064   1.756
56014W        W22423  29.169   0.930   4.074
56015W        W22424   4.129   3.950   2.667
56016W        W22425   9.398  26.666  10.621
56017W        W22426  38.139   3.726  13.458
56018W        W22427  37.547  17.435  13.066
56019W        W22428  30.981   5.306   2.844
56020W        W22429   8.869  20.085   2.843
56021W        W22430  44.972  40.986   0.488
56022W        W22431  24.474  20.599   0.986
56023W        W22432  33.606   0.933   1.748
56024W        W22433  42.315  35.582  11.722
56025W        W22434  21.800  37.937  13.855
56026W        W22435   1.179  19.139   1.645
56027W        W22436  25.633   5.790   4.033
56028W        W22437  17.165  28.486  12.301
56029W        W22438   7.943  39.050  12.213
56030W        W22439   8.908   5.286   0.026
56031W        W22440   9.202  15.324   2.687
56032W        W22441  21.665  27.993  13.534
56033W        W22442   7.755  21.831  11.077
56034W        W22443  21.707   8.427  11.980
56035W        W22444   1.734  33.485  14.001
56036W        W22445  43.529   0.238   4.018
56037W        W22446  18.222  11.683  12.835
56038W        W22447  15.206  30.738   4.219
56039W        W22448  39.807  22.720   3.235
56040W        W22449   4.825  13.619   2.149
56041W        W22450  37.294  29.078   2.938
56042W        W22451  40.850   5.924  12.606
56043W        W22452  13.396  23.664   1.828
56044W        W22453  11.407  42.427  10.963
56045W        W22454  36.951   1.034   3.307
56046W        W22455  16.408   5.469   0.018
56047W        W22456   0.767   0.927   0.828
56048W        W22457  35.992  36.726  13.433
56049W        W22458   5.039  42.965   4.263
56050W        W22459   4.859  31.753   4.542
56051W        W22460  18.435  41.453   0.722
56052W        W22461  19.506  15.176   3.689
56053W        W22462  29.648  42.412   1.410
56054W        W22463  32.130  38.311  13.811
56055W        W22464  43.909  14.737  12.485
56056W        W22465  11.813  28.920   2.454
56057W        W22466  28.890  36.073   2.572
56058W        W22467  10.022  29.979   1.259
56059W        W22468   2.938  26.455   2.749
56060W        W22469  38.054  31.549   3.718
56061W        W22470  25.039  18.393  11.057
56062W        W22471  10.857  34.154  14.742
56063W        W22472   2.448  37.875  11.219
56064W        W22473  44.749  24.464  10.896
56065W        W22474  23.460  38.682   2.812
56066W        W22475  31.952  28.446   1.617
56067W        W22476  34.490  20.516   1.986
56068W        W22477  16.317  21.052   0.040
56069W        W22478  38.560  29.545   3.686
56070W        W22479  24.521   3.926   1.293
56071W        W22480   3.755   5.885  11.643
56072W        W22481  33.861  27.192  13.513
56073W        W22482  15.131  37.482  10.926
56074W        W22483  20.243  31.033  14.460
56075W        W22484  16.129   8.280   1.160
56076W        W22485  13.891  21.720  11.659
56077W        W22486  27.478  21.118  11.662
56078W        W22487   7.572   9.095  12.445
56079W        W22488   8.218  23.044  14.695
56080W        W22489  28.270   8.096   2.275
56081W        W22490   0.886  34.026  13.908
56082W        W22491  41.437   1.791   4.082
56083W        W22492  27.715  38.934  11.940
56084W        W22493  10.375   4.573  11.634
56085W        W22494  11.611  44.725  14.406
56086W        W22495   1.385  42.072  14.364
56087W        W22496   4.331  14.961  13.784
56088W        W22497  14.138   1.414  12.904
56089W        W22498  12.262   5.243  10.647
56090W        W22499   9.640  32.976  13.448
56091W        W22500  31.250   2.080   4.167
56092W        W22501   0.945  27.459  10.966
56093W        W22502   4.202  19.934   0.917
56094W        W22503  11.616   4.878   0.476
56095W        W22504  12.839  14.940   0.683
56096W        W22505  27.575  11.401   3.403
56097W        W22506  39.106  39.179  12.125
56098W        W22507  25.052  23.591   2.225
56099W        W22508  25.963   5.694  11.416
56100W        W22509   6.481  34.534   3.595
56101W        W22510   7.983  37.389  12.838
56102W        W22511  16.048  44.226   0.662
56103W        W22512   6.328   8.427   0.596
56104W        W22513  36.809  17.169   4.541
56105W        W22514  21.224  10.669   3.717
56106W        W22515  16.554  24.874  14.812
56107W        W22516   1.365  38.692  13.090
56108W        W22517  14.288  20.040  10.222
56109W        W22518  32.638  11.123  12.993
56110W        W22519  23.694   6.275  14.728
56111W        W22520  36.466  30.540   1.857
56112W        W22521  34.017  28.406  13.597
56113W        W22522  17.646   8.156   2.622
56114W        W22523  40.490  26.798   2.809
56115W        W22524   9.443  16.954  12.549
56116W        W22525  39.401  34.508   0.962
56117W        W22526   4.931  12.690  10.751
56118W        W22527  39.485  35.877  14.814
56119W        W22528  34.870  30.618  14.789
56120W        W22529  18.276  44.296  12.569
56121W        W22530  16.395  13.790   1.302
56122W        W22531  24.715  36.947  14.988
56123W        W22532  17.650  38.004  13.427
56124W        W22533  27.141  16.026   3.687
56125W        W22534  32.510  37.350  12.509
56126W        W22535  35.123  36.867  11.654
56127W        W22536  22.457  12.224  14.407
56128W        W22537  20.466  27.886  10.772
56129W        W22538  18.152   3.815   0.660
56130W        W22539   3.803  38.306   4.763
56131W        W22540  15.644   0.460  11.367
56132W        W22541  41.913   3.929  12.446
56133W        W22542   6.423  10.425  11.082
56134W        W22543  43.079  15.083   3.265
56135W        W22544  29.624  35.891   4.480
56136W        W22545  27.347  41.613  11.323
56137W        W22546  25.356  17.345  12.418
56138W        W22547  32.089  44.747   3.252
56139W        W22548  42.391  11.358  13.477
56140W        W22549  10.948  31.452  12.221
56141W        W22550  11.474  43.565   3.227
56142W        W22551  10.170  19.201  12.101
56143W        W22552  10.511  14.326  11.313
56144W        W22553  23.182  27.899  14.375
56145W        W22554  36.581   5.767   1.437
56146W        W22555   9.927  31.148   0.900
56147W        W22556  38.374   7.774   4.673
56148W        W22557  26.076  33.124   2.382
56149W        W22558  22.763  12.782   1.381
56150W        W22559   9.676  43.279  12.894
56151W        W22560  21.600  37.460  10.652
56152W        W22561  21.101  43.037  12.558
56153W        W22562  34.364  41.034  12.427
56154W        W22563  43.503  17.529   1.335
56155W        W22564  23.978  27.527   0.066
56156W        W22565  42.769  34.899   4.131
56157W        W22566  15.149  28.721  12.488
56158W        W22567  25.891   6.599  14.713
56159W        W22568  28.423  13.330   0.559
56160W        W22569   0.521  18.803   3.721
56161W        W22570  30.130   5.489  14.034
56162W        W22571  29.483  36.989   1.362
56163W        W22572  15.791  19.344   2.676
56164W        W22573  42.066   2.856  13.973
56165W        W22574  34.578  18.174  14.344
56166W        W22575  31.963  28.839  12.591
56167W        W22576  30.665  22.288  12.528
56168W        W22577  27.720  22.814   1.972
56169W        W22578  16.311  39.939   3.595
56170W        W22579  41.215  15.136  14.736
56171W        W22580  33.226  41.122  11.105
56172W        W22581  26.931  23.068   1.873
56173W        W22582   4.474  22.018   2.197
56174W        W22583   9.689  26.247  10.693
56175W        W22584   0.471  35.022  14.134
56176W        W22585  17.128  15.088   4.721
56177W        W22586  28.041   6.171  13.676
56178W        W22587  35.105  19.184  13.947
56179W        W22588  24.491   2.512  10.570
56180W        W22589   7.460  20.631   0.746
56181W        W22590  34.130   8.703  14.354
56182W        W22591  34.494  40.398   4.169
56183W        W22592  29.423  34.921   0.651
56184W        W22593  23.081   4.280  10.423
56185W        W22594  34.339  24.263  13.890
56186W        W22595   5.603  26.528   3.348
56187W        W22596   1.347  40.495  13.452
56188W        W22597  27.041   5.389  11.470
56189W        W22598  24.033   9.126  10.708
56190W        W22599   3.875   1.492   2.678
56191W        W22600   8.334  23.617   4.710
56192W        W22601  44.725  33.725  11.735
56193W        W22602  40.536   6.500  10.712
56194W        W22603  23.287  22.044   4.002
56195W        W22604  18.255  25.614   0.292
56196W        W22605  24.187  38.418   3.297
56197W        W22606  32.706  34.465  13.890
56198W        W22607  19.074  13.135  14.270
56199W        W22608  19.640  17.105  13.009
56200W        W22609  33.896   0.238   2.794
56201W        W22610  37.267  35.452  12.457
56202W        W22611  34.779  29.109  11.663
56203W        W22612  22.283   2.763   0.923
56204W        W22613  43.002  14.571   4.041
56205W        W22614   4.999  36.554   2.849
56206W        W22615  44.300  33.606  12.669
56207W        W22616  34.307  10.428   3.137
56208W        W22617  27.281  31.570   3.617
56209W        W22618   5.711  28.980   2.874
56210W        W22619  16.728  14.092  12.790
56211W        W22620  24.733   1.955  12.493
56212W        W22621  24.182  11.495   9.948
56213W        W22622   2.399  30.480   3.620
56214W        W22623   8.628   9.398  10.655
56215W        W22624  20.356  29.008   0.804
56216W        W22625   4.666   0.655   4.530
56217W        W22626   7.994  21.692   2.214
56218W        W22627   7.132  41.054  10.911
56219W        W22628  35.306  44.332  13.385
56220W        W22629  18.132  40.597   3.580
56221W        W22630   6.247  33.133  12.581
56222W        W22631   5.138  12.908  12.079
56223W        W22632  15.881   0.004  11.489
56224W        W22633  36.414  33.896   1.429
56225W        W22634  43.406  39.649  12.698
56226W        W22635  29.641  11.647   1.706
56227W        W22636  30.208  26.129  13.100
56228W        W22637  16.441  42.999   2.446
56229W        W22638   0.323   3.823   3.498
56230W        W22639  38.813  44.266  14.718
56231W        W22640  12.367   4.356   1.355
56232W        W22641  38.753  21.124   1.957
56233W        W22642  44.467  27.043  12.361
56234W        W22643  36.083  12.556   4.482
56235W        W22644   1.910  21.798  11.048
56236W        W22645  40.208  30.211  14.496
56237W        W22646  35.784  13.431   4.770
56238W        W22647  23.952   4.026  14.768
56239W        W22648  11.618   7.422  13.498
56240W        W22649   2.983  26.740  14.290
56241W        W22650  28.547  16.004   9.925
56242W        W22651  31.687  32.578  12.656
56243W        W22652  12.677  15.838  14.242
56244W        W22653  34.223   2.902   0.815
56245W        W22654  36.382  28.682   0.416
56246W        W22655  29.475  44.077   3.237
56247W        W22656  12.366  16.273   1.419
56248W        W22657  16.208  36.643   1.757
56249W        W22658  31.105  21.695   0.668
56250W        W22659   1.537  25.658   4.267
56251W        W22660   2.899  34.501  13.176
56252W        W22661  12.138  17.040  12.405
56253W        W22662  27.719  20.698   4.456
56254W        W22663   1.690  18.183  14.621
56255W        W22664  27.168  32.480  12.159
56256W        W22665   2.103   5.817   4.554
56257W        W22666  32.192   8.514  13.518
56258W        W22667  27.885  19.165   1.905
56259W        W22668  14.164  43.444  14.480
56260W        W22669  25.114  17.153  10.709
56261W        W22670  27.541  20.174   0.178
56262W        W22671  14.545   8.646  11.253
56263W        W22672   9.613  30.367  14.490
56264W        W22673  40.654  14.159   0.136
56265W        W22674  25.724  10.278   3.336
56266W        W22675  39.483   0.562   0.887
56267W        W22676  20.288  14.131   3.728
56268W        W22677  34.488   1.912   4.113
56269W        W22678  31.136  35.635   3.102
56270W        W22679  24.688  33.456  13.192
56271W        W22680  20.561  14.406  14.828
56272W        W22681  25.519  26.792   2.772
56273W        W22682  36.248  11.144   3.049
56274W        W22683  30.248  11.744  14.750
56275W        W22684  11.391  23.674  14.027
56276W        W22685  19.310  26.428   2.169
56277W        W22686  40.570  33.667   3.588
56278W        W22687  31.300  28.171   2.917
56279W        W22688  11.058   6.518   4.997
56280W        W22689  19.610  28.603   2.379
56281W        W22690   4.935   2.995  13.838
56282W        W22691  40.333  11.622  11.516
56283W        W22692  32.830  29.948  14.891
56284W        W22693  37.881   5.828   0.517
56285W        W22694  25.165  44.190   2.464
56286W        W22695  22.882  15.446   5.073
56287W        W22696  28.773  15.233  11.669
56288W        W22697  25.472  35.975  13.456
56289W        W22698   8.224  12.290  12.595
56290W        W22699  31.030  38.416   3.660
56291W        W22700  39.071  25.262   2.790
56292W        W22701   5.011   6.808   0.065
56293W        W22702  32.585  16.714  13.248
56294W        W22703  18.571  33.563  14.488
56295W        W22704  17.282  41.542  13.640
56296W        W22705   0.842  18.229  12.855
56297W        W22706  11.880   1.862   5.276
56298W        W22707  16.277  17.624  11.605
56299W        W22708   6.117   9.230  11.504
56300W        W22709  18.112  25.516  13.998
56301W        W22710  33.547  14.047   0.604
56302W        W22711  14.856   3.179   3.839
56303W        W22712  27.697  16.877   3.679
56304W        W22713  34.327  24.449   0.822
56305W        W22714   4.228   4.768  14.798
56306W        W22715  20.991  16.048   1.813
56307W        W22716  17.326   0.584   2.254
56308W        W22717   2.667  21.186  14.745
56309W        W22718   5.785  44.506  13.156
56310W        W22719  25.532   9.849   3.522
56311W        W22720  40.202  13.297  13.954
56312W        W22721  38.465  42.108  11.574
56313W        W22722   4.226  20.721  10.768
56314W        W22723  20.238  24.192   1.009
56315W        W22724  34.792  10.638   1.970
56316W        W22725  10.431   4.101  10.810
56317W        W22726  15.125  23.190  13.468
56318W        W22727   2.231  11.141  10.746
56319W        W22728  40.547  36.555  11.574
56320W        W22729  24.470  39.948   2.816
56321W        W22730   2.749  42.854   0.518
56322W        W22731  19.188  24.920   5.049
56323W        W22732  39.795   8.445  11.549
56324W        W22733   0.837  40.294  14.472
56325W        W22734  33.896  39.385  12.406
56326W        W22735  33.881   1.213   3.712
56327W        W22736  17.236  16.869   3.780
56328W        W22737   5.185   5.996  11.887
56329W        W22738  37.031   3.623  10.958
56330W        W22739   3.631   7.013  12.289
56331W        W22740  23.077  40.361   4.430
56332W        W22741  32.645   2.309   4.332
56333W        W22742   4.963  37.383  11.510
56334W        W22743  41.054  25.272   3.731
56335W        W22744  19.157  16.553   3.672
56336W        W22745  12.137  43.622   5.041
56337W        W22746  29.696   0.277  11.984
56338W        W22747  28.595  27.664   4.431
56339W        W22748  36.564  11.198   2.623
56340W        W22749  24.597  20.269   5.038
56341W        W22750  44.390  17.041  10.670
56342W        W22751  28.057   6.038  13.167
56343W        W22752   5.002  36.580   1.645
56344W        W22753  29.675  33.052   4.861
56345W        W22754  43.673  29.961   0.309
56346W        W22755  40.478  30.663   0.249
56347W        W22756  26.524  15.543  12.090
56348W        W22757   4.899  24.001  12.417
56349W        W22758  36.581  29.799  12.431
56350W        W22759  31.182   0.810   4.280
56351W        W22760   4.370   8.279   3.353
56352W        W22761  17.736  11.893  12.850
56353W        W22762  26.652  21.667  13.007
56354W        W22763   2.869  17.242   1.372
56355W        W22764  22.638   0.565  14.008
56356W        W22765  16.127  21.492   3.568
56357W        W22766   7.526  31.054   1.412
56358W        W22767  19.772  40.031  13.323
56359W        W22768  23.694   3.906   0.217
56360W        W22769  25.534   2.954   1.894
56361W        W22770   1.225  14.588   2.918
56362W        W22771  10.129  38.423  14.740
56363W        W22772  32.886  19.573   2.704
56364W        W22773   5.279  42.471   0.325
56365W        W22774  28.853  19.008  14.646
56366W        W22775   0.227  11.607   0.762
56367W        W22776  40.678  38.937  13.675
56368W        W22777   5.251   2.376  13.878
56369W        W22778  40.111  24.960   2.631
56370W        W22779  24.751  20.476   2.879
56371W        W22780  18.050  44.805  14.717
56372W        W22781  21.423  12.602   0.905
56373W        W22782  14.921  26.133  10.716
56374W        W22783  37.624   9.102   2.622
56375W        W22784  16.064  27.074   3.629
56376W        W22785  29.176  12.812   0.379
56377W        W22786  32.077  26.418   0.908
56378W        W22787  38.910  21.175   1.454
56379W        W22788  34.621  10.156   2.833
56380W        W22789  23.761  16.534   2.310
56381W        W22790  44.329  33.988   2.371
56382W        W22791   0.411  39.456   2.512
56383W        W22792   6.251   0.786   4.157
56384W        W22793  10.739  39.230   1.482
56385W        W22794   0.728  39.530  14.846
56386W        W22795  22.323  34.620   3.123
56387W        W22796  15.363  41.595   1.394
56388W        W22797  26.702  28.029  12.794
56389W        W22798  39.088  34.871  10.751
56390W        W22799  18.184   5.783  10.917
56391W        W22800  31.393  32.650   1.664
56392W        W22801  34.937   0.804   1.430
56393W        W22802   7.764  34.065  12.582
56394W        W22803  44.673   2.255  11.246
56395W        W22804   3.475  20.611  13.516
56396W        W22805  33.961  11.258   0.522
56397W        W22806   3.033   6.835   2.575
56398W        W22807   3.719  21.060  14.436
56399W        W22808  17.701  14.308   0.837
56400W        W22809   7.278  27.917   4.151
56401W        W22810  10.148   2.846  13.317
56402W        W22811   0.323   5.968   3.313
56403W        W22812  22.783  44.852   2.805
56404W        W22813  10.919  23.053   0.852
56405W        W22814  30.103  32.722  12.467
56406W        W22815  19.520  21.760   3.192
56407W        W22816  13.213   5.931   3.671
56408W        W22817  44.236  36.128  13.273
56409W        W22818  35.931  32.810   4.721
56410W        W22819  38.164  37.437  14.918
56411W        W22820  19.480   4.349  13.815
56412W        W22821  30.476   1.365  13.443
56413W        W22822  18.877  30.574   3.860
56414W        W22823  42.036  27.605  14.396
56415W        W22824   6.515   7.353  13.778
56416W        W22825  10.875  22.501  10.868
56417W        W22826  40.633  16.811   2.843
56418W        W22827  40.561  34.509  12.015
56419W        W22828  18.268  27.784  14.523
56420W        W22829  31.797  17.742   1.941
56421W        W22830  21.985  26.529  12.801
56422W        W22831  40.862   5.135   2.152
56423W        W22832  30.774  18.620  10.579
56424W        W22833  15.774  31.143   2.254
56425W        W22834  31.713  44.401  14.834
56426W        W22835  11.166  39.930   0.861
56427W        W22836  43.509   4.938  13.727
56428W        W22837  10.633  40.008  13.965
56429W        W22838   6.400  38.045  13.515
56430W        W22839  29.730  38.590  13.505
56431W        W22840  40.428   9.388  12.079
56432W        W22841  11.098   4.763  13.956
56433W        W22842  34.046  27.086   2.883
56434W        W22843  33.572  17.112  13.919
56435W        W22844   4.345  40.494   0.972
56436W        W22845   6.022  34.619  11.524
56437W        W22846  13.728   0.773  11.860
56438W        W22847  15.586  34.095   2.212
56439W        W22848  11.275  38.452   1.695
56440W        W22849  43.464   8.865  11.270
56441W        W22850  38.522  10.859   3.372
56442W        W22851  29.390   3.493   1.300
56443W        W22852  19.879   9.828   3.803
56444W        W22853  21.552  21.124   1.033
56445W        W22854  13.349  17.044  12.838
56446W        W22855  29.728   9.159  10.250
56447W        W22856  19.240  34.517  14.400
56448W        W22857  42.482  40.052   1.355
56449W        W22858  22.716  14.545  14.612
56450W        W22859  40.827  30.434   4.010
56451W        W22860   4.744  16.270   5.200
56452W        W22861  27.525  25.588  12.626
56453W        W22862  38.887  24.227  14.192
56454W        W22863  22.107   0.467   3.734
56455W        W22864  37.587  35.790  11.554
56456W        W22865  16.144  23.672   2.335
56457W        W22866   3.882  40.314   1.747
56458W        W22867   7.212  24.782  11.585
56459W        W22868  40.511  20.158   4.049
56460W        W22869  10.155  29.815   3.622
56461W        W22870  30.564  16.307   3.763
56462W        W22871  36.480  21.530  14.404
56463W        W22872  33.878  43.664  12.993
56464W        W22873   5.044  13.280   2.782
56465W        W22874  33.304  44.370  13.353
56466W        W22875  41.922   9.746  12.213
56467W        W22876   0.442  17.218  14.359
56468W        W22877  19.541  26.991  13.005
56469W        W22878  15.198   3.360   1.705
56470W        W22879  44.753  31.340   0.278
56471W        W22880  15.141   4.465  11.066
56472W        W22881  41.252  35.535   0.406
56473W        W22882   6.718  14.658  10.456
56474W        W22883  18.267  38.082  12.615
56475W        W22884   4.774  27.183  14.067
56476W        W22885   9.381  36.895   0.789
56477W        W22886   3.791   4.284  13.421
56478W        W22887  23.937  33.857   4.441
56479W        W22888  16.129  29.396  11.888
56480W        W22889   0.873  38.764  11.826
56481W        W22890  29.566   1.167  10.238
56482W        W22891  14.463  29.414  14.818
56483W        W22892  25.531  25.189   1.565
56484W        W22893  27.736  42.314   3.747
56485W        W22894  35.601  25.613   1.845
56486W        W22895   2.364  20.513   1.331
56487W        W22896  11.320  43.085   3.123
56488W        W22897  35.487  42.544   3.239
56489W        W22898  35.543  37.096  12.549
56490W        W22899   0.311  25.951   4.572
56491W        W22900  19.495  20.161  11.571
56492W        W22901  27.996  29.665   0.348
56493W        W22902  34.175  19.268  13.486
56494W        W22903  36.366  29.208   0.454
56495W        W22904   2.980  31.882   1.245
56496W        W22905  24.061  28.135   1.396
56497W        W22906   3.431  43.228   2.382
56498W        W22907  15.773   2.925   4.874
56499W        W22908  40.667  25.652   0.240
56500W        W22909  21.084  38.977  14.086
56501W        W22910  39.437   8.669  13.034
56502W        W22911  19.628  37.809  12.545
56503W        W22912   1.389  25.587  14.409
56504W        W22913  25.515  43.506  14.083
56505W        W22914  40.446   2.450   0.879
56506W        W22915  43.491  20.982  14.912
56507W        W22916   4.429  32.029   4.680
56508W        W22917  15.243  28.672   3.106
56509W        W22918  39.681   1.878  11.709
56510W        W22919  16.721  18.716   3.699
56511W        W22920  27.173  33.447  14.903
56512W        W22921  25.722  28.943  14.825
56513W        W22922   6.657  43.507   3.661
56514W        W22923  23.121  16.862  12.991
56515W        W22924   4.200  13.233  10.891
56516W        W22925   5.274  34.449  12.019
56517W        W22926   5.813  22.884  14.238
56518W        W22927   6.770  26.939   3.307
56519W        W22928  35.602  28.913  12.859
56520W        W22929  42.642  28.470   3.500
56521W        W22930  14.979  41.745   2.706
56522W        W22931  14.840   0.946  11.537
56523W        W22932  44.518  42.503  14.325
56524W        W22933  11.576  17.977   4.086
56525W        W22934  34.492  42.013   1.184
56526W        W22935   9.850  26.975   1.537
56527W        W22936  44.431  18.874  13.877
56528W        W22937   4.878   0.847   2.740
56529W        W22938  40.071   5.983  12.087
56530W        W22939  19.935  29.921   1.369
56531W        W22940  40.488   8.761  11.644
56532W        W22941  28.086  11.651   4.604
56533W        W22942  34.137   2.953  14.328
56534W        W22943  39.337  25.013   3.680
56535W        W22944  42.386   4.261  14.912
56536W        W22945   9.917  17.991   2.772
56537W        W22946  21.738   6.719   4.679
56538W        W22947  41.402  24.476   3.663
56539W        W22948  10.062  40.982  14.030
56540W        W22949  14.167   9.638   1.176
56541W        W22950  21.602  39.060   2.266
56542W        W22951  41.027  44.475  11.606
56543W        W22952  21.501  29.997   1.359
56544W        W22953   1.086  16.372   4.119
56545W        W22954  29.038  12.089  14.292
56546W        W22955  36.757  39.431   0.453
56547W        W22956   1.699  10.658   4.655
56548W        W22957  41.573  11.251   0.696
56549W        W22958  19.705  32.082   1.293
56550W        W22959  29.668  16.131   0.774
56551W        W22960  27.189  38.307  12.405
56552W        W22961   2.200  37.133  10.737
56553W        W22962  14.795  26.304  14.401
56554W        W22963  38.056  31.597   1.879
56555W        W22964  26.442  34.183   0.687
56556W        W22965   6.916  31.576  12.201
56557W        W22966  13.611   2.869  13.170
56558W        W22967  30.685  13.690   2.840
56559W        W22968  30.942   9.703  11.492
56560W        W22969   6.819  18.819  14.820
56561W        W22970  13.578  22.827  10.907
56562W        W22971  26.622  27.416  11.248
56563W        W22972   6.688  13.686   4.500
56564W        W22973  30.074   4.151  12.275
56565W        W22974  40.933   0.351  11.931
56566W        W22975  30.327  13.624  10.590
56567W        W22976  26.287  39.165   2.365
56568W        W22977   7.236  40.877   2.334
56569W        W22978  31.427  21.825  11.441
56570W        W22979  33.361  18.274  12.076
56571W        W22980  39.950  32.984   3.671
56572W        W22981  25.611  19.736  10.224
56573W        W22982  20.061  40.363  12.916
56574W        W22983  39.129  20.724   4.602
56575W        W22984  41.419  43.488   2.165
56576W        W22985  40.611  23.647   0.892
56577W        W22986  35.575   4.367   3.271
56578W        W22987  38.809   6.763  11.230
56579W        W22988  19.277  25.221  14.481
56580W        W22989  26.511  28.042   1.146
56581W        W22990  41.190  29.428  11.098
56582W        W22991  20.728   4.227  12.815
56583W        W22992  15.335   4.185  12.027
56584W        W22993  25.985  23.447   1.209
56585W        W22994  33.209   5.036   2.635
56586W        W22995  38.130  36.354  13.549
56587W        W22996  40.513  42.343   0.237
56588W        W22997  20.641  30.432   2.324
56589W        W22998   4.310  24.095   4.797
56590W        W22999  12.154  33.873   1.210
56591W        W23000  18.132  15.191   3.641
56592W        W23001  43.455  28.900  12.168
56593W        W23002   7.345  30.459   4.537
56594W        W23003   9.270  21.520  11.711
56595W        W23004  25.016  21.741   3.151
56596W        W23005  29.490  23.814   1.339
56597W        W23006  15.755  14.653  10.334
56598W        W23007  44.907  33.981  12.139
56599W        W23008  17.535  43.920  13.590
56600W        W23009  33.275  11.948  11.548
56601W        W23010  42.451  31.153  14.841
56602W        W23011  35.017  18.353   2.506
56603W        W23012  12.778  32.873  11.584
56604W        W23013  30.996  38.762  14.278
56605W        W23014  12.559  44.457   1.592
56606W        W23015  34.671  41.548  11.151
56607W        W23016  10.763  21.967   0.023
56608W        W23017   8.118  26.152   1.695
56609W        W23018  34.347  18.703  13.586
56610W        W23019  14.364  43.910   3.199
56611W        W23020   6.927  43.165  11.956
56612W        W23021  10.446  28.146  10.832
56613W        W23022  20.497  31.454  11.505
56614W        W23023  27.313  22.530  11.485
56615W        W23024  21.209   2.244   2.179
56616W        W23025   5.158  18.625   0.445
56617W        W23026  32.069   6.730  13.723
56618W        W23027  33.428  12.785   1.853
56619W        W23028   6.868   1.727   0.538
56620W        W23029   5.310  44.003  10.643
56621W        W23030   8.933  22.512   0.588
56622W        W23031   8.306  27.127  11.872
56623W        W23032   6.906  37.240  12.617
56624W        W23033  17.177  35.634   2.833
56625W        W23034  32.393  17.166   2.986
56626W        W23035   1.356  24.099  13.549
56627W        W23036  22.469  12.818  11.836
56628W        W23037   7.831  23.334   1.427
56629W        W23038  42.995   8.900  14.498
56630W        W23039  31.996   9.209   0.720
56631W        W23040  28.888  37.177  12.815
56632W        W23041  36.891  16.358   1.635
56633W        W23042  32.140  20.174  12.970
56634W        W23043  12.785  19.549  13.490
56635W        W23044  31.381   8.852  12.460
56636W        W23045  10.232  25.670   1.982
56637W        W23046  18.676  33.273   4.707
56638W        W23047  38.578  31.327   0.374
56639W        W23048  35.258  13.651   0.991
56640W        W23049  33.636   8.052  12.986
56641W        W23050  23.573  35.863  14.022
56642W        W23051  33.023   5.836  10.409
56643W        W23052  21.927   6.279  14.929
56644W        W23053  12.869  38.845  12.832
56645W        W23054  29.870  42.908   0.338
56646W        W23055  36.441  17.850  13.882
56647W        W23056  44.160   8.739  12.848
56648W        W23057  27.757  38.435   1.844
56649W        W23058  32.415   8.340   1.064
56650W        W23059  36.456  36.929   2.386
56651W        W23060   3.783  43.086  13.434
56652W        W23061   7.049  43.341  13.636
56653W        W23062  34.100  15.155  10.436
56654W        W23063  18.239  15.514   4.627
56655W        W23064  39.977  16.055   4.219
56656W        W23065  35.033  18.024  14.613
56657W        W23066   4.859  29.378  12.844
56658W        W23067  25.262  19.285   4.555
56659W        W23068  40.418  17.530   3.181
56660W        W23069   1.143  10.614   3.558
56661W        W23070   6.244  43.297   3.934
56662W        W23071  30.233  35.398   4.142
56663W        W23072  17.627  33.961   4.122
56664W        W23073   3.956  43.264  11.177
56665W        W23074  39.268  43.731   2.125
56666W        W23075   7.776  37.369  11.821
56667W        W23076  39.727  33.461   3.777
56668W        W23077  35.362  28.869   1.245
56669W        W23078  16.756  39.126   0.767
56670W        W23079  15.273  19.760  13.346
56671W        W23080  39.536  29.670   1.711
56672W        W23081  28.099  24.938   1.289
56673W        W23082  38.999  15.843   9.994
56674W        W23083  39.001  38.827   4.539
56675W        W23084  41.546  44.796   3.235
56676W        W23085  12.661  31.073  13.882
56677W        W23086  30.607  27.532  12.391
56678W        W23087  37.063   5.072  14.628
56679W        W23088  38.753  15.575  12.493
56680W        W23089   3.375  31.502   0.993
56681W        W23090  20.403  26.177  14.821
56682W        W23091  12.020  24.805  10.275
56683W        W23092   6.099  40.986   1.661
56684W        W23093  24.854   9.663  11.638
56685W        W23094  41.909  15.207  11.001
56686W        W23095  18.459  32.432  12.980
56687W        W23096  31.398  29.807   0.045
56688W        W23097  17.249  40.994  11.499
56689W        W23098   1.692  27.709  13.976
56690W        W23099  28.622  13.505   2.408
56691W        W23100  29.104  36.767  11.613
56692W        W23101  44.757  26.060   4.251
56693W        W23102  23.697  42.011   3.323
56694W        W23103   4.642  44.614  14.509
56695W        W23104  15.222  44.246   4.566
56696W        W23105  13.210  13.762   0.687
56697W        W23106  11.397  11.695   3.247
56698W        W23107  34.533  15.254   0.406
56699W        W23108  30.017   4.510   3.657
56700W        W23109  37.478  22.226  13.582
56701W        W23110  28.037  20.301   0.317
56702W        W23111  33.479  29.135  13.489
56703W        W23112  25.777   6.524  13.368
56704W        W23113   7.815  32.621   0.742
56705W        W23114   2.711   8.621  13.884
56706W        W23115  38.201  39.523  13.513
56707W        W23116  28.802  44.922  13.747
56708W        W23117   5.116  34.625   3.396
56709W        W23118  32.405  13.812   1.608
56710W        W23119  43.959  12.704   4.633
56711W        W23120  11.849  10.090  12.370
56712W        W23121   6.689   1.961  14.465
56713W        W23122  29.487  25.051   2.369
56714W        W23123   7.916   2.764  13.963
56715W        W23124  28.633   3.391  13.333
56716W        W23125  32.031  22.287   4.290
56717W        W23126   2.484   7.996   1.178
56718W        W23127  36.610  38.128   2.987
56719W        W23128  23.343  42.347  11.488
56720W        W23129  28.048  34.437  11.519
56721W        W23130  17.573   8.113   0.787
56722W        W23131   1.207   5.265   4.579
56723W        W23132  21.175  24.655  12.501
56724W        W23133   5.580  15.730  14.842
56725W        W23134  12.449   2.030   4.045
56726W        W23135  20.149  41.923   3.818
56727W        W23136  20.681   2.828  13.406
56728W        W23137  22.233  16.089   3.468
56729W        W23138  31.116  38.959   2.882
56730W        W23139  44.375  14.149  13.098
56731W        W23140  41.264  16.176  12.170
56732W        W23141  33.910  25.030  13.830
56733W        W23142  28.276   9.770  11.655
56734W        W23143  41.761  13.718   3.607
56735W        W23144  29.093  31.957  11.608
56736W        W23145  41.806  35.987  12.827
56737W        W23146  15.669  26.316  13.386
56738W        W23147   0.951  32.761   4.113
56739W        W23148  12.059  43.984  12.017
56740W        W23149  32.041  30.284   4.034
56741W        W23150  31.779  13.909  14.352
56742W        W23151  34.529  29.979   4.605
56743W        W23152  41.918  17.950   3.734
56744W        W23153  24.407  12.500   4.873
56745W        W23154  28.585  28.310  12.313
56746W        W23155  39.795  32.401  11.088
56747W        W23156  16.729  38.633  11.841
56748W        W23157  25.798  31.867  12.488
56749W        W23158   9.356  23.927   3.358
56750W        W23159  12.182  41.665  12.877
56751W        W23160   3.518  11.776   4.238
56752W        W23161  40.462  28.853   0.892
56753W        W23162  39.057   8.292   1.389
56754W        W23163   6.425   8.832  14.371
56755W        W23164  17.000  25.496  11.511
56756W        W23165  19.515   6.540   3.882
56757W        W23166  35.405  14.909  12.634
56758W        W23167  29.277  40.569  11.073
56759W        W23168  32.812  42.942   0.845
56760W        W23169  16.695  22.591   4.126
56761W        W23170  26.388  22.219  14.795
56762W        W23171   4.969   3.520  11.133
56763W        W23172  22.645   7.066  14.820
56764W        W23173  16.167  33.420   0.751
56765W        W23174  25.976  14.898   4.956
56766W        W23175  13.205  31.462  14.033
56767W        W23176  16.707  15.006   1.772
56768W        W23177  36.654  41.654  12.877
56769W        W23178   2.280   2.234   1.926
56770W        W23179   3.055   7.872   0.328
56771W        W23180  32.099  27.773   0.568
56772W        W23181  43.264  39.585   4.218
56773W        W23182  39.020   3.029  12.542
56774W        W23183  21.134  27.443  11.629
56775W        W23184   8.795  14.216  13.468
56776W        W23185   1.320  31.938  11.618
56777W        W23186  26.952  10.461   2.604
56778W        W23187   6.917  10.242  10.932
56779W        W23188  33.537  16.416  11.913
56780W        W23189  14.609   5.416   3.868
56781W        W23190   0.756  25.405  13.932
56782W        W23191  16.458  43.413  11.594
56783W        W23192  38.465  25.726  10.782
56784W        W23193  41.299  10.409  14.376
56785W        W23194   7.050  18.740   0.315
56786W        W23195  20.673  20.127   2.639
56787W        W23196  21.736   5.357  11.199
56788W        W23197  30.467  23.559  12.106
56789W        W23198  37.062  33.533  11.618
56790W        W23199   6.624  40.359  11.941
56791W        W23200  30.907   0.958   3.598
56792W        W23201   7.959   1.521  13.995
56793W        W23202   6.863  30.662   4.602
56794W        W23203  24.897  25.290   0.742
56795W        W23204  20.728  29.768  10.726
56796W        W23205  28.775  44.561   4.137
56797W        W23206   2.783  37.588  14.380
56798W        W23207  40.031  24.672   3.461
56799W        W23208  18.995  44.493  10.641
56800W        W23209  30.959  21.212   1.387
56801W        W23210  10.408   0.898  13.968
56802W        W23211  42.782  39.402  12.372
56803W        W23212   3.201   9.754  13.607
56804W        W23213  42.993  42.761  13.240
56805W        W23214  34.546  16.332  11.543
56806W        W23215  18.340  19.497   3.596
56807W        W23216  17.293  38.827  14.885
56808W        W23217  14.755   6.815   3.732
56809W        W23218  21.270  10.694   2.692
56810W        W23219  37.797   3.772   0.905
56811W        W23220  38.961  29.673  11.499
56812W        W23221  33.574  39.933  12.354
56813W        W23222  42.789  33.182  11.598
56814W        W23223  30.276  19.967   1.325
56815W        W23224   6.588  15.702  11.963
56816W        W23225  34.206  17.076  10.780
56817W        W23226  17.593   0.339   0.906
56818W        W23227  25.430  18.807   4.634
56819W        W23228  28.108  41.608  12.948
56820W        W23229  32.539  24.718   1.691
56821W        W23230  19.621  28.224  13.964
56822W        W23231  43.577   5.146  12.545
56823W        W23232  13.340  25.471  14.299
56824W        W23233  37.098   8.406  11.198
56825W        W23234  14.378  20.635   2.028
56826W        W23235  44.980  25.533   0.427
56827W        W23236  38.934  21.410   3.209
56828W        W23237  13.461  38.935   4.952
56829W        W23238  35.442  34.146  12.200
56830W        W23239  34.073  38.992  14.373
56831W        W23240  23.212  37.886   2.403
56832W        W23241  32.069  22.580  12.484
56833W        W23242  15.165  40.846  11.086
56834W        W23243  41.933  12.884  14.914
56835W        W23244   1.091  29.092  10.170
56836W        W23245  35.156   0.370   0.783
56837W        W23246  29.063  27.067   3.863
56838W        W23247  33.539   8.184  10.040
56839W        W23248  37.367  20.474   4.539
56840W        W23249   7.357  33.091   3.236
56841W        W23250   5.057   2.041   2.171
56842W        W23251  24.250  16.284   1.394
56843W        W23252   7.778  28.899   0.658
56844W        W23253  38.403  31.893  12.802
56845W        W23254  17.152  18.221   0.394
56846W        W23255  17.796  22.695  10.715
56847W        W23256  29.392  34.885  11.506
56848W        W23257  22.109  18.112   0.925
56849W        W23258  21.655  30.539  14.805
56850W        W23259  34.809  33.418  13.877
56851W        W23260  44.324   1.757   2.540
56852W        W23261  16.836   2.622  12.009
56853W        W23262  39.407  21.745   2.429
56854W        W23263  44.305  44.974  13.902
56855W        W23264  43.499  30.189   1.435
56856W        W23265  40.965   4.503  12.064
56857W        W23266  42.758  18.298  11.218
56858W        W23267  32.253   6.785  11.914
56859W        W23268  23.451  22.230   0.793
56860W        W23269  18.832   7.808  11.913
56861W        W23270  38.288  44.850  11.513
56862W        W23271  37.333   3.737  12.769
56863W        W23272  20.785  40.979  12.916
56864W        W23273   4.855   9.514  10.087
56865W        W23274  18.115  31.905  14.392
56866W        W23275  35.620  33.147   3.244
56867W        W23276  15.759  44.903   0.262
56868W        W23277  11.506  39.915  12.450
56869W        W23278  40.510  21.329  12.526
56870W        W23279   6.372  42.405   2.208
56871W        W23280  18.813   7.282  13.120
56872W        W23281  21.463  31.266  10.811
56873W        W23282  17.091  21.754  13.542
56874W        W23283   2.228  11.818   2.984
56875W        W23284  42.777  33.369  13.683
56876W        W23285  28.115  39.107   4.172
56877W        W23286   6.712  31.226   4.524
56878W        W23287  32.816  35.871   0.787
56879W        W23288   6.630   8.007   4.183
56880W        W23289  13.146  19.871   4.490
56881W        W23290  35.334  25.766   4.203
56882W        W23291  14.543  44.646  12.540
56883W        W23292  27.413   7.768   0.448
56884W        W23293  19.494   4.615  14.272
56885W        W23294   1.540   4.029  11.495
56886W        W23295   0.646  24.568  13.627
56887W        W23296  41.688  16.967   3.487
56888W        W23297  15.732  36.816   3.460
56889W        W23298  40.774   2.871  14.178
56890W        W23299  18.552  21.049   1.223
56891W        W23300   7.772  22.596   3.592
56892W        W23301  22.272   5.954  13.962
56893W        W23302   0.560   5.793  10.683
56894W        W23303   9.421  35.869  11.455
56895W        W23304  18.355  14.565   3.315
56896W        W23305  31.578   6.098  12.024
56897W        W23306   6.347   4.280   4.732
56898W        W23307  41.531  27.192   1.278
56899W        W23308   2.155  33.642  12.067
56900W        W23309   1.535   4.459  14.672
56901W        W23310  30.751  34.387   3.233
56902W        W23311  22.238  22.090   3.738
56903W        W23312  32.775  10.599  12.429
56904W        W23313  36.454  12.156   4.437
56905W        W23314  29.031  18.825   1.350
56906W        W23315  14.295  14.294  14.683
56907W        W23316  14.365   3.687   3.296
56908W        W23317  14.265  28.049   4.487
56909W        W23318  35.040   4.238   4.874
56910W        W23319  28.148  41.326  12.520
56911W        W23320  32.906   6.027   2.438
56912W        W23321   4.339   1.707   2.697
56913W        W23322  27.143  21.931   3.851
56914W        W23323  24.980   9.398   3.092
56915W        W23324  43.937  39.623   1.201
56916W        W23325  14.794  43.032   3.251
56917W        W23326  20.020   4.841  14.317
56918W        W23327  19.111   2.446   3.235
56919W        W23328  17.369   2.010  11.683
56920W        W23329  40.225   7.754  10.860
56921W        W23330   0.177  42.421   4.031
56922W        W23331  10.548  10.560   0.930
56923W        W23332  17.644   9.903  12.021
56924W        W23333  36.119  14.070   0.796
56925W        W23334  37.146  43.404  14.075
56926W        W23335  10.584  18.331  11.983
56927W        W23336  10.920   4.848   4.573
56928W        W23337   1.980  10.370   0.682
56929W        W23338  40.095  18.945   3.994
56930W        W23339  13.297  38.938  13.603
56931W        W23340   3.649  41.808  12.603
56932W        W23341   2.998  29.287  13.552
56933W        W23342   0.685  20.543  10.425
56934W        W23343  15.141   2.419  10.688
56935W        W23344  13.330   6.973   3.618
56936W        W23345  15.726   0.661   0.893
56937W        W23346  14.539  43.344  14.133
56938W        W23347  15.424  40.287   1.667
56939W        W23348  23.948  43.045  11.468
56940W        W23349   4.802  14.506  11.711
56941W        W23350  34.139   2.157  13.069
56942W        W23351   2.742   0.028  12.876
56943W        W23352  26.455   7.236  14.041
56944W        W23353  20.176  37.266  14.366
56945W        W23354  30.661  10.688  13.087
56946W        W23355  44.252   2.649  13.940
56947W        W23356  26.490  40.593  14.940
56948W        W23357  32.579   6.722  13.751
56949W        W23358   7.149  12.536   2.629
56950W        W23359  36.888  34.062   0.228
56951W        W23360  21.220  16.881  12.066
56952W        W23361  15.872  29.398   3.305
56953W        W23362  15.871  42.826  12.651
56954W        W23363  34.874  27.030   3.133
56955W        W23364  14.447  15.592   0.969
56956W        W23365  28.337  10.383   4.888
56957W        W23366  12.697   3.299  13.989
56958W        W23367  32.978  43.053  13.902
56959W        W23368  18.122  13.744  13.398
56960W        W23369  41.585  26.453  10.741
56961W        W23370  10.149  43.511  11.941
56962W        W23371  36.108  13.836  13.500
56963W        W23372  44.944  39.441   0.173
56964W        W23373  25.479  31.557   3.823
56965W        W23374  26.479  33.415  12.808
56966W        W23375  20.480  38.755   1.344
56967W        W23376  21.133  40.609   3.767
56968W        W23377   9.211  25.925  11.351
56969W        W23378  43.865  13.881   4.115
56970W        W23379  37.907  19.636   0.471
56971W        W23380  17.160  19.355   1.161
56972W        W23381  25.720   0.417   0.949
56973W        W23382   7.204  13.863  12.845
56974W        W23383  12.666   2.247   5.219
56975W        W23384  28.319   9.637   3.089
56976W        W23385  35.044  10.059  11.176
56977W        W23386   3.095  26.199   2.208
56978W        W23387  13.601  41.106   1.082
56979W        W23388  32.717   2.968   3.128
56980W        W23389  34.470  30.182   3.302
56981W        W23390  20.162  33.921  13.021
56982W        W23391  20.622  39.079  14.366
56983W        W23392  32.159  23.288  12.174
56984W        W23393  28.573  30.357  13.003
56985W        W23394  36.262  34.680   2.555
56986W        W23395  13.733   2.802  12.157
56987W        W23396  14.101   2.572   1.239
56988W        W23397   1.387   7.258  13.903
56989W        W23398   0.035   8.415   2.775
56990W        W23399  35.530  11.208   1.514
56991W        W23400  14.801  24.248  11.985
56992W        W23401  44.705  11.358  13.904
56993W        W23402  32.032  44.340   4.179
56994W        W23403  11.806  32.976  14.882
56995W        W23404  28.479  13.268  12.931
56996W        W23405  18.472   1.024   1.367
56997W        W23406  25.678  26.677   4.073
56998W        W23407  44.765   0.331   0.004
56999W        W23408  30.067   2.796  14.766
57000W        W23409  41.999   8.467  14.611
57001W        W23410   1.284  28.383   1.320
57002W        W23411  42.949  15.785   5.063
57003W        W23412  10.932  33.589  12.238
57004W        W23413  26.521  23.785   4.698
57005W        W23414  41.809  35.049   4.093
57006W        W23415  38.749   9.350   3.260
57007W        W23416  35.368  34.014   2.793
57008W        W23417  27.022  19.871  12.865
57009W        W23418  25.575  15.492  11.235
57010W        W23419   1.176  11.321   0.942
57011W        W23420  32.114  41.210   1.830
57012W        W23421  11.008  41.690  14.322
57013W        W23422  13.365  18.896  14.310
57014W        W23423  34.019  36.654   4.187
57015W        W23424  27.537  14.305   4.055
57016W        W23425  26.620  43.103  14.072
57017W        W23426  13.637  27.449  10.698
57018W        W23427   4.671  36.852   1.921
57019W        W23428  36.685  16.349  13.278
57020W        W23429  34.356  30.189   1.043
57021W        W23430  37.815  39.046   0.712
57022W        W23431  35.529  20.056   3.865
57023W        W23432  36.381  29.355   3.840
57024W        W23433  30.583   2.039   4.935
57025W        W23434  26.450  24.680  13.458
57026W        W23435  32.550  10.293  13.782
57027W        W23436   9.144  22.456  12.581
57028W        W23437  26.946   2.143  13.414
57029W        W23438  20.679  17.057  14.494
57030W        W23439  36.031  27.244  11.783
57031W        W23440  41.180  42.057  11.646
57032W        W23441  27.510   8.242  14.312
57033W        W23442  41.772  13.646   2.097
57034W        W23443   9.905   6.189  12.129
57035W        W23444  35.446  35.548   4.073
57036W        W23445  24.066  38.389   1.913
57037W        W23446  37.007  23.449   2.186
57038W        W23447  37.683   6.841   3.265
57039W        W23448  19.421  29.878   2.129
57040W        W23449   6.603  30.354  13.506
57041W        W23450  30.412  27.057  14.515
57042W        W23451  29.577  39.081  13.568
57043W        W23452  33.626  36.746  10.781
57044W        W23453  38.975   3.463  12.175
57045W        W23454  15.565  19.355   1.232
57046W        W23455  27.257  27.990  12.073
57047W        W23456  22.152  14.768   2.765
57048W        W23457  38.786  18.621  14.182
57049W        W23458  15.575  11.349   2.136
57050W        W23459  21.271   9.266  14.878
57051W        W23460   4.818  40.309   0.865
57052W        W23461  39.088   6.383   2.192
57053W        W23462  33.493  28.091   1.351
57054W        W23463   7.625  38.485   1.491
57055W        W23464  24.502  29.184  11.553
57056W        W23465  31.368   1.177   3.603
57057W        W23466  44.378  21.442  14.777
57058W        W23467  12.857   3.334   1.309
57059W        W23468   7.435  21.013   3.160
57060W        W23469  17.291   2.500   1.598
57061W        W23470  34.146  26.195   4.113
57062W        W23471  26.599  35.812  11.639
57063W        W23472  22.140  19.243   4.071
57064W        W23473  37.593   9.168   1.392
57065W        W23474  35.387  19.336   0.398
57066W        W23475  11.352  23.606   0.427
57067W        W23476  25.688  35.964   4.129
57068W        W23477  20.192  21.674   2.601
57069W        W23478   3.958   0.353  12.947
57070W        W23479  34.724  19.710  11.971
57071W        W23480  41.006  27.114   4.329
57072W        W23481  37.473  14.637  12.833
57073W        W23482  35.900  23.690   4.419
57074W        W23483   4.594   1.357  10.865
57075W        W23484  44.268  41.871   4.877
57076W        W23485  22.201   7.031  13.056
57077W        W23486   6.889  44.904   1.308
57078W        W23487   3.679  36.114   5.010
57079W        W23488   9.181   5.294   0.469
57080W        W23489  42.561  33.086  12.046
57081W        W23490  10.023   2.472   4.492
57082W        W23491  23.193  37.037  12.072
57083W        W23492  28.717   1.649   1.889
57084W        W23493  18.319   0.519  13.507
57085W        W23494   5.389   5.232   2.168
57086W        W23495  27.861  43.429   0.907
57087W        W23496  42.943   4.473  14.888
57088W        W23497  28.292  29.170  12.213
57089W        W23498  13.326   8.481  11.081
57090W        W23499  11.034  42.249  14.508
57091W        W23500  18.162  20.120   4.771
57092W        W23501  13.373  16.146  13.610
57093W        W23502  19.653  22.004   4.082
57094W        W23503  17.786   3.255  12.097
57095W        W23504  21.861  31.048   2.684
57096W        W23505  11.780  43.314  12.653
57097W        W23506  31.875  38.348  14.735
57098W        W23507  38.476   0.813  11.895
57099W        W23508  11.543  11.411   2.789
57100W        W23509  19.493   5.478   2.759
57101W        W23510  14.694  32.246  12.626
57102W        W23511  28.297  17.034  11.139
57103W        W23512   4.303  31.054  12.697
57104W        W23513  26.010  19.515  12.430
57105W        W23514  39.041  44.211  10.042
57106W        W23515  28.467   7.444   1.909
57107W        W23516  28.736  42.456   0.921
57108W        W23517  29.268   3.681   1.801
57109W        W23518   9.422  27.620   2.232
57110W        W23519  12.006  13.531  12.301
57111W        W23520  12.277  42.723   1.169
57112W        W23521  12.076  44.578   1.721
57113W        W23522   9.364  13.828   4.948
57114W        W23523  29.137  11.765   1.807
57115W        W23524  15.328   2.944  14.410
57116W        W23525   6.693  19.189   1.281
57117W        W23526  24.105  19.736   0.036
57118W        W23527  38.558   7.894   0.796
57119W        W23528  13.392   6.806  14.465
57120W        W23529  35.854  22.690   1.675
57121W        W23530  20.208  14.125  14.545
57122W        W23531  21.809   6.315   0.984
57123W        W23532  37.601  41.803   2.697
57124W        W23533  19.669  41.325  13.820
57125W        W23534   2.746  19.365   3.297
57126W        W23535   8.618   2.162   0.351
57127W        W23536  26.857  37.604  10.669
57128W        W23537  44.510  34.679   3.148
57129W        W23538   7.230  30.742  12.951
57130W        W23539   2.221  32.072  13.205
57131W        W23540  14.475  36.022   3.713
57132W        W23541   3.717  21.947   1.807
57133W        W23542   1.813   7.682   1.742
57134W        W23543  20.545  35.467   3.893
57135W        W23544  25.056  44.408  13.020
57136W        W23545  10.594  16.262   1.580
57137W        W23546  41.890   0.297   2.077
57138W        W23547  11.983   2.383  12.143
57139W        W23548  35.856   5.173  12.724
57140W        W23549  43.984  25.672   0.826
57141W        W23550  13.232  40.707  12.462
57142W        W23551  26.663   8.897   3.693
57143W        W23552  25.548   9.131  12.786
57144W        W23553  44.458  12.663   1.434
57145W        W23554  20.326  33.481   1.173
57146W        W23555  39.417  11.894  13.374
57147W        W23556  23.576  30.983   3.723
57148W        W23557  26.532  28.200  14.294
57149W        W23558  36.341  35.793  14.024
57150W        W23559  31.964  41.250  11.665
57151W        W23560  11.169  21.057  14.376
57152W        W23561  29.011  23.557   4.190
57153W        W23562  40.218  20.150   3.626
57154W        W23563   4.729  17.772  14.948
57155W        W23564  15.835  12.578   1.736
57156W        W23565  21.902  10.668  14.679
57157W        W23566  32.544  24.684   3.800
57158W        W23567  13.030  27.047  14.935
57159W        W23568   1.834   6.203  11.747
57160W        W23569   5.834  29.957   2.175
57161W        W23570  36.757  29.201  13.160
57162W        W23571  19.070  14.524  14.036
57163W        W23572   3.696   4.908  13.996
57164W        W23573  11.454   4.351  12.579
57165W        W23574   7.815   1.117  11.082
57166W        W23575  33.460   7.702  13.387
57167W        W23576  20.782  10.402   2.151
57168W        W23577  43.326  18.300  14.371
57169W        W23578  13.875  23.242  13.042
57170W        W23579  16.532  11.887  12.043
57171W        W23580  25.201  41.525   3.718
57172W        W23581  11.421  19.247   1.439
57173W        W23582  25.069  38.256   4.118
57174W        W23583  35.984  37.230  13.539
57175W        W23584  17.175  42.896  10.130
57176W        W23585  20.090  23.237   1.167
57177W        W23586  25.652  33.029  14.074
57178W        W23587  38.011   5.470  14.983
57179W        W23588   4.778  23.001   4.880
57180W        W23589  33.412  27.279   3.240
57181W        W23590   2.067  30.053  11.060
57182W        W23591   6.700  31.000  13.933
57183W        W23592  35.859  12.046   0.868
57184W        W23593  21.792   9.269  14.915
57185W        W23594  44.806  37.372   2.924
57186W        W23595  30.152  18.900  13.967
57187W        W23596   6.238  12.280   1.428
57188W        W23597  27.467  13.763   4.136
57189W        W23598  26.582  25.194  13.342
57190W        W23599  16.571   6.265   3.900
57191W        W23600  29.048  34.123  12.766
57192W        W23601  43.852  10.418   3.298
57193W        W23602  28.053  11.810  14.917
57194W        W23603  23.101   0.828   2.363
57195W        W23604  36.758  37.474   3.700
57196W        W23605  32.349  30.481  11.270
57197W        W23606  16.288  22.809   3.388
57198W        W23607  28.115  31.241   1.704
57199W        W23608  21.178   7.308  10.274
57200W        W23609  42.564  16.526  12.055
57201W        W23610  19.527  30.572   3.183
57202W        W23611   3.293  43.714   0.987
57203W        W23612   6.784  11.103   0.493
57204W        W23613  41.899  32.781   1.499
57205W        W23614  17.692  21.046   1.130
57206W        W23615   3.231  37.304   3.297
57207W        W23616  23.981  38.877   4.513
57208W        W23617  30.262   9.250   4.626
57209W        W23618  28.683   6.355   3.799
57210W        W23619   5.210  12.257  14.779
57211W        W23620   5.563   1.829   2.243
57212W        W23621  10.346  30.103   2.755
57213W        W23622  37.158  24.780  12.413
57214W        W23623  35.939  17.232   3.552
57215W        W23624   5.724  30.202  14.290
57216W        W23625  19.159  41.385   4.084
57217W        W23626  29.338  44.578   3.176
57218W        W23627  14.397  44.830   3.167
57219W        W23628  27.382  12.361   1.671
57220W        W23629   5.731   5.461  12.040
57221W        W23630  12.117  18.326  13.834
57222W        W23631  40.928  18.024  14.242
57223W        W23632  42.939  41.228   2.719
57224W        W23633  17.618  14.618  14.458
57225W        W23634  20.529   7.238  14.971
57226W        W23635   9.023  41.263   2.279
57227W        W23636  35.884  12.941   1.462
57228W        W23637  11.930   4.305  11.686
57229W        W23638  31.632  37.703  12.693
57230W        W23639   1.895  16.594  11.737
57231W        W23640  28.601   8.261  11.636
57232W        W23641  22.709  11.866   1.293
57233W        W23642  40.020   0.668  10.324
57234W        W23643  42.558  17.030   2.722
57235W        W23644  22.615  26.088   2.351
57236W        W23645   3.277  37.468  14.552
57237W        W23646  37.335  13.596   3.264
57238W        W23647  40.892   7.801  14.727
57239W        W23648   4.127  15.660  14.421
57240W        W23649  19.230  34.801  12.396
57241W        W23650  35.896  41.533  14.455
57242W        W23651  41.976  13.612   1.278
57243W        W23652  13.349   8.197  11.559
57244W        W23653   0.315  30.542   3.153
57245W        W23654  28.167   1.534  13.342
57246W        W23655   0.862   0.295   4.471
57247W        W23656  32.922  10.982   2.771
57248W        W23657   0.466  36.847  11.018
57249W        W23658  28.582  37.982   4.343
57250W        W23659  11.505  27.638  14.341
57251W        W23660  11.802  30.389  12.376
57252W        W23661  43.504  38.450  10.575
57253W        W23662  31.175  22.823   3.990
57254W        W23663  39.334  35.065   3.769
57255W        W23664  28.425  39.860   2.273
57256W        W23665  40.395  15.330  13.808
57257W        W23666  14.323  39.064   0.772
57258W        W23667   8.818  29.002  13.846
57259W        W23668  21.688  17.615  11.055
57260W        W23669   9.643  42.381   1.387
57261W        W23670  22.950  14.605  12.984
57262W        W23671  42.739  27.131   0.849
57263W        W23672   2.447  34.556  12.492
57264W        W23673  40.080  20.798   3.719
57265W        W23674  26.170  12.795  12.520
57266W        W23675   5.938  43.964   1.764
57267W        W23676   3.786   6.865   1.886
57268W        W23677   9.918  19.188   2.781
57269W        W23678  15.648   7.590  14.607
57270W        W23679  32.042   7.565  13.350
57271W        W23680   4.258  41.898   0.387
57272W        W23681  38.313  14.596   4.547
57273W        W23682  42.454  25.702   0.894
57274W        W23683  12.724  34.485   4.249
57275W        W23684  29.388   8.874  14.087
57276W        W23685  18.690  42.299   2.633
57277W        W23686  20.018  16.797   4.106
57278W        W23687   3.249  19.103   1.320
57279W        W23688   3.454  32.946   3.764
57280W        W23689   9.713  23.108  12.448
57281W        W23690  36.577   3.402  14.437
57282W        W23691  41.222  44.645  10.729
57283W        W23692  10.798  39.528  12.862
57284W        W23693  24.725  25.231  10.343
57285W        W23694  36.480  36.578  11.631
57286W        W23695  24.752  21.531  12.933
57287W        W23696  12.051  37.845   4.272
57288W        W23697  31.177  41.494  12.064
57289W        W23698  34.044  10.653  10.646
57290W        W23699   4.898  42.218  10.359
57291W        W23700   1.325  24.096   2.136
57292W        W23701  27.549  11.823   0.844
57293W        W23702   6.936  11.085   3.634
57294W        W23703  29.513  40.316   2.127
57295W        W23704  42.907  26.902   3.840
57296W        W23705   9.866   4.848  14.658
57297W        W23706  20.453  27.648  13.926
57298W        W23707  11.796  24.243   3.443
57299W        W23708  32.618  30.940   1.214
57300W        W23709  24.982   1.497  12.472
57301W        W23710  41.335  16.312   2.291
57302W        W23711  41.947  25.224  12.266
57303W        W23712  38.008   8.368   2.326
57304W        W23713  22.087  37.066  11.294
57305W        W23714  10.851  37.135   5.378
57306W        W23715  43.352  28.454  13.053
57307W        W23716  34.934   1.081  11.527
57308W        W23717   9.163   4.284  12.050
57309W        W23718  42.723   5.633   2.687
57310W        W23719  31.871  19.177  12.427
57311W        W23720   0.272  27.995  13.007
57312W        W23721  25.216  29.832  13.326
57313W        W23722   3.781   5.097   3.607
57314W        W23723  39.543  18.152  10.570
57315W        W23724  29.491  23.777  13.062
57316W        W23725  41.427  27.933   0.772
57317W        W23726  24.669  22.689   2.371
57318W        W23727  26.495  40.111  14.736
57319W        W23728  11.762  14.252   2.910
57320W        W23729  25.480  40.441  10.723
57321W        W23730   4.975  14.754  12.121
57322W        W23731  15.002  19.789   1.788
57323W        W23732  39.710  30.005  10.697
57324W        W23733  15.874   2.997  11.286
57325W        W23734  32.695   5.650   1.369
57326W        W23735   3.643   4.870  10.988
57327W        W23736   3.945   8.066  13.728
57328W        W23737   0.513  11.806   1.876
57329W        W23738  14.646  12.242   4.265
57330W        W23739  24.167  27.152  13.010
57331W        W23740  11.269   0.476   2.209
57332W        W23741   7.834  24.112   0.706
57333W        W23742  33.048  25.057   2.747
57334W        W23743  30.593  15.904  13.975
57335W        W23744  34.351  44.358  13.077
57336W        W23745  30.066  36.893   4.176
57337W        W23746  31.369  28.448   0.416
57338W        W23747  32.757  25.617   1.505
57339W        W23748  26.164   2.320   1.385
57340W        W23749  35.577  19.806  11.953
57341W        W23750   6.928  30.477   2.641
57342W        W23751   4.250   2.280  10.943
57343W        W23752  18.338  12.190   4.947
57344W        W23753  12.850  14.521  14.408
57345W        W23754  19.809  17.139   0.239
57346W        W23755  22.561  21.663   3.616
57347W        W23756  16.749   6.212  10.405
57348W        W23757  40.776  24.548  13.088
57349W        W23758  19.769  41.322  12.975
57350W        W23759  37.936   1.691  10.994
57351W        W23760  13.265  17.399  10.760
57352W        W23761  37.059  22.135   4.830
57353W        W23762  30.141  21.072  12.208
57354W        W23763  36.801  18.073   9.796
57355W        W23764  22.821   6.804   4.364
57356W        W23765  13.133  18.987  11.477
57357W        W23766  18.260  26.750   2.181
57358W        W23767  26.417  28.744  10.042
57359W        W23768  42.351  13.933  14.381
57360W        W23769   8.738  15.868   1.370
57361W        W23770   8.140  20.338   2.124
57362W        W23771  29.095  16.761  12.181
57363W        W23772  31.482  38.177   4.281
57364W        W23773  38.483  43.312   4.598
57365W        W23774   2.239  23.676  12.120
57366W        W23775  36.467  17.525  11.107
57367W        W23776  21.174   0.015   3.770
57368W        W23777  40.484   7.312  10.969
57369W        W23778  28.735  13.639  12.102
57370W        W23779  11.698   2.715  11.882
57371W        W23780   4.484  18.636  10.472
57372W        W23781  39.879   9.624   1.714
57373W        W23782   6.253  29.581   3.160
57374W        W23783  16.981  34.653   2.195
57375W        W23784  30.508   0.928  14.734
57376W        W23785  16.102  37.977   0.864
57377W        W23786   4.602  23.185   2.733
57378W        W23787  30.528  18.990  11.210
57379W        W23788  23.051   2.917   3.607
57380W        W23789   4.944  24.753   1.192
57381W        W23790  13.591  44.181   2.623
57382W        W23791  22.522  33.972   0.219
57383W        W23792  37.002  44.511   0.284
57384W        W23793  34.307  28.619   1.781
57385W        W23794  28.855  25.006   0.041
57386W        W23795  14.797  32.144   2.751
57387W        W23796  19.167  24.161  11.846
57388W        W23797  43.340  17.226  10.711
57389W        W23798  16.558  27.686   4.330
57390W        W23799  40.009  34.877   1.690
57391W        W23800   5.198  14.013  12.660
57392W        W23801   9.332  34.669  10.625
57393W        W23802  35.018   9.458   2.739
57394W        W23803  16.302  23.020  11.414
57395W        W23804   6.191  16.316  12.532
57396W        W23805  32.458  41.365   2.204
57397W        W23806   1.005  19.075   3.529
57398W        W23807  23.558  38.150   2.775
57399W        W23808  22.305  17.222   0.807
57400W        W23809  31.443  19.585   0.972
57401W        W23810  42.134  38.840  11.672
57402W        W23811  29.978  26.348   0.742
57403W        W23812  24.958  34.814   3.696
57404W        W23813   4.902   8.339  12.583
57405W        W23814  28.984  38.871   3.120
57406W        W23815  44.736  39.866   2.452
57407W        W23816  10.157  39.954   1.413
57408W        W23817  35.120   1.461   4.511
57409W        W23818  36.244   6.368   1.884
57410W        W23819  43.964   6.096   2.147
57411W        W23820  40.010   2.508   1.676
57412W        W23821  15.113  25.407   1.424
57413W        W23822   0.966  42.126   0.921
57414W        W23823   9.159  38.137  12.418
57415W        W23824  30.555   2.214  11.666
57416W        W23825  41.003  40.699  11.144
57417W        W23826   4.466  24.744  11.532
57418W        W23827  42.762  13.130  10.914
57419W        W23828   2.710  26.482  10.792
57420W        W23829  42.955  19.200  12.264
57421W        W23830  14.697   5.235  11.186
57422W        W23831  38.889  17.154   5.111
57423W        W23832  39.807  36.104  14.467
57424W        W23833  44.271  12.904   4.137
57425W        W23834  20.660  23.120   1.743
57426W        W23835  32.952  33.892   0.745
57427W        W23836   4.406   2.206  11.849
57428W        W23837  43.234  42.971  11.575
57429W        W23838  39.610   0.378   1.376
57430W        W23839  28.646  17.433  11.047
57431W        W23840  29.506  10.387   3.021
57432W        W23841  16.449  32.351  13.139
57433W        W23842   8.112  27.981  12.913
57434W        W23843   2.261  26.342   2.410
57435W        W23844   9.632   0.542   1.851
57436W        W23845  31.238  26.440   1.256
57437W        W23846   8.785  18.839   1.154
57438W        W23847  29.386   1.734   0.930
57439W        W23848   0.221  18.364  12.600
57440W        W23849  15.408  32.645   4.329
57441W        W23850  29.610  11.197  10.609
57442W        W23851  28.709  28.146   4.671
57443W        W23852  32.831  27.956   1.342
57444W        W23853  25.146  19.909   0.679
57445W        W23854  14.050  37.332  12.407
57446W        W23855  42.472  27.583   4.209
57447W        W23856  30.900  36.302   4.295
57448W        W23857  44.194  23.247   5.025
57449W        W23858   9.700  39.490   2.671
57450W        W23859  28.415   3.784   2.823
57451W        W23860  32.367   5.530  13.555
57452W        W23861   1.143  35.052  11.577
57453W        W23862  39.561   5.648  11.165
57454W        W23863  31.191  16.555   1.280
57455W        W23864  17.925   0.817   3.587
57456W        W23865  43.516  14.573   1.278
57457W        W23866   0.638   6.390   4.981
57458W        W23867   2.616  17.427   2.301
57459W        W23868  25.979   8.675  14.822
57460W        W23869  32.186  22.222   4.771
57461W        W23870  12.053   9.608   0.719
57462W        W23871  12.939  31.853  13.387
57463W        W23872   4.373  15.129   4.595
57464W        W23873  36.179  13.356   3.840
57465W        W23874  16.068  41.136   4.133
57466W        W23875  21.843  19.681  10.543
57467W        W23876   9.735   8.167  13.172
57468W        W23877  21.371  27.138   2.800
57469W        W23878   0.248  28.018   3.741
57470W        W23879   9.676  20.668  14.126
57471W        W23880   2.499   9.416  13.876
57472W        W23881  17.478  28.909  12.484
57473W        W23882  30.155   4.523   2.418
57474W        W23883  23.704  44.505   1.468
57475W        W23884   0.502  37.537   3.656
57476W        W23885  15.382  39.348  13.995
57477W        W23886  20.032  21.752   3.093
57478W        W23887  20.542   2.980  11.662
57479W        W23888  25.251  30.935   1.626
57480W        W23889  42.827  31.137   0.435
57481W        W23890  23.238   9.037  12.328
57482W        W23891  25.932  35.366   2.035
57483W        W23892  44.276  31.800  11.006
57484W        W23893  16.361  26.203  11.277
57485W        W23894   6.703  27.248   2.895
57486W        W23895  42.499  16.123  12.826
57487W        W23896  22.965  22.655  10.296
57488W        W23897  41.127  23.992  13.927
57489W        W23898  25.872  30.238   1.652
57490W        W23899  38.031   1.230   0.390
57491W        W23900   1.290   5.449  11.640
57492W        W23901  17.265   2.427  14.445
57493W        W23902  26.318  27.982  13.143
57494W        W23903  40.825  33.587   4.057
57495W        W23904  43.408   2.012  10.106
57496W        W23905  12.263  37.863   3.611
57497W        W23906  34.468  28.419   1.320
57498W        W23907  13.308  43.963   3.622
57499W        W23908  40.742   9.887   0.378
57500W        W23909   5.512   9.810   1.696
57501W        W23910  13.402  18.057   1.532
57502W        W23911  27.760  34.472   3.674
57503W        W23912  27.360   3.111  14.956
57504W        W23913  41.804   4.949  13.842
57505W        W23914  31.339  19.973   1.835
57506W        W23915  44.962  42.788  11.607
57507W        W23916   2.743  22.114   4.147
57508W        W23917  30.648  40.526  10.844
57509W        W23918   0.316  36.892  14.497
57510W        W23919  41.630  33.001  14.734
57511W        W23920  19.681   2.975  13.549
57512W        W23921  14.209   6.170  13.645
57513W        W23922  43.458  19.612   0.154
57514W        W23923  36.062   4.979  13.701
57515W        W23924   1.152  35.026   3.600
57516W        W23925  19.542  37.761  14.870
57517W        W23926   3.256   5.792   3.626
57518W        W23927  12.965   8.249  10.782
57519W        W23928  19.390  18.114   3.779
57520W        W23929  30.751  40.794   4.652
57521W        W23930   6.471  36.810  13.765
57522W        W23931   2.861  18.095  11.574
57523W        W23932  40.783  10.757  10.541
57524W        W23933  17.682   1.339  14.876
57525W        W23934  41.911  20.681   4.676
57526W        W23935   1.063   1.721  11.184
57527W        W23936  39.050  25.901  14.800
57528W        W23937   2.365  10.854   1.335
57529W        W23938  42.211  38.433  13.304
57530W        W23939   6.434   2.327  12.567
57531W        W23940  15.613  21.059  11.982
57532W        W23941  34.024   3.314  14.715
57533W        W23942  28.173   4.155  13.295
57534W        W23943  18.485  33.108   0.617
57535W        W23944   5.141  35.911   3.314
57536W        W23945  21.109  44.604   4.070
57537W        W23946   5.507  35.228  14.639
57538W        W23947  22.220  22.307  14.644
57539W        W23948  43.262  34.651   0.832
57540W        W23949  16.985  19.618  10.638
57541W        W23950  15.486   3.448  13.939
57542W        W23951  20.934   8.396   4.259
57543W        W23952  13.466  39.553   2.623
57544W        W23953  30.184  22.108  13.402
57545W        W23954  40.151  42.974   9.936
57546W        W23955  10.356  11.500   0.998
57547W        W23956  10.617  17.940   4.108
57548W        W23957  28.839   5.332   3.580
57549W        W23958   2.746  34.989  13.997
57550W        W23959   2.781  30.106   3.711
57551W        W23960  24.035  33.190  11.495
57552W        W23961  16.065  24.214   2.881
57553W        W23962  33.595  12.440   0.130
57554W        W23963  27.430  40.019   2.267
57555W        W23964  42.533  30.063   4.630
57556W        W23965   4.054  21.555   1.832
57557W        W23966  16.319  20.109  14.006
57558W        W23967  24.052  29.938   1.892
57559W        W23968   7.641  27.983   0.496
57560W        W23969  35.171  40.771   0.288
57561W        W23970  28.675  29.575  11.478
57562W        W23971  21.025  35.011  14.456
57563W        W23972   0.464  29.388   2.445
57564W        W23973  18.079  20.630  13.808
57565W        W23974  38.107  18.735   0.844
57566W        W23975  16.325  33.571   4.643
57567W        W23976  38.664  14.145  12.504
57568W        W23977  39.488  35.445  13.811
57569W        W23978  37.473  41.032  14.722
57570W        W23979  29.939  40.493  13.832
57571W        W23980  24.487  37.463   3.175
57572W        W23981  17.818  21.941   3.032
57573W        W23982  42.755  25.602  14.042
57574W        W23983   0.209  11.356   3.119
57575W        W23984  25.407  16.334   0.882
57576W        W23985   6.966   2.703  11.734
57577W        W23986  24.241   7.172   3.183
57578W        W23987  18.370   2.459  13.621
57579W        W23988  39.418  41.437  14.341
57580W        W23989  27.013  28.533   3.742
57581W        W23990  15.600  26.032   4.726
57582W        W23991  31.447  13.631   2.136
57583W        W23992  19.848  32.344   0.378
57584W        W23993  27.684  37.904   2.831
57585W        W23994   1.897  28.159  12.008
57586W        W23995  43.114  37.539  14.885
57587W        W23996  32.157  10.983  12.911
57588W        W23997  43.776  12.884   0.730
57589W        W23998  29.023  44.175  13.559
57590W        W23999  20.366   5.246   3.721
57591W        W24000  29.268  35.363  11.664
57592W        W24001  16.145  42.984  10.375
57593W        W24002  23.351  38.016  14.958
57594W        W24003  41.630  38.896   1.529
57595W        W24004  23.589   4.529  10.039
57596W        W24005  15.473  15.594   1.239
57597W        W24006  29.489   2.860   2.896
57598W        W24007  30.652  28.689   4.970
57599W        W24008  11.830   8.572  12.592
57600W        W24009  43.988  28.855  12.972
57601W        W24010   3.505  22.976  11.572
57602W        W24011  42.106   1.011   1.812
57603W        W24012  39.113  28.942  11.163
57604W        W24013  24.793  26.228   3.225
57605W        W24014  15.785  11.810  13.508
57606W        W24015  36.333  38.545   2.161
57607W        W24016  16.614   4.381  14.850
57608W        W24017  19.255   1.416   0.493
57609W        W24018  41.457  38.571   4.757
57610W        W24019  17.340  39.445  14.294
57611W        W24020  32.009  30.390   3.163
57612W        W24021  36.540  26.929   2.744
57613W        W24022  25.996  32.063   0.640
57614W        W24023  36.358  10.903  13.417
57615W        W24024   3.482  30.168   2.436
57616W        W24025  13.258  25.391  12.870
57617W        W24026  40.344  30.236   0.516
57618W        W24027  40.970   6.625   2.324
57619W        W24028   2.352  15.550   4.993
57620W        W24029  40.419   4.297   0.334
57621W        W24030  43.970  12.737  13.864
57622W        W24031  31.445  15.360  14.933
57623W        W24032  27.133  35.574   4.878
57624W        W24033  13.777  41.579  13.502
57625W        W24034  27.005  17.225   3.667
57626W        W24035  39.697  12.984  13.783
57627W        W24036  27.115  17.224  12.740
57628W        W24037  13.855  29.417  12.001
57629W        W24038  31.663   4.178   2.347
57630W        W24039  13.658  16.148  14.904
57631W        W24040   7.934   3.271   3.668
57632W        W24041  12.543   2.482   3.775
57633W        W24042  32.398  34.492  12.372
57634W        W24043  25.295  34.018   3.321
57635W        W24044  40.339  34.056   0.020
57636W        W24045   5.876  36.800  14.003
57637W        W24046  33.384  43.473  13.447
57638W        W24047  42.129  18.562  10.391
57639W        W24048  27.029  32.850   2.725
57640W        W24049  37.032   9.293  10.649
57641W        W24050  14.560   0.419  10.647
57642W        W24051  30.151   5.317   1.799
57643W        W24052  42.062  37.849  11.458
57644W        W24053  14.738  39.784  10.275
57645W        W24054  15.201  41.097  12.462
57646W        W24055  11.739  40.299   4.178
57647W        W24056  37.323  20.206   3.308
57648W        W24057   5.613  23.786  13.301
57649W        W24058  17.572  20.745  13.885
57650W        W24059   2.555  23.621   3.151
57651W        W24060  28.649   8.162  13.504
57652W        W24061  16.323  30.313  11.926
57653W        W24062   4.952  41.616   2.860
57654W        W24063   5.875  15.832   3.272
57655W        W24064  26.986  26.143  10.954
57656W        W24065  44.622  25.908  13.397
57657W        W24066   2.968  29.629  10.808
57658W        W24067  41.779  13.137   0.431
57659W        W24068  20.223  19.237   0.409
57660W        W24069  12.955  27.153  12.567
57661W        W24070  43.850  24.208  11.149
57662W        W24071  25.511  42.497   3.173
57663W        W24072  44.016  36.370   2.168
57664W        W24073   1.468   9.170   9.633
57665W        W24074  14.537  30.589  12.533
57666W        W24075  17.807   6.105  13.901
57667W        W24076  20.921  26.503  14.753
57668W        W24077  33.665  14.720   0.167
57669W        W24078  27.153  39.535  14.721
57670W        W24079  34.419  15.634   3.581
57671W        W24080  14.061  20.063  12.392
57672W        W24081  17.205   6.000   2.276
57673W        W24082  24.465   8.408  14.839
57674W        W24083   9.186  24.893  13.062
57675W        W24084  36.283   6.848   4.399
57676W        W24085  26.594  44.955  14.197
57677W        W24086  39.896  39.798  13.044
57678W        W24087   6.884  37.165  11.628
57679W        W24088  18.837  36.350  12.346
57680W        W24089  44.730  35.121   1.821
57681W        W24090  11.533  35.424  11.119
57682W        W24091  28.483   2.269   0.474
57683W        W24092  40.363  10.416   2.664
57684W        W24093   3.291   8.589   0.897
57685W        W24094   9.407  31.626   4.528
57686W        W24095  10.302  40.695  12.409
57687W        W24096  19.608  31.132  10.439
57688W        W24097  41.735  20.178   0.944
57689W        W24098  35.899  40.357   1.149
57690W        W24099  17.122  36.979   5.498
57691W        W24100   7.748  14.095  10.379
57692W        W24101  36.869  20.579   4.657
57693W        W24102  16.752  36.254   2.785
57694W        W24103  16.733   3.917   2.283
57695W        W24104  17.774  36.021  13.935
57696W        W24105  24.126  14.290   3.771
57697W        W24106  31.429  33.055   0.370
57698W        W24107  41.098  15.447  11.207
57699W        W24108   2.805  34.109   3.564
57700W        W24109   3.288   6.192   2.149
57701W        W24110  29.917  24.177  13.219
57702W        W24111  29.571  14.223  13.748
57703W        W24112  30.032  34.717  12.981
57704W        W24113  26.574  26.002  13.430
57705W        W24114  22.939  40.463  11.242
57706W        W24115  23.967  30.971  14.568
57707W        W24116  34.472   6.625   3.519
57708W        W24117  43.548  43.813   1.011
57709W        W24118  21.516  42.332  14.903
57710W        W24119  32.753  42.515   2.033
57711W        W24120  11.659  31.588  11.687
57712W        W24121  11.716  22.822  12.260
57713W        W24122  23.304  25.603  12.340
57714W        W24123  12.339  10.146   3.689
57715W        W24124   0.406  29.758   2.050
57716W        W24125  30.117  21.041  12.707
57717W        W24126  43.931  22.255   1.439
57718W        W24127  22.133  24.459  14.009
57719W        W24128  41.870  24.567   2.315
57720W        W24129  16.860  20.518  10.883
57721W        W24130  31.600  23.986   1.253
57722W        W24131  39.574  19.218   4.677
57723W        W24132  31.088  39.613  10.857
57724W        W24133   0.982  10.207  11.304
57725W        W24134  14.680  33.445  11.727
57726W        W24135  31.073  14.638   0.355
57727W        W24136   6.279  40.437  13.753
57728W        W24137   7.848  11.929  12.550
57729W        W24138  22.057   2.729   0.408
57730W        W24139  41.607  33.131  13.933
57731W        W24140  44.065   2.205   1.330
57732W        W24141  17.631  44.990  14.489
57733W        W24142   3.775   5.999  13.391
57734W        W24143  28.004  38.400  12.952
57735W        W24144   7.514  41.014  12.845
57736W        W24145  16.891  16.719  12.515
57737W        W24146  23.947  30.673  14.158
57738W        W24147  44.804   7.375  13.947
57739W        W24148  38.112  43.028   4.198
57740W        W24149  36.259  38.881  11.170
57741W        W24150   2.837   2.745   0.804
57742W        W24151  32.142  22.179   1.353
57743W        W24152   0.456  40.442  11.113
57744W        W24153  24.460  15.863  13.093
57745W        W24154  37.977  33.755   9.880
57746W        W24155  38.598  19.650  11.074
57747W        W24156  30.940  31.926   0.031
57748W        W24157  25.009  17.461  12.050
57749W        W24158  15.991  36.742   4.269
57750W        W24159  19.659  43.518   3.719
57751W        W24160  12.093  42.244   0.360
57752W        W24161  35.853   3.392  14.885
57753W        W24162   9.554  11.826   1.066
57754W        W24163  32.778  35.049   1.312
57755W        W24164  35.818  23.223   1.475
57756W        W24165  15.711  41.639   5.325
57757W        W24166  43.922  33.924  12.849
57758W        W24167  13.078  22.276  12.062
57759W        W24168   0.045   9.334   0.013
57760W        W24169  30.842  23.655   4.278
57761W        W24170  20.746  28.925   2.770
57762W        W24171  27.416   0.274  13.976
57763W        W24172  28.723   5.833   0.226
57764W        W24173  34.642  17.838  13.077
57765W        W24174  28.127  27.445  14.732
57766W        W24175  10.324  44.714   0.286
57767W        W24176  43.078   7.682  14.940
57768W        W24177  39.627  19.591  14.431
57769W        W24178  27.710   7.409  11.820
57770W        W24179  37.890  32.218  11.083
57771W        W24180  40.051   2.217  11.263
57772W        W24181  12.943  25.251   0.820
57773W        W24182  26.967  31.875  10.746
57774W        W24183   7.325  26.916   2.653
57775W        W24184   2.389  31.707  14.879
57776W        W24185  26.243  35.072  12.563
57777W        W24186   0.505  38.047  12.200
57778W        W24187   1.026  42.561   2.716
57779W        W24188  25.963   8.240   1.182
57780W        W24189   3.862  44.411  11.615
57781W        W24190  29.967  23.042  12.376
57782W        W24191  40.082  21.934  12.012
57783W        W24192  34.880  30.489  11.177
57784W        W24193  14.131  14.295  12.751
57785W        W24194  37.862  11.863   1.537
57786W        W24195  31.438  28.096  12.408
57787W        W24196   5.864  21.087   3.806
57788W        W24197  17.761  15.009  12.014
57789W        W24198  15.720  36.390   9.983
57790W        W24199  21.477  37.393   0.642
57791W        W24200  23.786  42.527   2.473
57792W        W24201  29.381  13.797  10.903
57793W        W24202  29.604  37.944   0.239
57794W        W24203   5.042  23.479   4.174
57795W        W24204  20.930  37.356  13.730
57796W        W24205  16.554  22.790   0.791
57797W        W24206  16.507  19.462  11.548
57798W        W24207   8.927  25.441  12.182
57799W        W24208  17.266   5.234  13.471
57800W        W24209  24.960  34.478  11.330
57801W        W24210  13.855  23.894   1.654
57802W        W24211  24.774   5.378  11.099
57803W        W24212   4.669  14.754   3.324
57804W        W24213   3.998   2.464   0.463
57805W        W24214  34.068  24.244  12.534
57806W        W24215  41.911  13.334  13.858
57807W        W24216  27.213  17.665   4.896
57808W        W24217  38.578  16.085  14.715
57809W        W24218  28.665  27.385   0.837
57810W        W24219  13.619  37.421   1.157
57811W        W24220  31.880  37.137   2.936
57812W        W24221  27.236  14.359  13.594
57813W        W24222   2.872  15.149   1.172
57814W        W24223  36.097  36.937  13.940
57815W        W24224   7.907  33.413   0.957
57816W        W24225  11.809  44.411  13.135
57817W        W24226  13.554  36.839   0.728
57818W        W24227  15.021   1.326   4.512
57819W        W24228  19.579  11.947  10.774
57820W        W24229  42.954  35.352  14.542
57821W        W24230  28.546  30.249   2.224
57822W        W24231  38.319  42.595  11.573
57823W        W24232  38.753  31.046  12.952
57824W        W24233  36.530  14.468   1.976
57825W        W24234  13.863   3.929   1.565
57826W        W24235  33.178  36.913   4.157
57827W        W24236  39.646  41.925   1.667
57828W        W24237  41.693  41.822   4.011
57829W        W24238  11.306  35.510   2.864
57830W        W24239  44.727  10.222  12.029
57831W        W24240  23.550  27.706  12.458
57832W        W24241  28.140  13.131   4.539
57833W        W24242  23.494  21.011   4.244
57834W        W24243  35.856  43.846   2.652
57835W        W24244  36.134  18.817  11.459
57836W        W24245   2.777  31.824   4.121
57837W        W24246  13.704  35.642  12.011
57838W        W24247  14.896  24.524   1.729
57839W        W24248  32.274  37.380  13.712
57840W        W24249  16.302  10.855   0.211
57841W        W24250  29.167  11.807  11.181
57842W        W24251  18.707  14.453  10.311
57843W        W24252  34.634  20.809  14.731
57844W        W24253  25.200  25.954   3.117
57845W        W24254  33.996  42.333  14.608
57846W        W24255  24.187   9.643  14.371
57847W        W24256  42.071  37.006  13.441
57848W        W24257  22.097  19.707  12.128
57849W        W24258  18.783  26.708   0.283
57850W        W24259  35.149  37.639  11.951
57851W        W24260  42.646  44.808   0.050
57852W        W24261  28.596   5.981   1.463
57853W        W24262  44.795  40.355  14.679
57854W        W24263  40.553   0.724   3.727
57855W        W24264  12.647   9.421  13.826
57856W        W24265  43.891  16.402  13.358
57857W        W24266   8.331  26.303   3.712
57858W        W24267  17.054  43.866  13.814
57859W        W24268  13.103  27.962   9.927
57860W        W24269   0.261  39.445  12.677
57861W        W24270  16.645  29.502  11.798
57862W        W24271  30.580  42.868  11.064
57863W        W24272  30.292  16.436  11.968
57864W        W24273  44.297   8.620   2.419
57865W        W24274  22.568  37.018   1.683
57866W        W24275  43.883   0.281  11.501
57867W        W24276  19.823  42.975   1.244
57868W        W24277   4.873  35.330  13.867
57869W        W24278  36.630   7.283  12.819
57870W        W24279  44.145  41.108  12.027
57871W        W24280   2.998  14.304   3.139
57872W        W24281  29.698  18.817   2.147
57873W        W24282   2.266  12.047   9.999
57874W        W24283  37.011  26.112   4.551
57875W        W24284   4.892  25.589  14.634
57876W        W24285  28.687  25.626  12.442
57877W        W24286   3.713  42.856   3.291
57878W        W24287   1.691   7.153   2.831
57879W        W24288   8.420  19.697  12.556
57880W        W24289   4.329  18.650   1.718
57881W        W24290   5.639  40.019  14.873
57882W        W24291  12.030  21.480  11.990
57883W        W24292  35.033  41.038   4.146
57884W        W24293   8.135  15.025  11.663
57885W        W24294  32.816  14.927   4.183
57886W        W24295  38.463  30.053  14.817
57887W        W24296  24.078  18.506   1.526
57888W        W24297   0.488  30.688   3.653
57889W        W24298  25.025  14.796  13.764
57890W        W24299  38.004   3.429  11.146
57891W        W24300  39.935  14.586  12.784
57892W        W24301   9.574  11.741   1.567
57893W        W24302   0.268  33.418  11.218
57894W        W24303  42.934  15.643   3.684
57895W        W24304  11.241  26.499   0.660
57896W        W24305  33.866   8.798  11.366
57897W        W24306  35.453  22.545  13.916
57898W        W24307  15.582  37.590  12.650
57899W        W24308  21.035  23.660   1.433
57900W        W24309   9.906  23.011  11.444
57901W        W24310  19.872  14.916  11.668
57902W        W24311  22.060  22.975   1.727
57903W        W24312  20.151  30.619   4.621
57904W        W24313  14.652   4.886   1.196
57905W        W24314  31.867  20.253   1.230
57906W        W24315  42.444   4.237  14.033
57907W        W24316  38.963  28.255  14.038
57908W        W24317  25.638  13.335   2.835
57909W        W24318  12.934  44.739   3.294
57910W        W24319  42.234  19.187   3.652
57911W        W24320  16.180   1.403   3.206
57912W        W24321  29.205  12.388   1.350
57913W        W24322  23.201  20.097  11.821
57914W        W24323  43.288   2.278  10.704
57915W        W24324  31.730  11.365   1.372
57916W        W24325  15.722   8.263  13.369
57917W        W24326  30.479  20.155   3.863
57918W        W24327  37.752  32.026   1.830
57919W        W24328  40.355  10.845   1.680
57920W        W24329   3.486  13.786   4.279
57921W        W24330  12.814  41.033  12.665
57922W        W24331   3.021  21.174  13.819
57923W        W24332  24.848  24.474   2.266
57924W        W24333  23.674  21.985  11.737
57925W        W24334  21.879  30.684  13.337
57926W        W24335  13.271  43.385  14.686
57927W        W24336  10.238   9.476  12.014
57928W        W24337  27.532  33.121   1.277
57929W        W24338  28.428  34.666  10.292
57930W        W24339  41.066  32.045  12.014
57931W        W24340  31.798  36.989  11.140
57932W        W24341   3.365  35.971   0.959
57933W        W24342  27.752  12.710   2.879
57934W        W24343  10.675  27.155  13.819
57935W        W24344  11.643   1.366   1.140
57936W        W24345   3.414  31.234   4.077
57937W        W24346  25.066   1.047   1.786
57938W        W24347   0.890   0.856  13.340
57939W        W24348  34.723   6.886  11.989
57940W        W24349  11.226   4.484  13.513
57941W        W24350  26.154  16.648  14.674
57942W        W24351  22.996  40.757  11.663
57943W        W24352  44.984  21.742   2.226
57944W        W24353  14.153   2.491  11.138
57945W        W24354  34.055  27.425   4.449
57946W        W24355  40.445  44.075   4.632
57947W        W24356  38.455  27.743  12.480
57948W        W24357  38.394  30.932   0.710
57949W        W24358   3.030  23.560  13.272
57950W        W24359   8.369  22.122  11.743
57951W        W24360  26.689  17.426  12.509
57952W        W24361  22.969  15.749   2.295
57953W        W24362  41.676  16.285  12.480
57954W        W24363  36.379  44.218  13.897
57955W        W24364  44.228  38.785   0.313
57956W        W24365  18.264  34.955   2.355
57957W        W24366   5.763  23.643   0.713
57958W        W24367  24.997  38.542   1.140
57959W        W24368  17.151   0.291   0.321
57960W        W24369  42.495  12.427   0.717
57961W        W24370  13.771  35.866  11.550
57962W        W24371  12.941  20.605  14.453
57963W        W24372  44.794   4.036  13.379
57964W        W24373  25.676  17.812   1.383
57965W        W24374  31.184  16.450  11.160
57966W        W24375  32.479  36.055   1.183
57967W        W24376  25.308  25.442  12.935
57968W        W24377  37.542  23.922  12.548
57969W        W24378  37.348  20.524   2.728
57970W        W24379  13.896   6.208   1.215
57971W        W24380  40.571  31.605   1.037
57972W        W24381   4.490  37.115   4.500
57973W        W24382  30.500   9.400   4.197
57974W        W24383  30.454  25.661   1.681
57975W        W24384  24.507   0.259   2.783
57976W        W24385  19.203   2.307  11.423
57977W        W24386  44.462   1.916   1.525
57978W        W24387  39.352  44.045  12.570
57979W        W24388   4.232  18.242   0.329
57980W        W24389  40.858   4.631   1.069
57981W        W24390  19.836  30.958   0.265
57982W        W24391  23.227  11.453  13.937
57983W        W24392  30.926  10.356  10.721
57984W        W24393   2.290  16.310   1.707
57985W        W24394  16.735   7.949   4.670
57986W        W24395  40.863  13.341   2.337
57987W        W24396  32.370   1.057  12.090
57988W        W24397  17.104   6.900  14.014
57989W        W24398   3.774   9.731   1.775
57990W        W24399  23.389  25.865   9.760
57991W        W24400  35.503   4.650   2.414
57992W        W24401  11.774  43.458   0.358
57993W        W24402  43.896  29.603  10.652
57994W        W24403  16.773  28.977   4.561
57995W        W24404  15.091  26.075   4.618
57996W        W24405  23.535   9.867  14.465
57997W        W24406  34.164  10.841   3.885
57998W        W24407   2.855  10.337   1.676
57999W        W24408   6.951  27.429   0.697
58000W        W24409  12.311  22.084   2.423
58001W        W24410  15.118  35.341   1.560
58002W        W24411  33.614  31.394   1.441
58003W        W24412  21.246  35.911  10.787
58004W        W24413   8.229  13.064   0.141
58005W        W24414  36.990  25.151   1.531
58006W        W24415  43.313  20.070   2.904
58007W        W24416  42.534   4.817  13.549
58008W        W24417  33.468   2.507  12.153
58009W        W24418   6.913  26.128   9.863
58010W        W24419  11.698  35.296  14.076
58011W        W24420  27.148  29.936   2.954
58012W        W24421  26.491  37.371  14.373
58013W        W24422  11.068  25.561   4.161
58014W        W24423  19.756  17.416   2.013
58015W        W24424  24.082   0.826   0.488
58016W        W24425   6.384   9.725   0.817
58017W        W24426  44.032  44.368  11.919
58018W        W24427  18.879  33.337  14.832
58019W        W24428  14.266  27.231  11.976
58020W        W24429  14.487   4.661  13.479
58021W        W24430  32.851  44.512   1.986
58022W        W24431   5.154   9.107  11.335
58023W        W24432  16.224   5.133  13.620
58024W        W24433  36.215  15.187   0.707
58025W        W24434  21.155  35.962   1.865
58026W        W24435  13.416  18.828  13.034
58027W        W24436  40.464  20.274  11.272
58028W        W24437  12.629   5.342   1.766
58029W        W24438   3.153   0.946   0.636
58030W        W24439  43.742  40.510  13.339
58031W        W24440  29.850  24.653  12.966
58032W        W24441  11.229  36.056  13.116
58033W        W24442  19.687  28.437   0.866
58034W        W24443   5.365  18.348  12.341
58035W        W24444  37.575  14.002  13.877
58036W        W24445  35.093  27.014  12.136
58037W        W24446  37.539  31.995   1.004
58038W        W24447   7.659  36.499   4.932
58039W        W24448  13.765  21.512  14.750
58040W        W24449  16.207  21.778   0.776
58041W        W24450  11.085  27.221  12.595
58042W        W24451   0.056  41.076  13.020
58043W        W24452  18.810   3.048  11.122
58044W        W24453  19.924  12.190   0.224
58045W        W24454   5.814  41.429  14.832
58046W        W24455   3.842  34.413   1.141
58047W        W24456  42.917  11.270  14.120
58048W        W24457  15.843  11.889  12.456
58049W        W24458  36.777  12.754  13.087
58050W        W24459  17.474  18.802  11.952
58051W        W24460  10.752  34.091   1.756
58052W        W24461  24.696  43.359   2.797
58053W        W24462  17.500  13.359  12.594
58054W        W24463  26.613  36.910   2.744
58055W        W24464  17.323  15.556   4.573
58056W        W24465   2.502  20.358  13.905
58057W        W24466   8.787  19.850  13.906
58058W        W24467  34.764   7.431  14.834
58059W        W24468   9.665  36.570   4.252
58060W        W24469  12.032  24.797   3.174
58061W        W24470   5.009  35.442   0.325
58062W        W24471   1.601  16.369   4.267
58063W        W24472  39.063  39.651  14.164
58064W        W24473  23.573   9.862  10.745
58065W        W24474  22.225   7.611  12.420
58066W        W24475   2.625  40.440   3.268
58067W        W24476  25.155  17.489  12.857
58068W        W24477  10.187  13.278  10.251
58069W        W24478  29.091  24.882   3.719
58070W        W24479  42.923  12.678   2.760
58071W        W24480  19.661  21.023   2.355
58072W        W24481  40.263  22.602   4.098
58073W        W24482  32.054  39.891   1.220
58074W        W24483  40.300  18.572   1.429
58075W        W24484  23.769  34.062   1.362
58076W        W24485   4.869  23.607  12.017
58077W        W24486  28.777   5.360   4.096
58078W        W24487  10.582   6.215  13.429
58079W        W24488  30.195  42.200   4.497
58080W        W24489  11.768  21.803  11.098
58081W        W24490  28.886  12.647  11.427
58082W        W24491  16.999  22.620  11.880
58083W        W24492  14.313  18.129   1.678
58084W        W24493  10.098   2.022  11.229
58085W        W24494  23.968  35.519  13.856
58086W        W24495  32.955  11.751   1.371
58087W        W24496   8.085   5.310   1.986
58088W        W24497  24.230   0.821   4.930
58089W        W24498  25.534  19.429   0.040
58090W        W24499   9.957  11.065  12.487
58091W        W24500  29.908  14.032  14.792
58092W        W24501  23.522   7.973   4.153
58093W        W24502  30.087   3.001  14.085
58094W        W24503  17.336  22.551  13.160
58095W        W24504  38.981   0.227   2.044
58096W        W24505   6.437  28.643   1.441
58097W        W24506   6.787  16.849   4.150
58098W        W24507  27.552  30.483  11.911
58099W        W24508  24.677  43.631  11.152
58100W        W24509   9.142   5.197   3.212
58101W        W24510  27.886  30.137  13.582
58102W        W24511   4.194  26.987   3.557
58103W        W24512   3.223  18.778   2.261
58104W        W24513  38.890  16.887  11.444
58105W        W24514  26.629  20.700  11.440
58106W        W24515  17.064  25.055   3.707
58107W        W24516  15.224  37.293  11.947
58108W        W24517   0.210  27.048   0.821
58109W        W24518  23.104  20.211   1.365
58110W        W24519  36.044  15.025  13.890
58111W        W24520   4.133   3.020   4.824
58112W        W24521  18.443   1.791  11.218
58113W        W24522  41.543  14.161  10.728
58114W        W24523  19.045  23.599  11.185
58115W        W24524  38.448  14.146   0.252
58116W        W24525  33.655  35.023  13.190
58117W        W24526  18.324   5.036  12.102
58118W        W24527  42.381  34.366   0.425
58119W        W24528   4.911   0.305  12.336
58120W        W24529  14.831   6.406   0.436
58121W        W24530  10.447  29.506  13.585
58122W        W24531  27.625  28.971   1.193
58123W        W24532   4.025  25.070  11.570
58124W        W24533  16.603   0.207  13.058
58125W        W24534  37.165  30.054  14.069
58126W        W24535  31.839   9.358  12.101
58127W        W24536  24.692  34.872  12.932
58128W        W24537  18.125  23.469  13.890
58129W        W24538  17.408   1.935   2.154
58130W        W24539  35.989  13.722   3.527
58131W        W24540   2.312  36.668  13.382
58132W        W24541  21.956   0.195   4.160
58133W        W24542  16.927  13.339  13.507
58134W        W24543  19.474  30.826   1.866
58135W        W24544  25.323  14.086  13.337
58136W        W24545   2.691  26.364  13.057
58137W        W24546  38.862  29.642   2.233
58138W        W24547   7.719   3.990   2.019
58139W        W24548  23.709  38.412  11.640
58140W        W24549  17.594  27.440   4.189
58141W        W24550  22.683  34.115  14.730
58142W        W24551  11.228  44.527  11.849
58143W        W24552  38.285  25.375  14.841
58144W        W24553  41.645   9.873   2.702
58145W        W24554  19.161  12.226  10.631
58146W        W24555  34.923   5.286  10.589
58147W        W24556  38.126  25.396   1.813
58148W        W24557  11.185  39.948   2.716
58149W        W24558  19.705  13.080   1.365
58150W        W24559  11.993  32.134  13.511
58151W        W24560  20.527  23.008   2.262
58152W        W24561  28.715  10.250  14.357
58153W        W24562   6.718  14.631   4.678
58154W        W24563  18.648  43.302   4.714
58155W        W24564  29.054  41.775  14.698
58156W        W24565  12.641   7.738   0.249
58157W        W24566  23.742  27.363   1.667
58158W        W24567  18.999  18.712   4.916
58159W        W24568  24.650   4.985  10.302
58160W        W24569  23.765  20.721   2.871
58161W        W24570  40.090  29.729  12.847
58162W        W24571  13.602  32.429   9.832
58163W        W24572   8.834  15.114  10.667
58164W        W24573   8.235  14.261  10.519
58165W        W24574   4.446  38.308   3.108
58166W        W24575   1.850  12.441   4.547
58167W        W24576  16.773  15.952   0.731
58168W        W24577  15.173  33.259  11.764
58169W        W24578  18.044   4.905   3.150
58170W        W24579  39.933  24.676  10.725
58171W        W24580  33.091  33.650   0.301
58172W        W24581  37.966  22.634  14.238
58173W        W24582  39.736  39.177   4.194
58174W        W24583   3.663  25.900  14.110
58175W        W24584  40.709   9.242  14.155
58176W        W24585  32.465  39.904   2.978
58177W        W24586  39.455  41.322   3.306
58178W        W24587  32.649  19.970   4.406
58179W        W24588  22.937  19.355   0.832
58180W        W24589   2.609  25.991   2.219
58181W        W24590  13.601   8.874  11.298
58182W        W24591   5.527  13.154   2.599
58183W        W24592  33.377   7.244  14.518
58184W        W24593  20.251  39.846   4.033
58185W        W24594   3.920  34.599   2.200
58186W        W24595  19.599  18.631   1.340
58187W        W24596   1.459   9.932  11.966
58188W        W24597  25.739  35.627   1.625
58189W        W24598   4.178  18.233   4.942
58190W        W24599   6.004  18.773   1.464
58191W        W24600  17.772  21.234  12.101
58192W        W24601  40.569  25.439  14.412
58193W        W24602  30.715  19.658   0.539
58194W        W24603  28.906  44.003  11.033
58195W        W24604  33.224  33.832  12.141
58196W        W24605  11.150  33.853  10.550
58197W        W24606  16.594  24.434  10.698
58198W        W24607  15.922  12.569  13.921
58199W        W24608  14.120  23.186  13.486
58200W        W24609  20.990  31.451  11.346
58201W        W24610  16.318  25.099   1.037
58202W        W24611   0.255  17.372  11.615
58203W        W24612  36.781  41.815   3.083
58204W        W24613  22.725  21.705  12.880
58205W        W24614   9.196   8.761   0.511
58206W        W24615  36.450  41.330   1.349
58207W        W24616  44.980  26.001  13.868
58208W        W24617  19.297  32.292   0.559
58209W        W24618  10.882  20.591  11.662
58210W        W24619  42.515  28.042   1.344
58211W        W24620  11.552  28.491  11.583
58212W        W24621  25.563  44.329   4.181
58213W        W24622  33.793  26.018   0.943
58214W        W24623  23.721  40.540  13.922
58215W        W24624  29.661  34.420   5.074
58216W        W24625  44.103  42.378   4.455
58217W        W24626  13.644  18.999  11.523
58218W        W24627  18.688  14.786  13.794
58219W        W24628  42.762  40.070   0.501
58220W        W24629  39.876  10.001   4.522
58221W        W24630  37.454   6.490  11.228
58222W        W24631  32.126  37.544  12.866
58223W        W24632   5.283  13.167   2.039
58224W        W24633  18.549   0.469  14.559
58225W        W24634  38.427  36.457  11.247
58226W        W24635  21.682  36.017  13.594
58227W        W24636  35.352  29.536  12.122
58228W        W24637  21.472   0.467   1.385
58229W        W24638   1.432  43.779  12.576
58230W        W24639  43.423  30.091  11.245
58231W        W24640  17.376  42.872  14.919
58232W        W24641  37.020  21.752  10.548
58233W        W24642  17.998   2.821  13.497
58234W        W24643  44.544  13.607  13.748
58235W        W24644  28.040  39.464   3.832
58236W        W24645  39.010  41.864  11.943
58237W        W24646  30.592  25.768   2.688
58238W        W24647  13.842   6.473   0.358
58239W        W24648  29.911  34.004   1.672
58240W        W24649   2.471  28.994  13.135
58241W        W24650  12.474  34.134  10.323
58242W        W24651  35.983  16.313  12.061
58243W        W24652  40.559  42.791   0.523
58244W        W24653   6.926  30.611  14.771
58245W        W24654   0.427  27.892  11.982
58246W        W24655   7.403  15.355  13.339
58247W        W24656   6.966  36.952  13.883
58248W        W24657   8.288  17.043  12.427
58249W        W24658  34.116  21.220   2.216
58250W        W24659  20.594  37.536  12.506
58251W        W24660  22.632  34.346  10.731
58252W        W24661  31.424  17.432  14.618
58253W        W24662  43.861  13.456  12.533
58254W        W24663  28.467   2.053  12.848
58255W        W24664  43.243   8.595  10.707
58256W        W24665   7.320  44.052   1.301
58257W        W24666  19.303  22.607  14.027
58258W        W24667   9.819   1.545   0.178
58259W        W24668  32.075  24.893   0.759
58260W        W24669  44.955  13.146  10.540
58261W        W24670  30.646  36.544  14.771
58262W        W24671  10.680  43.026  14.203
58263W        W24672  31.496  24.658  13.753
58264W        W24673  26.024   2.901   2.921
58265W        W24674  37.262  36.870  12.149
58266W        W24675  39.108  15.857  11.501
58267W        W24676   5.234  37.913  10.870
58268W        W24677  41.043  24.295   0.447
58269W        W24678   2.457  39.930  12.578
58270W        W24679  41.728  25.161  10.638
58271W        W24680  25.301  20.411   0.662
58272W        W24681  17.615   8.445  12.078
58273W        W24682  31.914   0.355   1.220
58274W        W24683  44.453  16.008   1.342
58275W        W24684  21.128  14.831  14.307
58276W        W24685  42.586  29.453  13.013
58277W        W24686  23.784  31.152   1.646
58278W        W24687   2.326  16.329  10.632
58279W        W24688   3.719  24.658  14.922
58280W        W24689  26.016  14.075  12.001
58281W        W24690   1.399  44.022  13.435
58282W        W24691   0.668  23.116   3.162
58283W        W24692  31.527  37.556  14.487
58284W        W24693  40.493  10.048   5.175
58285W        W24694  36.790  41.520  13.356
58286W        W24695  37.328  21.235   4.159
58287W        W24696  17.216  23.300  11.393
58288W        W24697   7.877  20.984  13.588
58289W        W24698   7.953  23.096  11.616
58290W        W24699  35.070  22.915  14.002
58291W        W24700  16.126  17.699   3.695
58292W        W24701  42.364   7.793   1.260
58293W        W24702  43.421   2.759   3.391
58294W        W24703  27.546  17.260   4.916
58295W        W24704  28.837  27.519  11.543
58296W        W24705  20.520  41.907  13.952
58297W        W24706  10.587   7.554   2.192
58298W        W24707  13.208  15.671   9.911
58299W        W24708  29.595  41.871  11.071
58300W        W24709   7.007  25.395   4.066
58301W        W24710  20.610   8.742  14.261
58302W        W24711   3.773  36.984  14.781
58303W        W24712   0.212  17.041   3.191
58304W        W24713  39.387   5.422   2.250
58305W        W24714  23.340   1.962  14.794
58306W        W24715  43.482  39.861   1.210
58307W        W24716   3.769  19.182   0.648
58308W        W24717  36.322   5.005   4.161
58309W        W24718   0.886  16.848   0.454
58310W        W24719  31.722  32.917   3.927
58311W        W24720  40.275   8.451  14.275
58312W        W24721  29.720   6.120  12.139
58313W        W24722   3.655  19.781   1.824
58314W        W24723  12.221   9.440   1.558
58315W        W24724  29.351   8.191   5.220
58316W        W24725  25.992  24.972  11.096
58317W        W24726  43.483  10.301  11.476
58318W        W24727  10.422  22.913   0.796
58319W        W24728  13.986  35.037  13.894
58320W        W24729  35.695  14.336   0.598
58321W        W24730  39.504  28.436  12.168
58322W        W24731  13.321  14.337  12.908
58323W        W24732  30.076  19.578  11.892
58324W        W24733  11.279  40.041   1.754
58325W        W24734  24.540  32.600  13.055
58326W        W24735  40.984  33.962  10.797
58327W        W24736  36.963   6.468  11.632
58328W        W24737   8.736  43.352   4.993
58329W        W24738  43.250  12.535  13.815
58330W        W24739  30.730  33.927  11.505
58331W        W24740   8.316  21.066   0.916
58332W        W24741  27.261   9.884  13.777
58333W        W24742  37.011  43.034   5.006
58334W        W24743  44.462  23.655   3.186
58335W        W24744  22.497  23.574   1.359
58336W        W24745  11.854  10.401   0.397
58337W        W24746  22.454   5.302   1.401
58338W        W24747  20.686   8.320   4.775
58339W        W24748  20.558  31.644  11.026
58340W        W24749   2.259  36.164   0.772
58341W        W24750  23.567  32.128  12.054
58342W        W24751  41.507   1.282  14.440
58343W        W24752  15.015  39.884  13.002
58344W        W24753  16.919  33.179   0.077
58345W        W24754  38.891  22.032   0.255
58346W        W24755  31.007  38.324   4.165
58347W        W24756  43.233  44.032   2.351
58348W        W24757  33.103  20.874  13.980
58349W        W24758  22.008  21.222   2.293
58350W        W24759  42.177  26.415  12.330
58351W        W24760  21.036  38.352   4.024
58352W        W24761  21.979  10.650  10.520
58353W        W24762  31.947   5.196  11.267
58354W        W24763  42.261  14.831  11.080
58355W        W24764   3.971  10.896  10.590
58356W        W24765  35.735  40.263  14.833
58357W        W24766  41.378  20.601   4.740
58358W        W24767  18.576   8.076   2.367
58359W        W24768  10.272  15.673  14.975
58360W        W24769  28.373  34.297  14.231
58361W        W24770  43.464  32.843  12.144
58362W        W24771  29.597  22.900  11.557
58363W        W24772  17.189  23.214  13.805
58364W        W24773   9.530  27.840  10.073
58365W        W24774  29.629  35.425  12.641
58366W        W24775  36.197  21.231  12.956
58367W        W24776   6.058  27.686   0.935
58368W        W24777  34.609  37.160  13.989
58369W        W24778   5.022   2.362   3.082
58370W        W24779  27.908  36.783  14.495
58371W        W24780  25.171  19.155  12.450
58372W        W24781  42.271  32.390   1.528
58373W        W24782   9.261  21.640  13.333
58374W        W24783  15.418   9.826  13.499
58375W        W24784  12.435  18.621  13.039
58376W        W24785  25.314  39.264  14.511
58377W        W24786  17.026  15.283  14.974
58378W        W24787   1.936  22.634   3.414
58379W        W24788   3.513  20.736  14.823
58380W        W24789   1.314  27.388  12.208
58381W        W24790   3.000  25.606  11.218
58382W        W24791   2.498  24.093   3.849
58383W        W24792   8.560   5.606   1.785
58384W        W24793   0.795  39.705  11.979
58385W        W24794  20.659  31.017  12.878
58386W        W24795  43.822  43.711  14.834
58387W        W24796  33.478  30.985   2.388
58388W        W24797  23.257  30.607   0.768
58389W        W24798  25.426  24.973   3.087
58390W        W24799  11.196   0.446  14.908
58391W        W24800  43.246  29.880  10.804
58392W        W24801  24.341  25.059   2.224
58393W        W24802  44.255  35.787   0.864
58394W        W24803   7.331  20.400  12.340
58395W        W24804  22.573  20.690   2.392
58396W        W24805   1.160   7.837   0.918
58397W        W24806  37.328  23.951  11.033
58398W        W24807  10.227  30.435  10.915
58399W        W24808  43.441  41.982  11.872
58400W        W24809   1.312   9.710   0.462
58401W        W24810  23.546   2.201   3.682
58402W        W24811   3.354  11.617   1.954
58403W        W24812  36.926   0.537   0.464
58404W        W24813  16.589  43.225  10.912
58405W        W24814   6.307  12.755  11.425
58406W        W24815  27.379  16.145  12.383
58407W        W24816  22.029  21.039   3.081
58408W        W24817  15.388  10.515   0.050
58409W        W24818  18.070  43.102  13.645
58410W        W24819  22.779  16.661   4.591
58411W        W24820  15.563   7.594   4.970
58412W        W24821  15.818  13.041   0.415
58413W        W24822  31.053  24.925  13.846
58414W        W24823  37.927   2.633   0.436
58415W        W24824  41.965   6.121   2.126
58416W        W24825  27.510  16.985  10.644
58417W        W24826   5.283   0.837  14.335
58418W        W24827  13.224   2.120   4.062
58419W        W24828  24.589  26.198  14.738
58420W        W24829  12.572   7.171  13.299
58421W        W24830  21.498   7.320  10.681
58422W        W24831  23.247  31.903   3.710
58423W        W24832  40.352  38.310  11.987
58424W        W24833   9.182  39.726   4.656
58425W        W24834  16.193  16.806   0.958
58426W        W24835   8.343  23.078   3.143
58427W        W24836  39.805  15.169  14.525
58428W        W24837  43.877  27.756   2.169
58429W        W24838  37.869  26.165   0.538
58430W        W24839  27.817   2.519  11.086
58431W        W24840   8.913  34.467   2.233
58432W        W24841  26.021  30.567  12.046
58433W        W24842  15.263  16.497   4.681
58434W        W24843  20.218  12.963  11.065
58435W        W24844   7.673   7.725  13.336
58436W        W24845  30.502  13.343   1.300
58437W        W24846  22.668   9.648   0.923
58438W        W24847  14.775  29.585   2.779
58439W        W24848  21.228  18.783  11.679
58440W        W24849  35.113   4.705   0.759
58441W        W24850  29.336  24.376   3.759
58442W        W24851  22.394  37.982  11.644
58443W        W24852   5.360  17.696  11.259
58444W        W24853  18.736   9.071   2.229
58445W        W24854  20.325  21.261   4.069
58446W        W24855  43.035  29.083   2.326
58447W        W24856  25.524  12.455   2.506
58448W        W24857  32.355  34.706   0.478
58449W        W24858  29.883   6.042  12.713
58450W        W24859  29.561  34.901   2.806
58451W        W24860  22.283  35.549   2.887
58452W        W24861  22.655   0.413  14.973
58453W        W24862  32.934  10.632  11.649
58454W        W24863  38.899  12.594   3.120
58455W        W24864  14.398  20.246   4.254
58456W        W24865  21.216   9.342   0.763
58457W        W24866  38.315  35.704  14.382
58458W        W24867  38.075  42.979  14.908
58459W        W24868   7.833  15.486   1.290
58460W        W24869  34.651   5.378  14.985
58461W        W24870   6.025  37.355  11.489
58462W        W24871   6.696  32.075   0.332
58463W        W24872  21.071  35.420   3.664
58464W        W24873  36.090   6.752   0.474
58465W        W24874  42.153  30.432  11.536
58466W        W24875  33.883   4.277  13.799
58467W        W24876  27.592  31.000   1.641
58468W        W24877  29.883  23.094  14.216
58469W        W24878   5.745  37.906   0.408
58470W        W24879   2.927  35.061   2.175
58471W        W24880  13.444   6.892   0.354
58472W        W24881  15.650  33.919  12.865
58473W        W24882  43.489  22.106   3.226
58474W        W24883  33.583  23.536  11.506
58475W        W24884  20.561  12.054  14.404
58476W        W24885   8.089  40.452   2.753
58477W        W24886   9.645  41.022   0.885
58478W        W24887   2.700  11.861   2.751
58479W        W24888   6.677  29.201  12.845
58480W        W24889  38.320  20.658   3.710
58481W        W24890   5.261  40.007  11.907
58482W        W24891  19.288   9.391  14.175
58483W        W24892  34.940  30.164   3.519
58484W        W24893  42.466  22.287   3.213
58485W        W24894  35.154   4.911   2.651
58486W        W24895  11.641  19.255   3.638
58487W        W24896  12.330  36.001   3.700
58488W        W24897  13.194  18.366   0.884
58489W        W24898   3.377  24.731  10.634
58490W        W24899  26.959  35.041   3.636
58491W        W24900  13.811  24.671  14.319
58492W        W24901  30.524  10.050  10.668
58493W        W24902  19.739  31.636   1.607
58494W        W24903  24.548  16.509  14.397
58495W        W24904  42.991  34.111  14.764
58496W        W24905  24.402  26.868  10.405
58497W        W24906  34.027   8.321  13.871
58498W        W24907  22.524  21.101   4.871
58499W        W24908  20.649  38.575   3.718
58500W        W24909  30.515  33.541   0.458
58501W        W24910  37.409  37.052  11.292
58502W        W24911  29.529  34.901   4.247
58503W        W24912  35.332  10.326   0.973
58504W        W24913  36.554  32.387   3.745
58505W        W24914   9.851  36.659   4.730
58506W        W24915  41.823  36.376  11.444
58507W        W24916  14.007  25.610   2.060
58508W        W24917   6.872  31.383  13.661
58509W        W24918  14.291  10.367   1.874
58510W        W24919  19.753  32.626   1.340
58511W        W24920  19.682   6.109  14.381
58512W        W24921  27.445  15.547  11.033
58513W        W24922  34.080  25.457   2.083
58514W        W24923   5.607   6.965  12.024
58515W        W24924  42.543  28.353   0.073
58516W        W24925  25.040  33.866   0.829
58517W        W24926  36.505  25.136   4.556
58518W        W24927  27.984  26.055  13.390
58519W        W24928  12.301   6.749  13.503
58520W        W24929  21.014  28.067   1.697
58521W        W24930  19.168  16.619   1.623
58522W        W24931  13.345  18.538   2.232
58523W        W24932  16.553   2.249  11.483
58524W        W24933  35.488   1.949   0.049
58525W        W24934  39.069  22.799   3.886
58526W        W24935  12.583  21.311   4.209
58527W        W24936  29.471   1.289   2.324
58528W        W24937  22.445   7.665  10.556
58529W        W24938  24.203  35.493   2.650
58530W        W24939  39.136  27.944   1.371
58531W        W24940  40.744  31.391  14.000
58532W        W24941  19.042  15.427   1.211
58533W        W24942  31.092  18.338  13.456
58534W        W24943  36.840  41.793   0.493
58535W        W24944  41.654  18.726  14.966
58536W        W24945  27.516   5.633   1.033
58537W        W24946  16.742  30.710   0.310
58538W        W24947  27.790  15.378  11.979
58539W        W24948  33.902   0.044   0.785
58540W        W24949   2.211  35.720   2.424
58541W        W24950  25.551  33.678  10.656
58542W        W24951  17.635   8.088  11.592
58543W        W24952  17.565   2.541   2.845
58544W        W24953  44.973  34.499  13.769
58545W        W24954  13.567  22.301  12.760
58546W        W24955  18.886  37.643  13.963
58547W        W24956  36.600   7.269   1.377
58548W        W24957  30.532  29.642  12.460
58549W        W24958   1.940  41.177   3.611
58550W        W24959   6.221  24.397   0.979
58551W        W24960   9.068  39.458   2.371
58552W        W24961  19.574  13.719   4.769
58553W        W24962  10.112  27.518  12.439
58554W        W24963  22.643   1.450   4.045
58555W        W24964  19.772  31.195  12.820
58556W        W24965  35.211  41.043  14.796
58557W        W24966  41.513   8.396   0.002
58558W        W24967  32.697   2.891   4.491
58559W        W24968   0.681  30.328  13.570
58560W        W24969  41.442  36.520   0.910
58561W        W24970  44.209  19.276  12.047
58562W        W24971   4.890  31.037  12.204
58563W        W24972  25.868  17.050  14.492
58564W        W24973   3.406  11.126  11.150
58565W        W24974  11.877  18.685  11.113
58566W        W24975  29.972  17.195   0.977
58567W        W24976  21.831  28.546   4.432
58568W        W24977  33.304   1.765   3.252
58569W        W24978  26.644  30.906   2.059
58570W        W24979   8.734  22.855   2.388
58571W        W24980  29.531  37.850  10.907
58572W        W24981  15.010   7.124  11.992
58573W        W24982   8.431  35.003  11.363
58574W        W24983  43.508  19.883   0.666
58575W        W24984   0.249  32.873  12.945
58576W        W24985  18.781  17.222  10.473
58577W        W24986  12.520  34.645  13.340
58578W        W24987   4.956  20.777   3.877
58579W        W24988  23.029  37.985  12.881
58580W        W24989   9.390  32.863  14.014
58581W        W24990  39.961  26.482  14.765
58582W        W24991  15.722  28.649   3.931
58583W        W24992   1.482  12.660  14.523
58584W        W24993  41.450   7.300   0.323
58585W        W24994  21.857  13.522  11.134
58586W        W24995  24.701  25.274  14.772
58587W        W24996  21.456  43.491   2.323
58588W        W24997  41.937  40.260  10.141
58589W        W24998  20.304  27.666  11.226
58590W        W24999  35.926  28.145   1.123
58591W        W25000  34.376   7.645   1.727
58592W        W25001  24.195  39.377  12.917
58593W        W25002  41.256   7.957  13.449
58594W        W25003  25.143  12.027  12.196
58595W        W25004  31.841  38.943   4.358
58596W        W25005  24.913   7.907  11.976
58597W        W25006  32.117   9.851  11.096
58598W        W25007  11.172  24.440   3.243
58599W        W25008   1.738   4.163  14.315
58600W        W25009  41.093  29.449  13.816
58601W        W25010  25.558  35.862   1.123
58602W        W25011  40.540  44.042  14.540
58603W        W25012   5.383   5.246  13.452
58604W        W25013  31.669  10.372   4.286
58605W        W25014  31.674  12.164  13.975
58606W        W25015  16.752  23.638   1.042
58607W        W25016   1.135  22.475   1.554
58608W        W25017  22.764  41.311   0.483
58609W        W25018   4.495  39.557  14.998
58610W        W25019  16.386  10.424   3.601
58611W        W25020  19.044  20.567  14.038
58612W        W25021  20.146  21.041  10.793
58613W        W25022   9.305  29.612  12.832
58614W        W25023  41.967  13.282   1.776
58615W        W25024   0.051  32.527   3.813
58616W        W25025  36.014   9.932  14.833
58617W        W25026  10.804  29.248  12.495
58618W        W25027  44.731  29.958   0.307
58619W        W25028  28.623  39.963  11.545
58620W        W25029  14.304  16.500   4.808
58621W        W25030  37.324   4.528  11.125
58622W        W25031  20.536   2.797  10.768
58623W        W25032  35.523  43.313   4.708
58624W        W25033  13.490  25.141  14.965
58625W        W25034  17.099  38.501  12.687
58626W        W25035   4.654  42.303   4.130
58627W        W25036  25.221  20.744   3.536
58628W        W25037  22.724   8.057   0.731
58629W        W25038  36.402  38.373   3.400
58630W        W25039   4.874  39.425  10.592
58631W        W25040  15.640  24.818  10.744
58632W        W25041  28.135  25.464   1.367
58633W        W25042  43.912  37.111   4.138
58634W        W25043  11.303  26.497  10.959
58635W        W25044   2.787  27.873  12.440
58636W        W25045  23.088   8.755   4.440
58637W        W25046  18.036  27.933  14.978
58638W        W25047   0.272   0.257   4.410
58639W        W25048  43.459   2.801  10.730
58640W        W25049   9.833   2.765   2.250
58641W        W25050  19.559   4.111  10.635
58642W        W25051   7.183  34.181  11.896
58643W        W25052  40.913   6.299  11.903
58644W        W25053  41.362  15.798   3.123
58645W        W25054  38.778  25.065   4.642
58646W        W25055   8.880  35.670   0.808
58647W        W25056   4.053  24.973  10.738
58648W        W25057   8.410  36.222   4.625
58649W        W25058  40.369   1.234  13.350
58650W        W25059  17.246  24.140   1.145
58651W        W25060  16.008   6.698   0.863
58652W        W25061  41.312   8.264   0.834
58653W        W25062   3.286  41.868   1.236
58654W        W25063  35.592  24.058  11.116
58655W        W25064  40.136  21.322   1.344
58656W        W25065   1.012  36.985  14.261
58657W        W25066  28.501  18.228  13.950
58658W        W25067  31.505   8.819   0.948
58659W        W25068  10.519  19.212  11.131
58660W        W25069  21.339  30.435  14.016
58661W        W25070  29.041  26.794  13.546
58662W        W25071  20.828  10.369  11.839
58663W        W25072  20.022  38.623   1.565
58664W        W25073  14.592  40.002   3.377
58665W        W25074   0.354  42.335  10.948
58666W        W25075  20.028  22.161   2.340
58667W        W25076  14.774  31.670   3.217
58668W        W25077   9.198  21.991   1.243
58669W        W25078  26.474  11.312   2.870
58670W        W25079  11.797  41.049   4.631
58671W        W25080  32.351  41.074  13.906
58672W        W25081  17.328   7.143   1.808
58673W        W25082  33.419  41.873  10.402
58674W        W25083  30.122  32.535   0.424
58675W        W25084  24.664   6.595   3.844
58676W        W25085  35.345   9.013   4.842
58677W        W25086  35.083  13.544   1.466
58678W        W25087  34.693  32.986   1.406
58679W        W25088  26.616   6.215  14.014
58680W        W25089   7.338  44.645  10.712
58681W        W25090  23.824  32.523   1.842
58682W        W25091  27.479  12.593  12.496
58683W        W25092  42.353   1.790  13.522
58684W        W25093   1.370   4.917   0.874
58685W        W25094  20.160  37.542  14.819
58686W        W25095  43.842   8.856  12.449
58687W        W25096  13.458  12.806   3.697
58688W        W25097  43.940  40.519  13.847
58689W        W25098  44.933  38.846   1.349
58690W        W25099  26.524  24.851   3.253
58691W        W25100  16.340  42.149  10.950
58692W        W25101   0.554  29.958  14.856
58693W        W25102  40.826  32.436   3.547
58694W        W25103  12.743  18.601   1.540
58695W        W25104  32.902  13.249   3.688
58696W        W25105  26.180  18.025  14.541
58697W        W25106  24.973   0.854  11.688
58698W        W25107  29.381  31.088   2.184
58699W        W25108  38.500   0.387   4.748
58700W        W25109   9.115  44.287  11.851
58701W        W25110   2.975  17.098  11.140
58702W        W25111  27.639  42.946  14.072
58703W        W25112  17.705  30.179   0.136
58704W        W25113  25.572  36.641  12.494
58705W        W25114  37.501   0.280   4.853
58706W        W25115  35.567  30.555   3.908
58707W        W25116  29.980   8.450   1.690
58708W        W25117  27.542  42.770  12.034
58709W        W25118  37.435  41.599  12.024
58710W        W25119   7.293  11.499  14.860
58711W        W25120  28.144  44.282   3.711
58712W        W25121  39.353  40.049   3.824
58713W        W25122  41.400  40.842   1.008
58714W        W25123  36.276  40.954  12.465
58715W        W25124  10.294  13.271  14.154
58716W        W25125  32.588  26.159  13.866
58717W        W25126  33.439  24.251   2.761
58718W        W25127  38.297  31.476  14.639
58719W        W25128  11.639  27.857   4.448
58720W        W25129  41.495  17.261   1.831
58721W        W25130  42.867  42.062  14.892
58722W        W25131   6.370  11.708  11.663
58723W        W25132  32.522   8.671  14.419
58724W        W25133   3.420   1.815  10.785
58725W        W25134  42.388  24.441   1.953
58726W        W25135  34.108  16.843  12.594
58727W        W25136   0.892   6.750   0.040
58728W        W25137  20.917  16.754   4.231
58729W        W25138   6.456  36.194  11.973
58730W        W25139  35.084   7.855  14.045
58731W        W25140  37.434  17.179   3.210
58732W        W25141  31.618  34.056  10.981
58733W        W25142  27.076  20.970   0.926
58734W        W25143   9.618  25.666   4.645
58735W        W25144  16.654  25.524  14.045
58736W        W25145  19.676  38.275  12.745
58737W        W25146   0.010  29.580  13.598
58738W        W25147  35.832  20.117  11.053
58739W        W25148   9.045  42.064   4.775
58740W        W25149  19.582  20.161  14.267
58741W        W25150  20.331  20.610  11.558
58742W        W25151   0.208  12.222   0.225
58743W        W25152   2.836  32.640  10.462
58744W        W25153   6.839  36.074   4.099
58745W        W25154  35.417  17.899   0.241
58746W        W25155   8.620  12.255  10.515
58747W        W25156  35.399  10.720   1.308
58748W        W25157  35.824  34.890   3.684
58749W        W25158  29.906  38.305   3.780
58750W        W25159  25.801  25.293   2.759
58751W        W25160  30.139  35.363   2.314
58752W        W25161  41.238   3.962   4.084
58753W        W25162  37.860  32.949  14.331
58754W        W25163  40.938  24.655   4.598
58755W        W25164  40.864   8.816   2.333
58756W        W25165  33.538  31.190  11.583
58757W        W25166  38.918  11.612   2.231
58758W        W25167  42.545   9.700   0.740
58759W        W25168  30.048   9.890   0.943
58760W        W25169  44.831  24.211  14.590
58761W        W25170   1.043  43.060   1.959
58762W        W25171  43.430  17.848   4.512
58763W        W25172  38.625   3.813   1.168
58764W        W25173   1.253  12.813  14.991
58765W        W25174  25.583   4.385   2.026
58766W        W25175  15.194  24.690   2.098
58767W        W25176  22.220   0.437  11.016
58768W        W25177   4.716  22.766   0.945
58769W        W25178  23.664   1.485   2.331
58770W        W25179  23.662  41.647   4.122
58771W        W25180  28.994  13.238  13.630
58772W        W25181  40.813  41.566   1.528
58773W        W25182  16.191  19.564   3.648
58774W        W25183  14.550   5.207   1.574
58775W        W25184   5.985  15.827  14.528
58776W        W25185  29.638  44.539  13.364
58777W        W25186  25.959   4.672   4.799
58778W        W25187   7.202  19.000   2.201
58779W        W25188  44.937  39.894  14.825
58780W        W25189   7.331  24.915  14.385
58781W        W25190  39.444   6.431  11.621
58782W        W25191  33.692  13.713  11.641
58783W        W25192  19.241   8.182   3.064
58784W        W25193  16.231  27.621  12.388
58785W        W25194  14.237  38.286   0.255
58786W        W25195  39.726  26.334   1.772
58787W        W25196  43.397   6.976  10.723
58788W        W25197  26.088  29.444   4.781
58789W        W25198  24.607  25.223   0.289
58790W        W25199  21.317  12.624  11.140
58791W        W25200  21.310  37.025  13.909
58792W        W25201  43.501  13.982   2.707
58793W        W25202  28.588  29.111  14.757
58794W        W25203  33.400  42.496  12.478
58795W        W25204  38.785  20.610   0.236
58796W        W25205   1.494  22.662   4.174
58797W        W25206  19.522  29.587  14.485
58798W        W25207  27.716  35.291  12.575
58799W        W25208  22.610  27.677  13.229
58800W        W25209  40.559  10.392   0.403
58801W        W25210  10.124   4.462  12.875
58802W        W25211  32.487   9.862  14.078
58803W        W25212   5.144  25.236   0.705
58804W        W25213   3.439  13.528  11.083
58805W        W25214   1.521   8.502   4.983
58806W        W25215   4.808  34.375  13.763
58807W        W25216   4.336  44.450   0.708
58808W        W25217  43.303  12.364  14.327
58809W        W25218  21.227  27.507   1.711
58810W        W25219   1.777  29.626   3.229
58811W        W25220  22.481  26.970   0.870
58812W        W25221  12.237  16.789  13.745
58813W        W25222  21.677  33.297   3.737
58814W        W25223  16.880   6.667   1.258
58815W        W25224   6.586  42.564   2.859
58816W        W25225  44.830   6.570   3.910
58817W        W25226   6.235  19.438  10.296
58818W        W25227  30.882   3.428   1.963
58819W        W25228  34.338  19.711  10.738
58820W        W25229  18.390  36.984   9.876
58821W        W25230  33.312  19.556  10.774
58822W        W25231  36.659  13.852   4.559
58823W        W25232  41.808  27.857  14.869
58824W        W25233  24.473  39.020   4.582
58825W        W25234  22.297  14.044  12.435
58826W        W25235  18.337  16.895   4.114
58827W        W25236  24.791  42.986   4.013
58828W        W25237  31.586  18.229   2.308
58829W        W25238  38.613  20.642   4.573
58830W        W25239  27.111  43.168  11.988
58831W        W25240   9.232  41.069  14.481
58832W        W25241  32.363  18.967   1.193
58833W        W25242  19.326  34.541   0.970
58834W        W25243   9.293  44.356   4.219
58835W        W25244  28.463  39.421  14.993
58836W        W25245  31.140  21.045  12.871
58837W        W25246  39.910  14.418  10.792
58838W        W25247  33.930  39.553  11.477
58839W        W25248  12.660  43.812  11.230
58840W        W25249  12.323  39.952   9.847
58841W        W25250  43.961  36.081   0.301
58842W        W25251  33.460  34.941   3.598
58843W        W25252  36.411   9.130  14.710
58844W        W25253  38.781  19.630  11.882
58845W        W25254  13.697  36.015   0.959
58846W        W25255   9.363  42.842   0.298
58847W        W25256  34.984  43.884   3.094
58848W        W25257  40.699  43.244   2.715
58849W        W25258   0.492  10.620  10.372
58850W        W25259  41.146   3.298  13.339
58851W        W25260  27.078   0.453   0.826
58852W        W25261  12.143  37.123  10.451
58853W        W25262  20.008  22.599   2.641
58854W        W25263  39.310  41.297   2.167
58855W        W25264  38.092  36.031  13.966
58856W        W25265  38.359  12.964   0.849
58857W        W25266  43.079  37.977   1.702
58858W        W25267   9.097  43.443   4.639
58859W        W25268  37.844  32.151  12.965
58860W        W25269  33.091   0.737  14.428
58861W        W25270   2.740   3.230  14.439
58862W        W25271  27.390  20.445   3.090
58863W        W25272  39.545   9.213   2.520
58864W        W25273   0.015  27.728   1.128
58865W        W25274  31.999  24.759  13.986
58866W        W25275   9.386  18.765   2.768
58867W        W25276   9.747  38.563  12.080
58868W        W25277   0.262  16.049  13.768
58869W        W25278  32.388  33.413  13.879
58870W        W25279  11.322   9.112  14.344
58871W        W25280  20.780  28.430   0.717
58872W        W25281  23.506  10.379   0.885
58873W        W25282  29.678   7.194   0.353
58874W        W25283  37.549  29.735   2.655
58875W        W25284  36.023  31.903  13.383
58876W        W25285  41.458  35.090  14.854
58877W        W25286   6.304  43.737  12.032
58878W        W25287  36.560  18.100   0.315
58879W        W25288  11.502  44.613  13.914
58880W        W25289  30.464   1.478  13.974
58881W        W25290  13.021  10.573   1.802
58882W        W25291  17.796   4.224  12.372
58883W        W25292  38.623  39.103  14.463
58884W        W25293   9.922  14.275   2.348
58885W        W25294  17.242  32.965  13.801
58886W        W25295  12.714  26.486   3.106
58887W        W25296  44.960  11.757  12.929
58888W        W25297  16.045  18.629   0.707
58889W        W25298  11.436  31.546   2.665
58890W        W25299   5.860  30.026  12.066
58891W        W25300  25.003   4.736   2.669
58892W        W25301   0.759   3.869  14.800
58893W        W25302   3.947  14.581  10.797
58894W        W25303  23.165  14.457  12.520
58895W        W25304   3.193  27.603   4.818
58896W        W25305  38.461  42.996  14.481
58897W        W25306  21.086  23.967  10.863
58898W        W25307  42.225  40.012  11.510
58899W        W25308  17.273  40.532  10.548
58900W        W25309  16.732  16.151  12.896
58901W        W25310  25.791  22.156   3.275
58902W        W25311  19.672  20.150   3.288
58903W        W25312  30.931  31.989  12.061
58904W        W25313  25.074  30.308   1.086
58905W        W25314  25.518  40.960  10.701
58906W        W25315   2.606   3.896  11.628
58907W        W25316  43.475  17.800  14.408
58908W        W25317  37.769   9.131   0.878
58909W        W25318  44.464   0.770   4.030
58910W        W25319  30.950  30.517   0.158
58911W        W25320   8.319  33.913   3.298
58912W        W25321  26.436  18.549  11.587
58913W        W25322  12.688  33.374  12.383
58914W        W25323  38.455  16.112  11.843
58915W        W25324  43.802  32.113  13.155
58916W        W25325  31.726  11.315   0.015
58917W        W25326   8.243  14.532   0.277
58918W        W25327  37.293  42.527  12.091
58919W        W25328  44.999   5.192  13.009
58920W        W25329   5.877  35.598   2.764
58921W        W25330  31.456  32.123  12.550
58922W        W25331  17.376  10.332   5.090
58923W        W25332   8.173  18.789  12.563
58924W        W25333  33.090   8.790   2.231
58925W        W25334  38.147  23.438  10.818
58926W        W25335   8.547  13.668  13.458
58927W        W25336   6.082  21.642  14.370
58928W        W25337  32.971   7.778   0.031
58929W        W25338  10.464  39.552  13.757
58930W        W25339   1.589  43.451   1.486
58931W        W25340  18.117  20.304  10.663
58932W        W25341  15.435  20.060   0.961
58933W        W25342   5.384   2.204   0.201
58934W        W25343  22.778   2.458   2.753
58935W        W25344  41.533   2.416   1.163
58936W        W25345  18.188  28.430   1.798
58937W        W25346  35.979  24.646   4.682
58938W        W25347  10.305  23.097   3.573
58939W        W25348  19.354   2.856  13.159
58940W        W25349  19.185  41.416  10.820
58941W        W25350  42.301  42.990   1.519
58942W        W25351  40.424  32.487   2.328
58943W        W25352   2.280  13.603   2.114
58944W        W25353  43.591  18.471   2.180
58945W        W25354  34.672   1.364   3.293
58946W        W25355  20.030  24.393  11.529
58947W        W25356  29.626  12.100   9.979
58948W        W25357  16.495  41.386   4.298
58949W        W25358  43.008  22.637   1.211
58950W        W25359  24.627  14.255   3.591
58951W        W25360  16.124  21.737   2.664
58952W        W25361   3.473   5.733  10.480
58953W        W25362   0.992   1.852  13.510
58954W        W25363  22.277  27.873   0.834
58955W        W25364  12.281  15.663   1.019
58956W        W25365  34.987   2.647   0.377
58957W        W25366  18.626  14.261   1.183
58958W        W25367  40.921  25.890  11.043
58959W        W25368  37.156  41.890  10.715
58960W        W25369  21.646  13.922  11.540
58961W        W25370  25.150   1.818   0.047
58962W        W25371  42.488   6.348   3.266
58963W        W25372  37.505  22.432   4.819
58964W        W25373  44.967  22.659   4.808
58965W        W25374   7.199  24.111   1.378
58966W        W25375  24.884  14.829  11.018
58967W        W25376   7.749  29.565   4.187
58968W        W25377  18.866  16.570   0.753
58969W        W25378   9.377  21.523  14.379
58970W        W25379   4.941   0.476   4.108
58971W        W25380  26.538  30.160   0.472
58972W        W25381  25.261  29.374  11.133
58973W        W25382  27.484  33.033   4.570
58974W        W25383  32.003  15.798  13.012
58975W        W25384   8.070  43.442   4.357
58976W        W25385  23.234  26.454   1.685
58977W        W25386  43.933   9.961  12.547
58978W        W25387  11.074  27.015   4.623
58979W        W25388  30.017  37.778  10.709
58980W        W25389   9.802   7.677   4.810
58981W        W25390  40.502  41.882  14.932
58982W        W25391  23.293  15.232  11.559
58983W        W25392  33.211  44.006  10.668
58984W        W25393  26.460   9.842  13.402
58985W        W25394  41.508   3.701  14.850
58986W        W25395  12.377  28.991   2.690
58987W        W25396  43.572  24.324  13.904
58988W        W25397   9.870   9.147   0.465
58989W        W25398  36.372  11.650   0.435
58990W        W25399  20.647   5.158   1.420
58991W        W25400  35.995   2.482   3.393
58992W        W25401  22.738  21.987   1.405
58993W        W25402  25.411   9.829   4.042
58994W        W25403  16.091  37.587  12.628
58995W        W25404  32.565  31.963  13.742
58996W        W25405  25.616  20.815  13.447
58997W        W25406  35.898  11.067   0.550
58998W        W25407  35.008   5.423  13.975
58999W        W25408  41.515  35.995   4.686
59000W        W25409  30.149  25.510   3.622
59001W        W25410  10.054  11.737   1.365
59002W        W25411  24.474  21.022  11.014
59003W        W25412  25.008   4.725  14.911
59004W        W25413  32.077  12.022   5.136
59005W        W25414   1.974  14.217   0.496
59006W        W25415  40.318  13.752   1.855
59007W        W25416   1.674  22.320  11.693
59008W        W25417  24.910  21.024   1.255
59009W        W25418   3.890  42.545   0.782
59010W        W25419  36.171  14.671   1.012
59011W        W25420   7.419   2.755   0.581
59012W        W25421   9.674  20.014   4.158
59013W        W25422  20.270  34.964   3.255
59014W        W25423  18.184  39.239  13.483
59015W        W25424  44.865  41.845   4.080
59016W        W25425   7.511  16.331  10.678
59017W        W25426  12.917  40.452  11.496
59018W        W25427  27.027  24.644   1.667
59019W        W25428  22.719  27.207   2.775
59020W        W25429  28.474  44.797  12.046
59021W        W25430  41.384  41.934  13.439
59022W        W25431  25.730  43.387   1.687
59023W        W25432  17.410   4.611   1.745
59024W        W25433  35.915  37.473   3.149
59025W        W25434  11.630  26.512   4.139
59026W        W25435  30.948  12.945  14.734
59027W        W25436  31.873  27.521   2.449
59028W        W25437  23.338   7.311  11.459
59029W        W25438  19.949  29.368  11.063
59030W        W25439  16.937  40.017   0.937
59031W        W25440  37.035  20.393   1.324
59032W        W25441  43.884   7.159  10.725
59033W        W25442   5.339  28.733   0.393
59034W        W25443  17.891   0.739  13.124
59035W        W25444  28.010  35.302  14.525
59036W        W25445   3.592   6.783   0.470
59037W        W25446  14.903  15.276  12.817
59038W        W25447  38.911  12.782  12.024
59039W        W25448  39.963   1.428  12.513
59040W        W25449  37.242  16.151   3.508
59041W        W25450  12.405  29.889   2.918
59042W        W25451   5.457  12.545   3.200
59043W        W25452  13.263  36.527  12.676
59044W        W25453  29.151  41.185   3.245
59045W        W25454  37.860  28.360   1.373
59046W        W25455  34.353   8.876   0.745
59047W        W25456  28.513   3.419   3.979
59048W        W25457  41.733  34.201  11.831
59049W        W25458   7.685  10.557  14.964
59050W        W25459  33.057  13.991   2.354
59051W        W25460   5.352  34.650  14.298
59052W        W25461  15.683  18.160  11.120
59053W        W25462  42.220  26.488   2.794
59054W        W25463   6.874   8.134   3.041
59055W        W25464   9.158  19.035  10.992
59056W        W25465  39.395  43.036  12.501
59057W        W25466  32.270  26.182   1.914
59058W        W25467  25.933  18.287  13.955
59059W        W25468   0.261   9.838   1.272
59060W        W25469  27.602  44.919  11.275
59061W        W25470  25.416  32.096   1.323
59062W        W25471  29.859  29.671   3.696
59063W        W25472  15.433  31.227   0.867
59064W        W25473   7.696   6.668  13.941
59065W        W25474   2.833   0.273  14.281
59066W        W25475  22.743  12.293   1.646
59067W        W25476   9.117  27.855   3.055
59068W        W25477  19.450  25.306  13.084
59069W        W25478  19.305  26.778   0.193
59070W        W25479   0.260  13.607  14.916
59071W        W25480  32.894  31.907   0.946
59072W        W25481  35.018  26.901   4.636
59073W        W25482  34.636  35.922  14.342
59074W        W25483  36.852  21.007  12.117
59075W        W25484  14.330  12.353   2.781
59076W        W25485  38.294   9.160  12.070
59077W        W25486  38.581  22.640   3.791
59078W        W25487  44.564   9.447  11.510
59079W        W25488   0.781  15.575   1.856
59080W        W25489  31.601  15.538  12.749
59081W        W25490  12.681  27.905   3.111
59082W        W25491  14.592   9.376   3.916
59083W        W25492  20.602  42.056   3.536
59084W        W25493  39.027  11.716   0.813
59085W        W25494   9.225   5.847  12.005
59086W        W25495  33.630  40.980   1.833
59087W        W25496  13.758  15.066   3.143
59088W        W25497  23.336  17.495   4.462
59089W        W25498  40.765  39.299  12.891
59090W        W25499  11.311  22.597  13.573
59091W        W25500  13.537  13.702   0.301
59092W        W25501  22.566  23.685  12.110
59093W        W25502   6.691  16.180   0.533
59094W        W25503   7.884  13.343   4.910
59095W        W25504  44.054  14.781   5.077
59096W        W25505  23.572  41.676  12.609
59097W        W25506  12.693  39.345  12.907
59098W        W25507  33.604  41.750  13.960
59099W        W25508  42.571  12.098   2.668
59100W        W25509  39.396  17.413  14.984
59101W        W25510  29.104  14.597   3.826
59102W        W25511  13.826   8.664  14.874
59103W        W25512  27.034  35.527  11.745
59104W        W25513  25.020  27.803  11.514
59105W        W25514   6.100   4.009   4.286
59106W        W25515  31.921  34.488  12.581
59107W        W25516  20.243  20.460  12.655
59108W        W25517   1.016  14.578  11.541
59109W        W25518   3.321  16.654   2.489
59110W        W25519  34.017   8.429   0.405
59111W        W25520  32.611   5.809  10.714
59112W        W25521   3.862  19.022  11.131
59113W        W25522   5.611  15.521  12.514
59114W        W25523   2.227  11.819  11.178
59115W        W25524  13.084  12.181  13.510
59116W        W25525  28.039  35.242  13.373
59117W        W25526  43.767  39.019  10.690
59118W        W25527  26.524  33.523   4.157
59119W        W25528  33.438   0.303  10.739
59120W        W25529  38.906   8.080  13.274
59121W        W25530   6.183  23.106  13.013
59122W        W25531  30.439  20.238  11.474
59123W        W25532  28.654  21.813  10.002
59124W        W25533  13.004  24.429   1.933
59125W        W25534   6.357  14.343  10.707
59126W        W25535   1.400  27.544  11.231
59127W        W25536  31.537   0.442  12.189
59128W        W25537   2.978  15.080   2.693
59129W        W25538   7.155   0.851   1.672
59130W        W25539  23.013  30.035   4.849
59131W        W25540  29.273  17.583  14.819
59132W        W25541  29.508  36.925  10.459
59133W        W25542  13.840  31.057   4.759
59134W        W25543  31.059  39.541   4.194
59135W        W25544  42.188   8.673   1.040
59136W        W25545  26.315  12.198   3.808
59137W        W25546   5.832  37.584   3.656
59138W        W25547  19.562   8.943  12.242
59139W        W25548   0.154   8.641   3.221
59140W        W25549  25.191  14.658  14.701
59141W        W25550  33.317  41.380   4.172
59142W        W25551  19.817  27.906  14.330
59143W        W25552  13.488  24.182   1.916
59144W        W25553  42.760  40.548  11.054
59145W        W25554  15.061  25.209  13.792
59146W        W25555  24.399   1.357   1.164
59147W        W25556  44.729  25.110   4.431
59148W        W25557  20.676  20.064  13.427
59149W        W25558   8.617   0.461   1.734
59150W        W25559  38.330  32.596   2.910
59151W        W25560  23.611  31.666  12.539
59152W        W25561  40.838  39.464   3.323
59153W        W25562  41.750   5.228  12.078
59154W        W25563  29.466  33.812  12.827
59155W        W25564  27.510  26.081  13.116
59156W        W25565  27.836  29.959  13.088
59157W        W25566  27.047  19.578   1.819
59158W        W25567  44.684  13.378  14.221
59159W        W25568  30.493  33.494   3.447
59160W        W25569   4.401   6.570   0.864
59161W        W25570   6.752  14.163   1.757
59162W        W25571  23.499  26.924  12.473
59163W        W25572  44.311  15.465   4.532
59164W        W25573  36.511   0.912  14.285
59165W        W25574  13.666  43.546   3.557
59166W        W25575  18.510  34.166  14.447
59167W        W25576   7.209  42.405  10.664
59168W        W25577  38.064  21.622  11.725
59169W        W25578  44.029  31.608  11.896
59170W        W25579  16.249   3.280   2.653
59171W        W25580  15.370   8.268  12.038
59172W        W25581  19.707  11.422   1.665
59173W        W25582  20.228  39.930  12.390
59174W        W25583  39.965  38.314   3.649
59175W        W25584  20.380   1.763  11.139
59176W        W25585  20.105   9.658   2.351
59177W        W25586  25.028  16.207  14.824
59178W        W25587  42.383  42.245  14.812
59179W        W25588  42.839  28.111  14.364
59180W        W25589  32.150  34.504   1.999
59181W        W25590   3.747  42.820   2.777
59182W        W25591  15.090   5.185  14.993
59183W        W25592   8.243   7.917   0.473
59184W        W25593  31.853  30.037  14.976
59185W        W25594  44.031  17.370   3.220
59186W        W25595  28.677  14.110  10.834
59187W        W25596  13.500  25.059  12.068
59188W        W25597  12.326  21.763   1.943
59189W        W25598  37.095  14.068  14.808
59190W        W25599  21.635   9.798   3.625
59191W        W25600  14.294  24.518  12.515
59192W        W25601  42.958  30.306  13.913
59193W        W25602  31.945  11.649   3.635
59194W        W25603  11.216  19.320  13.709
59195W        W25604   2.911  15.827  12.516
59196W        W25605  11.842  37.734  13.497
59197W        W25606  42.288  24.213  11.139
59198W        W25607   8.723  16.858  11.948
59199W        W25608  14.803  34.547   4.453
59200W        W25609  40.677   7.083  14.786
59201W        W25610  42.008  33.610   2.795
59202W        W25611  28.390  12.433  12.538
59203W        W25612   1.455   0.125  11.142
59204W        W25613  24.560  38.032  10.698
59205W        W25614  42.101  22.577   3.590
59206W        W25615  41.670   0.966  11.700
59207W        W25616  32.437  39.024  12.017
59208W        W25617   1.911  30.917  14.498
59209W        W25618  42.028  11.118   0.472
59210W        W25619  33.269  33.144   3.034
59211W        W25620  13.857  38.341   0.874
59212W        W25621   4.922   2.873  14.715
59213W        W25622   5.337  38.878  10.965
59214W        W25623  10.353   8.768   4.932
59215W        W25624  31.967  44.998   2.821
59216W        W25625  13.192  22.264   4.518
59217W        W25626  19.540  42.841   3.106
59218W        W25627   4.228  24.120   0.399
59219W        W25628  42.931   6.079  12.120
59220W        W25629  37.509  20.749   2.277
59221W        W25630  23.007  34.683   2.134
59222W        W25631  21.008  11.309   2.409
59223W        W25632  38.701  11.339   3.556
59224W        W25633   5.242  20.408  10.743
59225W        W25634  29.369  24.041   3.344
59226W        W25635  26.613  44.023  11.849
59227W        W25636  34.641  14.295   2.286
59228W        W25637  25.301   8.777  12.479
59229W        W25638  23.148  13.451  11.481
59230W        W25639  43.269  20.659   4.719
59231W        W25640  44.731  19.721  11.553
59232W        W25641  27.717  32.863  12.079
59233W        W25642   2.398  12.124  12.490
59234W        W25643   3.151   7.645  13.917
59235W        W25644  37.697  21.549  13.372
59236W        W25645  41.059  22.267  11.545
59237W        W25646   2.810  29.622   2.008
59238W        W25647  29.163  27.824  11.315
59239W        W25648  31.942   4.394  11.620
59240W        W25649  32.545  40.263   0.676
59241W        W25650  41.477  44.757  13.527
59242W        W25651  18.294  10.863   2.417
59243W        W25652  26.537  33.498   0.206
59244W        W25653   3.279  18.819  11.235
59245W        W25654  29.077  23.530  12.657
59246W        W25655   8.994  15.387   3.161
59247W        W25656  26.937  43.258  11.522
59248W        W25657   6.547   0.103  12.969
59249W        W25658   9.433  12.733  12.675
59250W        W25659  40.454  26.643  11.158
59251W        W25660  38.474  23.254  12.098
59252W        W25661   5.658   0.151   2.743
59253W        W25662  20.596  35.666  14.883
59254W        W25663  41.757  23.575  13.756
59255W        W25664  15.589   7.352   0.992
59256W        W25665   5.311  37.010   1.657
59257W        W25666  21.295  27.641  10.315
59258W        W25667   7.238   7.737  14.437
59259W        W25668  41.076  36.597  10.748
59260W        W25669  29.975   7.669  14.107
59261W        W25670  12.771  21.874   2.290
59262W        W25671   0.205   5.841  13.286
59263W        W25672   0.464   9.540   4.251
59264W        W25673   7.406   4.208  13.532
59265W        W25674  23.625  43.386  13.674
59266W        W25675  41.246  38.245  13.489
59267W        W25676  29.140   2.557   0.784
59268W        W25677   6.907   2.774   4.159
59269W        W25678  38.125  33.505   4.584
59270W        W25679   7.412  15.210  12.859
59271W        W25680   0.940  15.603   0.925
59272W        W25681  41.349  27.053  14.362
59273W        W25682  39.513  32.912   1.815
59274W        W25683   2.445   5.477   2.831
59275W        W25684  20.204  11.551   0.895
59276W        W25685  38.071  21.742  12.697
59277W        W25686  18.245  15.065  13.840
59278W        W25687  27.176  39.859  11.134
59279W        W25688  20.343  27.966  14.367
59280W        W25689  10.238  26.030  14.447
59281W        W25690  29.964  39.517   4.478
59282W        W25691  42.822   3.271   3.669
59283W        W25692  13.226  33.903   9.776
59284W        W25693  11.780  36.954   1.919
59285W        W25694  43.389  25.089   1.387
59286W        W25695   2.077  35.232   2.206
59287W        W25696  17.918  22.734  13.946
59288W        W25697  39.596  39.546   0.312
59289W        W25698  19.908  35.496   0.508
59290W        W25699  26.447  32.059  13.849
59291W        W25700   3.340  32.849  10.438
59292W        W25701   7.849  12.743   3.687
59293W        W25702  39.067   1.472  10.762
59294W        W25703  22.037   5.207  12.561
59295W        W25704   6.514  35.607   0.433
59296W        W25705  43.613  35.654   4.558
59297W        W25706  43.770  44.370   3.487
59298W        W25707  41.341  28.496  11.437
59299W        W25708  21.946  19.723   3.991
59300W        W25709  40.801   0.970   2.726
59301W        W25710  39.328  33.120  14.281
59302W        W25711  42.469  18.242   3.158
59303W        W25712  28.408  24.279   3.654
59304W        W25713   2.792   6.635  12.130
59305W        W25714  35.436  23.582   4.181
59306W        W25715   6.245   6.366   1.771
59307W        W25716  23.098  31.706  12.597
59308W        W25717   3.192  43.331   3.269
59309W        W25718  35.343  35.755  13.040
59310W        W25719  42.181  18.180  14.913
59311W        W25720  43.710  30.030  14.451
59312W        W25721  42.911  34.149   3.695
59313W        W25722  38.279  14.614  13.353
59314W        W25723  26.229   5.650  12.983
59315W        W25724  37.400  39.450  13.541
59316W        W25725  28.124   0.686  11.768
59317W        W25726  26.451  10.047  12.520
59318W        W25727   0.180  23.701   1.761
59319W        W25728   5.341  32.363   1.342
59320W        W25729  13.048   9.257   1.312
59321W        W25730  19.250  29.511   4.060
59322W        W25731  12.728  30.151   1.226
59323W        W25732  35.566  24.040   0.977
59324W        W25733  40.933  22.510  11.998
59325W        W25734  24.070  40.495   4.983
59326W        W25735  35.934  11.558   0.717
59327W        W25736  27.475  23.125   3.664
59328W        W25737  36.348  20.041   2.727
59329W        W25738   8.188  23.576  14.694
59330W        W25739  42.091  41.787   3.674
59331W        W25740  31.869  13.521   0.738
59332W        W25741  31.734   0.885   9.796
59333W        W25742  43.769  43.853   3.318
59334W        W25743   8.358   3.726   1.700
59335W        W25744  25.089  11.547   4.942
59336W        W25745   3.237  25.109  11.155
59337W        W25746  30.541  38.576  12.925
59338W        W25747  17.096  29.344  13.943
59339W        W25748  25.341  43.881  11.285
59340W        W25749   6.734   1.805  13.804
59341W        W25750   9.144  10.725   3.722
59342W        W25751  15.162  38.687  12.006
59343W        W25752  23.936  31.494   4.820
59344W        W25753   9.310  18.080   4.047
59345W        W25754  12.859  20.224   1.888
59346W        W25755   5.628  17.534  14.529
59347W        W25756  29.598   3.356   3.704
59348W        W25757  23.739  35.485   2.845
59349W        W25758  41.890  19.844   2.946
59350W        W25759  38.810   6.726  12.601
59351W        W25760  44.974  21.681  10.769
59352W        W25761  15.567  43.013  13.479
59353W        W25762  41.351   9.290  12.009
59354W        W25763  17.362  33.710   2.131
59355W        W25764  30.610  17.099   1.683
59356W        W25765  15.354  28.750  11.192
59357W        W25766   9.895  34.830   4.130
59358W        W25767   1.993  19.602   4.668
59359W        W25768  32.606  29.581   4.602
59360W        W25769  41.439  40.741  12.455
59361W        W25770   2.419   1.335   0.893
59362W        W25771  29.894  26.156   3.211
59363W        W25772  23.999   4.318  10.689
59364W        W25773  15.122  41.753  10.680
59365W        W25774  14.338  20.955   1.224
59366W        W25775  22.028   0.203  12.457
59367W        W25776   8.082   1.290   2.601
59368W        W25777   6.409  20.183  11.195
59369W        W25778  28.203  38.180   0.108
59370W        W25779  27.385   0.730   1.259
59371W        W25780   9.672  17.780   0.527
59372W        W25781  38.135  14.692   3.284
59373W        W25782  41.935  29.954  11.652
59374W        W25783  37.984  26.985   3.059
59375W        W25784  20.382  39.087   4.222
59376W        W25785  30.170  14.646   4.128
59377W        W25786  14.267   9.735   2.762
59378W        W25787  39.885  31.148  11.394
59379W        W25788  11.095  40.939  14.010
59380W        W25789  15.189  26.420   3.581
59381W        W25790   1.949  27.617  11.161
59382W        W25791  34.866  13.837   2.362
59383W        W25792  40.992  29.879  10.974
59384W        W25793   6.453  10.889  11.258
59385W        W25794  23.925  29.108  14.443
59386W        W25795   5.334  19.489  11.173
59387W        W25796  27.648  14.178  13.322
59388W        W25797  34.702  18.547  12.058
59389W        W25798  35.831   7.182   1.679
59390W        W25799  29.661  28.686   0.293
59391W        W25800   1.918  10.622   4.162
59392W        W25801  23.693  13.265  13.233
59393W        W25802  40.079  26.566  10.785
59394W        W25803  24.415   6.809  10.970
59395W        W25804  26.119  41.150  10.833
59396W        W25805   6.409  29.167   4.862
59397W        W25806  11.743  20.784   1.220
59398W        W25807   2.687  27.922   3.576
59399W        W25808   3.707  43.062   4.277
59400W        W25809  22.471  39.821   1.828
59401W        W25810  28.548   9.006   1.912
59402W        W25811  15.871  25.459   2.266
59403W        W25812  14.325  20.445   5.246
59404W        W25813  23.655  30.434  13.819
59405W        W25814   9.721  30.104  13.449
59406W        W25815   6.614  33.462   1.934
59407W        W25816  33.509   8.572   0.375
59408W        W25817   0.152  37.356  14.318
59409W        W25818   4.827  30.007  11.561
59410W        W25819  36.128   0.400  12.672
59411W        W25820  42.297  25.546   4.328
59412W        W25821   7.854  16.364   1.690
59413W        W25822  39.978  23.981  14.724
59414W        W25823  28.953  33.792  14.229
59415W        W25824  24.060  38.479  13.883
59416W        W25825  24.085   8.550  13.357
59417W        W25826  30.182   7.635   2.873
59418W        W25827   7.369  44.930  13.883
59419W        W25828  22.711  33.894   4.129
59420W        W25829  11.107  12.869   2.859
59421W        W25830  22.220  28.675   1.634
59422W        W25831  33.941  23.776   4.138
59423W        W25832  42.524   5.923  14.852
59424W        W25833  24.029  10.774  11.612
59425W        W25834   7.237  15.360   0.722
59426W        W25835  31.056  28.634   4.621
59427W        W25836  16.644  39.386   0.332
59428W        W25837   2.393  21.983  14.866
59429W        W25838  31.029  39.578  13.550
59430W        W25839  38.620  40.089  12.237
59431W        W25840  32.369  27.629   2.404
59432W        W25841  30.635  43.280  14.103
59433W        W25842  18.749  41.490   0.334
59434W        W25843  35.885   8.083   0.185
59435W        W25844   4.338   5.392   1.528
59436W        W25845   3.041   4.377   0.002
59437W        W25846  37.689  24.587  14.083
59438W        W25847  27.094  29.073  13.047
59439W        W25848  39.305  24.631  11.400
59440W        W25849  28.819  31.206   1.243
59441W        W25850  14.671   7.513  13.133
59442W        W25851  15.262  27.399  12.602
59443W        W25852  26.011  34.905   0.016
59444W        W25853  25.104  36.105   2.362
59445W        W25854  12.766  26.506  11.417
59446W        W25855   7.126   9.240   4.850
59447W        W25856  17.224  39.012  12.616
59448W        W25857   2.428  35.203   2.593
59449W        W25858  25.105  42.299   4.198
59450W        W25859   7.951   1.229  11.975
59451W        W25860   6.748  33.650   4.554
59452W        W25861   6.888  32.653   9.742
59453W        W25862  25.700  24.391  11.045
59454W        W25863  41.518   9.685  14.816
59455W        W25864   3.469  12.170  12.422
59456W        W25865  39.594  19.631   4.988
59457W        W25866  22.761  10.747  14.253
59458W        W25867  43.364  44.175   1.881
59459W        W25868  34.495  23.471  13.444
59460W        W25869  36.178  43.045   2.667
59461W        W25870  25.492  10.927  14.170
59462W        W25871  14.351  26.288   3.748
59463W        W25872   1.857   0.669  11.529
59464W        W25873  36.139  21.636  12.037
59465W        W25874   6.370  25.865  11.585
59466W        W25875  26.560  36.177  12.885
59467W        W25876  28.885  10.717  14.500
59468W        W25877  40.200   9.727   1.028
59469W        W25878   0.410  29.173   0.339
59470W        W25879  35.224  34.865   4.470
59471W        W25880  24.501   5.156  11.461
59472W        W25881  13.286   6.151  10.706
59473W        W25882   1.003   1.181  14.049
59474W        W25883  25.674  24.782   4.059
59475W        W25884  13.952   1.777   4.561
59476W        W25885   6.080  13.256   1.722
59477W        W25886  19.323   4.155   2.289
59478W        W25887  20.108  12.589   3.163
59479W        W25888  16.125  34.956  11.965
59480W        W25889  44.438  18.085   0.252
59481W        W25890  13.897  40.709  12.211
59482W        W25891   7.638  11.079  14.913
59483W        W25892   9.910  35.106  14.433
59484W        W25893  27.688  24.798   4.721
59485W        W25894  34.360  38.916  11.222
59486W        W25895  11.191  21.243   3.296
59487W        W25896  21.052   1.877   4.643
59488W        W25897  13.328  35.818   2.323
59489W        W25898   2.911   5.388   3.586
59490W        W25899  37.211  25.545   2.613
59491W        W25900  11.584   7.606   4.630
59492W        W25901   0.738  43.557   4.102
59493W        W25902   7.963  38.803   3.991
59494W        W25903  40.859  41.321   0.016
59495W        W25904  36.855   1.597  12.132
59496W        W25905  12.444  33.380  12.948
59497W        W25906  17.304   3.506  11.429
59498W        W25907  37.533  22.964   4.685
59499W        W25908  14.160  42.051  11.544
59500W        W25909  23.498   2.772   4.436
59501W        W25910  31.817  15.474   4.095
59502W        W25911  42.767  27.584   1.265
59503W        W25912  16.130   5.189   2.310
59504W        W25913  24.854  44.814   4.532
59505W        W25914   6.343   6.930   0.161
59506W        W25915  23.486  23.696   2.735
59507W        W25916  29.301  29.149  11.933
59508W        W25917  24.684  34.977   1.478
59509W        W25918  23.249  30.376  13.518
59510W        W25919  10.199  14.246  13.643
59511W        W25920  22.514  13.670   4.629
59512W        W25921   1.463  44.816  10.730
59513W        W25922   7.697  25.055  13.002
59514W        W25923  10.818  27.239  13.314
59515W        W25924   7.619  14.575   0.760
59516W        W25925  44.928   7.502   0.324
59517W        W25926  43.756  29.501   0.854
59518W        W25927  16.197  33.003   1.658
59519W        W25928  18.582  30.204   3.691
59520W        W25929  23.725  11.075  12.889
59521W        W25930  16.070  31.627  13.050
59522W        W25931  36.346   8.468   4.219
59523W        W25932  23.221  19.509  11.015
59524W        W25933  12.207  11.783   0.429
59525W        W25934  39.192   3.988   3.958
59526W        W25935   1.607   9.338  11.511
59527W        W25936  29.931  24.413   0.935
59528W        W25937  26.153  29.495   2.626
59529W        W25938  29.074   9.742   4.051
59530W        W25939   6.824   0.868  10.734
59531W        W25940  44.054   6.502   4.110
59532W        W25941  42.739  10.610   4.028
59533W        W25942   3.816  20.471  12.230
59534W        W25943  14.788  19.785  11.076
59535W        W25944  38.992  19.618  11.416
59536W        W25945  26.037   8.735   1.230
59537W        W25946  24.487  38.806  12.658
59538W        W25947  22.247  26.993   2.673
59539W        W25948  40.267   7.262   2.251
59540W        W25949  42.867  16.808   1.214
59541W        W25950  30.989  13.318  14.369
59542W        W25951  35.523  11.705   1.724
59543W        W25952   0.799  32.900   2.324
59544W        W25953  13.763  23.709   0.309
59545W        W25954  21.116  22.630  12.171
59546W        W25955  23.236   8.204   4.532
59547W        W25956   4.346   1.766   4.049
59548W        W25957   1.761  28.736   1.278
59549W        W25958  22.787  36.814   2.676
59550W        W25959   3.313   3.822  11.010
59551W        W25960  15.812  44.236  13.927
59552W        W25961  33.802  10.339   3.143
59553W        W25962   2.923  40.737   2.460
59554W        W25963  39.546  39.632   4.366
59555W        W25964   2.888  39.560  13.468
59556W        W25965   8.073  18.725   1.717
59557W        W25966   1.290   4.462  10.700
59558W        W25967  42.128  20.053   4.067
59559W        W25968  33.336   9.134  14.475
59560W        W25969  37.734   5.523  12.086
59561W        W25970   0.058   2.012  11.485
59562W        W25971  35.638  30.438  11.960
59563W        W25972   8.395   5.139   2.394
59564W        W25973   2.925  13.672  11.457
59565W        W25974  43.208  33.636   0.954
59566W        W25975  22.444   4.841   4.054
59567W        W25976  17.583  15.957  14.407
59568W        W25977  31.829  15.166   0.472
59569W        W25978  13.701  11.657   1.150
59570W        W25979  10.721  25.174   4.111
59571W        W25980  17.282  24.901  13.366
59572W        W25981  16.345  11.581   4.147
59573W        W25982  33.916  28.838  10.907
59574W        W25983  41.514  25.969   1.876
59575W        W25984  16.586  25.565  13.526
59576W        W25985   6.468  19.655  12.551
59577W        W25986  10.782  30.952   1.802
59578W        W25987  10.252   8.064  12.462
59579W        W25988  32.546   6.204  13.901
59580W        W25989  36.093  36.280   2.009
59581W        W25990  17.598   0.542   0.405
59582W        W25991   5.471  40.754   1.290
59583W        W25992  20.628  42.541  10.617
59584W        W25993  34.157  43.719   1.208
59585W        W25994  23.919  20.690   4.269
59586W        W25995  28.545  24.675  14.808
59587W        W25996  20.319   8.272  14.309
59588W        W25997  16.325  40.505  14.779
59589W        W25998  15.981   5.005   0.810
59590W        W25999   1.460  31.788  11.167
59591W        W26000  13.789  20.989   1.276
59592W        W26001   7.072  25.914  12.065
59593W        W26002  35.804   8.637   1.402
59594W        W26003  15.541  20.106  11.552
59595W        W26004  15.761  21.847   9.903
59596W        W26005  14.860   0.900   3.161
59597W        W26006  26.760   7.736  12.461
59598W        W26007  42.329  19.537  11.521
59599W        W26008  37.540  39.388   1.648
59600W        W26009  38.107  18.707  12.683
59601W        W26010   8.608  29.929   4.696
59602W        W26011  40.938  20.212   1.552
59603W        W26012  19.819  31.565  12.462
59604W        W26013  41.978  25.091  12.771
59605W        W26014   8.244   5.948  12.464
59606W        W26015  25.983  43.721  13.970
59607W        W26016   5.198  19.184   2.951
59608W        W26017  35.913   4.232  13.064
59609W        W26018  32.350  15.201   0.464
59610W        W26019   8.061  17.290  11.515
59611W        W26020  33.394   1.580   5.004
59612W        W26021   6.157  38.835  14.787
59613W        W26022   8.109  37.400   5.100
59614W        W26023  25.408  30.848  14.923
59615W        W26024  16.364  18.463   3.100
59616W        W26025  43.232   0.295  14.644
59617W        W26026  16.801  42.504   1.986
59618W        W26027  21.478  24.327  14.966
59619W        W26028  18.803  32.654  12.069
59620W        W26029   0.365  38.983   2.271
59621W        W26030  15.536  37.447   2.296
59622W        W26031  36.439  32.104   3.153
59623W        W26032   2.730  34.942  11.549
59624W        W26033   8.216  43.408   4.884
59625W        W26034  29.720  25.096  11.886
59626W        W26035  37.264  39.843   4.001
59627W        W26036  13.155  37.010  12.503
59628W        W26037  18.296  40.093   4.318
59629W        W26038  37.121  21.039   4.587
59630W        W26039  39.820  35.691   2.834
59631W        W26040   3.720   2.662   1.335
59632W        W26041  37.396  37.134   4.211
59633W        W26042  12.109   4.613   3.155
59634W        W26043   8.476  21.707  14.462
59635W        W26044   6.711   3.675  14.047
59636W        W26045   0.973  34.924  14.318
59637W        W26046  10.522  30.346   5.677
59638W        W26047   1.910  12.962  14.414
59639W        W26048  31.653   5.249   3.726
59640W        W26049  14.435   1.244   9.879
59641W        W26050  44.372  32.832  12.160
59642W        W26051   1.949  42.952   0.006
59643W        W26052  38.353  17.784   3.259
59644W        W26053  43.961   5.108  13.110
59645W        W26054   2.638  23.239  13.113
59646W        W26055  17.472  40.088  12.206
59647W        W26056   2.247  43.955   2.486
59648W        W26057  23.256  23.688  11.558
59649W        W26058  39.565  26.581   2.249
59650W        W26059   1.258  31.681  14.389
59651W        W26060  22.466  39.964   0.771
59652W        W26061  14.816  43.577   2.645
59653W        W26062  33.503  29.282  12.057
59654W        W26063   1.518  15.759   1.618
59655W        W26064  11.760  36.594   3.347
59656W        W26065  27.684  10.461   2.237
59657W        W26066  42.461  18.791  12.074
59658W        W26067  12.555  21.991   4.996
59659W        W26068  23.141  22.075  11.696
59660W        W26069  17.310  15.237  11.187
59661W        W26070  25.017  44.961   1.805
59662W        W26071  24.027  22.528  12.569
59663W        W26072  31.656   8.886  12.032
59664W        W26073   6.125  33.048   2.778
59665W        W26074   8.769  40.112  13.450
59666W        W26075   4.270  12.811  13.080
59667W        W26076   9.772  35.168   4.487
59668W        W26077  19.021  22.082   2.169
59669W        W26078  19.232  35.618  13.854
59670W        W26079  11.747  37.341  10.678
59671W        W26080   9.709  20.605   0.289
59672W        W26081  32.039   0.277  10.210
59673W        W26082   9.349  21.687  10.807
59674W        W26083  10.671  35.279   3.297
59675W        W26084   1.757  33.229  12.903
59676W        W26085  26.482  38.225   4.026
59677W        W26086  20.588   3.425   2.172
59678W        W26087  21.756  23.601   0.233
59679W        W26088   5.854   4.830   0.758
59680W        W26089  17.531  31.103   1.428
59681W        W26090  40.324   9.605   4.596
59682W        W26091  24.987  34.540   4.168
59683W        W26092  35.768  37.637   3.632
59684W        W26093  32.155  26.023   3.744
59685W        W26094  26.533  33.590   2.707
59686W        W26095  23.952  35.846   1.873
59687W        W26096   0.976  19.088   2.166
59688W        W26097  16.121   2.540  13.174
59689W        W26098  11.413  15.184  12.671
59690W        W26099  19.117  43.446  12.679
59691W        W26100  40.324  31.912   2.394
59692W        W26101  30.192   6.063  12.309
59693W        W26102   0.574   5.568   3.114
59694W        W26103   7.162  23.603   0.423
59695W        W26104   6.664  13.784  11.211
59696W        W26105   2.759  23.730  14.780
59697W        W26106   7.103  32.606   4.248
59698W        W26107  40.359   1.772   0.456
59699W        W26108   6.947  21.163  13.148
59700W        W26109  14.902  10.359   3.550
59701W        W26110  36.299  34.433   1.339
59702W        W26111   7.790  27.704  13.599
59703W        W26112  36.378  29.590  11.990
59704W        W26113   4.365   0.763   2.306
59705W        W26114   3.399  24.267   9.755
59706W        W26115  14.762   7.374   0.486
59707W        W26116   7.182  37.922  13.179
59708W        W26117  13.703  32.163  14.009
59709W        W26118  36.927  13.303   0.268
59710W        W26119  40.410  41.285   3.197
59711W        W26120  24.587  18.367  13.294
59712W        W26121   2.915   5.085  14.378
59713W        W26122  18.168  18.177  11.700
59714W        W26123  29.574  13.711   1.647
59715W        W26124  17.191  35.648  13.320
59716W        W26125  40.703  13.812  14.470
59717W        W26126  10.872  26.932  11.197
59718W        W26127  16.253  23.150  12.374
59719W        W26128  28.034   5.117   0.984
59720W        W26129  33.506  44.882   2.940
59721W        W26130  22.734  20.776   2.886
59722W        W26131  31.384  36.841   3.725
59723W        W26132  16.244   8.072   2.045
59724W        W26133  31.680   7.738  14.923
59725W        W26134  25.098  15.135   3.386
59726W        W26135  34.135  39.425   0.494
59727W        W26136  18.266  23.478  10.776
59728W        W26137  30.885   9.961   3.975
59729W        W26138   6.292   4.944  11.891
59730W        W26139  14.351  16.852  10.559
59731W        W26140  25.592   9.387   3.762
59732W        W26141  12.392  15.438   4.279
59733W        W26142   2.026  22.739  14.933
59734W        W26143  42.861  18.071   0.883
59735W        W26144  42.285  32.332   3.007
59736W        W26145  10.764  29.865   3.704
59737W        W26146  23.264  15.199  10.652
59738W        W26147   1.869  15.485  12.589
59739W        W26148   2.169  27.764   3.408
59740W        W26149  18.684  31.119  14.214
59741W        W26150  30.957   5.178  13.504
59742W        W26151  36.706   3.141   2.629
59743W        W26152   6.351  12.047   2.954
59744W        W26153  10.195  35.654   5.054
59745W        W26154  41.332   8.942   5.392
59746W        W26155   0.315  43.540   3.039
59747W        W26156  34.097   6.818   2.642
59748W        W26157  36.478  43.941   1.634
59749W        W26158  14.702  39.464   1.199
59750W        W26159  12.378  17.249  12.861
59751W        W26160  18.778  38.953  14.844
59752W        W26161  10.161  12.627   0.281
59753W        W26162  14.590   5.730   1.649
59754W        W26163  27.660  25.706   3.742
59755W        W26164  36.859   2.409  12.053
59756W        W26165  27.628  13.652  14.007
59757W        W26166  35.840  32.196  14.771
59758W        W26167  14.148   0.057   0.792
59759W        W26168  37.656  40.327  13.509
59760W        W26169  44.195  27.053  11.876
59761W        W26170  19.570  15.626  14.126
59762W        W26171  23.121  15.818   3.390
59763W        W26172  39.367  28.149   0.455
59764W        W26173  44.890  39.919   1.201
59765W        W26174   8.802  17.522   3.763
59766W        W26175  26.532  22.013   0.245
59767W        W26176  23.192  13.271   0.085
59768W        W26177  37.815  42.714  11.671
59769W        W26178  43.512   8.191   9.944
59770W        W26179  30.000  38.221   1.548
59771W        W26180   5.646   5.433  12.562
59772W        W26181  36.349  33.624   1.915
59773W        W26182   4.293   7.308  10.748
59774W        W26183  34.904  41.111  13.851
59775W        W26184  36.576  12.584  14.440
59776W        W26185  43.914   8.731  13.903
59777W        W26186  33.432   4.926  14.994
59778W        W26187  41.719   1.809   2.422
59779W        W26188  14.840  30.109   2.876
59780W        W26189  34.575  27.051  12.078
59781W        W26190  18.582  21.476  12.234
59782W        W26191  36.598  42.332  10.561
59783W        W26192   0.440  23.694   1.317
59784W        W26193  11.322  10.366  12.475
59785W        W26194   6.712  40.769  13.924
59786W        W26195  34.978   3.032  12.556
59787W        W26196  29.630  39.925   4.378
59788W        W26197  42.109   8.314  12.491
59789W        W26198  33.057  40.638  11.203
59790W        W26199  36.017  29.606  14.357
59791W        W26200   4.036  30.179  12.365
59792W        W26201  40.969  28.190  11.656
59793W        W26202  34.510  20.663   3.797
59794W        W26203   8.699   3.311  11.541
59795W        W26204  27.968  10.787   0.924
59796W        W26205  10.673  13.554  13.342
59797W        W26206  40.726  16.576   4.256
59798W        W26207  31.646  33.886  13.349
59799W        W26208  26.658  28.995   3.105
59800W        W26209   6.691  23.761  14.273
59801W        W26210  34.588  32.686   0.100
59802W        W26211  34.014  26.760  13.208
59803W        W26212  20.534   5.789  11.407
59804W        W26213  37.548   3.269  11.468
59805W        W26214   6.314  41.977  11.902
59806W        W26215  12.882   4.850  10.177
59807W        W26216  25.327  13.537  11.163
59808W        W26217  35.540  27.198  11.163
59809W        W26218  10.102   7.743  12.026
59810W        W26219  38.516  28.131   2.518
59811W        W26220   4.603  40.391   3.226
59812W        W26221  30.664  42.872  11.996
59813W        W26222  42.996  32.376  14.016
59814W        W26223  26.084  17.167   0.894
59815W        W26224   9.471  37.298  14.049
59816W        W26225  22.178  14.818  11.145
59817W        W26226  11.738  27.996  12.603
59818W        W26227  15.986  22.394  14.796
59819W        W26228  24.742  41.075   1.674
59820W        W26229  36.827  25.570  13.465
59821W        W26230   5.109  25.530  10.215
59822W        W26231  17.864   2.317  13.470
59823W        W26232  12.677  17.831  11.232
59824W        W26233  11.235   0.393  11.326
59825W        W26234  32.065  19.938   5.378
59826W        W26235  15.127  10.732   2.724
59827W        W26236  31.188  32.551   3.176
59828W        W26237  35.618   8.458  14.950
59829W        W26238  32.568  17.488   4.822
59830W        W26239  23.224  35.846  12.453
59831W        W26240  20.448  29.963   2.262
59832W        W26241  32.739  29.486  12.836
59833W        W26242  33.080  11.415  11.985
59834W        W26243  40.843  34.538  12.468
59835W        W26244  23.047  40.963   2.157
59836W        W26245  10.642   1.548   0.819
59837W        W26246  21.237  18.797  12.206
59838W        W26247  39.300  10.743   4.463
59839W        W26248  22.838  13.687  14.456
59840W        W26249  38.551  10.100  13.561
59841W        W26250  22.560   3.698   0.871
59842W        W26251   1.025   1.056  10.551
59843W        W26252  24.669  19.733   0.818
59844W        W26253  20.371  40.910  11.136
59845W        W26254  13.327  21.690   1.024
59846W        W26255   4.394  42.537  14.029
59847W        W26256  34.628  25.056   3.455
59848W        W26257   0.297  13.151   4.364
59849W        W26258  26.183  21.663  12.647
59850W        W26259  23.249  41.079  12.094
59851W        W26260  15.279  42.763  13.822
59852W        W26261  10.486  32.706  14.614
59853W        W26262  38.319   1.363  13.922
59854W        W26263  41.040   9.284  13.755
59855W        W26264   9.596  43.396   4.611
59856W        W26265  41.902   2.925  14.931
59857W        W26266  20.991  15.642  14.778
59858W        W26267  33.069  22.040  14.749
59859W        W26268  37.295  26.024  12.979
59860W        W26269   0.120   7.012  12.821
59861W        W26270   8.883  15.365  11.130
59862W        W26271  38.166  14.191  12.369
59863W        W26272  21.066  13.505  14.915
59864W        W26273  19.730  36.849  11.140
59865W        W26274  24.560   7.249  12.289
59866W        W26275  26.044   1.381   2.393
59867W        W26276   4.177  16.807  14.422
59868W        W26277  34.512  15.639   2.155
59869W        W26278  26.942  24.269  12.030
59870W        W26279  11.282  17.658  10.915
59871W        W26280  15.209  37.983  10.766
59872W        W26281  29.191  22.630   1.413
59873W        W26282   4.003  26.658  14.515
59874W        W26283  41.132   3.428   1.629
59875W        W26284  25.223  24.036   0.318
59876W        W26285  32.365   6.492   1.223
59877W        W26286  34.020  10.222   0.856
59878W        W26287  40.716  11.953   4.964
59879W        W26288  27.731  20.237   2.779
59880W        W26289   5.871  44.017  11.840
59881W        W26290  32.242  41.710   1.827
59882W        W26291   4.930   0.183   0.483
59883W        W26292  41.331  34.190   2.349
59884W        W26293   7.133   3.863  12.080
59885W        W26294  15.952  19.674   5.028
59886W        W26295   4.148   6.534  14.551
59887W        W26296  10.834  30.008   1.698
59888W        W26297  43.751  34.463  12.906
59889W        W26298  20.079  10.771  14.262
59890W        W26299  36.375  16.655  14.118
59891W        W26300  34.187   3.883   4.955
59892W        W26301  31.829   1.334  14.349
59893W        W26302  23.537   8.283   0.527
59894W        W26303  22.923  21.573  11.051
59895W        W26304  12.179  35.277   3.233
59896W        W26305  42.192  14.434   0.953
59897W        W26306   7.782  23.436  12.035
59898W        W26307  30.139  29.886  11.506
59899W        W26308  32.529  36.305  12.084
59900W        W26309  24.750  39.020   0.313
59901W        W26310   5.379   6.479   0.239
59902W        W26311  24.483  37.946   2.227
59903W        W26312   9.446  40.000  13.051
59904W        W26313  15.149  22.711  13.631
59905W        W26314  44.793  28.247  13.490
59906W        W26315  16.725  34.398  12.910
59907W        W26316  13.255  42.728   2.330
59908W        W26317  32.566  12.228  11.184
59909W        W26318  12.828  12.417  11.178
59910W        W26319  33.576  42.990  12.621
59911W        W26320  25.035   8.325   0.627
59912W        W26321  27.716   7.773   5.408
59913W        W26322  12.720  16.651   2.444
59914W        W26323  31.586  12.258  12.661
59915W        W26324  12.850  36.956  13.805
59916W        W26325  28.992  15.859  11.824
59917W        W26326  29.469  20.510   3.121
59918W        W26327   8.292  19.700  13.073
59919W        W26328  17.125   0.965   2.577
59920W        W26329  29.416  39.148  10.031
59921W        W26330  31.552  21.269  12.606
59922W        W26331  39.097   0.900  14.499
59923W        W26332  29.084  28.116  12.975
59924W        W26333   7.370  44.031   4.495
59925W        W26334  43.939  39.549  10.648
59926W        W26335  15.706  42.930   3.145
59927W        W26336  19.079  43.068  10.631
59928W        W26337  40.499   0.995   4.579
59929W        W26338  11.155  20.943   4.285
59930W        W26339  11.615  21.297  13.075
59931W        W26340  10.330  30.399   1.393
59932W        W26341  35.562   6.771  14.471
59933W        W26342   2.563   5.648  10.427
59934W        W26343  16.951  16.600   4.144
59935W        W26344   7.368  25.800  13.044
59936W        W26345  19.579   8.999   3.202
59937W        W26346   5.953  29.511   3.594
59938W        W26347   0.733  41.376   1.718
59939W        W26348   0.384  34.399   0.879
59940W        W26349  30.593  26.653   2.464
59941W        W26350  36.818   1.842   4.581
59942W        W26351  42.502  14.536   0.530
59943W        W26352   3.383  18.206   1.725
59944W        W26353  30.455   4.022  13.153
59945W        W26354  40.601  24.132   3.923
59946W        W26355  14.295  13.358   0.494
59947W        W26356   5.129  15.806   0.849
59948W        W26357  42.729   5.205   0.894
59949W        W26358   5.676  36.898   2.452
59950W        W26359  17.071   1.868   4.268
59951W        W26360   4.715  18.055  14.490
59952W        W26361   7.287   5.902   2.597
59953W        W26362  26.547  31.597  11.657
59954W        W26363   9.855  21.023  13.048
59955W        W26364   0.338  17.726   1.142
59956W        W26365  15.210  23.700  10.375
59957W        W26366   1.284  28.726  11.525
59958W        W26367  44.488  34.425  11.097
59959W        W26368  44.264   4.807   3.177
59960W        W26369  39.534  16.275  11.529
59961W        W26370  24.249  29.586   3.720
59962W        W26371  13.437   3.995   1.861
59963W        W26372  31.922  30.401  14.298
59964W        W26373  40.423   2.386   4.117
59965W        W26374  11.817  21.689   0.736
59966W        W26375  31.010  41.570   4.207
59967W        W26376  11.665   4.781   4.958
59968W        W26377  44.933  19.838  14.335
59969W        W26378   7.946  27.053  14.115
59970W        W26379  36.622  38.850   3.501
59971W        W26380  22.789  17.160   2.670
59972W        W26381   9.917  18.715  10.772
59973W        W26382  40.015  29.349   0.405
59974W        W26383   9.403  29.831   0.868
59975W        W26384  28.201  41.537  13.830
59976W        W26385  20.744  20.258   1.697
59977W        W26386   7.150  33.323  14.231
59978W        W26387  37.549  43.037   1.255
59979W        W26388   1.097   8.446  11.518
59980W        W26389  24.739  29.589  11.744
59981W        W26390   4.483  16.274   2.403
59982W        W26391  30.890   6.242  11.012
59983W        W26392  25.829  37.334   1.462
59984W        W26393  15.064  31.583  11.978
59985W        W26394  29.643  23.615   0.366
59986W        W26395  35.574  26.167  12.561
59987W        W26396  13.595  24.694   1.833
59988W        W26397   2.014  21.605   3.500
59989W        W26398  16.250  10.211  12.042
59990W        W26399  29.702  25.218   2.911
59991W        W26400  40.329   1.919  10.525
59992W        W26401  21.187   8.320   2.625
59993W        W26402  44.602   8.244  10.859
59994W        W26403  44.496  42.956  14.622
59995W        W26404  23.051  37.310  15.000
59996W        W26405  15.389   2.232   4.608
59997W        W26406  33.628  39.293  11.956
59998W        W26407   3.251  10.591   1.885
59999W        W26408  38.053  42.382  12.563
60000W        W26409  12.078  38.063   3.168
60001W        W26410  29.717   0.752   0.874
60002W        W26411  10.894  10.634  11.511
60003W        W26412  24.616  17.497   2.791
60004W        W26413  19.724  19.766  11.153
60005W        W26414  15.692  18.236  13.069
60006W        W26415  22.162  18.728   4.137
60007W        W26416  37.103   0.219   4.509
60008W        W26417  26.261  19.451  11.985
60009W        W26418  18.361  12.734  11.011
60010W        W26419   2.115   7.293  14.521
60011W        W26420  15.165  43.755  12.747
60012W        W26421   9.823  13.403  14.420
60013W        W26422  18.060  43.410   0.811
60014W        W26423   6.212   3.501  11.907
60015W        W26424  13.210  38.444   2.652
60016W        W26425  28.486  41.981   0.010
60017W        W26426  16.936  27.917  14.488
60018W        W26427  11.323   7.851  14.924
60019W        W26428  41.882  14.795  10.722
60020W        W26429  20.228  14.400   2.454
60021W        W26430  29.608  34.593   2.279
60022W        W26431  42.675  13.174  11.433
60023W        W26432   3.350   0.826   2.112
60024W        W26433  18.600  30.947  10.688
60025W        W26434  18.894  35.996  13.894
60026W        W26435   9.884   5.882   2.866
60027W        W26436   7.655  29.014  11.916
60028W        W26437  37.010  38.856   1.943
60029W        W26438  44.549   9.284   2.804
60030W        W26439   9.637   9.263  11.503
60031W        W26440  12.663  44.846   3.708
60032W        W26441  13.624   3.561   2.316
60033W        W26442  41.951  44.884  13.357
60034W        W26443   3.864  25.668   3.201
60035W        W26444  19.387  31.053  10.903
60036W        W26445  11.249   3.713  13.379
60037W        W26446  29.137   2.729  11.205
60038W        W26447  39.489  42.391   4.242
60039W        W26448  23.048   6.883  11.402
60040W        W26449  42.023  44.561   1.457
60041W        W26450  20.344  10.181  14.946
60042W        W26451  28.987  38.297  13.027
60043W        W26452  20.014  34.870  14.527
60044W        W26453   4.918  16.128  14.317
60045W        W26454  43.501  18.572   0.380
60046W        W26455  25.795  18.821  10.972
60047W        W26456   9.761  18.772   3.696
60048W        W26457  31.668  39.582   3.304
60049W        W26458   8.767  20.974   3.715
60050W        W26459  19.547   9.816   0.842
60051W        W26460  12.637  12.615  14.275
60052W        W26461  34.380  39.051   2.810
60053W        W26462  19.719  19.263  11.074
60054W        W26463  30.626  43.014   2.452
60055W        W26464  21.786  38.782  13.139
60056W        W26465  27.298   0.013  12.081
60057W        W26466  27.555  28.627   2.844
60058W        W26467  38.401  18.267   0.785
60059W        W26468  21.594  33.889  13.858
60060W        W26469   4.733  39.159  12.650
60061W        W26470  15.672  24.787   4.092
60062W        W26471  26.329  30.079   0.947
60063W        W26472  32.226  31.065   4.634
60064W        W26473  36.618  14.135  12.105
60065W        W26474  42.996  25.061   3.461
60066W        W26475  44.212  13.966   4.766
60067W        W26476  32.353  29.818  13.997
60068W        W26477  41.629  36.989   4.042
60069W        W26478  18.754  33.489   0.320
60070W        W26479  29.163  40.647   3.162
60071W        W26480  11.246   8.611   2.337
60072W        W26481  40.976   5.133  12.888
60073W        W26482  29.123  15.394   1.764
60074W        W26483  25.919  14.542  11.103
60075W        W26484   9.905   6.252  14.364
60076W        W26485   5.633  37.852   2.334
60077W        W26486  44.420  32.747   1.745
60078W        W26487   5.754  33.664   3.700
60079W        W26488   2.233  11.220  14.082
60080W        W26489  33.376  42.011   4.501
60081W        W26490  14.602  31.820  14.869
60082W        W26491  30.622  15.249   1.716
60083W        W26492  37.973  31.989   4.564
60084W        W26493  35.875   9.648  11.154
60085W        W26494  18.157  40.559   0.846
60086W        W26495  28.195  27.434   0.263
60087W        W26496  34.869  37.633  14.025
60088W        W26497   6.927  28.160   2.755
60089W        W26498  44.762   5.263   1.796
60090W        W26499  15.015  38.494   4.031
60091W        W26500  32.131  36.949  13.954
60092W        W26501  15.801  33.146  12.404
60093W        W26502   4.583  26.799   3.275
60094W        W26503   3.359  28.219   2.332
60095W        W26504  28.585  33.991   0.168
60096W        W26505  42.015   6.337  11.757
60097W        W26506  33.586   7.773   2.418
60098W        W26507   7.275  32.556  12.572
60099W        W26508  12.039   4.811   1.416
60100W        W26509  36.586   3.799   4.452
60101W        W26510  25.657  35.979  14.290
60102W        W26511  22.538   2.693   3.186
60103W        W26512   3.721   0.342  14.766
60104W        W26513  13.868   7.553   2.748
60105W        W26514  18.828  37.623   0.274
60106W        W26515  40.732  44.894  11.610
60107W        W26516  40.021  34.849  11.090
60108W        W26517  44.270  10.742  11.621
60109W        W26518  39.779  31.190   2.198
60110W        W26519  44.490  39.263   0.381
60111W        W26520  26.677  15.594  12.589
60112W        W26521  30.424  29.624   3.983
60113W        W26522  10.208  22.094  13.597
60114W        W26523  27.593  25.937  10.710
60115W        W26524  18.613  18.257  11.445
60116W        W26525  38.475  31.264   4.533
60117W        W26526   4.029  26.890  13.014
60118W        W26527  31.866  25.147   0.341
60119W        W26528   9.223  10.388   2.751
60120W        W26529  40.088  43.939   1.295
60121W        W26530  40.966  32.810   0.371
60122W        W26531  18.352  38.020  10.740
60123W        W26532  18.736  28.510   0.452
60124W        W26533  12.186   8.312  13.553
60125W        W26534   9.908   6.943  11.484
60126W        W26535  13.082  18.776  12.580
60127W        W26536  33.841  24.001  11.580
60128W        W26537  27.736  13.713  13.101
60129W        W26538  16.209   0.416   3.218
60130W        W26539  33.164  27.151   0.736
60131W        W26540  18.313  30.604  13.809
60132W        W26541  34.894  31.302  10.815
60133W        W26542  17.209   7.398   0.197
60134W        W26543  15.287  38.833  13.947
60135W        W26544   3.223  37.821   3.257
60136W        W26545   0.508  41.321   4.831
60137W        W26546  19.992  36.701  13.458
60138W        W26547  38.379  13.739   3.402
60139W        W26548  21.052  19.743   4.216
60140W        W26549  24.802  15.731  14.933
60141W        W26550  35.475   9.218  12.966
60142W        W26551  35.344  40.412  11.570
60143W        W26552  37.178  33.884  10.725
60144W        W26553  28.912  14.198   0.321
60145W        W26554   6.380  39.329  11.071
60146W        W26555  33.989  23.260   4.025
60147W        W26556  13.735  19.075  12.389
60148W        W26557  25.308  36.546  12.064
60149W        W26558  18.054  36.602   2.121
60150W        W26559  18.190  35.435  13.373
60151W        W26560  36.813  16.119  13.879
60152W        W26561  11.054  12.924  12.479
60153W        W26562   2.817  43.842  12.416
60154W        W26563  19.589  39.094  14.479
60155W        W26564  26.692  41.393  10.698
60156W        W26565  23.802  26.848  11.596
60157W        W26566  40.546  36.753  13.521
60158W        W26567   7.849  10.185  13.141
60159W        W26568  25.003  22.326  12.132
60160W        W26569  30.416  38.983  10.718
60161W        W26570  21.731  22.175   1.870
60162W        W26571  12.568   0.741   1.152
60163W        W26572  36.675  11.358  12.125
60164W        W26573  15.610  30.596  11.192
60165W        W26574  32.539   1.359   0.952
60166W        W26575   5.898  42.242   2.099
60167W        W26576  44.242  17.629   0.025
60168W        W26577   4.758  39.103  10.201
60169W        W26578  35.928   6.731   4.050
60170W        W26579  36.952  34.098   2.716
60171W        W26580  43.267  35.150  12.101
60172W        W26581  28.559   0.655   1.912
60173W        W26582  17.575   6.990   0.245
60174W        W26583  10.013  15.124   0.845
60175W        W26584  16.048  14.292  10.783
60176W        W26585  11.666  19.564  13.560
60177W        W26586  26.432  34.425  13.538
60178W        W26587  23.407  17.725  10.742
60179W        W26588  32.657   2.612  10.259
60180W        W26589  19.614  14.286  13.460
60181W        W26590   9.842   5.397  10.958
60182W        W26591  37.339  11.826   4.541
60183W        W26592  17.582  19.163  11.172
60184W        W26593   1.964  41.505  12.028
60185W        W26594  29.100  27.999   4.387
60186W        W26595  44.169  13.488   4.957
60187W        W26596  22.859  43.373  12.553
60188W        W26597  35.358  40.077   3.112
60189W        W26598   7.849  40.996   3.715
60190W        W26599   5.141   8.330   0.819
60191W        W26600  40.095   9.252   0.322
60192W        W26601  43.303   1.859   3.449
60193W        W26602  32.231  35.413   2.387
60194W        W26603   7.824   2.432  14.901
60195W        W26604  42.255  35.362   0.317
60196W        W26605  20.786  27.419  13.537
60197W        W26606  17.706  28.532  12.215
60198W        W26607  44.258  32.633  11.326
60199W        W26608  23.689   9.723   4.607
60200W        W26609  10.455  27.698   4.800
60201W        W26610   6.804   0.918  13.621
60202W        W26611  19.313  23.151   4.279
60203W        W26612  25.711  36.750  13.924
60204W        W26613  16.717  39.189   4.125
60205W        W26614  31.838  23.034  11.663
60206W        W26615  18.466  11.952   4.485
60207W        W26616  22.565  43.308  10.756
60208W        W26617  12.253  36.911   2.165
60209W        W26618  12.799  19.184  11.804
60210W        W26619  18.004   7.896  12.565
60211W        W26620   7.471  23.074  12.893
60212W        W26621  29.010  41.045   1.245
60213W        W26622   0.004   4.739   3.861
60214W        W26623  36.112  16.025   0.266
60215W        W26624  29.996   3.008  11.592
60216W        W26625   0.147   7.227   3.366
60217W        W26626  20.533  32.358   1.959
60218W        W26627  20.554   3.184  12.145
60219W        W26628  27.720  35.987  14.696
60220W        W26629  20.498  40.086  10.685
60221W        W26630  22.747  13.261  14.145
60222W        W26631   9.288  35.463   0.466
60223W        W26632  36.950  33.508   1.136
60224W        W26633   9.264  20.781   4.255
60225W        W26634   9.413  10.009  12.092
60226W        W26635   7.954  39.868   2.420
60227W        W26636   3.674   2.788  12.655
60228W        W26637   0.553  11.798   1.345
60229W        W26638  28.285  16.337  11.866
60230W        W26639  26.531  18.802  12.024
60231W        W26640  37.504  11.850  10.926
60232W        W26641  44.439   5.758   4.639
60233W        W26642   7.454  17.346   2.691
60234W        W26643  30.563  23.637   1.905
60235W        W26644  43.922  18.250   0.248
60236W        W26645  29.211   3.091   0.858
60237W        W26646  13.541  20.032  11.522
60238W        W26647  39.023  21.198   5.688
60239W        W26648   6.186  21.063  14.835
60240W        W26649  20.979  34.520   3.771
60241W        W26650  12.120  21.302   5.110
60242W        W26651  14.708  33.366   2.415
60243W        W26652  33.974  25.216   4.304
60244W        W26653  36.908  16.206   1.132
60245W        W26654  41.478  34.522  12.128
60246W        W26655  25.534  38.574  11.595
60247W        W26656  24.157  41.820  14.340
60248W        W26657  32.640  43.924  14.992
60249W        W26658  31.447  22.578  13.115
60250W        W26659  13.264  27.255   2.133
60251W        W26660  22.443  12.177   3.616
60252W        W26661  25.006  14.433  14.261
60253W        W26662  11.691   7.369  11.595
60254W        W26663   4.662   7.577   0.222
60255W        W26664  13.239  15.630   4.264
60256W        W26665   0.409  15.170   0.306
60257W        W26666   9.262  13.575  11.186
60258W        W26667  27.311  31.904   1.809
60259W        W26668  35.004  27.156   3.644
60260W        W26669  27.459  13.391  10.398
60261W        W26670  15.688  38.324  13.213
60262W        W26671   8.338  30.627  10.298
60263W        W26672  21.207  23.947  10.358
60264W        W26673  15.397  39.965   1.250
60265W        W26674  34.018  36.944   4.616
60266W        W26675  31.463  42.921   9.945
60267W        W26676   6.452  44.416   0.395
60268W        W26677  15.475  29.070   4.161
60269W        W26678  25.750  21.677   3.468
60270W        W26679  36.416  23.666  12.535
60271W        W26680   9.174  21.565   3.781
60272W        W26681  22.302  13.373  11.709
60273W        W26682   8.071  35.217   3.133
60274W        W26683  39.997  36.165   2.900
60275W        W26684   1.716   4.289   0.122
60276W        W26685  15.867  28.608   1.870
60277W        W26686  37.254   2.838  11.514
60278W        W26687  38.042   2.678  13.284
60279W        W26688  33.987   0.392  12.389
60280W        W26689   4.459  13.989  10.318
60281W        W26690  13.068  43.897   1.282
60282W        W26691  35.554   7.296   0.282
60283W        W26692  21.075   0.322   2.867
60284W        W26693  25.622  26.447  10.657
60285W        W26694  31.841  42.150   2.261
60286W        W26695  27.569  29.546  13.972
60287W        W26696  42.956  15.148  11.597
60288W        W26697  37.805  33.150  12.239
60289W        W26698  37.135  27.616   3.299
60290W        W26699  44.434  14.292   0.760
60291W        W26700  15.059  13.779  13.380
60292W        W26701   2.853  35.213  14.857
60293W        W26702   6.696  36.048   0.230
60294W        W26703  34.350  25.889  10.822
60295W        W26704  22.873  34.013   3.657
60296W        W26705  38.787  36.917   0.552
60297W        W26706  26.194  13.798  11.584
60298W        W26707  10.540  37.569  10.279
60299W        W26708  28.136   5.402  11.769
60300W        W26709   8.836  35.333  12.932
60301W        W26710   2.150  40.508   4.677
60302W        W26711   6.639   2.246   3.453
60303W        W26712  39.975  11.099  13.509
60304W        W26713  32.618   5.711  13.109
60305W        W26714   8.868  42.951   4.662
60306W        W26715  16.832  18.673  11.147
60307W        W26716  37.003   7.308   4.593
60308W        W26717  32.803   0.430  14.752
60309W        W26718   4.266   7.822  10.603
60310W        W26719   6.281   8.209   3.822
60311W        W26720  21.006  25.431  11.615
60312W        W26721  11.427  28.648   4.891
60313W        W26722  35.951  30.151  13.054
60314W        W26723  28.122   0.553  11.159
60315W        W26724  31.627  10.004  11.178
60316W        W26725  10.446  27.870  12.649
60317W        W26726  18.517  10.733   3.727
60318W        W26727  12.586  13.164  10.780
60319W        W26728  23.505   8.506   4.211
60320W        W26729  15.303  11.733  14.333
60321W        W26730   2.878   4.356   1.709
60322W        W26731   0.321   8.433   5.324
60323W        W26732  21.129  27.894  10.747
60324W        W26733  26.743  23.296  12.080
60325W        W26734  17.528  10.437   4.104
60326W        W26735  42.408  30.850  11.696
60327W        W26736  42.921  21.158   4.132
60328W        W26737  37.197   4.390   0.529
60329W        W26738   9.880  24.124  10.698
60330W        W26739  44.329  38.615  11.741
60331W        W26740  25.991  17.139  13.204
60332W        W26741  24.210  33.120   2.631
60333W        W26742  29.452  44.451  11.506
60334W        W26743  25.111  15.652  11.007
60335W        W26744  18.345   9.834  11.303
60336W        W26745  12.547  42.893  10.770
60337W        W26746  21.498  24.710  12.960
60338W        W26747  20.699  17.775  11.039
60339W        W26748  22.621  29.356  12.576
60340W        W26749  36.910   5.681   0.820
60341W        W26750  22.908  43.492  12.034
60342W        W26751  29.104   2.063   0.648
60343W        W26752  27.644  27.730  14.139
60344W        W26753  38.212   9.245   4.164
60345W        W26754   5.178  33.890   2.805
60346W        W26755  23.461  43.866  13.812
60347W        W26756  18.635  35.208  14.848
60348W        W26757  40.270   9.556  14.874
60349W        W26758  30.923   8.618  10.981
60350W        W26759  29.684  34.992   3.316
60351W        W26760  37.086  24.144  13.529
60352W        W26761   2.951  23.022   4.275
60353W        W26762  25.434   0.388   3.777
60354W        W26763  27.924  20.828  13.377
60355W        W26764  43.362   4.978   0.235
60356W        W26765  19.531  31.074  14.832
60357W        W26766   7.115  22.238   0.997
60358W        W26767  28.263  12.888  12.112
60359W        W26768  10.673  42.648   2.304
60360W        W26769  24.293  41.046  12.530
60361W        W26770   5.258  34.580   0.816
60362W        W26771  19.517  38.738   4.880
60363W        W26772  33.884  42.113  11.036
60364W        W26773   1.846  28.071   3.156
60365W        W26774  18.341  19.786   3.159
60366W        W26775  26.269  17.505   2.462
60367W        W26776  12.575  22.584  10.509
60368W        W26777  37.346  36.785  13.535
60369W        W26778  34.550   6.791  11.378
60370W        W26779  34.027   9.272  13.001
60371W        W26780  28.981  22.012   4.402
60372W        W26781   7.715  13.837   4.999
60373W        W26782  33.112   6.974   0.577
60374W        W26783  19.800  19.645  12.570
60375W        W26784  10.378  38.316   2.834
60376W        W26785  12.605   2.419   0.299
60377W        W26786  12.898  23.821   1.738
60378W        W26787  38.774   0.015  11.589
60379W        W26788  38.623  33.086   0.345
60380W        W26789   9.820  26.840   0.519
60381W        W26790  39.804  27.107   3.321
60382W        W26791  23.109  40.088   3.588
60383W        W26792  25.950  31.019  10.651
60384W        W26793  14.795  23.247   3.137
60385W        W26794  22.596  19.190  12.356
60386W        W26795  16.742  21.518   0.206
60387W        W26796   5.288  34.624   1.689
60388W        W26797  35.911  12.477   0.582
60389W        W26798  30.074  34.573  14.862
60390W        W26799  40.392  31.174   0.807
60391W        W26800  12.926  32.659  11.151
60392W        W26801  26.178   0.287  10.634
60393W        W26802  13.801  29.113  10.691
60394W        W26803   5.300  35.995  13.520
60395W        W26804   2.430  24.531   4.116
60396W        W26805  13.158  20.645  14.984
60397W        W26806  22.026  39.577   1.681
60398W        W26807   5.645   0.813   3.394
60399W        W26808  35.574  18.501   3.383
60400W        W26809   4.424  33.789  12.080
60401W        W26810   2.369  31.406   0.747
60402W        W26811   3.011  17.549   4.535
60403W        W26812  39.601  32.520  12.544
60404W        W26813  13.561   5.757  12.397
60405W        W26814  22.692   7.237   0.302
60406W        W26815  14.330   4.030  11.886
60407W        W26816   6.591  44.282   4.073
60408W        W26817  44.229  20.171   0.881
60409W        W26818   9.706  44.972  13.203
60410W        W26819  29.720  33.414  14.073
60411W        W26820  25.801   4.226  13.415
60412W        W26821  39.223  23.712  11.488
60413W        W26822  33.808  41.513  14.630
60414W        W26823  20.502  35.659   3.007
60415W        W26824  41.196  14.851   0.166
60416W        W26825  23.379  40.036  13.136
60417W        W26826  16.881  24.153   4.173
60418W        W26827  37.423  36.135  14.718
60419W        W26828  10.293  11.214   2.155
60420W        W26829  18.227  34.796  12.406
60421W        W26830   9.865  10.783  12.933
60422W        W26831  28.614  32.652  14.996
60423W        W26832  38.852  20.881  14.023
60424W        W26833  44.577   6.437   1.362
60425W        W26834  34.748   6.829  13.276
60426W        W26835  21.155  15.559   1.744
60427W        W26836  10.857   5.295  11.682
60428W        W26837  22.142  18.123  13.554
60429W        W26838  41.347   8.106   5.194
60430W        W26839  28.275   5.561  13.078
60431W        W26840  15.348  22.109  14.428
60432W        W26841  42.741  34.928   0.794
60433W        W26842  16.769  27.090   0.654
60434W        W26843  27.138  27.469  13.467
60435W        W26844  17.763   5.704   3.671
60436W        W26845   0.258  12.064  13.840
60437W        W26846  33.433  23.202   3.971
60438W        W26847  20.803  34.272   1.190
60439W        W26848  30.702   0.411  12.060
60440W        W26849  27.962  18.772   3.593
60441W        W26850  21.112  42.100  14.625
60442W        W26851  29.475  30.108   1.187
60443W        W26852  39.283  19.398   0.876
60444W        W26853  39.953  27.416  13.679
60445W        W26854   9.341  15.786  11.961
60446W        W26855  34.579  31.714  11.024
60447W        W26856   9.064  42.190   1.605
60448W        W26857  38.541  30.427  13.519
60449W        W26858  43.580   9.713   0.807
60450W        W26859  24.561  33.940  11.917
60451W        W26860  30.945  30.986   4.537
60452W        W26861  25.096  38.792  14.434
60453W        W26862  15.038  24.125   2.803
60454W        W26863  33.551  37.661   3.696
60455W        W26864  11.546  25.263  13.358
60456W        W26865  14.308  43.985   1.675
60457W        W26866  31.084  43.846   0.993
60458W        W26867  29.615  17.485   0.414
60459W        W26868  18.568  25.222  10.540
60460W        W26869  38.278  22.078  11.594
60461W        W26870   8.376  25.254   2.017
60462W        W26871  11.668  24.023  14.466
60463W        W26872  12.655  11.096   1.476
60464W        W26873   6.401   5.246   2.984
60465W        W26874  29.517  37.069  11.486
60466W        W26875  19.077  26.929   3.079
60467W        W26876  31.672  15.094  11.675
60468W        W26877   7.741   3.790   2.488
60469W        W26878   5.036  39.151   0.367
60470W        W26879  39.897  13.581  12.124
60471W        W26880  12.698   2.960   9.835
60472W        W26881  37.037  15.604  11.934
60473W        W26882  32.650   6.821  14.794
60474W        W26883  40.480   8.026  14.939
60475W        W26884  32.404   0.516  12.025
60476W        W26885  36.541   2.480  12.569
60477W        W26886  44.534  40.933   0.225
60478W        W26887  20.258  19.828   0.463
60479W        W26888  37.585  25.584  12.944
60480W        W26889  23.653  18.194  10.708
60481W        W26890  32.837  29.871   0.881
60482W        W26891  38.352  22.734   4.292
60483W        W26892   3.732  22.054  10.933
60484W        W26893  44.138  13.814  12.807
60485W        W26894  10.924  26.672  14.395
60486W        W26895  42.108  34.512   3.603
60487W        W26896  41.832   0.499   1.337
60488W        W26897  24.478  31.594  12.074
60489W        W26898  12.546   5.662   3.122
60490W        W26899  20.542  18.033  13.546
60491W        W26900  33.162  35.139  10.893
60492W        W26901   1.061  38.442   0.422
60493W        W26902  25.705  24.894  10.665
60494W        W26903  23.029   5.895   1.236
60495W        W26904  43.557  26.161  14.903
60496W        W26905  44.384  41.306   4.965
60497W        W26906  44.355  23.154   0.371
60498W        W26907  31.103  32.075  10.810
60499W        W26908  13.673   3.166   2.690
60500W        W26909   8.110  11.698   3.262
60501W        W26910  23.446  41.755   3.672
60502W        W26911   8.904  26.803  12.532
60503W        W26912  30.252   1.532  10.715
60504W        W26913  41.909  36.780  13.872
60505W        W26914  31.453   1.947  10.079
60506W        W26915  36.159   8.157   2.759
60507W        W26916  16.668  33.242  13.303
60508W        W26917   8.921  26.587   3.302
60509W        W26918  34.880  41.004   0.813
60510W        W26919  32.949  24.536  12.458
60511W        W26920  28.981  21.680   1.253
60512W        W26921  18.542  43.985  11.398
60513W        W26922  29.098  38.174   3.052
60514W        W26923  25.922  14.354   0.277
60515W        W26924   8.123  44.930  14.612
60516W        W26925  21.622  34.518   0.225
60517W        W26926  29.682  37.342   3.520
60518W        W26927   3.161  31.933  13.024
60519W        W26928  28.490   1.631   4.579
60520W        W26929   6.782  19.858  12.919
60521W        W26930  27.906  22.046  10.230
60522W        W26931  31.754  34.007  12.451
60523W        W26932  24.901  27.920  12.864
60524W        W26933  39.988  12.775   3.604
60525W        W26934  24.199  28.414   4.534
60526W        W26935   4.895   9.621   0.464
60527W        W26936  41.547   2.324  13.382
60528W        W26937  28.503   1.478  12.095
60529W        W26938  36.599  31.925   1.264
60530W        W26939  16.181  35.764   2.255
60531W        W26940  37.885  37.505   2.774
60532W        W26941  17.597  31.485  14.929
60533W        W26942  14.313  12.923  12.753
60534W        W26943   6.934  34.654  10.698
60535W        W26944  29.569   7.894  14.908
60536W        W26945  35.309  36.855  12.137
60537W        W26946  27.148  14.666  11.460
60538W        W26947  28.056  18.596   3.111
60539W        W26948  37.571  16.036  13.677
60540W        W26949  40.957  25.515  12.129
60541W        W26950  14.408  35.472  13.441
60542W        W26951  30.011   3.691  14.798
60543W        W26952   3.284   4.017   1.236
60544W        W26953  14.376  18.424   4.747
60545W        W26954  14.614  39.392  14.733
60546W        W26955  32.666  41.112   9.932
60547W        W26956  37.010  39.303  12.589
60548W        W26957  25.188   9.331  11.841
60549W        W26958  32.014  36.759  13.052
60550W        W26959   1.362   1.766   3.607
60551W        W26960  36.422  19.495  11.921
60552W        W26961  41.384   9.294   1.961
60553W        W26962  27.677  35.660   1.155
60554W        W26963  27.950  22.631  12.414
60555W        W26964  21.632   4.220  12.120
60556W        W26965  16.355  25.302   9.670
60557W        W26966   0.546  24.053   3.786
60558W        W26967  19.288  44.097  13.365
60559W        W26968  27.684   4.955   4.976
60560W        W26969  15.201  24.253   3.367
60561W        W26970   4.341  18.829   3.196
60562W        W26971  23.082   6.089  11.108
60563W        W26972   2.022  38.300  12.068
60564W        W26973  43.383  24.777   4.643
60565W        W26974  16.747  25.757   2.190
60566W        W26975  10.441   2.413  11.216
60567W        W26976  36.989  34.037   4.097
60568W        W26977  18.321  37.833   3.124
60569W        W26978  40.980  26.039   4.556
60570W        W26979  37.338   1.184   1.746
60571W        W26980  36.321  42.615  11.977
60572W        W26981  41.550  39.319  13.315
60573W        W26982  28.577  16.112   0.268
60574W        W26983  27.974  27.829   2.731
60575W        W26984  14.838   1.793   1.346
60576W        W26985   0.761  34.967  11.916
60577W        W26986  16.996   4.948  11.647
60578W        W26987  19.321   5.613  13.467
60579W        W26988  31.735  27.885  12.027
60580W        W26989  39.966   1.451  11.614
60581W        W26990   8.392  42.027  12.465
60582W        W26991  32.471  29.393  12.053
60583W        W26992  24.553  30.438  10.728
60584W        W26993  40.749   8.737  10.673
60585W        W26994  42.465  43.552   1.885
60586W        W26995  31.065  33.111  13.569
60587W        W26996  37.252   8.747  11.568
60588W        W26997  20.567  43.449   2.254
60589W        W26998  22.232  24.526   4.388
60590W        W26999  10.177  44.937  11.548
60591W        W27000  37.319   5.010   1.274
60592W        W27001  35.812   4.015  14.253
60593W        W27002  28.138  17.699  12.132
60594W        W27003   9.861  38.413   0.707
60595W        W27004  12.747  41.823  13.031
60596W        W27005   1.734  19.592   2.680
60597W        W27006  27.765  25.724   5.010
60598W        W27007  23.431  27.047  13.470
60599W        W27008  34.415   4.071   1.189
60600W        W27009  36.010   1.407  13.020
60601W        W27010  30.863  42.430   3.223
60602W        W27011  36.903  25.744  11.139
60603W        W27012   6.012   5.475   3.198
60604W        W27013  11.125  31.342   1.799
60605W        W27014   9.365  42.027   0.567
60606W        W27015   3.762  15.787   0.393
60607W        W27016  41.886   4.820  10.281
60608W        W27017  12.354   9.106  11.711
60609W        W27018  42.997   7.326   9.820
60610W        W27019  34.325  15.398   3.113
60611W        W27020  19.722   6.404  11.127
60612W        W27021  12.627  38.887   3.208
60613W        W27022   1.766   7.059   4.810
60614W        W27023  11.602  43.763  11.879
60615W        W27024   5.379  36.898   0.187
60616W        W27025  42.037  38.522  10.804
60617W        W27026  44.868  42.279   3.173
60618W        W27027  20.000  24.094  10.445
60619W        W27028   3.955  10.736  12.504
60620W        W27029  12.641  24.192  13.453
60621W        W27030   3.924   8.313   3.057
60622W        W27031  29.846  21.239   0.051
60623W        W27032  40.027  39.400  10.902
60624W        W27033   4.245   6.080  14.327
60625W        W27034  37.435  44.387   3.111
60626W        W27035  20.965  40.402   1.543
60627W        W27036  38.762   7.141  12.914
60628W        W27037  17.793  31.203  13.944
60629W        W27038  30.445  18.494   4.591
60630W        W27039  41.426  23.961  12.568
60631W        W27040  26.933  33.768  13.925
60632W        W27041  21.019   1.987   4.118
60633W        W27042  20.187  32.509   3.605
60634W        W27043  43.374  12.431   2.261
60635W        W27044  16.207  26.711   4.616
60636W        W27045  22.502  33.506  12.453
60637W        W27046   3.375  15.411  14.785
60638W        W27047  10.677  23.731   4.691
60639W        W27048   0.781  20.452  14.823
60640W        W27049   5.896  40.030  13.287
60641W        W27050  17.055   3.627   1.775
60642W        W27051  17.999  12.242   3.293
60643W        W27052  33.227   8.682  10.643
60644W        W27053  20.096  26.119   3.758
60645W        W27054   3.930  38.437   0.984
60646W        W27055  26.158  13.100   0.841
60647W        W27056  21.647  43.250   4.032
60648W        W27057  16.814  34.184   1.499
60649W        W27058   3.229  24.035  11.056
60650W        W27059  25.571  27.615   3.813
60651W        W27060  44.780  44.420   0.507
60652W        W27061  40.170  44.407  12.442
60653W        W27062  10.494   5.820  13.069
60654W        W27063  11.160  24.772   3.668
60655W        W27064  13.028   3.985  10.981
60656W        W27065   7.226   0.388   0.368
60657W        W27066  41.428  14.628  13.842
60658W        W27067  30.555  31.267  11.538
60659W        W27068  24.428  30.110   3.656
60660W        W27069  12.559  26.554   0.324
60661W        W27070  29.031  17.146   3.291
60662W        W27071  40.409  37.443  12.991
60663W        W27072  35.838   4.994   3.262
60664W        W27073  14.233  26.769   3.823
60665W        W27074  38.613  33.046   1.315
60666W        W27075  33.063  21.523  14.230
60667W        W27076  30.381  40.393  14.747
60668W        W27077  29.497  10.841  13.650
60669W        W27078  44.898  19.937   2.604
60670W        W27079   3.281  41.320  11.241
60671W        W27080  41.958  19.003   1.198
60672W        W27081  33.583  24.718  11.158
60673W        W27082  12.897  25.682   1.094
60674W        W27083  17.451  42.104   3.117
60675W        W27084  41.511  20.288   2.363
60676W        W27085  12.692  41.532   4.548
60677W        W27086  43.117  36.633  12.136
60678W        W27087  30.066  18.511  12.982
60679W        W27088  35.394   1.375  11.551
60680W        W27089  40.100   0.065   4.248
60681W        W27090   5.483  13.495  11.153
60682W        W27091   3.561  22.600  11.085
60683W        W27092  27.307  15.651   4.023
60684W        W27093  30.664  44.983   4.340
60685W        W27094  40.005  34.489  13.151
60686W        W27095  41.312  11.333  13.492
60687W        W27096  32.184  39.068  11.115
60688W        W27097   1.739  10.367  12.930
60689W        W27098  24.014  24.217   3.185
60690W        W27099  29.574  15.539   0.747
60691W        W27100  19.062  17.528  10.778
60692W        W27101   1.516  41.801  14.793
60693W        W27102  24.207  33.106  14.444
60694W        W27103  36.152  15.659  12.492
60695W        W27104   3.758  33.829   2.746
60696W        W27105  40.114  30.903  12.355
60697W        W27106  14.401  30.429   3.882
60698W        W27107  14.824  20.527  12.220
60699W        W27108   4.208   9.832   2.022
60700W        W27109  36.534  32.711  10.855
60701W        W27110  30.000  25.920  10.719
60702W        W27111  16.535  38.861   2.942
60703W        W27112  12.316  19.683   2.282
60704W        W27113  17.565   2.770   1.970
60705W        W27114  28.234  25.627   0.386
60706W        W27115   6.131  24.019  14.783
60707W        W27116  44.235  35.133   1.670
60708W        W27117   9.600   2.536   2.821
60709W        W27118  14.392  27.637  14.893
60710W        W27119  23.073  24.749  11.076
60711W        W27120  14.987  12.096  12.800
60712W        W27121  19.003  31.489   1.180
60713W        W27122  15.529  18.852  11.011
60714W        W27123   6.244   4.483   4.231
60715W        W27124   2.360  35.975  12.919
60716W        W27125  17.751  32.597   2.629
60717W        W27126  31.628  18.174   0.368
60718W        W27127  31.592  36.836   4.556
60719W        W27128  43.254  17.346  11.198
60720W        W27129  22.483   9.773  14.640
60721W        W27130   0.480  39.317  10.989
60722W        W27131   6.768  29.577   3.207
60723W        W27132   0.413  25.030  14.820
60724W        W27133  41.949  34.611   2.642
60725W        W27134  39.957  10.250   0.995
60726W        W27135  18.084  37.699  13.466
60727W        W27136  28.364  11.740  12.914
60728W        W27137   9.858  37.282   3.588
60729W        W27138   3.522   6.336  14.829
60730W        W27139   5.591   8.515   2.764
60731W        W27140   1.006  19.036  11.183
60732W        W27141  20.633  17.690   2.213
60733W        W27142  25.419  13.633   1.860
60734W        W27143  31.878  26.724   0.458
60735W        W27144  26.639  20.646  14.494
60736W        W27145   7.348  23.175  11.986
60737W        W27146  17.513   4.904   3.151
60738W        W27147  29.382  44.844  13.000
60739W        W27148  15.746  43.953  12.552
60740W        W27149  35.613  17.522   3.223
60741W        W27150  16.402  24.094  12.840
60742W        W27151   8.713   7.882  10.721
60743W        W27152  10.902  33.089  13.775
60744W        W27153   9.670  31.299  10.685
60745W        W27154  39.120  32.052   4.688
60746W        W27155  34.099   8.350  12.825
60747W        W27156  40.901  16.920   3.715
60748W        W27157   3.360  20.995   1.895
60749W        W27158  16.819   9.886   2.669
60750W        W27159  17.194  44.253   1.828
60751W        W27160  15.869  31.208   0.590
60752W        W27161  16.484  24.026   2.475
60753W        W27162  15.706  27.483   0.867
60754W        W27163  27.627  40.459  10.721
60755W        W27164   9.711   5.289  12.439
60756W        W27165  21.183  29.539  10.575
60757W        W27166  36.008  37.437  10.737
60758W        W27167  26.869   0.696   1.286
60759W        W27168  23.787  41.084  12.584
60760W        W27169  29.526  28.833   2.655
60761W        W27170   9.600  23.659  10.676
60762W        W27171  11.280  41.505   1.401
60763W        W27172  21.992  39.276  12.018
60764W        W27173  15.282  35.849   4.949
60765W        W27174  18.612  42.858   3.817
60766W        W27175  15.538  36.711  11.895
60767W        W27176  15.390  39.445   2.667
60768W        W27177  38.760  32.382   2.134
60769W        W27178  20.684  40.356   1.974
60770W        W27179  38.351  42.722   3.353
60771W        W27180  36.564  25.820  14.835
60772W        W27181  36.970  36.146   3.415
60773W        W27182  28.412  31.425  14.436
60774W        W27183  28.285   3.724   3.394
60775W        W27184  30.944  43.699   0.532
60776W        W27185   5.939  39.058   0.213
60777W        W27186  22.035  28.654   0.250
60778W        W27187  27.046   8.179   0.431
60779W        W27188  29.164  30.157  11.069
60780W        W27189  15.559  27.006  11.616
60781W        W27190  42.501  43.910  11.161
60782W        W27191   9.258  18.713  11.573
60783W        W27192  36.967  44.462   1.194
60784W        W27193  20.047  28.147  14.766
60785W        W27194  16.631  34.622  10.530
60786W        W27195  11.915  36.339  10.587
60787W        W27196  12.623  22.854  10.963
60788W        W27197  31.993  11.020  10.282
60789W        W27198  43.353  27.138  14.459
60790W        W27199  16.244  19.082  13.520
60791W        W27200  44.426  11.918  14.483
60792W        W27201   2.449  17.521  12.998
60793W        W27202  14.042  43.181  14.035
60794W        W27203  26.340  21.469   4.667
60795W        W27204  37.313  23.067  11.501
60796W        W27205  40.310   5.873   2.630
60797W        W27206  31.379  37.842   2.282
60798W        W27207  43.457   0.568  13.776
60799W        W27208   6.393   5.936  12.565
60800W        W27209   2.404  35.816   4.646
60801W        W27210  23.078  41.276   1.343
60802W        W27211  43.126   9.920  14.830
60803W        W27212  43.816  28.105  14.239
60804W        W27213   9.729  11.862   2.367
60805W        W27214  21.099   8.841   5.081
60806W        W27215  11.183  15.580  12.290
60807W        W27216   1.482   4.443   1.853
60808W        W27217  29.689  33.988   4.775
60809W        W27218  10.748  18.362   2.850
60810W        W27219  41.570  29.928   1.996
60811W        W27220  26.035   8.420  13.091
60812W        W27221  41.276   6.791  14.471
60813W        W27222   0.593   4.416  13.851
60814W        W27223   8.321  13.536   0.357
60815W        W27224  20.532  25.026   0.036
60816W        W27225   7.201  25.541  13.467
60817W        W27226  29.683  29.261   2.939
60818W        W27227  10.737  43.177   1.228
60819W        W27228  18.549  17.376  11.418
60820W        W27229   8.624  22.601  14.594
60821W        W27230   4.689  10.900   2.704
60822W        W27231  41.828  31.487   1.161
60823W        W27232  13.008  44.598   4.835
60824W        W27233  36.482  13.234   0.001
60825W        W27234  14.729   0.324   4.603
60826W        W27235  18.671  31.524   2.782
60827W        W27236  10.104  17.938   0.862
60828W        W27237  20.452  20.111  14.235
60829W        W27238  40.341   4.800   4.454
60830W        W27239  33.195  10.617   3.724
60831W        W27240  21.742  30.360  14.332
60832W        W27241  18.527  23.623   2.706
60833W        W27242  19.988  18.137  10.678
60834W        W27243  25.989  38.420  14.465
60835W        W27244   4.897  37.111   0.366
60836W        W27245  14.289  28.803   1.215
60837W        W27246  35.564  21.503   2.799
60838W        W27247  36.594  12.316  12.812
60839W        W27248  11.334  15.851   0.651
60840W        W27249   5.096  18.074  11.945
60841W        W27250  11.371  15.154   3.206
60842W        W27251  15.125  16.957   2.200
60843W        W27252  11.178  28.837  11.674
60844W        W27253  41.516  21.161   3.934
60845W        W27254  41.007  43.987  11.470
60846W        W27255  37.986  31.100   4.483
60847W        W27256  43.417  37.118  13.395
60848W        W27257  40.384  25.934   3.928
60849W        W27258  32.178  17.656  10.664
60850W        W27259   8.191   7.378  14.307
60851W        W27260  12.220  40.482  14.982
60852W        W27261  14.742  27.938   2.740
60853W        W27262   5.276  20.757  11.530
60854W        W27263  35.374  42.819  10.791
60855W        W27264  26.072  23.338   0.700
60856W        W27265  28.673  24.260   2.160
60857W        W27266  42.344  21.704  10.423
60858W        W27267  32.192  18.198   2.748
60859W        W27268  15.197   2.383   3.226
60860W        W27269  17.256   6.503   0.293
60861W        W27270  11.578  29.492   1.854
60862W        W27271  15.872  32.093   2.709
60863W        W27272  28.278  15.828   5.055
60864W        W27273  33.059  23.070  11.132
60865W        W27274  25.199  14.686   1.851
60866W        W27275  39.552   4.276  12.333
60867W        W27276  23.994  35.681   0.694
60868W        W27277  41.525  29.581   3.992
60869W        W27278   6.923  30.947  14.379
60870W        W27279  15.197  41.083  11.548
60871W        W27280  43.781  24.180  12.520
60872W        W27281  15.212  40.285  11.986
60873W        W27282   8.018  43.834   1.022
60874W        W27283  17.868  25.241   5.030
60875W        W27284   5.967  38.188  13.055
60876W        W27285  30.530  39.569   4.008
60877W        W27286  22.842  36.923   4.607
60878W        W27287   2.446  21.976   0.384
60879W        W27288  42.556  14.311  12.543
60880W        W27289  40.940  43.247   2.209
60881W        W27290  19.026  10.691   0.611
60882W        W27291  18.492   9.371   1.878
60883W        W27292  15.444  42.624  12.451
60884W        W27293  10.615  24.489  14.933
60885W        W27294  33.348  17.581  14.543
60886W        W27295  13.643   6.620  14.056
60887W        W27296   7.657  26.627  13.597
60888W        W27297   2.752  29.901   0.362
60889W        W27298  34.880  25.897   1.767
60890W        W27299  11.873  31.843  12.103
60891W        W27300  31.451  33.167  14.480
60892W        W27301  17.528  29.214  14.782
60893W        W27302  42.562   9.215  14.002
60894W        W27303  14.114  28.469  12.531
60895W        W27304  20.990  27.511  14.967
60896W        W27305  14.237   7.922   2.807
60897W        W27306  32.456  34.087  11.982
60898W        W27307   2.490  27.119   4.456
60899W        W27308  42.516  20.579  11.497
60900W        W27309  14.110   0.199  11.533
60901W        W27310   7.444  38.385   2.836
60902W        W27311  43.787   1.974  12.127
60903W        W27312   0.291  19.934  10.978
60904W        W27313  29.636  20.045  14.940
60905W        W27314  20.427  33.047   4.707
60906W        W27315  31.145  20.088   3.141
60907W        W27316  23.091  35.449   4.762
60908W        W27317  13.651  19.196  13.339
60909W        W27318  38.793  19.003   4.932
60910W        W27319   1.938  15.052   2.227
60911W        W27320  15.896   1.462   1.838
60912W        W27321  27.306  38.912  13.732
60913W        W27322  29.237  31.077  14.740
60914W        W27323   2.432  10.304   1.987
60915W        W27324   7.631  40.235   3.662
60916W        W27325  21.316  37.773   0.966
60917W        W27326  12.818  30.553  13.931
60918W        W27327   6.128  43.342   2.639
60919W        W27328  41.926  21.846   3.458
60920W        W27329  27.078  16.571  14.513
60921W        W27330  29.231   7.687   3.648
60922W        W27331  38.031  25.692   3.856
60923W        W27332  38.900   6.850   1.938
60924W        W27333  40.753  32.160  12.462
60925W        W27334   5.773   7.851  13.687
60926W        W27335  22.141  41.972  10.847
60927W        W27336  36.326  20.075  11.157
60928W        W27337   0.876  30.918   1.880
60929W        W27338  33.063  21.319   1.258
60930W        W27339  23.664  26.557   0.456
60931W        W27340  22.603  25.694  10.962
60932W        W27341  38.073  44.972   3.239
60933W        W27342  24.601  29.351   1.500
60934W        W27343  32.627   4.709   1.008
60935W        W27344  25.098   0.385   4.184
60936W        W27345  24.523  19.318  13.471
60937W        W27346  12.818  42.343  12.869
60938W        W27347  14.820  28.995   1.357
60939W        W27348  11.702  37.200   9.680
60940W        W27349  38.522  11.208   1.460
60941W        W27350  10.368  30.724  13.077
60942W        W27351  41.075   4.947  14.289
60943W        W27352  22.273  16.374  12.598
60944W        W27353  10.854  16.165   2.014
60945W        W27354  15.252   1.385  11.098
60946W        W27355  36.512  26.926  11.415
60947W        W27356  28.907   1.573   2.835
60948W        W27357  36.828  17.126  12.615
60949W        W27358  34.055  16.572   2.434
60950W        W27359   8.217   2.845  14.408
60951W        W27360  13.601  40.785  13.842
60952W        W27361  41.846  39.367  12.894
60953W        W27362   1.168  37.079   5.191
60954W        W27363  23.006  26.049  12.359
60955W        W27364   0.646  17.320  13.367
60956W        W27365  24.657  41.823  10.747
60957W        W27366   9.068  40.925  14.957
60958W        W27367  40.499  29.657   3.612
60959W        W27368  38.272  20.430   0.202
60960W        W27369   2.358  40.274   1.678
60961W        W27370  40.520   4.494   2.326
60962W        W27371  20.998  16.656  14.402
60963W        W27372  30.006  44.333  10.412
60964W        W27373  33.410  32.518   0.308
60965W        W27374  27.991  19.739  13.419
60966W        W27375  18.816   4.438   0.405
60967W        W27376  23.889  12.392   4.840
60968W        W27377   4.884   2.044  12.024
60969W        W27378   8.387   5.957   4.631
60970W        W27379  25.197  13.610   0.919
60971W        W27380   5.432  43.457   0.752
60972W        W27381  30.593  39.063   4.140
60973W        W27382  33.359  26.720   4.306
60974W        W27383  21.964  43.032  13.955
60975W        W27384  39.587  36.572   1.414
60976W        W27385   1.955  23.181  12.395
60977W        W27386  18.706   8.601  12.310
60978W        W27387  10.638  30.497  14.456
60979W        W27388  31.411   2.014  11.659
60980W        W27389   0.208  18.885   3.296
60981W        W27390  25.905  21.621   1.871
60982W        W27391  35.892  35.372   3.304
60983W        W27392   8.757  44.278   3.419
60984W        W27393  23.212  10.726  12.639
60985W        W27394   8.671  33.508  13.285
60986W        W27395  12.241   0.419  14.424
60987W        W27396  31.551  36.990   2.179
60988W        W27397   9.460  20.316  10.974
60989W        W27398  11.942  31.144  11.609
60990W        W27399  10.797  23.689   3.254
60991W        W27400  33.205  12.676  10.735
60992W        W27401  15.493  19.721   1.933
60993W        W27402  11.270   2.920   1.309
60994W        W27403  36.908  17.173   1.627
60995W        W27404  20.255  19.871   3.243
60996W        W27405  12.774  18.612   4.947
60997W        W27406   4.265  30.713   4.194
60998W        W27407  13.301  16.639  12.513
60999W        W27408   2.763  20.397   1.669
61000W        W27409  20.660  33.020  14.818
61001W        W27410  42.650  33.599  11.908
61002W        W27411  19.008   0.374  10.370
61003W        W27412  37.562  15.238  13.361
61004W        W27413  39.466  34.327   0.461
61005W        W27414  23.758   2.236   4.513
61006W        W27415  16.625   8.699  14.248
61007W        W27416  15.628  24.833  14.749
61008W        W27417  22.635   8.452  10.513
61009W        W27418  34.124  40.504  10.196
61010W        W27419  28.583   3.210  14.351
61011W        W27420  26.521  35.042   0.053
61012W        W27421  30.174  42.686   4.242
61013W        W27422  26.632   9.354  13.238
61014W        W27423  17.292   4.297  12.516
61015W        W27424  17.582   2.805  14.223
61016W        W27425  12.410  17.296  10.524
61017W        W27426  35.944  11.793  14.355
61018W        W27427  20.315  28.596  13.906
61019W        W27428  35.986   8.119   1.277
61020W        W27429   3.979   9.113  10.666
61021W        W27430  28.927  41.043  12.073
61022W        W27431  38.944  38.701  11.577
61023W        W27432  44.311  11.858   2.661
61024W        W27433  15.127  10.915   0.969
61025W        W27434  31.954   9.825  13.343
61026W        W27435  24.270  25.477  14.988
61027W        W27436  30.162  10.317   0.682
61028W        W27437  42.858  33.346  12.677
61029W        W27438  15.856  39.485  11.692
61030W        W27439  17.051   2.579  14.901
61031W        W27440  16.764  35.394  14.927
61032W        W27441  35.633  14.351   2.432
61033W        W27442  26.432  21.615   1.848
61034W        W27443  44.327   1.040  10.608
61035W        W27444  27.153  19.338  10.687
61036W        W27445  28.052  44.675   2.173
61037W        W27446  19.494  26.950   2.802
61038W        W27447  11.572  37.396  13.839
61039W        W27448  35.554  31.706   1.966
61040W        W27449   2.878  15.502   5.114
61041W        W27450  31.522  12.096   4.647
61042W        W27451  30.886  34.820   2.928
61043W        W27452  33.372  33.128   0.971
61044W        W27453   5.255  36.848   4.205
61045W        W27454  27.912   3.464  10.210
61046W        W27455   5.799  15.827   4.322
61047W        W27456  26.003  35.166   1.426
61048W        W27457  37.054  28.976  10.822
61049W        W27458  14.272  32.803  11.614
61050W        W27459  38.926  39.251   1.655
61051W        W27460  12.669  18.167  14.695
61052W        W27461  21.486  20.190  12.947
61053W        W27462  14.329  25.789   1.678
61054W        W27463  38.932  10.399   4.637
61055W        W27464  13.346  33.939   2.192
61056W        W27465  12.145  19.194   3.490
61057W        W27466  42.290  28.681  13.612
61058W        W27467  33.118  43.905   2.157
61059W        W27468   3.588  42.039   2.125
61060W        W27469  38.973   8.147  11.841
61061W        W27470   1.819  12.805   4.185
61062W        W27471  24.513  43.369   3.302
61063W        W27472  19.125   3.352   5.061
61064W        W27473  11.577  23.181  14.053
61065W        W27474  30.358  38.430   4.761
61066W        W27475  11.801  15.665  14.453
61067W        W27476  19.971   5.084   0.053
61068W        W27477   3.856  21.577  13.960
61069W        W27478   1.301   0.356   4.181
61070W        W27479  11.285  35.640  13.979
61071W        W27480  14.302  11.780   3.436
61072W        W27481   9.142  13.729   2.980
61073W        W27482  36.506  27.392   1.798
61074W        W27483  16.587  38.507   3.507
61075W        W27484  17.387  28.671  11.861
61076W        W27485  23.507  39.968   1.796
61077W        W27486  12.833  30.814  10.640
61078W        W27487  27.570   8.473   2.705
61079W        W27488   1.723   5.000   4.042
61080W        W27489  15.795  24.594  12.001
61081W        W27490   6.607  34.166  13.669
61082W        W27491  14.347  29.037   2.803
61083W        W27492  17.857  19.536   0.410
61084W        W27493  10.326  14.085  14.875
61085W        W27494  13.348  37.067  13.924
61086W        W27495  21.725  39.593  14.797
61087W        W27496  36.021  31.407  13.450
61088W        W27497  30.905  34.742   1.754
61089W        W27498  22.112   3.515   4.682
61090W        W27499  28.455  17.191  10.635
61091W        W27500  35.391  14.481  14.201
61092W        W27501   7.675   2.404   3.395
61093W        W27502   3.410  41.025   3.287
61094W        W27503  37.278  31.436   2.294
61095W        W27504  28.104  31.147  14.047
61096W        W27505  18.686  15.281  12.912
61097W        W27506  37.111  35.139   1.033
61098W        W27507  27.028  18.640   2.846
61099W        W27508   5.768  30.647  13.538
61100W        W27509  24.037  31.514   2.359
61101W        W27510  30.428   3.229   3.472
61102W        W27511  43.345  21.007   2.652
61103W        W27512  20.750  35.990  14.491
61104W        W27513  41.487   3.986   4.522
61105W        W27514  34.603   7.041  12.809
61106W        W27515  29.824  10.952  13.279
61107W        W27516  37.496  36.779  14.329
61108W        W27517  22.218  42.886  11.097
61109W        W27518  41.918  32.649  14.510
61110W        W27519  22.455  19.268  10.537
61111W        W27520  31.707  38.038  13.513
61112W        W27521  32.964  26.096   1.469
61113W        W27522  30.491  29.917  12.889
61114W        W27523   3.206  34.061  12.523
61115W        W27524  35.818  18.216   2.139
61116W        W27525  15.706  13.779   1.418
61117W        W27526  20.563  43.471  10.576
61118W        W27527  16.155  26.820   1.958
61119W        W27528  36.799  25.316   0.385
61120W        W27529  26.520  11.926  10.188
61121W        W27530  23.546  20.052   3.285
61122W        W27531  29.202  30.146   3.282
61123W        W27532   5.338  22.395  10.214
61124W        W27533   2.247  27.751  12.008
61125W        W27534  19.260  20.073   0.497
61126W        W27535  30.407  27.902  13.255
61127W        W27536  10.403  21.165   2.032
61128W        W27537   7.867  44.183  13.980
61129W        W27538  36.151  10.332  11.492
61130W        W27539  32.391  31.455   4.319
61131W        W27540  43.900  40.958   0.806
61132W        W27541  22.543  43.980   0.415
61133W        W27542  29.893  27.720  14.616
61134W        W27543  38.576  29.142  14.296
61135W        W27544  23.048  39.518  12.074
61136W        W27545  44.248  22.083  11.530
61137W        W27546  37.385  15.185   0.294
61138W        W27547  22.065  33.888  13.012
61139W        W27548  38.330  34.963  13.037
61140W        W27549  43.990  38.457  12.849
61141W        W27550  14.730  20.295   9.757
61142W        W27551  24.725  30.997   2.937
61143W        W27552   7.777  31.145  14.200
61144W        W27553  24.166   2.144   2.222
61145W        W27554   9.284  28.757  10.840
61146W        W27555   1.044  10.858   1.129
61147W        W27556  44.735  22.733   3.018
61148W        W27557  44.019  36.427   3.364
61149W        W27558  32.712  17.249  11.545
61150W        W27559  35.311   1.729  13.565
61151W        W27560  43.452  21.301  12.031
61152W        W27561  24.893  24.668  10.795
61153W        W27562  42.371   7.713   0.744
61154W        W27563   9.132  24.200  11.833
61155W        W27564  36.386  27.350  10.993
61156W        W27565  43.508  40.811   3.386
61157W        W27566  17.262   4.284  10.188
61158W        W27567  14.670   6.839  11.125
61159W        W27568  32.601  15.557  14.193
61160W        W27569  44.476  44.364   4.065
61161W        W27570  19.211   3.311  10.586
61162W        W27571  41.206  10.180   2.731
61163W        W27572  19.355  27.951  13.013
61164W        W27573  33.162  32.547  14.829
61165W        W27574  38.775   3.513   2.220
61166W        W27575  40.314  10.913  10.321
61167W        W27576  22.611  40.273  11.640
61168W        W27577   9.452  44.852  14.360
61169W        W27578   3.765  16.663   2.177
61170W        W27579  18.084  18.644   4.889
61171W        W27580  11.807  12.804   2.269
61172W        W27581  13.122   9.803   1.323
61173W        W27582  14.680  27.876   0.699
61174W        W27583  41.039   4.135  11.710
61175W        W27584  43.294  30.388  10.783
61176W        W27585  17.088  34.594  11.190
61177W        W27586  43.874  36.980  12.044
61178W        W27587  38.356   1.449  14.439
61179W        W27588  41.038  18.730   1.031
61180W        W27589  39.806  38.053   1.284
61181W        W27590   0.782  14.256  11.899
61182W        W27591  39.586  25.707   0.908
61183W        W27592  40.109  20.522   3.301
61184W        W27593  30.710   8.454  14.384
61185W        W27594  21.870  14.018  11.074
61186W        W27595  27.511  30.956   4.268
61187W        W27596  22.675  29.012  13.924
61188W        W27597  32.013  12.867  12.844
61189W        W27598   9.421  36.545   1.475
61190W        W27599  33.004   5.366   1.679
61191W        W27600  40.743  38.014   1.452
61192W        W27601  14.385   3.226   0.444
61193W        W27602   6.729  25.369  10.856
61194W        W27603   2.928  39.340   1.626
61195W        W27604  32.904  44.729  11.976
61196W        W27605  28.045  20.706   4.966
61197W        W27606  28.684  42.873  14.055
61198W        W27607   6.463   8.859  11.643
61199W        W27608  31.994  28.588  11.274
61200W        W27609  18.533   5.743   1.918
61201W        W27610  38.620  20.285   2.909
61202W        W27611  24.515   4.909  13.719
61203W        W27612   5.502  27.584   1.728
61204W        W27613  22.003  11.010  11.289
61205W        W27614  34.867  44.046  13.920
61206W        W27615  34.086  31.100   3.835
61207W        W27616  35.890  20.317   2.863
61208W        W27617   7.748  16.671   3.866
61209W        W27618  31.167  27.755  14.534
61210W        W27619   4.813   6.156   2.818
61211W        W27620  28.399  20.497  14.177
61212W        W27621   1.844  35.939  12.935
61213W        W27622   6.238  40.456   5.112
61214W        W27623  43.512  13.329   0.810
61215W        W27624  37.103  25.742   0.376
61216W        W27625  43.772  30.438  14.954
61217W        W27626  12.822  40.339  12.830
61218W        W27627   9.084  11.061  11.624
61219W        W27628  17.572   7.980  12.294
61220W        W27629  26.984  11.329   0.226
61221W        W27630  30.144  18.081  11.551
61222W        W27631  25.654  19.433   5.720
61223W        W27632   1.025  29.424  14.278
61224W        W27633  21.749  10.641   2.869
61225W        W27634  40.239  35.954   3.338
61226W        W27635  41.845   4.577   1.972
61227W        W27636  17.615  35.837   4.473
61228W        W27637  22.446  33.123   4.835
61229W        W27638  35.741  16.760  12.004
61230W        W27639  42.489  14.047  12.982
61231W        W27640  29.368  34.141  14.493
61232W        W27641  29.668  44.960   0.474
61233W        W27642   2.398  10.126   2.939
61234W        W27643  14.253  25.485  12.175
61235W        W27644   6.598  22.512  13.975
61236W        W27645  18.318  29.858  13.072
61237W        W27646   1.898   4.862   4.536
61238W        W27647  40.143   5.658   0.277
61239W        W27648  36.962   1.324  11.297
61240W        W27649   9.142  35.572  14.580
61241W        W27650  35.477  11.556  14.377
61242W        W27651  36.557  21.575  10.667
61243W        W27652  13.060  28.732  10.760
61244W        W27653   8.637  43.366   0.343
61245W        W27654   0.487  26.021  14.802
61246W        W27655  26.765  22.098  11.091
61247W        W27656  17.540  12.164  14.338
61248W        W27657  43.705  24.660   3.655
61249W        W27658   0.520   7.385  13.728
61250W        W27659  13.873  19.198   2.729
61251W        W27660   5.120  22.346   3.161
61252W        W27661  15.591  14.000   3.011
61253W        W27662  25.500  23.551  13.930
61254W        W27663   4.313  16.269   3.276
61255W        W27664  20.219  20.252   2.420
61256W        W27665  32.456  12.531   4.168
61257W        W27666   0.044  29.073  13.462
61258W        W27667  31.687   8.655  10.679
61259W        W27668  42.978  19.933  10.428
61260W        W27669  42.749   4.847   3.267
61261W        W27670   0.952  22.662   3.180
61262W        W27671  31.146  29.453   0.324
61263W        W27672  32.996  36.883   2.384
61264W        W27673  35.113  27.693  11.621
61265W        W27674   0.276  44.000   3.345
61266W        W27675   1.219  30.851  11.482
61267W        W27676  41.075  11.404   4.424
61268W        W27677  27.044  11.254   2.197
61269W        W27678  44.798  25.726  12.132
61270W        W27679  40.169   4.387  12.517
61271W        W27680   3.463  33.198  11.417
61272W        W27681  23.219   1.938  11.784
61273W        W27682  37.831  38.462   3.835
61274W        W27683  37.396  27.524   3.761
61275W        W27684  37.832  17.281  12.558
61276W        W27685  18.805  15.837   2.811
61277W        W27686  31.102   7.486   3.220
61278W        W27687   8.588  15.785  13.067
61279W        W27688  29.260   6.499  13.858
61280W        W27689  28.901  39.659   4.362
61281W        W27690  26.175   5.757   4.717
61282W        W27691  42.228   7.635   4.432
61283W        W27692  24.377  17.539   1.425
61284W        W27693  20.697  26.376   0.193
61285W        W27694  16.529  33.402   1.738
61286W        W27695  24.644   3.662  11.528
61287W        W27696  26.542  24.279   1.502
61288W        W27697  22.160  34.699   1.924
61289W        W27698   8.372   1.223  13.837
61290W        W27699  26.143  44.714   0.338
61291W        W27700   0.238  17.660  13.973
61292W        W27701  26.137   4.229   4.958
61293W        W27702  18.201  31.008   1.669
61294W        W27703  16.980   1.877  14.367
61295W        W27704   2.365  26.084  10.747
61296W        W27705  29.966  28.938   4.432
61297W        W27706   3.715   0.208  11.222
61298W        W27707  14.019  25.998  13.537
61299W        W27708  13.406  44.801  11.122
61300W        W27709   6.323  31.504  13.485
61301W        W27710  37.309   6.744  12.085
61302W        W27711  19.778  11.446  11.650
61303W        W27712  39.149  42.417   1.611
61304W        W27713  15.555  24.524  11.153
61305W        W27714  39.469  44.029   1.760
61306W        W27715  41.768   6.443   4.686
61307W        W27716  41.656  28.648  12.973
61308W        W27717   0.205  39.237  13.503
61309W        W27718  24.141  16.626   1.019
61310W        W27719   9.219  30.489   1.877
61311W        W27720  29.170  32.063  14.865
61312W        W27721  14.245  43.425   4.318
61313W        W27722   7.759  31.214  12.812
61314W        W27723   5.329  35.425  10.850
61315W        W27724  43.845  41.690  14.948
61316W        W27725  32.938  15.828   1.871
61317W        W27726  40.465  11.319  11.898
61318W        W27727   9.421  38.018  13.372
61319W        W27728  17.854   3.191   2.051
61320W        W27729  41.967  21.271   2.742
61321W        W27730  10.295  23.961   2.933
61322W        W27731  17.092   0.557   3.748
61323W        W27732  35.678  42.938  14.521
61324W        W27733  36.934  38.096  11.153
61325W        W27734  29.135  31.401   0.864
61326W        W27735   7.857  14.827   0.369
61327W        W27736  33.634  31.485  11.006
61328W        W27737  31.732  33.501   2.373
61329W        W27738  37.243   1.743  13.135
61330W        W27739  36.534   6.033   0.954
61331W        W27740  27.860  33.767   0.841
61332W        W27741  43.967  39.892   2.891
61333W        W27742   1.033  14.980  12.965
61334W        W27743  41.277  22.454   4.076
61335W        W27744  25.219  43.917  12.928
61336W        W27745  44.164  44.900   1.958
61337W        W27746   8.357  37.133  13.580
61338W        W27747  28.276  13.892   2.269
61339W        W27748  41.700  25.941  13.559
61340W        W27749  30.451  18.184  12.254
61341W        W27750  11.782  22.631  11.397
61342W        W27751  23.812  40.821   1.888
61343W        W27752   6.388  17.368   1.190
61344W        W27753  15.858  23.768  14.553
61345W        W27754  36.084  26.238  10.729
61346W        W27755   0.182  37.599  12.006
61347W        W27756  41.034   3.637   4.431
61348W        W27757   9.395  40.017   3.767
61349W        W27758   1.389  12.253  11.421
61350W        W27759  33.993  21.216  11.476
61351W        W27760  20.632   6.724   4.563
61352W        W27761  31.101  44.811   0.908
61353W        W27762  32.916  16.768  10.669
61354W        W27763  29.714  13.443  10.746
61355W        W27764  33.059  19.821   3.210
61356W        W27765  18.546   2.356  14.958
61357W        W27766  17.059  29.301   2.412
61358W        W27767  26.675   3.041  12.451
61359W        W27768  14.523  26.809   2.856
61360W        W27769  14.193  12.119   0.368
61361W        W27770  28.045  19.227  12.448
61362W        W27771   1.372  27.039   3.958
61363W        W27772  33.937   2.428  13.476
61364W        W27773  32.313  33.622   4.162
61365W        W27774  42.146  23.847   4.977
61366W        W27775  10.180  39.283  14.660
61367W        W27776  39.908  20.615   2.456
61368W        W27777  13.233  38.311  11.547
61369W        W27778  19.887   5.066   3.606
61370W        W27779  17.555   6.729   0.692
61371W        W27780   3.413   9.127  12.953
61372W        W27781  21.272  35.929   4.912
61373W        W27782  32.529  39.369   4.114
61374W        W27783   2.389  32.510   1.609
61375W        W27784  10.767  11.438   1.341
61376W        W27785  15.629  13.269   1.401
61377W        W27786  37.932   6.735  14.023
61378W        W27787  30.757  27.434  14.644
61379W        W27788   8.043  34.287   4.156
61380W        W27789  44.219   6.729   1.607
61381W        W27790  20.055  24.558  10.670
61382W        W27791   3.834   6.375   0.253
61383W        W27792   9.805  15.413   0.465
61384W        W27793  14.349   7.273   3.594
61385W        W27794   4.267  13.699   0.855
61386W        W27795   1.279  10.148   0.077
61387W        W27796   6.597  24.847   3.237
61388W        W27797  31.055  23.654   3.419
61389W        W27798   9.207  36.700  12.493
61390W        W27799  26.970  20.716   0.476
61391W        W27800  27.858   1.957   0.898
61392W        W27801  20.426  26.782   4.951
61393W        W27802  25.028  15.728  12.381
61394W        W27803   6.898  26.238   2.810
61395W        W27804  27.339   2.418   3.042
61396W        W27805  39.142  31.457   4.065
61397W        W27806  13.298  36.159  12.313
61398W        W27807  28.079  23.019  12.069
61399W        W27808  22.744  26.556  10.271
61400W        W27809   3.332  11.194  14.048
61401W        W27810  16.796   8.195  11.105
61402W        W27811  20.732  32.325  14.264
61403W        W27812  14.351  23.500  11.694
61404W        W27813   0.287   0.400   3.930
61405W        W27814  25.987  10.777  13.368
61406W        W27815  44.554   0.462  12.584
61407W        W27816   4.541  24.242   2.726
61408W        W27817   7.487   2.493  10.720
61409W        W27818  34.780   9.708  12.651
61410W        W27819  30.895  39.138  14.917
61411W        W27820  38.415  34.878   3.695
61412W        W27821  34.032  18.238   3.145
61413W        W27822   1.773  38.654  12.343
61414W        W27823  24.966   9.701  10.609
61415W        W27824  12.209  14.669   1.171
61416W        W27825  10.656  28.444  12.811
61417W        W27826  39.272  44.008   3.303
61418W        W27827  15.792   1.853  14.722
61419W        W27828   0.429   2.862  14.776
61420W        W27829  18.885  26.459  11.199
61421W        W27830  12.023   0.674  10.789
61422W        W27831  25.457  21.161   2.174
61423W        W27832   4.229  38.759   1.293
61424W        W27833  39.317   8.162   0.426
61425W        W27834  30.873   4.613   1.179
61426W        W27835   9.032  19.160  11.473
61427W        W27836  11.917  19.508   0.362
61428W        W27837  43.312  35.522   1.046
61429W        W27838  12.346  25.583  13.818
61430W        W27839  22.400  22.213  13.087
61431W        W27840  33.647  27.510   2.654
61432W        W27841  14.382  42.039  11.085
61433W        W27842  42.742  39.705  13.079
61434W        W27843  37.806  31.534   3.219
61435W        W27844  17.279  26.108   2.789
61436W        W27845  44.748  37.735   3.282
61437W        W27846  42.925   4.817  12.906
61438W        W27847  43.976  24.899   0.414
61439W        W27848  33.940   6.245  12.300
61440W        W27849   7.845  43.221  12.982
61441W        W27850  21.592  11.348  10.990
61442W        W27851  42.089   3.427   2.911
61443W        W27852  24.563  20.046   9.720
61444W        W27853  10.886  30.633  10.724
61445W        W27854  23.666  38.520   3.263
61446W        W27855  30.224  18.820   0.005
61447W        W27856   0.612  38.535  10.548
61448W        W27857  33.730  22.567  11.502
61449W        W27858  43.099  12.870   2.297
61450W        W27859  24.691   5.108   0.106
61451W        W27860  42.188  40.767   2.395
61452W        W27861  29.857  41.794   1.958
61453W        W27862   6.227  22.665  10.259
61454W        W27863  34.430  24.380  10.864
61455W        W27864   4.147   8.241   1.468
61456W        W27865  22.179  30.642   1.754
61457W        W27866  41.581  30.834   4.492
61458W        W27867  34.552  40.919   4.336
61459W        W27868  22.102  36.465   3.076
61460W        W27869  24.721  25.314  12.491
61461W        W27870  14.527  27.065  13.731
61462W        W27871   5.776  20.138   0.669
61463W        W27872   4.766  44.662   0.910
61464W        W27873  23.191  42.998   2.165
61465W        W27874   9.340  13.159  14.390
61466W        W27875  44.500  25.803  14.543
61467W        W27876   8.763  11.504  14.080
61468W        W27877  34.952  21.114   0.521
61469W        W27878  44.068  18.122  11.398
61470W        W27879  33.299  30.232  12.387
61471W        W27880  29.093  24.176   0.909
61472W        W27881  33.110  15.789   3.513
61473W        W27882  38.622  44.385   2.694
61474W        W27883  30.924  43.936   3.116
61475W        W27884  12.588   7.491  11.504
61476W        W27885  17.191  18.679  11.524
61477W        W27886   5.887  22.416   5.454
61478W        W27887  41.446  44.679   0.302
61479W        W27888  22.658   2.978   2.753
61480W        W27889  16.393   4.479   2.768
61481W        W27890  28.603  35.317   3.697
61482W        W27891  11.637  13.130   3.221
61483W        W27892  36.039  18.747   3.264
61484W        W27893  31.954  22.123  13.017
61485W        W27894  34.509  39.597   1.023
61486W        W27895  13.809  15.336  10.543
61487W        W27896   3.968  27.451   4.157
61488W        W27897  19.085  25.436  13.718
61489W        W27898   8.322  41.790  12.028
61490W        W27899   2.027   6.500  13.706
61491W        W27900  21.241  41.588   2.944
61492W        W27901  28.005  25.201  12.956
61493W        W27902   0.326  25.235   1.168
61494W        W27903  11.129  34.823   5.064
61495W        W27904  33.003  29.508   0.519
61496W        W27905   3.686  24.809  11.074
61497W        W27906   8.327  18.119  10.645
61498W        W27907  19.099  17.080  12.167
61499W        W27908   1.668  39.481  12.438
61500W        W27909  43.327  29.177   2.795
61501W        W27910  26.895  26.975   1.839
61502W        W27911  12.237  13.267   1.454
61503W        W27912  25.665  16.302   2.279
61504W        W27913   6.298  28.376   4.199
61505W        W27914  26.162  24.495   1.242
61506W        W27915  24.462  22.241  12.128
61507W        W27916   3.727   5.464   0.741
61508W        W27917  15.021  38.128  14.350
61509W        W27918  11.044  37.660   3.278
61510W        W27919  22.972   5.764  14.342
61511W        W27920   8.169  12.086   0.521
61512W        W27921  11.667   2.545  12.522
61513W        W27922   1.556  21.790   4.650
61514W        W27923  36.489  41.315  10.751
61515W        W27924  28.951   4.417   3.093
61516W        W27925   8.939  11.793   3.785
61517W        W27926  15.289   5.925  12.497
61518W        W27927  18.301   3.049  11.929
61519W        W27928  15.416   8.243  11.184
61520W        W27929  25.671   7.309  14.404
61521W        W27930  38.481  27.144  14.826
61522W        W27931  28.155   0.852  10.740
61523W        W27932  21.286  44.046   9.829
61524W        W27933  39.336  15.157   9.749
61525W        W27934   2.961  26.104   3.161
61526W        W27935  25.525  42.171  14.863
61527W        W27936  16.304  32.985   4.002
61528W        W27937  36.639  39.229   4.225
61529W        W27938  14.584  43.694   4.012
61530W        W27939  26.921  34.898   2.784
61531W        W27940  29.437  16.609  11.810
61532W        W27941  14.157  43.916   4.188
61533W        W27942  31.753  29.703  12.979
61534W        W27943   4.152  43.057  14.941
61535W        W27944   3.490  43.917  13.022
61536W        W27945  38.864  29.574   1.350
61537W        W27946  30.330  30.388   2.712
61538W        W27947  40.618   3.405   4.207
61539W        W27948  22.989  23.853  12.564
61540W        W27949   7.386   8.158   2.969
61541W        W27950   7.369  16.355   3.682
61542W        W27951  31.883  19.011   0.441
61543W        W27952  18.598  11.454   4.503
61544W        W27953  36.028  17.595  12.912
61545W        W27954  32.919  26.039  13.476
61546W        W27955   9.926   1.862   0.576
61547W        W27956   9.307  15.359  12.842
61548W        W27957  11.890  24.788  11.427
61549W        W27958  25.535  24.038  10.682
61550W        W27959   1.433  34.790   2.682
61551W        W27960  17.590  32.118  10.092
61552W        W27961  24.233  30.264   4.114
61553W        W27962  20.507  30.021  12.132
61554W        W27963  33.418   8.208   4.369
61555W        W27964  32.603  24.813   0.112
61556W        W27965   3.017   0.312   4.324
61557W        W27966  37.463  44.177  13.136
61558W        W27967  21.266  20.718  14.723
61559W        W27968  22.910  11.467  11.975
61560W        W27969  22.207  27.165   1.349
61561W        W27970   0.788  15.938  12.917
61562W        W27971  43.398  41.015  11.533
61563W        W27972  26.018  19.516   2.514
61564W        W27973  36.978  22.249  11.380
61565W        W27974  36.167  38.925  14.042
61566W        W27975  22.269  43.691   4.044
61567W        W27976  41.482  35.339  11.658
61568W        W27977  17.226  22.235  13.626
61569W        W27978  17.086  35.792   2.354
61570W        W27979  19.972  21.767  12.022
61571W        W27980  42.900  12.518   5.154
61572W        W27981  16.119   6.892   4.238
61573W        W27982   4.599   4.906   2.371
61574W        W27983  36.472  44.988   1.221
61575W        W27984   4.697   4.184   0.435
61576W        W27985  37.893  28.989  11.065
61577W        W27986  35.398  30.574  13.325
61578W        W27987   3.018  14.616   4.938
61579W        W27988   9.211  30.587  10.343
61580W        W27989  21.338   6.192  11.799
61581W        W27990  11.137   7.730  13.072
61582W        W27991  11.617  44.320   0.908
61583W        W27992  37.434  27.631   2.890
61584W        W27993  23.009  16.290  11.009
61585W        W27994  32.706  38.952   4.837
61586W        W27995  13.148   4.767  14.375
61587W        W27996  29.487  19.269  11.183
61588W        W27997  19.770  35.168   2.489
61589W        W27998  27.590  23.811  11.958
61590W        W27999  42.254  30.981   2.285
61591W        W28000  21.330  32.879   1.911
61592W        W28001  33.089   1.831  12.202
61593W        W28002  17.953  11.219   4.211
61594W        W28003  17.155  37.480  14.429
61595W        W28004  38.391  11.762   2.276
61596W        W28005  20.407   6.558  12.015
61597W        W28006  37.598  31.387   0.247
61598W        W28007  43.548  35.699  12.843
61599W        W28008  15.632  36.540  14.175
61600W        W28009   3.445  36.402  13.887
61601W        W28010  24.237  36.412  14.959
61602W        W28011  43.207   9.739  10.822
61603W        W28012  15.312  22.105   2.610
61604W        W28013   5.062  38.485   4.249
61605W        W28014  10.666  16.641   0.418
61606W        W28015  38.894  13.528   4.054
61607W        W28016   4.402   7.590   1.274
61608W        W28017  40.778  13.869  11.749
61609W        W28018   3.169   5.900  12.468
61610W        W28019  13.791  23.338   1.769
61611W        W28020   4.504  20.655  14.679
61612W        W28021   1.081  25.051   3.717
61613W        W28022   6.947  36.360  12.933
61614W        W28023   8.806   2.009   2.836
61615W        W28024  17.681  22.953   2.776
61616W        W28025  42.401  44.225   3.198
61617W        W28026  10.182  21.356   0.656
61618W        W28027   8.409  27.502   4.133
61619W        W28028  30.441  13.309   3.094
61620W        W28029  18.814  30.683  13.965
61621W        W28030  20.089   8.672  10.168
61622W        W28031  20.760   8.034  13.319
61623W        W28032   1.071  29.694   1.356
61624W        W28033  43.803   5.785   0.443
61625W        W28034  17.508   3.270   4.647
61626W        W28035  33.084  24.294  11.192
61627W        W28036  29.809  22.723   0.029
61628W        W28037   9.838  16.732  10.435
61629W        W28038  32.305  33.445   3.295
61630W        W28039  11.190  15.731   1.137
61631W        W28040   9.403  27.969   2.623
61632W        W28041  16.189   4.751   4.070
61633W        W28042  29.118  21.011   2.864
61634W        W28043  14.055  31.768   5.015
61635W        W28044  43.002  41.290  14.461
61636W        W28045  25.646  37.737  14.821
61637W        W28046   4.279  33.013   3.330
61638W        W28047  41.531   1.985   2.910
61639W        W28048  34.426  41.527  12.286
61640W        W28049   6.588  22.520  14.856
61641W        W28050   6.275  40.383   3.613
61642W        W28051  23.000  20.016   3.270
61643W        W28052  41.925  36.974   2.366
61644W        W28053  39.351  27.540  11.959
61645W        W28054   8.226  41.596   1.034
61646W        W28055  40.327  37.894   4.696
61647W        W28056  36.591  12.673   3.287
61648W        W28057  18.165  28.923   1.891
61649W        W28058  14.903  28.057  10.754
61650W        W28059   3.899  32.010   2.318
61651W        W28060  16.505  22.689  11.749
61652W        W28061  24.055  13.366   1.405
61653W        W28062  44.960  43.680   0.803
61654W        W28063  12.735  28.352  12.967
61655W        W28064  12.724  10.871  12.019
61656W        W28065  19.289   5.917  13.052
61657W        W28066  28.593  30.568   4.609
61658W        W28067   7.659  31.868  13.485
61659W        W28068  31.964  17.819  13.421
61660W        W28069  17.417  32.520  14.041
61661W        W28070  22.588  42.845   5.059
61662W        W28071  32.128   9.688   2.698
61663W        W28072  28.978  19.290   1.084
61664W        W28073  23.618  16.338  12.480
61665W        W28074  42.133  12.771  12.097
61666W        W28075  40.858  35.592  10.943
61667W        W28076  31.428  11.156  13.982
61668W        W28077  27.986  20.210   1.281
61669W        W28078  37.078   2.319   2.404
61670W        W28079  23.518  37.130  11.118
61671W        W28080  26.972  22.488   0.770
61672W        W28081   6.451  41.457  10.771
61673W        W28082  41.384  17.648  13.514
61674W        W28083  38.107  41.889  11.272
61675W        W28084  14.853   8.375  13.350
61676W        W28085  37.626  31.851   3.617
61677W        W28086  25.426  42.417  13.016
61678W        W28087  28.084  14.548   0.830
61679W        W28088   5.715  22.196  11.066
61680W        W28089  16.067  37.988   3.831
61681W        W28090  28.542  29.178  10.648
61682W        W28091  30.965   8.563  12.314
61683W        W28092  30.535  44.395  11.158
61684W        W28093  32.351  27.851   1.112
61685W        W28094  18.073  44.292  13.055
61686W        W28095  40.327  26.069   2.445
61687W        W28096  18.720  32.461  12.537
61688W        W28097  37.407  26.163  10.701
61689W        W28098   1.874  40.092  14.534
61690W        W28099  16.263  16.087   2.126
61691W        W28100   3.600  14.634  12.193
61692W        W28101  19.987  41.021  14.464
61693W        W28102  36.813  10.253   3.454
61694W        W28103  22.086  43.361  11.004
61695W        W28104  28.451  18.263   1.374
61696W        W28105   7.331   4.712  13.514
61697W        W28106  20.743  42.005  13.087
61698W        W28107  28.360  15.411  11.964
61699W        W28108   4.786  24.946   0.438
61700W        W28109  40.694  39.870   3.612
61701W        W28110   5.163  30.037   3.795
61702W        W28111   8.799  24.425  14.611
61703W        W28112  34.688  28.442  14.327
61704W        W28113  33.101  44.518   5.010
61705W        W28114  31.232  39.419  12.173
61706W        W28115   3.400   7.400  12.000
61707W        W28116  38.522  36.743  11.666
61708W        W28117  33.727  16.178   3.879
61709W        W28118  10.424  20.187   0.040
61710W        W28119   7.989   7.930  14.543
61711W        W28120  38.215  35.800   5.330
61712W        W28121  43.458  32.149  14.903
61713W        W28122  14.734  44.718   0.378
61714W        W28123   9.714  16.579  13.796
61715W        W28124  41.434   5.950  12.565
61716W        W28125   1.746  25.958  14.263
61717W        W28126  38.454  19.265   2.786
61718W        W28127  42.964  31.070   0.933
61719W        W28128  38.944  18.522   5.115
61720W        W28129   0.136  16.009  14.891
61721W        W28130  15.824  14.721  13.054
61722W        W28131  40.546  11.503   3.772
61723W        W28132  30.355  23.345  13.580
61724W        W28133  28.158  26.528   3.687
61725W        W28134  18.209  11.301   1.842
61726W        W28135   0.774  21.979   2.761
61727W        W28136   4.955  28.127  10.649
61728W        W28137   0.918  21.623  14.134
61729W        W28138   6.381   6.241   4.479
61730W        W28139  13.539  20.022  12.400
61731W        W28140   9.221  30.344  12.169
61732W        W28141  26.144  20.947  12.121
61733W        W28142  34.614   9.397   3.282
61734W        W28143  40.317   6.301  10.293
61735W        W28144  43.068  30.661   3.152
61736W        W28145  13.803  18.615  14.338
61737W        W28146  42.368  31.539   1.181
61738W        W28147  38.508  21.473   3.546
61739W        W28148  13.677  15.107   1.467
61740W        W28149  32.380  30.897   2.261
61741W        W28150  21.027   0.492   1.675
61742W        W28151   0.395  27.744   3.231
61743W        W28152   2.408   4.804  14.443
61744W        W28153  38.948  23.398  13.796
61745W        W28154   0.833   6.339  14.474
61746W        W28155  29.114   2.972   3.240
61747W        W28156   3.012  30.986  11.101
61748W        W28157  17.076  22.658   0.785
61749W        W28158  11.881  43.722  10.707
61750W        W28159   5.577  22.110   5.164
61751W        W28160   5.971  12.323  14.274
61752W        W28161  39.561  10.871  14.849
61753W        W28162  10.862  22.468  14.993
61754W        W28163  31.965   7.246   0.641
61755W        W28164  29.625  12.086  10.570
61756W        W28165  38.000  43.062   0.425
61757W        W28166  39.514  42.931   0.337
61758W        W28167  33.043  33.048  10.729
61759W        W28168   7.411  17.598  14.838
61760W        W28169  38.553   3.778   2.649
61761W        W28170  41.552  30.497  13.903
61762W        W28171  32.901   9.772  13.768
61763W        W28172  23.919  25.278   2.379
61764W        W28173  22.024  18.994  11.530
61765W        W28174   1.384  21.531  14.342
61766W        W28175  19.213  13.936   0.438
61767W        W28176   2.951  30.162  14.874
61768W        W28177  26.946   5.674  12.463
61769W        W28178   2.777  27.867  10.463
61770W        W28179  35.600  29.386  13.062
61771W        W28180  20.192  28.397   0.184
61772W        W28181  11.705   5.783   0.039
61773W        W28182  28.600  32.967   1.805
61774W        W28183  26.565   6.859   1.708
61775W        W28184  12.904  26.141   2.221
61776W        W28185  33.104  14.336   0.727
61777W        W28186  43.857  20.645  12.137
61778W        W28187  14.410  41.372   1.165
61779W        W28188  20.594  28.122  14.793
61780W        W28189  35.496  13.067  10.662
61781W        W28190  40.441  28.500  12.643
61782W        W28191  18.158  31.441   2.683
61783W        W28192  39.372  44.188   4.538
61784W        W28193   0.107  31.040  14.482
61785W        W28194  34.399  35.828   4.333
61786W        W28195   6.911  19.602  13.340
61787W        W28196  29.981  17.638  11.376
61788W        W28197   3.529  22.369  13.994
61789W        W28198  23.465  26.714   4.318
61790W        W28199  16.551  38.135  14.348
61791W        W28200  26.093  20.662   2.582
61792W        W28201  36.173   6.877   0.958
61793W        W28202  15.950  41.518  12.997
61794W        W28203   9.223  43.921  13.862
61795W        W28204  43.156   2.246   5.321
61796W        W28205  22.762  38.951   4.337
61797W        W28206  43.403  12.354   4.244
61798W        W28207  40.101  30.473  14.943
61799W        W28208  24.490  37.521  11.829
61800W        W28209  22.140  39.895   1.238
61801W        W28210   7.488  38.020  13.578
61802W        W28211  28.451  41.251  12.047
61803W        W28212  11.326  43.278   2.179
61804W        W28213   8.155  31.151   0.985
61805W        W28214  31.892  10.722   0.786
61806W        W28215  23.602  35.624  14.489
61807W        W28216   1.565  14.309   2.644
61808W        W28217  24.271   2.180   4.613
61809W        W28218  30.947  23.764  12.153
61810W        W28219  16.068  10.235   4.551
61811W        W28220  20.089  19.874  14.957
61812W        W28221  12.590  11.145   0.186
61813W        W28222  32.204   7.408  11.142
61814W        W28223  24.939  34.017   4.615
61815W        W28224  28.694  36.400   0.007
61816W        W28225   9.966  43.881  10.723
61817W        W28226  15.634   2.886  10.156
61818W        W28227   5.810   6.760  10.780
61819W        W28228   6.254  15.771   4.631
61820W        W28229   9.558  21.952   3.154
61821W        W28230  26.784  40.508  13.083
61822W        W28231  35.651  12.811   1.911
61823W        W28232  33.054  36.389   3.345
61824W        W28233  19.118  36.476   0.034
61825W        W28234  12.694   5.811  14.822
61826W        W28235  29.919  36.326   2.745
61827W        W28236   9.448   1.368  13.827
61828W        W28237  40.808  27.369  12.639
61829W        W28238  20.247  26.965  11.604
61830W        W28239  18.494  21.733   3.065
61831W        W28240   2.419   3.699  13.557
61832W        W28241  21.124  21.009  12.767
61833W        W28242  29.569  35.838   3.616
61834W        W28243  28.456  23.033  10.690
61835W        W28244  27.196  34.393  13.011
61836W        W28245  42.506  23.345  14.293
61837W        W28246   3.617  31.019  13.704
61838W        W28247  23.759  16.190  14.207
61839W        W28248  24.581  23.265  12.285
61840W        W28249  20.679  12.724   0.410
61841W        W28250  31.896  31.737  11.265
61842W        W28251  21.552  12.552   5.065
61843W        W28252   3.359   4.628  14.281
61844W        W28253  30.816  10.359   1.330
61845W        W28254  30.293  22.565   4.021
61846W        W28255  35.977  17.025   4.896
61847W        W28256  44.999  26.573   3.501
61848W        W28257  44.191  42.065   3.982
61849W        W28258  12.717  43.553  14.275
61850W        W28259   1.413  26.562  12.016
61851W        W28260   8.378  26.300  11.592
61852W        W28261   7.185   7.809   3.309
61853W        W28262   9.130  22.124  12.996
61854W        W28263  23.541  32.977   2.027
61855W        W28264   9.745  41.805  10.455
61856W        W28265  23.236   9.499   2.585
61857W        W28266  33.455  17.873  11.251
61858W        W28267  18.842  39.984  12.453
61859W        W28268  12.935  20.933   4.066
61860W        W28269  44.029  31.045   1.776
61861W        W28270  40.803  14.829   4.477
61862W        W28271  39.175   5.277  11.106
61863W        W28272  31.004   1.988  13.479
61864W        W28273  37.688   4.192   0.460
61865W        W28274  26.053  34.657   2.810
61866W        W28275  18.293  18.676  12.508
61867W        W28276  23.077  39.959   4.093
61868W        W28277  27.741  41.729  13.947
61869W        W28278   6.287  11.371  11.279
61870W        W28279  27.566  13.404   3.495
61871W        W28280  11.206  35.979   3.080
61872W        W28281  11.657  43.285   4.667
61873W        W28282   1.184  19.430   0.862
61874W        W28283  32.085  28.135  13.035
61875W        W28284  44.917   6.681   2.298
61876W        W28285  34.623  38.640  10.436
61877W        W28286   0.078  21.738   3.659
61878W        W28287   3.815  37.173  10.116
61879W        W28288  35.558  18.394   0.359
61880W        W28289  22.460  41.947   3.859
61881W        W28290   0.843   1.732   1.921
61882W        W28291  13.722   5.148   0.845
61883W        W28292  32.060  26.961  14.873
61884W        W28293   7.654  17.679   0.276
61885W        W28294  42.293  20.087  13.903
61886W        W28295  12.120   8.237  10.670
61887W        W28296  12.134  31.845  13.042
61888W        W28297  11.650  10.176   4.977
61889W        W28298   0.222  20.766  11.572
61890W        W28299   9.356  27.109   1.393
61891W        W28300  28.912  31.329  14.414
61892W        W28301  11.601  41.014  13.972
61893W        W28302   8.612  22.355   2.381
61894W        W28303  15.074   5.411   3.657
61895W        W28304  12.062  27.074  12.864
61896W        W28305  36.879  33.138  10.818
61897W        W28306  32.966  23.268  12.175
61898W        W28307  36.449  20.541   2.636
61899W        W28308  13.065  19.830  13.917
61900W        W28309  22.380   8.839   1.215
61901W        W28310   6.391  21.456   0.799
61902W        W28311  41.030   8.170   4.767
61903W        W28312  30.112  16.073  11.600
61904W        W28313  36.845  35.364  14.926
61905W        W28314   6.024  33.067  11.440
61906W        W28315  27.622  39.395  14.550
61907W        W28316   1.815   7.224  12.445
61908W        W28317  12.374   1.746   1.976
61909W        W28318  35.971  43.261   0.016
61910W        W28319  39.357  28.099  11.376
61911W        W28320  35.630   0.663   2.919
61912W        W28321  44.268  24.992   4.632
61913W        W28322  20.874  16.159  12.910
61914W        W28323  18.131  21.610   0.693
61915W        W28324  24.564  17.761   3.260
61916W        W28325  38.829  19.867  10.612
61917W        W28326  21.257  15.294   1.317
61918W        W28327   3.304  22.057  13.575
61919W        W28328  43.779  13.704  13.138
61920W        W28329  14.175  17.798  10.573
61921W        W28330  38.367  13.287   4.661
61922W        W28331  11.221  15.871  13.786
61923W        W28332   6.001  36.416   1.675
61924W        W28333   4.685  34.103   9.853
61925W        W28334  17.869   3.892   4.474
61926W        W28335   8.179  20.119   4.223
61927W        W28336  29.626  39.349   3.197
61928W        W28337   3.396   4.011  10.530
61929W        W28338  35.624   5.719  10.494
61930W        W28339   9.962  31.805   9.865
61931W        W28340  39.137   6.868  11.678
61932W        W28341  13.375   7.119  14.886
61933W        W28342   1.582  18.338  12.068
61934W        W28343  11.063   5.421   1.754
61935W        W28344  40.086  34.954  13.469
61936W        W28345  28.728  39.168  14.092
61937W        W28346  39.256  22.375   0.354
61938W        W28347  23.988  23.469   2.605
61939W        W28348   3.981  17.149   2.219
61940W        W28349  14.734  24.995   3.722
61941W        W28350   3.966   0.002  12.544
61942W        W28351  33.065  44.605   4.145
61943W        W28352  35.983  10.024   4.602
61944W        W28353  35.530  30.081  13.409
61945W        W28354  20.420  18.232   3.821
61946W        W28355  16.779  32.020  11.713
61947W        W28356  44.283  44.964   4.681
61948W        W28357  12.092  12.385   2.136
61949W        W28358  37.018   6.599  12.510
61950W        W28359  25.216  29.639  11.568
61951W        W28360   0.912  22.190  12.363
61952W        W28361   8.258  19.733  13.599
61953W        W28362  36.608  44.968  13.381
61954W        W28363  12.316  34.550   1.852
61955W        W28364  43.552  32.210   0.682
61956W        W28365  36.491  41.607   0.869
61957W        W28366  12.094  44.596  12.001
61958W        W28367  24.854  15.085  14.735
61959W        W28368  26.597  19.023   4.087
61960W        W28369  35.036  20.130   4.166
61961W        W28370  34.916  30.791  10.755
61962W        W28371  25.184   1.357   2.782
61963W        W28372  17.600   2.929   3.367
61964W        W28373   5.051  36.425   4.010
61965W        W28374   9.174  35.667   1.237
61966W        W28375   8.161  18.549   3.685
61967W        W28376  24.734  28.175   2.875
61968W        W28377  36.837  28.510   1.294
61969W        W28378  32.622  26.243  13.070
61970W        W28379  17.978  22.806  12.060
61971W        W28380  18.039  42.954   3.125
61972W        W28381  27.413  16.783   4.737
61973W        W28382  28.423   0.972   1.520
61974W        W28383  21.163  43.463  13.913
61975W        W28384  42.579  37.580  14.951
61976W        W28385   6.498   5.697   1.315
61977W        W28386   8.320  41.403  13.991
61978W        W28387   8.530  31.021   1.331
61979W        W28388   4.287  24.949   0.599
61980W        W28389  44.043  25.124   1.976
61981W        W28390  22.191  22.000  13.643
61982W        W28391  44.956  33.197   1.439
61983W        W28392  15.069  44.560  12.472
61984W        W28393  41.195  32.189  11.273
61985W        W28394  26.669  21.196   3.194
61986W        W28395  25.713  34.339  14.943
61987W        W28396   5.865  14.204  10.633
61988W        W28397  10.793  17.036  12.535
61989W        W28398  18.778   8.234   3.269
61990W        W28399  24.395   2.427   3.293
61991W        W28400   0.524  25.587   3.317
61992W        W28401  23.661  13.594   4.198
61993W        W28402  10.244   8.520  11.655
61994W        W28403   1.180  16.646  14.463
61995W        W28404  40.470  41.865   0.452
61996W        W28405  10.114  19.400   4.284
61997W        W28406  44.476   7.956  13.032
61998W        W28407  33.839   9.048   3.064
61999W        W28408  36.939  40.404   4.671
62000W        W28409  32.121  10.336   4.045
62001W        W28410  29.281  32.891   3.744
62002W        W28411  35.122   7.756   2.042
62003W        W28412   7.456  14.266   2.574
62004W        W28413  36.332  18.517  12.608
62005W        W28414  10.056  11.089  11.598
62006W        W28415  19.523   2.741  14.970
62007W        W28416   4.249  44.809   3.331
62008W        W28417  42.283   4.248   4.544
62009W        W28418  29.986   4.833  11.974
62010W        W28419  30.543  12.155  10.850
62011W        W28420   5.462  28.145   4.996
62012W        W28421  25.937  28.738  11.070
62013W        W28422  27.360   0.861  12.095
62014W        W28423  28.188   8.873  14.733
62015W        W28424  38.796   4.298   4.144
62016W        W28425   6.691   3.526   3.161
62017W        W28426  19.542  29.767   4.802
62018W        W28427  35.900  13.790   2.161
62019W        W28428  10.340  37.741   2.238
62020W        W28429   5.391  19.522   1.108
62021W        W28430   0.124  14.130  12.041
62022W        W28431  30.541  23.969  13.008
62023W        W28432  15.186   8.306  14.478
62024W        W28433  25.394  35.313   3.608
62025W        W28434  38.865  31.098  11.552
62026W        W28435  40.378  16.330  12.473
62027W        W28436   2.597  33.375  14.291
62028W        W28437   1.765  37.012   1.154
62029W        W28438  27.181  23.590  10.739
62030W        W28439   4.411  23.748   2.668
62031W        W28440   7.617  42.624   3.844
62032W        W28441   2.481   0.028   3.858
62033W        W28442  22.506   3.800   1.787
62034W        W28443   0.285  21.561   0.782
62035W        W28444   1.023  13.726   0.427
62036W        W28445  29.182  34.774   3.195
62037W        W28446   3.832  26.005  13.120
62038W        W28447  33.507  35.447   4.443
62039W        W28448   0.753  43.037   4.225
62040W        W28449  34.903  16.181  11.161
62041W        W28450  38.607  27.805   3.241
62042W        W28451   2.140  24.336   3.538
62043W        W28452   1.781  24.242   2.355
62044W        W28453  32.701  10.695   2.378
62045W        W28454  26.998  34.843   0.159
62046W        W28455  40.279  14.659  11.916
62047W        W28456  32.792  12.690   2.708
62048W        W28457  25.936  36.078  13.830
62049W        W28458   4.889  16.081  10.987
62050W        W28459   4.053  32.958   4.615
62051W        W28460  22.119  22.531  10.543
62052W        W28461  19.740  11.663   0.329
62053W        W28462   4.205  39.954  12.027
62054W        W28463  10.738  43.991   0.856
62055W        W28464  24.069  18.689  11.513
62056W        W28465   5.091  39.393  12.937
62057W        W28466  18.608  36.625  11.455
62058W        W28467  11.680  39.889   3.255
62059W        W28468   2.344  28.114  13.701
62060W        W28469  43.022  15.389   4.677
62061W        W28470  18.510   2.969  13.459
62062W        W28471  22.117   3.945   1.213
62063W        W28472   8.790  28.612  11.546
62064W        W28473  41.105  24.023   3.083
62065W        W28474   0.531   8.729   9.787
62066W        W28475   3.274  29.704   2.283
62067W        W28476  18.589   4.478   2.680
62068W        W28477  34.564  38.821   0.405
62069W        W28478   5.445  34.461   3.734
62070W        W28479  23.270  25.232   0.733
62071W        W28480   5.758  19.925   2.460
62072W        W28481   3.712   2.972   4.044
62073W        W28482  37.453  23.737   3.167
62074W        W28483   8.203  44.777   2.409
62075W        W28484  12.831   7.434   2.796
62076W        W28485   5.742  26.657   4.181
62077W        W28486  24.649  36.638   3.722
62078W        W28487  28.629  14.916   4.673
62079W        W28488  42.829  12.646  10.561
62080W        W28489   0.842  11.578  12.172
62081W        W28490  37.631  38.449  12.044
62082W        W28491   9.979  32.104  14.183
62083W        W28492  24.049  32.052   4.173
62084W        W28493   9.218  20.671  10.708
62085W        W28494  23.717   9.783  10.250
62086W        W28495  16.593  40.415   4.643
62087W        W28496   6.275  32.359   3.519
62088W        W28497  33.944  14.160  11.679
62089W        W28498   6.037  40.127   0.582
62090W        W28499   5.828  22.202   0.387
62091W        W28500   8.826  13.259   3.271
62092W        W28501  21.695   4.714   9.783
62093W        W28502  21.140  43.068   9.920
62094W        W28503   0.345  29.922   2.525
62095W        W28504   7.415  31.085   0.469
62096W        W28505  43.946   2.345  13.615
62097W        W28506  24.291  41.418   3.586
62098W        W28507   3.953  11.761  10.605
62099W        W28508  28.979   0.049   4.540
62100W        W28509   3.360  31.431  14.907
62101W        W28510  38.879  30.511  14.654
62102W        W28511  17.565  14.183  10.720
62103W        W28512  43.715  21.523   3.205
62104W        W28513  43.817  23.342  12.613
62105W        W28514  18.001   7.352   2.410
62106W        W28515   4.971  24.025   4.060
62107W        W28516  44.833  16.410  10.238
62108W        W28517  26.963  10.420  14.596
62109W        W28518  33.500  29.493   2.237
62110W        W28519  30.344  20.740  13.094
62111W        W28520  11.913  17.062   3.753
62112W        W28521  19.207  23.036  11.889
62113W        W28522   3.347   2.047   4.775
62114W        W28523  27.378   2.829  12.008
62115W        W28524  36.810  10.402  12.063
62116W        W28525   0.851  21.242   0.912
62117W        W28526  44.292   7.360  10.399
62118W        W28527  35.355  12.339  12.057
62119W        W28528  19.046  15.752  11.493
62120W        W28529  42.823  12.628  13.516
62121W        W28530  30.628  33.960  10.718
62122W        W28531   7.396  36.080  13.024
62123W        W28532  19.578  29.259  11.583
62124W        W28533  20.093  18.641   3.842
62125W        W28534  19.479  20.280   2.839
62126W        W28535  34.606  28.277   0.802
62127W        W28536   2.658  20.768   0.967
62128W        W28537  36.889  13.874  11.197
62129W        W28538  23.509  41.387   3.240
62130W        W28539  41.420  23.141   0.145
62131W        W28540  23.761  17.067  14.215
62132W        W28541  11.708   4.706   1.814
62133W        W28542  31.375  40.039  10.684
62134W        W28543  40.502  42.224   2.827
62135W        W28544  13.630   0.624   2.126
62136W        W28545   4.904  30.146   0.402
62137W        W28546  41.011  36.496   2.163
62138W        W28547   4.647  43.185  14.832
62139W        W28548   2.517  15.762  12.185
62140W        W28549  13.387  11.281   1.425
62141W        W28550  12.771  44.671  10.678
62142W        W28551  17.498  42.413  11.605
62143W        W28552   7.772   3.518  12.921
62144W        W28553  38.400  44.711   1.784
62145W        W28554  15.412  15.140   4.369
62146W        W28555  18.175  36.039  14.826
62147W        W28556   6.834  36.681  12.530
62148W        W28557  33.344  34.965   2.593
62149W        W28558  34.653  24.074  14.834
62150W        W28559  34.430  30.669   4.293
62151W        W28560  15.364  19.234   4.242
62152W        W28561   7.571  40.261   4.445
62153W        W28562  37.880  21.150   0.537
62154W        W28563  13.165  42.808   4.530
62155W        W28564  18.612   5.305   1.661
62156W        W28565   2.271   4.705   2.279
62157W        W28566  37.509  30.938  11.663
62158W        W28567  12.052  23.735   3.599
62159W        W28568   8.849   8.927  10.591
62160W        W28569  33.868  22.319   0.366
62161W        W28570  31.911  41.251  14.715
62162W        W28571  22.334   2.089  13.829
62163W        W28572  36.560  20.342  12.405
62164W        W28573  14.090  19.524  12.168
62165W        W28574  13.038  43.166   2.208
62166W        W28575  27.933  11.240   1.670
62167W        W28576  33.208   7.771  12.024
62168W        W28577  17.866  20.765   5.327
62169W        W28578  33.099  31.095  12.501
62170W        W28579  41.874  25.544   1.395
62171W        W28580  32.844  12.357   2.331
62172W        W28581  42.939  31.566  13.560
62173W        W28582  12.760  25.746  13.543
62174W        W28583  28.540  29.928   4.066
62175W        W28584   1.444  32.859   0.785
62176W        W28585   2.916  38.959   1.266
62177W        W28586  23.471  37.458  12.027
62178W        W28587  17.999   4.362   4.239
62179W        W28588  39.801  21.642  14.251
62180W        W28589  41.319   6.325   0.344
62181W        W28590  23.122  33.649   4.383
62182W        W28591  24.713  28.905  14.924
62183W        W28592  32.382  13.753   1.086
62184W        W28593   5.545  37.357   4.875
62185W        W28594  18.705  34.053  12.712
62186W        W28595   3.361  20.823  11.425
62187W        W28596  12.761  40.306  13.965
62188W        W28597  14.531   0.187   5.049
62189W        W28598  38.171  21.811  13.179
62190W        W28599  41.027  14.117  14.765
62191W        W28600  25.675  27.961   1.172
62192W        W28601  42.250  27.924  10.705
62193W        W28602  11.329  35.863   0.716
62194W        W28603  10.305  13.708   4.051
62195W        W28604  39.041  21.703  10.116
62196W        W28605  32.389  32.030  12.285
62197W        W28606  40.437  40.027  13.058
62198W        W28607  23.777  41.356   1.822
62199W        W28608  17.742  33.789   1.770
62200W        W28609  34.301  18.085  10.807
62201W        W28610  38.187  19.737  14.240
62202W        W28611  12.276  18.722  13.526
62203W        W28612  41.566  31.204  14.993
62204W        W28613  16.941  18.064   4.081
62205W        W28614  14.478  33.827  14.242
62206W        W28615  23.626  23.347  11.436
62207W        W28616  11.719  40.282  13.522
62208W        W28617  23.214   3.912   3.233
62209W        W28618   5.815  12.208  11.371
62210W        W28619  43.545  25.530  14.445
62211W        W28620  41.837  24.939   2.727
62212W        W28621  38.149   4.976  10.625
62213W        W28622  10.675  22.980  14.969
62214W        W28623  38.501   4.756  13.688
62215W        W28624  23.557  12.871  11.106
62216W        W28625  10.944   9.285  13.100
62217W        W28626  23.564  20.049  14.453
62218W        W28627  26.998  18.127   1.509
62219W        W28628   8.475   5.973  11.552
62220W        W28629  33.897  40.242   2.521
62221W        W28630  23.708  24.180   2.734
62222W        W28631  13.177  27.704  11.564
62223W        W28632   4.918  29.159  10.462
62224W        W28633  43.787  22.541  13.325
62225W        W28634   3.839  20.764   0.245
62226W        W28635   0.956  16.143   1.189
62227W        W28636  34.914  40.833  10.427
62228W        W28637   8.097  38.337  11.924
62229W        W28638  18.274   2.200  12.666
62230W        W28639   7.835  36.865  12.008
62231W        W28640  10.368  17.503   0.950
62232W        W28641  42.028  12.717  11.198
62233W        W28642  17.988  20.316  11.579
62234W        W28643   4.459  33.055  10.610
62235W        W28644  12.978  33.696   3.195
62236W        W28645   2.021  41.833   4.198
62237W        W28646  40.929  31.028   3.334
62238W        W28647  21.332   2.428   3.947
62239W        W28648  35.127  28.985   0.791
62240W        W28649  22.674  11.395  13.427
62241W        W28650  16.280   6.766  12.897
62242W        W28651  44.233  11.866   3.344
62243W        W28652  14.377  44.325   0.351
62244W        W28653  30.201  22.544   1.305
62245W        W28654   1.550   3.270   0.352
62246W        W28655   3.656  26.738  11.670
62247W        W28656  35.594  20.148  11.523
62248W        W28657  31.986  35.558   3.649
62249W        W28658   7.864  19.029  13.052
62250W        W28659  18.933  38.799   3.298
62251W        W28660  38.162  19.165   0.526
62252W        W28661   0.884   5.419  13.938
62253W        W28662  33.403  12.104  12.988
62254W        W28663  14.679   2.342   1.951
62255W        W28664  10.399  33.309  11.037
62256W        W28665  27.855  39.264  11.578
62257W        W28666  37.436  32.890   4.472
62258W        W28667  33.464  16.066  10.552
62259W        W28668   5.970  28.415   5.036
62260W        W28669   9.839  37.421   5.039
62261W        W28670  43.381  13.797  12.540
62262W        W28671   0.780  22.132  14.228
62263W        W28672  43.400  38.258   1.261
62264W        W28673  25.247  25.623  11.538
62265W        W28674  32.755   6.360  13.408
62266W        W28675  25.031  29.760  12.449
62267W        W28676   9.834  44.776  11.197
62268W        W28677  39.062   9.326   3.659
62269W        W28678  30.416  15.335  12.641
62270W        W28679  31.584  27.105  14.030
62271W        W28680  21.001  24.722   2.277
62272W        W28681   1.212  37.418   0.915
62273W        W28682   2.539  40.807   3.638
62274W        W28683  26.021  12.074  13.961
62275W        W28684  38.758  43.958   3.307
62276W        W28685  21.466  13.235   4.113
62277W        W28686   1.216  40.391   0.830
62278W        W28687  10.035   5.366   1.727
62279W        W28688  27.953  30.284  14.437
62280W        W28689  18.568  23.157  13.112
62281W        W28690  43.454  12.220   3.241
62282W        W28691   2.293  20.447   4.604
62283W        W28692  23.088  43.178  14.426
62284W        W28693  33.328  27.244   4.075
62285W        W28694  25.529  36.502   3.314
62286W        W28695   6.264   2.228  12.099
62287W        W28696  17.618  24.064  14.484
62288W        W28697  31.927  43.220   0.737
62289W        W28698  32.664  11.266  14.927
62290W        W28699   9.769  29.522   1.139
62291W        W28700   0.624  13.484  14.492
62292W        W28701  34.087   9.235  12.235
62293W        W28702   8.628  23.668  10.670
62294W        W28703  33.880  12.741  12.552
62295W        W28704  44.215   3.524  14.987
62296W        W28705  36.985  16.884   0.733
62297W        W28706   2.258  24.077   4.333
62298W        W28707  10.779  37.078  11.656
62299W        W28708   7.767   4.967   1.744
62300W        W28709  24.919  33.837   3.626
62301W        W28710  20.656  13.813   4.472
62302W        W28711   3.932  17.256   1.358
62303W        W28712   0.774  33.356  14.590
62304W        W28713   0.694   4.872   0.047
62305W        W28714  17.798   0.318   1.381
62306W        W28715  13.516  34.764   1.185
62307W        W28716  16.698   2.199  13.915
62308W        W28717  14.656   6.736  12.621
62309W        W28718  15.269  43.840   0.228
62310W        W28719   3.222   1.502  14.903
62311W        W28720  34.933  14.001   1.265
62312W        W28721  31.551  17.064   3.568
62313W        W28722   5.189  44.733   0.336
62314W        W28723   5.435   4.414  11.125
62315W        W28724   1.361  29.687  12.521
62316W        W28725  31.885  13.695  12.603
62317W        W28726  36.600  29.224   2.251
62318W        W28727  37.721   5.861  14.748
62319W        W28728  33.309  37.804  11.160
62320W        W28729  35.424  39.036   2.782
62321W        W28730  13.837   7.956  13.544
62322W        W28731  38.763  38.380   2.215
62323W        W28732   2.313   3.828   0.458
62324W        W28733   2.541  25.239   4.927
62325W        W28734  12.774  39.040  13.763
62326W        W28735  25.717  31.062   3.270
62327W        W28736  33.970  41.537  13.665
62328W        W28737  41.525  27.117   3.675
62329W        W28738  24.339  25.343   0.743
62330W        W28739  19.714   9.290  14.927
62331W        W28740  41.478  34.906   2.799
62332W        W28741  20.807  35.953   0.367
62333W        W28742  14.262  36.878  13.503
62334W        W28743  12.281  43.005  10.345
62335W        W28744  10.076  40.845  14.939
62336W        W28745  35.977   9.100   0.421
62337W        W28746   4.822  44.152  10.763
62338W        W28747  18.445  14.314   1.681
62339W        W28748  25.663   1.250   4.098
62340W        W28749  18.040  19.164  13.307
62341W        W28750  27.249  23.669   3.514
62342W        W28751  29.573  17.199   4.629
62343W        W28752  44.422  27.529  11.138
62344W        W28753  17.578  29.118   0.701
62345W        W28754  33.377  34.515   4.581
62346W        W28755  17.547  28.425  14.552
62347W        W28756  20.791  17.509   0.665
62348W        W28757  43.994  14.136  14.364
62349W        W28758  24.467   2.995  14.327
62350W        W28759  41.290  13.850   4.187
62351W        W28760  13.261  32.840   4.716
62352W        W28761  22.582  14.043  10.185
62353W        W28762  38.442  15.090   4.630
62354W        W28763  29.696  37.437   4.643
62355W        W28764  27.787  43.162   2.239
62356W        W28765  10.590  33.150  14.963
62357W        W28766  32.590  39.808   2.464
62358W        W28767   7.180  39.362   4.146
62359W        W28768   4.883   3.952  13.284
62360W        W28769   2.330  39.527   2.376
62361W        W28770   6.638  30.935   3.706
62362W        W28771  22.577  38.300  13.598
62363W        W28772  11.020  28.021  11.974
62364W        W28773  35.974   2.920   3.112
62365W        W28774  22.023  14.890  13.926
62366W        W28775   7.731  14.808  12.891
62367W        W28776  30.543  25.718  13.989
62368W        W28777  13.099  31.160   1.709
62369W        W28778  29.953  10.227  12.941
62370W        W28779  27.722  43.937  14.783
62371W        W28780   8.444  21.979  12.554
62372W        W28781  27.753   8.648   1.019
62373W        W28782  42.032   4.317  12.880
62374W        W28783   8.920  41.762   2.437
62375W        W28784  43.030  11.608   4.893
62376W        W28785  20.118  33.567   3.657
62377W        W28786  12.139  42.730   2.440
62378W        W28787  10.383  32.990   4.458
62379W        W28788  16.740   7.138   1.362
62380W        W28789  15.820  21.143  11.537
62381W        W28790  29.398  16.205   0.315
62382W        W28791  18.096   0.498  10.442
62383W        W28792   1.876  19.823  14.396
62384W        W28793  38.260  38.283  12.527
62385W        W28794  15.607  21.243   3.866
62386W        W28795   0.259  30.047   0.311
62387W        W28796  25.056  32.131   2.732
62388W        W28797  14.753  37.949   1.145
62389W        W28798  32.881  15.193  11.804
62390W        W28799  22.477  23.071   0.233
62391W        W28800   0.744  17.640  13.953
62392W        W28801  37.196  25.188  13.527
62393W        W28802   3.650   7.161   3.638
62394W        W28803  15.688  12.160   1.976
62395W        W28804   4.723  34.416   1.797
62396W        W28805  21.799  17.671   2.344
62397W        W28806  14.283  39.000   1.670
62398W        W28807  15.341  38.520   4.502
62399W        W28808  32.529  42.844  11.695
62400W        W28809  32.091  33.659   1.256
62401W        W28810  24.456  34.081   2.886
62402W        W28811  44.780   3.895   4.356
62403W        W28812  26.145  28.409  13.403
62404W        W28813  21.625  10.708   3.380
62405W        W28814  27.960  10.370  11.896
62406W        W28815  22.814  35.859   3.047
62407W        W28816  38.845  20.209  13.050
62408W        W28817  35.370  35.260  12.900
62409W        W28818  21.141  34.087  14.008
62410W        W28819  33.666  22.229  11.085
62411W        W28820  27.948   7.125   0.730
62412W        W28821  44.279   5.388   2.714
62413W        W28822  41.904  11.296   3.788
62414W        W28823  35.216  40.957  14.279
62415W        W28824  38.094  18.927   2.606
62416W        W28825   4.268  25.184  12.027
62417W        W28826  15.116  38.587  13.519
62418W        W28827   2.220  25.403   4.564
62419W        W28828   3.855  39.338   1.848
62420W        W28829   8.642   9.592   2.742
62421W        W28830   7.128  30.090  13.122
62422W        W28831  26.474  21.649  13.495
62423W        W28832  10.395  16.997   0.989
62424W        W28833  19.104  40.126  14.908
62425W        W28834   9.733  10.146  13.078
62426W        W28835  38.967  15.574   5.076
62427W        W28836  31.519  44.472  13.267
62428W        W28837  27.445  18.162  13.810
62429W        W28838  10.691  30.352  11.113
62430W        W28839  16.112  15.636   4.195
62431W        W28840   8.423  43.964   2.747
62432W        W28841   5.218  15.654   1.859
62433W        W28842  42.944  31.901  12.195
62434W        W28843  25.682  30.501  11.629
62435W        W28844  13.119   8.416   2.724
62436W        W28845  30.874  14.431   0.875
62437W        W28846  42.424  21.077   3.657
62438W        W28847  37.957  31.191  11.302
62439W        W28848  40.758   3.853   3.065
62440W        W28849  19.556   8.636  14.274
62441W        W28850  28.752  34.404   3.841
62442W        W28851  20.677  16.620   1.127
62443W        W28852   2.419   5.842   4.155
62444W        W28853  20.109  15.029  13.156
62445W        W28854  14.150  31.342   2.680
62446W        W28855  17.022  15.914   5.167
62447W        W28856   7.901  17.139  13.461
62448W        W28857  38.432  29.536  14.001
62449W        W28858  44.981   7.972   3.705
62450W        W28859  13.460   8.781  14.456
62451W        W28860  23.767  19.270   1.270
62452W        W28861   2.358  42.738  11.673
62453W        W28862  17.371  12.575  11.119
62454W        W28863   3.795  39.843   1.975
62455W        W28864   8.688  41.452   4.158
62456W        W28865   8.956  20.220  11.996
62457W        W28866  27.300  27.595   3.901
62458W        W28867  20.501  29.522   1.716
62459W        W28868  20.634   1.442  14.799
62460W        W28869   8.275   4.036   1.271
62461W        W28870   9.308  14.489   3.884
62462W        W28871  13.069  31.545   4.318
62463W        W28872  38.856  13.470   1.193
62464W        W28873   5.651  20.216  14.636
62465W        W28874   9.841  42.687  14.737
62466W        W28875  23.973  25.661  12.159
62467W        W28876  23.431  25.641  13.648
62468W        W28877   5.994   7.837   2.292
62469W        W28878  23.022  40.852  14.230
62470W        W28879   8.454  16.128  12.131
62471W        W28880  44.755  16.201   3.823
62472W        W28881   2.927  37.973  11.098
62473W        W28882  36.930  27.070  13.363
62474W        W28883  18.760  19.056   4.258
62475W        W28884  24.691  11.198  12.998
62476W        W28885  11.239   9.296   1.774
62477W        W28886   1.473  36.418  14.900
62478W        W28887  17.251  18.070   3.202
62479W        W28888  19.054  29.937  12.955
62480W        W28889  25.529  39.854   4.710
62481W        W28890  11.315  38.593   2.209
62482W        W28891  40.267  35.207   1.996
62483W        W28892  18.518  22.700   3.938
62484W        W28893  34.416  23.757  13.002
62485W        W28894  16.230  17.556   2.300
62486W        W28895  13.339  19.073   0.010
62487W        W28896   8.124   9.361   0.686
62488W        W28897  29.142  20.688  14.891
62489W        W28898  34.200  22.932   3.657
62490W        W28899   2.551   9.883   4.234
62491W        W28900  34.772  42.561  13.316
62492W        W28901   4.383  37.778  12.708
62493W        W28902  20.691  19.068   0.309
62494W        W28903  10.062  44.761  12.453
62495W        W28904  18.817  34.662  10.181
62496W        W28905   3.366   1.818   0.717
62497W        W28906  31.556  42.944  11.765
62498W        W28907  39.456   2.511   0.533
62499W        W28908  19.674  24.941  12.577
62500W        W28909   3.941  17.076  14.801
62501W        W28910   3.181  14.790  11.484
62502W        W28911  43.299  17.759   0.819
62503W        W28912  37.813  34.481  10.477
62504W        W28913  20.745   1.405  10.679
62505W        W28914  34.362  39.402   4.916
62506W        W28915  31.072   9.809   4.628
62507W        W28916   3.679  24.097   4.176
62508W        W28917  43.349  12.150  14.809
62509W        W28918  40.869  44.720   4.551
62510W        W28919  12.185  18.688   3.644
62511W        W28920   4.238  28.642  12.327
62512W        W28921   4.814  42.725  10.443
62513W        W28922  43.872  27.121   0.313
62514W        W28923  37.972  26.486   3.244
62515W        W28924  12.768  10.424  12.955
62516W        W28925  21.210  37.020   1.415
62517W        W28926   9.582  42.378  14.382
62518W        W28927  13.702  28.606  14.322
62519W        W28928   8.130   9.854   1.435
62520W        W28929  28.964  18.557   3.237
62521W        W28930  23.169   3.854  11.720
62522W        W28931   9.233   1.145   4.205
62523W        W28932  31.182  23.094  11.055
62524W        W28933  19.127  11.882   3.724
62525W        W28934  13.486  20.755   0.375
62526W        W28935  35.467  34.541   4.791
62527W        W28936  34.847  20.321   3.583
62528W        W28937  22.936  24.550  12.013
62529W        W28938  12.917  29.911   1.652
62530W        W28939   3.524  23.374  13.240
62531W        W28940  34.252   4.454   3.246
62532W        W28941  12.182  14.991  12.319
62533W        W28942  17.370  13.838  12.891
62534W        W28943  22.846  42.945  14.829
62535W        W28944  17.834  23.330   3.283
62536W        W28945  15.089  16.735   1.703
62537W        W28946  17.853  41.250  12.870
62538W        W28947  25.095  19.167   0.004
62539W        W28948  29.316   4.637   2.416
62540W        W28949   2.476  38.615   1.385
62541W        W28950  36.408  19.346   4.568
62542W        W28951  33.559  18.269   2.344
62543W        W28952   1.996  30.183   5.126
62544W        W28953  22.531  35.427   1.894
62545W        W28954  25.820  35.604   3.713
62546W        W28955  37.298  14.091   3.396
62547W        W28956   6.318  18.296   0.998
62548W        W28957  18.653  39.542   0.525
62549W        W28958  41.768  22.800   3.256
62550W        W28959   6.650   9.229  10.647
62551W        W28960   4.182  33.316  12.147
62552W        W28961  17.993  28.235  11.170
62553W        W28962   0.016  17.221   3.659
62554W        W28963  22.090   1.225  13.612
62555W        W28964  32.559  19.429  12.650
62556W        W28965  21.735  10.420   0.221
62557W        W28966  33.386   6.176  11.642
62558W        W28967   5.439  10.077  11.137
62559W        W28968  27.190  21.520   9.734
62560W        W28969   4.182  10.652  14.903
62561W        W28970  41.451  19.340  11.089
62562W        W28971  39.995  17.696  12.643
62563W        W28972   2.246   4.378   4.353
62564W        W28973  32.067  20.746   2.997
62565W        W28974  44.809   0.332  13.057
62566W        W28975  19.131  28.650   3.755
62567W        W28976  18.580  25.744  13.902
62568W        W28977  36.785  24.427  11.620
62569W        W28978  14.899  14.130  13.886
62570W        W28979  38.742   6.791  13.522
62571W        W28980  15.566  38.868  12.356
62572W        W28981  14.628  13.178   1.468
62573W        W28982  42.667  30.576  12.124
62574W        W28983  15.690  24.119   3.256
62575W        W28984  25.571  15.756  10.787
62576W        W28985   5.077  43.257  13.427
62577W        W28986   1.351  22.264   4.694
62578W        W28987  39.013  27.926  14.572
62579W        W28988  27.973  39.304   2.816
62580W        W28989  27.934   5.246   3.298
62581W        W28990  22.600  33.845  11.601
62582W        W28991  24.501  17.036  13.475
62583W        W28992   4.422  44.458  10.941
62584W        W28993  21.050  17.613  14.517
62585W        W28994  27.260  43.935  13.908
62586W        W28995  44.317  21.145  12.578
62587W        W28996  19.657  32.442  12.411
62588W        W28997   2.341  30.491  10.848
62589W        W28998  11.813  19.408  14.451
62590W        W28999   0.468  25.737  12.516
62591W        W29000  17.650  16.965   0.333
62592W        W29001  24.994  13.233   3.213
62593W        W29002  26.404  14.458  13.166
62594W        W29003  28.581  39.523  12.620
62595W        W29004  23.789  27.270  13.821
62596W        W29005  29.120  17.942   1.606
62597W        W29006  36.303   2.691   1.502
62598W        W29007  12.567  15.159   0.319
62599W        W29008  30.366  14.301  14.900
62600W        W29009  20.642  34.703   2.655
62601W        W29010  15.745  26.511   1.854
62602W        W29011  15.141   4.508  10.516
62603W        W29012   3.665  41.232  10.328
62604W        W29013  18.264   8.736  12.606
62605W        W29014  30.584   7.786  11.386
62606W        W29015  17.791  31.721   3.130
62607W        W29016  16.751  30.997   0.775
62608W        W29017  23.610   9.308  13.563
62609W        W29018  30.300  44.247  12.571
62610W        W29019   1.460  21.297   4.518
62611W        W29020   2.710  21.641   1.089
62612W        W29021  20.427  39.577  14.327
62613W        W29022  27.867  42.832   1.441
62614W        W29023  37.391   8.670  10.435
62615W        W29024  23.779  37.611  13.285
62616W        W29025  40.317  26.440   1.152
62617W        W29026   0.302  26.213   3.269
62618W        W29027  35.844  29.180   0.008
62619W        W29028  12.318  43.891  12.604
62620W        W29029  44.439  22.148  14.019
62621W        W29030  37.492  36.825   2.416
62622W        W29031  35.571  19.644   3.294
62623W        W29032  31.993  40.715  14.842
62624W        W29033  20.950  39.932   1.780
62625W        W29034  10.501  31.872   4.650
62626W        W29035  27.028  10.485  10.289
62627W        W29036  37.070  27.986   0.292
62628W        W29037  43.362  15.825  11.314
62629W        W29038  42.961  16.508   0.772
62630W        W29039  24.310  41.262   4.531
62631W        W29040  24.139  28.951   3.333
62632W        W29041  10.257  14.624  12.406
62633W        W29042  26.638   0.531  13.563
62634W        W29043  19.260  44.391  11.100
62635W        W29044  26.518   2.262  13.873
62636W        W29045  42.776   8.391   4.081
62637W        W29046  31.623  12.562   0.618
62638W        W29047  33.144  42.865   3.716
62639W        W29048  26.453  43.881  11.393
62640W        W29049  28.043  39.343   3.342
62641W        W29050   8.838  23.951   0.508
62642W        W29051   6.322   4.433   1.846
62643W        W29052  16.083  36.508  13.902
62644W        W29053  27.292  41.777  13.423
62645W        W29054   5.903  37.550   4.546
62646W        W29055  21.416   0.695  12.104
62647W        W29056  36.093  15.822   0.771
62648W        W29057   0.469  24.154  14.784
62649W        W29058  18.405  38.382   5.824
62650W        W29059  27.424   5.359   4.118
62651W        W29060  28.732   2.276   0.949
62652W        W29061   4.311  24.289  10.695
62653W        W29062  35.847   8.677   4.104
62654W        W29063  34.899   2.414   2.669
62655W        W29064  13.886  28.234   2.922
62656W        W29065   7.892  18.506  12.196
62657W        W29066  14.885  11.194  11.425
62658W        W29067  36.027  10.407   2.737
62659W        W29068  16.658  44.202   1.301
62660W        W29069  38.178  32.887  11.528
62661W        W29070  40.419  34.539  13.551
62662W        W29071  38.363  25.183  13.908
62663W        W29072  38.706  41.393  13.543
62664W        W29073  27.296  35.469   3.597
62665W        W29074  21.480   8.597  13.279
62666W        W29075  13.101  15.666  10.889
62667W        W29076  24.054  20.317  12.406
62668W        W29077  13.268  24.463   1.475
62669W        W29078  26.582  35.954   2.661
62670W        W29079  33.829  30.203   3.861
62671W        W29080  38.566  39.932   4.172
62672W        W29081  24.975  37.304   0.885
62673W        W29082   4.167  36.444  12.899
62674W        W29083   7.370  32.700   0.496
62675W        W29084  20.735  44.925   2.272
62676W        W29085  26.506  19.533  14.983
62677W        W29086   9.418  11.211  14.930
62678W        W29087   4.703   7.312  14.380
62679W        W29088  38.911  20.616   2.651
62680W        W29089  34.361  28.198   2.372
62681W        W29090  42.841   0.857  14.287
62682W        W29091  39.052  10.164   1.383
62683W        W29092  38.515  21.493  12.929
62684W        W29093  38.578   2.916  10.527
62685W        W29094  42.068   5.925  13.439
62686W        W29095  31.889   8.673  12.498
62687W        W29096  34.030  32.462  14.557
62688W        W29097  12.994  34.642   3.179
62689W        W29098  13.370  26.102  12.494
62690W        W29099  17.535  21.230   3.766
62691W        W29100  25.252  35.732  13.021
62692W        W29101  10.972  39.496   1.031
62693W        W29102  17.564  12.656   1.069
62694W        W29103  20.215  16.344   1.131
62695W        W29104  40.999  34.832   4.755
62696W        W29105  31.387  41.358  13.973
62697W        W29106  32.151  10.265   0.823
62698W        W29107  20.998  29.676   3.153
62699W        W29108  36.141   4.350  11.564
62700W        W29109  22.463   9.699  11.594
62701W        W29110  35.034   8.913   2.804
62702W        W29111   8.188   4.109  13.724
62703W        W29112  22.277   4.940   1.040
62704W        W29113   5.218  35.137   1.684
62705W        W29114  19.643  13.074   2.231
62706W        W29115  44.349   5.243  13.455
62707W        W29116  13.737   1.600  10.597
62708W        W29117  26.228   2.795  14.582
62709W        W29118  33.979  32.531   4.142
62710W        W29119  30.195  35.089  14.925
62711W        W29120   6.733  22.274   1.333
62712W        W29121   4.526  32.084  11.525
62713W        W29122  36.081  37.861  11.024
62714W        W29123  11.643  28.659   1.155
62715W        W29124  31.075  38.935   4.957
62716W        W29125  43.497  22.186  11.087
62717W        W29126  32.434   3.894  14.335
62718W        W29127  35.213  26.454   5.053
62719W        W29128   8.873  17.398  12.043
62720W        W29129  42.444  31.413   2.558
62721W        W29130   8.289  11.529  11.595
62722W        W29131  30.260  20.547  12.101
62723W        W29132   4.578   4.885  11.564
62724W        W29133   2.400  37.183   2.391
62725W        W29134  25.368   0.023   2.650
62726W        W29135   5.326   3.355  11.980
62727W        W29136   4.983   9.659   0.995
62728W        W29137  36.083  14.869   4.134
62729W        W29138  13.383  41.088   3.648
62730W        W29139  30.199  11.909  13.503
62731W        W29140  36.438  44.464   0.320
62732W        W29141  17.782   1.119   3.159
62733W        W29142  18.219  36.922  12.595
62734W        W29143  10.234  25.312   3.943
62735W        W29144  20.956  23.019   2.778
62736W        W29145  16.552  14.968   0.864
62737W        W29146  23.568  36.868   4.071
62738W        W29147  12.723  26.615  11.942
62739W        W29148   5.831  34.039  11.265
62740W        W29149  44.785   3.507  13.418
62741W        W29150   7.889  12.563   2.260
62742W        W29151   8.361   1.511  10.684
62743W        W29152  26.488  17.659   4.310
62744W        W29153  36.814   8.826  11.259
62745W        W29154   9.354  44.287  14.284
62746W        W29155  10.761   5.999  11.918
62747W        W29156  30.163  30.664  14.927
62748W        W29157   9.795  28.452   1.007
62749W        W29158   3.419  14.554  12.714
62750W        W29159   2.626   3.174   1.122
62751W        W29160  22.197  14.858  12.592
62752W        W29161  44.822  15.148   0.996
62753W        W29162  38.418  20.917   4.174
62754W        W29163   6.350   7.173   1.159
62755W        W29164  43.001  42.849  13.763
62756W        W29165  28.473  12.703   4.908
62757W        W29166  16.264   3.272  11.532
62758W        W29167  28.370   2.462  14.979
62759W        W29168   3.923  35.139  11.147
62760W        W29169  39.974   1.142   2.153
62761W        W29170   2.704  34.881   1.721
62762W        W29171  13.714  42.913   1.389
62763W        W29172   9.756  31.201   1.736
62764W        W29173  13.919  44.826   3.822
62765W        W29174   3.290  42.867   0.840
62766W        W29175   8.334  44.547   1.321
62767W        W29176  24.688  25.985  13.198
62768W        W29177   2.457  18.371  11.717
62769W        W29178  12.196  33.984  10.751
62770W        W29179  26.502  25.885   4.928
62771W        W29180  18.088  25.114   0.188
62772W        W29181  31.594  24.892   0.942
62773W        W29182  34.449  25.450   4.278
62774W        W29183  18.083  44.963  12.396
62775W        W29184  24.730  40.591  11.889
62776W        W29185  16.022  10.466  12.423
62777W        W29186  40.517  26.569   0.645
62778W        W29187  24.828  28.118  13.652
62779W        W29188  34.919  24.209   3.805
62780W        W29189   6.128   8.999   1.440
62781W        W29190  15.900  19.051   4.325
62782W        W29191  27.141  32.465   0.951
62783W        W29192  19.146  23.293   4.759
62784W        W29193  14.388  27.496   1.314
62785W        W29194  38.836  22.596  10.669
62786W        W29195  27.015   2.198   4.589
62787W        W29196  10.803  12.429  13.019
62788W        W29197   2.328   4.876  11.079
62789W        W29198   3.532  29.527  14.415
62790W        W29199  13.647  11.356   4.106
62791W        W29200  39.933   7.872  12.511
62792W        W29201  14.394   1.892   2.836
62793W        W29202  20.603  44.532  11.557
62794W        W29203  12.736  23.403  12.579
62795W        W29204   1.743  36.021   0.791
62796W        W29205  31.101  38.828   0.287
62797W        W29206  21.610   3.949  12.616
62798W        W29207  42.110  27.430  14.893
62799W        W29208  40.404   0.660   2.842
62800W        W29209  40.533  25.204  12.211
62801W        W29210  39.431  11.673   2.110
62802W        W29211  13.734  32.606  14.884
62803W        W29212  39.091  16.489  13.432
62804W        W29213  22.715   2.178  12.041
62805W        W29214  21.965   8.921   3.709
62806W        W29215  30.538   2.026   4.088
62807W        W29216  36.961  12.396   0.022
62808W        W29217  33.165  12.639  11.603
62809W        W29218  31.036  11.851   2.612
62810W        W29219  39.771  10.818   4.214
62811W        W29220  41.907  35.863   1.337
62812W        W29221  30.489  33.885   3.778
62813W        W29222  18.328   9.690  14.350
62814W        W29223   8.313  10.445  11.947
62815W        W29224   8.949   9.698  10.946
62816W        W29225   1.565  30.528  14.362
62817W        W29226  25.198   2.363  13.124
62818W        W29227  26.452   1.911   2.785
62819W        W29228  16.141   1.713  14.387
62820W        W29229  32.876  40.944  14.899
62821W        W29230  24.214   3.304   0.709
62822W        W29231   3.304  36.220   0.236
62823W        W29232  20.569   1.278   1.748
62824W        W29233  37.285  24.397  11.327
62825W        W29234  15.660  18.216   5.571
62826W        W29235   4.895  10.728  10.797
62827W        W29236   4.681  25.105   0.930
62828W        W29237   3.819  11.127  12.857
62829W        W29238  41.424  26.802   2.583
62830W        W29239   2.352  27.565  12.516
62831W        W29240   1.869   5.308  10.810
62832W        W29241   8.851  42.309   3.992
62833W        W29242   9.859  15.185  13.934
62834W        W29243   5.955   7.122   3.130
62835W        W29244  36.861  12.733   1.215
62836W        W29245  39.231  24.731   1.558
62837W        W29246  35.042  16.298  13.482
62838W        W29247  31.092  36.045   2.239
62839W        W29248  17.506   6.760  14.325
62840W        W29249  16.251  20.794  11.475
62841W        W29250  18.066   3.901  11.541
62842W        W29251  10.305   9.358   1.760
62843W        W29252   1.581   8.396  11.666
62844W        W29253  19.521  28.631  13.574
62845W        W29254   7.976  17.495   4.264
62846W        W29255  19.579  36.693  13.134
62847W        W29256  26.057   7.886   2.815
62848W        W29257  19.181  14.574  12.761
62849W        W29258  13.202   2.410   2.847
62850W        W29259  40.461  33.970  12.439
62851W        W29260  39.528  44.232  11.655
62852W        W29261  23.503  10.820  10.737
62853W        W29262   2.593   1.198  11.302
62854W        W29263  26.729  22.502   0.201
62855W        W29264  23.475  32.097  10.769
62856W        W29265  43.851  20.305   0.540
62857W        W29266  21.012   7.191   3.708
62858W        W29267  36.599  21.511   3.174
62859W        W29268  20.938  38.971  11.453
62860W        W29269  21.650   8.502   2.519
62861W        W29270  13.326  44.969  11.991
62862W        W29271  38.106  32.996   0.238
62863W        W29272  30.862  16.747   0.791
62864W        W29273  12.247  34.525  11.694
62865W        W29274  29.637   5.501   3.619
62866W        W29275  12.397  35.178  12.429
62867W        W29276  28.290  13.427  11.931
62868W        W29277  15.154  10.781   4.536
62869W        W29278  13.707  43.724  14.484
62870W        W29279  14.360  24.089   1.630
62871W        W29280  28.176  28.697  11.565
62872W        W29281   2.512  43.158  13.937
62873W        W29282  32.383  33.033  13.514
62874W        W29283   8.609   5.196   0.437
62875W        W29284  18.637  34.826  12.020
62876W        W29285  17.377  25.143  10.224
62877W        W29286  21.778  15.976  14.466
62878W        W29287  34.139   5.313  12.582
62879W        W29288   3.508   6.396   1.725
62880W        W29289  11.592  12.161  12.543
62881W        W29290  26.038  23.589   1.738
62882W        W29291  19.814  40.526   1.814
62883W        W29292   4.227   1.085   3.149
62884W        W29293   4.678   4.892   3.261
62885W        W29294  30.900  19.861   2.737
62886W        W29295  18.243  44.556   1.369
62887W        W29296  37.431  34.097  14.891
62888W        W29297  42.328   1.329  12.977
62889W        W29298  18.511  32.657  11.198
62890W        W29299   9.478  22.805  11.236
62891W        W29300   8.086  38.257  12.960
62892W        W29301  41.316  30.595  13.443
62893W        W29302  29.646  21.692  10.649
62894W        W29303  18.047  16.861  14.434
62895W        W29304   1.243  38.970  14.963
62896W        W29305  32.115   8.006  14.805
62897W        W29306  11.085  28.631   3.434
62898W        W29307  14.083   7.391   4.007
62899W        W29308  43.418   8.338  11.109
62900W        W29309   7.773  35.504   2.187
62901W        W29310  13.867  13.204  14.528
62902W        W29311  39.160  23.337   3.735
62903W        W29312  18.236  41.546  12.701
62904W        W29313  22.058   8.349  12.711
62905W        W29314   8.896  44.627   1.672
62906W        W29315   0.982  17.207  13.786
62907W        W29316  40.476  29.286   4.014
62908W        W29317  10.279  20.579  11.008
62909W        W29318  29.615  32.950  13.843
62910W        W29319  36.885  35.062  12.564
62911W        W29320  24.246  10.476   3.159
62912W        W29321   7.162   4.401  14.956
62913W        W29322  12.422  21.227  11.537
62914W        W29323   5.445  20.055   4.200
62915W        W29324  16.025  31.481   0.995
62916W        W29325  24.984  37.326   1.804
62917W        W29326  42.372  27.106  11.697
62918W        W29327  29.016  16.570   3.967
62919W        W29328  12.368   5.539   4.124
62920W        W29329  26.643   5.583   5.030
62921W        W29330  36.078   9.246   3.069
62922W        W29331  14.278  42.907   0.304
62923W        W29332  34.580  22.931  10.557
62924W        W29333  29.256  40.775  11.742
62925W        W29334   3.290  43.892   4.266
62926W        W29335  33.913  17.214   4.364
62927W        W29336  34.832  20.488  12.981
62928W        W29337   1.276  11.649  12.431
62929W        W29338  27.968  30.547   3.088
62930W        W29339   0.440  38.584  12.920
62931W        W29340   2.374  13.735   3.116
62932W        W29341  33.974  29.417  14.280
62933W        W29342   0.746  33.084  12.952
62934W        W29343   8.575  32.610   1.876
62935W        W29344  41.536  16.540   0.360
62936W        W29345  36.110  19.349  14.795
62937W        W29346   7.976   0.233   3.798
62938W        W29347  12.269  20.721  10.683
62939W        W29348   0.311  40.296   3.270
62940W        W29349  28.488  20.608  12.641
62941W        W29350   0.066  17.186  10.134
62942W        W29351  15.121  40.734   3.375
62943W        W29352  17.793  37.117   5.072
62944W        W29353   4.912  10.504  12.207
62945W        W29354   9.416  32.062   3.195
62946W        W29355  44.461   1.271   4.831
62947W        W29356  15.739  21.919  14.935
62948W        W29357   4.723  12.633   2.639
62949W        W29358   7.384   6.668  13.522
62950W        W29359  10.861  43.249  12.570
62951W        W29360  19.799  40.267  12.451
62952W        W29361   4.837  29.584  10.945
62953W        W29362   9.452  20.511   5.010
62954W        W29363  19.955  25.148  12.983
62955W        W29364  17.692  26.721   0.930
62956W        W29365  44.293  25.248   0.678
62957W        W29366  22.266  28.621   2.142
62958W        W29367  15.619   2.143  13.489
62959W        W29368  39.125   9.560  13.316
62960W        W29369  32.994  41.453   2.238
62961W        W29370  36.066  36.226  13.447
62962W        W29371  13.598  33.074   3.076
62963W        W29372  10.162  44.796   0.778
62964W        W29373  20.359   8.420   0.794
62965W        W29374  32.591  40.215   4.014
62966W        W29375  28.094  16.339  10.436
62967W        W29376  37.456  37.506   1.244
62968W        W29377  44.761  21.529   0.831
62969W        W29378  16.750  38.864  12.785
62970W        W29379  38.934  10.213   0.793
62971W        W29380  12.323  29.445  13.776
62972W        W29381  35.416   2.284   2.668
62973W        W29382  10.840  10.571  12.369
62974W        W29383  35.958   3.813  13.806
62975W        W29384  25.057  26.359  13.456
62976W        W29385  25.589  43.892   2.434
62977W        W29386  17.822  21.612   5.025
62978W        W29387  13.820  34.384   1.359
62979W        W29388   3.533  19.233  11.463
62980W        W29389   6.860   0.470  11.899
62981W        W29390  43.280  39.592  12.178
62982W        W29391  29.134  20.139   0.264
62983W        W29392  24.952  34.101  14.561
62984W        W29393  20.252  43.465   0.492
62985W        W29394  28.671  17.069   1.415
62986W        W29395  33.884  10.651   1.679
62987W        W29396  33.540  26.589   1.409
62988W        W29397  37.897  34.091   0.820
62989W        W29398  17.575  34.102   0.433
62990W        W29399  39.107  41.112   3.647
62991W        W29400  13.586  11.723   1.661
62992W        W29401  36.337  18.393   0.690
62993W        W29402  35.112  42.071   4.144
62994W        W29403  10.641  17.011  10.725
62995W        W29404   6.781  32.098  11.033
62996W        W29405  33.520  22.611   2.637
62997W        W29406  39.466  38.014  11.589
62998W        W29407  11.947  15.330  11.887
62999W        W29408  31.462   9.374  11.728
63000W        W29409  23.848   7.098  13.537
63001W        W29410  34.074  16.658   0.979
63002W        W29411  28.940   4.973   2.323
63003W        W29412  35.599  20.761   3.163
63004W        W29413  30.887  39.272   3.741
63005W        W29414  19.150  42.631  13.864
63006W        W29415  31.602  12.392   3.231
63007W        W29416  36.024  13.002  13.757
63008W        W29417  27.476  10.764  10.263
63009W        W29418  11.556  33.908   3.011
63010W        W29419  14.578   3.077  12.963
63011W        W29420  41.506  35.147  13.952
63012W        W29421   1.719  27.918  14.457
63013W        W29422   8.203  10.601   4.528
63014W        W29423  27.344   6.414   5.051
63015W        W29424  29.838  39.920   3.440
63016W        W29425   9.323   9.499   4.646
63017W        W29426  10.665  21.960   1.739
63018W        W29427  10.805  11.899   0.209
63019W        W29428  31.340  43.745   4.571
63020W        W29429  28.116  38.632  14.762
63021W        W29430  41.521  29.444  10.566
63022W        W29431   6.734   3.747   2.348
63023W        W29432  25.601   5.802  13.980
63024W        W29433  18.104  23.866  14.242
63025W        W29434  36.849   9.231   4.194
63026W        W29435  14.592   6.827  13.117
63027W        W29436  40.314  44.740   3.853
63028W        W29437  23.041  43.295   3.139
63029W        W29438   2.071  32.843  11.138
63030W        W29439  16.223  29.958  11.134
63031W        W29440   9.391  16.692   1.991
63032W        W29441   1.734  21.022  12.900
63033W        W29442  17.332  39.020  10.844
63034W        W29443  40.802  36.695   0.177
63035W        W29444  41.984  27.612   2.185
63036W        W29445  22.287  44.681   2.762
63037W        W29446  25.117  40.002  14.915
63038W        W29447  20.144  40.141  11.077
63039W        W29448  15.851  16.349  13.106
63040W        W29449   6.405  22.153  12.621
63041W        W29450   8.462  24.968   9.754
63042W        W29451   9.547  36.044   1.232
63043W        W29452  21.672  33.668   2.293
63044W        W29453  44.967  13.123  13.063
63045W        W29454  17.461  22.698  10.280
63046W        W29455  15.227   2.437  14.414
63047W        W29456  21.235  30.500   1.250
63048W        W29457  27.525  17.640   4.136
63049W        W29458  19.554  12.158   3.285
63050W        W29459   2.232  41.066  12.036
63051W        W29460  43.900  36.877  13.381
63052W        W29461   4.135  42.238   4.125
63053W        W29462  24.134  27.207   3.810
63054W        W29463  32.067  15.974  12.524
63055W        W29464  11.409  15.034   0.258
63056W        W29465  27.925   8.757  13.749
63057W        W29466  24.590  19.729   1.829
63058W        W29467  34.518  17.333  13.046
63059W        W29468  26.298  19.901  13.016
63060W        W29469  35.624  17.147  11.676
63061W        W29470  29.619  30.491  12.029
63062W        W29471  21.496  26.459   2.284
63063W        W29472  28.186  40.122   2.658
63064W        W29473  31.004  42.496   4.369
63065W        W29474  20.756  18.180   0.401
63066W        W29475  20.143  30.520   3.137
63067W        W29476   0.995  14.907   0.188
63068W        W29477  40.159  22.233   4.535
63069W        W29478   3.402  31.031  12.022
63070W        W29479  20.106  15.895   0.890
63071W        W29480  30.222  38.748   0.304
63072W        W29481  21.712  43.803   0.947
63073W        W29482   2.451  19.318  11.070
63074W        W29483  22.295  32.475  12.909
63075W        W29484  32.089  32.615  13.579
63076W        W29485  11.468   9.002  10.939
63077W        W29486  25.022  12.972   4.839
63078W        W29487   5.691  44.110   2.770
63079W        W29488   2.292   9.826   3.767
63080W        W29489  14.379  43.060   3.984
63081W        W29490   6.643   4.638   5.046
63082W        W29491  35.796  36.646   1.815
63083W        W29492  24.731  20.072  12.516
63084W        W29493  44.939   1.272   1.429
63085W        W29494   3.786   2.788   3.569
63086W        W29495  44.727  12.734   0.943
63087W        W29496  24.230  25.477  12.575
63088W        W29497  39.541  24.287   0.319
63089W        W29498  35.943   5.328  14.522
63090W        W29499  39.007  19.807   3.718
63091W        W29500   1.362  21.727  10.374
63092W        W29501  41.867  30.676   0.445
63093W        W29502  28.693  44.019  14.350
63094W        W29503  33.108   4.843   0.955
63095W        W29504  37.464  32.873  10.618
63096W        W29505  30.246  17.239  11.213
63097W        W29506  35.941  33.516  10.794
63098W        W29507  12.292  26.646   1.207
63099W        W29508  26.464   5.196  11.500
63100W        W29509  16.088  28.512   1.395
63101W        W29510  16.130   4.664   2.353
63102W        W29511  36.514   7.198  10.963
63103W        W29512  17.902  13.364   3.318
63104W        W29513  26.192  40.176  11.195
63105W        W29514  37.293   9.073  12.036
63106W        W29515  41.471  14.557   3.560
63107W        W29516  21.946   7.552   3.429
63108W        W29517  41.012   6.763  10.683
63109W        W29518  31.820  28.966   3.456
63110W        W29519  33.157   6.903  14.029
63111W        W29520  35.007   5.408   1.254
63112W        W29521  42.719  30.043  14.315
63113W        W29522   4.628  38.232   4.765
63114W        W29523   9.557  26.505   1.363
63115W        W29524  10.099  37.405  13.338
63116W        W29525  43.991   0.759   4.649
63117W        W29526  10.371  11.297  14.765
63118W        W29527  16.145   4.968  12.949
63119W        W29528  35.802  25.739   1.386
63120W        W29529   1.959   6.752   4.407
63121W        W29530  23.770  12.348   1.826
63122W        W29531  15.663   2.864   3.791
63123W        W29532  11.647  11.455  10.725
63124W        W29533  13.799  20.195  11.119
63125W        W29534   3.800  11.330  13.893
63126W        W29535  25.286  36.435   1.956
63127W        W29536  16.369   4.255   2.103
63128W        W29537  34.933  31.455   0.453
63129W        W29538  10.727  18.587   1.394
63130W        W29539  41.995  29.954   4.118
63131W        W29540  27.581  20.121  10.556
63132W        W29541  27.555  25.053   1.170
63133W        W29542  36.654  33.843  11.915
63134W        W29543   5.801   3.475  14.479
63135W        W29544  16.522   9.881   2.264
63136W        W29545  11.562  32.875  12.585
63137W        W29546  14.705  10.868  13.417
63138W        W29547  38.221  26.631  13.769
63139W        W29548  23.086  26.737   2.170
63140W        W29549   6.667  19.851   2.965
63141W        W29550  13.830  33.225  10.556
63142W        W29551  13.219   4.378   4.499
63143W        W29552  14.931   1.750  14.851
63144W        W29553  32.100   6.978  11.449
63145W        W29554  15.080  13.424  11.065
63146W        W29555  21.822  19.589  12.567
63147W        W29556   3.026  23.527   0.178
63148W        W29557  10.960  33.957  11.573
63149W        W29558   2.481  14.038   0.509
63150W        W29559  24.524  37.512  10.766
63151W        W29560  17.640  41.257  14.864
63152W        W29561   5.982   1.856   4.605
63153W        W29562  35.543  33.335  14.474
63154W        W29563  35.556   5.898  12.893
63155W        W29564  38.569  25.203   1.972
63156W        W29565  16.670   3.269   1.832
63157W        W29566  28.250  20.213   4.906
63158W        W29567   1.933   3.723  11.611
63159W        W29568  34.757   6.191  14.416
63160W        W29569  37.044  39.303  14.483
63161W        W29570  44.404  15.602  13.910
63162W        W29571  42.719  42.871   2.810
63163W        W29572  42.898   2.242   3.382
63164W        W29573  29.082   8.737  14.493
63165W        W29574   6.853  37.542   1.512
63166W        W29575   0.800  10.351   2.286
63167W        W29576  25.608  31.273   2.411
63168W        W29577   9.677  25.056   3.598
63169W        W29578  23.639  12.862   3.660
63170W        W29579  14.588  43.441  11.965
63171W        W29580  20.049  31.850  12.106
63172W        W29581  37.879  21.067   3.344
63173W        W29582   9.963   7.519  11.429
63174W        W29583  15.264  29.787  12.488
63175W        W29584  20.437   7.913   0.870
63176W        W29585  17.081  37.829   3.874
63177W        W29586   4.692   9.636  11.950
63178W        W29587  10.856  32.554   0.854
63179W        W29588  31.593  27.461   4.338
63180W        W29589  36.908  37.065  13.526
63181W        W29590   2.894  38.766  10.685
63182W        W29591   0.427  32.032   4.172
63183W        W29592   8.408  29.690  10.676
63184W        W29593  14.330  39.831   1.225
63185W        W29594   5.269  31.440   0.390
63186W        W29595   9.743  25.532  14.209
63187W        W29596  42.431  38.405   3.818
63188W        W29597  17.723  42.552  11.152
63189W        W29598  16.581   8.789   4.982
63190W        W29599  35.088   1.396  12.709
63191W        W29600  24.002  10.375   0.677
63192W        W29601  43.227  25.146  11.753
63193W        W29602   6.912  44.478  10.404
63194W        W29603   9.044  30.559   5.335
63195W        W29604   6.205  41.048  14.930
63196W        W29605  29.738  13.821   3.692
63197W        W29606  26.083  27.213   0.917
63198W        W29607   5.413   5.371  14.353
63199W        W29608  31.614  41.308   1.963
63200W        W29609   7.150   3.383  14.338
63201W        W29610  30.221  22.278   3.173
63202W        W29611  42.900  33.817  12.332
63203W        W29612  41.834   1.930   4.367
63204W        W29613  17.369  13.194  11.647
63205W        W29614  29.423  39.614  10.727
63206W        W29615   3.171  35.100  13.593
63207W        W29616  35.341  17.529  13.584
63208W        W29617  40.343  11.844  10.261
63209W        W29618  19.133   8.948  14.429
63210W        W29619   4.802  27.567   3.629
63211W        W29620  28.576  35.913   0.264
63212W        W29621  39.060   0.447   2.508
63213W        W29622  11.714  17.828  14.457
63214W        W29623  36.412  20.382  12.896
63215W        W29624  30.685   5.693   4.197
63216W        W29625  44.910  15.982  12.033
63217W        W29626  40.756  27.387   0.926
63218W        W29627   4.306  25.576  11.252
63219W        W29628  40.598  35.761   1.308
63220W        W29629  44.783  39.389   1.280
63221W        W29630  11.558   1.065  13.438
63222W        W29631  10.084  34.736  14.873
63223W        W29632   4.846  22.756   1.830
63224W        W29633   0.798  14.753  12.134
63225W        W29634   4.133  37.398   3.058
63226W        W29635   6.295  42.337   1.199
63227W        W29636  33.074  30.160   2.689
63228W        W29637  22.220   8.899  13.476
63229W        W29638  34.159  24.260   4.666
63230W        W29639  19.035   3.960   1.901
63231W        W29640  43.909   1.049   3.660
63232W        W29641   2.307   4.182  13.365
63233W        W29642   8.454  34.032   1.423
63234W        W29643  18.163  32.007  12.213
63235W        W29644  42.871  38.422   1.937
63236W        W29645  39.499   8.902  11.349
63237W        W29646  18.802  12.774   4.505
63238W        W29647  11.756  40.407   2.354
63239W        W29648   9.772  28.639   0.007
63240W        W29649  27.916  44.397  12.516
63241W        W29650  18.477  31.613   1.305
63242W        W29651  39.371  17.721  13.331
63243W        W29652  35.676  22.211  10.776
63244W        W29653  14.555   8.790   0.536
63245W        W29654   8.197  36.532   4.973
63246W        W29655  20.507  37.010   4.165
63247W        W29656  10.616   3.408  13.800
63248W        W29657   1.768  39.785  12.020
63249W        W29658  25.482  39.931  10.637
63250W        W29659  33.935  30.662   4.071
63251W        W29660  18.565  43.699   2.180
63252W        W29661  11.717  37.798  10.427
63253W        W29662  24.145  17.622   2.958
63254W        W29663  37.389  23.305   1.428
63255W        W29664   5.313   1.948  12.358
63256W        W29665  10.590  36.094  14.962
63257W        W29666  27.430  19.588  14.069
63258W        W29667  32.174  36.428  13.469
63259W        W29668   6.356  38.563  13.322
63260W        W29669  12.824  36.447   2.570
63261W        W29670  42.313  24.139  12.537
63262W        W29671  17.406  16.132   4.066
63263W        W29672  11.894   8.373   0.953
63264W        W29673  16.542  18.236   2.242
63265W        W29674  11.708  26.221   0.695
63266W        W29675  11.768  36.635  10.095
63267W        W29676  40.956  18.634  10.240
63268W        W29677  29.868  41.922   0.379
63269W        W29678  32.412  26.607  12.075
63270W        W29679  42.305  40.657   4.139
63271W        W29680  43.510  41.932   1.806
63272W        W29681  38.666  18.455   2.141
63273W        W29682   8.155  24.494   2.304
63274W        W29683  13.965  27.018  10.690
63275W        W29684  32.800   0.881   2.416
63276W        W29685  10.312  38.376   3.357
63277W        W29686   5.277   3.722   3.246
63278W        W29687  35.835  33.628  11.685
63279W        W29688  21.820  43.167  13.003
63280W        W29689  27.434   4.889  13.489
63281W        W29690  24.981  34.339   0.984
63282W        W29691  18.680  41.493   4.252
63283W        W29692   3.964  14.194   3.150
63284W        W29693  12.679   5.899   0.965
63285W        W29694  39.326  10.648  13.911
63286W        W29695   6.130  11.982  10.155
63287W        W29696  17.807  12.239   3.768
63288W        W29697  22.992  34.830  11.151
63289W        W29698  11.639  30.539   0.894
63290W        W29699  27.546  36.893   2.719
63291W        W29700  24.121  30.595  11.612
63292W        W29701   7.426  35.609   3.873
63293W        W29702   9.769  31.313   9.987
63294W        W29703  11.826   9.893  10.626
63295W        W29704  27.083   5.348   1.375
63296W        W29705  22.641  23.627   0.310
63297W        W29706  14.158  13.121   2.386
63298W        W29707  37.264  39.387   0.446
63299W        W29708  42.003   7.659  12.001
63300W        W29709   3.328  13.945  14.378
63301W        W29710  33.161   0.409   3.302
63302W        W29711  32.449  14.830   4.583
63303W        W29712  36.332   4.584  11.135
63304W        W29713  19.605  25.919   3.827
63305W        W29714  43.258  35.331   1.542
63306W        W29715  27.014  20.551   1.861
63307W        W29716  18.125  22.057  13.852
63308W        W29717  10.166  20.601   2.845
63309W        W29718  37.079  11.681  11.171
63310W        W29719  19.289  14.400   2.261
63311W        W29720  37.103  28.179  13.830
63312W        W29721  25.151  33.423  12.921
63313W        W29722  43.402  11.283   4.076
63314W        W29723  31.649  15.503   3.396
63315W        W29724  41.321  28.934  14.279
63316W        W29725  36.233   9.200   2.188
63317W        W29726  35.935  29.872   4.464
63318W        W29727  41.105   5.831   0.255
63319W        W29728  13.764  10.348  11.566
63320W        W29729   4.276  36.506  13.830
63321W        W29730  11.646  16.974   1.308
63322W        W29731  42.032  30.581  10.579
63323W        W29732  20.734  25.783  13.790
63324W        W29733  44.831  35.052  11.185
63325W        W29734  30.878   2.916   3.635
63326W        W29735  44.971  10.351  14.758
63327W        W29736  35.053  17.824   4.682
63328W        W29737  17.788   3.444   3.317
63329W        W29738  18.370  41.966   0.893
63330W        W29739  41.475  40.381   1.237
63331W        W29740  31.382  33.979  12.098
63332W        W29741  26.978  20.740  12.370
63333W        W29742  23.540  26.581   2.366
63334W        W29743   9.709  32.310  12.583
63335W        W29744   7.387  19.191   3.768
63336W        W29745  41.452  35.881   2.129
63337W        W29746  27.402  11.062   3.757
63338W        W29747  25.938  40.024   0.368
63339W        W29748  14.056  11.536  13.877
63340W        W29749  34.905   2.523   1.807
63341W        W29750  29.635  33.545   2.249
63342W        W29751  29.415   6.328   0.570
63343W        W29752  21.513  39.081   4.539
63344W        W29753  32.443  14.996  12.511
63345W        W29754   5.087  15.453   2.336
63346W        W29755  33.925  31.159   1.071
63347W        W29756  21.021  34.146  11.151
63348W        W29757  17.694   4.610  14.039
63349W        W29758   7.904  25.967   0.846
63350W        W29759  37.922  22.625   4.578
63351W        W29760  28.636  11.203   0.863
63352W        W29761  20.098  24.498   2.346
63353W        W29762  40.128  34.154  13.841
63354W        W29763  22.475  27.955   4.074
63355W        W29764   6.656  43.725   0.513
63356W        W29765  28.449  15.112  12.561
63357W        W29766  11.909  13.784  13.440
63358W        W29767  21.575  24.500  11.579
63359W        W29768   5.632  33.524   1.936
63360W        W29769  24.222  11.828  13.965
63361W        W29770  15.267  12.846   1.321
63362W        W29771  29.855  44.452  12.359
63363W        W29772  41.168  23.177  12.893
63364W        W29773  26.546  10.881   4.190
63365W        W29774  17.664   9.036   3.909
63366W        W29775  17.001  32.302   1.048
63367W        W29776  12.237   2.449  11.224
63368W        W29777  15.637  42.379  10.903
63369W        W29778  15.812  28.518  10.704
63370W        W29779   5.264  33.837  13.006
63371W        W29780  12.823  38.383   4.043
63372W        W29781   6.173  32.924   1.613
63373W        W29782  40.568  39.699   4.400
63374W        W29783  37.489  24.540  12.805
63375W        W29784  43.715  24.083   4.705
63376W        W29785   9.655   7.674   2.498
63377W        W29786   6.938  15.691  14.173
63378W        W29787  22.950  11.244  14.347
63379W        W29788  35.264  31.083  12.529
63380W        W29789   2.490  25.879   3.274
63381W        W29790  12.414  27.134  12.481
63382W        W29791  14.647  39.233  13.393
63383W        W29792  27.834  36.564   1.005
63384W        W29793  40.021  39.791   3.648
63385W        W29794  15.120  35.803   1.322
63386W        W29795  11.260  26.974   0.867
63387W        W29796  13.130  38.754   2.211
63388W        W29797  20.139  39.423  11.480
63389W        W29798  24.739  36.659  10.651
63390W        W29799  38.952  40.454  12.437
63391W        W29800  38.588  38.258  14.090
63392W        W29801  14.226  17.234   4.122
63393W        W29802  12.258  41.036   1.937
63394W        W29803  14.199   4.827  14.910
63395W        W29804  13.694  21.760  14.279
63396W        W29805  28.249  23.737  12.988
63397W        W29806   1.878  41.780   0.782
63398W        W29807  38.550   8.562  14.620
63399W        W29808   7.132   2.138  13.881
63400W        W29809   7.889  18.851  10.830
63401W        W29810  37.373  38.927  11.918
63402W        W29811  33.500   2.530   3.642
63403W        W29812  22.371  12.727  10.102
63404W        W29813   3.461  34.706   0.456
63405W        W29814  10.821   5.156   1.316
63406W        W29815  42.064   7.479  13.394
63407W        W29816  24.011  28.524  12.026
63408W        W29817   5.370  13.673   1.873
63409W        W29818  24.132   6.621   3.228
63410W        W29819  32.150  21.614   4.083
63411W        W29820  26.552  28.974  12.445
63412W        W29821  44.989   4.781   4.373
63413W        W29822   2.295   1.556  14.250
63414W        W29823  32.645  17.787  12.426
63415W        W29824  23.955  11.166   1.283
63416W        W29825  37.037  26.640   2.263
63417W        W29826  33.804   7.628   0.151
63418W        W29827  17.372  16.613  12.724
63419W        W29828  44.358  32.452  13.154
63420W        W29829  15.916  40.068   1.285
63421W        W29830   3.680  21.273   3.471
63422W        W29831  34.172  32.718  12.268
63423W        W29832  11.772  17.206   2.878
63424W        W29833  27.039   2.265  14.977
63425W        W29834  33.523  43.768  14.940
63426W        W29835  27.770  20.437   2.218
63427W        W29836  27.663   0.967   4.362
63428W        W29837  18.027  25.004   0.705
63429W        W29838  24.461  42.741   1.767
63430W        W29839   2.056  42.904   1.833
63431W        W29840  14.005   1.746   1.885
63432W        W29841   0.374  27.037   2.848
63433W        W29842  36.932   9.180  13.890
63434W        W29843  30.194   4.962   0.538
63435W        W29844  35.878   5.471   0.911
63436W        W29845  38.636  28.713   0.084
63437W        W29846  17.201   6.739  12.336
63438W        W29847  13.204   5.827  14.824
63439W        W29848  35.018  18.259   3.314
63440W        W29849  23.896  30.219   3.734
63441W        W29850  39.994   6.334   0.708
63442W        W29851   7.382  12.276   1.207
63443W        W29852  11.922  42.339   1.276
63444W        W29853  37.499  42.011  12.447
63445W        W29854   2.913  34.401   2.753
63446W        W29855  21.503   2.171  12.940
63447W        W29856  43.829  37.307  13.675
63448W        W29857  44.243  40.325   3.256
63449W        W29858   4.252  28.675   2.292
63450W        W29859   6.265   0.879   2.837
63451W        W29860  34.699  11.343   3.213
63452W        W29861  29.930  35.424   4.558
63453W        W29862  10.189  21.273  12.734
63454W        W29863  32.174   0.372  11.135
63455W        W29864   3.053  18.170  14.885
63456W        W29865   1.777   7.964   2.170
63457W        W29866  17.739   5.745  11.160
63458W        W29867  37.030  19.610   1.330
63459W        W29868  30.464  21.505  14.227
63460W        W29869  34.925   9.787   3.146
63461W        W29870  30.190  29.985   3.436
63462W        W29871  43.430   3.083  11.617
63463W        W29872  29.284   8.292   0.934
63464W        W29873   7.971   0.790  14.655
63465W        W29874  41.174  37.295   1.761
63466W        W29875   3.233  33.861   3.312
63467W        W29876  27.948  19.696   1.178
63468W        W29877  22.451  28.080   3.193
63469W        W29878  43.032  28.955   0.833
63470W        W29879  29.556  37.995   0.745
63471W        W29880   3.955  21.228   4.925
63472W        W29881  16.684  15.209   3.131
63473W        W29882  17.632  17.243   0.804
63474W        W29883  16.161  10.635   3.043
63475W        W29884  35.209   6.095   0.761
63476W        W29885  23.092  32.338   4.988
63477W        W29886   2.443  18.254   4.548
63478W        W29887  11.234  10.675   2.866
63479W        W29888  12.353  12.672   3.135
63480W        W29889  30.439   0.350   1.511
63481W        W29890   8.092   7.737   0.027
63482W        W29891  37.100  12.581  14.529
63483W        W29892  28.562  26.175  11.598
63484W        W29893  20.343  19.390   9.837
63485W        W29894   0.370   8.849   2.763
63486W        W29895   0.276   7.892  12.575
63487W        W29896  28.956  22.745   3.859
63488W        W29897  23.526  42.089   2.313
63489W        W29898   8.741  27.610   0.453
63490W        W29899  26.931  12.606  14.846
63491W        W29900  25.796  19.425   9.747
63492W        W29901   8.175  24.794  12.977
63493W        W29902  36.415  23.304   1.440
63494W        W29903  40.896  40.211   0.863
63495W        W29904  20.627  30.067   4.129
63496W        W29905  31.786  26.097  10.888
63497W        W29906  38.803   9.252   0.805
63498W        W29907   1.565  41.417   0.143
63499W        W29908  22.593  40.772   4.506
63500W        W29909  31.863  37.994  13.023
63501W        W29910  29.958  23.366  11.962
63502W        W29911  31.654  39.853  14.853
63503W        W29912  20.244  40.820   3.181
63504W        W29913  23.023  12.971   0.481
63505W        W29914   3.266  41.691   2.408
63506W        W29915  13.638  22.207  10.284
63507W        W29916  21.206   6.899  10.639
63508W        W29917  22.544  29.214  14.395
63509W        W29918  29.215   4.384   9.937
63510W        W29919   3.990  10.611  11.663
63511W        W29920  41.931  11.348   0.014
63512W        W29921  42.516  21.799  11.984
63513W        W29922  13.148  41.657  11.618
63514W        W29923  41.279  12.582  10.732
63515W        W29924  13.920  34.062  12.989
63516W        W29925   6.727  12.286  11.261
63517W        W29926  39.228   9.519  11.407
63518W        W29927   2.400  23.962  12.565
63519W        W29928  30.584  32.485  13.173
63520W        W29929   6.387  40.422  14.778
63521W        W29930  44.796   9.988  13.023
63522W        W29931   4.109   9.837   4.094
63523W        W29932  27.515   3.479   4.304
63524W        W29933  25.221   6.947   0.341
63525W        W29934  29.723  14.852   1.316
63526W        W29935  32.971   4.887   3.852
63527W        W29936  41.501  18.245  10.855
63528W        W29937  31.141  27.217  11.480
63529W        W29938  19.137  30.652   0.743
63530W        W29939  28.166  24.030   5.053
63531W        W29940  41.744  28.661  12.128
63532W        W29941  15.585  30.538   0.218
63533W        W29942   0.376  10.955   2.772
63534W        W29943  44.866   7.606  11.629
63535W        W29944   9.742  18.057  11.909
63536W        W29945  17.540   9.556   3.815
63537W        W29946  38.017  30.493   3.652
63538W        W29947  44.537  41.293  13.898
63539W        W29948  15.170  13.104  10.669
63540W        W29949   8.892   0.677   0.882
63541W        W29950  10.309  28.006   2.145
63542W        W29951   2.325  41.829   1.931
63543W        W29952  22.648  16.394   0.421
63544W        W29953   7.698  21.043   3.637
63545W        W29954  23.640  38.147   1.735
63546W        W29955   2.203  38.138  10.828
63547W        W29956   4.892  14.233  10.931
63548W        W29957  10.591   3.242   0.905
63549W        W29958   5.313  37.178  13.360
63550W        W29959  11.606  18.511  13.737
63551W        W29960  35.154  18.984   5.124
63552W        W29961  24.802  40.622   0.880
63553W        W29962  34.578   8.090  13.126
63554W        W29963  22.298  38.450  14.951
63555W        W29964  23.691  40.591  14.759
63556W        W29965  17.198   1.511  13.030
63557W        W29966  10.474  27.690  14.453
63558W        W29967  15.577   5.320   0.893
63559W        W29968  24.417  43.498   1.396
63560W        W29969  15.269  26.380  14.568
63561W        W29970   1.214  27.318   2.983
63562W        W29971  13.860  35.427  12.528
63563W        W29972  16.248  41.382   0.183
63564W        W29973  21.816   1.140  10.775
63565W        W29974  24.604   8.891  12.097
63566W        W29975  39.038  29.510   2.710
63567W        W29976   7.931   6.039   3.195
63568W        W29977  44.624   9.451  13.066
63569W        W29978  24.746   1.515   2.528
63570W        W29979  29.820  23.534   2.323
63571W        W29980  13.412  44.788   3.143
63572W        W29981  30.300  14.103  10.428
63573W        W29982   1.720  20.600   3.271
63574W        W29983  21.316  14.375   1.254
63575W        W29984  43.711  33.052   1.230
63576W        W29985  33.423  28.428  12.481
63577W        W29986  25.066  42.495   2.405
63578W        W29987   7.651  33.569  12.428
63579W        W29988  23.069   0.991   1.334
63580W        W29989  41.463  32.032  11.676
63581W        W29990  18.085  30.660  12.577
63582W        W29991   4.133  42.494   1.245
63583W        W29992   9.200   9.135  13.761
63584W        W29993  42.300  17.845   1.871
63585W        W29994  42.888  32.065   4.661
63586W        W29995  26.680  36.489  13.277
63587W        W29996   3.781  33.906   1.869
63588W        W29997  37.213   5.865  14.833
63589W        W29998  20.529  11.429  10.845
63590W        W29999  36.375  24.611   4.321
63591W        W30000  24.952  21.101  14.852
63592W        W30001  44.998  42.590   3.576
63593W        W30002   5.728  19.557  10.841
63594W        W30003  29.618  40.842   1.890
63595W        W30004  16.499  42.383  14.513
63596W        W30005  30.719   0.810   4.043
63597W        W30006  22.502  41.340  14.990
63598W        W30007  28.220  37.838  10.705
63599W        W30008  31.343  44.298   4.461
63600W        W30009  12.559   8.498  10.578
63601W        W30010   4.313  37.931   0.514
63602W        W30011  36.139  42.846   1.583
63603W        W30012   5.716  25.122  14.807
63604W        W30013  36.072   5.988  10.507
63605W        W30014  13.104  44.816  12.933
63606W        W30015  24.240  37.078  14.112
63607W        W30016  28.508   4.207  10.599
63608W        W30017  39.517  19.012  12.839
63609W        W30018  37.994  15.212   4.922
63610W        W30019  12.541  25.693  12.349
63611W        W30020  37.743  38.498   0.725
63612W        W30021   7.280  14.234   3.081
63613W        W30022  30.457  17.929   1.931
63614W        W30023  43.258  30.905   0.280
63615W        W30024  41.334   8.054  12.926
63616W        W30025  21.261   3.987   1.293
63617W        W30026   6.947  34.350   0.789
63618W        W30027  13.859   8.243   2.202
63619W        W30028  27.203  40.924   0.155
63620W        W30029  18.519  42.807   0.346
63621W        W30030  44.997  22.727   2.128
63622W        W30031  32.353  37.646  11.514
63623W        W30032  23.999  11.242   2.849
63624W        W30033   4.654   9.402  14.464
63625W        W30034  44.244   5.267   1.856
63626W        W30035  14.683  44.791  14.472
63627W        W30036  36.548  19.305   1.772
63628W        W30037   5.814  28.933   0.250
63629W        W30038  43.247  24.707   2.832
63630W        W30039  29.443  38.910   0.651
63631W        W30040   3.728   1.011   3.259
63632W        W30041   7.209  43.228  14.144
63633W        W30042  40.044  19.166   4.468
63634W        W30043  27.061   6.241  12.076
63635W        W30044  29.818  15.192  13.295
63636W        W30045  32.471  38.611   3.153
63637W        W30046  21.522  28.619  11.039
63638W        W30047   3.391  18.997   1.826
63639W        W30048   5.133  26.878  14.290
63640W        W30049  38.637  17.964  14.910
63641W        W30050  28.417  19.709  13.017
63642W        W30051  29.541   2.758  12.438
63643W        W30052  14.203  18.459  14.859
63644W        W30053  21.223  41.757  12.074
63645W        W30054  35.501  10.771  13.160
63646W        W30055  35.780  28.539  12.435
63647W        W30056  41.307  43.359   3.260
63648W        W30057   7.750  32.563  12.798
63649W        W30058  15.419   2.805  11.479
63650W        W30059  32.576   2.295  11.211
63651W        W30060  42.899  10.754   1.797
63652W        W30061  40.025  25.334   5.061
63653W        W30062   3.988  30.198   3.253
63654W        W30063  43.919   4.625  12.907
63655W        W30064  17.197  14.624   0.298
63656W        W30065  43.322   6.186  13.059
63657W        W30066  26.089  21.142  12.604
63658W        W30067  19.489  22.979  14.405
63659W        W30068  43.651  26.336   4.870
63660W        W30069  14.023   0.026   4.966
63661W        W30070   8.182  35.464   1.270
63662W        W30071  37.970  30.605   4.628
63663W        W30072   1.296   1.468   2.010
63664W        W30073  18.754  29.041  12.147
63665W        W30074  20.773  24.718   4.655
63666W        W30075  22.153   0.539  11.516
63667W        W30076  18.508  21.459  13.475
63668W        W30077  40.285  35.102   3.602
63669W        W30078  18.654   9.273   4.229
63670W        W30079   7.241  36.434  13.385
63671W        W30080  22.955  30.491   0.361
63672W        W30081  26.525  17.609   0.309
63673W        W30082  18.636  25.372   3.876
63674W        W30083   3.269   0.919  12.583
63675W        W30084  43.775  30.082  12.586
63676W        W30085  19.039   5.921   4.271
63677W        W30086  33.265  42.791   5.043
63678W        W30087  16.108  21.104  14.089
63679W        W30088  28.584  41.357  12.998
63680W        W30089  19.985   6.807  12.306
63681W        W30090  24.210   1.406   2.772
63682W        W30091  14.109  26.529  10.420
63683W        W30092   3.282  32.586  12.616
63684W        W30093  29.431  26.460  13.396
63685W        W30094   3.803  30.638   3.023
63686W        W30095   2.825  24.983  12.018
63687W        W30096  31.403  41.457   3.884
63688W        W30097  14.833  35.371  10.754
63689W        W30098  42.300  28.464  10.708
63690W        W30099  14.265  31.526   3.151
63691W        W30100   5.960  10.830   4.505
63692W        W30101  30.338  35.919  11.729
63693W        W30102   2.509  28.695   3.223
63694W        W30103  10.168  23.698  14.652
63695W        W30104   4.815  30.945   1.850
63696W        W30105   5.199  39.001   1.773
63697W        W30106   7.643  32.391  10.883
63698W        W30107  31.643  40.768  12.109
63699W        W30108  42.699  38.934   4.488
63700W        W30109  13.695   7.134  14.066
63701W        W30110   9.846   4.328   2.548
63702W        W30111   2.968  19.490  11.146
63703W        W30112  23.331  44.628   4.203
63704W        W30113  35.566  33.099  14.976
63705W        W30114  12.296   8.901   0.240
63706W        W30115  26.650  35.756  10.523
63707W        W30116  34.471  36.883   0.268
63708W        W30117  22.171  35.144  14.086
63709W        W30118  24.698  41.996   4.011
63710W        W30119  23.857   5.478  14.101
63711W        W30120  22.298  18.795  14.824
63712W        W30121   5.462  41.121  14.508
63713W        W30122  10.504   1.758   1.319
63714W        W30123  15.940  17.685   4.775
63715W        W30124  40.975  25.030  12.423
63716W        W30125   8.963  19.646   0.839
63717W        W30126  30.410   7.153   2.852
63718W        W30127   1.353  43.098  13.694
63719W        W30128  27.231   0.954   3.703
63720W        W30129  10.873  16.165   0.589
63721W        W30130   6.967  36.641   1.873
63722W        W30131   8.846  29.819   0.060
63723W        W30132  33.473   7.423   3.671
63724W        W30133  37.983  20.992   2.367
63725W        W30134  17.621  12.219   1.373
63726W        W30135  36.649   7.753   3.163
63727W        W30136   4.298  32.800  11.023
63728W        W30137   9.721  42.856  10.523
63729W        W30138  22.013   1.953   4.850
63730W        W30139  18.113  33.354  14.417
63731W        W30140  17.983   5.850  13.464
63732W        W30141  21.404   4.407   2.450
63733W        W30142  33.868   0.402   4.488
63734W        W30143  24.904   8.337   4.069
63735W        W30144   4.241   0.329  14.788
63736W        W30145  42.760  21.659  14.805
63737W        W30146  32.126  36.501  12.448
63738W        W30147  28.626  15.328   0.960
63739W        W30148  33.894  39.242   2.821
63740W        W30149   6.291  10.326   2.738
63741W        W30150  36.309  32.010  14.520
63742W        W30151   3.754  18.311  12.557
63743W        W30152  28.976  22.930   0.364
63744W        W30153  10.166  11.345  14.280
63745W        W30154  26.498  15.177   1.850
63746W        W30155  15.078  33.782   3.653
63747W        W30156  26.646  16.686  14.233
63748W        W30157   7.171  23.796   1.898
63749W        W30158  38.407  38.465  10.420
63750W        W30159  24.523  32.477   4.066
63751W        W30160   2.981  27.404  12.562
63752W        W30161  42.478  13.397   4.228
63753W        W30162  15.592  32.010   4.123
63754W        W30163  34.319   8.417   4.163
63755W        W30164  20.765  13.671   0.310
63756W        W30165  42.696  39.363  11.864
63757W        W30166   9.310  24.827   1.877
63758W        W30167  11.422   2.501  10.789
63759W        W30168  13.416  16.866  10.860
63760W        W30169  16.275  43.935   2.821
63761W        W30170   3.932  32.029  10.685
63762W        W30171  36.606  21.704   4.076
63763W        W30172  19.001  16.784  11.459
63764W        W30173  42.725  21.601   1.758
63765W        W30174  26.125  42.881  12.555
63766W        W30175   3.742  38.100   2.397
63767W        W30176  34.292  32.130  11.042
63768W        W30177  17.328   0.317  11.858
63769W        W30178  42.434   3.977  14.479
63770W        W30179  24.510  29.965  11.489
63771W        W30180  41.316  21.125   0.874
63772W        W30181  32.183  33.277   1.623
63773W        W30182   4.288  39.865   0.381
63774W        W30183  11.649  43.343   1.373
63775W        W30184  23.895  21.210   1.707
63776W        W30185  22.484  38.956   3.894
63777W        W30186  10.269  34.450  14.247
63778W        W30187  34.888  42.787  12.438
63779W        W30188  19.769  43.565  10.935
63780W        W30189   8.275  21.278  13.298
63781W        W30190  41.051  21.496  11.175
63782W        W30191   0.468  39.403   0.284
63783W        W30192  37.533  44.607   4.066
63784W        W30193   8.025   5.369  11.930
63785W        W30194  36.391   6.267  14.138
63786W        W30195  17.158  35.558  14.398
63787W        W30196  26.282  37.442   3.701
63788W        W30197  37.883  17.533  13.934
63789W        W30198  24.144  33.528   3.559
63790W        W30199  22.299   9.317  14.916
63791W        W30200  16.139  24.181   0.468
63792W        W30201  28.542  27.505  14.428
63793W        W30202  22.371   6.289  14.649
63794W        W30203  29.994  10.872   1.291
63795W        W30204   8.383  10.945  10.280
63796W        W30205  22.070  38.589   3.856
63797W        W30206  39.727  34.442  10.710
63798W        W30207  44.399  19.154   2.922
63799W        W30208  23.690  21.183   2.669
63800W        W30209   7.233  35.173   2.041
63801W        W30210   0.833  20.267  12.501
63802W        W30211   2.610  24.560   9.993
63803W        W30212  22.462   7.212   3.599
63804W        W30213  33.428  35.863  10.569
63805W        W30214  24.098  17.879  13.869
63806W        W30215  18.018   8.359  11.010
63807W        W30216  17.562  36.319  14.945
63808W        W30217   4.364  15.211  10.811
63809W        W30218  14.339   1.312   1.778
63810W        W30219  26.187  14.794  13.515
63811W        W30220   1.689  13.558  14.948
63812W        W30221   9.845  26.066   1.194
63813W        W30222  24.603  17.937   0.265
63814W        W30223  12.412   7.931  12.597
63815W        W30224  38.312  13.199  12.412
63816W        W30225  42.374   3.990  10.760
63817W        W30226  43.389   7.131   3.168
63818W        W30227  11.202  13.357  11.888
63819W        W30228  23.253  26.844  14.403
63820W        W30229  16.674  33.908  10.708
63821W        W30230  18.398  29.406  13.423
63822W        W30231  20.083   6.876  13.329
63823W        W30232   5.337  30.227   1.403
63824W        W30233  35.416   7.647  11.062
63825W        W30234  27.015  43.758   1.805
63826W        W30235  12.381  33.530  11.613
63827W        W30236  25.492  14.191   4.061
63828W        W30237  25.652   9.037   3.131
63829W        W30238  27.856  37.861  14.381
63830W        W30239  29.456  32.040   3.045
63831W        W30240  29.620  16.467   3.334
63832W        W30241  39.354   6.752   3.817
63833W        W30242  11.128  10.426   4.301
63834W        W30243  24.791  30.925  11.884
63835W        W30244  32.705   5.318   2.122
63836W        W30245  25.771  37.484   2.707
63837W        W30246  43.336  37.030   3.610
63838W        W30247  26.278   8.090   3.720
63839W        W30248  29.928  26.298   2.279
63840W        W30249  42.889  14.227   0.791
63841W        W30250  34.582  40.782  14.460
63842W        W30251  20.510   7.246  11.637
63843W        W30252  40.897  28.431  11.156
63844W        W30253  29.506  44.047  13.480
63845W        W30254  42.300  31.617   3.652
63846W        W30255  28.909  19.136  12.287
63847W        W30256  14.713  21.889  12.810
63848W        W30257  10.858  35.190   4.588
63849W        W30258  40.979   4.046  10.540
63850W        W30259  30.425  38.737  11.168
63851W        W30260  22.461  30.279  11.224
63852W        W30261  26.710  37.503  11.140
63853W        W30262  42.351  19.162  13.523
63854W        W30263  24.660   7.406  11.434
63855W        W30264  30.549  40.900  11.171
63856W        W30265   3.464  37.952   1.947
63857W        W30266  36.921  34.093   3.591
63858W        W30267   8.419   7.277   3.698
63859W        W30268   8.479  25.675   3.275
63860W        W30269   7.368   0.477   3.407
63861W        W30270  25.039  18.222   2.793
63862W        W30271  33.476   0.284   3.693
63863W        W30272  13.873  10.080   4.902
63864W        W30273  31.393   8.192  13.239
63865W        W30274   5.610  21.022  12.981
63866W        W30275  14.242  33.293  11.486
63867W        W30276  34.160  33.073   1.417
63868W        W30277  33.954  19.885  12.335
63869W        W30278  17.520  16.473   1.325
63870W        W30279   3.896  11.197  11.412
63871W        W30280  22.506  25.733   4.586
63872W        W30281  11.944  26.927  12.380
63873W        W30282  27.920  29.154  11.852
63874W        W30283  43.752  41.678   1.287
63875W        W30284  19.352  10.776   2.450
63876W        W30285  26.731  18.222  13.155
63877W        W30286   8.811   0.067  10.309
63878W        W30287  29.807  40.521   0.296
63879W        W30288  24.352  25.952   9.802
63880W        W30289   7.954  43.430  13.504
63881W        W30290   6.136  16.885   1.229
63882W        W30291  32.100  28.730   0.773
63883W        W30292   9.306   0.495  14.915
63884W        W30293   0.382  19.711   4.622
63885W        W30294   9.542  39.466  12.310
63886W        W30295  21.359  20.383   1.659
63887W        W30296   0.539   0.692  14.693
63888W        W30297  25.604  16.888   1.510
63889W        W30298  17.196   1.453  10.947
63890W        W30299  24.550   4.754  14.704
63891W        W30300  26.968  23.249   3.559
63892W        W30301   5.071  34.818  13.869
63893W        W30302  15.644  21.535  12.664
63894W        W30303   7.341  29.420  11.852
63895W        W30304   0.198  40.973   2.607
63896W        W30305  25.537   1.270   0.985
63897W        W30306   2.682   7.729  14.135
63898W        W30307  38.994  34.593  12.192
63899W        W30308  35.134  20.074  13.366
63900W        W30309  43.946  12.369   0.802
63901W        W30310  22.283   1.798  10.974
63902W        W30311  17.259  10.026   3.853
63903W        W30312  41.332   6.398   0.878
63904W        W30313  10.674   1.128   3.456
63905W        W30314  28.718  32.373   3.347
63906W        W30315  23.422  33.173  14.690
63907W        W30316  41.342   3.047   2.208
63908W        W30317  10.738  30.266  10.236
63909W        W30318  32.361  18.691   2.894
63910W        W30319   0.762  17.600   2.185
63911W        W30320  15.063  36.233   3.248
63912W        W30321  36.694  18.114   0.974
63913W        W30322   0.636   9.775   9.810
63914W        W30323  38.678  31.889   5.069
63915W        W30324   3.819  21.741   3.262
63916W        W30325  22.530  31.924  12.843
63917W        W30326  34.110  28.469  13.069
63918W        W30327  40.549  35.265   1.222
63919W        W30328  27.073  33.385   1.872
63920W        W30329  32.924  30.093  12.032
63921W        W30330  22.489   1.770  13.043
63922W        W30331  18.585  35.943   4.574
63923W        W30332  39.768   7.271   1.185
63924W        W30333  36.443  39.579   3.810
63925W        W30334  33.776  14.995  14.740
63926W        W30335   4.820  44.255   3.714
63927W        W30336  13.765  14.757   3.603
63928W        W30337  44.936  40.826  14.819
63929W        W30338  23.901   8.821   4.087
63930W        W30339   2.094  33.907   1.947
63931W        W30340  44.143  30.876   3.790
63932W        W30341  40.070  15.686   0.174
63933W        W30342  24.663   5.782  13.823
63934W        W30343   3.885  23.655  10.265
63935W        W30344  40.489   1.892  13.829
63936W        W30345  27.266   5.667   0.529
63937W        W30346   5.620  34.573   3.255
63938W        W30347  29.621  11.906   0.303
63939W        W30348  32.148  13.031  13.649
63940W        W30349  23.050  34.448  14.538
63941W        W30350  26.323  16.157  11.314
63942W        W30351  15.078  12.300  12.068
63943W        W30352  22.216  13.342   2.776
63944W        W30353  37.505   7.174   4.509
63945W        W30354   3.917   2.059   4.122
63946W        W30355   6.393  22.249   0.319
63947W        W30356  31.164   3.454   2.756
63948W        W30357   6.521  23.994  11.576
63949W        W30358  37.937  44.413   4.452
63950W        W30359   2.851  41.836   0.378
63951W        W30360  30.548  31.753  12.379
63952W        W30361   9.924  26.089   2.074
63953W        W30362  38.359  40.872  10.734
63954W        W30363  16.205  17.537  13.597
63955W        W30364   1.879  44.530   0.042
63956W        W30365  10.646  21.030  14.395
63957W        W30366  14.765  17.326  12.626
63958W        W30367  13.361  23.521   2.314
63959W        W30368  27.994  39.053   0.048
63960W        W30369   5.933  34.702   2.428
63961W        W30370  44.202  37.340   4.542
63962W        W30371  35.818  36.486   0.675
63963W        W30372   3.395  42.537  12.966
63964W        W30373  17.139  36.261   1.833
63965W        W30374   8.138  34.414   2.701
63966W        W30375  11.266  17.171   2.963
63967W        W30376  11.190  26.422   3.285
63968W        W30377  34.522  43.611   2.146
63969W        W30378  29.503  27.751   1.313
63970W        W30379  38.890  35.979   4.458
63971W        W30380  31.118  23.973  10.701
63972W        W30381   7.354  40.874   3.728
63973W        W30382  24.867   6.027  11.133
63974W        W30383   6.840  33.155  13.857
63975W        W30384   1.901  41.193   0.889
63976W        W30385  22.140  33.656   1.829
63977W        W30386  44.567  15.317  11.120
63978W        W30387  32.322  43.388  13.396
63979W        W30388  34.042  29.768  13.886
63980W        W30389  33.374  40.792  14.797
63981W        W30390  34.906  24.588  12.155
63982W        W30391   0.376  34.628  11.859
63983W        W30392   3.879   5.471  13.466
63984W        W30393  25.939  11.771  12.971
63985W        W30394   6.145  41.033  10.662
63986W        W30395  18.714  43.450  14.210
63987W        W30396  37.282  24.854   4.679
63988W        W30397  38.483  40.885  13.325
63989W        W30398  19.210  31.594  14.840
63990W        W30399  15.394  39.015   3.641
63991W        W30400  43.727  12.940  12.526
63992W        W30401  24.151  34.985  14.757
63993W        W30402  30.653   9.219  13.885
63994W        W30403  44.963  19.517   1.697
63995W        W30404  28.978  23.415  11.179
63996W        W30405  34.244  24.000   3.193
63997W        W30406  12.791  11.602   0.373
63998W        W30407   6.917  17.067  12.559
63999W        W30408  21.774  44.417   3.730
64000W        W30409  26.146  37.776   1.418
64001W        W30410  35.466  12.088  10.380
64002W        W30411  21.225  26.914  11.636
64003W        W30412  21.217  44.207   2.693
64004W        W30413  10.327   8.269   0.026
64005W        W30414  39.834  35.817  12.066
64006W        W30415  19.343  27.497   2.254
64007W        W30416  11.860  39.278  13.969
64008W        W30417   9.783   4.292   4.670
64009W        W30418   8.317  37.586   0.320
64010W        W30419  24.635   9.581   4.974
64011W        W30420   0.900  21.519   0.073
64012W        W30421   0.659  31.375   0.150
64013W        W30422  11.136  38.991  14.414
64014W        W30423  22.208  39.978  14.727
64015W        W30424  10.360  33.713   3.579
64016W        W30425   9.870   5.658   3.711
64017W        W30426  23.669   4.494  13.959
64018W        W30427  28.243  41.060   0.711
64019W        W30428  42.379  10.465   2.224
64020W        W30429   8.358   8.916   2.005
64021W        W30430  20.323  21.374  11.173
64022W        W30431   2.370  24.249   0.227
64023W        W30432  34.864  27.120   1.248
64024W        W30433  14.098  37.082  14.909
64025W        W30434  40.991  44.291  12.076
64026W        W30435  34.962  14.522   0.254
64027W        W30436  17.096  26.230  14.839
64028W        W30437  19.690   6.142   0.304
64029W        W30438  37.464   2.900   2.382
64030W        W30439  20.064  27.918  12.551
64031W        W30440  31.826   3.234   3.394
64032W        W30441  11.933  32.033   3.090
64033W        W30442  26.060  24.208  11.463
64034W        W30443   6.848  29.404  11.937
64035W        W30444  36.571  31.119   1.778
64036W        W30445  11.411  21.487   0.270
64037W        W30446   5.420  19.778  14.457
64038W        W30447  16.155  28.776   0.726
64039W        W30448  34.455  11.515   2.284
64040W        W30449  41.346  12.397   4.538
64041W        W30450  38.491  16.708   0.038
64042W        W30451  18.610  20.342  10.429
64043W        W30452  39.194  10.828  11.201
64044W        W30453  38.528  44.945  13.809
64045W        W30454  12.414  10.335   2.613
64046W        W30455  40.562  31.099   2.683
64047W        W30456  11.738  32.182  13.046
64048W        W30457  27.909  28.551  10.648
64049W        W30458  39.636  20.946   2.805
64050W        W30459  34.618  20.322  14.456
64051W        W30460   2.165  21.145   4.976
64052W        W30461  28.845   8.931   0.395
64053W        W30462  12.030  28.567  12.523
64054W        W30463   8.739   0.494  13.434
64055W        W30464   2.544  22.734   4.087
64056W        W30465  33.757   0.742  13.709
64057W        W30466  42.268  16.169   2.340
64058W        W30467   6.862  39.025   2.026
64059W        W30468  22.227  11.826   0.525
64060W        W30469  32.714  41.037  11.178
64061W        W30470  30.948  41.837  13.361
64062W        W30471  41.413  18.769   1.864
64063W        W30472   9.764  23.638   4.116
64064W        W30473  11.044  44.261  12.677
64065W        W30474   4.862  44.275   1.301
64066W        W30475  20.455  23.445   3.519
64067W        W30476  41.195   0.212  13.541
64068W        W30477  19.060  30.127   2.950
64069W        W30478  43.578   6.604   0.820
64070W        W30479  25.159  13.145   3.717
64071W        W30480   3.588  26.393   2.169
64072W        W30481   6.408   9.850   1.728
64073W        W30482  14.282  17.065   0.308
64074W        W30483  10.876   2.332  12.933
64075W        W30484  25.045  22.734   0.829
64076W        W30485   8.290  28.885  10.955
64077W        W30486  10.893   6.916   2.741
64078W        W30487   6.331  22.285   3.567
64079W        W30488  17.309  24.941  14.314
64080W        W30489  16.284   4.456  14.454
64081W        W30490  33.438   6.869  13.243
64082W        W30491  26.640  36.238  10.718
64083W        W30492  30.010  15.577   3.716
64084W        W30493  15.046  27.055  11.606
64085W        W30494  36.253  38.358   4.613
64086W        W30495  26.938  15.670  13.053
64087W        W30496  39.870  17.232  12.430
64088W        W30497   2.921  36.973  10.501
64089W        W30498   2.337  12.889  12.883
64090W        W30499  26.438  14.958  13.070
64091W        W30500   4.273  10.263  14.040
64092W        W30501   3.770   3.287   3.268
64093W        W30502  14.397  20.746  13.032
64094W        W30503  14.636   7.155  13.521
64095W        W30504  44.270  37.761  10.645
64096W        W30505  30.053  26.958  14.915
64097W        W30506  29.036   5.439   2.100
64098W        W30507  17.781  37.784   4.504
64099W        W30508  17.504   7.797  10.576
64100W        W30509  34.333  40.414   3.162
64101W        W30510  11.020  42.699  11.160
64102W        W30511  42.409  35.310   4.138
64103W        W30512   0.383   7.156  12.278
64104W        W30513  15.790  11.367  12.508
64105W        W30514  25.510  39.459  10.878
64106W        W30515   8.495   1.980  11.623
64107W        W30516  20.274  37.558  13.881
64108W        W30517   9.843  28.005   4.364
64109W        W30518  11.413  25.299  11.661
64110W        W30519  33.357   3.540  10.800
64111W        W30520   0.732  38.563  12.307
64112W        W30521  30.904  28.666   0.656
64113W        W30522  17.061  19.552   0.665
64114W        W30523  31.843  44.857  10.437
64115W        W30524   6.754  19.046  13.950
64116W        W30525  18.205  15.057  12.945
64117W        W30526  23.315   4.923  12.932
64118W        W30527  23.544  11.037   2.810
64119W        W30528  19.506  44.853   3.321
64120W        W30529  42.718  25.591  14.996
64121W        W30530  23.015   4.772  13.319
64122W        W30531  42.013  11.417  12.658
64123W        W30532  16.122  15.739  14.452
64124W        W30533  16.501  31.866   3.214
64125W        W30534  14.227  26.110   3.234
64126W        W30535  44.572  26.614   4.812
64127W        W30536  31.871  27.253   0.302
64128W        W30537  35.948   8.147   4.119
64129W        W30538   2.192  22.617   1.955
64130W        W30539   6.728  25.591   2.114
64131W        W30540  12.392  19.594   3.696
64132W        W30541   6.247  36.878   2.156
64133W        W30542  18.298  31.419  14.342
64134W        W30543   3.237   1.297   1.516
64135W        W30544  12.682  39.792   1.773
64136W        W30545  38.057  41.594   2.663
64137W        W30546  30.060   5.033   2.244
64138W        W30547  19.793   3.818   4.098
64139W        W30548  11.323  27.973  10.682
64140W        W30549  40.112  14.847  13.383
64141W        W30550  26.711  23.313  11.212
64142W        W30551   1.168  14.227   0.846
64143W        W30552   7.341  41.351   1.142
64144W        W30553  27.868   8.635  13.252
64145W        W30554   8.105  26.608  13.859
64146W        W30555  17.160  33.036   4.652
64147W        W30556  40.988  16.586  13.004
64148W        W30557  32.922   6.361   4.124
64149W        W30558  24.703  20.740   1.878
64150W        W30559  16.661  11.159   1.426
64151W        W30560  36.744  26.805  10.379
64152W        W30561   7.227   4.277   4.437
64153W        W30562  20.436  14.287  14.098
64154W        W30563  43.961  22.108   0.939
64155W        W30564  36.510  32.278   4.267
64156W        W30565  40.034  37.881  13.528
64157W        W30566  42.333  18.271   3.683
64158W        W30567  14.899  16.755  11.920
64159W        W30568   6.784  29.510   4.645
64160W        W30569   7.084  32.973   4.680
64161W        W30570  35.251  39.533  11.277
64162W        W30571  23.646   2.815   2.862
64163W        W30572   5.433   7.946   0.667
64164W        W30573  27.594  40.231   2.723
64165W        W30574   8.072   3.322   0.759
64166W        W30575  12.906  22.676   4.664
64167W        W30576  36.380  23.900   3.647
64168W        W30577  39.161  13.266  12.957
64169W        W30578   2.112  30.605   1.173
64170W        W30579  32.323   2.903  14.822
64171W        W30580  18.143  18.527   2.746
64172W        W30581  12.260  11.374   1.252
64173W        W30582  15.209  21.797  11.198
64174W        W30583  43.210  37.732  12.863
64175W        W30584  39.240  41.446  13.467
64176W        W30585  17.775  39.251  14.037
64177W        W30586  22.475  27.145   1.785
64178W        W30587  14.758  40.307  11.675
64179W        W30588   5.523  32.122  11.330
64180W        W30589   1.047   9.494   2.370
64181W        W30590  38.662  33.466  14.331
64182W        W30591   4.231  31.492  12.415
64183W        W30592  17.380   9.538   2.212
64184W        W30593  25.385   6.917  11.122
64185W        W30594  16.610  41.627  12.128
64186W        W30595  17.771  27.530   1.351
64187W        W30596  33.237  17.490  14.018
64188W        W30597   1.055  44.294  12.096
64189W        W30598  30.138   4.944   2.758
64190W        W30599  26.212  23.096  14.779
64191W        W30600  15.566  43.696  10.578
64192W        W30601  32.173   3.812  12.939
64193W        W30602  41.866  32.954  11.488
64194W        W30603  23.230  26.745  12.881
64195W        W30604  32.431  15.434  13.560
64196W        W30605  11.107  39.557  12.427
64197W        W30606  39.664  25.121  13.424
64198W        W30607  30.387   2.196   3.642
64199W        W30608  14.946  43.308  14.616
64200W        W30609  12.388  28.409   0.950
64201W        W30610  15.524  40.232   3.325
64202W        W30611  23.058  16.608  10.617
64203W        W30612   8.414  29.874  13.038
64204W        W30613   7.206   5.529   0.447
64205W        W30614  30.144  33.450  12.017
64206W        W30615  31.127  33.946  10.889
64207W        W30616  32.535  11.212   4.079
64208W        W30617  42.081   3.309  10.560
64209W        W30618   6.726  34.650   0.396
64210W        W30619  31.916  19.336  11.903
64211W        W30620  36.007  41.503   4.289
64212W        W30621  11.841   6.595   4.464
64213W        W30622  25.246  13.140   0.686
64214W        W30623  41.699  44.826  10.698
64215W        W30624   5.076   1.855   0.725
64216W        W30625  36.461  39.145   1.616
64217W        W30626   0.418  17.512   2.601
64218W        W30627  12.794  41.616   4.019
64219W        W30628  12.908  42.193   1.020
64220W        W30629  29.069  29.939  13.772
64221W        W30630  20.547  16.598  12.903
64222W        W30631  20.321  15.270   2.298
64223W        W30632  19.200   7.828  12.510
64224W        W30633  25.160  13.208   1.702
64225W        W30634   4.812   6.150  10.460
64226W        W30635   0.005  29.458   1.875
64227W        W30636  35.423   1.892  13.100
64228W        W30637  28.898  37.035   4.521
64229W        W30638   0.784   5.189  13.493
64230W        W30639   6.697  37.845  13.939
64231W        W30640  40.894  32.021   1.215
64232W        W30641   1.258  15.217   2.749
64233W        W30642  28.114  27.557  10.810
64234W        W30643  43.602  40.099   1.675
64235W        W30644  22.809  14.876   1.906
64236W        W30645  37.495  25.363  11.753
64237W        W30646  32.337   1.894   4.150
64238W        W30647  37.844  36.955   3.997
64239W        W30648  43.451   7.222  13.298
64240W        W30649  12.743  17.486   2.764
64241W        W30650  26.021  38.805   4.411
64242W        W30651  26.038  35.514  12.369
64243W        W30652   6.554   5.798  13.990
64244W        W30653  40.390  42.102  11.141
64245W        W30654  22.706  11.062  13.835
64246W        W30655  37.001  22.782   0.508
64247W        W30656  29.953  35.966  14.790
64248W        W30657  34.131  33.421  13.053
64249W        W30658  20.306   6.678   3.269
64250W        W30659   4.883  43.750  10.444
64251W        W30660  21.119   6.257  13.613
64252W        W30661  10.238  15.313   4.640
64253W        W30662  18.007   7.147  11.991
64254W        W30663  43.858  23.300  13.148
64255W        W30664  32.672   3.887   0.950
64256W        W30665  12.055  33.735   3.061
64257W        W30666  29.053  18.137  10.634
64258W        W30667   4.359  39.397   0.930
64259W        W30668  15.760  41.003  10.370
64260W        W30669  33.143  17.530   0.099
64261W        W30670  34.144  27.487   0.713
64262W        W30671  16.321  16.277  11.160
64263W        W30672  30.864  31.168   2.181
64264W        W30673  21.713  14.680   0.574
64265W        W30674  17.126   7.876  11.482
64266W        W30675  44.785  39.603  14.433
64267W        W30676  35.464  42.971   0.787
64268W        W30677  18.149  17.126   1.378
64269W        W30678  20.748  24.080   0.980
64270W        W30679   6.429   9.627   4.526
64271W        W30680   1.184  22.509   0.268
64272W        W30681  32.399  28.197   4.206
64273W        W30682  43.733  26.616  10.891
64274W        W30683   8.886   0.071   1.909
64275W        W30684  15.892  37.285  14.955
64276W        W30685  35.860  10.665  13.510
64277W        W30686  35.916  16.558  13.909
64278W        W30687  25.061  43.947  14.848
64279W        W30688  34.739  26.141  11.057
64280W        W30689   9.956  31.470  11.104
64281W        W30690  37.585  36.917   1.899
64282W        W30691   7.792  35.414   3.549
64283W        W30692  42.440  33.634  12.880
64284W        W30693  36.536  44.813   4.500
64285W        W30694   6.168   7.270   9.971
64286W        W30695   6.107  42.520  13.499
64287W        W30696  36.751  29.548  10.810
64288W        W30697  19.698   1.390  13.430
64289W        W30698  14.747  30.536   4.262
64290W        W30699  42.332  34.501  12.539
64291W        W30700  15.757  39.620  13.563
64292W        W30701  19.089   5.356   1.946
64293W        W30702  28.393  17.633   3.205
64294W        W30703  14.573  29.061  13.312
64295W        W30704   3.500  42.486  14.024
64296W        W30705   2.428  11.065   0.366
64297W        W30706  19.206  17.027  10.776
64298W        W30707  42.226  25.064  11.494
64299W        W30708  13.601  34.063   1.766
64300W        W30709  19.975  16.714   2.724
64301W        W30710  17.145  37.151   0.834
64302W        W30711  39.878  37.353   0.024
64303W        W30712  24.559  40.411  13.407
64304W        W30713  38.861  41.168   4.526
64305W        W30714  32.578   2.794  12.534
64306W        W30715  24.836   4.759  11.475
64307W        W30716  25.755   9.765   2.704
64308W        W30717   5.887  42.009  12.573
64309W        W30718  22.461  42.293   0.350
64310W        W30719  37.838  22.166  14.057
64311W        W30720  33.941   4.285   4.063
64312W        W30721  16.828  42.659   2.520
64313W        W30722  18.139  18.016   1.211
64314W        W30723  37.128  33.412   4.594
64315W        W30724  31.639  39.560   1.250
64316W        W30725  37.880  42.370   4.048
64317W        W30726  39.013   7.332  14.765
64318W        W30727  16.080  30.865  11.205
64319W        W30728   9.261  39.115   2.733
64320W        W30729  35.483  43.261  13.886
64321W        W30730  15.638  18.365   0.492
64322W        W30731  13.175  36.871   3.785
64323W        W30732  17.840  28.524   0.974
64324W        W30733  19.595  12.388  14.863
64325W        W30734  44.699  37.864   1.271
64326W        W30735  15.205  38.062   0.857
64327W        W30736  12.440  18.202   0.199
64328W        W30737   7.807   2.001   1.922
64329W        W30738  38.818  25.989   2.146
64330W        W30739  31.509  34.891   3.202
64331W        W30740  26.498  19.767   3.639
64332W        W30741   8.847  36.095   3.167
64333W        W30742  21.911  23.584   3.680
64334W        W30743  33.975  28.242   1.195
64335W        W30744  16.141   9.424  13.051
64336W        W30745  37.586  19.004  12.039
64337W        W30746  14.392  22.687   5.015
64338W        W30747   1.444  14.607   3.890
64339W        W30748  39.168  14.065  12.531
64340W        W30749   0.305  18.973  12.691
64341W        W30750  35.047  30.191  11.563
64342W        W30751   6.334   9.496   1.296
64343W        W30752  10.784  15.625  13.805
64344W        W30753  34.920  32.404   3.321
64345W        W30754  40.959   1.799  14.893
64346W        W30755  19.532   0.320   0.500
64347W        W30756  25.469  24.636  14.533
64348W        W30757  15.097  43.486  10.664
64349W        W30758  43.857  12.706   0.246
64350W        W30759  39.370   8.139   4.162
64351W        W30760  31.412   6.241   4.311
64352W        W30761  21.315  41.245  12.067
64353W        W30762  42.344  21.807   4.972
64354W        W30763  39.334  18.946  12.361
64355W        W30764  14.920  18.541   4.067
64356W        W30765  14.153  26.388  13.221
64357W        W30766   7.321  15.043   2.489
64358W        W30767   6.560  12.257   4.967
64359W        W30768  38.845  13.175   2.265
64360W        W30769  16.152  11.267  14.376
64361W        W30770   0.514  14.688  11.463
64362W        W30771  12.838   2.416  14.382
64363W        W30772  25.441  15.963  12.141
64364W        W30773  42.546  38.981   3.020
64365W        W30774  14.625  42.813  13.322
64366W        W30775  37.317  11.391  10.731
64367W        W30776  12.006   8.566  14.359
64368W        W30777  34.051   0.682   1.871
64369W        W30778  35.014  31.639   3.646
64370W        W30779  25.518  40.853   2.696
64371W        W30780   9.425  20.219   0.031
64372W        W30781  27.312  22.941   2.280
64373W        W30782  36.010   5.332  11.727
64374W        W30783  31.016   8.739   3.690
64375W        W30784  28.339   3.801   1.858
64376W        W30785  24.032  22.122   2.709
64377W        W30786  36.928  38.313   0.304
64378W        W30787  35.068  43.302   0.911
64379W        W30788  28.440  44.891   0.490
64380W        W30789   3.361   1.543   4.846
64381W        W30790  19.834  31.854  14.269
64382W        W30791  27.714  21.950   2.156
64383W        W30792  18.482   8.262   2.844
64384W        W30793  25.657  21.197  12.085
64385W        W30794   4.825  41.963   3.216
64386W        W30795  41.558  33.132  11.093
64387W        W30796  44.480  44.882  11.325
64388W        W30797   5.439   6.980   4.621
64389W        W30798  26.601  19.268  14.003
64390W        W30799  39.787  17.326  14.248
64391W        W30800  40.811  34.113  13.500
64392W        W30801  23.493  20.717  11.067
64393W        W30802   5.187  25.173  12.105
64394W        W30803  16.337   6.836   1.242
64395W        W30804  24.749  29.421   3.792
64396W        W30805  39.772  10.846   0.763
64397W        W30806   5.199  12.776   2.743
64398W        W30807  11.938  36.935   4.407
64399W        W30808  19.689  28.390  10.075
64400W        W30809  29.633  15.489   1.801
64401W        W30810  30.452  17.891   3.699
64402W        W30811  28.316  16.103  13.517
64403W        W30812  16.221   8.222  13.707
64404W        W30813  34.575  16.591   4.137
64405W        W30814  44.599  17.284  12.943
64406W        W30815  33.405  18.953  14.285
64407W        W30816   4.868   4.667   0.570
64408W        W30817   9.899  17.601  14.531
64409W        W30818   1.055  29.417  11.516
64410W        W30819  44.311   0.501  13.030
64411W        W30820  25.711   9.649  12.865
64412W        W30821  20.172  13.135   2.423
64413W        W30822  34.901  20.736   4.931
64414W        W30823  44.386  25.734  10.320
64415W        W30824  44.984  21.253  11.083
64416W        W30825  18.253  40.477  10.636
64417W        W30826  18.035  12.068  14.424
64418W        W30827  17.313  26.464   0.682
64419W        W30828  34.629  30.472  14.360
64420W        W30829   4.360   2.788  12.061
64421W        W30830  22.238  35.433   1.414
64422W        W30831   8.457  14.364   5.020
64423W        W30832  21.343  36.866   2.338
64424W        W30833   2.766  19.314  12.005
64425W        W30834  16.517  29.602  10.920
64426W        W30835  24.935  30.002   1.753
64427W        W30836  23.084  38.326   0.384
64428W        W30837  29.114  14.202  11.108
64429W        W30838  37.075  18.568   2.358
64430W        W30839  29.706  44.088   5.112
64431W        W30840   9.711  28.332   0.489
64432W        W30841   9.987  18.583   4.151
64433W        W30842  17.434  23.654   2.388
64434W        W30843  24.899   1.822   4.207
64435W        W30844  21.586  24.963  10.395
64436W        W30845   4.562  44.292   2.141
64437W        W30846  33.416  44.964  14.307
64438W        W30847  32.342  19.738   2.809
64439W        W30848   4.022  39.802   2.845
64440W        W30849  21.209  33.661   3.161
64441W        W30850  26.608  23.590  11.652
64442W        W30851  27.865  21.985   2.675
64443W        W30852  15.112  27.822   3.781
64444W        W30853  23.982  10.031   9.853
64445W        W30854  17.778  16.022  11.167
64446W        W30855  44.413  27.052   2.424
64447W        W30856  18.329  14.704   2.385
64448W        W30857  36.942   5.704   4.338
64449W        W30858   1.193  24.717   1.458
64450W        W30859  24.890  11.662   3.593
64451W        W30860   4.008   1.047   0.337
64452W        W30861  33.806   3.529   2.377
64453W        W30862  29.659  43.804  12.026
64454W        W30863  17.909  34.721   1.943
64455W        W30864  35.840   1.911  14.202
64456W        W30865  28.214   2.848   4.760
64457W        W30866  35.623  21.211  12.920
64458W        W30867  16.612   5.192  14.034
64459W        W30868  12.163  30.177   4.893
64460W        W30869  11.272  19.700  10.962
64461W        W30870   3.493  15.600   1.550
64462W        W30871   7.395  19.131   4.753
64463W        W30872  44.279  15.266  11.550
64464W        W30873  41.945  29.414   4.278
64465W        W30874  25.578  34.586   1.742
64466W        W30875  42.217  41.121   0.463
64467W        W30876  38.631  29.121  10.485
64468W        W30877  11.687  33.473   3.305
64469W        W30878   8.681  39.942   1.239
64470W        W30879   4.120  24.129  12.888
64471W        W30880  38.246   4.582  14.474
64472W        W30881  20.029  37.770  12.006
64473W        W30882   5.234   3.557   1.335
64474W        W30883  29.246  35.868   2.201
64475W        W30884  34.085  43.379   1.945
64476W        W30885  10.795   4.465  11.030
64477W        W30886  25.663   6.463  11.073
64478W        W30887  43.447  25.905   3.156
64479W        W30888  18.176  30.380   0.273
64480W        W30889  19.249   4.862   4.622
64481W        W30890   7.722  25.105   0.731
64482W        W30891  25.905  19.117   3.343
64483W        W30892  13.804  12.129  14.786
64484W        W30893   2.631  38.902  11.119
64485W        W30894  14.017  27.015  11.569
64486W        W30895   8.167  16.218   0.896
64487W        W30896   8.658  23.595  14.973
64488W        W30897   4.925  43.402  12.949
64489W        W30898   4.983   7.375   1.972
64490W        W30899  21.057  14.750   2.178
64491W        W30900   8.921  37.976  11.999
64492W        W30901  11.552   5.420  13.767
64493W        W30902  30.501  34.181   4.675
64494W        W30903  43.241  41.385  12.010
64495W        W30904  23.079  42.480   1.215
64496W        W30905  36.900   7.906  12.091
64497W        W30906  21.304   1.574   1.497
64498W        W30907   0.060   8.205   1.883
64499W        W30908  19.459  25.405  12.563
64500W        W30909  44.999  24.082  12.140
64501W        W30910  15.134  39.556   4.591
64502W        W30911   6.811  32.361  12.704
64503W        W30912   7.236  14.365  12.586
64504W        W30913  23.548  12.086   0.383
64505W        W30914   6.773  31.105  11.420
64506W        W30915  30.138  29.553  11.909
64507W        W30916  36.442  13.699  14.282
64508W        W30917  27.613  15.298   3.792
64509W        W30918  42.230  32.773   3.256
64510W        W30919  27.151  21.474   0.877
64511W        W30920  33.914  34.426  12.612
64512W        W30921  18.931  12.725   5.009
64513W        W30922  26.189  11.772   2.830
64514W        W30923  34.619  35.489  11.651
64515W        W30924  15.328  24.744  12.139
64516W        W30925  35.167  10.297   1.599
64517W        W30926  28.965   2.385  13.911
64518W        W30927  21.961  14.368  11.453
64519W        W30928  29.016  30.940  11.590
64520W        W30929  24.542  39.058  13.089
64521W        W30930  41.983  27.679  13.047
64522W        W30931  44.292  27.393   0.528
64523W        W30932  24.534  39.064  11.655
64524W        W30933   2.228  15.760  14.302
64525W        W30934   2.335  43.524  14.736
64526W        W30935  22.200  17.711   0.559
64527W        W30936  24.303  29.468  11.166
64528W        W30937  14.535   6.802   1.686
64529W        W30938   4.832  17.247  14.965
64530W        W30939   6.570  28.394   1.906
64531W        W30940   8.734  29.465   4.524
64532W        W30941   4.221  14.498   3.544
64533W        W30942  11.735  37.966   4.720
64534W        W30943   8.692  31.881   4.911
64535W        W30944  23.494  37.610  13.725
64536W        W30945  12.812   0.493  13.344
64537W        W30946  15.804  15.204   1.914
64538W        W30947  43.202  41.779  14.464
64539W        W30948  27.825  26.789   2.657
64540W        W30949  16.683  17.774  11.297
64541W        W30950  33.689  43.001  13.502
64542W        W30951   4.742   6.430   2.393
64543W        W30952  19.181  12.727  10.776
64544W        W30953  34.190  11.779   4.165
64545W        W30954  21.012  10.750  14.401
64546W        W30955  34.921  33.285   1.780
64547W        W30956  22.524  35.098   3.126
64548W        W30957  23.543  17.316   0.177
64549W        W30958  36.354  36.424  12.887
64550W        W30959  35.171  14.287  13.370
64551W        W30960  15.974  25.997  12.549
64552W        W30961   3.829  34.017  11.434
64553W        W30962   8.561   9.176  12.376
64554W        W30963  25.214   5.308  13.681
64555W        W30964  34.391  43.600  11.974
64556W        W30965  43.322  43.216  11.145
64557W        W30966  27.461   3.810  12.050
64558W        W30967  12.790   0.378   1.951
64559W        W30968  37.570  34.154  12.106
64560W        W30969   0.531  32.809   4.682
64561W        W30970  10.240   7.358   0.742
64562W        W30971  23.672  31.754  14.942
64563W        W30972   0.780  29.154  12.049
64564W        W30973   7.931  12.694   0.863
64565W        W30974  41.989  31.954   4.211
64566W        W30975  41.741  11.434   1.975
64567W        W30976  37.921  28.035  14.771
64568W        W30977  33.653  12.844  11.642
64569W        W30978  26.476  44.875   0.744
64570W        W30979  23.036   4.719  11.696
64571W        W30980  37.988  13.575  11.542
64572W        W30981  39.907  16.488  11.836
64573W        W30982   8.470  33.370   0.127
64574W        W30983   3.948  25.497   1.218
64575W        W30984  33.978   4.206  11.647
64576W        W30985  19.057  18.043  10.755
64577W        W30986   9.199  42.281   3.609
64578W        W30987  31.292  37.319  14.090
64579W        W30988  14.255  35.776  12.476
64580W        W30989  29.945  21.629  12.457
64581W        W30990  41.056  23.563  14.975
64582W        W30991  42.309   1.425  13.881
64583W        W30992  17.322  16.752  12.067
64584W        W30993   2.706  30.193   2.772
64585W        W30994   0.479  15.190  13.721
64586W        W30995  21.619  32.044  10.400
64587W        W30996  42.630  33.825   1.955
64588W        W30997  28.280   2.447  11.834
64589W        W30998  12.697  41.906  11.648
64590W        W30999  34.240   4.407   2.506
64591W        W31000  30.163  44.994  11.194
64592W        W31001   7.857  31.521  13.830
64593W        W31002  24.426  39.124  14.905
64594W        W31003  33.486  12.813   3.829
64595W        W31004  13.852  30.089   3.094
64596W        W31005  20.565  15.509  11.190
64597W        W31006  37.404  22.837  14.967
64598W        W31007  42.505  33.049   3.587
64599W        W31008   5.410  44.225   3.168
64600W        W31009   2.464  23.143  13.593
64601W        W31010  15.681  37.779  14.971
64602W        W31011  34.154  15.971  11.602
64603W        W31012  36.038  15.536  13.902
64604W        W31013  21.888  22.262  10.937
64605W        W31014  11.806  18.615   3.282
64606W        W31015  43.955   2.236   0.445
64607W        W31016  32.338  27.689  13.101
64608W        W31017  14.159  38.959  11.613
64609W        W31018  21.210  42.923   1.342
64610W        W31019   6.943   5.857   3.696
64611W        W31020  31.825   9.632   0.955
64612W        W31021   7.739  29.552  11.162
64613W        W31022  44.369  22.438   3.710
64614W        W31023  26.463  25.671  11.971
64615W        W31024  15.978   7.913   4.780
64616W        W31025  25.870   7.889  11.014
64617W        W31026  34.833  36.667  12.051
64618W        W31027  37.293  13.871   1.828
64619W        W31028  15.591  14.688   0.013
64620W        W31029  11.355   8.738   2.830
64621W        W31030  30.392   2.026  10.710
64622W        W31031  12.634  43.463   2.298
64623W        W31032  43.762   1.905   3.224
64624W        W31033  17.810  23.615  11.685
64625W        W31034  38.128  41.419  12.646
64626W        W31035  41.902   8.750   0.053
64627W        W31036   7.345   2.445   2.764
64628W        W31037  33.628  33.396  11.230
64629W        W31038  24.293   7.684  12.369
64630W        W31039   3.659  14.781  11.711
64631W        W31040   5.726  21.378   1.422
64632W        W31041   3.197  18.817   3.736
64633W        W31042  38.532  10.771  10.575
64634W        W31043  32.991  27.645   4.117
64635W        W31044  34.788   3.952  14.185
64636W        W31045  32.522  14.232   1.327
64637W        W31046   2.657  15.609   2.294
64638W        W31047  35.490   4.695  14.955
64639W        W31048  13.621   0.714  14.698
64640W        W31049   9.927  29.876  13.054
64641W        W31050  19.491  30.153   0.437
64642W        W31051  43.293  19.994  12.110
64643W        W31052  25.246  32.572  12.323
64644W        W31053  14.712  23.688   0.197
64645W        W31054  15.081  42.605  11.629
64646W        W31055  34.456   9.213   0.315
64647W        W31056   4.713  19.181   3.257
64648W        W31057  38.152  24.999  12.464
64649W        W31058   5.930  39.198  13.852
64650W        W31059  40.458  38.458   2.932
64651W        W31060  28.007   2.061  12.065
64652W        W31061  35.413  37.588   1.934
64653W        W31062  32.792  15.112  13.753
64654W        W31063   2.707  42.202   1.851
64655W        W31064  41.937  17.208   1.324
64656W        W31065  20.669  13.006   5.045
64657W        W31066   0.626  20.227   1.412
64658W        W31067  24.489  20.971  11.536
64659W        W31068  39.786  13.279   0.326
64660W        W31069   6.621   4.058  14.417
64661W        W31070  23.800  19.967   0.830
64662W        W31071  39.411  42.576  14.285
64663W        W31072   3.509  26.907  13.238
64664W        W31073   9.875  26.695   3.676
64665W        W31074  14.510  39.631  11.142
64666W        W31075  35.655  37.585  11.080
64667W        W31076  44.920  24.520   3.346
64668W        W31077  28.583  15.079   0.502
64669W        W31078  27.065  29.152   4.862
64670W        W31079   1.956  32.503  11.684
64671W        W31080   6.733  33.408  12.428
64672W        W31081  27.416   8.455   4.499
64673W        W31082  41.139  35.075  13.268
64674W        W31083  16.466  19.787   2.384
64675W        W31084  44.655   7.975   1.662
64676W        W31085   2.210   9.663  10.643
64677W        W31086  35.122   0.101   4.552
64678W        W31087   4.206  20.752  12.032
64679W        W31088  28.181  22.786   2.354
64680W        W31089  30.206  33.832  13.312
64681W        W31090  15.250  30.545  12.945
64682W        W31091  43.784  10.319   1.976
64683W        W31092  17.346  16.168   0.776
64684W        W31093  14.823   3.811   2.285
64685W        W31094  33.983  12.251  12.295
64686W        W31095  10.645  25.056   4.609
64687W        W31096  14.739  33.606  10.709
64688W        W31097  19.525  42.992   0.450
64689W        W31098  37.334  37.653   4.224
64690W        W31099   4.400  35.856   3.287
64691W        W31100  44.759  33.573  14.840
64692W        W31101  38.006  35.383   4.163
64693W        W31102  22.606  43.061  12.888
64694W        W31103  13.795   8.456   1.731
64695W        W31104  19.190   1.160   3.603
64696W        W31105  15.321   2.624   2.189
64697W        W31106  38.586  19.638   3.136
64698W        W31107   3.814  44.855   3.039
64699W        W31108  20.315  34.632   0.397
64700W        W31109   9.367  24.732   1.381
64701W        W31110   5.956  37.297   4.064
64702W        W31111  20.516  36.110  11.955
64703W        W31112  41.754  16.796  13.633
64704W        W31113  20.085   6.728  10.954
64705W        W31114  26.682  18.887  14.337
64706W        W31115   7.334  12.767  10.663
64707W        W31116  19.342   7.404   2.440
64708W        W31117   2.729  36.831   1.537
64709W        W31118  43.510  34.861  10.747
64710W        W31119  39.798   8.392  13.369
64711W        W31120  22.478  11.152  11.096
64712W        W31121  34.456  37.067   2.256
64713W        W31122  18.261  28.021   2.656
64714W        W31123  19.012  32.024   1.889
64715W        W31124  23.949  42.792   1.700
64716W        W31125  17.335  30.525  14.391
64717W        W31126  11.777  41.211  14.928
64718W        W31127  24.553  17.695  14.049
64719W        W31128  22.556  15.198   3.475
64720W        W31129  43.861  33.975  13.905
64721W        W31130   4.936  22.027  13.357
64722W        W31131  27.666  34.218   0.312
64723W        W31132  16.611  11.086  10.753
64724W        W31133  17.100  40.001  14.643
64725W        W31134  19.760  35.420  13.900
64726W        W31135  21.974   3.536   2.911
64727W        W31136  22.029  13.689  13.301
64728W        W31137  27.804  35.944  10.367
64729W        W31138  42.369  15.453   0.644
64730W        W31139  29.105  21.914   4.911
64731W        W31140   0.473  10.388   2.726
64732W        W31141  44.783   4.985   1.280
64733W        W31142  29.848  44.470   3.315
64734W        W31143  11.357  27.419   0.650
64735W        W31144   2.209   4.826   3.174
64736W        W31145  24.857   1.251  10.770
64737W        W31146  11.666   3.161   0.849
64738W        W31147   1.388  30.780   2.801
64739W        W31148  10.261  25.417   0.355
64740W        W31149  11.781  35.649  14.440
64741W        W31150  38.280   3.450   1.345
64742W        W31151   9.697  11.702   2.850
64743W        W31152  18.529  40.899  10.588
64744W        W31153  18.684  12.389  14.954
64745W        W31154  28.748  24.395  11.075
64746W        W31155   4.849  19.060  14.329
64747W        W31156  23.786  18.116  12.307
64748W        W31157  15.244  37.861  11.715
64749W        W31158  20.652  30.802  10.690
64750W        W31159  32.130   6.328   0.360
64751W        W31160   8.239  44.802  12.332
64752W        W31161  17.082  41.121  13.373
64753W        W31162  17.301  37.633   0.345
64754W        W31163  21.556  18.575  13.029
64755W        W31164  18.213  14.639  10.479
64756W        W31165   9.880  14.647  13.863
64757W        W31166  18.708   3.167  11.614
64758W        W31167  38.381  41.758  10.363
64759W        W31168  11.630  44.654   5.302
64760W        W31169  15.065  25.179  12.000
64761W        W31170   7.907  27.236  10.056
64762W        W31171  24.043  43.427  10.535
64763W        W31172  29.408  42.875   3.669
64764W        W31173   4.713  24.689  14.094
64765W        W31174  29.451  26.453   3.233
64766W        W31175  24.114  30.709  13.673
64767W        W31176  17.697  40.262   3.390
64768W        W31177  24.577  14.129  14.410
64769W        W31178  26.293  31.635   3.723
64770W        W31179  26.322   6.908   1.238
64771W        W31180  42.381  10.844   1.687
64772W        W31181  23.948  32.644   3.542
64773W        W31182   6.210  26.941  14.830
64774W        W31183  39.465  31.563   0.199
64775W        W31184  19.559  35.800  12.096
64776W        W31185   9.681  14.490  10.821
64777W        W31186  22.835  44.153   0.983
64778W        W31187  11.187  25.579  10.484
64779W        W31188  14.580  42.563  12.810
64780W        W31189  24.853   8.909   1.189
64781W        W31190  23.647  29.920  13.862
64782W        W31191  24.361  36.523   0.837
64783W        W31192  35.349  18.151  11.530
64784W        W31193  23.143  17.611   0.350
64785W        W31194  31.983  33.584  13.033
64786W        W31195   7.714  15.152  11.223
64787W        W31196  36.305  25.257  14.962
64788W        W31197  29.567   1.499   0.494
64789W        W31198   4.445  28.373  11.943
64790W        W31199   4.342  21.869  11.618
64791W        W31200   2.759  41.700   3.598
64792W        W31201  24.891  11.217  10.673
64793W        W31202  44.725   9.672  12.614
64794W        W31203  30.633  13.015   0.138
64795W        W31204   3.417  43.808   3.232
64796W        W31205  42.265  10.541   9.507
64797W        W31206  38.602  37.460   2.009
64798W        W31207  20.470  17.031   1.444
64799W        W31208  31.506  19.559   4.520
64800W        W31209   5.175  29.921  13.471
64801W        W31210   6.976  15.432  11.045
64802W        W31211  30.426   1.176   3.556
64803W        W31212  20.667   8.752  13.741
64804W        W31213   0.636   0.368  13.360
64805W        W31214  21.206   3.741  12.329
64806W        W31215  23.599  32.873  11.537
64807W        W31216   3.559  44.976   2.599
64808W        W31217  19.137  21.526  13.027
64809W        W31218  14.595  42.750   0.923
64810W        W31219  44.055  39.426   2.102
64811W        W31220  10.106  22.100   0.405
64812W        W31221  11.755  22.474   0.348
64813W        W31222  20.805  36.406  13.628
64814W        W31223  27.183  19.507  11.984
64815W        W31224  10.290   5.116   1.343
64816W        W31225  24.148  21.042  13.503
64817W        W31226  37.354   5.143   4.210
64818W        W31227  31.944   1.849  14.312
64819W        W31228   5.327  23.830   3.275
64820W        W31229  25.009  35.054  11.939
64821W        W31230  22.604  29.180   0.321
64822W        W31231  15.534  33.354   2.864
64823W        W31232   6.608  41.094   3.251
64824W        W31233  30.600   9.856  14.479
64825W        W31234   5.201  17.689   0.741
64826W        W31235   3.673  31.506   0.455
64827W        W31236  23.578  40.088  14.885
64828W        W31237  36.017   1.027   3.207
64829W        W31238  41.587   0.289  12.645
64830W        W31239  26.185  36.929   3.568
64831W        W31240  43.031  34.018   4.215
64832W        W31241   1.898  10.847  11.505
64833W        W31242  12.407   6.844   0.307
64834W        W31243  39.207  40.488  11.997
64835W        W31244  43.825  39.438  12.913
64836W        W31245  35.886   4.907   0.267
64837W        W31246   4.849  16.289  13.835
64838W        W31247  40.007  13.646   1.427
64839W        W31248  18.674  41.367  10.721
64840W        W31249  21.731  27.675   0.781
64841W        W31250  21.937  18.078  14.053
64842W        W31251  21.927  37.994   3.715
64843W        W31252  23.306  36.961  13.013
64844W        W31253   8.923  26.686  11.624
64845W        W31254   6.303  13.503  12.059
64846W        W31255   7.859  41.167   1.116
64847W        W31256  33.256   3.976  12.941
64848W        W31257  31.946   0.747  12.070
64849W        W31258   1.935  19.131   1.433
64850W        W31259   7.407   6.641  11.263
64851W        W31260  28.404  32.612  11.531
64852W        W31261   9.697  37.283   9.641
64853W        W31262  28.906  21.764   3.701
64854W        W31263   5.852  41.680   0.314
64855W        W31264  20.110  33.502   3.147
64856W        W31265  21.847  26.313  11.782
64857W        W31266  20.232   7.678   4.197
64858W        W31267  24.065  25.234   1.224
64859W        W31268  36.267  39.942   2.815
64860W        W31269  22.338  11.891  14.010
64861W        W31270   1.163  16.280  12.959
64862W        W31271  13.422   6.158  13.166
64863W        W31272  34.394  35.595  13.124
64864W        W31273  34.140  28.212   4.553
64865W        W31274  14.228  23.207   2.899
64866W        W31275   2.512   2.490  13.950
64867W        W31276  19.753  17.466  11.178
64868W        W31277  11.814  44.066   2.284
64869W        W31278   3.960   8.433   4.216
64870W        W31279  15.312  11.811   0.488
64871W        W31280  12.659  40.718  14.782
64872W        W31281  36.991  31.646  13.406
64873W        W31282  37.402  43.119  11.257
64874W        W31283  19.030  39.561   4.197
64875W        W31284  32.973  39.100   0.483
64876W        W31285   5.193  31.365  11.135
64877W        W31286  39.940  36.576  13.298
64878W        W31287  41.089   8.610  14.406
64879W        W31288  38.386  21.548  10.386
64880W        W31289   0.276  41.147   3.077
64881W        W31290  35.916  33.429   2.217
64882W        W31291   6.401  42.847   1.959
64883W        W31292  32.429  12.085  13.573
64884W        W31293  12.733  25.974   3.253
64885W        W31294  33.442   4.218  11.581
64886W        W31295  10.676   1.528   1.748
64887W        W31296   3.213   8.052   5.159
64888W        W31297   1.704  20.625  10.613
64889W        W31298   5.170  15.784   2.823
64890W        W31299  41.863  15.197   2.141
64891W        W31300  36.261  14.251  10.826
64892W        W31301  26.036  37.494   1.010
64893W        W31302  40.024  15.003  13.888
64894W        W31303  40.765  14.865   0.957
64895W        W31304  14.670  31.551   1.879
64896W        W31305  14.611  18.486   0.657
64897W        W31306  37.381   1.515  12.149
64898W        W31307  13.823  23.728   2.138
64899W        W31308  13.734  17.230   2.742
64900W        W31309   6.229  23.968   2.366
64901W        W31310   1.379  19.709   2.308
64902W        W31311  22.000  17.235  10.922
64903W        W31312  29.193  23.538   1.674
64904W        W31313   2.884  13.330  13.260
64905W        W31314  41.828   8.696  13.636
64906W        W31315  34.691  38.311   1.510
64907W        W31316  42.933  36.594   1.728
64908W        W31317  40.553  37.472   0.230
64909W        W31318   8.125  22.013  10.765
64910W        W31319  30.036  13.714  14.364
64911W        W31320  25.570  44.594   4.620
64912W        W31321  26.096  26.138  11.109
64913W        W31322  25.241  31.376  14.968
64914W        W31323  23.146  10.608   2.206
64915W        W31324   3.289  39.922   2.152
64916W        W31325  26.321  43.545  10.497
64917W        W31326   1.031  31.227  12.518
64918W        W31327   8.261  13.407   3.268
64919W        W31328  21.198  39.602  10.082
64920W        W31329   6.863  29.857   0.919
64921W        W31330  43.742   6.891  12.420
64922W        W31331  26.238  15.062  14.834
64923W        W31332  41.390  43.141  10.742
64924W        W31333   6.668  29.994   1.437
64925W        W31334  40.047   3.626  10.505
64926W        W31335  28.663   1.919   3.149
64927W        W31336  38.099  43.946  10.686
64928W        W31337  20.296  36.261   0.387
64929W        W31338  24.017  17.175  13.360
64930W        W31339  19.450  33.851   4.772
64931W        W31340   4.657  26.742   4.197
64932W        W31341  37.317  14.985   1.511
64933W        W31342   6.109  43.849   2.709
64934W        W31343  10.954  28.988  12.095
64935W        W31344  35.419  33.606  14.918
64936W        W31345   9.196  12.192   0.847
64937W        W31346  11.654   2.314   4.017
64938W        W31347  28.702  27.188   3.097
64939W        W31348   5.745  28.062  11.508
64940W        W31349  36.511  28.439  13.065
64941W        W31350   3.719  16.007  13.064
64942W        W31351  21.261  43.589   4.009
64943W        W31352  21.224  21.264   0.641
64944W        W31353   0.739   0.320   1.470
64945W        W31354   3.030  25.455   4.957
64946W        W31355  25.419  44.719  10.415
64947W        W31356  24.504  14.784  13.816
64948W        W31357  17.104  16.510  11.638
64949W        W31358  24.420   5.383   3.127
64950W        W31359  13.354  41.868   4.071
64951W        W31360   8.771  24.194  14.165
64952W        W31361  13.953  34.597  12.047
64953W        W31362   0.331  44.492   0.430
64954W        W31363  37.800   6.836   2.346
64955W        W31364  38.086  15.335  12.025
64956W        W31365  20.703  13.874  12.121
64957W        W31366  27.906   0.389   2.785
64958W        W31367  42.307   3.530   0.380
64959W        W31368  28.018  34.592   0.145
64960W        W31369  35.913  18.630   0.891
64961W        W31370  39.591  24.904  11.069
64962W        W31371  14.990  36.971  11.065
64963W        W31372  24.977  15.612   3.125
64964W        W31373   1.310  25.161   4.347
64965W        W31374   4.236  37.938   2.426
64966W        W31375  19.003  20.998   3.629
64967W        W31376   7.798  10.410  12.145
64968W        W31377   6.327  41.331   4.609
64969W        W31378  36.333  28.590  13.955
64970W        W31379  40.949  11.336  14.305
64971W        W31380   9.294  17.732  11.965
64972W        W31381   7.390  14.283  10.713
64973W        W31382  24.657  13.061   1.841
64974W        W31383  31.838  11.169  11.652
64975W        W31384   0.998  29.650   3.877
64976W        W31385   4.176  17.075   4.090
64977W        W31386  19.020   0.243  12.354
64978W        W31387  21.126  34.028   3.599
64979W        W31388  27.808  33.683   2.885
64980W        W31389  22.598  37.965   4.371
64981W        W31390   1.980  21.248  12.448
64982W        W31391   8.328  39.830   0.889
64983W        W31392  27.910  41.518   4.589
64984W        W31393   6.259  36.442  12.944
64985W        W31394  32.536  34.382  14.890
64986W        W31395  44.222  41.301   3.286
64987W        W31396   1.700   6.688   3.391
64988W        W31397  35.173  30.560  12.833
64989W        W31398  25.542  28.752  10.712
64990W        W31399  43.018  32.071   4.162
64991W        W31400  30.512  40.481  12.587
64992W        W31401  27.507   9.567   0.584
64993W        W31402   8.707  19.729  10.705
64994W        W31403  27.163  29.750  12.460
64995W        W31404  40.818  22.770  13.482
64996W        W31405  25.209  18.986  14.512
64997W        W31406  19.504  22.558   3.406
64998W        W31407  17.732  10.913   1.789
64999W        W31408  21.880  10.372  12.190
65000W        W31409  16.001  36.382   3.321
65001W        W31410  37.395   5.969  13.926
65002W        W31411  23.495  35.945   2.743
65003W        W31412  22.378  16.369   2.129
65004W        W31413   1.009  28.628   3.890
65005W        W31414  18.665  44.963  13.021
65006W        W31415  39.560  39.834   3.390
65007W        W31416  12.655   2.250   4.702
65008W        W31417  38.306   5.930   2.317
65009W        W31418   6.462   1.427   3.333
65010W        W31419  34.412  21.997   3.317
65011W        W31420  18.855  13.595  12.431
65012W        W31421  19.348  16.111  11.984
65013W        W31422  40.615   8.165   2.196
65014W        W31423   2.957   6.372  13.517
65015W        W31424  28.619   8.611  12.609
65016W        W31425  27.354  26.969  14.293
65017W        W31426  32.142  22.062  12.552
65018W        W31427  18.217  37.602   1.456
65019W        W31428  21.532  20.515  12.516
65020W        W31429   2.331  20.828  12.965
65021W        W31430  43.290  15.391  12.333
65022W        W31431  43.273  32.458   0.312
65023W        W31432  39.376   3.879  13.973
65024W        W31433   3.208  33.354  10.571
65025W        W31434   8.274   9.394   1.171
65026W        W31435   8.117  43.863   1.858
65027W        W31436  39.124  15.125   0.827
65028W        W31437   4.724  28.055  14.877
65029W        W31438  26.443  39.887  14.266
65030W        W31439  39.671   1.757  14.269
65031W        W31440  26.839  30.009   0.964
65032W        W31441   0.564  12.430   5.316
65033W        W31442  11.643  17.328   1.770
65034W        W31443  31.416  15.322  14.106
65035W        W31444  33.650   6.424  11.295
65036W        W31445  10.036   4.498   4.265
65037W        W31446   0.993  21.307  14.590
65038W        W31447  16.574   6.764   4.027
65039W        W31448  43.960  23.978   0.661
65040W        W31449  27.783  35.952   3.668
65041W        W31450  13.266  16.728   1.743
65042W        W31451  32.366  30.965  11.149
65043W        W31452  44.393   2.173   0.705
65044W        W31453   2.932   4.959  13.438
65045W        W31454   7.161  33.317   3.662
65046W        W31455  24.142  27.177   1.288
65047W        W31456  30.811  12.574  12.512
65048W        W31457  38.835  36.167   2.658
65049W        W31458  22.150   5.064  14.266
65050W        W31459  35.568  17.769   4.805
65051W        W31460  23.976  37.355   0.475
65052W        W31461  41.256   6.234  13.853
65053W        W31462  33.896  13.911   5.277
65054W        W31463  16.097   3.729  12.463
65055W        W31464   3.430  44.108  13.891
65056W        W31465  24.523  15.727   0.363
65057W        W31466  15.919   0.086  13.564
65058W        W31467  29.643   7.877   0.907
65059W        W31468  32.106  24.023  10.465
65060W        W31469   9.355   4.347  14.385
65061W        W31470   8.718  30.247  13.555
65062W        W31471  12.920  26.511  14.956
65063W        W31472  40.149   7.453   4.423
65064W        W31473  29.804   8.456   5.353
65065W        W31474  40.694  16.242  13.389
65066W        W31475   1.431   5.894  11.913
65067W        W31476  19.763  27.189   2.258
65068W        W31477  17.505  19.653  13.804
65069W        W31478  30.561  11.219   4.158
65070W        W31479  44.317  35.879   4.390
65071W        W31480  11.827  13.250  12.690
65072W        W31481  19.693  34.038  14.824
65073W        W31482  29.427  21.750   1.536
65074W        W31483   9.637  19.666   2.635
65075W        W31484   1.647  19.386   4.041
65076W        W31485  44.044  19.127  11.567
65077W        W31486  21.192  21.668  10.008
65078W        W31487  43.662  44.923   2.026
65079W        W31488  38.434  20.774   2.791
65080W        W31489  24.615  13.550   1.240
65081W        W31490  17.196   8.735  12.077
65082W        W31491   6.070  18.121  10.197
65083W        W31492  32.183  40.890  13.435
65084W        W31493  13.136  17.367  13.748
65085W        W31494   0.806  10.495  13.069
65086W        W31495   3.744  32.523   2.257
65087W        W31496   3.359  32.872  13.030
65088W        W31497  24.168  27.644   1.505
65089W        W31498  12.821  43.782   0.846
65090W        W31499  10.593   6.000   0.030
65091W        W31500  19.517  20.350   1.629
65092W        W31501  11.168  38.097  14.310
65093W        W31502  30.680  31.263   3.316
65094W        W31503  17.137  28.608  14.182
65095W        W31504  38.722  37.934   4.973
65096W        W31505  11.399   2.716   4.298
65097W        W31506  11.864  18.724  11.907
65098W        W31507   9.305  18.203  12.182
65099W        W31508  22.924   8.354   2.269
65100W        W31509  24.820  39.445   4.546
65101W        W31510  15.411  35.982   1.731
65102W        W31511  27.214  38.115   0.396
65103W        W31512  27.581  24.690   3.361
65104W        W31513  21.167  37.520   4.562
65105W        W31514  26.264  15.183  11.123
65106W        W31515  36.353  18.718  13.486
65107W        W31516  31.950  19.540   1.784
65108W        W31517  17.312  18.558   0.734
65109W        W31518  19.190  38.522  11.053
65110W        W31519  32.441   0.000  11.964
65111W        W31520  38.493  22.622  14.104
65112W        W31521  35.472  14.271   4.715
65113W        W31522  19.268   4.900  12.952
65114W        W31523  39.703   3.659   4.077
65115W        W31524  14.122  21.449  14.373
65116W        W31525  10.631  31.247  10.372
65117W        W31526   7.360  29.857   0.476
65118W        W31527  39.094   2.177   4.284
65119W        W31528  30.084  43.425  14.047
65120W        W31529  43.206  10.530  14.080
65121W        W31530  42.071  14.784  12.476
65122W        W31531  41.763  37.079  12.025
65123W        W31532  16.598   3.534   1.373
65124W        W31533  35.077  30.186  14.499
65125W        W31534  31.306  18.118   1.854
65126W        W31535  11.196  23.039  12.913
65127W        W31536  10.812  12.726   0.794
65128W        W31537  39.861  38.509  10.666
65129W        W31538  26.253  15.565  14.812
65130W        W31539  25.272  19.759  11.145
65131W        W31540  28.124  27.002  14.972
65132W        W31541  19.103  33.384  12.906
65133W        W31542  42.216  11.323   1.809
65134W        W31543   0.181  44.847   1.727
65135W        W31544  11.358  29.864   3.432
65136W        W31545  22.458   0.191   4.074
65137W        W31546   8.686  42.766   1.488
65138W        W31547   6.717  33.661  13.808
65139W        W31548  29.214  30.616   4.060
65140W        W31549   8.249  20.516  10.608
65141W        W31550  39.011   7.901  14.026
65142W        W31551  12.205  11.586   4.900
65143W        W31552  43.268  11.958   4.591
65144W        W31553  24.669  12.682  14.089
65145W        W31554  42.143  27.570  11.620
65146W        W31555  25.961  35.587  14.457
65147W        W31556  33.367  20.884  11.981
65148W        W31557  29.546  30.046  12.848
65149W        W31558  15.402  14.844   3.154
65150W        W31559  30.367  16.732   0.901
65151W        W31560  31.735  19.271   3.175
65152W        W31561  24.892  44.319  12.514
65153W        W31562  16.172  36.286  10.224
65154W        W31563  41.299  26.786  11.945
65155W        W31564  30.364  23.216  14.075
65156W        W31565  29.948  34.970  11.148
65157W        W31566  25.079  19.369   2.396
65158W        W31567  16.906   5.816  12.546
65159W        W31568   2.018   9.445   2.308
65160W        W31569  27.955  22.497  14.432
65161W        W31570  19.554  41.841   1.459
65162W        W31571  22.626  15.042   1.108
65163W        W31572  25.491  35.257  12.916
65164W        W31573  41.554  20.791  13.323
65165W        W31574  24.978  13.230   2.201
65166W        W31575  39.046  26.140   3.850
65167W        W31576   1.569   8.105   1.361
65168W        W31577  19.573  22.165  14.804
65169W        W31578  21.069  32.889   2.667
65170W        W31579  19.574  13.609  14.950
65171W        W31580   1.381   7.406   0.031
65172W        W31581  26.009  38.776   3.311
65173W        W31582  41.603  29.363  12.922
65174W        W31583   6.466  24.962  12.316
65175W        W31584  19.626  38.767   2.820
65176W        W31585  24.009  23.636   4.550
65177W        W31586  28.512   9.160  14.445
65178W        W31587  35.923  14.322  12.284
65179W        W31588  25.400  34.713  13.585
65180W        W31589  35.362  20.278  11.978
65181W        W31590  26.372  42.311   4.763
65182W        W31591   1.297   4.934  12.024
65183W        W31592  35.252   3.555  12.145
65184W        W31593  26.951   6.391   4.148
65185W        W31594  41.811  13.095  11.497
65186W        W31595  36.327   7.682  12.814
65187W        W31596  12.828  26.113   0.305
65188W        W31597  29.563  20.277  12.471
65189W        W31598  24.385  44.135  11.188
65190W        W31599  27.912  40.933   2.418
65191W        W31600  16.234   5.912   2.443
65192W        W31601  20.978  27.727   1.311
65193W        W31602  40.515  15.673  14.420
65194W        W31603  29.936  18.903   4.147
65195W        W31604  23.208  44.358  11.923
65196W        W31605  37.877  23.213  11.209
65197W        W31606  34.168   2.471  11.137
65198W        W31607   5.011  12.444  13.419
65199W        W31608  38.328   7.749  14.778
65200W        W31609  15.658  43.374  11.878
65201W        W31610  30.123   2.314  13.007
65202W        W31611  40.699  11.448  10.233
65203W        W31612   0.154  40.049  13.772
65204W        W31613  41.225   3.946  14.073
65205W        W31614  38.024  30.724  12.441
65206W        W31615  43.605   1.689   4.302
65207W        W31616  43.635   2.867  12.049
65208W        W31617  35.025  29.363  12.464
65209W        W31618   0.688  11.138  11.399
65210W        W31619  37.523  19.246  13.782
65211W        W31620  33.039  34.089  13.602
65212W        W31621  26.975   1.283  12.127
65213W        W31622  35.325   0.734  14.944
65214W        W31623  17.170  17.959  12.619
65215W        W31624  16.836  26.234   4.151
65216W        W31625  23.789  39.927  11.131
65217W        W31626   4.746  11.272  10.621
65218W        W31627  22.196  43.342   0.978
65219W        W31628   4.911   9.849  14.308
65220W        W31629   9.608  13.556   2.237
65221W        W31630  28.019  20.405   4.049
65222W        W31631  19.072   7.244   2.867
65223W        W31632  34.941   7.227   3.255
65224W        W31633  13.634  12.383   3.962
65225W        W31634   1.707  32.727  13.024
65226W        W31635  39.477  41.618   0.430
65227W        W31636  26.446  23.787  11.218
65228W        W31637   3.375  44.363   3.210
65229W        W31638  19.191  18.081   3.284
65230W        W31639  36.652  21.300  11.452
65231W        W31640  39.815  25.139  14.279
65232W        W31641  12.355  42.765  14.466
65233W        W31642  15.306  31.097   4.581
65234W        W31643   7.365   2.752  13.010
65235W        W31644   0.516  38.807  11.184
65236W        W31645  15.352  31.626  12.493
65237W        W31646  41.933   7.822   4.829
65238W        W31647  10.033  31.993  13.544
65239W        W31648  40.853  37.900   4.543
65240W        W31649   7.393  19.646  14.578
65241W        W31650  13.906  43.990   3.435
65242W        W31651  29.429  26.303   4.946
65243W        W31652  25.555  33.347  13.239
65244W        W31653  39.608  30.021   0.736
65245W        W31654  35.568   4.936  12.361
65246W        W31655  43.914   0.821  11.394
65247W        W31656   1.932  31.980   0.024
65248W        W31657  22.595  23.119  13.941
65249W        W31658  32.886  35.085  13.307
65250W        W31659   6.699  18.093   3.772
65251W        W31660  37.533   6.372   2.421
65252W        W31661   1.100  30.508   4.093
65253W        W31662  29.426   0.650   1.738
65254W        W31663  37.905  27.631   3.744
65255W        W31664  19.926  41.139  11.234
65256W        W31665  26.701   8.399   3.774
65257W        W31666  29.379  40.088   3.562
65258W        W31667  20.518  37.930   4.501
65259W        W31668  43.898  17.637   4.550
65260W        W31669   2.295   5.239   0.743
65261W        W31670  37.814  13.157  12.554
65262W        W31671   8.904  42.711   3.674
65263W        W31672  19.647   2.559   2.771
65264W        W31673   7.668  20.106   2.206
65265W        W31674  16.060  36.718  14.426
65266W        W31675  36.087  18.174   1.114
65267W        W31676  21.552  37.911   3.348
65268W        W31677  25.484   7.929  13.588
65269W        W31678  41.321  43.528  14.757
65270W        W31679  22.592  39.533  12.395
65271W        W31680  30.654  23.493   0.538
65272W        W31681  25.294   5.132   0.030
65273W        W31682   1.186  10.022   2.347
65274W        W31683   9.201  28.247  11.481
65275W        W31684  14.465  25.890   2.165
65276W        W31685  38.186  26.150   0.968
65277W        W31686  33.175  11.769   0.473
65278W        W31687  28.382  41.479  11.587
65279W        W31688   8.932  43.778   4.201
65280W        W31689  40.363  27.040   1.815
65281W        W31690  34.243   7.461  10.567
65282W        W31691  10.697  23.058   2.239
65283W        W31692  16.323  14.294  14.939
65284W        W31693   2.821   0.228  11.537
65285W        W31694  29.887  30.174   3.832
65286W        W31695  40.986  28.873   0.107
65287W        W31696  25.640  12.207  12.133
65288W        W31697  25.491   4.834   1.723
65289W        W31698  39.320  38.933  11.219
65290W        W31699  25.297  29.621   2.391
65291W        W31700  25.578  13.900  11.813
65292W        W31701  40.963  44.351  14.420
65293W        W31702  19.430  41.167   0.751
65294W        W31703  43.772  28.896   2.741
65295W        W31704   1.720  35.517  11.119
65296W        W31705  17.923  34.783   1.007
65297W        W31706  26.757  27.543  10.307
65298W        W31707   6.948  11.163  13.794
65299W        W31708  40.878  32.282   0.367
65300W        W31709  10.216  28.522   3.634
65301W        W31710  26.937   8.414  14.969
65302W        W31711   2.602  25.258  14.574
65303W        W31712   2.456  33.104   0.192
65304W        W31713  44.751  12.108   2.528
65305W        W31714   5.943   5.053  12.315
65306W        W31715  12.920  37.384   1.174
65307W        W31716  37.372  30.769  13.449
65308W        W31717  30.106  21.710  10.948
65309W        W31718  11.426   4.602   0.881
65310W        W31719  37.986   3.219  13.414
65311W        W31720   1.234  25.524   3.876
65312W        W31721  24.223  29.394  12.490
65313W        W31722   1.704  23.867   1.861
65314W        W31723  27.121   6.066   4.631
65315W        W31724  11.749  17.259  14.454
65316W        W31725  24.651  20.631   5.490
65317W        W31726   7.177  27.123   3.567
65318W        W31727  11.830   9.055  14.427
65319W        W31728  19.533  24.588   3.790
65320W        W31729   9.167  34.118  14.209
65321W        W31730  20.010  43.778   4.310
65322W        W31731   0.410  19.949   2.357
65323W        W31732  24.622  44.433   0.465
65324W        W31733  22.691  39.400   4.604
65325W        W31734  25.017   4.807  13.865
65326W        W31735  31.677   0.330  11.238
65327W        W31736   9.280   3.935   0.643
65328W        W31737  42.541   6.161   2.757
65329W        W31738   4.299  25.916  12.677
65330W        W31739  42.746  19.490  10.257
65331W        W31740  35.795  21.237   3.191
65332W        W31741  15.166  42.001   3.953
65333W        W31742  13.700  16.625  12.149
65334W        W31743  25.420   4.561  13.086
65335W        W31744  31.843  13.793   4.297
65336W        W31745  17.421   5.851  12.590
65337W        W31746  36.888   6.848  13.045
65338W        W31747  40.193  26.965   2.315
65339W        W31748  30.556  33.382  13.498
65340W        W31749  21.694   3.785   0.577
65341W        W31750   1.047  20.995   3.673
65342W        W31751  42.408  44.575   1.819
65343W        W31752  33.189   7.273   4.071
65344W        W31753   3.207  21.474  10.556
65345W        W31754  42.827  25.000   2.116
65346W        W31755  37.606  29.826   0.936
65347W        W31756  16.169   5.475  11.201
65348W        W31757  34.927  14.813  14.238
65349W        W31758   4.465  24.179   4.246
65350W        W31759  15.882  15.220  12.042
65351W        W31760  43.093  26.585   0.321
65352W        W31761  39.485  25.505   3.620
65353W        W31762  30.487  22.891  14.994
65354W        W31763  18.741  20.687   5.056
65355W        W31764  16.282  35.348  13.448
65356W        W31765  34.799  44.495  13.315
65357W        W31766  26.347  30.073   1.472
65358W        W31767  32.116  14.060   1.981
65359W        W31768  29.515  37.570  14.367
65360W        W31769  10.870  20.809   3.327
65361W        W31770  16.604  11.152  12.567
65362W        W31771  35.635   8.200   2.744
65363W        W31772   3.773  30.951   4.314
65364W        W31773  15.588  20.927  11.120
65365W        W31774  34.472  14.342   0.401
65366W        W31775  42.523  40.927   3.738
65367W        W31776  24.078   7.303  13.111
65368W        W31777  40.543   6.985  10.563
65369W        W31778  44.282  41.986   2.590
65370W        W31779  36.399  11.183   0.681
65371W        W31780  41.498  28.415  14.323
65372W        W31781  36.040  32.972  13.839
65373W        W31782  25.789   9.165   2.209
65374W        W31783  22.929   9.689   2.200
65375W        W31784  30.959  31.954   1.722
65376W        W31785  44.702  14.059   4.597
65377W        W31786  21.315  35.409   1.137
65378W        W31787  28.882  31.048  11.025
65379W        W31788  10.821  39.416   3.613
65380W        W31789  22.061  37.081   1.850
65381W        W31790  33.148  19.280   0.812
65382W        W31791  15.740  11.811   2.358
65383W        W31792  25.459   7.955   0.514
65384W        W31793  30.484  32.494   1.272
65385W        W31794  20.203  26.705  11.151
65386W        W31795  10.747  11.642   4.327
65387W        W31796  25.438  14.778  12.905
65388W        W31797  39.074  23.559   1.117
65389W        W31798  13.603   7.670   0.841
65390W        W31799   6.990  32.997  11.690
65391W        W31800  32.538  18.483  14.326
65392W        W31801  15.227  33.655  10.950
65393W        W31802  22.568  18.726  10.433
65394W        W31803   6.366  44.186   2.367
65395W        W31804  24.758  24.072  11.446
65396W        W31805  17.208  29.980  11.151
65397W        W31806  15.688  23.924  10.368
65398W        W31807  44.005   6.153  10.579
65399W        W31808  19.083  33.547   4.536
65400W        W31809  10.273  23.542  13.608
65401W        W31810   2.208  19.640  10.730
65402W        W31811  16.079  27.935   4.721
65403W        W31812  25.134  35.741  12.517
65404W        W31813  43.105  29.364  13.047
65405W        W31814  11.456  24.095  10.486
65406W        W31815   3.606  20.783   4.204
65407W        W31816  11.850  22.302  11.025
65408W        W31817  31.003  40.882   3.364
65409W        W31818  21.139   7.453   0.458
65410W        W31819  29.373   6.139  10.779
65411W        W31820  33.441   2.245  13.450
65412W        W31821  15.682  41.904  11.630
65413W        W31822   4.526  40.720   3.738
65414W        W31823  35.051  34.603  14.519
65415W        W31824   2.702   4.146  14.339
65416W        W31825  15.657   8.105  14.801
65417W        W31826   6.072  39.664  14.013
65418W        W31827  20.605  40.426  14.253
65419W        W31828   1.767  40.088   0.457
65420W        W31829  10.597  26.138   3.628
65421W        W31830  43.949  29.576  14.510
65422W        W31831  15.793   2.844  12.937
65423W        W31832  16.413  38.396  14.775
65424W        W31833  26.793   0.756   2.410
65425W        W31834  34.039  26.739  11.175
65426W        W31835  15.690   4.239  13.811
65427W        W31836  20.847   8.198   3.577
65428W        W31837  16.273  30.439   3.416
65429W        W31838  34.509   7.891  10.540
65430W        W31839  26.980   2.667  10.729
65431W        W31840   6.184  38.313  14.772
65432W        W31841   9.897   8.421   1.355
65433W        W31842   8.604   6.303   2.821
65434W        W31843  12.542   9.621   0.585
65435W        W31844  13.153  27.245  11.733
65436W        W31845  34.715  44.760   3.313
65437W        W31846  27.930  10.640  11.175
65438W        W31847   3.322  16.336  12.842
65439W        W31848  26.483  27.964  13.842
65440W        W31849  11.173  36.317  14.799
65441W        W31850  20.388   4.141   5.062
65442W        W31851  23.828  38.893  12.011
65443W        W31852  23.789  38.309  14.802
65444W        W31853  22.102  43.539  13.820
65445W        W31854  30.534   4.726   4.113
65446W        W31855  34.378  29.425  11.566
65447W        W31856  36.987  27.189   1.704
65448W        W31857  34.721  33.069   0.456
65449W        W31858   8.827  18.434   0.822
65450W        W31859   8.794  36.292   2.677
65451W        W31860   0.500  12.457  12.542
65452W        W31861  19.514  44.491  10.661
65453W        W31862  14.083  32.036   1.391
65454W        W31863   5.878   8.199   0.532
65455W        W31864  23.636  34.913   0.625
65456W        W31865  38.894  26.749  12.028
65457W        W31866   5.361   7.643  13.384
65458W        W31867  11.378  38.954  13.214
65459W        W31868  27.574  13.580  14.934
65460W        W31869   9.674  23.820  11.143
65461W        W31870   9.222  32.974   0.794
65462W        W31871  29.246  35.850   5.422
65463W        W31872  44.350  13.701  10.283
65464W        W31873  42.991  31.274   1.778
65465W        W31874   0.853   6.778   2.769
65466W        W31875  12.816   7.784   4.079
65467W        W31876   1.792  38.917   2.287
65468W        W31877  14.584   5.859  13.385
65469W        W31878  40.396  24.927   4.905
65470W        W31879  30.685  40.583  14.343
65471W        W31880  25.071  34.789  10.462
65472W        W31881  29.984   8.613  11.331
65473W        W31882   9.667  35.429  10.232
65474W        W31883  13.795  42.260   2.795
65475W        W31884  18.512  38.621   2.365
65476W        W31885   1.289  42.718   2.290
65477W        W31886  25.170  29.139   2.583
65478W        W31887  40.851  33.812   4.759
65479W        W31888  36.794  27.138   4.082
65480W        W31889  16.005  21.490  14.924
65481W        W31890  42.434  37.886   3.808
65482W        W31891  43.223   9.637  12.482
65483W        W31892  23.249  14.610  14.346
65484W        W31893   6.178   9.658  10.755
65485W        W31894  43.556   5.896   2.689
65486W        W31895   6.911  23.570   4.578
65487W        W31896  17.007   7.927  13.075
65488W        W31897  24.342  24.228  14.088
65489W        W31898  10.731   1.032   0.352
65490W        W31899  35.594  24.726  13.447
65491W        W31900   9.688  41.987   1.864
65492W        W31901  16.663   9.637  14.265
65493W        W31902  31.056  26.052  14.563
65494W        W31903  33.407  16.173  11.056
65495W        W31904  15.918  40.084   0.449
65496W        W31905  40.722  29.668   4.381
65497W        W31906  21.621  29.365   0.571
65498W        W31907   7.399  22.186  14.991
65499W        W31908   1.809  25.921  11.641
65500W        W31909  38.285   1.526   0.780
65501W        W31910  44.993  31.698   4.094
65502W        W31911  12.586  23.482   9.808
65503W        W31912  33.419  43.214   5.294
65504W        W31913  36.859  36.049   4.760
65505W        W31914  19.534  34.832  14.732
65506W        W31915   7.764  31.181  12.307
65507W        W31916  40.121  30.122  11.920
65508W        W31917  36.357  43.510  11.998
65509W        W31918  44.495   9.125  11.908
65510W        W31919  15.628  32.470   2.972
65511W        W31920   0.003  33.975  13.931
65512W        W31921  42.277  37.558  10.988
65513W        W31922  33.062  39.628  11.182
65514W        W31923  13.146  16.861  13.898
65515W        W31924  17.302  13.342  13.953
65516W        W31925  26.504  38.641  14.952
65517W        W31926  26.289  32.186  11.226
65518W        W31927  12.718  13.464   3.532
65519W        W31928  39.649  17.210  13.063
65520W        W31929  21.959   3.546  10.005
65521W        W31930  33.035  22.671  12.586
65522W        W31931  21.173  23.074  13.393
65523W        W31932  35.392   1.125   9.910
65524W        W31933  19.689  12.154   1.188
65525W        W31934  29.447  30.969  11.837
65526W        W31935   0.541   3.013   1.855
65527W        W31936  36.128  32.945   2.208
65528W        W31937  10.765  42.150   2.339
65529W        W31938  26.239   1.970   3.270
65530W        W31939  39.326  29.761  14.905
65531W        W31940  35.839  18.376   2.923
65532W        W31941  42.262  17.784   3.349
65533W        W31942  19.801  18.031   2.776
65534W        W31943   6.916  30.918   2.353
65535W        W31944  27.865  19.002  11.502
65536W        W31945  14.743  27.900   1.259
65537W        W31946  34.085  37.529   2.689
65538W        W31947  12.398   8.654  13.132
65539W        W31948   7.692  19.629  12.038
65540W        W31949  38.501  25.397  11.604
65541W        W31950  15.714   9.237  11.422
65542W        W31951  43.270  10.325  12.966
65543W        W31952  20.455  11.675  11.936
65544W        W31953  37.838  18.497   2.955
65545W        W31954  23.655   3.987  10.964
65546W        W31955   0.167  25.220   4.154
65547W        W31956   7.849  17.846  10.678
65548W        W31957  15.661  40.090   2.681
65549W        W31958   4.916  23.926   2.572
65550W        W31959  19.801   9.796  12.469
65551W        W31960   1.886  16.320  14.857
65552W        W31961  32.093  17.134  10.706
65553W        W31962  21.144  17.607   1.474
65554W        W31963  17.679   0.360  11.218
65555W        W31964  18.565  30.256  11.148
65556W        W31965   7.671  10.219  11.691
65557W        W31966  17.175  38.919   4.955
65558W        W31967  19.174  31.992   0.996
65559W        W31968  13.682  40.541   4.284
65560W        W31969   6.393   8.729  12.922
65561W        W31970  37.080   8.792  10.822
65562W        W31971  30.058  31.286  13.132
65563W        W31972  33.878   5.488  14.432
65564W        W31973  32.070   0.353  12.563
65565W        W31974  13.096  17.915  10.836
65566W        W31975  26.912  13.670  12.114
65567W        W31976  21.136   6.379  12.757
65568W        W31977   4.489   2.237  13.805
65569W        W31978  25.343  30.604  10.315
65570W        W31979  40.068  22.670   0.250
65571W        W31980  42.310  43.126  11.266
65572W        W31981  41.378  11.185  14.772
65573W        W31982  28.001  12.963  13.467
65574W        W31983  13.688  13.320   2.432
65575W        W31984  43.375  24.821  12.140
65576W        W31985   7.803   2.486  12.940
65577W        W31986  14.892  28.251  14.306
65578W        W31987  30.128  40.499  10.736
65579W        W31988  18.245  17.474   0.992
65580W        W31989  43.845  25.499   4.141
65581W        W31990   1.870   0.848   2.830
65582W        W31991   4.786  30.079   2.078
65583W        W31992   0.341  27.194  13.917
65584W        W31993   7.869  10.209   1.765
65585W        W31994   1.290  20.724  10.314
65586W        W31995   2.887  22.736   4.691
65587W        W31996  23.862  16.259   1.811
65588W        W31997  23.147  11.192  12.409
65589W        W31998  16.993   9.187   1.810
65590W        W31999   4.386  33.266   4.906
65591W        W32000  32.899  22.615  13.061
65592W        W32001  42.331  17.998  11.135
65593W        W32002  33.916  16.981  11.576
65594W        W32003  21.254  18.278  11.595
65595W        W32004  19.345  41.967   3.227
65596W        W32005  33.019  43.178  11.958
65597W        W32006   2.205  39.789  13.717
65598W        W32007  30.102  38.793   4.487
65599W        W32008  18.168  30.109  13.972
65600W        W32009  35.925  35.523  14.080
65601W        W32010  41.021  19.063  13.836
65602W        W32011  19.370   1.000   4.572
65603W        W32012  33.554  24.947  14.964
65604W        W32013  30.329   9.854   4.027
65605W        W32014  14.739  38.794   3.593
65606W        W32015  29.950  23.446   3.914
65607W        W32016  39.607  33.412  12.657
65608W        W32017  15.308  11.355   1.160
65609W        W32018  15.569  39.849  13.999
65610W        W32019  11.204   5.584  14.374
65611W        W32020  38.046   0.411   0.021
65612W        W32021  35.221  33.031   0.521
65613W        W32022  19.258   1.945  13.981
65614W        W32023  17.112   7.803   3.553
65615W        W32024  35.118  11.923  14.931
65616W        W32025  36.067   6.887  14.466
65617W        W32026   2.314  42.956  10.687
65618W        W32027  19.716  43.453   1.388
65619W        W32028  12.423  13.103  13.559
65620W        W32029  14.316  22.692  14.237
65621W        W32030  34.533  17.614  12.616
65622W        W32031  33.497  22.185  13.077
65623W        W32032  40.147   7.274  14.744
65624W        W32033  44.896  29.617  10.691
65625W        W32034  14.639  15.023   0.299
65626W        W32035  39.512  10.994  12.585
65627W        W32036   7.548  33.189   2.425
65628W        W32037  34.616  36.921  11.629
65629W        W32038  29.595   9.660   3.360
65630W        W32039  11.101  13.773   2.773
65631W        W32040   9.389   6.917  14.752
65632W        W32041  32.560   1.060   5.254
65633W        W32042  17.186  32.202  12.634
65634W        W32043  29.328   4.205   1.859
65635W        W32044   8.692   3.941   5.265
65636W        W32045  37.377  36.016   2.781
65637W        W32046   7.181   0.008   2.245
65638W        W32047  33.485  40.832  11.435
65639W        W32048  35.025  16.034  13.028
65640W        W32049  28.374  19.053  13.925
65641W        W32050  19.563  17.298   3.352
65642W        W32051   7.940  15.654  14.455
65643W        W32052  15.804  25.827   3.954
65644W        W32053  26.708  31.180  12.501
65645W        W32054   9.797  34.605  14.458
65646W        W32055  18.808   5.137   4.642
65647W        W32056   0.521  25.325  12.100
65648W        W32057  44.534   7.897  14.917
65649W        W32058  10.665  32.737  14.097
65650W        W32059  31.021  32.574  13.463
65651W        W32060  37.583  33.183  13.038
65652W        W32061  44.785  38.391  11.580
65653W        W32062  35.864  39.394   2.675
65654W        W32063  31.510  40.071  12.391
65655W        W32064  35.939   8.111   0.721
65656W        W32065  25.782  15.356   5.081
65657W        W32066  22.200  10.053  10.364
65658W        W32067   9.398  43.807   4.947
65659W        W32068  26.992  18.801   4.390
65660W        W32069   7.163  22.797   2.175
65661W        W32070  11.398  43.422  10.595
65662W        W32071  42.787  29.381   3.168
65663W        W32072  10.722  40.844   4.071
65664W        W32073  36.469  40.955  14.756
65665W        W32074  16.337  16.698   3.939
65666W        W32075   2.232  30.142   1.478
65667W        W32076  11.842  24.027   5.092
65668W        W32077   1.467   8.522   4.474
65669W        W32078  10.745  25.722   2.191
65670W        W32079  20.228  28.966  13.047
65671W        W32080  10.401  34.701   5.526
65672W        W32081  20.949  43.678  14.363
65673W        W32082   7.195  36.873   3.753
65674W        W32083   3.656  35.465  11.615
65675W        W32084  14.657  23.427  13.684
65676W        W32085  34.232   2.002  11.340
65677W        W32086  13.845  28.062  11.770
65678W        W32087  37.565  41.804   1.340
65679W        W32088  31.454  36.422  14.213
65680W        W32089  20.604   6.243  11.633
65681W        W32090  15.221   8.660   2.241
65682W        W32091   4.731   1.751   1.825
65683W        W32092   9.429  30.825   4.048
65684W        W32093  44.455  44.584   2.309
65685W        W32094  12.709  19.069  12.826
65686W        W32095  13.800  34.289   0.835
65687W        W32096  29.004  23.963   1.386
65688W        W32097  20.276  41.770   0.780
65689W        W32098   7.836  34.083  14.300
65690W        W32099  22.996  25.148   3.237
65691W        W32100  10.517  33.703   2.283
65692W        W32101  14.765   8.044   4.148
65693W        W32102  12.417  41.780  14.329
65694W        W32103  33.181  20.105  13.503
65695W        W32104   8.851  36.112  14.372
65696W        W32105  30.453  19.173  12.432
65697W        W32106  40.124  44.699  12.014
65698W        W32107   4.619  22.009   2.773
65699W        W32108  10.127   2.223  13.406
65700W        W32109  36.096  18.282  13.500
65701W        W32110  23.384  10.880   0.850
65702W        W32111  39.285  16.760   1.739
65703W        W32112   8.866  35.846  12.891
65704W        W32113  38.336  44.909  12.451
65705W        W32114  40.338  23.675   0.471
65706W        W32115  39.309  29.318   1.351
65707W        W32116  26.372  39.152  11.229
65708W        W32117  19.514  18.773  12.180
65709W        W32118  44.511   1.682   3.025
65710W        W32119  42.319  38.779  10.447
65711W        W32120   1.094   0.697   1.261
65712W        W32121  11.342   2.414  11.604
65713W        W32122   3.760  17.828   1.800
65714W        W32123  41.696   0.338  10.749
65715W        W32124   4.840  36.737  10.677
65716W        W32125  44.758  30.937   4.619
65717W        W32126  39.395  31.598  10.388
65718W        W32127  24.102  19.287  14.033
65719W        W32128  29.879  26.644  11.940
65720W        W32129  39.000  20.041  11.133
65721W        W32130  10.401  42.080   3.672
65722W        W32131  42.193  22.642   2.195
65723W        W32132   9.362  36.022  14.344
65724W        W32133  41.208  27.564   1.097
65725W        W32134   1.686   8.139   9.758
65726W        W32135  16.230  29.439   1.473
65727W        W32136   3.669  36.442  14.395
65728W        W32137  16.690  19.717   3.762
65729W        W32138  15.763  29.010  13.162
65730W        W32139  12.719  18.731  10.650
65731W        W32140  16.000  31.231  12.042
65732W        W32141  18.242  12.357  11.883
65733W        W32142   6.280  14.046   1.898
65734W        W32143  11.317   5.162   3.699
65735W        W32144  17.736  36.442   0.830
65736W        W32145  38.265  28.344   4.122
65737W        W32146  21.624  29.831  14.373
65738W        W32147  30.779  42.845  13.331
65739W        W32148  38.366  15.522   3.255
65740W        W32149  32.302  14.277  14.044
65741W        W32150   7.935  37.661  14.650
65742W        W32151  16.350  35.192   0.222
65743W        W32152  25.246  39.245   4.309
65744W        W32153  18.326  28.565  11.533
65745W        W32154  20.226  28.104   3.623
65746W        W32155  19.080  29.013   0.892
65747W        W32156  38.160  19.368  10.396
65748W        W32157  32.463  22.575  10.613
65749W        W32158  22.252   1.694  13.506
65750W        W32159  17.101  25.061   1.784
65751W        W32160  28.685  40.025  12.438
65752W        W32161   1.838  10.710  12.512
65753W        W32162  37.164  41.824   0.947
65754W        W32163  28.921  44.899   0.972
65755W        W32164  15.597  40.377   2.212
65756W        W32165  13.724  26.313  14.543
65757W        W32166  10.759  17.324   3.670
65758W        W32167  42.118  16.794   5.452
65759W        W32168  21.521  33.834   2.770
65760W        W32169  12.173  35.196   1.386
65761W        W32170   5.237  34.771   5.031
65762W        W32171  16.607  37.016   1.462
65763W        W32172  31.051  38.323   0.303
65764W        W32173  35.994  16.844   0.844
65765W        W32174  32.860  30.460   0.327
65766W        W32175  16.606  31.355   4.263
65767W        W32176   5.348   9.020   3.221
65768W        W32177  14.983  17.731   4.631
65769W        W32178  20.037  11.672  11.047
65770W        W32179  12.145  11.241   3.187
65771W        W32180   5.746  25.672  13.349
65772W        W32181   6.265  19.636  14.501
65773W        W32182   6.277  32.952   4.274
65774W        W32183  37.026  22.957  10.279
65775W        W32184  22.767  14.198  14.243
65776W        W32185   1.396  17.772   2.836
65777W        W32186   5.723  27.425   0.452
65778W        W32187  31.092  43.336   3.154
65779W        W32188  36.847  22.616   0.977
65780W        W32189  29.925   0.335  11.522
65781W        W32190   0.088   4.172  11.169
65782W        W32191  27.039  35.532  14.310
65783W        W32192   0.428  17.061   1.690
65784W        W32193  10.749  28.894   1.396
65785W        W32194  20.408  24.936   4.363
65786W        W32195   1.904  14.775  10.969
65787W        W32196  15.440  21.296  10.751
65788W        W32197  27.129  37.891  13.345
65789W        W32198  37.692   9.260  11.179
65790W        W32199  23.489  40.968  11.661
65791W        W32200  28.406  18.147   0.524
65792W        W32201  42.617  41.328   3.192
65793W        W32202  35.620  43.361   2.752
65794W        W32203  25.301  38.541   1.996
65795W        W32204   0.765  19.551   2.290
65796W        W32205  30.640  16.142  10.689
65797W        W32206  11.281  11.817   4.286
65798W        W32207  18.763   9.575  13.321
65799W        W32208  22.274   8.163   4.634
65800W        W32209  34.261  26.543   3.294
65801W        W32210   3.494  22.797  14.622
65802W        W32211   8.735   8.402  14.929
65803W        W32212  20.088  30.283  11.917
65804W        W32213  38.805  23.691   2.675
65805W        W32214  18.114  19.925  14.926
65806W        W32215  24.149  17.927  11.971
65807W        W32216   0.772  11.670   2.768
65808W        W32217  14.574  36.531   3.632
65809W        W32218   2.366   7.466   1.251
65810W        W32219  20.931   1.998   3.185
65811W        W32220  18.941   5.459  11.438
65812W        W32221   4.803  34.137  11.997
65813W        W32222  38.993  26.358   3.378
65814W        W32223   6.087  13.286  12.483
65815W        W32224  33.122  14.458  11.245
65816W        W32225   5.969  12.728  10.579
65817W        W32226  40.856  40.355  10.800
65818W        W32227  26.111  39.527   0.368
65819W        W32228  12.773  43.409  11.522
65820W        W32229  39.922   3.917  12.331
65821W        W32230  18.613  35.153  13.485
65822W        W32231   8.876  19.045  12.789
65823W        W32232  42.972  16.894   5.217
65824W        W32233  39.216  35.577   1.118
65825W        W32234  36.887  26.220   0.337
65826W        W32235   3.229  44.277   5.218
65827W        W32236   6.888  15.040   3.698
65828W        W32237   4.447  34.848   4.149
65829W        W32238   5.652  14.156  12.521
65830W        W32239  34.440  23.465   0.927
65831W        W32240   6.394  12.280   3.682
65832W        W32241  21.066  31.452   1.252
65833W        W32242  24.975  12.756   4.047
65834W        W32243  41.871  13.852  13.917
65835W        W32244  19.480  17.325  13.449
65836W        W32245  25.810  39.422   4.858
65837W        W32246   9.190  15.859   3.309
65838W        W32247  17.810  33.819   3.642
65839W        W32248  20.002  42.851   4.022
65840W        W32249  12.203  37.601  12.061
65841W        W32250  33.118  42.702   1.184
65842W        W32251   8.827  26.922   1.058
65843W        W32252  40.054   4.920   1.649
65844W        W32253  37.660  33.433  14.363
65845W        W32254   2.620   8.669  12.043
65846W        W32255  29.411   5.138   3.292
65847W        W32256  30.907  22.597  10.337
65848W        W32257  16.075   1.903  12.073
65849W        W32258   2.414  44.762  10.856
65850W        W32259  40.782  13.817  12.254
65851W        W32260   0.479  36.024   4.149
65852W        W32261   8.968  18.180  10.746
65853W        W32262  39.351   3.292  11.334
65854W        W32263  23.976  17.246   1.619
65855W        W32264  13.520  13.056  13.846
65856W        W32265  28.120   5.727   2.192
65857W        W32266  44.957  20.956   1.368
65858W        W32267  41.400  42.218  12.429
65859W        W32268  31.492  16.774   1.694
65860W        W32269  40.582  44.578  12.168
65861W        W32270  32.343  35.134  11.240
65862W        W32271  41.178   8.774   0.917
65863W        W32272  42.858  12.385   2.353
65864W        W32273   9.355   3.740   3.205
65865W        W32274  37.294   0.045   4.077
65866W        W32275  37.926  23.786   0.704
65867W        W32276   2.516  21.734  14.194
65868W        W32277  32.108  18.510   3.329
65869W        W32278   9.738   5.906   4.655
65870W        W32279  29.795  36.105  12.578
65871W        W32280  16.516  32.004   1.918
65872W        W32281   2.929  39.831   1.809
65873W        W32282  20.942  24.985   4.213
65874W        W32283  25.143  30.623  11.608
65875W        W32284  39.581  31.437   1.738
65876W        W32285  21.112  21.606   2.474
65877W        W32286  38.789   5.281  14.289
65878W        W32287  44.037  33.551   4.244
65879W        W32288   0.679  30.097  10.619
65880W        W32289  12.404  12.096   0.786
65881W        W32290   0.261  31.512   1.912
65882W        W32291  34.958  21.227   0.025
65883W        W32292   4.948  29.930   4.270
65884W        W32293  43.863  26.857   4.881
65885W        W32294  31.381  24.734   1.676
65886W        W32295  43.931  31.699   1.275
65887W        W32296  34.820   8.544  12.097
65888W        W32297  19.750  14.389  12.053
65889W        W32298  34.485   0.776   4.918
65890W        W32299  40.807  22.266  13.334
65891W        W32300  32.915  39.648   2.860
65892W        W32301  12.341  38.032  13.480
65893W        W32302  13.621  41.280  13.038
65894W        W32303  41.392   2.793  12.559
65895W        W32304  15.683   7.137  12.503
65896W        W32305  26.731  15.338   3.294
65897W        W32306  44.889  26.884  13.957
65898W        W32307   9.196   4.794   0.691
65899W        W32308   2.842  30.492   4.698
65900W        W32309  26.124  19.189   2.883
65901W        W32310  15.137  15.825  10.286
65902W        W32311  27.216  39.636   4.912
65903W        W32312   3.511   3.495  10.683
65904W        W32313  34.098  23.584  11.455
65905W        W32314  30.080  36.413   3.767
65906W        W32315  13.750   0.040   2.856
65907W        W32316   1.227  33.676   1.707
65908W        W32317  29.541   7.223  14.242
65909W        W32318  33.923  40.840  13.884
65910W        W32319  16.558  37.224  12.713
65911W        W32320   4.393  28.466  14.698
65912W        W32321  10.224  14.404   1.257
65913W        W32322  34.136  42.541  12.005
65914W        W32323  31.405  37.929  11.295
65915W        W32324  25.597  27.114  11.032
65916W        W32325  13.982   4.959  11.616
65917W        W32326  42.954  26.881  12.543
65918W        W32327  23.732   9.836   5.098
65919W        W32328   6.369  12.078  12.535
65920W        W32329  14.842   9.261  13.842
65921W        W32330  27.908  44.804   0.393
65922W        W32331   1.054  13.719  10.986
65923W        W32332  30.649  34.477  12.616
65924W        W32333   7.059  43.868   2.756
65925W        W32334  27.997  32.895   3.695
65926W        W32335  43.343  24.053  11.044
65927W        W32336   5.329   2.693  10.953
65928W        W32337  42.470  33.839   2.795
65929W        W32338   7.868  32.429   1.219
65930W        W32339  33.599   4.234  13.358
65931W        W32340  42.510   6.610  12.878
65932W        W32341   0.489  39.453   4.515
65933W        W32342   7.386  10.899  13.942
65934W        W32343   1.307   3.821   4.560
65935W        W32344  40.967  38.437   4.622
65936W        W32345  11.124  32.979  14.271
65937W        W32346   1.958  38.363   4.031
65938W        W32347  22.977   9.485  11.538
65939W        W32348  19.796  36.410  12.765
65940W        W32349  23.766  42.969   4.289
65941W        W32350  22.025  35.566   3.327
65942W        W32351  44.736  18.816  14.330
65943W        W32352  15.311   0.859  13.321
65944W        W32353   5.320  18.831  12.985
65945W        W32354  40.984   5.666   1.239
65946W        W32355  35.944  13.827   1.641
65947W        W32356  42.326  40.562  12.635
65948W        W32357  37.366   5.045   5.001
65949W        W32358  14.431   4.652   4.444
65950W        W32359   7.352   5.292   0.921
65951W        W32360  44.010   0.418   4.205
65952W        W32361  32.093   7.508  14.692
65953W        W32362  29.358  11.603   0.619
65954W        W32363  38.019  15.023  13.547
65955W        W32364  22.421   7.136  12.566
65956W        W32365  10.018  10.308  10.597
65957W        W32366  38.257  17.664  13.610
65958W        W32367  42.445  29.303  10.925
65959W        W32368  12.123  21.277  10.076
65960W        W32369  19.709  24.233   0.861
65961W        W32370  37.933  12.588   4.529
65962W        W32371   5.463   2.872  13.943
65963W        W32372  22.451  11.699  14.961
65964W        W32373  12.843  36.059  12.107
65965W        W32374  22.883  35.552  13.691
65966W        W32375  17.669   1.268   4.664
65967W        W32376  30.145  35.078  10.683
65968W        W32377  23.649  17.051  13.696
65969W        W32378  24.951  40.861  11.513
65970W        W32379  17.016  36.360  11.542
65971W        W32380  29.427  31.576   3.813
65972W        W32381  20.047  40.310   2.248
65973W        W32382   6.183  36.867   3.841
65974W        W32383  13.069   5.434  11.155
65975W        W32384  31.876  21.698   1.655
65976W        W32385  23.816  41.939   0.822
65977W        W32386  33.509  35.787  11.093
65978W        W32387  13.761   6.749  12.214
65979W        W32388   6.295   9.166   3.789
65980W        W32389  15.072  42.860   1.623
65981W        W32390  36.263  33.125  10.745
65982W        W32391  35.363   3.226  13.377
65983W        W32392   3.407  17.739   3.158
65984W        W32393  32.988   8.896   0.432
65985W        W32394  40.466   1.818  11.009
65986W        W32395  23.705  26.910  12.976
65987W        W32396  32.488  15.743   2.764
65988W        W32397  35.815  18.542  12.540
65989W        W32398   3.843   1.240   4.601
65990W        W32399  21.208  35.428  12.104
65991W        W32400  20.948  31.367   2.637
65992W        W32401   4.490  43.177   3.293
65993W        W32402  29.382  39.789  14.123
65994W        W32403  11.389  37.895   2.194
65995W        W32404   9.409   7.092  11.604
65996W        W32405   2.529   6.276  13.885
65997W        W32406  33.799   1.729  11.474
65998W        W32407   6.371   2.741   3.189
65999W        W32408  37.899   4.534  11.976
66000W        W32409  35.425   7.276   4.409
66001W        W32410  16.870   5.251  14.909
66002W        W32411  16.805  30.124  14.922
66003W        W32412  40.872   2.752  12.663
66004W        W32413  24.490  19.642   4.377
66005W        W32414  28.166  29.593  11.561
66006W        W32415  35.081  16.062   0.308
66007W        W32416   4.658  14.860   4.219
66008W        W32417   3.158  41.225   2.190
66009W        W32418  18.101  27.939   1.890
66010W        W32419  38.533  12.803   0.001
66011W        W32420  38.285  36.554   3.696
66012W        W32421   5.067  34.696  12.904
66013W        W32422  30.497  22.322   2.188
66014W        W32423   8.720  41.966   4.344
66015W        W32424  33.095  20.168  11.609
66016W        W32425  12.183  10.370   3.111
66017W        W32426  23.542  41.796   0.416
66018W        W32427  18.130  31.167   2.195
66019W        W32428  17.281  39.358   1.380
66020W        W32429  22.183  12.666  14.451
66021W        W32430  29.988  30.767   2.584
66022W        W32431  40.040  30.000  12.414
66023W        W32432  21.366   3.026   2.422
66024W        W32433   1.798  23.221  12.874
66025W        W32434   5.397   0.032  13.979
66026W        W32435   0.336   9.946   2.986
66027W        W32436  38.673   4.954  10.452
66028W        W32437  18.126  37.130  11.200
66029W        W32438   2.779   5.946  11.646
66030W        W32439  13.562  31.614  14.818
66031W        W32440  13.264  33.393   2.857
66032W        W32441   2.207  39.123   2.055
66033W        W32442  17.088   4.768   4.130
66034W        W32443   0.798  21.607  11.186
66035W        W32444  13.870   4.374  14.095
66036W        W32445  10.291  34.162  11.171
66037W        W32446  39.518  38.864  12.207
66038W        W32447  26.465  22.598  13.389
66039W        W32448  24.263   0.658  13.581
66040W        W32449  21.619   9.695   0.857
66041W        W32450  28.982  27.626  12.774
66042W        W32451  33.322  28.290   1.814
66043W        W32452  33.505  27.015   2.769
66044W        W32453  29.269  33.650   4.812
66045W        W32454  30.629  18.158   4.240
66046W        W32455  10.628   8.748  11.048
66047W        W32456  28.274  17.320  14.837
66048W        W32457   7.674  17.847  14.420
66049W        W32458  32.471  40.538  13.872
66050W        W32459  25.862  10.811  11.623
66051W        W32460  22.111  43.470  10.500
66052W        W32461  19.989  36.968  12.993
66053W        W32462   5.014  21.670  12.554
66054W        W32463  31.255  24.092   3.214
66055W        W32464  33.667  33.736   4.242
66056W        W32465  32.813  37.465  11.617
66057W        W32466  11.789  13.933  12.906
66058W        W32467  38.475  32.582  13.367
66059W        W32468  18.485   0.739  11.195
66060W        W32469   4.404  37.009  10.649
66061W        W32470   9.653  17.221   4.271
66062W        W32471  32.903  11.365  13.862
66063W        W32472  32.067   4.740  12.004
66064W        W32473  14.984  17.687   0.719
66065W        W32474  39.851  33.532   2.905
66066W        W32475  41.528  38.084   0.898
66067W        W32476  34.215  42.332  10.709
66068W        W32477  43.923   1.340   4.558
66069W        W32478  27.009  32.571  12.655
66070W        W32479  38.866  18.358  14.661
66071W        W32480  37.516  23.297   2.307
66072W        W32481  25.717  10.139  12.025
66073W        W32482  14.160  33.183   1.671
66074W        W32483   2.577  42.488  13.811
66075W        W32484  19.503  21.393   2.833
66076W        W32485  32.544  44.225  12.369
66077W        W32486  30.223  30.487   2.212
66078W        W32487   8.476  26.205   2.382
66079W        W32488   1.785  21.509  10.606
66080W        W32489  27.234   5.757  12.050
66081W        W32490  28.109  23.927   2.861
66082W        W32491  28.052  17.721  10.709
66083W        W32492  23.314  35.904   4.567
66084W        W32493  41.563  40.075  11.543
66085W        W32494  22.082  44.505  12.971
66086W        W32495  16.314   2.677   2.421
66087W        W32496  35.834  44.287   3.876
66088W        W32497   6.430  26.745   3.640
66089W        W32498  35.001   4.206   0.701
66090W        W32499  39.049  10.203   2.462
66091W        W32500  19.952  20.778   0.442
66092W        W32501   8.820  10.352   1.881
66093W        W32502  34.327  12.644   3.740
66094W        W32503  12.226  32.350  12.979
66095W        W32504  16.624  43.723  11.072
66096W        W32505  14.347   1.458  14.976
66097W        W32506  40.511   7.478   4.799
66098W        W32507  28.673  42.283   1.409
66099W        W32508  36.246  30.620  11.143
66100W        W32509   9.203   7.923  12.490
66101W        W32510  14.986  32.471  11.999
66102W        W32511  32.417  11.636  10.805
66103W        W32512  44.927  28.943  12.891
66104W        W32513  43.191  15.596  10.288
66105W        W32514   6.371  36.469  12.424
66106W        W32515  33.503  32.355  10.546
66107W        W32516  14.013   7.165  11.960
66108W        W32517  43.823  40.441   3.580
66109W        W32518  30.645  39.048   0.394
66110W        W32519  13.995  44.830   2.062
66111W        W32520  44.784  10.733  11.704
66112W        W32521   0.958  12.437  12.298
66113W        W32522  18.105  39.933  10.482
66114W        W32523  17.775  30.137   1.630
66115W        W32524  26.180  14.082  13.432
66116W        W32525  27.353  22.057   2.556
66117W        W32526  22.842  20.204  12.186
66118W        W32527  10.623   8.194  11.510
66119W        W32528  36.441  16.288   1.394
66120W        W32529  42.046  33.972  14.014
66121W        W32530  12.812  32.390   3.239
66122W        W32531  11.784  10.414  12.790
66123W        W32532  40.495  43.040  13.486
66124W        W32533  19.224  13.201  12.093
66125W        W32534  14.310  44.206  12.595
66126W        W32535  28.176  34.232  11.038
66127W        W32536  25.776  31.975   1.685
66128W        W32537   5.313   4.757  12.576
66129W        W32538  17.327  36.977   3.241
66130W        W32539  43.846  32.880   2.369
66131W        W32540   2.204  38.445  14.635
66132W        W32541   7.088  12.738   1.184
66133W        W32542  38.421   7.482  13.968
66134W        W32543  38.574  21.617   4.891
66135W        W32544  35.522  43.295   4.202
66136W        W32545  26.123  24.972   5.074
66137W        W32546   3.652  42.117   0.944
66138W        W32547   4.312  30.863   3.668
66139W        W32548  20.011   9.402   4.474
66140W        W32549  44.918  27.491   3.071
66141W        W32550  35.522  13.894  12.533
66142W        W32551   3.506  43.213  10.414
66143W        W32552  29.969  15.203  12.438
66144W        W32553  37.507  35.525   0.288
66145W        W32554   9.354  10.891  14.520
66146W        W32555  21.027  19.272   4.424
66147W        W32556   6.167  35.968   2.210
66148W        W32557  14.676  12.060  14.920
66149W        W32558  12.686  12.972  11.243
66150W        W32559  43.527   4.257  12.009
66151W        W32560  28.331  12.288  12.041
66152W        W32561  13.690   6.939  13.117
66153W        W32562  13.317   5.515   2.842
66154W        W32563   1.482  18.773   2.886
66155W        W32564  41.826  44.132   3.843
66156W        W32565  40.323   2.044  12.954
66157W        W32566  15.776  28.160   3.705
66158W        W32567   1.105  23.171  13.469
66159W        W32568  35.103  19.961  11.664
66160W        W32569  19.317  22.504   0.928
66161W        W32570  26.727   8.874  14.210
66162W        W32571   1.237   5.761  11.215
66163W        W32572  35.958  16.818   3.901
66164W        W32573  21.132  38.342   0.299
66165W        W32574  31.132  14.664   4.943
66166W        W32575   5.401  35.613   4.620
66167W        W32576  10.324  11.058   2.660
66168W        W32577  28.651   4.415   1.238
66169W        W32578   3.171  39.304   3.572
66170W        W32579   8.391   6.966   1.596
66171W        W32580  41.127   4.782   0.168
66172W        W32581  32.628  33.379  11.079
66173W        W32582  43.343  44.416   4.735
66174W        W32583  26.897   5.803  11.121
66175W        W32584  44.079  34.933   0.874
66176W        W32585  17.661  28.233   3.787
66177W        W32586  16.286   6.923  10.825
66178W        W32587  15.319  28.364   4.626
66179W        W32588  12.156  29.530  12.511
66180W        W32589  26.400  30.907   1.295
66181W        W32590   6.997  41.587  10.814
66182W        W32591   7.236  20.274  10.529
66183W        W32592  27.173  37.234  14.715
66184W        W32593   9.037  27.973  12.052
66185W        W32594  33.118  36.542  12.464
66186W        W32595  10.422  43.065   2.513
66187W        W32596  15.663  33.880   2.898
66188W        W32597  12.685  36.440   4.602
66189W        W32598  17.977   0.022   4.110
66190W        W32599  27.931  14.363   2.209
66191W        W32600  26.708  17.546   4.773
66192W        W32601  14.145  35.423   3.716
66193W        W32602  29.350  16.026  12.614
66194W        W32603  41.827  11.255   1.449
66195W        W32604   3.006  26.523   0.782
66196W        W32605  43.251  30.944  14.414
66197W        W32606  42.667  35.658   3.807
66198W        W32607  33.836  17.101   1.713
66199W        W32608  33.588  21.565   9.873
66200W        W32609  44.234  35.154  11.759
66201W        W32610  24.987  44.499   3.288
66202W        W32611  11.228  25.983   2.321
66203W        W32612  37.808  37.187  14.471
66204W        W32613  20.473  18.100   2.465
66205W        W32614  16.500  12.002  14.888
66206W        W32615  18.690  23.975   1.070
66207W        W32616  29.973  28.156  13.177
66208W        W32617  38.007  38.085  12.961
66209W        W32618   4.968  37.612   0.415
66210W        W32619   2.699  18.710   2.208
66211W        W32620  18.485  12.805  11.938
66212W        W32621  12.697  27.962   4.955
66213W        W32622   3.187  36.295   1.873
66214W        W32623  35.876  20.130   0.263
66215W        W32624  32.559  26.511   1.529
66216W        W32625  35.726  35.590   2.743
66217W        W32626  20.208   7.670  10.793
66218W        W32627   8.348  23.165   0.186
66219W        W32628  25.753   4.350  13.956
66220W        W32629   1.818  27.091   2.363
66221W        W32630   9.205  31.000   3.579
66222W        W32631  33.544   1.285   0.940
66223W        W32632   9.657   6.575   1.616
66224W        W32633   2.270  41.370  13.521
66225W        W32634  16.071  13.691   2.231
66226W        W32635  16.115  16.068  11.607
66227W        W32636  36.899  36.980  14.961
66228W        W32637  16.388  28.936   1.386
66229W        W32638   3.911  15.262   1.470
66230W        W32639  21.272  39.622  12.821
66231W        W32640  42.963  36.142   0.212
66232W        W32641  16.262  20.322   4.201
66233W        W32642  21.151  27.270   2.320
66234W        W32643   1.730  32.119  14.540
66235W        W32644  25.865  17.245  12.393
66236W        W32645  30.683   7.737   2.395
66237W        W32646   8.902  23.782   4.986
66238W        W32647  29.924  25.241  14.508
66239W        W32648   1.366  26.178  11.644
66240W        W32649  27.941  40.003   2.204
66241W        W32650   5.041  26.756   4.546
66242W        W32651  42.103  13.143   2.901
66243W        W32652  21.575  23.313   5.416
66244W        W32653  14.169   1.018   3.865
66245W        W32654  23.709  32.341   3.206
66246W        W32655  11.193   3.578  14.344
66247W        W32656   8.819   4.419  10.629
66248W        W32657  30.662  31.416  14.987
66249W        W32658  16.298  29.804  12.152
66250W        W32659   9.185   6.688  13.934
66251W        W32660  43.887  25.120  14.959
66252W        W32661  38.843  18.504   1.320
66253W        W32662  24.258  20.230  10.483
66254W        W32663  34.224  11.338  11.963
66255W        W32664  44.471  27.947   5.092
66256W        W32665  37.326  30.256   0.776
66257W        W32666  25.145  44.350   0.384
66258W        W32667  33.857  11.377   4.177
66259W        W32668  19.216   2.455  10.391
66260W        W32669  11.821   9.073  12.485
66261W        W32670  22.116  24.762   2.284
66262W        W32671  33.602  39.101   5.072
66263W        W32672   5.950  20.279  11.023
66264W        W32673  39.817  26.128  11.650
66265W        W32674  37.391  38.392  14.389
66266W        W32675   1.455  10.996   5.029
66267W        W32676  25.666  16.230  13.066
66268W        W32677  36.403  24.953   0.389
66269W        W32678  38.318  39.853   2.817
66270W        W32679  37.958  14.070  13.555
66271W        W32680  38.805  36.608  12.072
66272W        W32681  10.713  19.264  12.976
66273W        W32682   9.222  17.805   2.768
66274W        W32683   8.078   7.949   3.146
66275W        W32684  27.658   9.119   0.805
66276W        W32685  24.596   7.312   2.826
66277W        W32686  42.503  20.750  13.048
66278W        W32687  25.174  21.303   1.718
66279W        W32688  25.561   1.558   0.536
66280W        W32689  20.525   5.640   1.247
66281W        W32690   0.480  27.632  11.153
66282W        W32691  11.188  42.607   3.023
66283W        W32692   9.666  36.095   3.521
66284W        W32693  43.205  29.443   0.894
66285W        W32694   4.312  14.217   0.973
66286W        W32695  17.523  22.077   2.624
66287W        W32696  34.883  14.247   1.770
66288W        W32697   5.151   7.421  10.273
66289W        W32698  31.945  39.933   0.280
66290W        W32699  24.803  23.949   3.648
66291W        W32700  25.780  37.527   3.666
66292W        W32701  32.616   5.264  12.524
66293W        W32702   9.166  25.296  10.423
66294W        W32703  24.612  19.793   4.867
66295W        W32704  12.592  13.998   3.438
66296W        W32705  30.978  15.406  13.511
66297W        W32706  39.865  33.617   4.960
66298W        W32707   8.640   5.509  13.279
66299W        W32708  14.145  14.743  12.490
66300W        W32709  13.827  24.495   0.806
66301W        W32710   0.407  13.524   2.466
66302W        W32711  20.763   4.709   3.632
66303W        W32712  32.151  18.116  11.590
66304W        W32713  30.408   2.085   2.536
66305W        W32714  29.414  37.041   3.834
66306W        W32715  40.298  44.471  10.809
66307W        W32716  33.868  42.819   0.544
66308W        W32717  35.451   5.708  13.952
66309W        W32718   3.843  12.644  11.854
66310W        W32719   1.411   4.696  13.513
66311W        W32720  10.193  23.480   3.899
66312W        W32721  23.467   6.518  12.086
66313W        W32722  38.620  18.795   1.751
66314W        W32723  32.613  31.878   2.348
66315W        W32724  24.278   0.501  12.029
66316W        W32725  36.551  19.203  13.500
66317W        W32726   2.257  12.071   0.400
66318W        W32727  31.641  29.486   4.472
66319W        W32728  29.504  21.639  14.822
66320W        W32729  39.407   7.948  10.332
66321W        W32730  20.563   1.957   4.482
66322W        W32731  39.491   7.721   3.405
66323W        W32732  16.130   2.001   0.789
66324W        W32733   1.867  21.752  12.528
66325W        W32734  12.790  28.180   0.758
66326W        W32735  13.169  35.918   0.852
66327W        W32736  23.788   1.846  12.375
66328W        W32737  18.638  21.039  14.424
66329W        W32738  44.325  20.672  12.376
66330W        W32739  11.653  12.161   3.184
66331W        W32740   2.680  40.494  12.547
66332W        W32741  36.001   9.404   1.753
66333W        W32742  16.454   0.410  14.229
66334W        W32743  10.706  13.289  11.591
66335W        W32744   1.079   5.805  10.728
66336W        W32745  19.306   3.952   3.288
66337W        W32746  26.572   8.937  12.015
66338W        W32747   6.791  32.923  14.339
66339W        W32748  19.047  40.860   3.925
66340W        W32749   0.880  28.572   2.226
66341W        W32750   6.122  17.756   1.946
66342W        W32751   5.752  27.136  14.975
66343W        W32752  26.469  29.995  11.527
66344W        W32753  16.272  12.780   1.413
66345W        W32754  42.187  36.835   1.924
66346W        W32755  16.609   9.147   0.131
66347W        W32756   0.824  26.936   0.256
66348W        W32757  13.287   3.711   3.157
66349W        W32758   5.808  22.464  11.600
66350W        W32759  34.856  31.893  12.432
66351W        W32760   9.884  35.982  13.519
66352W        W32761   0.711   6.079   4.169
66353W        W32762  29.148   4.785   9.626
66354W        W32763  32.397   0.115   1.307
66355W        W32764   9.280  18.315   1.064
66356W        W32765  14.709  43.310  13.222
66357W        W32766  25.416   4.371   4.317
66358W        W32767  23.004  18.303  14.811
66359W        W32768  28.902   9.317  13.013
66360W        W32769   3.738  23.141  11.157
66361W        W32770  40.024  37.774   3.595
66362W        W32771  12.639  40.817   5.191
66363W        W32772  12.122  30.415  11.970
66364W        W32773  22.454  31.375   0.879
66365W        W32774   9.137  30.881   2.691
66366W        W32775  15.584  38.616   0.393
66367W        W32776  22.750   8.355  12.990
66368W        W32777   8.940  30.763  10.890
66369W        W32778  44.156   8.152  10.643
66370W        W32779  23.659  23.018  14.055
66371W        W32780  21.244  34.798  14.039
66372W        W32781  13.657  31.889   0.647
66373W        W32782   3.812  41.880   1.399
66374W        W32783  15.088  10.088   1.229
66375W        W32784  19.765   1.198   2.317
66376W        W32785   4.425  36.043  14.853
66377W        W32786  40.896  17.380   3.065
66378W        W32787  41.526  36.899  10.375
66379W        W32788  23.545   0.396  11.011
66380W        W32789   0.307   5.357  13.422
66381W        W32790   5.372  28.128  11.132
66382W        W32791  21.878   7.355  13.928
66383W        W32792  16.880  43.866  14.387
66384W        W32793  29.056  42.228   3.253
66385W        W32794  34.326  11.835   1.225
66386W        W32795  39.150  39.414  11.231
66387W        W32796  10.783  40.796   2.685
66388W        W32797  15.254  18.086   4.305
66389W        W32798  33.554  21.268   2.869
66390W        W32799  10.822   3.689   3.669
66391W        W32800   0.747  29.301   1.299
66392W        W32801  27.038   9.613   0.847
66393W        W32802  11.228  11.133  14.141
66394W        W32803  19.439  27.749  13.806
66395W        W32804  13.599  41.982   3.191
66396W        W32805  33.721  39.156  14.729
66397W        W32806  30.522  31.679   1.798
66398W        W32807  14.771   9.774   1.912
66399W        W32808  16.233  15.075   4.659
66400W        W32809  34.419  36.135   4.766
66401W        W32810  44.803   2.713  13.993
66402W        W32811  41.753  28.714  11.214
66403W        W32812  29.201  13.135  14.986
66404W        W32813   0.414   3.381   0.937
66405W        W32814  37.170  22.078  13.184
66406W        W32815   6.134   2.341   3.393
66407W        W32816  32.929  24.199  14.080
66408W        W32817   6.705  31.102   0.968
66409W        W32818  20.159  42.576  13.753
66410W        W32819  32.435  20.120  11.018
66411W        W32820  14.932  18.819   5.311
66412W        W32821  38.057  34.859   1.370
66413W        W32822   0.433  17.232   4.007
66414W        W32823   8.564  40.785   0.013
66415W        W32824  27.261  23.491   2.646
66416W        W32825  35.394  20.001  14.759
66417W        W32826  39.518  20.226   4.248
66418W        W32827  12.320   6.361  13.897
66419W        W32828  11.230   7.322  11.824
66420W        W32829  43.338  29.118  11.508
66421W        W32830  21.011  15.734  11.775
66422W        W32831  34.544  12.262   4.951
66423W        W32832  15.129  31.124  14.027
66424W        W32833   8.960  17.664  10.713
66425W        W32834   1.234  29.112  14.850
66426W        W32835   1.845  31.499   0.753
66427W        W32836   1.397  39.844   3.683
66428W        W32837  41.502  34.393   2.804
66429W        W32838   2.493  21.269   1.842
66430W        W32839   4.202   0.478   4.679
66431W        W32840  13.077   7.453   0.175
66432W        W32841  20.060  36.826   3.960
66433W        W32842  10.340  40.500   4.170
66434W        W32843  37.537   7.318  12.505
66435W        W32844  39.936  19.718  11.538
66436W        W32845  10.325   7.151   4.022
66437W        W32846  23.406  32.142   2.748
66438W        W32847  27.435   2.955  13.560
66439W        W32848  16.668  16.447  13.396
66440W        W32849  25.821   2.896   4.822
66441W        W32850  11.651  39.376   3.233
66442W        W32851  20.307   9.175   2.210
66443W        W32852  27.267   7.241   0.380
66444W        W32853  41.403  40.350  11.015
66445W        W32854  16.206  18.183  13.065
66446W        W32855   3.181   5.868   3.122
66447W        W32856  13.482  24.039   1.217
66448W        W32857  41.335  29.029  11.406
66449W        W32858  27.108   5.322   2.374
66450W        W32859  19.236  24.049  13.377
66451W        W32860  37.385  38.539   0.349
66452W        W32861  17.185  16.450   2.341
66453W        W32862  23.229  31.394   3.832
66454W        W32863  11.307   5.852   1.935
66455W        W32864  10.368  35.704  10.686
66456W        W32865  10.652  44.930   0.961
66457W        W32866  27.105  13.066  11.551
66458W        W32867  21.146  33.045  10.745
66459W        W32868  43.545  16.400  10.561
66460W        W32869  38.110  14.887  11.694
66461W        W32870  22.231  19.604  10.889
66462W        W32871   1.742  44.988  14.817
66463W        W32872  37.973   0.715   2.452
66464W        W32873   0.458  33.349   1.412
66465W        W32874  43.799  18.954   2.209
66466W        W32875  31.582  31.467  13.116
66467W        W32876  23.638  14.251   3.641
66468W        W32877  24.531  10.814  11.490
66469W        W32878  14.434  11.859  13.538
66470W        W32879  18.616  41.888  12.513
66471W        W32880  38.872  41.519  10.239
66472W        W32881  19.004  14.801  14.500
66473W        W32882  14.323  17.833  14.069
66474W        W32883  44.521  12.207   5.039
66475W        W32884  19.585  17.756   3.168
66476W        W32885  22.883  32.675  13.821
66477W        W32886   1.375  30.876  14.009
66478W        W32887  30.588  39.587   0.361
66479W        W32888   5.638   5.300  13.895
66480W        W32889   1.406  28.143   2.580
66481W        W32890   5.269   1.712  14.298
66482W        W32891  39.933  43.613   2.888
66483W        W32892  24.681  16.205   4.619
66484W        W32893  43.052  20.048   2.460
66485W        W32894  43.902   0.325   0.269
66486W        W32895   5.286  31.135   3.335
66487W        W32896  20.389   8.776   2.912
66488W        W32897  39.930   3.871  14.704
66489W        W32898  30.206  18.499   0.489
66490W        W32899   3.291  26.911  11.291
66491W        W32900   9.529  16.096   4.407
66492W        W32901  16.545  23.098  14.556
66493W        W32902  11.278  25.918   3.239
66494W        W32903  17.425  29.088  11.579
66495W        W32904  34.613  23.024   3.363
66496W        W32905  29.091   2.480  12.977
66497W        W32906  38.364  20.779  14.356
66498W        W32907  14.600  38.368  14.863
66499W        W32908  18.903  31.190  11.036
66500W        W32909   6.460  24.075  13.557
66501W        W32910  29.498  28.477   0.756
66502W        W32911   2.976  20.967  12.592
66503W        W32912   0.455  39.857   3.688
66504W        W32913   6.089  22.166   5.035
66505W        W32914   2.771   1.456   1.722
66506W        W32915  17.564   1.519  11.651
66507W        W32916   1.492   9.240   5.713
66508W        W32917  43.452  14.710   3.243
66509W        W32918  23.569  19.276  13.346
66510W        W32919   5.904  44.426   2.407
66511W        W32920  29.117  21.625  13.058
66512W        W32921   9.411  36.428   3.825
66513W        W32922  15.303  11.223   2.598
66514W        W32923   9.798  39.115   3.429
66515W        W32924  16.584   0.414   1.890
66516W        W32925  25.573  10.183   0.368
66517W        W32926   9.323  13.690  12.173
66518W        W32927  27.648   1.534   3.121
66519W        W32928  22.015  42.457   3.145
66520W        W32929   0.313  12.145   3.887
66521W        W32930   9.290   5.206   2.208
66522W        W32931  26.012  44.314  13.111
66523W        W32932   4.217  13.725  12.551
66524W        W32933   1.291   4.882  11.101
66525W        W32934  25.137  26.531   9.871
66526W        W32935  23.644   4.479   2.900
66527W        W32936   3.154   7.324   2.753
66528W        W32937  26.660   9.903  12.041
66529W        W32938  27.589  17.755  12.824
66530W        W32939  38.065  34.485  13.755
66531W        W32940  14.688  18.338   2.440
66532W        W32941  13.415  28.977   9.852
66533W        W32942   6.355  31.705  12.990
66534W        W32943  13.357  41.485   1.397
66535W        W32944   0.996   4.978   4.013
66536W        W32945  11.871  21.720  10.187
66537W        W32946   6.453  35.218  14.572
66538W        W32947  13.735  29.917   3.600
66539W        W32948   0.259  14.787  12.384
66540W        W32949  37.739  39.406  13.127
66541W        W32950  14.525  25.441   0.827
66542W        W32951  40.841  10.770   3.828
66543W        W32952  29.801  16.301  11.948
66544W        W32953   8.928  28.142   2.686
66545W        W32954   9.801  13.197   3.175
66546W        W32955  29.050   0.958   3.559
66547W        W32956  37.596  32.841   0.256
66548W        W32957   5.307   6.719  13.980
66549W        W32958   3.926  33.441  12.583
66550W        W32959  15.099  36.589   3.638
66551W        W32960   4.157   0.926  11.565
66552W        W32961  10.151  44.155   0.830
66553W        W32962  43.900   0.547   3.721
66554W        W32963   9.980   9.468   4.023
66555W        W32964  19.464  42.053  13.388
66556W        W32965  28.837  43.489   3.631
66557W        W32966  16.682  21.132   3.238
66558W        W32967  11.397  19.402   2.337
66559W        W32968  42.076   6.665   3.114
66560W        W32969  11.195  34.434  11.574
66561W        W32970  24.064   8.623  10.706
66562W        W32971  19.016  43.967  12.038
66563W        W32972  12.294  32.495  10.186
66564W        W32973  31.925  12.252   2.729
66565W        W32974  33.249  32.712   3.753
66566W        W32975  27.713  38.479   3.652
66567W        W32976  11.318  36.847  10.242
66568W        W32977  33.201   9.306  12.592
66569W        W32978  15.360  15.455  13.026
66570W        W32979  41.872  20.145  12.076
66571W        W32980  21.788  13.275  11.584
66572W        W32981  20.204   5.299  12.060
66573W        W32982  29.313  10.774  13.174
66574W        W32983  18.452   9.724   3.570
66575W        W32984  21.785  32.235   2.398
66576W        W32985  31.538  22.479   3.182
66577W        W32986  23.239  19.338  12.779
66578W        W32987  44.829  23.603   3.724
66579W        W32988  37.147   1.858  12.472
66580W        W32989  20.544  24.550  12.957
66581W        W32990   3.275   6.817  11.996
66582W        W32991   6.413  14.805   3.740
66583W        W32992   3.837  40.928   0.220
66584W        W32993   6.196  32.944  10.683
66585W        W32994  36.568  15.684  11.241
66586W        W32995  41.670  16.685   4.536
66587W        W32996  33.093   3.222  13.452
66588W        W32997  43.827  22.012  14.090
66589W        W32998   9.839  32.673   2.092
66590W        W32999  30.450   1.729  10.261
66591W        W33000   9.147  27.522  13.705
66592W        W33001  16.785   7.173  10.388
66593W        W33002  25.786  21.554  11.408
66594W        W33003  43.161   3.663   2.226
66595W        W33004  35.687  24.920   3.926
66596W        W33005  20.519   3.781   1.818
66597W        W33006  27.086  40.287   2.711
66598W        W33007  39.704  45.000  11.528
66599W        W33008  24.955  23.339   4.933
66600W        W33009  42.296  26.428   1.938
66601W        W33010  16.017   7.730  14.933
66602W        W33011  17.701  26.542  14.252
66603W        W33012  26.081  25.979  12.045
66604W        W33013   4.140  38.026  13.604
66605W        W33014  44.531  43.372   2.649
66606W        W33015  16.623  10.276   0.995
66607W        W33016  11.729  44.864   3.866
66608W        W33017  43.262  40.448   3.108
66609W        W33018  14.248   3.741   1.905
66610W        W33019   9.464  43.397   2.108
66611W        W33020  15.880   6.516  13.122
66612W        W33021  21.029   8.486   0.390
66613W        W33022  32.310  25.244  14.416
66614W        W33023  44.319  26.086   0.563
66615W        W33024  38.750  29.455   3.145
66616W        W33025  38.731   4.398  14.490
66617W        W33026  21.147   1.046   4.049
66618W        W33027  32.831  18.434  14.936
66619W        W33028  20.622  20.301  12.981
66620W        W33029  19.576   6.933   3.548
66621W        W33030  20.668  10.394   1.150
66622W        W33031  41.638  23.290  13.098
66623W        W33032  31.351  29.605   4.028
66624W        W33033  12.315  21.247   5.575
66625W        W33034   0.008   6.509   1.647
66626W        W33035  12.633  20.789   1.338
66627W        W33036   6.647  14.630   2.627
66628W        W33037  32.847  19.114   1.296
66629W        W33038  12.882  23.002  13.065
66630W        W33039  12.933   3.980   1.762
66631W        W33040   9.137  18.520  11.107
66632W        W33041  14.407  18.234  10.651
66633W        W33042  20.161  21.950   1.014
66634W        W33043  14.799   6.887   0.321
66635W        W33044   1.989  10.444   5.056
66636W        W33045  31.108  34.246  12.448
66637W        W33046   5.667  31.057  13.884
66638W        W33047  14.379  31.654  14.397
66639W        W33048  29.606   2.017   0.488
66640W        W33049  20.566  41.179  13.363
66641W        W33050  15.274  10.850  10.588
66642W        W33051  36.837  35.113  13.945
66643W        W33052  30.415  15.708  11.402
66644W        W33053  25.139  10.317   2.383
66645W        W33054  28.907  24.180   3.552
66646W        W33055   7.546   0.019  14.708
66647W        W33056   7.210   7.223   3.514
66648W        W33057  17.012  30.438  11.601
66649W        W33058  12.320   5.779   1.816
66650W        W33059  42.790  36.733   2.229
66651W        W33060  43.477  31.120  14.843
66652W        W33061  32.486  28.521   2.350
66653W        W33062  25.522  38.820  14.717
66654W        W33063  35.103   5.634   3.186
66655W        W33064  35.054  18.087  12.874
66656W        W33065  30.765  26.023   1.844
66657W        W33066  41.076   5.854  13.522
66658W        W33067   9.472  43.846  10.579
66659W        W33068   6.317  26.261  10.739
66660W        W33069  35.379  41.926   1.137
66661W        W33070   4.514  18.209  12.051
66662W        W33071  11.410  37.462  13.005
66663W        W33072  40.515  16.084  12.901
66664W        W33073  18.785  18.277   4.623
66665W        W33074  44.903   7.336  12.075
66666W        W33075  22.570  40.902   0.259
66667W        W33076  11.234  36.382   0.702
66668W        W33077   0.981   8.259  13.086
66669W        W33078   8.327  44.117   0.720
66670W        W33079   5.311  10.386   2.899
66671W        W33080  23.515  10.325   1.949
66672W        W33081  17.921  42.268  12.058
66673W        W33082   7.324  24.570  12.460
66674W        W33083  15.709  15.529  13.456
66675W        W33084  25.226  35.977   0.227
66676W        W33085  24.130  34.665  11.741
66677W        W33086  44.445  10.519   5.443
66678W        W33087  13.857  31.440   0.785
66679W        W33088  25.596   0.347   1.436
66680W        W33089  36.468  33.470   0.954
66681W        W33090  17.269  38.682  11.215
66682W        W33091  31.881  30.161   4.508
66683W        W33092  32.807  11.748   4.695
66684W        W33093  41.443  34.633  11.172
66685W        W33094   5.434  22.646   1.205
66686W        W33095  27.999  17.760  14.772
66687W        W33096  19.020  40.217   0.472
66688W        W33097  12.019  29.248  14.668
66689W        W33098   6.780  14.318  13.642
66690W        W33099   4.807  30.859   3.254
66691W        W33100  43.323  12.797  10.646
66692W        W33101  19.277  30.793   4.124
66693W        W33102  10.893  13.386   2.476
66694W        W33103  10.551  38.451  11.338
66695W        W33104   1.258  39.194  13.093
66696W        W33105   0.906  31.520  14.733
66697W        W33106  38.051  23.457  13.875
66698W        W33107  32.625  36.508   1.423
66699W        W33108  27.445  30.387  13.755
66700W        W33109   8.157  25.456   2.787
66701W        W33110  41.594  27.446  14.618
66702W        W33111   9.229   0.305   4.091
66703W        W33112  44.304  10.614   3.484
66704W        W33113   2.969  24.058   1.512
66705W        W33114  30.642   2.397  13.534
66706W        W33115  29.170  26.699  14.332
66707W        W33116  37.617  10.389  12.465
66708W        W33117   7.237  12.894   0.425
66709W        W33118  35.578   7.294   1.225
66710W        W33119  44.006  43.491   3.590
66711W        W33120  41.782   5.826   1.643
66712W        W33121  21.677   2.131   2.355
66713W        W33122  24.815  34.934   4.980
66714W        W33123  11.018  23.107   1.826
66715W        W33124   1.333  17.193   4.074
66716W        W33125  35.089  18.645  12.929
66717W        W33126   1.836  13.698   0.809
66718W        W33127  10.039  31.997  11.734
66719W        W33128  28.901   7.881  10.306
66720W        W33129  23.587  10.704   1.311
66721W        W33130  30.592  21.726  10.716
66722W        W33131  43.166  24.646  12.570
66723W        W33132   7.473  14.065   0.676
66724W        W33133  43.555  33.961  14.363
66725W        W33134  43.894  35.292  14.995
66726W        W33135  19.088   5.392   3.871
66727W        W33136   8.438  11.729   0.775
66728W        W33137  33.582  38.774  14.383
66729W        W33138   8.342  44.272   2.328
66730W        W33139  42.818  42.829   1.401
66731W        W33140  41.438  19.904  11.943
66732W        W33141  28.005  21.213   9.728
66733W        W33142  11.076  23.071  11.902
66734W        W33143  25.240  22.266   2.735
66735W        W33144  36.166   5.783  13.411
66736W        W33145  30.594  17.181  13.760
66737W        W33146  36.654   4.742   4.467
66738W        W33147  44.825  15.121   3.879
66739W        W33148  36.875  16.745  14.819
66740W        W33149  28.607  26.739  12.499
66741W        W33150  18.609  18.264  14.281
66742W        W33151  42.729   0.415  14.761
66743W        W33152  23.459   3.688  12.638
66744W        W33153  42.556   4.301   0.808
66745W        W33154  33.866  19.616  13.212
66746W        W33155  22.723  20.809   3.704
66747W        W33156  14.871  19.124  13.707
66748W        W33157  10.051  16.846   3.671
66749W        W33158  19.687  12.287   4.609
66750W        W33159   0.275  20.970  12.357
66751W        W33160  26.524  35.955   1.743
66752W        W33161   0.719  24.324   0.723
66753W        W33162  15.411  44.359   2.436
66754W        W33163  21.109   6.826   2.928
66755W        W33164  42.033  21.996  11.840
66756W        W33165  32.403  17.551  12.017
66757W        W33166  14.809  20.086  11.921
66758W        W33167   4.603  12.270   3.379
66759W        W33168  30.534  28.601  12.477
66760W        W33169  27.466  18.173   4.797
66761W        W33170  29.987  37.407  14.195
66762W        W33171   3.493  37.617   0.448
66763W        W33172  35.871  28.084  11.214
66764W        W33173  36.564  24.446   0.327
66765W        W33174  16.815  34.082  13.545
66766W        W33175  34.095  35.013  10.726
66767W        W33176  14.751  28.234   4.362
66768W        W33177   0.241  42.233  14.963
66769W        W33178  21.190  24.398   0.983
66770W        W33179  40.359  35.417  12.558
66771W        W33180  20.528  36.652   3.241
66772W        W33181  40.339  30.169   3.591
66773W        W33182  20.122  19.369   4.181
66774W        W33183   4.201  10.326   4.213
66775W        W33184   6.365  44.557  11.094
66776W        W33185   9.797  12.819  11.427
66777W        W33186   5.958  12.715   4.897
66778W        W33187   8.715  20.751  10.636
66779W        W33188  44.772   2.799   2.147
66780W        W33189  13.175  34.519   3.621
66781W        W33190  15.368  23.519   2.627
66782W        W33191  36.923  22.535   2.950
66783W        W33192  40.994  40.384  14.917
66784W        W33193  20.443  31.232   2.673
66785W        W33194   6.932  27.290   4.579
66786W        W33195  14.087  41.103   0.734
66787W        W33196  40.914  40.968  13.300
66788W        W33197  37.333  33.422  14.757
66789W        W33198   2.318  16.544   2.935
66790W        W33199   6.390  41.203   1.241
66791W        W33200  25.755  33.077  11.253
66792W        W33201  24.825  35.701  11.156
66793W        W33202  24.045  29.603  13.777
66794W        W33203  41.521  14.371   1.815
66795W        W33204  17.989   9.608  13.935
66796W        W33205   5.759   6.566   4.416
66797W        W33206   7.952  18.018   4.176
66798W        W33207  34.359  43.991   2.507
66799W        W33208  26.471  36.940  13.401
66800W        W33209   2.557  16.535   1.291
66801W        W33210  37.307  44.267   0.826
66802W        W33211   2.251  15.753  11.258
66803W        W33212   9.313  13.440   3.356
66804W        W33213  37.815   6.352   3.282
66805W        W33214   2.424  11.346  14.942
66806W        W33215  26.413  15.791  14.378
66807W        W33216  13.577  21.995   2.685
66808W        W33217  12.349  26.306  11.653
66809W        W33218  13.992  36.015   1.842
66810W        W33219  14.481  24.462   2.022
66811W        W33220  27.950   7.062  12.197
66812W        W33221  22.743  17.052  11.588
66813W        W33222  11.560   8.742   4.951
66814W        W33223  30.361  32.997   1.008
66815W        W33224  26.274  17.032   4.208
66816W        W33225  22.015  17.192   3.207
66817W        W33226  39.824  44.021  13.792
66818W        W33227  16.269   8.830   3.702
66819W        W33228   5.386  20.313   2.155
66820W        W33229  16.054  24.705  13.869
66821W        W33230  18.766  17.293   4.798
66822W        W33231   0.510   1.762   2.330
66823W        W33232  12.521  41.713   0.935
66824W        W33233   1.721  43.943  13.852
66825W        W33234   2.081   7.108  11.997
66826W        W33235  30.603  34.934  14.362
66827W        W33236  39.868  40.837   2.609
66828W        W33237  40.550  33.568  13.170
66829W        W33238  44.810  40.517  10.590
66830W        W33239  33.986  30.695  10.663
66831W        W33240  11.132   4.905   4.096
66832W        W33241   8.942  40.418  14.918
66833W        W33242  37.847  19.030   3.040
66834W        W33243  16.339  20.335  11.711
66835W        W33244  17.766   4.880  11.233
66836W        W33245  33.904  12.751   0.970
66837W        W33246  36.822   4.780   2.188
66838W        W33247  11.258  11.847  14.827
66839W        W33248  30.060  13.635   4.138
66840W        W33249  41.154  22.667  12.487
66841W        W33250   2.760   6.722   3.423
66842W        W33251  44.338  38.694   1.142
66843W        W33252  39.572  39.657  14.304
66844W        W33253  27.653   6.772   3.546
66845W        W33254   8.190  12.437  13.095
66846W        W33255   6.889  44.813  12.506
66847W        W33256  26.347   3.508  13.966
66848W        W33257  14.283  39.758  12.349
66849W        W33258  27.043  27.699   4.344
66850W        W33259  30.682  15.364  11.733
66851W        W33260  28.602  25.809  13.553
66852W        W33261   1.531  14.416  12.416
66853W        W33262   2.344  14.737  13.429
66854W        W33263  41.996  31.442   4.252
66855W        W33264   5.937  15.192  10.734
66856W        W33265   6.678  10.431   2.295
66857W        W33266   1.730  25.278  10.814
66858W        W33267  30.663   9.869  13.436
66859W        W33268  15.124  27.505   2.683
66860W        W33269  37.310  44.865  11.533
66861W        W33270   9.921   0.795  12.625
66862W        W33271  35.406  43.051   3.139
66863W        W33272  14.783  37.414   2.754
66864W        W33273  10.735   0.240   1.383
66865W        W33274  29.358   1.346  11.049
66866W        W33275  37.346  10.599  12.079
66867W        W33276  12.209   3.424  10.964
66868W        W33277  15.247   5.884  14.265
66869W        W33278  21.065  21.619   4.446
66870W        W33279  41.076  15.000   4.894
66871W        W33280  34.367  13.031  12.601
66872W        W33281  38.874  13.811   3.625
66873W        W33282  37.906  30.973   5.000
66874W        W33283  27.677  29.260   0.329
66875W        W33284  40.487  34.842   1.486
66876W        W33285   6.765   5.913  13.438
66877W        W33286   0.290   4.444  14.513
66878W        W33287  35.766  41.668  12.552
66879W        W33288   0.783  24.327   4.163
66880W        W33289   6.331   3.261  14.173
66881W        W33290   6.830  21.609  13.378
66882W        W33291  44.371  28.885   1.314
66883W        W33292  17.058  13.175   0.311
66884W        W33293  31.350  43.745   3.298
66885W        W33294   2.869   3.175   4.079
66886W        W33295  28.183  27.589   0.791
66887W        W33296  17.511   3.028  11.671
66888W        W33297   9.085   2.779  14.701
66889W        W33298  29.191  36.540  10.617
66890W        W33299  15.591  44.706  10.565
66891W        W33300   4.169  25.439   0.329
66892W        W33301  10.154  41.334  10.508
66893W        W33302  41.842   1.461  12.481
66894W        W33303  11.135   2.380  13.392
66895W        W33304  28.017   5.266   2.400
66896W        W33305  27.516  43.539   1.914
66897W        W33306  34.594  36.967   1.721
66898W        W33307  12.571  37.902   4.970
66899W        W33308  32.677  37.182  12.029
66900W        W33309  42.325   6.236  10.963
66901W        W33310  30.441  38.602  12.082
66902W        W33311  36.534  22.908  10.069
66903W        W33312  43.319  12.212   5.104
66904W        W33313   9.311  18.205   3.081
66905W        W33314  22.887  10.693   0.868
66906W        W33315  21.571   5.590   2.658
66907W        W33316  39.771  36.613   4.659
66908W        W33317   6.372  39.112   4.017
66909W        W33318  24.141  41.934  10.793
66910W        W33319  33.884  18.083  10.498
66911W        W33320  16.602  22.729   2.168
66912W        W33321  31.139  21.723  10.607
66913W        W33322  35.335   8.753   3.193
66914W        W33323  38.837  26.086  10.770
66915W        W33324  14.794  39.206   1.636
66916W        W33325  27.711  24.560   1.356
66917W        W33326  31.507  37.409  14.983
66918W        W33327  24.772  14.517   1.615
66919W        W33328  18.270  13.140   3.593
66920W        W33329  25.021  27.848  10.718
66921W        W33330  32.903  13.275  14.902
66922W        W33331  17.650  26.912   0.431
66923W        W33332  18.491   6.151  10.682
66924W        W33333  21.555   8.245   0.399
66925W        W33334  11.771  29.022  12.496
66926W        W33335  40.643   2.509   4.606
66927W        W33336  33.882   9.434   3.756
66928W        W33337  44.003  33.681  14.378
66929W        W33338   8.185  21.517   4.747
66930W        W33339   6.455  20.685   2.085
66931W        W33340  15.182  34.743   2.228
66932W        W33341   9.041   6.944  13.484
66933W        W33342  40.748  24.724   0.388
66934W        W33343  19.920  12.195   2.376
66935W        W33344  43.504  25.977   2.112
66936W        W33345  31.182  39.126  11.744
66937W        W33346  12.036   5.330  13.927
66938W        W33347  21.343   5.176   4.116
66939W        W33348  31.065   8.048  12.163
66940W        W33349  40.561  43.364   4.205
66941W        W33350  33.632  20.071  10.804
66942W        W33351  32.377  35.331   1.891
66943W        W33352  23.206  17.341  12.876
66944W        W33353  29.720  20.677   0.930
66945W        W33354  30.119  12.757   4.536
66946W        W33355   8.419   8.406   0.355
66947W        W33356  33.662  15.299  11.178
66948W        W33357   4.339  10.507   3.374
66949W        W33358  13.680   7.347   4.296
66950W        W33359  21.761  35.537   0.271
66951W        W33360  32.151  42.943  14.959
66952W        W33361  16.863  40.523  10.899
66953W        W33362  21.829  18.111   4.399
66954W        W33363  33.776   0.227  14.002
66955W        W33364  40.597  35.331   4.858
66956W        W33365   3.099  29.994   1.804
66957W        W33366  38.023  40.709  11.608
66958W        W33367  18.663  13.604   3.126
66959W        W33368   0.372  43.171  11.555
66960W        W33369  40.173  42.881   3.569
66961W        W33370  16.552  16.067  14.517
66962W        W33371  43.845  34.959   3.386
66963W        W33372  11.947   1.892  10.328
66964W        W33373  31.721  24.066   4.269
66965W        W33374  22.044  16.387  11.161
66966W        W33375  12.231  10.863   1.229
66967W        W33376   4.884   7.129  10.611
66968W        W33377  28.965   6.665   2.668
66969W        W33378  14.157   0.310   3.274
66970W        W33379   9.849  10.874  14.784
66971W        W33380  38.892  39.760  11.477
66972W        W33381   2.791  24.465  11.954
66973W        W33382  14.791  42.223   2.843
66974W        W33383  40.012  38.303   4.296
66975W        W33384  17.797  10.159   2.358
66976W        W33385  33.579   5.837   3.209
66977W        W33386  12.760  41.566  13.487
66978W        W33387  23.025  25.445  11.931
66979W        W33388  13.637  33.552  13.656
66980W        W33389  30.191   4.002  11.495
66981W        W33390  13.718   3.974  14.383
66982W        W33391  30.947  34.077   4.467
66983W        W33392  19.260  25.767  12.871
66984W        W33393   4.666  22.266   5.446
66985W        W33394  44.910   2.804   1.627
66986W        W33395  41.766   8.517  11.178
66987W        W33396  30.603   2.142   1.334
66988W        W33397  38.352  44.204  13.572
66989W        W33398  37.361  22.522   0.989
66990W        W33399  15.111  38.835   0.370
66991W        W33400  41.323  23.489  13.483
66992W        W33401  18.690  20.660   2.173
66993W        W33402  13.913   1.158  14.842
66994W        W33403  13.132  43.230   4.830
66995W        W33404  10.877  24.657  11.656
66996W        W33405  35.512  23.513  10.372
66997W        W33406   1.107   4.492  13.924
66998W        W33407  19.607  30.437  12.494
66999W        W33408  27.101  40.260   0.876
67000W        W33409  25.199  23.768   5.125
67001W        W33410  42.336   2.298   3.303
67002W        W33411  31.289  11.100   1.307
67003W        W33412  27.983   0.086  13.914
67004W        W33413  38.868  43.395   3.724
67005W        W33414  13.028   3.749  14.011
67006W        W33415  34.327  10.784  11.127
67007W        W33416   2.521  39.521   1.902
67008W        W33417   6.774  41.312  11.185
67009W        W33418  27.031  41.029   2.382
67010W        W33419   6.977  10.901  12.505
67011W        W33420   8.669  36.693   4.623
67012W        W33421   4.045  14.094  10.981
67013W        W33422  30.921  27.324   0.927
67014W        W33423  23.282  21.800  12.949
67015W        W33424   4.478  30.160   3.380
67016W        W33425   7.425   5.655   3.715
67017W        W33426   7.665  40.324  13.162
67018W        W33427   3.181  40.122  13.041
67019W        W33428  10.690  44.626  14.904
67020W        W33429  44.348  37.974  10.162
67021W        W33430  12.033  27.734  11.481
67022W        W33431  14.744  17.350   1.433
67023W        W33432  38.263  15.475  13.528
67024W        W33433   9.992  24.324   0.951
67025W        W33434  20.034  19.188  12.417
67026W        W33435  37.498  44.913   3.622
67027W        W33436  21.980  23.949  14.921
67028W        W33437  31.662  25.544  13.316
67029W        W33438  41.201   6.259   1.820
67030W        W33439   6.979  17.140   2.794
67031W        W33440   3.797  21.209   3.968
67032W        W33441  19.137  30.784  13.549
67033W        W33442   9.280   8.374   2.895
67034W        W33443  11.047  39.955  11.575
67035W        W33444  34.565  22.836   2.863
67036W        W33445  12.105  26.437  13.470
67037W        W33446  21.596  29.964   0.454
67038W        W33447   9.824  39.022   2.055
67039W        W33448  25.619   1.468   4.561
67040W        W33449  34.802  11.901   1.383
67041W        W33450  14.707  36.602   1.417
67042W        W33451  37.865  13.885   3.471
67043W        W33452  14.840  13.336   4.055
67044W        W33453  14.290  11.712   4.182
67045W        W33454  22.247  39.812  12.167
67046W        W33455  44.742   1.558   4.006
67047W        W33456  21.980   2.338   0.896
67048W        W33457  34.096  23.058  14.264
67049W        W33458  19.769  42.395   3.294
67050W        W33459  36.828  24.743   4.510
67051W        W33460  36.348  21.782  12.951
67052W        W33461  35.108  32.489  11.879
67053W        W33462  38.111  32.880   3.751
67054W        W33463  11.291   9.216   4.099
67055W        W33464  21.670  24.209  12.104
67056W        W33465  20.671   4.262   1.923
67057W        W33466  27.581  19.715   1.916
67058W        W33467  43.498  36.439  14.456
67059W        W33468  26.866  38.390   1.232
67060W        W33469  29.867   1.477  11.154
67061W        W33470  37.007  17.902   0.533
67062W        W33471  28.335  26.284   4.128
67063W        W33472  31.371   2.771   0.759
67064W        W33473   4.546  21.733   1.764
67065W        W33474  25.089  15.099   3.919
67066W        W33475   1.532  14.768  10.596
67067W        W33476  37.349   4.015   4.895
67068W        W33477  29.256  33.090  12.163
67069W        W33478  19.879  25.463  13.386
67070W        W33479  22.917  10.827  11.470
67071W        W33480  24.053  15.673   2.621
67072W        W33481  15.602  10.357   0.506
67073W        W33482  30.555  13.689  11.956
67074W        W33483   7.805  43.394   2.365
67075W        W33484   4.361   3.845   2.218
67076W        W33485  24.634  37.960  13.573
67077W        W33486   1.436  39.949  11.633
67078W        W33487   7.079   9.724   2.777
67079W        W33488   4.909  16.018  10.491
67080W        W33489  11.564  11.347  14.520
67081W        W33490   0.961   0.299   1.949
67082W        W33491   9.728   6.428  13.078
67083W        W33492  16.229  34.705   0.348
67084W        W33493  22.020  44.118  11.530
67085W        W33494  38.395  31.395  12.879
67086W        W33495  13.781  11.570   2.288
67087W        W33496  25.206  27.797  12.465
67088W        W33497   3.881  41.768  13.938
67089W        W33498   5.506  14.702   3.633
67090W        W33499  31.302  32.670  14.360
67091W        W33500  33.870  41.492   1.131
67092W        W33501  14.092  20.217  10.695
67093W        W33502  41.811  39.119   3.528
67094W        W33503  21.216  37.508   4.057
67095W        W33504   3.693  20.108   2.931
67096W        W33505   1.793  30.350  13.449
67097W        W33506   4.358  24.573   3.624
67098W        W33507  16.145  31.420   1.496
67099W        W33508  21.414  29.473   4.434
67100W        W33509  16.788  40.307   3.231
67101W        W33510  16.045  30.991   3.258
67102W        W33511  13.355  27.666  14.965
67103W        W33512   3.447   4.378  12.159
67104W        W33513  19.835  24.997   3.904
67105W        W33514  39.071  16.105  12.491
67106W        W33515  33.877  27.413   0.007
67107W        W33516   7.701  27.721   1.334
67108W        W33517  43.819  27.984   1.173
67109W        W33518  13.643  32.526  12.348
67110W        W33519  17.823  16.499  11.966
67111W        W33520  44.278  33.980  11.742
67112W        W33521   7.931  27.347  10.570
67113W        W33522   7.437  26.116  12.367
67114W        W33523  12.861   7.367   3.718
67115W        W33524  44.875  30.599   1.502
67116W        W33525  10.852  17.863  13.816
67117W        W33526  29.078   1.286   0.452
67118W        W33527   5.189  10.881   2.860
67119W        W33528  34.474   2.756   1.628
67120W        W33529  31.070  27.924  11.083
67121W        W33530   1.303  38.451  14.471
67122W        W33531  13.433  17.986   3.885
67123W        W33532  25.046   0.047  11.889
67124W        W33533  42.331  29.529   0.557
67125W        W33534  26.968  19.615   3.782
67126W        W33535  18.537  34.528   2.341
67127W        W33536  14.540  22.767   0.220
67128W        W33537  19.749  39.751  12.370
67129W        W33538  32.641  22.117  11.180
67130W        W33539  27.552  36.420  14.435
67131W        W33540  22.709  26.741   2.548
67132W        W33541  34.537  11.734   5.119
67133W        W33542  21.610  27.648  10.727
67134W        W33543  15.551  42.820   4.485
67135W        W33544  10.652  35.425   5.090
67136W        W33545   6.134  31.240   4.538
67137W        W33546  30.502  31.257  12.332
67138W        W33547   4.848  41.199   3.592
67139W        W33548  19.565  38.616   0.722
67140W        W33549  12.713  32.910   3.166
67141W        W33550  42.316  18.658   2.344
67142W        W33551  27.449  19.555   0.968
67143W        W33552  29.898  19.470   2.941
67144W        W33553  11.562   2.995   3.499
67145W        W33554  29.588  43.301  12.916
67146W        W33555  24.787   4.460  11.912
67147W        W33556  13.341  13.312   2.830
67148W        W33557   1.392  11.688   2.360
67149W        W33558  30.159  37.634  12.072
67150W        W33559  39.460   0.851  12.735
67151W        W33560  41.217  33.432  12.016
67152W        W33561  42.144   9.755   2.761
67153W        W33562  13.723  41.790  13.007
67154W        W33563  38.979  41.727  14.389
67155W        W33564  10.851   5.739   4.632
67156W        W33565  41.522  15.646  12.176
67157W        W33566   3.929  43.456  13.085
67158W        W33567  22.501   5.934  13.490
67159W        W33568  26.092   0.867   2.279
67160W        W33569   4.529  13.243   0.810
67161W        W33570   3.151  36.897   3.736
67162W        W33571  41.748  14.366  12.518
67163W        W33572  10.321  17.205  12.518
67164W        W33573   0.412  44.071  14.452
67165W        W33574  20.544  43.484  13.139
67166W        W33575  21.731  40.045  14.509
67167W        W33576   5.040  30.170  12.001
67168W        W33577  40.017  35.639  10.686
67169W        W33578  30.956  11.328   0.361
67170W        W33579  20.842  25.481  12.798
67171W        W33580   6.877  43.038   3.713
67172W        W33581  41.723  24.714  12.259
67173W        W33582  40.987  19.073  11.024
67174W        W33583  16.945   7.357  14.753
67175W        W33584  22.643   5.403   2.774
67176W        W33585  44.916  25.275  11.063
67177W        W33586  17.385  21.310  13.901
67178W        W33587  44.536  29.436  12.356
67179W        W33588  29.534   7.320   3.399
67180W        W33589  40.103  39.029  12.344
67181W        W33590  32.363  38.031  12.955
67182W        W33591  12.811  17.720  13.034
67183W        W33592  41.048  16.541   2.878
67184W        W33593  31.916  21.967   0.892
67185W        W33594   1.272  38.345   3.807
67186W        W33595  34.991  13.794  13.444
67187W        W33596  14.213  44.348   4.478
67188W        W33597  10.310  37.127  14.863
67189W        W33598  13.904  15.852  11.273
67190W        W33599  17.164  16.936   4.686
67191W        W33600  34.979  27.851   3.334
67192W        W33601  11.656   8.169  12.830
67193W        W33602  38.491  19.667   3.648
67194W        W33603  21.423  24.717  12.030
67195W        W33604  37.945   6.411  13.387
67196W        W33605  22.398  35.440   2.390
67197W        W33606  40.381   3.295   1.492
67198W        W33607   5.115  41.549  11.240
67199W        W33608  39.756   1.050   4.083
67200W        W33609  38.875  36.693   1.726
67201W        W33610  22.167   8.484  11.230
67202W        W33611  13.134  19.252  13.135
67203W        W33612  27.349  28.574  10.400
67204W        W33613  42.590  10.652  12.968
67205W        W33614  31.995  28.068  11.255
67206W        W33615  34.008  19.234   3.759
67207W        W33616  38.907  34.054   2.707
67208W        W33617  38.052   9.317  11.614
67209W        W33618  23.706   8.216  11.633
67210W        W33619  10.657  15.973  14.753
67211W        W33620   5.539  25.408   0.210
67212W        W33621   1.166  14.489  12.914
67213W        W33622   5.911  33.308   3.177
67214W        W33623   3.427   6.504   2.767
67215W        W33624  33.022  13.146   2.670
67216W        W33625  18.747   6.336   5.126
67217W        W33626  32.665   3.144  10.317
67218W        W33627  32.705  31.373   1.467
67219W        W33628  35.638  20.732  13.142
67220W        W33629  35.362  26.053  11.885
67221W        W33630  24.882  24.166  13.934
67222W        W33631   7.373  21.498  11.098
67223W        W33632  28.076  40.821   0.213
67224W        W33633   2.480  36.194   2.419
67225W        W33634  35.373  41.537   1.508
67226W        W33635  26.809  22.845   4.432
67227W        W33636   5.180  43.740   4.538
67228W        W33637  29.220  41.868   4.542
67229W        W33638  33.676  32.644  14.885
67230W        W33639  34.122  32.094  13.324
67231W        W33640  22.730  42.879   1.350
67232W        W33641  34.132  11.320   3.172
67233W        W33642  37.409  31.615  10.708
67234W        W33643  36.717  37.792  14.562
67235W        W33644  18.688  16.625   2.428
67236W        W33645  43.866  44.852   1.538
67237W        W33646  24.400  40.318  10.500
67238W        W33647   7.422   8.450   0.542
67239W        W33648  15.765  28.220  12.007
67240W        W33649  13.766   9.203  13.909
67241W        W33650  42.391  11.585  14.833
67242W        W33651  31.113  10.705   2.823
67243W        W33652  41.318  32.630   1.223
67244W        W33653   3.879   6.971   0.935
67245W        W33654  16.117  29.751   2.617
67246W        W33655  44.497  33.445  14.375
67247W        W33656  20.196  10.148  12.626
67248W        W33657   7.125  33.948   4.233
67249W        W33658  20.112  42.986   0.302
67250W        W33659  32.585  15.809   2.258
67251W        W33660  35.574   6.400  10.495
67252W        W33661  29.349  42.810   4.599
67253W        W33662  12.029  38.759   3.768
67254W        W33663  34.130  41.316   3.803
67255W        W33664  36.146  17.712   1.370
67256W        W33665   7.132  28.614   5.018
67257W        W33666  12.596  29.478   3.747
67258W        W33667  22.733  40.053  14.792
67259W        W33668  24.674   1.211   2.916
67260W        W33669  28.671  29.777  12.415
67261W        W33670   9.720  32.563   2.624
67262W        W33671  23.143  11.665   4.090
67263W        W33672  43.312  17.531   2.488
67264W        W33673  16.735  30.006  11.883
67265W        W33674  34.577   7.600   1.255
67266W        W33675   0.196  24.650  11.129
67267W        W33676  30.026  25.976  12.661
67268W        W33677  40.085  11.989  12.872
67269W        W33678  18.507   1.055   2.485
67270W        W33679  38.505  24.770   1.658
67271W        W33680  15.575  15.629   1.764
67272W        W33681  28.873   1.799   1.115
67273W        W33682  43.484  22.042   0.724
67274W        W33683  25.556  43.392   4.441
67275W        W33684  11.083  36.013   1.548
67276W        W33685  43.969  37.822  13.381
67277W        W33686  12.174  17.194  10.960
67278W        W33687   6.650  44.504  11.863
67279W        W33688   2.237  38.519   3.367
67280W        W33689  12.085  44.994   2.064
67281W        W33690   5.175   0.043   2.896
67282W        W33691  13.358  29.485  13.122
67283W        W33692  13.696   1.117  12.875
67284W        W33693   5.995  25.636  11.252
67285W        W33694  26.652  38.270  11.607
67286W        W33695  11.418  23.186  10.722
67287W        W33696  10.218  16.655  11.654
67288W        W33697  35.856  27.150   0.871
67289W        W33698  10.097  20.823  11.427
67290W        W33699   7.918   5.334  10.699
67291W        W33700   8.317  21.674  14.979
67292W        W33701   7.261  38.071   4.104
67293W        W33702   6.799  10.114  14.051
67294W        W33703  37.967  24.570  13.313
67295W        W33704  12.108  31.583  14.857
67296W        W33705  20.693  13.110   0.809
67297W        W33706  42.040  31.228  10.831
67298W        W33707   1.507  10.838   0.271
67299W        W33708  37.207   4.485  13.594
67300W        W33709  42.045  44.249  10.168
67301W        W33710  22.191   6.223  11.740
67302W        W33711  39.514   3.788  13.155
67303W        W33712  39.414  22.313   3.905
67304W        W33713  44.102  21.251  13.052
67305W        W33714  10.891  26.493  11.492
67306W        W33715   1.451  15.163   2.235
67307W        W33716  10.821  20.922   0.755
67308W        W33717  11.513   9.726   1.874
67309W        W33718  19.271  18.115   1.957
67310W        W33719   2.232  37.975   1.335
67311W        W33720  21.559  22.620   3.131
67312W        W33721   9.088   1.955   4.616
67313W        W33722  36.714  44.356  14.276
67314W        W33723  26.684  18.107  11.531
67315W        W33724  34.992  37.344  11.557
67316W        W33725  24.019   7.582  13.540
67317W        W33726   0.360  38.466   0.694
67318W        W33727  40.826  31.347   0.564
67319W        W33728  16.162  24.065  12.381
67320W        W33729   3.791   7.755  13.314
67321W        W33730  32.680  15.674   1.332
67322W        W33731  11.717  42.116   3.383
67323W        W33732   6.932  22.582   1.708
67324W        W33733   4.490  29.404   3.657
67325W        W33734  12.681   2.921  13.540
67326W        W33735  18.507  35.502   1.534
67327W        W33736   9.192  39.788  13.999
67328W        W33737  18.859  37.623  11.077
67329W        W33738  38.977  18.203  13.942
67330W        W33739   3.269  21.234   4.218
67331W        W33740  20.679  36.500  12.681
67332W        W33741  31.107  36.097  10.696
67333W        W33742  37.567  41.765   4.601
67334W        W33743   4.221  19.334   4.507
67335W        W33744  39.555   9.549   2.117
67336W        W33745  37.377  23.158   3.202
67337W        W33746  43.760  35.320  12.483
67338W        W33747  19.770  29.447   1.243
67339W        W33748  40.081   8.208   1.342
67340W        W33749  14.552  22.566   2.885
67341W        W33750  39.478  20.715  10.192
67342W        W33751  36.386  44.461  13.430
67343W        W33752   5.297   4.992   1.249
67344W        W33753   9.964  33.763   0.699
67345W        W33754  24.611  13.752  13.997
67346W        W33755  30.447  31.569  11.119
67347W        W33756  43.521  16.555   2.272
67348W        W33757  36.320  12.796   2.846
67349W        W33758  12.640  16.528   0.991
67350W        W33759   2.469  18.153   2.260
67351W        W33760  43.453  31.975   3.221
67352W        W33761  31.891  17.355  14.843
67353W        W33762  26.788  10.603   4.999
67354W        W33763   7.764   9.685  13.147
67355W        W33764  38.800   8.598   0.439
67356W        W33765  11.844   3.496  12.148
67357W        W33766  32.344  16.274   3.402
67358W        W33767  36.611   2.050  13.992
67359W        W33768  21.582  32.297   1.472
67360W        W33769  25.227   2.966  14.741
67361W        W33770   0.934  44.089   4.014
67362W        W33771   5.495  21.784   0.588
67363W        W33772  38.941   9.617   0.057
67364W        W33773  36.879  19.603   4.533
67365W        W33774  17.181  27.282  11.490
67366W        W33775  27.676  19.175  12.822
67367W        W33776  44.622   2.916  11.634
67368W        W33777   2.032  41.578   1.224
67369W        W33778  10.055  25.229  10.245
67370W        W33779  40.202  43.785   0.514
67371W        W33780   9.236  12.619   2.047
67372W        W33781  19.515  17.794   2.308
67373W        W33782   9.644  39.374  13.454
67374W        W33783  37.805   8.239   3.311
67375W        W33784  43.484  39.449   2.866
67376W        W33785   8.433  38.644   4.584
67377W        W33786  13.865  40.514  12.688
67378W        W33787  37.536   1.230  11.648
67379W        W33788  16.045  28.906   3.139
67380W        W33789  41.734  43.841  13.850
67381W        W33790  32.454   0.092   0.408
67382W        W33791   9.266  14.258   4.634
67383W        W33792  20.189  24.750   3.190
67384W        W33793  15.775  13.083   5.313
67385W        W33794  34.923  27.882  13.254
67386W        W33795  31.142  30.183  12.123
67387W        W33796  23.265  19.763   3.630
67388W        W33797  36.846  32.525   4.633
67389W        W33798   4.912   1.769   3.522
67390W        W33799  32.944  40.417  11.677
67391W        W33800  32.347  35.625   0.952
67392W        W33801   2.895  15.364  12.159
67393W        W33802  26.745  31.265  13.907
67394W        W33803  41.452  28.915   1.180
67395W        W33804  28.052  28.143   2.344
67396W        W33805   5.803  25.700   2.693
67397W        W33806   4.852  42.123   3.701
67398W        W33807  22.771  26.163   4.647
67399W        W33808  26.049  12.428   4.636
67400W        W33809  43.455  12.822   4.524
67401W        W33810  13.858  22.134   3.072
67402W        W33811   4.025  16.738   3.712
67403W        W33812  13.132  10.260   4.151
67404W        W33813   7.338  17.658  10.708
67405W        W33814  29.704   3.463  12.125
67406W        W33815  42.380  27.122   1.785
67407W        W33816  38.334  32.533  12.061
67408W        W33817   2.512  11.608  14.457
67409W        W33818   4.329  19.295   0.591
67410W        W33819  44.814  40.022   4.831
67411W        W33820  27.845  35.507   3.404
67412W        W33821   6.266  34.561  13.562
67413W        W33822  44.248  43.416   0.751
67414W        W33823  30.566  24.026   0.441
67415W        W33824   3.263  13.168  13.883
67416W        W33825   9.404  17.112   2.395
67417W        W33826  41.312  19.279   0.936
67418W        W33827  43.623   7.610   5.545
67419W        W33828   5.042  10.201   3.347
67420W        W33829  42.298  13.900   2.340
67421W        W33830  12.863  30.014   2.713
67422W        W33831  37.279  34.084  12.527
67423W        W33832  16.067  32.388  14.858
67424W        W33833  20.138   5.648   3.217
67425W        W33834  18.337  39.889  12.330
67426W        W33835   4.084  22.383  13.893
67427W        W33836   9.725  13.121  14.910
67428W        W33837  38.026  15.217   2.096
67429W        W33838  18.935  38.622  14.009
67430W        W33839  16.702  38.151  11.645
67431W        W33840  30.602  30.143   2.123
67432W        W33841  44.315  35.169  14.350
67433W        W33842  38.057   1.048  11.676
67434W        W33843   8.289  26.075   4.171
67435W        W33844  40.240  27.427  14.145
67436W        W33845  20.205   5.272  13.497
67437W        W33846   2.910   4.585  14.513
67438W        W33847  27.317  16.314  11.846
67439W        W33848   8.848  19.971  12.519
67440W        W33849  26.742  28.050   4.691
67441W        W33850  37.831  25.065   3.199
67442W        W33851   8.002  19.028  11.371
67443W        W33852  20.180  37.636   3.148
67444W        W33853  17.334  19.234   2.761
67445W        W33854  21.707  42.335  12.430
67446W        W33855  29.241  13.025  14.489
67447W        W33856  44.760  31.905  12.403
67448W        W33857  23.586  36.434  10.892
67449W        W33858  15.694  27.510  12.298
67450W        W33859   3.631  36.428  13.028
67451W        W33860   6.825  23.656   5.431
67452W        W33861  42.166  30.899  14.474
67453W        W33862  40.561  21.192   4.563
67454W        W33863  22.673   4.201   0.828
67455W        W33864  44.956   1.425  14.445
67456W        W33865  22.459  33.823  13.786
67457W        W33866  29.731   6.763  11.604
67458W        W33867  18.826   6.461   1.643
67459W        W33868  19.732  31.389   2.452
67460W        W33869   9.874  44.449   0.485
67461W        W33870   8.651  25.084  13.052
67462W        W33871  41.884  16.557   2.277
67463W        W33872  23.218  35.096  11.611
67464W        W33873   1.950  11.576  13.815
67465W        W33874  18.094   3.990  13.347
67466W        W33875  38.928   8.845   3.565
67467W        W33876  21.085  23.898  12.895
67468W        W33877  19.498  25.599   1.806
67469W        W33878  32.316  24.831  11.676
67470W        W33879   6.211  44.784  12.004
67471W        W33880  42.527  43.069  12.110
67472W        W33881  25.453   1.493   3.207
67473W        W33882  22.227  13.130   4.540
67474W        W33883  27.233  28.075   0.428
67475W        W33884  37.832  29.956  11.160
67476W        W33885  44.792  26.181   3.219
67477W        W33886  32.473  42.343  11.024
67478W        W33887   5.206  40.838  10.775
67479W        W33888  15.714  13.597   3.286
67480W        W33889  10.608  30.847   1.306
67481W        W33890  31.236  38.571  13.350
67482W        W33891  32.563  40.303   2.612
67483W        W33892  40.877  39.276   5.007
67484W        W33893   7.556  22.833   0.886
67485W        W33894  15.353  18.145   2.733
67486W        W33895   7.838  26.403  11.581
67487W        W33896   9.467  38.861  13.467
67488W        W33897   1.347  31.358   0.658
67489W        W33898  15.538  15.059  13.308
67490W        W33899   7.261  39.441   3.618
67491W        W33900  43.396  43.914   2.846
67492W        W33901   2.728  24.020  11.000
67493W        W33902  39.465  22.226   2.212
67494W        W33903  39.474  10.593   3.567
67495W        W33904  44.398   9.653   3.144
67496W        W33905  40.292  21.081   0.886
67497W        W33906   3.679  25.814   0.585
67498W        W33907  28.610  14.206   5.002
67499W        W33908  43.381  17.052  14.825
67500W        W33909  42.106  15.241   4.570
67501W        W33910   3.505  41.343   0.377
67502W        W33911  22.974   1.914   3.869
67503W        W33912  24.081  25.143   0.337
67504W        W33913  29.573  10.254   2.045
67505W        W33914  34.619   9.878   0.981
67506W        W33915  26.578  20.780   0.818
67507W        W33916  42.239   7.817  12.439
67508W        W33917  11.597  30.416   3.671
67509W        W33918  41.904  31.028   0.903
67510W        W33919  23.155  37.646  10.475
67511W        W33920  35.940  24.663  11.022
67512W        W33921  25.111  10.617  14.310
67513W        W33922   2.642  27.845   2.746
67514W        W33923  27.621   6.364   0.426
67515W        W33924  19.667  23.192  10.628
67516W        W33925  22.732  19.634   1.868
67517W        W33926  33.522  28.719   3.559
67518W        W33927  23.189  12.837  11.560
67519W        W33928  13.598  13.130   1.304
67520W        W33929  15.390  27.048  13.005
67521W        W33930  18.161  11.361   3.254
67522W        W33931  19.937  11.711   1.300
67523W        W33932  24.948  31.332   1.830
67524W        W33933  19.730  11.792   5.035
67525W        W33934  44.948  10.976  10.811
67526W        W33935  30.628  29.711  14.061
67527W        W33936  26.979  43.800  11.566
67528W        W33937  38.729  39.370   4.024
67529W        W33938  12.350   4.143   3.041
67530W        W33939  30.054  22.783   3.200
67531W        W33940  41.207  41.909   3.344
67532W        W33941  17.268  27.998   4.991
67533W        W33942  15.050  25.727  13.806
67534W        W33943  30.874  10.217  12.063
67535W        W33944  34.454  11.879   0.718
67536W        W33945  22.725  20.294  11.280
67537W        W33946  30.036   2.640   5.016
67538W        W33947  25.428  21.168   1.203
67539W        W33948  31.980  20.984  12.559
67540W        W33949  40.820  32.037  14.543
67541W        W33950  39.575  13.644  13.000
67542W        W33951  32.886   6.503   1.319
67543W        W33952   0.931  17.540   4.179
67544W        W33953   0.883  13.844   4.582
67545W        W33954   7.906  10.872  10.473
67546W        W33955  27.541  11.912   3.354
67547W        W33956  29.675   5.182   4.068
67548W        W33957  44.509   2.315   2.371
67549W        W33958  37.827  34.043   0.236
67550W        W33959  42.333  27.425   1.024
67551W        W33960  11.100  35.136   0.486
67552W        W33961  16.260   2.975  10.957
67553W        W33962  24.105  35.542  12.075
67554W        W33963  40.826  23.545   4.286
67555W        W33964  14.586  37.351   3.221
67556W        W33965   6.408  30.488   2.715
67557W        W33966  36.879  39.278  11.704
67558W        W33967  26.970  19.123   0.185
67559W        W33968  26.563  14.355  14.824
67560W        W33969  16.165  18.171   4.810
67561W        W33970  31.379   4.987  13.772
67562W        W33971  17.543  44.179  14.837
67563W        W33972   3.378  23.189  14.280
67564W        W33973  37.012  10.186   1.841
67565W        W33974  39.822  11.706  10.348
67566W        W33975  20.058  26.450   3.294
67567W        W33976  26.291  36.499   3.856
67568W        W33977  41.443  21.154   2.930
67569W        W33978  25.621  28.363   0.691
67570W        W33979  23.561  13.094   0.435
67571W        W33980   5.102  31.220  13.131
67572W        W33981   6.067   3.476  11.398
67573W        W33982  11.828  18.107  10.339
67574W        W33983   5.898   8.698   0.289
67575W        W33984   8.153  22.398  12.824
67576W        W33985  40.321  35.614   2.954
67577W        W33986  17.255  20.800   2.668
67578W        W33987  12.272  18.290  10.589
67579W        W33988  20.828   5.873  11.009
67580W        W33989   5.111  35.953   0.395
67581W        W33990  14.978  33.149   1.444
67582W        W33991  39.093  24.882   5.015
67583W        W33992  21.103  37.667  10.670
67584W        W33993  34.623   4.777  13.583
67585W        W33994  15.138   0.826  10.491
67586W        W33995  39.291  40.580   1.446
67587W        W33996  41.678  20.233  11.594
67588W        W33997  39.740  33.058  10.803
67589W        W33998   7.396  26.060   4.268
67590W        W33999  18.662  37.787   1.246
67591W        W34000  21.812  39.863  10.883
67592W        W34001  12.256  11.628  14.859
67593W        W34002   8.716   2.465  12.929
67594W        W34003  43.930  31.623   4.110
67595W        W34004  23.527  22.122   3.504
67596W        W34005  19.605  13.185   3.099
67597W        W34006  18.557  16.107  13.398
67598W        W34007  37.919  21.313   1.025
67599W        W34008  13.708   4.890   2.200
67600W        W34009  32.876   5.269  12.961
67601W        W34010  25.814  11.780  14.367
67602W        W34011   9.725  26.929   1.038
67603W        W34012  39.603   1.307   1.434
67604W        W34013  19.266  31.641  11.584
67605W        W34014  20.252  44.836   2.422
67606W        W34015  43.275  44.346  14.427
67607W        W34016  35.141  35.905  11.613
67608W        W34017  37.033  38.012  13.570
67609W        W34018  24.615  28.552  12.865
67610W        W34019   4.009  18.503   4.065
67611W        W34020  40.405  26.490   3.705
67612W        W34021  38.655  37.313   3.248
67613W        W34022  25.624  28.716   2.020
67614W        W34023  25.133   5.930   2.768
67615W        W34024  42.399  41.471   4.572
67616W        W34025  13.394  41.219  13.656
67617W        W34026  31.418   1.133  10.150
67618W        W34027  29.049  31.580   4.170
67619W        W34028  26.614   3.085   1.249
67620W        W34029  35.882  28.993   2.147
67621W        W34030  34.109  35.425   2.455
67622W        W34031  42.881  37.807   0.871
67623W        W34032   1.328  25.947   2.562
67624W        W34033   0.775  15.019   2.678
67625W        W34034  11.649  31.099   2.802
67626W        W34035   6.655  26.111  11.202
67627W        W34036  21.891  24.200   0.386
67628W        W34037  32.438  28.743   4.227
67629W        W34038  39.944  33.936  14.260
67630W        W34039  24.099  22.615   2.257
67631W        W34040  11.119  11.124   2.671
67632W        W34041  40.493  28.706  13.590
67633W        W34042  37.096  13.112  13.874
67634W        W34043  16.211   9.914   1.822
67635W        W34044   8.353  19.274  14.425
67636W        W34045  10.778  44.761   4.204
67637W        W34046  22.670  33.538  14.358
67638W        W34047  24.809   7.347  14.138
67639W        W34048  39.699  14.362  11.341
67640W        W34049  21.062  41.253   1.629
67641W        W34050  37.009  31.125  13.532
67642W        W34051  20.784  16.830  10.758
67643W        W34052  10.190  43.784  11.177
67644W        W34053  28.498  19.319   4.601
67645W        W34054  26.126  22.244   0.785
67646W        W34055  20.208  38.502   0.017
67647W        W34056  31.918  15.143   2.242
67648W        W34057   5.720  21.470  11.811
67649W        W34058  17.310  18.924  12.924
67650W        W34059  14.027  16.395   0.836
67651W        W34060  33.461  34.767  12.102
67652W        W34061  44.868   2.824   4.059
67653W        W34062  44.263  14.901  11.107
67654W        W34063   9.950  12.534  11.809
67655W        W34064  20.959  15.841   3.975
67656W        W34065  23.316  38.841  11.948
67657W        W34066  21.900   0.943  14.753
67658W        W34067  27.343  37.430  10.734
67659W        W34068  32.839  10.593  13.446
67660W        W34069  36.484  41.738  13.736
67661W        W34070  15.665  29.974   1.705
67662W        W34071   5.769  40.735  10.846
67663W        W34072  12.709  11.291   4.209
67664W        W34073   3.267  38.249   2.326
67665W        W34074  26.673  16.276   3.733
67666W        W34075  13.888   4.825  10.595
67667W        W34076  43.788   6.206  11.473
67668W        W34077  20.284  42.547  11.530
67669W        W34078  33.077  38.246  11.357
67670W        W34079  32.597   3.069  12.079
67671W        W34080   8.746   8.590   1.717
67672W        W34081  29.108  15.630   4.711
67673W        W34082  15.527  11.640   2.805
67674W        W34083   1.721  11.322   0.468
67675W        W34084  38.850  42.982   3.328
67676W        W34085  14.650  24.416   4.999
67677W        W34086  15.638  28.865   0.953
67678W        W34087   1.948  31.403  12.071
67679W        W34088  26.484  43.315  12.620
67680W        W34089  36.122  42.286  10.781
67681W        W34090   2.865  18.017   1.863
67682W        W34091  22.499  39.032  12.469
67683W        W34092  16.297  23.193  11.876
67684W        W34093  20.016  35.476   3.842
67685W        W34094  44.511  35.570   1.737
67686W        W34095   9.775  10.753  10.679
67687W        W34096  31.317  16.294  13.437
67688W        W34097  31.023  20.050  10.331
67689W        W34098  12.179  22.119  13.264
67690W        W34099  44.532   8.382   2.854
67691W        W34100  40.535  38.669   2.460
67692W        W34101  16.547  18.805  14.581
67693W        W34102  44.810  17.184  11.875
67694W        W34103  14.276   2.928  10.933
67695W        W34104   2.989  29.738   3.998
67696W        W34105  24.510  28.554   3.828
67697W        W34106  31.869   2.670  14.818
67698W        W34107  17.817  14.273  14.964
67699W        W34108  31.929  26.348  10.151
67700W        W34109  21.047   6.614  11.950
67701W        W34110  32.122   0.255   3.298
67702W        W34111  21.950  26.682  14.877
67703W        W34112  30.444   4.916  13.559
67704W        W34113  39.284  21.319  11.824
67705W        W34114   7.338   4.169  13.030
67706W        W34115  40.022  10.625   2.008
67707W        W34116  36.000  19.669   4.727
67708W        W34117  29.134  32.053  14.036
67709W        W34118  14.766   8.521  14.705
67710W        W34119  18.690  21.960  12.034
67711W        W34120  22.631  28.170  12.367
67712W        W34121  21.379  35.699   3.000
67713W        W34122  41.314  37.066  13.020
67714W        W34123  41.569  11.658  14.758
67715W        W34124  11.622   8.383  11.478
67716W        W34125   7.184  27.265  11.064
67717W        W34126  15.788   4.427   3.949
67718W        W34127  30.941  17.012   1.234
67719W        W34128  16.415  17.524   4.565
67720W        W34129   5.776  42.077  11.713
67721W        W34130  26.994  41.387   0.348
67722W        W34131   1.037  19.681  10.387
67723W        W34132  38.844  23.417  11.747
67724W        W34133  22.046   5.543  14.457
67725W        W34134  16.142  39.059   3.217
67726W        W34135  38.891   0.021  13.414
67727W        W34136   9.311  37.215  12.402
67728W        W34137  24.930  14.570   4.667
67729W        W34138  22.565  22.978   3.422
67730W        W34139  29.379  22.463   5.081
67731W        W34140   5.003  44.089  11.579
67732W        W34141  21.075  11.570  14.030
67733W        W34142  42.504  31.945  10.530
67734W        W34143  29.480  34.298  13.525
67735W        W34144  31.468   5.828  13.732
67736W        W34145  36.064  32.452  14.341
67737W        W34146  14.253  23.007   2.389
67738W        W34147   0.866  30.860   4.945
67739W        W34148   6.695   4.769   1.840
67740W        W34149  34.857  14.192   0.760
67741W        W34150  25.646   0.078   0.266
67742W        W34151  12.371  43.912  10.727
67743W        W34152  30.428  17.874  13.013
67744W        W34153  41.813  40.902   4.134
67745W        W34154  31.143  24.855  11.969
67746W        W34155  13.382  42.334   4.501
67747W        W34156  14.284  31.166  14.585
67748W        W34157  25.930  21.102  11.669
67749W        W34158  44.895  16.566   0.727
67750W        W34159  13.945   4.873   0.352
67751W        W34160   2.515  25.959   1.460
67752W        W34161  39.138  25.769  12.019
67753W        W34162  24.977  18.785   1.361
67754W        W34163  10.859  43.831   0.382
67755W        W34164  33.713  29.066   4.613
67756W        W34165  24.155  31.711   3.795
67757W        W34166   5.239  31.000   4.238
67758W        W34167  36.221  13.673  11.824
67759W        W34168   5.672  29.923  12.977
67760W        W34169  42.295  21.254   1.786
67761W        W34170  17.506   8.336   1.584
67762W        W34171  41.395  19.854  11.132
67763W        W34172  34.535  30.865   3.823
67764W        W34173  24.472  37.083   0.475
67765W        W34174  33.194  10.820   2.351
67766W        W34175   1.263  38.589  12.169
67767W        W34176  24.645  35.068   0.002
67768W        W34177  20.582  28.495  14.338
67769W        W34178  34.433  21.665  13.487
67770W        W34179  23.067  17.102   2.203
67771W        W34180   4.727   0.460  13.320
67772W        W34181  23.659  28.103  14.463
67773W        W34182  27.462  34.593  13.447
67774W        W34183  24.431   0.768   2.793
67775W        W34184   5.352  42.916   3.749
67776W        W34185  38.817  22.609   2.611
67777W        W34186  10.998  17.690  11.750
67778W        W34187  28.056   2.645   2.482
67779W        W34188  38.870  33.748   4.047
67780W        W34189   4.219   8.798   0.015
67781W        W34190  11.825  14.354  11.651
67782W        W34191  34.444   2.240   1.729
67783W        W34192  38.005  13.635   4.747
67784W        W34193  25.783   1.224  10.697
67785W        W34194  43.385  28.973  11.020
67786W        W34195  32.583  23.075  10.438
67787W        W34196   4.337  15.559   0.320
67788W        W34197  10.729   2.922   2.473
67789W        W34198  11.846   4.337   1.359
67790W        W34199  24.755  21.016  13.061
67791W        W34200   9.139  27.091  10.743
67792W        W34201  29.026  27.562   4.126
67793W        W34202  39.083  35.223  13.572
67794W        W34203  40.443   7.479  10.466
67795W        W34204  25.525   2.758   2.857
67796W        W34205  25.678  27.055  11.964
67797W        W34206  26.490  18.177   4.477
67798W        W34207  27.272  14.231   5.154
67799W        W34208   3.961  36.988   4.478
67800W        W34209  34.903  21.189   4.199
67801W        W34210  25.141  37.554   1.361
67802W        W34211  33.362  37.206  14.356
67803W        W34212   4.537  11.210   1.335
67804W        W34213  31.873  24.926   4.830
67805W        W34214   6.697   0.833  12.596
67806W        W34215   3.924   2.270  11.557
67807W        W34216  24.700   7.897  13.957
67808W        W34217  43.754  43.327   2.234
67809W        W34218  27.598   8.616   1.805
67810W        W34219   3.857  16.008  10.789
67811W        W34220  32.861  41.803  13.027
67812W        W34221  18.217  34.133   3.603
67813W        W34222  38.968  44.232   4.140
67814W        W34223  19.821  23.916  11.720
67815W        W34224   6.183   7.386   2.635
67816W        W34225   2.176   6.824  14.299
67817W        W34226  38.093  23.138  14.281
67818W        W34227  22.616  17.145   4.505
67819W        W34228  14.878  37.696  12.075
67820W        W34229  26.092   0.141  11.141
67821W        W34230  41.645  41.290  14.515
67822W        W34231  39.922   0.647  12.921
67823W        W34232   9.159  25.018  13.971
67824W        W34233  35.960   9.663   2.740
67825W        W34234  15.838   7.386  10.443
67826W        W34235  35.068  26.160   4.026
67827W        W34236  19.289  21.396   1.641
67828W        W34237  29.942  22.170   4.041
67829W        W34238  44.155  43.731   2.366
67830W        W34239  11.477  35.818  12.387
67831W        W34240  18.320  15.058   3.172
67832W        W34241  43.727  25.559  13.941
67833W        W34242   8.204  30.917   4.485
67834W        W34243   5.287   9.895  12.983
67835W        W34244  14.312  17.281   1.714
67836W        W34245   4.314  16.330  14.932
67837W        W34246  24.127  12.862   4.569
67838W        W34247  14.709  24.436  10.973
67839W        W34248  39.593   9.407  13.458
67840W        W34249   3.000  31.079   3.820
67841W        W34250   4.640   7.695  14.728
67842W        W34251   5.897  26.223  13.831
67843W        W34252  32.597   1.319  13.427
67844W        W34253  22.561   7.193   4.613
67845W        W34254  12.653  38.901   2.390
67846W        W34255  26.967  10.288   4.622
67847W        W34256  27.389  43.482  11.482
67848W        W34257  18.377  11.548  11.744
67849W        W34258   9.063  23.222   1.425
67850W        W34259  17.916  20.723  11.933
67851W        W34260   3.996   0.523   0.216
67852W        W34261  33.894  31.991  14.713
67853W        W34262  24.241  10.475   2.439
67854W        W34263  24.705  25.764   0.009
67855W        W34264  30.044   2.207   4.114
67856W        W34265   0.678  16.331  13.816
67857W        W34266  39.523  31.821  13.104
67858W        W34267  42.946  28.647   4.875
67859W        W34268  22.900  35.381   2.268
67860W        W34269  40.841  37.463  13.857
67861W        W34270   0.242  16.037   4.156
67862W        W34271  33.139  25.065   4.686
67863W        W34272  34.282  38.816  14.831
67864W        W34273  11.205  30.421   4.110
67865W        W34274  27.125  20.765  13.388
67866W        W34275  43.219  43.243  12.012
67867W        W34276  26.411  14.141   0.304
67868W        W34277  19.027  28.632  10.918
67869W        W34278  13.138  41.512   0.151
67870W        W34279  23.779  38.162  11.133
67871W        W34280  16.802  20.059  11.108
67872W        W34281  11.419  15.095   1.577
67873W        W34282  17.715  15.345   2.863
67874W        W34283  26.965  12.636   3.295
67875W        W34284  10.054   3.017   4.537
67876W        W34285   1.798   5.353  11.688
67877W        W34286   1.221  19.486  12.548
67878W        W34287  43.895  15.199   4.394
67879W        W34288   8.215  39.978   2.864
67880W        W34289   4.676   7.670  12.397
67881W        W34290  16.664   3.912  11.235
67882W        W34291  22.587  12.357   1.149
67883W        W34292   2.316  31.585   4.232
67884W        W34293  30.481  28.183   1.784
67885W        W34294  31.381  29.246   3.306
67886W        W34295  19.563   1.410   0.945
67887W        W34296  33.924  28.422  10.567
67888W        W34297  39.541  25.891   3.942
67889W        W34298   9.895  37.037  13.014
67890W        W34299  33.139  13.525  14.373
67891W        W34300   6.460  15.685  14.415
67892W        W34301  44.339  21.731  14.342
67893W        W34302  12.397   3.478  10.503
67894W        W34303  44.675  16.339  11.261
67895W        W34304  36.447  35.773  14.521
67896W        W34305  25.342   0.044   4.529
67897W        W34306  42.324   8.395  11.870
67898W        W34307  42.969   2.263   2.865
67899W        W34308  17.809  17.794   2.171
67900W        W34309  30.992  12.898  10.796
67901W        W34310  44.625  19.652   2.977
67902W        W34311  38.928   0.226  12.935
67903W        W34312  26.206  24.492  11.060
67904W        W34313  32.110  34.143  15.000
67905W        W34314  29.593  22.650   0.484
67906W        W34315   6.238   6.440   0.043
67907W        W34316  28.126  31.449   0.783
67908W        W34317  33.086  30.590  12.037
67909W        W34318  26.407  22.464  13.897
67910W        W34319  25.142  43.788   2.145
67911W        W34320  24.976   4.703   1.716
67912W        W34321  39.540  26.695   0.670
67913W        W34322  36.374   2.775   2.389
67914W        W34323  11.128  38.233  11.947
67915W        W34324  34.140   5.053  12.131
67916W        W34325   1.544  14.839  12.858
67917W        W34326   6.057  26.410   0.697
67918W        W34327   7.129   1.314   2.288
67919W        W34328  31.694  36.170  10.131
67920W        W34329  39.462  24.674   4.276
67921W        W34330  10.318   9.191   5.256
67922W        W34331  23.237   7.764   3.093
67923W        W34332  11.816   1.751   1.760
67924W        W34333  42.984  14.228  12.880
67925W        W34334   5.977  16.896   0.739
67926W        W34335  13.274  15.781   4.740
67927W        W34336   3.003  34.394  14.644
67928W        W34337  29.542  31.994   0.793
67929W        W34338  12.592  25.019  13.072
67930W        W34339   5.123  21.644  14.192
67931W        W34340   7.376  12.814  13.586
67932W        W34341  18.467  24.690   2.197
67933W        W34342   5.955   8.007   1.384
67934W        W34343   6.284  23.623  13.344
67935W        W34344   4.539  16.618  11.682
67936W        W34345   3.916  29.996   2.191
67937W        W34346  18.257   3.756  14.334
67938W        W34347  27.028  35.073  13.404
67939W        W34348  30.097  29.661  11.042
67940W        W34349  33.006  28.266  13.197
67941W        W34350  24.462   2.745  12.878
67942W        W34351  36.927   0.204  13.982
67943W        W34352  43.750  11.380  14.762
67944W        W34353  21.674  26.678   9.941
67945W        W34354  12.599  23.171  13.479
67946W        W34355  36.814  33.872  13.030
67947W        W34356  10.300  12.537  13.572
67948W        W34357  39.828  39.368   3.381
67949W        W34358  35.549   8.119  13.898
67950W        W34359  35.748   1.157   1.665
67951W        W34360  27.520  21.564   1.240
67952W        W34361   4.302   6.256   0.468
67953W        W34362   2.458  35.989   0.342
67954W        W34363  39.624  11.859   1.658
67955W        W34364  23.286  41.274  14.318
67956W        W34365  23.103  12.254   1.257
67957W        W34366  22.550  20.117  10.808
67958W        W34367  42.444  13.645  14.861
67959W        W34368   5.336  33.845  10.794
67960W        W34369  41.015  20.540  11.022
67961W        W34370  17.150  27.007   3.582
67962W        W34371  25.473  29.602   3.361
67963W        W34372  41.412   3.452  13.817
67964W        W34373   9.336   9.691  12.524
67965W        W34374  32.923  40.366   1.231
67966W        W34375  12.176  15.552   2.836
67967W        W34376  11.674  15.447  13.996
67968W        W34377  26.279  12.081   0.904
67969W        W34378  41.180  29.015   4.676
67970W        W34379  41.952  33.770  12.968
67971W        W34380  10.678  16.214  11.734
67972W        W34381  28.987  21.085   4.301
67973W        W34382   8.373   7.830  11.112
67974W        W34383   8.182  35.711   3.232
67975W        W34384  33.530  27.473  13.107
67976W        W34385  19.609  20.364   5.306
67977W        W34386  29.462  21.842   3.015
67978W        W34387  15.815  39.099   4.307
67979W        W34388  39.779  24.616   2.444
67980W        W34389  22.450   9.843   2.329
67981W        W34390   8.490  11.386  14.499
67982W        W34391  10.965  20.580  14.440
67983W        W34392  31.271  19.000  13.051
67984W        W34393  28.115  41.325   0.285
67985W        W34394  17.616  12.799  10.725
67986W        W34395   0.136  37.131   4.378
67987W        W34396  14.855  38.388   3.129
67988W        W34397  23.686  13.380   1.829
67989W        W34398  36.369   5.904   3.725
67990W        W34399  10.809  19.897   1.649
67991W        W34400  30.770   7.535   4.134
67992W        W34401  23.927  26.958  13.431
67993W        W34402  28.046   3.172   1.364
67994W        W34403   1.092  25.514  13.556
67995W        W34404   0.096  29.009   4.503
67996W        W34405  26.495  36.144  13.875
67997W        W34406  27.008  21.192   2.304
67998W        W34407  36.333   8.733   1.483
67999W        W34408  36.053  32.612  12.028
68000W        W34409  22.329  33.489   0.312
68001W        W34410  14.672   2.238  11.999
68002W        W34411  39.772  18.396  12.214
68003W        W34412  35.133  16.027   2.577
68004W        W34413   9.333  25.394  12.967
68005W        W34414  13.085  36.184   4.397
68006W        W34415  25.443  26.994   3.261
68007W        W34416  25.516   3.864   3.578
68008W        W34417  25.724  18.794  14.442
68009W        W34418  36.889   7.342  11.306
68010W        W34419  19.104  35.394  11.523
68011W        W34420  18.301  29.785   3.096
68012W        W34421   6.873  12.469  14.418
68013W        W34422  32.458  36.814   2.228
68014W        W34423   2.089  12.581  12.531
68015W        W34424  32.337  42.278   4.231
68016W        W34425  22.029  20.925  13.971
68017W        W34426  25.183  43.840   0.344
68018W        W34427  40.135  35.575   1.042
68019W        W34428  34.365  16.330  14.235
68020W        W34429  39.526  42.180   3.767
68021W        W34430  35.698   0.597  11.978
68022W        W34431  20.223   4.718   0.956
68023W        W34432  29.218  44.274  10.728
68024W        W34433   3.854   0.998  13.976
68025W        W34434  29.603   6.703  14.266
68026W        W34435  23.761  33.087   2.899
68027W        W34436  37.350  42.740   1.716
68028W        W34437  13.908  15.061   2.308
68029W        W34438   3.704  16.793   4.805
68030W        W34439  37.050  43.019   3.113
68031W        W34440   2.292  18.594  14.074
68032W        W34441   7.447  20.188   4.151
68033W        W34442  13.139  35.333   2.242
68034W        W34443  17.231   6.989   1.035
68035W        W34444   4.896   5.361  14.409
68036W        W34445  10.078  21.466  14.830
68037W        W34446  33.695   2.962  13.865
68038W        W34447  38.221  44.717  13.435
68039W        W34448  38.879  22.734   4.804
68040W        W34449  19.769  44.927  10.665
68041W        W34450  41.353  35.527  12.128
68042W        W34451  21.653   2.222  14.084
68043W        W34452  18.144  11.239   3.740
68044W        W34453  13.030  21.626   3.579
68045W        W34454   5.195  17.170  12.086
68046W        W34455  19.238  30.638  14.302
68047W        W34456  28.660  17.307   3.734
68048W        W34457  28.025  22.678   4.273
68049W        W34458  19.709  26.695   2.415
68050W        W34459  36.334  33.535  10.439
68051W        W34460  14.128  28.257   2.069
68052W        W34461  20.580  34.692   4.084
68053W        W34462   5.779  41.454   3.862
68054W        W34463   8.055  29.999   1.225
68055W        W34464   3.193  29.857  12.719
68056W        W34465  16.561  42.552   0.382
68057W        W34466   6.589  23.671   4.973
68058W        W34467  19.662   3.127  10.353
68059W        W34468  10.572  22.652   3.638
68060W        W34469  34.162  15.947  13.932
68061W        W34470  20.418   8.440   4.314
68062W        W34471  41.709  13.113   1.372
68063W        W34472   1.918   1.338   3.364
68064W        W34473  16.468  19.640  10.640
68065W        W34474  33.413  38.942  13.420
68066W        W34475   7.071  12.099  10.533
68067W        W34476  20.819  30.886   4.355
68068W        W34477  39.121  25.467   0.422
68069W        W34478  18.565  37.291   4.558
68070W        W34479  20.256   1.914   0.549
68071W        W34480  41.536  22.552   2.842
68072W        W34481  30.431  39.870  13.313
68073W        W34482  23.093   5.365   0.654
68074W        W34483  34.860  34.954  13.758
68075W        W34484  32.799  15.349   5.279
68076W        W34485  11.403  30.752  11.590
68077W        W34486   1.668  11.290  11.629
68078W        W34487  20.255  28.593   2.118
68079W        W34488  11.236   1.876  13.593
68080W        W34489   4.291  31.079   0.943
68081W        W34490  16.604  30.904  12.822
68082W        W34491  16.238  25.823   2.239
68083W        W34492  34.579   9.353  14.817
68084W        W34493   0.478  30.183   3.531
68085W        W34494  17.301   7.003   3.158
68086W        W34495   5.734   5.749  14.130
68087W        W34496  37.534  40.652  12.125
68088W        W34497  23.296  17.772  13.966
68089W        W34498  19.489  11.047   1.337
68090W        W34499  19.834  14.783   3.392
68091W        W34500  27.059  16.582  12.652
68092W        W34501  18.600  23.166  12.585
68093W        W34502  36.253  40.456  11.240
68094W        W34503  35.623  15.598   4.108
68095W        W34504  10.603  19.768  14.812
68096W        W34505  16.845   3.378  10.644
68097W        W34506  38.461  29.897  12.283
68098W        W34507  15.638  40.188  11.445
68099W        W34508   7.392   2.277  13.462
68100W        W34509  10.688  15.367  14.843
68101W        W34510  19.584  31.408   0.239
68102W        W34511  21.237  26.226   0.080
68103W        W34512  23.512  31.561  13.616
68104W        W34513   0.407  20.897  12.849
68105W        W34514  20.008  13.451   3.274
68106W        W34515  14.062   7.109   3.118
68107W        W34516   4.171  44.486   0.233
68108W        W34517  16.256  37.952   2.373
68109W        W34518  10.261  40.455   1.297
68110W        W34519  14.331  24.738  11.126
68111W        W34520   1.586  34.303   2.752
68112W        W34521  11.723  23.498  11.570
68113W        W34522  39.283  14.853   4.421
68114W        W34523   1.109  34.861   4.083
68115W        W34524  20.546  22.077  13.138
68116W        W34525  32.016  14.078  11.373
68117W        W34526  37.748  31.300   4.061
68118W        W34527   3.238  30.067  13.190
68119W        W34528   7.830  23.874   3.509
68120W        W34529  18.145  27.667   4.133
68121W        W34530   2.384  30.213   4.611
68122W        W34531  36.930   4.784   3.586
68123W        W34532  24.428  22.280   3.591
68124W        W34533  23.039  24.464  13.263
68125W        W34534  16.839  27.157  11.955
68126W        W34535   4.632   8.309   0.738
68127W        W34536  23.941  27.566  12.820
68128W        W34537  10.365   2.042  14.647
68129W        W34538   8.510  11.411   4.927
68130W        W34539  38.126  29.932  14.146
68131W        W34540   6.664  27.012  10.337
68132W        W34541  27.543  17.370   3.673
68133W        W34542  26.106  19.660   1.043
68134W        W34543  34.826  21.515   3.543
68135W        W34544  14.958  33.214   5.008
68136W        W34545  30.075   6.815   3.392
68137W        W34546  28.651  38.830  10.711
68138W        W34547  22.510  44.004   4.395
68139W        W34548  41.375   4.832   2.831
68140W        W34549   4.184   5.961   3.176
68141W        W34550  21.097  44.983  10.944
68142W        W34551  20.687   3.809   3.353
68143W        W34552  29.122  21.975  12.530
68144W        W34553   6.231  33.868  13.875
68145W        W34554  25.126  31.690  11.529
68146W        W34555  13.747  11.929  12.217
68147W        W34556  24.432  17.796   4.225
68148W        W34557  15.038  27.950   4.779
68149W        W34558  10.320  38.044   3.739
68150W        W34559  25.128  42.441  13.423
68151W        W34560  32.185   7.885   1.452
68152W        W34561  28.615   9.757  13.176
68153W        W34562  22.329   0.417   1.750
68154W        W34563  20.118  40.773   3.728
68155W        W34564  25.959  20.231   4.260
68156W        W34565  20.373  32.604   0.266
68157W        W34566  43.902  12.350   2.161
68158W        W34567  37.027   7.371  13.101
68159W        W34568  26.586  35.045   3.272
68160W        W34569  33.106  40.191   4.839
68161W        W34570  38.579  27.875   0.854
68162W        W34571  14.802  33.639   0.342
68163W        W34572  36.892   2.357   1.331
68164W        W34573   4.286  27.246  13.315
68165W        W34574   2.453   4.828   0.484
68166W        W34575  21.167   4.141   2.089
68167W        W34576  44.737  16.848   3.255
68168W        W34577  44.500  11.820   4.201
68169W        W34578  30.117  20.129   2.315
68170W        W34579   0.886  16.083  11.498
68171W        W34580  28.963   8.927   2.237
68172W        W34581  25.963  24.893  11.593
68173W        W34582  39.296  30.591   0.480
68174W        W34583  15.505   2.998   1.214
68175W        W34584  29.366  25.411   3.266
68176W        W34585  15.368  16.187  11.094
68177W        W34586  26.963  33.124  13.430
68178W        W34587  30.724  23.159   4.145
68179W        W34588   9.610   9.825   4.348
68180W        W34589   5.014  18.267  14.121
68181W        W34590  35.581  13.981   3.801
68182W        W34591  12.116  36.603   1.747
68183W        W34592  11.623  24.432   2.975
68184W        W34593  42.902  30.108  12.111
68185W        W34594   5.334  15.581  12.077
68186W        W34595  12.056  35.618  11.168
68187W        W34596  22.262  12.774   1.249
68188W        W34597  16.202  43.409   4.616
68189W        W34598  12.302  18.675   3.149
68190W        W34599  14.060  14.845  12.000
68191W        W34600   7.542  41.782   3.247
68192W        W34601  16.955  17.731   0.412
68193W        W34602   2.373  12.319  11.150
68194W        W34603  43.273  22.211  12.546
68195W        W34604  35.923  40.611  10.874
68196W        W34605  38.996   6.081   4.628
68197W        W34606   0.345  16.353  12.451
68198W        W34607   2.952  14.608  14.809
68199W        W34608  28.459  18.817  10.978
68200W        W34609  21.646  32.076   4.472
68201W        W34610  33.596  39.419   0.218
68202W        W34611  39.430  11.183  14.455
68203W        W34612  41.450   6.220  11.953
68204W        W34613  25.573  42.376   0.433
68205W        W34614  39.558   7.289   3.142
68206W        W34615  43.985  21.763  14.911
68207W        W34616  43.576  14.231   1.846
68208W        W34617   2.404   4.631  11.506
68209W        W34618  18.608  20.120   0.176
68210W        W34619   5.213   0.037   1.776
68211W        W34620  33.996  36.559  11.983
68212W        W34621  16.023  35.613  13.861
68213W        W34622  43.436  39.431  10.567
68214W        W34623  26.639  13.189  10.780
68215W        W34624  22.292  21.018   2.654
68216W        W34625  38.877  12.656  14.095
68217W        W34626   4.514  16.987   1.791
68218W        W34627  28.292  34.624   1.457
68219W        W34628  25.028  15.582   0.368
68220W        W34629  30.271   8.684   5.421
68221W        W34630  37.598  43.721   2.621
68222W        W34631  39.645   2.884   5.027
68223W        W34632  26.473  27.662   3.437
68224W        W34633  11.182  44.504  14.977
68225W        W34634  10.789  42.390  12.432
68226W        W34635  22.897  30.542  11.166
68227W        W34636  24.057  12.656   0.951
68228W        W34637  16.766  10.698  13.261
68229W        W34638  21.137   4.269  11.998
68230W        W34639  39.927  33.208   4.219
68231W        W34640  41.014  28.998   4.125
68232W        W34641   4.319  25.908   4.603
68233W        W34642  18.358  36.194   1.299
68234W        W34643  15.826  44.137   2.625
68235W        W34644   1.363  18.779  12.959
68236W        W34645  16.550  21.145   3.737
68237W        W34646   1.443  12.657   3.238
68238W        W34647  43.261   1.832  11.007
68239W        W34648  27.605  31.021  13.979
68240W        W34649   8.419  30.422   2.269
68241W        W34650  34.088   0.163   1.808
68242W        W34651  23.890  28.050  12.634
68243W        W34652  33.001   7.030  11.394
68244W        W34653  13.443  31.519   1.486
68245W        W34654  12.433  41.082  11.141
68246W        W34655  43.067  26.574   4.755
68247W        W34656  44.451   5.751   3.051
68248W        W34657  17.321  11.747   1.476
68249W        W34658  12.426  37.998   5.489
68250W        W34659  38.500  30.910   3.621
68251W        W34660  42.863  25.745   1.617
68252W        W34661  15.136  13.219  13.953
68253W        W34662   8.346   6.006  14.965
68254W        W34663  41.026  11.966  11.999
68255W        W34664  38.096   2.893  12.433
68256W        W34665  40.896  25.629   3.386
68257W        W34666  30.716  30.503  13.402
68258W        W34667  10.095   9.101   2.236
68259W        W34668  15.561  25.466   1.851
68260W        W34669   1.709   4.968  14.674
68261W        W34670   7.080  15.204   2.916
68262W        W34671   0.520  27.710   0.401
68263W        W34672   0.889  41.315   0.824
68264W        W34673   4.593  29.681   0.364
68265W        W34674  31.452  33.077   1.968
68266W        W34675   2.375   5.329   4.265
68267W        W34676   4.004   9.741   0.361
68268W        W34677  36.356  44.899   3.807
68269W        W34678  20.114  24.086   4.265
68270W        W34679  32.637   7.412   3.226
68271W        W34680  28.707  39.675   0.385
68272W        W34681  37.703  36.597  11.236
68273W        W34682  26.464  10.947  13.562
68274W        W34683  38.895  10.397  11.316
68275W        W34684  16.789  20.690  13.425
68276W        W34685   5.494  29.600   0.850
68277W        W34686  28.609  30.966  11.883
68278W        W34687   2.790  20.241  14.309
68279W        W34688  10.323  29.108  11.372
68280W        W34689  22.759   3.491  10.600
68281W        W34690  13.720   7.390  13.440
68282W        W34691  44.376  23.737   0.901
68283W        W34692  43.589  13.720   2.263
68284W        W34693  12.742  43.287  11.033
68285W        W34694  38.303  32.029   4.126
68286W        W34695  34.943  35.098   1.377
68287W        W34696  36.532   2.565  13.948
68288W        W34697  20.570  25.667   4.201
68289W        W34698  17.081  28.951   0.673
68290W        W34699  31.570  38.769   2.661
68291W        W34700  34.783  18.237  10.676
68292W        W34701   7.292  13.305   2.514
68293W        W34702  28.762  38.551  12.482
68294W        W34703  29.677   0.762   4.088
68295W        W34704  29.350  22.573   0.928
68296W        W34705  22.685  12.212   0.657
68297W        W34706  24.240  39.966   2.298
68298W        W34707  38.955   0.745  12.100
68299W        W34708  28.170   9.754  13.931
68300W        W34709  16.346   5.312   1.012
68301W        W34710   0.703  32.105  14.372
68302W        W34711  33.368  33.176  13.408
68303W        W34712  11.868  32.416   0.898
68304W        W34713  30.945  37.713  10.638
68305W        W34714  22.065  28.630  13.019
68306W        W34715  27.647   6.896   0.356
68307W        W34716   0.342   5.479   3.578
68308W        W34717  36.646  42.994  10.009
68309W        W34718  34.983  13.239  11.786
68310W        W34719  12.835  34.843   0.403
68311W        W34720   8.603   3.802  11.666
68312W        W34721  25.788  23.388   4.997
68313W        W34722   8.666  28.633  10.687
68314W        W34723   9.954  15.186   1.835
68315W        W34724  12.070  11.324  11.675
68316W        W34725   0.361  22.922   0.716
68317W        W34726  42.825  19.713  12.218
68318W        W34727   0.541  38.612   4.207
68319W        W34728  23.934  15.910  11.158
68320W        W34729   7.641  43.964  12.637
68321W        W34730  28.287  20.434   2.189
68322W        W34731  21.446  15.550  11.038
68323W        W34732  30.082  35.870   4.783
68324W        W34733   8.549  41.465   2.232
68325W        W34734  36.468  16.859  13.598
68326W        W34735  32.331   7.863  11.386
68327W        W34736   5.345  21.749   2.370
68328W        W34737  29.640  12.103   1.413
68329W        W34738   5.687   8.804  13.867
68330W        W34739   4.442   0.224   4.294
68331W        W34740  39.540  22.204  12.015
68332W        W34741  14.047  43.065  14.852
68333W        W34742   7.227  19.562   3.396
68334W        W34743   7.598   9.586  13.623
68335W        W34744   0.884   7.459   0.374
68336W        W34745  19.193  25.104   2.713
68337W        W34746  36.463  28.182   2.335
68338W        W34747  42.683  43.576  14.827
68339W        W34748  35.560   4.182  12.678
68340W        W34749   0.032   1.934  14.402
68341W        W34750   4.556  15.663   3.772
68342W        W34751  36.469  22.155   0.816
68343W        W34752  18.436   9.348   0.430
68344W        W34753   3.806  35.794   3.723
68345W        W34754  15.424   0.925  11.275
68346W        W34755  33.444  40.554   5.035
68347W        W34756  36.405  24.169   2.313
68348W        W34757  26.723  40.881  13.493
68349W        W34758  28.116  15.045   4.630
68350W        W34759   0.207  21.093   0.030
68351W        W34760  41.182  20.138  11.556
68352W        W34761  26.417   7.865  11.076
68353W        W34762  36.439  16.307   4.858
68354W        W34763   1.548  23.149  14.268
68355W        W34764  44.207  33.554   0.732
68356W        W34765  22.314  33.333  11.214
68357W        W34766  44.442  26.456   2.336
68358W        W34767  22.753  43.695  13.587
68359W        W34768   6.520  15.250  10.873
68360W        W34769   6.284  33.151  14.458
68361W        W34770  36.859   2.389   3.780
68362W        W34771  12.142   3.389  12.973
68363W        W34772  27.952   4.487   2.780
68364W        W34773  10.831   7.417   1.752
68365W        W34774   0.193  12.206  12.894
68366W        W34775   3.680  30.434   5.024
68367W        W34776  43.922   3.649  14.276
68368W        W34777  29.226  12.123   0.882
68369W        W34778   0.827  43.517   1.776
68370W        W34779   7.901  43.883   4.102
68371W        W34780  21.616  42.242   0.929
68372W        W34781  30.411  42.986  13.761
68373W        W34782  39.405  30.440  11.975
68374W        W34783  18.439  29.644   2.252
68375W        W34784  16.582  29.477   2.478
68376W        W34785  29.899  37.086   0.170
68377W        W34786  16.981   0.749   1.202
68378W        W34787  41.908  34.913   0.049
68379W        W34788  41.477  44.103   4.836
68380W        W34789  36.482  23.426   0.248
68381W        W34790  31.022  25.285   0.164
68382W        W34791  33.277  44.410   1.745
68383W        W34792  17.799  35.198   1.757
68384W        W34793  25.880  28.441   4.677
68385W        W34794   2.307   6.114  12.920
68386W        W34795  27.164   1.209  13.509
68387W        W34796  25.895  12.192  11.640
68388W        W34797  32.786  30.308   3.562
68389W        W34798  20.275  33.119  11.038
68390W        W34799  39.499   6.691  12.869
68391W        W34800  42.042  24.481   2.798
68392W        W34801  18.281  42.636  13.786
68393W        W34802   9.883   0.435  13.007
68394W        W34803  31.747  29.668   2.692
68395W        W34804  28.348  40.770  11.154
68396W        W34805   8.720  25.264   4.473
68397W        W34806  33.388   6.909   3.678
68398W        W34807   0.291  41.854   2.783
68399W        W34808  28.887  14.127  11.996
68400W        W34809  32.974  10.526   1.939
68401W        W34810  35.002  34.518   2.221
68402W        W34811  40.940   8.736   1.385
68403W        W34812  31.052  24.949  14.760
68404W        W34813  34.658  19.228  14.200
68405W        W34814   8.713   8.869  14.709
68406W        W34815  16.769   7.925  14.054
68407W        W34816  32.015  39.447   2.131
68408W        W34817  33.491  17.786   0.509
68409W        W34818  34.982  44.380   4.116
68410W        W34819  28.257  40.202   3.160
68411W        W34820  35.714  24.313   5.240
68412W        W34821   3.469  20.432   4.591
68413W        W34822  44.773  24.061  12.605
68414W        W34823  35.514   0.438   3.401
68415W        W34824  29.023  29.239   3.471
68416W        W34825  44.789  30.196   5.351
68417W        W34826  39.155  41.467  11.624
68418W        W34827  30.417  42.531  13.485
68419W        W34828   7.414  24.074   0.400
68420W        W34829  31.976  39.784  13.543
68421W        W34830  18.991  24.979  13.945
68422W        W34831  25.960  21.688  13.482
68423W        W34832  36.103  38.280   4.142
68424W        W34833  21.654  23.112  14.364
68425W        W34834  31.321  18.217   0.786
68426W        W34835  20.178  44.003  12.429
68427W        W34836   9.186  19.222  11.970
68428W        W34837  10.332  33.201   3.561
68429W        W34838   9.624   7.843  14.782
68430W        W34839   6.427  10.056   4.217
68431W        W34840  29.876  31.575  13.537
68432W        W34841   7.685  31.369   1.818
68433W        W34842  26.352  39.939  13.737
68434W        W34843  40.634  25.020  13.234
68435W        W34844  41.778   6.676  12.048
68436W        W34845  13.727  36.689  11.894
68437W        W34846  20.224  25.465  12.034
68438W        W34847   3.321  35.387   3.675
68439W        W34848  41.860  26.849   2.826
68440W        W34849  10.498  31.903   3.185
68441W        W34850   7.929  42.820  10.039
68442W        W34851  20.227  19.296   1.550
68443W        W34852   1.717   0.693   3.298
68444W        W34853   4.511  36.756  11.102
68445W        W34854  11.787   7.970   4.306
68446W        W34855  18.194   0.078  13.786
68447W        W34856   0.777  20.995   4.117
68448W        W34857  22.779   7.290   2.219
68449W        W34858   4.005  29.479   1.272
68450W        W34859  28.148  42.066  13.862
68451W        W34860  11.258  16.038  11.990
68452W        W34861   6.206  38.126   3.328
68453W        W34862   0.825  10.047  14.495
68454W        W34863  10.701  16.557   0.934
68455W        W34864  33.060  35.668  10.872
68456W        W34865  24.509   2.481  14.231
68457W        W34866  26.568   6.710   0.814
68458W        W34867  23.202  30.180  14.010
68459W        W34868  15.317   7.386  14.239
68460W        W34869  31.549  12.693  13.899
68461W        W34870   5.063  40.149  11.080
68462W        W34871  24.961  32.596  12.777
68463W        W34872  25.527   8.364   0.861
68464W        W34873  20.585  20.453   3.633
68465W        W34874   1.240  13.187   1.323
68466W        W34875   3.797   1.521  12.067
68467W        W34876  17.117  40.784   2.146
68468W        W34877   7.861  12.251   4.327
68469W        W34878   8.907  14.853  11.097
68470W        W34879   1.535   6.318   3.744
68471W        W34880  32.952   7.298   3.615
68472W        W34881  31.175   1.478   1.782
68473W        W34882  23.209  34.627   0.590
68474W        W34883  20.169   5.577   1.926
68475W        W34884   3.635  42.346   2.552
68476W        W34885  33.438  23.273  11.924
68477W        W34886  17.878  36.211   2.500
68478W        W34887  35.491   8.872  12.572
68479W        W34888   3.318  26.075   1.756
68480W        W34889  11.315  12.898  10.638
68481W        W34890  40.026  18.236   2.733
68482W        W34891  36.506  44.296  11.706
68483W        W34892   2.026  11.277   1.409
68484W        W34893  40.916  29.452  12.134
68485W        W34894  39.802  32.963  14.377
68486W        W34895   7.489  27.877   1.799
68487W        W34896  30.745  28.194   3.690
68488W        W34897  26.544  29.017  12.969
68489W        W34898  24.755  41.995   4.520
68490W        W34899  36.372   5.564   2.398
68491W        W34900  22.464   8.916  11.155
68492W        W34901  18.598  21.981  14.097
68493W        W34902  12.248   7.451   0.469
68494W        W34903  39.098   4.672  14.086
68495W        W34904  26.206  40.108  11.960
68496W        W34905  37.894  40.434   3.430
68497W        W34906  23.003  25.923   1.514
68498W        W34907   9.674  41.482   0.636
68499W        W34908  31.137  23.575   0.949
68500W        W34909  44.548   3.264  11.067
68501W        W34910  27.534  40.124   1.395
68502W        W34911  19.293  38.818  11.889
68503W        W34912  18.284  25.459  11.837
68504W        W34913  31.409  37.280   3.450
68505W        W34914  36.340  19.500   2.715
68506W        W34915  17.208  24.279  11.537
68507W        W34916  19.545  41.549  13.377
68508W        W34917  33.590   2.245   3.209
68509W        W34918  25.186  15.084  13.247
68510W        W34919  17.121  23.937  14.335
68511W        W34920  25.504  31.109   1.214
68512W        W34921  29.696  26.049   1.859
68513W        W34922  11.610   1.248   1.646
68514W        W34923   2.795  13.327   2.493
68515W        W34924  30.536  32.077  12.850
68516W        W34925  34.724  30.464   0.780
68517W        W34926  22.942  43.566  11.521
68518W        W34927  22.386  16.894  12.583
68519W        W34928  10.587  42.320  13.444
68520W        W34929  10.928  27.995  12.838
68521W        W34930  23.036  25.672   0.483
68522W        W34931  33.431   1.731  13.480
68523W        W34932  19.187  27.002   4.509
68524W        W34933  18.717  29.450  11.836
68525W        W34934  13.531  16.656   0.069
68526W        W34935  27.546   0.447  11.141
68527W        W34936  16.498  25.895  12.580
68528W        W34937   2.425   1.707  10.998
68529W        W34938  42.519  29.601   3.853
68530W        W34939  27.655   9.844   4.729
68531W        W34940   3.876  14.198   4.217
68532W        W34941  40.805  36.425  11.161
68533W        W34942  16.681   5.350   3.462
68534W        W34943  32.911  20.600   0.590
68535W        W34944  31.406  11.830  14.521
68536W        W34945   9.835  13.368  13.453
68537W        W34946   6.265  19.625   1.786
68538W        W34947  39.419   6.904   2.824
68539W        W34948  16.531  25.287  12.257
68540W        W34949  32.179   8.450   0.065
68541W        W34950   5.449  38.484   4.589
68542W        W34951  31.646  41.828   1.351
68543W        W34952   6.978  38.367  10.807
68544W        W34953  37.930   3.031  12.911
68545W        W34954   3.254   6.418  11.050
68546W        W34955   8.459  11.185   4.200
68547W        W34956  42.043  17.644   4.684
68548W        W34957   3.802  36.463  13.521
68549W        W34958  24.377  26.725   3.881
68550W        W34959   7.624  16.454  14.438
68551W        W34960   1.982  20.074   2.098
68552W        W34961   4.339  17.421   0.673
68553W        W34962   3.053  23.747   3.120
68554W        W34963  19.527   4.633   2.336
68555W        W34964  14.600  24.903  13.813
68556W        W34965   7.364  26.479  14.551
68557W        W34966   9.694  34.941   1.378
68558W        W34967   3.947  34.980   0.432
68559W        W34968   0.143  23.502  10.655
68560W        W34969   2.780  32.971   3.709
68561W        W34970  44.570   6.862   4.240
68562W        W34971   0.714  41.522  11.571
68563W        W34972  26.604  17.141  13.968
68564W        W34973  11.664  34.040   3.504
68565W        W34974  14.930  44.209  10.194
68566W        W34975  27.283   0.763   3.231
68567W        W34976   5.824  38.094   1.402
68568W        W34977  40.522  25.131   2.926
68569W        W34978  22.491  32.813  10.855
68570W        W34979  14.305   5.384   2.614
68571W        W34980   4.405  40.805  11.101
68572W        W34981  12.020  16.738   4.555
68573W        W34982   8.451  25.376  10.526
68574W        W34983   6.691  37.338   3.273
68575W        W34984  28.909  14.202   2.615
68576W        W34985  42.337   7.391  13.835
68577W        W34986  35.460  31.699   3.374
68578W        W34987  19.593  35.400  11.260
68579W        W34988   2.562  36.097   2.920
68580W        W34989  20.367  40.493   4.166
68581W        W34990  18.312   5.429  13.489
68582W        W34991  32.770  44.995   2.173
68583W        W34992  36.030  25.708  12.573
68584W        W34993   6.913   7.386  12.565
68585W        W34994  44.376  36.687   0.747
68586W        W34995   7.061  18.299  12.971
68587W        W34996  40.846  33.731  11.808
68588W        W34997  20.638  35.073   1.687
68589W        W34998  21.819  32.790   1.695
68590W        W34999  13.072  38.816  11.660
68591W        W35000  34.962   7.147   4.182
68592W        W35001   8.276   0.521  10.743
68593W        W35002   5.184  32.577   2.288
68594W        W35003   1.735  25.974   0.410
68595W        W35004  25.110  27.308   2.365
68596W        W35005   2.156  21.149  14.936
68597W        W35006   6.481  11.121   3.889
68598W        W35007  10.194  37.033  12.585
68599W        W35008  26.090  37.990  14.733
68600W        W35009   4.846  39.360  13.412
68601W        W35010  27.518  40.595  12.575
68602W        W35011  32.205  19.325   3.730
68603W        W35012  37.415  19.740   1.992
68604W        W35013  41.574  42.196  10.424
68605W        W35014  42.244   5.235  13.731
68606W        W35015  42.619  33.853  14.537
68607W        W35016  19.591  14.270  12.950
68608W        W35017  17.078  37.605  12.556
68609W        W35018  33.112  26.201  13.031
68610W        W35019  43.111  27.422   4.276
68611W        W35020  18.185  33.214   4.148
68612W        W35021  32.506  35.957   5.137
68613W        W35022  38.814  16.237   3.801
68614W        W35023  35.856  33.664   1.761
68615W        W35024  32.172  21.528   2.563
68616W        W35025  28.441  34.791  12.695
68617W        W35026  32.158   6.713   0.739
68618W        W35027  10.038   4.676   2.228
68619W        W35028  25.222  11.119  11.071
68620W        W35029  36.502  23.993  11.562
68621W        W35030  37.922  18.175  12.008
68622W        W35031  27.094  11.178  13.322
68623W        W35032  20.827  20.630  11.451
68624W        W35033  23.296  41.447  12.978
68625W        W35034  44.830  17.269  10.861
68626W        W35035  30.509  43.414   0.600
68627W        W35036  21.810  44.978   0.775
68628W        W35037  17.500  10.951   4.169
68629W        W35038  36.663   0.918   0.194
68630W        W35039  13.289  19.464  13.595
68631W        W35040  23.293   8.675   1.310
68632W        W35041  17.538  44.229   3.705
68633W        W35042  15.970  10.249   2.747
68634W        W35043  31.621  22.930   0.529
68635W        W35044  10.660  20.794   2.846
68636W        W35045  31.754  10.865   1.268
68637W        W35046  10.108  38.598   2.258
68638W        W35047  20.419  42.890   3.724
68639W        W35048  33.068  11.513   3.232
68640W        W35049  33.295  11.341   2.800
68641W        W35050  24.454   8.874   3.661
68642W        W35051   7.861  33.260  12.840
68643W        W35052  26.888   4.851  14.351
68644W        W35053   9.732   8.605  10.579
68645W        W35054  11.238   4.830  12.656
68646W        W35055  25.407  33.736   3.753
68647W        W35056  36.390   4.648  13.962
68648W        W35057   5.039  17.556  13.681
68649W        W35058   0.253  14.000   2.398
68650W        W35059  10.269   4.484   2.791
68651W        W35060  24.956  20.099  12.034
68652W        W35061  17.381  29.090  12.963
68653W        W35062  29.145   3.489  10.673
68654W        W35063  25.275  22.284   0.928
68655W        W35064   0.715  43.867   3.124
68656W        W35065  42.667  41.119  13.012
68657W        W35066  27.514  21.108   3.616
68658W        W35067   6.855  23.492   0.017
68659W        W35068   9.420  40.413  12.382
68660W        W35069  40.333  37.460  14.770
68661W        W35070  40.741  39.770   4.896
68662W        W35071  31.166  22.644   0.485
68663W        W35072  18.579  38.458   1.871
68664W        W35073  35.811  31.988   0.256
68665W        W35074  11.730   4.444  10.688
68666W        W35075  22.254   2.388   4.718
68667W        W35076   0.039  41.265  11.036
68668W        W35077   8.563  17.066  11.458
68669W        W35078  25.473  22.496  13.985
68670W        W35079  27.282  16.014  10.940
68671W        W35080  16.585   0.699  12.899
68672W        W35081  26.813  36.871  12.416
68673W        W35082  29.433  30.302   2.815
68674W        W35083  44.839  29.421  13.117
68675W        W35084  32.412  12.112   4.663
68676W        W35085  19.196  28.951  11.379
68677W        W35086  19.299   1.872  11.723
68678W        W35087  28.998  34.626   0.819
68679W        W35088  32.642  13.533  14.527
68680W        W35089  13.829   3.879   4.755
68681W        W35090  33.513  23.771  13.050
68682W        W35091  34.905  44.918   0.888
68683W        W35092  37.922  11.910  12.164
68684W        W35093  25.673  12.167  14.708
68685W        W35094  10.547   8.886   4.070
68686W        W35095  42.387  44.812   0.514
68687W        W35096  19.269   6.801  14.898
68688W        W35097   4.354  29.665   3.173
68689W        W35098   1.452   6.720   4.564
68690W        W35099   7.140  43.621  10.684
68691W        W35100  42.375  32.925  10.633
68692W        W35101   3.243  32.701   9.444
68693W        W35102  18.264  44.066  13.506
68694W        W35103  18.483  44.497  10.642
68695W        W35104  28.398  18.121  12.012
68696W        W35105   5.153  38.929  13.526
68697W        W35106  30.292   2.756  13.340
68698W        W35107  15.752  30.148   2.783
68699W        W35108  24.066  15.745   3.648
68700W        W35109  26.741  15.790  14.786
68701W        W35110  35.994  28.488  10.619
68702W        W35111  30.988   1.796   3.199
68703W        W35112  20.869  13.592  14.444
68704W        W35113  39.288  40.308  12.854
68705W        W35114   0.344  15.287  10.670
68706W        W35115   0.243  13.126   1.669
68707W        W35116  14.198  26.305  14.798
68708W        W35117  44.166  41.350   1.419
68709W        W35118  38.089   2.898   3.065
68710W        W35119   9.735  10.931   0.819
68711W        W35120  36.151  26.506   0.959
68712W        W35121  16.211  24.039  11.534
68713W        W35122  41.768  41.546  11.981
68714W        W35123  10.180  35.072   3.199
68715W        W35124  44.804   9.651   0.371
68716W        W35125   1.190  17.453  14.811
68717W        W35126  32.506  20.536   3.187
68718W        W35127  23.016  19.576   4.047
68719W        W35128   2.386  15.559   0.467
68720W        W35129  10.398  28.271   0.753
68721W        W35130   2.002  42.527  10.609
68722W        W35131  20.062   2.290   2.255
68723W        W35132  44.576  33.553   4.287
68724W        W35133  32.991  12.099   1.731
68725W        W35134  12.926  27.878  12.893
68726W        W35135  11.210  12.407  13.382
68727W        W35136  35.499  13.307  11.101
68728W        W35137  40.854   4.584   3.597
68729W        W35138  40.243   9.877   2.624
68730W        W35139  17.368  34.162  11.199
68731W        W35140  24.792  20.052  13.050
68732W        W35141  15.067  38.917   1.226
68733W        W35142  25.684  41.729  13.613
68734W        W35143  29.143  43.060   2.363
68735W        W35144   8.827  43.848   0.568
68736W        W35145  31.601  11.865   1.428
68737W        W35146  29.582  28.133  12.797
68738W        W35147   1.888  12.885  13.889
68739W        W35148   4.719  30.948  10.870
68740W        W35149  41.124  27.541   0.573
68741W        W35150  28.437  37.513   3.093
68742W        W35151  32.346  12.667  11.075
68743W        W35152   7.789  31.450  11.284
68744W        W35153   9.423  28.432   1.766
68745W        W35154  29.873  44.506   0.315
68746W        W35155  18.712  12.498  10.736
68747W        W35156  22.066  11.836  12.990
68748W        W35157  36.228  14.650   3.709
68749W        W35158  44.970  37.009   2.556
68750W        W35159  20.306  15.634  12.019
68751W        W35160  18.245  16.596  14.859
68752W        W35161  10.813  11.556   4.836
68753W        W35162  36.930   1.001  13.099
68754W        W35163  13.328  10.867   3.042
68755W        W35164   0.699  13.668   3.598
68756W        W35165  41.831  18.472   3.711
68757W        W35166  23.313   3.379  14.041
68758W        W35167  42.990  26.656  11.750
68759W        W35168  11.859  31.075  13.398
68760W        W35169  33.520  43.531  12.644
68761W        W35170  37.421  17.481  12.110
68762W        W35171   8.419  13.407  13.025
68763W        W35172   5.296  28.336   1.425
68764W        W35173  39.677  17.145   1.687
68765W        W35174  40.016  36.466   0.761
68766W        W35175  23.721  19.075  11.558
68767W        W35176  19.177  42.373   2.809
68768W        W35177  35.936  19.247   0.663
68769W        W35178  12.176  12.153   3.069
68770W        W35179  35.610  10.123  14.519
68771W        W35180  25.073  40.598  12.825
68772W        W35181  12.535  39.182   3.606
68773W        W35182  37.869  33.343   1.921
68774W        W35183  23.173  44.627   0.356
68775W        W35184  12.853  14.742  12.632
68776W        W35185  18.256  32.539   2.416
68777W        W35186  20.192  13.698   4.707
68778W        W35187  31.200   1.345   4.960
68779W        W35188  22.372  44.300  11.205
68780W        W35189  27.513  12.417  13.327
68781W        W35190  10.619  33.729  11.224
68782W        W35191  40.775   6.830  14.340
68783W        W35192  43.024   1.412   1.385
68784W        W35193   6.157  44.369  13.564
68785W        W35194  14.017  34.403   3.331
68786W        W35195  23.514  10.637  13.078
68787W        W35196   8.423  22.091  11.208
68788W        W35197  40.306  40.316  11.535
68789W        W35198   1.534  23.069  11.114
68790W        W35199  19.779   7.653   1.721
68791W        W35200  37.926  20.094  11.610
68792W        W35201  18.669  24.083   3.768
68793W        W35202   7.242  20.177   4.643
68794W        W35203  41.218   3.859   1.278
68795W        W35204  41.277  14.257   3.191
68796W        W35205  32.883  32.973  13.360
68797W        W35206  24.540  28.335  14.834
68798W        W35207  37.854  42.964  10.373
68799W        W35208  38.382  19.532   0.212
68800W        W35209  27.776   7.902   0.058
68801W        W35210  32.999  39.521   1.767
68802W        W35211  14.666  17.260   2.393
68803W        W35212  34.149  25.639   1.024
68804W        W35213  19.793  26.051   1.962
68805W        W35214  29.464  21.706  13.980
68806W        W35215   3.596  38.493  12.796
68807W        W35216  26.861  17.000   2.698
68808W        W35217  16.094  44.491   0.209
68809W        W35218  16.519  29.867   4.318
68810W        W35219  34.848   7.152  11.591
68811W        W35220  24.901  42.035   2.494
68812W        W35221   5.892  36.999   2.920
68813W        W35222  17.229  14.232  13.537
68814W        W35223   8.294  19.344   3.272
68815W        W35224   4.182   2.872   2.219
68816W        W35225   0.446  29.174  14.435
68817W        W35226  34.182  10.915  11.622
68818W        W35227  23.049   9.353  10.661
68819W        W35228   0.329   6.184  14.537
68820W        W35229  31.591  13.125   2.137
68821W        W35230   8.084  21.692  10.146
68822W        W35231  17.705  44.385  13.425
68823W        W35232  29.088  38.069   0.931
68824W        W35233   2.433  43.662  12.087
68825W        W35234  30.036  23.848  12.850
68826W        W35235  25.213  27.909  13.307
68827W        W35236  33.997  20.829  11.138
68828W        W35237   1.352  27.336  12.710
68829W        W35238  24.944   1.894   2.790
68830W        W35239  21.819  33.719  14.328
68831W        W35240   1.185  35.011  12.933
68832W        W35241  44.584  19.257   4.287
68833W        W35242  11.257  34.095   0.434
68834W        W35243  44.691  39.357  11.488
68835W        W35244   6.519   0.620   3.189
68836W        W35245  15.551  35.528   4.647
68837W        W35246  41.744   4.396  10.744
68838W        W35247  33.412  31.994   0.248
68839W        W35248  15.499  28.244   3.259
68840W        W35249  27.966   1.282  12.952
68841W        W35250  25.251  28.704  14.422
68842W        W35251  34.841   6.914   3.727
68843W        W35252   7.128  14.618  14.909
68844W        W35253  16.106  35.913   0.774
68845W        W35254  32.616  42.899  12.695
68846W        W35255  29.562   7.145  11.991
68847W        W35256   7.947   8.679  11.504
68848W        W35257   4.703  17.978   0.424
68849W        W35258  43.230   1.445   4.571
68850W        W35259  36.878  33.234   0.679
68851W        W35260  42.924  20.189  12.442
68852W        W35261  28.285  39.489  14.158
68853W        W35262  19.147   7.834  10.703
68854W        W35263  16.998  42.530  14.851
68855W        W35264  26.087  25.589   0.458
68856W        W35265  27.919  15.091  14.299
68857W        W35266  13.183  13.814   4.721
68858W        W35267  23.534  10.115  13.995
68859W        W35268   8.203  36.466  12.447
68860W        W35269  11.626  29.813  13.993
68861W        W35270   1.940  21.205  11.521
68862W        W35271  21.669   2.726   3.655
68863W        W35272  37.030  38.855  10.677
68864W        W35273  18.497  20.266  11.449
68865W        W35274   8.207  38.968  10.683
68866W        W35275  34.536   1.737  12.527
68867W        W35276   9.884  35.621  11.568
68868W        W35277  21.205  22.277  11.422
68869W        W35278  43.785   3.482   1.824
68870W        W35279   5.025  25.522   4.161
68871W        W35280   9.177  36.910  13.803
68872W        W35281  32.377  36.906   0.720
68873W        W35282  28.535  12.290   3.618
68874W        W35283  37.307  40.219   1.361
68875W        W35284  21.750  32.839  14.718
68876W        W35285  39.875  24.627   2.968
68877W        W35286  26.344  32.054   0.260
68878W        W35287  44.262   8.340  13.721
68879W        W35288  30.043  27.918   1.912
68880W        W35289  44.421  29.585  12.840
68881W        W35290  24.271  34.080   2.339
68882W        W35291  35.792  38.846  14.929
68883W        W35292   3.972  22.149  12.315
68884W        W35293  13.803  34.892   0.303
68885W        W35294  20.054  17.657   1.320
68886W        W35295  21.684   1.462  11.621
68887W        W35296  35.507  14.386   1.496
68888W        W35297  31.114  17.177  10.669
68889W        W35298  13.077  32.381   9.729
68890W        W35299   2.335   8.667  12.523
68891W        W35300  29.947   8.352  12.800
68892W        W35301  20.638  13.119   4.194
68893W        W35302  18.757  24.017   2.481
68894W        W35303  42.489  30.446   3.678
68895W        W35304  21.310   9.862   0.439
68896W        W35305  24.995  25.917   5.379
68897W        W35306  16.874   8.910  13.789
68898W        W35307  18.030  40.374   1.321
68899W        W35308  36.449  33.505  12.348
68900W        W35309  21.895  37.567   4.647
68901W        W35310   8.164   6.670  13.742
68902W        W35311  11.533  42.862  11.185
68903W        W35312   0.989  24.953   3.201
68904W        W35313   2.738  36.631   3.575
68905W        W35314  38.721   1.663  13.818
68906W        W35315  44.443  23.240  14.474
68907W        W35316  28.928   5.006   1.791
68908W        W35317  23.448  38.263  13.035
68909W        W35318  32.196  37.049  14.875
68910W        W35319  32.924   7.763  10.594
68911W        W35320  35.448   0.941   3.839
68912W        W35321  24.798   5.758   4.236
68913W        W35322   7.379   4.127  11.689
68914W        W35323  31.711  25.067   3.336
68915W        W35324  26.564  38.041  12.094
68916W        W35325   8.802   9.270   1.311
68917W        W35326  31.740  33.481   1.834
68918W        W35327  30.729  24.230  12.470
68919W        W35328  22.228  32.117   4.562
68920W        W35329  18.260   6.983   2.684
68921W        W35330  43.048   2.256  11.680
68922W        W35331  13.548   5.870  14.414
68923W        W35332  44.671  12.821   3.336
68924W        W35333  37.764  19.809  13.008
68925W        W35334  41.138  29.111  10.694
68926W        W35335  12.213  38.886  10.496
68927W        W35336  19.202  43.909  12.896
68928W        W35337  40.121  16.811   2.782
68929W        W35338  22.498   5.855   1.328
68930W        W35339  30.472  20.461  13.943
68931W        W35340  41.260  40.097  13.870
68932W        W35341  23.110  38.344   2.593
68933W        W35342  18.747  40.459  11.053
68934W        W35343  24.695  35.214   3.364
68935W        W35344   5.204  38.708   2.467
68936W        W35345  44.715   2.193   3.292
68937W        W35346  23.137  20.711  14.538
68938W        W35347   9.302  23.461  13.840
68939W        W35348  35.857  33.043   3.697
68940W        W35349  18.690  42.327   3.677
68941W        W35350  42.231   1.081  12.530
68942W        W35351  44.856  32.391  12.643
68943W        W35352  23.536  29.464  10.787
68944W        W35353  34.959  19.808  14.986
68945W        W35354  16.937   8.948   1.348
68946W        W35355  39.560  33.625   3.310
68947W        W35356  27.249  10.672   3.004
68948W        W35357  23.230  20.062   5.319
68949W        W35358  44.195   5.333  10.642
68950W        W35359   3.084  36.555  12.057
68951W        W35360  17.723  42.667  10.555
68952W        W35361   0.310  32.361  12.897
68953W        W35362  28.599  35.385   1.807
68954W        W35363  22.197  27.522  12.923
68955W        W35364   1.905  25.522   0.958
68956W        W35365   7.884  31.641  14.348
68957W        W35366  42.492  32.665   0.773
68958W        W35367  27.115  22.898  14.851
68959W        W35368  26.549  34.172   2.034
68960W        W35369  42.878   5.807   1.703
68961W        W35370  36.158   1.505   2.368
68962W        W35371   1.157  40.421  12.500
68963W        W35372  38.711  16.524   0.905
68964W        W35373  26.659  28.103   0.233
68965W        W35374  21.253  16.606   3.296
68966W        W35375  30.549   2.455  12.131
68967W        W35376   6.285  18.243   2.030
68968W        W35377  22.365  11.375   4.057
68969W        W35378  13.053   2.512   3.751
68970W        W35379  23.735  10.671   4.037
68971W        W35380  37.117  11.364   2.763
68972W        W35381   7.168  30.385  10.924
68973W        W35382  39.767  25.159  10.647
68974W        W35383  38.049   9.831   1.204
68975W        W35384  29.607  40.664   2.832
68976W        W35385  11.861  40.952   3.650
68977W        W35386  20.093   4.777  13.417
68978W        W35387  21.539  10.772  14.282
68979W        W35388  26.631  34.536   0.357
68980W        W35389   1.183  43.552  13.490
68981W        W35390  25.581  13.847   3.686
68982W        W35391  27.788  13.814   1.367
68983W        W35392  18.546  44.705  14.049
68984W        W35393  15.778  36.098   2.173
68985W        W35394  42.099   1.317   3.019
68986W        W35395  13.657  13.534  13.064
68987W        W35396  22.140  23.195   1.252
68988W        W35397  22.123  22.443   1.690
68989W        W35398   0.121  26.134  12.362
68990W        W35399   0.492  22.015  14.923
68991W        W35400  37.519  31.974   0.020
68992W        W35401  18.958   0.329   2.813
68993W        W35402  43.662   7.793   2.688
68994W        W35403  17.289  25.454  14.233
68995W        W35404  11.321  35.388  14.449
68996W        W35405  28.287  32.493  13.470
68997W        W35406  17.016  28.360   2.963
68998W        W35407  24.991  30.459  12.073
68999W        W35408  36.417  11.744  13.981
69000W        W35409  32.522  33.522  12.821
69001W        W35410   6.279  44.087   3.250
69002W        W35411  40.589  10.759   0.007
69003W        W35412  13.604  43.055   0.892
69004W        W35413  44.447  25.413  13.318
69005W        W35414  25.296  12.641   3.662
69006W        W35415  25.811  44.872   4.981
69007W        W35416  13.535  21.229   0.890
69008W        W35417  16.612  41.825  12.600
69009W        W35418   9.253   5.813  13.456
69010W        W35419   3.015   2.859  14.855
69011W        W35420  43.748  43.522   0.652
69012W        W35421   9.299  41.648   4.943
69013W        W35422  10.811   2.414   2.329
69014W        W35423  14.117  24.849   1.985
69015W        W35424  39.504  14.760   0.754
69016W        W35425  24.936  38.187   2.127
69017W        W35426  21.082  40.404  14.040
69018W        W35427  33.553  28.639  13.656
69019W        W35428  43.957  43.864   1.363
69020W        W35429   5.418  28.121  12.067
69021W        W35430   7.891  12.211  14.273
69022W        W35431  31.220   7.421  14.760
69023W        W35432   0.387  10.649  14.931
69024W        W35433   4.839  31.620   1.191
69025W        W35434  40.385   1.325  11.157
69026W        W35435  25.179  40.327  14.272
69027W        W35436  44.584  21.758   1.272
69028W        W35437  20.190  43.482  12.382
69029W        W35438   0.438   0.978  12.477
69030W        W35439  36.579  20.155   1.421
69031W        W35440  10.983  31.781   4.967
69032W        W35441  26.064  44.351   4.302
69033W        W35442  33.385   7.339   0.030
69034W        W35443  32.606   1.402  10.616
69035W        W35444  10.734   9.961   2.346
69036W        W35445  22.642   8.382  12.443
69037W        W35446   9.076  34.955   0.379
69038W        W35447  26.046  38.331   4.690
69039W        W35448  41.294  16.607  13.841
69040W        W35449  30.421  37.040   3.706
69041W        W35450   9.262  26.000   0.314
69042W        W35451  18.229  25.021   1.224
69043W        W35452   2.155  11.292   0.756
69044W        W35453  25.730  25.481  11.436
69045W        W35454  23.994  28.508  11.207
69046W        W35455   0.487  14.371  14.654
69047W        W35456  16.065  31.823   5.000
69048W        W35457  43.376  41.770   3.674
69049W        W35458  42.002  36.635   4.150
69050W        W35459  44.176   9.166  13.155
69051W        W35460  27.583   6.210  13.412
69052W        W35461  22.521  35.102  11.184
69053W        W35462  28.535  36.797  12.921
69054W        W35463  39.467  38.346   3.243
69055W        W35464   7.815   0.924   0.119
69056W        W35465  28.731  30.726   2.301
69057W        W35466   5.884   7.488   1.479
69058W        W35467  38.652  43.450   3.196
69059W        W35468   5.977  28.153   0.680
69060W        W35469  12.313  22.491   1.962
69061W        W35470  32.156   7.911   2.254
69062W        W35471  30.089   1.337  11.603
69063W        W35472  33.959  23.065  11.574
69064W        W35473   0.295   6.506  12.955
69065W        W35474  12.230  39.704   4.845
69066W        W35475   6.700  31.893  14.553
69067W        W35476  40.029  16.573   0.477
69068W        W35477  14.797  23.142   1.575
69069W        W35478  11.538   5.521   2.273
69070W        W35479  18.766  32.947   1.796
69071W        W35480  17.036  10.941   0.499
69072W        W35481  14.277   8.055   0.327
69073W        W35482  33.858  19.386  12.500
69074W        W35483  37.931  25.756   2.128
69075W        W35484  11.935  40.821   0.316
69076W        W35485  42.956  34.742  13.363
69077W        W35486   4.356   9.139  13.368
69078W        W35487  11.675  23.212  13.545
69079W        W35488   6.088   1.981   2.339
69080W        W35489  30.354  44.572   3.382
69081W        W35490  21.102   5.280  12.582
69082W        W35491  36.379   7.333  11.473
69083W        W35492  28.602   1.160   4.822
69084W        W35493  43.880   7.992  13.004
69085W        W35494  20.750  18.595   3.683
69086W        W35495  42.797  20.069   1.728
69087W        W35496  19.165  38.620   4.052
69088W        W35497  39.758  26.546  13.882
69089W        W35498   4.054   8.276   1.983
69090W        W35499  43.296  35.497   2.859
69091W        W35500  33.809  42.530  11.608
69092W        W35501  31.408   7.384   3.645
69093W        W35502  19.639  43.839   3.104
69094W        W35503   4.908   5.187   3.755
69095W        W35504  15.077  21.656   2.714
69096W        W35505  12.747   5.154  11.449
69097W        W35506  42.839  32.922   1.061
69098W        W35507  14.737  15.033   1.801
69099W        W35508  41.836  18.560   2.097
69100W        W35509  43.572  23.232   2.743
69101W        W35510  32.551  10.054  11.297
69102W        W35511  34.179  14.774   0.466
69103W        W35512  43.739  39.835   2.133
69104W        W35513  28.437  42.577  12.492
69105W        W35514  12.197  33.146  13.334
69106W        W35515  23.129  41.413  12.482
69107W        W35516  16.079  10.631  13.711
69108W        W35517  16.093  34.595  11.194
69109W        W35518   7.924  40.386  14.829
69110W        W35519  39.299  30.998   1.735
69111W        W35520   8.961   4.953  13.215
69112W        W35521   7.197  19.296   4.290
69113W        W35522  40.997  14.235  12.054
69114W        W35523   4.526  12.762   4.812
69115W        W35524  42.329  36.556  11.408
69116W        W35525  15.549  29.083   3.084
69117W        W35526  33.584  27.702  14.426
69118W        W35527  30.783  32.588  14.430
69119W        W35528  26.191  35.506  11.882
69120W        W35529  31.459  10.564  12.819
69121W        W35530   3.859  22.038  14.213
69122W        W35531   6.289  41.815   1.190
69123W        W35532   0.850  27.534   3.327
69124W        W35533  34.582  16.352  10.785
69125W        W35534   9.374  19.723   4.536
69126W        W35535   0.932  16.655   3.720
69127W        W35536  17.075  16.107  14.407
69128W        W35537  27.456  23.525  12.492
69129W        W35538  36.134  44.823  11.133
69130W        W35539  30.655  11.533   2.820
69131W        W35540  42.763  20.077   3.894
69132W        W35541  42.908  39.313  13.372
69133W        W35542   6.442  25.935   4.012
69134W        W35543   4.082  40.441   3.211
69135W        W35544   0.276  43.334   3.989
69136W        W35545  21.442  28.197   4.036
69137W        W35546  16.835  38.550  14.491
69138W        W35547  29.651  37.460   2.120
69139W        W35548  31.636   7.442  14.450
69140W        W35549  38.863  20.042   3.295
69141W        W35550  44.564   6.856  11.184
69142W        W35551  41.739  25.627  10.937
69143W        W35552  17.317  23.099  10.580
69144W        W35553   7.251  18.046   3.132
69145W        W35554  28.021  35.629  14.944
69146W        W35555   2.723  17.179   3.730
69147W        W35556  26.427  19.372   2.231
69148W        W35557   2.820  35.641   2.663
69149W        W35558   9.342  40.550  10.526
69150W        W35559  26.232  24.709  14.031
69151W        W35560  30.321  14.091   4.889
69152W        W35561  11.506  43.691   9.740
69153W        W35562  41.508  38.423  10.789
69154W        W35563  40.449  43.994  10.842
69155W        W35564  13.584  34.395   0.359
69156W        W35565  41.529   4.302  12.908
69157W        W35566   1.299  30.428  14.876
69158W        W35567   1.336   6.130   2.291
69159W        W35568  29.028   1.729  14.331
69160W        W35569  10.775  16.687   1.901
69161W        W35570  43.112   1.351   2.858
69162W        W35571  35.443  34.706  14.187
69163W        W35572  13.791  23.032  13.903
69164W        W35573  15.759  15.156   2.889
69165W        W35574  26.557  13.586   1.756
69166W        W35575  20.043  15.398   0.813
69167W        W35576  43.094  10.783  12.750
69168W        W35577  39.824  44.343   1.048
69169W        W35578   1.395  24.606   1.920
69170W        W35579  40.528  20.554   3.667
69171W        W35580  15.152  29.478   2.244
69172W        W35581   8.856  34.642   3.728
69173W        W35582  30.894  36.931   3.880
69174W        W35583  40.888  22.202  12.413
69175W        W35584  14.607  32.823   0.843
69176W        W35585  22.087   2.757  10.772
69177W        W35586   7.890  41.334  12.960
69178W        W35587  35.927  16.893  14.313
69179W        W35588  39.885   0.155  12.842
69180W        W35589  35.335   7.910  11.497
69181W        W35590  27.512  25.390  10.516
69182W        W35591  30.967  37.862   1.391
69183W        W35592  37.485  39.861  13.885
69184W        W35593   6.830  35.205   0.300
69185W        W35594  23.031  43.329  11.071
69186W        W35595  40.124   2.913   3.384
69187W        W35596  35.990  44.429   2.383
69188W        W35597  18.647  35.851   3.598
69189W        W35598   4.042   7.810   2.264
69190W        W35599  30.901   3.883  10.699
69191W        W35600  28.740  21.651  10.545
69192W        W35601   4.439   9.717  12.572
69193W        W35602  13.148  19.163  10.636
69194W        W35603  14.269   3.953   2.863
69195W        W35604  35.825  38.428   0.728
69196W        W35605  28.243  25.536  13.307
69197W        W35606  28.540  22.225  11.787
69198W        W35607  40.729  36.113   3.321
69199W        W35608  41.385  30.101  13.409
69200W        W35609  29.224  22.085  13.446
69201W        W35610   3.343   3.014   1.290
69202W        W35611  26.709   9.925  14.418
69203W        W35612  24.528  41.031   4.115
69204W        W35613  41.797  36.402  14.799
69205W        W35614   2.310  41.395  11.642
69206W        W35615  38.028  11.271  14.266
69207W        W35616  18.558  36.642   3.417
69208W        W35617  41.847  22.082   0.835
69209W        W35618  24.829  44.442  12.016
69210W        W35619  11.020   5.437   3.365
69211W        W35620   7.345  27.576  13.815
69212W        W35621   6.457  33.723  13.363
69213W        W35622  32.205  26.527   3.153
69214W        W35623  44.868  18.324  14.445
69215W        W35624  31.985   5.674  11.502
69216W        W35625  26.992   1.832  14.265
69217W        W35626  12.086  34.511  13.569
69218W        W35627  26.650  32.501   2.821
69219W        W35628   4.375   6.856   4.018
69220W        W35629  42.298  24.695   1.485
69221W        W35630  26.575   0.127   3.160
69222W        W35631  24.267  27.511   0.489
69223W        W35632   0.398   5.914   1.912
69224W        W35633  14.652  35.550   1.439
69225W        W35634  27.209   9.228  13.448
69226W        W35635   6.403  12.752  10.891
69227W        W35636  31.671   7.860   1.366
69228W        W35637   2.739   7.653   3.842
69229W        W35638  41.810  40.850   0.247
69230W        W35639   3.476  19.573   1.257
69231W        W35640  16.683   6.611  13.395
69232W        W35641  17.504  25.571  11.503
69233W        W35642  42.695   5.650  12.926
69234W        W35643  43.480  20.825   3.511
69235W        W35644  34.002  26.926  14.877
69236W        W35645  34.497  15.225   1.797
69237W        W35646  13.848  40.607  10.810
69238W        W35647   5.271  31.004   1.618
69239W        W35648  27.528  12.153   2.885
69240W        W35649  27.954  37.943  12.078
69241W        W35650  32.862  41.752   0.893
69242W        W35651   8.448  39.447   1.674
69243W        W35652  21.713  15.024   2.886
69244W        W35653  18.220  39.762   0.287
69245W        W35654  16.850  42.789  11.046
69246W        W35655  32.575  24.772  14.525
69247W        W35656  10.507  20.462   3.207
69248W        W35657  32.040  13.937  13.072
69249W        W35658  21.493   3.489   4.773
69250W        W35659   9.243  23.082  14.878
69251W        W35660  19.216  33.023   0.901
69252W        W35661  44.270  36.940  12.854
69253W        W35662  23.167  43.821  11.046
69254W        W35663  40.478  30.288  12.254
69255W        W35664  33.539   3.470  13.896
69256W        W35665  35.545   5.423  11.489
69257W        W35666  26.144  25.362  11.704
69258W        W35667  32.353  33.877  14.626
69259W        W35668   1.421  32.925  11.889
69260W        W35669  39.057  10.322   2.961
69261W        W35670  21.294  19.793  13.233
69262W        W35671  36.445  18.327  13.072
69263W        W35672  40.026  16.117   3.236
69264W        W35673  41.857  16.671   5.016
69265W        W35674   8.811   0.950  11.851
69266W        W35675   7.683  28.054  11.017
69267W        W35676  34.471  26.463   1.352
69268W        W35677   9.260   0.475   5.061
69269W        W35678  13.685  19.294   0.321
69270W        W35679  29.591   3.805   0.914
69271W        W35680  42.009  25.957   1.676
69272W        W35681  44.963  15.096   2.411
69273W        W35682   0.217  33.909   2.596
69274W        W35683  44.760   5.963  10.940
69275W        W35684  31.085   8.450   5.018
69276W        W35685  29.458   2.009  13.076
69277W        W35686   1.208   2.243   0.476
69278W        W35687  30.092  38.267  11.614
69279W        W35688  41.972  43.513  11.464
69280W        W35689  20.274  38.330   0.527
69281W        W35690  41.316  40.915  14.266
69282W        W35691  14.918   6.699   3.014
69283W        W35692  24.150  21.545  13.531
69284W        W35693  27.476  33.036   1.834
69285W        W35694   0.016  42.966   2.628
69286W        W35695  21.144  32.659   3.126
69287W        W35696   7.978  44.907  11.488
69288W        W35697  42.983  22.877   3.682
69289W        W35698  31.818  31.816   0.469
69290W        W35699  38.771  11.009   4.681
69291W        W35700  35.509  12.588   3.219
69292W        W35701   5.198   0.427  11.472
69293W        W35702  38.596  41.899   1.037
69294W        W35703  43.765  44.243   2.983
69295W        W35704   2.092  28.152   0.440
69296W        W35705  37.665  21.179   3.795
69297W        W35706  16.546   1.255   3.671
69298W        W35707  22.207  31.655   0.518
69299W        W35708   0.654  44.390   3.077
69300W        W35709   2.991  32.107   4.685
69301W        W35710  18.853  39.768  14.636
69302W        W35711  43.491  32.953   3.581
69303W        W35712  24.633  27.073  14.161
69304W        W35713  43.892   6.245   3.629
69305W        W35714  36.584  36.374   3.131
69306W        W35715  35.903  37.210  14.327
69307W        W35716  35.230  11.241   0.750
69308W        W35717  14.581   6.466  14.968
69309W        W35718  17.182  27.999   3.663
69310W        W35719  17.724  39.297   3.691
69311W        W35720  20.291  42.221   1.082
69312W        W35721  33.595  35.401  10.771
69313W        W35722  44.876  30.625  12.937
69314W        W35723  14.797   2.563   2.436
69315W        W35724  35.020  19.579  11.334
69316W        W35725  25.380  28.329   4.542
69317W        W35726  35.475  27.921   0.345
69318W        W35727  13.287  23.928   3.598
69319W        W35728  35.965   4.996   1.686
69320W        W35729  20.433  19.166  10.661
69321W        W35730   8.407  12.730  10.446
69322W        W35731  16.114  14.031   3.163
69323W        W35732  42.389   0.295   0.714
69324W        W35733  15.551   3.180  10.952
69325W        W35734   9.976  37.378   1.217
69326W        W35735  32.972  42.304  12.261
69327W        W35736  18.666  22.596   4.937
69328W        W35737   6.046   2.956  13.853
69329W        W35738  30.112   2.368  12.475
69330W        W35739  15.701  12.897   2.152
69331W        W35740   8.414   4.368   2.638
69332W        W35741  31.795  10.455   2.121
69333W        W35742  35.479  26.680  12.039
69334W        W35743   0.234   8.403  11.952
69335W        W35744  11.287  19.616   1.019
69336W        W35745  34.023  33.891  12.810
69337W        W35746  35.883  37.423   2.140
69338W        W35747  26.556  44.230  13.490
69339W        W35748  16.068  37.938   1.418
69340W        W35749   7.386  16.652  11.070
69341W        W35750  23.929  11.130  10.791
69342W        W35751  12.743   2.175   0.785
69343W        W35752  17.806  22.322  12.130
69344W        W35753  13.082  24.159  12.384
69345W        W35754   6.399  25.636   1.703
69346W        W35755  35.831  15.224  12.549
69347W        W35756  29.475  30.053  10.498
69348W        W35757  15.748  32.257  10.184
69349W        W35758   6.918  12.437   0.792
69350W        W35759  35.305  10.379   2.417
69351W        W35760  16.877  30.626   2.192
69352W        W35761  28.051  23.355   5.394
69353W        W35762  13.853  40.583  14.687
69354W        W35763   9.477  25.149  12.085
69355W        W35764  20.699  32.559   1.520
69356W        W35765  25.689  43.338  14.569
69357W        W35766  11.831  27.174  11.943
69358W        W35767  20.079   3.011  12.522
69359W        W35768   1.325   2.421   2.410
69360W        W35769  15.464  18.659  12.918
69361W        W35770  14.393  14.125   2.352
69362W        W35771  25.445  30.460  12.934
69363W        W35772  32.589  35.075   4.234
69364W        W35773   4.368  14.767  11.034
69365W        W35774  36.871   7.863   0.242
69366W        W35775  33.034  16.141   0.142
69367W        W35776   5.420  10.760   1.823
69368W        W35777  36.902  31.629   2.034
69369W        W35778  16.110  24.755   2.837
69370W        W35779   6.402  20.250   1.320
69371W        W35780  25.694   8.617  12.149
69372W        W35781  15.335   8.802  11.164
69373W        W35782  21.535   4.575   0.774
69374W        W35783  39.342  24.128  11.166
69375W        W35784  11.851   0.297   0.627
69376W        W35785  36.409  21.086  11.846
69377W        W35786  39.440  40.772   3.398
69378W        W35787  40.447  36.158  12.832
69379W        W35788  17.244  43.744   1.756
69380W        W35789   0.163  35.660   2.178
69381W        W35790  28.551   9.290   2.344
69382W        W35791  12.563  21.029   5.123
69383W        W35792   8.863  30.229  14.656
69384W        W35793  23.654   7.238   1.795
69385W        W35794   2.592   7.266   4.181
69386W        W35795  25.632  37.798   1.244
69387W        W35796  14.157  21.981   0.323
69388W        W35797  36.028  13.825   4.026
69389W        W35798  26.509  21.538   2.778
69390W        W35799  21.191  22.281   0.782
69391W        W35800  37.086  14.339  11.179
69392W        W35801  43.434  30.616   2.685
69393W        W35802  27.563  13.276   2.962
69394W        W35803  10.614  24.065   3.591
69395W        W35804  25.147  23.251   0.818
69396W        W35805  19.805  39.731  11.138
69397W        W35806  19.483   5.711   4.118
69398W        W35807  20.600  19.594   3.941
69399W        W35808   6.875   1.375  11.986
69400W        W35809  17.576  36.165  12.523
69401W        W35810  38.294  10.199  10.573
69402W        W35811  27.396  10.610  14.294
69403W        W35812  22.948   1.019   3.940
69404W        W35813   3.309  44.679  11.024
69405W        W35814  38.120   3.770   4.549
69406W        W35815  13.287  32.270  10.205
69407W        W35816  15.281  44.471  12.011
69408W        W35817  22.976  36.107   1.687
69409W        W35818  38.868  32.063  12.534
69410W        W35819  36.863  38.758  14.932
69411W        W35820  21.036   2.702   2.020
69412W        W35821  18.843   7.939   4.470
69413W        W35822  28.814  11.936  13.845
69414W        W35823  34.424   3.019   2.078
69415W        W35824   4.509  34.491  11.608
69416W        W35825  43.802  12.125  13.068
69417W        W35826  25.262   5.222  14.182
69418W        W35827  10.256  26.255  13.162
69419W        W35828  30.546  34.248   4.143
69420W        W35829  22.028  39.402   2.194
69421W        W35830   8.385  37.793   1.375
69422W        W35831  32.681  14.022   0.767
69423W        W35832  39.377   0.196   4.776
69424W        W35833  22.353  30.275  13.552
69425W        W35834  14.396   6.917  10.698
69426W        W35835  43.775  26.551   2.788
69427W        W35836  34.559  21.404   2.657
69428W        W35837  10.548   5.651   3.336
69429W        W35838  18.715  19.651   3.947
69430W        W35839  10.865  29.971   2.700
69431W        W35840  38.075  42.584   0.254
69432W        W35841  19.631  21.039   4.556
69433W        W35842  24.443  15.805   1.270
69434W        W35843   8.705   9.975   4.215
69435W        W35844  44.543  25.046   2.099
69436W        W35845  26.408  17.312   1.714
69437W        W35846  15.544  33.617  11.908
69438W        W35847  17.743  20.421  10.326
69439W        W35848  28.655  26.031  10.743
69440W        W35849  29.009  33.126   4.115
69441W        W35850  29.218   2.202  12.118
69442W        W35851   9.339  37.513   3.698
69443W        W35852  40.901  32.170  10.444
69444W        W35853  18.841  31.629  13.444
69445W        W35854  18.177   1.035  13.453
69446W        W35855  37.355  12.219  14.276
69447W        W35856  10.828  14.797   4.063
69448W        W35857  26.247  38.887  14.330
69449W        W35858  41.941  17.188  10.608
69450W        W35859   6.307  28.907   9.913
69451W        W35860  12.154  13.670  11.060
69452W        W35861  23.160   9.612  12.346
69453W        W35862  13.661   7.446   3.207
69454W        W35863  27.680  24.217   3.016
69455W        W35864  34.612   3.647  12.098
69456W        W35865  34.127   4.748   0.849
69457W        W35866   7.146   9.283   0.806
69458W        W35867   8.280  33.102   1.249
69459W        W35868  21.691  18.069  14.511
69460W        W35869  36.340  11.925  13.494
69461W        W35870  14.331   2.386  10.656
69462W        W35871  14.568  23.961  11.597
69463W        W35872  20.610  26.451   1.363
69464W        W35873   7.414   7.986  13.935
69465W        W35874   6.413   1.387   2.818
69466W        W35875  16.089  28.029   2.718
69467W        W35876  25.749  15.254   0.232
69468W        W35877  11.699  18.126  13.405
69469W        W35878  25.909  30.906   4.030
69470W        W35879  41.421   2.300   3.321
69471W        W35880  15.329  33.588   0.406
69472W        W35881   1.386  34.307  13.847
69473W        W35882  11.781  20.015   0.492
69474W        W35883   2.822   9.001  14.619
69475W        W35884  26.688   7.992   4.091
69476W        W35885  29.122   7.217   4.340
69477W        W35886  15.126  17.468   0.259
69478W        W35887  36.048  23.999   4.029
69479W        W35888  25.545  44.417   5.127
69480W        W35889   1.669  15.990   2.808
69481W        W35890  18.211  44.785   4.508
69482W        W35891  38.922   3.649   4.237
69483W        W35892  36.353  30.917  10.737
69484W        W35893  11.080  21.637  12.306
69485W        W35894  33.105  44.591  13.982
69486W        W35895  24.930   7.159   4.102
69487W        W35896  13.882  38.059   3.150
69488W        W35897  24.752  16.174   0.258
69489W        W35898  23.731  21.702  12.160
69490W        W35899   7.701  43.270  10.696
69491W        W35900  24.107   9.973  12.665
69492W        W35901  28.198  11.211   1.205
69493W        W35902   9.682   4.990   2.529
69494W        W35903  27.616  12.285   2.388
69495W        W35904  24.968  35.329  12.828
69496W        W35905  44.550  13.856  11.127
69497W        W35906   8.661  41.221  14.755
69498W        W35907   1.837  16.970  12.721
69499W        W35908  25.175  16.050   2.903
69500W        W35909  16.161  12.853  13.369
69501W        W35910  26.376  43.298   2.354
69502W        W35911   2.313  22.684   0.799
69503W        W35912   3.666  40.042   4.085
69504W        W35913  37.617  43.543  12.497
69505W        W35914  43.440  40.402   1.261
69506W        W35915  30.404  37.986   2.439
69507W        W35916   9.743  40.879  14.491
69508W        W35917  43.595  36.455   0.310
69509W        W35918  32.075  17.684  13.961
69510W        W35919  43.897  11.114   4.092
69511W        W35920  23.989  23.501   3.691
69512W        W35921  37.317  15.381   1.145
69513W        W35922   4.045  21.577  11.045
69514W        W35923  14.149  42.205  14.558
69515W        W35924  26.466  37.248   5.015
69516W        W35925   4.903  20.946   1.430
69517W        W35926  31.382  42.867  14.080
69518W        W35927  44.609   7.463  14.450
69519W        W35928  33.519  13.370  13.484
69520W        W35929  39.018  36.936   2.178
69521W        W35930  39.457  40.623  12.454
69522W        W35931  23.168  21.021   3.291
69523W        W35932  42.538  28.442  11.684
69524W        W35933  24.513   5.781   4.669
69525W        W35934  37.506  44.866   4.534
69526W        W35935  27.505  35.022  12.174
69527W        W35936  23.845  34.384  12.109
69528W        W35937  23.176  33.725   4.897
69529W        W35938   5.544  35.082   2.111
69530W        W35939   1.079  14.348   9.952
69531W        W35940   5.308  42.202   3.154
69532W        W35941  42.853  11.784   5.334
69533W        W35942  21.492  21.740  14.293
69534W        W35943   8.769   5.733  14.818
69535W        W35944  35.162  22.178  10.903
69536W        W35945  16.070  39.998  13.394
69537W        W35946   0.174  43.872  12.022
69538W        W35947  15.355   4.442  14.373
69539W        W35948  23.269  17.622   3.140
69540W        W35949  27.977   4.904  14.377
69541W        W35950   9.094  33.896  12.870
69542W        W35951  20.780  23.507   3.129
69543W        W35952   7.742   8.179  11.602
69544W        W35953  42.482  13.749   0.425
69545W        W35954  23.749  19.697   2.691
69546W        W35955  23.609  31.378  14.572
69547W        W35956  35.903  12.082   4.586
69548W        W35957  17.714  34.678  14.568
69549W        W35958  39.151  37.266  11.948
69550W        W35959  34.377  11.725  11.033
69551W        W35960  35.312  22.005  12.133
69552W        W35961  19.989   9.822   0.228
69553W        W35962  29.039   5.805  11.483
69554W        W35963  19.745   4.695   0.696
69555W        W35964  15.353  15.127   2.433
69556W        W35965   8.355  11.667   1.773
69557W        W35966  29.464  19.226   1.948
69558W        W35967   5.562  33.728   4.192
69559W        W35968  41.254  36.929   0.361
69560W        W35969  19.049  19.594   4.779
69561W        W35970   3.807   7.966   4.050
69562W        W35971  34.041  26.123  10.426
69563W        W35972  30.691   5.767  11.705
69564W        W35973   0.736  36.085   4.684
69565W        W35974  40.425  43.743   1.656
69566W        W35975  11.403   3.525   4.415
69567W        W35976  25.069  18.843  13.984
69568W        W35977  43.580  43.538  14.033
69569W        W35978  28.607   3.958   0.471
69570W        W35979  33.828  42.920   1.810
69571W        W35980  34.918  24.148   5.069
69572W        W35981  12.684  43.390   3.308
69573W        W35982  19.241  16.857   4.115
69574W        W35983  32.041  35.316   4.125
69575W        W35984  13.162  21.354  13.509
69576W        W35985  24.930  10.727  10.906
69577W        W35986  29.025  14.519   3.100
69578W        W35987  35.248  34.346   1.620
69579W        W35988  21.801  31.013   3.640
69580W        W35989  10.578  38.802   2.215
69581W        W35990  14.851  18.572   3.107
69582W        W35991  30.864  39.824   3.695
69583W        W35992  34.563  30.830   2.935
69584W        W35993  28.235   5.029  13.003
69585W        W35994  36.934  16.789   4.220
69586W        W35995  35.095   6.840   1.381
69587W        W35996   3.787  41.647   2.401
69588W        W35997  40.380   3.657  12.098
69589W        W35998  24.296  42.518  12.581
69590W        W35999  15.241  14.361   3.159
69591W        W36000  24.267   2.501   4.184
69592W        W36001  17.677  26.058   3.173
69593W        W36002  26.234  12.674   2.706
69594W        W36003  18.202   8.362  10.532
69595W        W36004   7.033  25.640  14.826
69596W        W36005  16.493  18.084  11.686
69597W        W36006  41.970   1.459  13.357
69598W        W36007  35.157  27.379   4.238
69599W        W36008  17.853  31.111   4.795
69600W        W36009  19.567  44.351   3.211
69601W        W36010  31.851   3.317  11.661
69602W        W36011  40.074  29.513  13.980
69603W        W36012  10.390  32.304  12.006
69604W        W36013   3.808  41.173   2.204
69605W        W36014  34.275  21.656  12.981
69606W        W36015   2.289  14.839  14.379
69607W        W36016  30.849  33.075   0.364
69608W        W36017  14.156   2.549  11.986
69609W        W36018  44.488  20.739   2.277
69610W        W36019  19.151  24.466   4.146
69611W        W36020  24.220  12.395   4.380
69612W        W36021   2.761  13.179   3.036
69613W        W36022  43.536  12.489  12.740
69614W        W36023  25.444   1.840   2.804
69615W        W36024   4.539  30.127  12.222
69616W        W36025  14.482  10.051  14.698
69617W        W36026  26.677  15.626   2.126
69618W        W36027  23.596  29.116   3.310
69619W        W36028   7.177  12.319  12.829
69620W        W36029  24.426  27.118   4.224
69621W        W36030  38.880   9.630  11.784
69622W        W36031  26.027  32.638  11.167
69623W        W36032  41.237  26.143  14.463
69624W        W36033  35.010  33.782   4.804
69625W        W36034  30.975  28.429   3.245
69626W        W36035  13.212  24.498   0.438
69627W        W36036  26.122  26.303  10.624
69628W        W36037  44.481  31.028  12.510
69629W        W36038  17.125   9.187  12.392
69630W        W36039  32.111   7.452  14.198
69631W        W36040  44.408  22.326   2.194
69632W        W36041   6.835   4.268  12.828
69633W        W36042  35.810  21.467   0.005
69634W        W36043   8.501  38.398  12.681
69635W        W36044  41.020  14.891  10.544
69636W        W36045  25.888   7.636  13.517
69637W        W36046  36.488  39.740  10.633
69638W        W36047  12.685  37.122  14.287
69639W        W36048   6.832   5.796  11.067
69640W        W36049  25.692  30.030  12.852
69641W        W36050  24.735   7.069   2.390
69642W        W36051  31.818  38.162  11.026
69643W        W36052  24.032   1.706  10.753
69644W        W36053  16.536  13.150   0.242
69645W        W36054  24.691   0.718  12.979
69646W        W36055  32.533  15.035   0.971
69647W        W36056  27.525   4.412   3.629
69648W        W36057  43.197  30.535  12.066
69649W        W36058   4.270  16.115   3.778
69650W        W36059  41.850  29.908  12.540
69651W        W36060   4.154   9.115   1.328
69652W        W36061  32.432  20.635   0.847
69653W        W36062  21.066  16.301  10.418
69654W        W36063  31.256  33.565   2.142
69655W        W36064  13.694  12.589  13.282
69656W        W36065  25.874   3.365   4.619
69657W        W36066   3.944  28.878   0.345
69658W        W36067  23.839  37.889   5.079
69659W        W36068  23.564  20.533  13.144
69660W        W36069   6.110  39.049  14.307
69661W        W36070   5.732  21.166   0.522
69662W        W36071  17.338  13.662   1.350
69663W        W36072   3.836  24.290   4.959
69664W        W36073  19.262  43.711   1.017
69665W        W36074   9.795  28.647  10.973
69666W        W36075  37.428  23.031  12.954
69667W        W36076  29.587  22.498   3.236
69668W        W36077  11.077  40.398   3.647
69669W        W36078  36.916   5.014  11.967
69670W        W36079  22.623  14.673   4.106
69671W        W36080  22.503  41.125  10.501
69672W        W36081  30.950  14.143   1.349
69673W        W36082  32.485  37.225   2.556
69674W        W36083  38.618   7.609  12.643
69675W        W36084  24.056   3.699   2.636
69676W        W36085  40.007  12.268   4.138
69677W        W36086  19.614  15.735   1.904
69678W        W36087  23.256  12.904   1.865
69679W        W36088  26.079  15.743  10.031
69680W        W36089  39.316  17.614  11.801
69681W        W36090  37.832  33.605  13.874
69682W        W36091  16.034  23.169   1.681
69683W        W36092  28.756  23.319   3.304
69684W        W36093  36.069  24.936  11.884
69685W        W36094  19.758  32.297   2.289
69686W        W36095  37.680   1.164  10.976
69687W        W36096  20.183  40.790  10.302
69688W        W36097  43.318  13.766  11.661
69689W        W36098  41.022  33.265  13.952
69690W        W36099  36.772  43.727  12.519
69691W        W36100   0.685  36.458  12.026
69692W        W36101  17.809  14.011   3.786
69693W        W36102  27.911   5.384   3.808
69694W        W36103  28.430  16.987  14.448
69695W        W36104   2.921  37.583  13.463
69696W        W36105   5.078  34.893  12.170
69697W        W36106  41.327   3.464   2.517
69698W        W36107   1.508   7.443  12.850
69699W        W36108  36.897  19.745   0.767
69700W        W36109  18.713   7.391   0.284
69701W        W36110   3.989  34.622  10.309
69702W        W36111  26.592  19.234  13.471
69703W        W36112  23.371  21.014   1.853
69704W        W36113  43.932  20.763   0.045
69705W        W36114  20.519  31.246  13.809
69706W        W36115  16.751  43.631   3.633
69707W        W36116  36.920  32.013   2.929
69708W        W36117   1.182  24.074   0.672
69709W        W36118  26.209  11.720   4.524
69710W        W36119  41.913  32.795   0.962
69711W        W36120  41.443  17.850  14.965
69712W        W36121  42.467  10.357  11.766
69713W        W36122  11.938  25.476   1.057
69714W        W36123   3.063   1.583  10.479
69715W        W36124  30.564  13.539  12.657
69716W        W36125  18.624  18.548   4.150
69717W        W36126  16.249  35.522   3.011
69718W        W36127  24.427  17.627  10.771
69719W        W36128  43.834  31.573  12.369
69720W        W36129  26.307  24.931  14.581
69721W        W36130  29.409  19.301   4.734
69722W        W36131  21.173  29.525  14.265
69723W        W36132   0.221   5.307   4.068
69724W        W36133  32.420  35.844   3.750
69725W        W36134  23.562   2.425   0.288
69726W        W36135  34.455   0.540  10.650
69727W        W36136  10.089  29.043  14.090
69728W        W36137   4.816  42.984  12.658
69729W        W36138   3.253  10.707   0.864
69730W        W36139  30.494  26.396  11.071
69731W        W36140  22.452  43.975  14.480
69732W        W36141  12.785  17.759   2.311
69733W        W36142  37.811  11.327  14.761
69734W        W36143   4.732   5.874  14.486
69735W        W36144  41.554  10.182  13.959
69736W        W36145   1.217   5.024  13.855
69737W        W36146   8.285  37.802   2.407
69738W        W36147  30.557  36.001  10.778
69739W        W36148  22.605  17.282  14.993
69740W        W36149  22.744  29.227   2.810
69741W        W36150  42.380  13.107  13.908
69742W        W36151   2.736   5.155   1.273
69743W        W36152  33.875  25.511  12.639
69744W        W36153  36.601  38.522  11.151
69745W        W36154  30.258  43.907  13.266
69746W        W36155  10.645  35.802   4.258
69747W        W36156  35.018  37.440  12.483
69748W        W36157   2.876  25.187   4.540
69749W        W36158  32.783  21.738  11.550
69750W        W36159   8.265  43.328   3.886
69751W        W36160  16.154   2.773   0.414
69752W        W36161   5.358  32.985  14.754
69753W        W36162  22.680   1.765  14.023
69754W        W36163  32.649  28.180   3.390
69755W        W36164  41.110   3.648   2.095
69756W        W36165   8.919  40.854   2.767
69757W        W36166  36.247  14.192   5.184
69758W        W36167   3.049   2.342   0.235
69759W        W36168   4.027   1.992  12.187
69760W        W36169  27.421  23.740   4.295
69761W        W36170   9.258  29.356   3.164
69762W        W36171   3.919  34.300  13.915
69763W        W36172  18.202  38.026   4.755
69764W        W36173   3.369   8.280   0.331
69765W        W36174  32.327  10.210   1.355
69766W        W36175  38.805   6.856   4.772
69767W        W36176  20.685  34.790   1.216
69768W        W36177  28.211  23.047  12.588
69769W        W36178  39.917  20.948   5.035
69770W        W36179  25.520   5.944   1.755
69771W        W36180   8.641  29.627   3.595
69772W        W36181  30.827  22.194   2.884
69773W        W36182  24.782  43.030  12.096
69774W        W36183  32.164  12.420   1.710
69775W        W36184  37.137  19.947  13.165
69776W        W36185   1.509  33.094  14.279
69777W        W36186  28.189   7.140   0.278
69778W        W36187   2.424   8.426  14.840
69779W        W36188  38.692   3.189   4.070
69780W        W36189  12.262  20.589   3.541
69781W        W36190  30.213  39.303   2.216
69782W        W36191  34.621  18.074   2.316
69783W        W36192  43.424  38.525   1.721
69784W        W36193  39.326  37.836   3.192
69785W        W36194  32.057  34.042  10.701
69786W        W36195  32.584   9.762   3.208
69787W        W36196  36.283  43.971  12.474
69788W        W36197  35.829  43.771  14.949
69789W        W36198  44.557  28.318   3.294
69790W        W36199  37.860  11.544   4.609
69791W        W36200  17.426  29.695  13.472
69792W        W36201  41.812  25.189   3.192
69793W        W36202  44.002  22.598   2.385
69794W        W36203  23.054  21.281   0.088
69795W        W36204  36.554   7.009  14.601
69796W        W36205  12.702   7.966   1.118
69797W        W36206  10.422  28.113   3.115
69798W        W36207  14.307  29.942   1.665
69799W        W36208  19.325   2.947  13.984
69800W        W36209  22.543  28.086  11.462
69801W        W36210  38.302  22.271   4.046
69802W        W36211  19.820   6.258  13.906
69803W        W36212   5.986  39.049   4.943
69804W        W36213  33.400  11.271  13.736
69805W        W36214  11.242  30.517  12.498
69806W        W36215  27.285  26.072   1.776
69807W        W36216   0.856   2.670  12.389
69808W        W36217  32.132  20.777  12.105
69809W        W36218   7.088  22.586  14.661
69810W        W36219   6.130  36.579  13.440
69811W        W36220  33.361   9.653  14.388
69812W        W36221   1.405  41.956   3.638
69813W        W36222  35.421  34.312   0.365
69814W        W36223  11.957  39.924   2.383
69815W        W36224  38.279   2.437  12.853
69816W        W36225  22.385  16.147   1.665
69817W        W36226   8.666   8.101   1.878
69818W        W36227  35.576  39.999   3.555
69819W        W36228  38.690  30.931  12.086
69820W        W36229  42.138  43.083  13.305
69821W        W36230  32.632  18.797  12.120
69822W        W36231  19.520  40.740  12.530
69823W        W36232  28.729  28.500   2.659
69824W        W36233  11.684   6.391   1.186
69825W        W36234   3.194   1.971   3.275
69826W        W36235  10.240   7.926   2.694
69827W        W36236  27.724  11.719   1.824
69828W        W36237  10.191   6.924   0.455
69829W        W36238   0.760   8.630  11.141
69830W        W36239  23.277  37.086   3.264
69831W        W36240   6.349  17.722  14.034
69832W        W36241  35.931   3.561   2.911
69833W        W36242  14.323  37.015  12.116
69834W        W36243  12.391  44.701   3.215
69835W        W36244  17.367  28.723   1.087
69836W        W36245  20.171   2.932  14.902
69837W        W36246   0.195   1.033  12.941
69838W        W36247  18.156   6.953  12.452
69839W        W36248  40.319  25.543   3.183
69840W        W36249  34.451  24.569   4.332
69841W        W36250  16.776  43.931   4.094
69842W        W36251  34.723   6.189   0.902
69843W        W36252   3.737  18.389   0.355
69844W        W36253   7.993  24.694   1.463
69845W        W36254   4.988   6.250  11.457
69846W        W36255  11.058   2.918  10.748
69847W        W36256  26.825  30.500   0.749
69848W        W36257  28.608  39.036  11.631
69849W        W36258  22.207  11.696   3.639
69850W        W36259  38.612  34.491  13.601
69851W        W36260  42.344  20.321  12.094
69852W        W36261  18.848  17.242   2.167
69853W        W36262  30.533  22.984   3.313
69854W        W36263  20.795  36.480   0.267
69855W        W36264  42.104  39.302  11.154
69856W        W36265  23.147  38.379   1.436
69857W        W36266   9.310  27.043  11.989
69858W        W36267  36.017  15.337  14.385
69859W        W36268  18.328  15.614   1.023
69860W        W36269  44.877  29.073   0.310
69861W        W36270  36.160  25.511   4.424
69862W        W36271  22.859  44.235  11.092
69863W        W36272  39.511  41.982   2.828
69864W        W36273   9.379  13.122  13.456
69865W        W36274   8.820  30.109   2.864
69866W        W36275   6.567  34.648  12.427
69867W        W36276  13.599  29.041  13.265
69868W        W36277  38.356   4.813  11.961
69869W        W36278  24.109   3.353  12.117
69870W        W36279  30.187  35.891  11.224
69871W        W36280  20.512  38.016   3.054
69872W        W36281   2.762  23.532  14.232
69873W        W36282  42.087  31.966   1.249
69874W        W36283  29.832  43.901  10.686
69875W        W36284  11.740  13.732   2.112
69876W        W36285  34.482  17.681   0.731
69877W        W36286  22.588  25.908   0.829
69878W        W36287  41.534  33.803  12.636
69879W        W36288  44.496  14.684  14.776
69880W        W36289  15.514   6.839   0.919
69881W        W36290  34.575   7.466   2.178
69882W        W36291  22.560  10.099  12.063
69883W        W36292   9.968   3.260  14.521
69884W        W36293  28.096   3.988  12.811
69885W        W36294  42.871  24.108   0.733
69886W        W36295  15.218   7.611   0.407
69887W        W36296  25.534  29.174  11.599
69888W        W36297  15.093  30.960  13.555
69889W        W36298  43.505  26.406   3.249
69890W        W36299  32.727   3.919  12.993
69891W        W36300  23.144  35.838   3.852
69892W        W36301  44.821   3.984   2.745
69893W        W36302  35.696  26.495  14.674
69894W        W36303  34.092  29.133   4.230
69895W        W36304  13.386  13.890   1.154
69896W        W36305   8.378  25.547  13.889
69897W        W36306   0.477   1.717  13.514
69898W        W36307  14.654   1.758  11.227
69899W        W36308  41.562  23.585  11.556
69900W        W36309  19.828  20.846  12.775
69901W        W36310  11.525  24.569  13.851
69902W        W36311  12.679  32.388   5.482
69903W        W36312  22.573   7.489  13.429
69904W        W36313   8.829  26.012   0.946
69905W        W36314  28.534  24.179   2.649
69906W        W36315  34.839  39.410  14.356
69907W        W36316   7.121  13.983  11.035
69908W        W36317   0.786  14.103  14.969
69909W        W36318  32.932  30.218   1.751
69910W        W36319  42.678  29.608  11.249
69911W        W36320  13.967  16.222  12.373
69912W        W36321   3.787   3.213   5.427
69913W        W36322  22.587  34.876  13.884
69914W        W36323  20.655  31.154  11.074
69915W        W36324  40.509  19.472   1.359
69916W        W36325  13.326  28.561  12.132
69917W        W36326  39.445  19.150   1.303
69918W        W36327  29.226  11.635   0.069
69919W        W36328  25.676  30.017   0.429
69920W        W36329  19.797  41.459  14.289
69921W        W36330  19.513   9.191   2.695
69922W        W36331   1.079  39.453   1.969
69923W        W36332   4.934  23.758  13.950
69924W        W36333  24.132  13.594  13.902
69925W        W36334  42.925   7.730  11.554
69926W        W36335  22.481  41.442   5.114
69927W        W36336  33.239   2.931   3.086
69928W        W36337  14.744  39.828  13.441
69929W        W36338  36.577  19.556  11.161
69930W        W36339  38.794  23.616  14.700
69931W        W36340  11.126  22.161   3.382
69932W        W36341   5.896  32.418  12.047
69933W        W36342   0.339  18.659   4.198
69934W        W36343  21.375   9.137  13.979
69935W        W36344  15.191  18.482  11.246
69936W        W36345  44.066   6.406   0.785
69937W        W36346  44.821   1.058   3.708
69938W        W36347   0.504  27.549   3.717
69939W        W36348  41.346   3.346  11.176
69940W        W36349  39.133  42.829  14.906
69941W        W36350  29.995  22.202   2.296
69942W        W36351  35.883   4.658  13.327
69943W        W36352  21.262  43.533  14.849
69944W        W36353   0.831  12.891  12.486
69945W        W36354  13.880  38.798   2.551
69946W        W36355   4.689  21.059  14.932
69947W        W36356   5.290  13.117   1.169
69948W        W36357   5.303  32.725   4.081
69949W        W36358  10.825  21.961   0.829
69950W        W36359  35.897  36.011  13.897
69951W        W36360  12.245  43.265   0.313
69952W        W36361   1.996  30.946  10.952
69953W        W36362   0.014  11.856   4.279
69954W        W36363  17.570  25.184   3.652
69955W        W36364  22.233   9.894  11.173
69956W        W36365  16.784   2.280   0.936
69957W        W36366  22.195   3.732  10.658
69958W        W36367  32.508  22.801   3.818
69959W        W36368  27.436  23.672  14.795
69960W        W36369  19.319  39.148  12.883
69961W        W36370  20.752  13.780   1.381
69962W        W36371   1.332  23.001   2.333
69963W        W36372  32.811  15.383   3.415
69964W        W36373  39.506  44.707   4.812
69965W        W36374  16.283  43.434   3.634
69966W        W36375  24.929  32.155  14.829
69967W        W36376  13.206  40.317   4.142
69968W        W36377  35.038  25.196   2.359
69969W        W36378  40.756  19.151  11.529
69970W        W36379   9.123  11.247   3.825
69971W        W36380  37.877  25.778  11.567
69972W        W36381  39.618  35.192   4.668
69973W        W36382   0.776  42.588   0.775
69974W        W36383  42.411  27.449  14.035
69975W        W36384  42.824   8.044   1.423
69976W        W36385  24.514  11.053  12.549
69977W        W36386  33.186   3.742   3.743
69978W        W36387  30.118  26.780  13.251
69979W        W36388  17.491  31.630   1.397
69980W        W36389  33.766  21.753  12.971
69981W        W36390  15.471  34.866   3.312
69982W        W36391  33.861  12.396   3.695
69983W        W36392  31.691  27.168   0.781
69984W        W36393  26.910  23.312   2.319
69985W        W36394  30.985  34.036   1.954
69986W        W36395  33.251  29.176   4.860
69987W        W36396  27.049  37.075  12.814
69988W        W36397  10.653  18.316  11.149
69989W        W36398  38.889  31.638  14.346
69990W        W36399   2.355  22.958   1.257
69991W        W36400  13.201  34.821   1.617
69992W        W36401  19.228  42.542  12.278
69993W        W36402  31.887  44.227  12.981
69994W        W36403  11.384  11.587   3.787
69995W        W36404  23.433  15.212  14.966
69996W        W36405   3.932  34.287   3.678
69997W        W36406  12.456   5.352   2.716
69998W        W36407  43.426  23.456   3.165
69999W        W36408   7.458  19.264   1.828
70000W        W36409  43.266  23.851   4.544
70001W        W36410   8.892   5.204  11.535
70002W        W36411  11.667  24.369  11.589
70003W        W36412  18.134  26.432   0.972
70004W        W36413  38.019  37.928  13.530
70005W        W36414  13.590  31.460   0.332
70006W        W36415  16.500  29.582   1.031
70007W        W36416  10.013  14.259  11.160
70008W        W36417   4.310  14.355   2.237
70009W        W36418  35.165  24.311  14.287
70010W        W36419   1.795   3.910  14.781
70011W        W36420  18.464  41.208  10.164
70012W        W36421  42.173  29.843   1.549
70013W        W36422  36.134  30.298   4.771
70014W        W36423  39.281  24.669   2.386
70015W        W36424  22.204  21.431   1.840
70016W        W36425  15.176   5.849   1.701
70017W        W36426   5.957  14.059  12.969
70018W        W36427  34.922  31.923   1.772
70019W        W36428  44.925  39.327  13.075
70020W        W36429  28.276  30.467  11.483
70021W        W36430   6.296  41.512  11.248
70022W        W36431  12.439   0.920   1.762
70023W        W36432   8.712  13.897  12.143
70024W        W36433  34.706   8.579  13.033
70025W        W36434   7.640   2.777  11.138
70026W        W36435  35.135  36.162  13.347
70027W        W36436   5.713  28.620   0.763
70028W        W36437  12.705  27.980   3.677
70029W        W36438   0.936  25.807  14.573
70030W        W36439  20.014   1.210   1.219
70031W        W36440  30.185  23.716   3.553
70032W        W36441  44.946  26.603   4.440
70033W        W36442  12.972  31.723  12.722
70034W        W36443  12.283  13.738   4.554
70035W        W36444  21.842  29.028  12.124
70036W        W36445  37.181  36.830   5.089
70037W        W36446  40.295  24.810   0.159
70038W        W36447   6.515   4.508  13.663
70039W        W36448  32.168  15.602   1.319
70040W        W36449   4.218  37.572  13.874
70041W        W36450   8.712  27.536   1.941
70042W        W36451  38.128  26.059   3.498
70043W        W36452  20.511  19.164  11.530
70044W        W36453  21.925  40.462   4.834
70045W        W36454   8.909   7.223   4.601
70046W        W36455  11.195  40.482   2.768
70047W        W36456  36.946  24.215   1.167
70048W        W36457   2.160  39.335  13.288
70049W        W36458  37.764  10.449   3.748
70050W        W36459  25.927  39.670  12.074
70051W        W36460  11.281   8.223  14.536
70052W        W36461  18.055  37.167  14.414
70053W        W36462   1.461  30.753  11.991
70054W        W36463  25.993  27.743  12.856
70055W        W36464  41.833  20.843  13.771
70056W        W36465   7.893  36.355  12.958
70057W        W36466  35.837  35.649   1.372
70058W        W36467  40.005   0.684  10.909
70059W        W36468  37.958  14.799  14.820
70060W        W36469  15.886  28.014  11.549
70061W        W36470  19.068  11.854   1.496
70062W        W36471  43.075  44.372  12.436
70063W        W36472  42.995  21.546  12.017
70064W        W36473  18.220  28.682  10.615
70065W        W36474   2.411  42.428   1.125
70066W        W36475  24.997  42.313   1.537
70067W        W36476  18.476  43.249  10.143
70068W        W36477  38.939  29.553  14.391
70069W        W36478  10.968  32.944  12.956
70070W        W36479   3.343  17.110   2.741
70071W        W36480  14.739  21.401  12.703
70072W        W36481  42.430   8.165   3.624
70073W        W36482   9.471  43.190   3.339
70074W        W36483  21.670  40.428   1.960
70075W        W36484  42.876   3.152  13.789
70076W        W36485  31.828  20.137   1.768
70077W        W36486  43.906  27.867  12.898
70078W        W36487  43.119  42.539  12.773
70079W        W36488  28.707  27.687   0.421
70080W        W36489  38.973  16.814  14.309
70081W        W36490  41.904  37.273   3.679
70082W        W36491  44.376  18.078  14.302
70083W        W36492  31.764  40.153  10.335
70084W        W36493   5.143  22.611   2.248
70085W        W36494  38.091   4.187  13.196
70086W        W36495  33.365  19.146  11.983
70087W        W36496  43.300  30.887  10.891
70088W        W36497  11.307  24.474   4.693
70089W        W36498   2.833  28.789   1.678
70090W        W36499  12.544  10.305   0.807
70091W        W36500  33.081  39.407   4.088
70092W        W36501  19.790  17.071   2.392
70093W        W36502  21.968   4.217   0.290
70094W        W36503  36.950   3.014   4.551
70095W        W36504  20.774   4.210   4.716
70096W        W36505  32.037  23.356   2.258
70097W        W36506  12.289  43.025   1.715
70098W        W36507  39.070  34.238  10.095
70099W        W36508  32.953  19.113  14.143
70100W        W36509  31.222  32.026   3.686
70101W        W36510  10.053  12.877   2.454
70102W        W36511   0.194  35.507  13.322
70103W        W36512  27.717  23.137  13.445
70104W        W36513  15.149   3.164  12.219
70105W        W36514  15.709  42.066  13.099
70106W        W36515   5.776  17.932  11.950
70107W        W36516  36.615   3.803   3.548
70108W        W36517   6.957  15.393   2.423
70109W        W36518  40.602  23.348  12.881
70110W        W36519  37.247  28.054   4.453
70111W        W36520  35.162   4.398  11.587
70112W        W36521  31.193  43.290   0.332
70113W        W36522  19.535  22.501   3.903
70114W        W36523  22.524  36.831   0.725
70115W        W36524  39.942  20.108   0.058
70116W        W36525   5.243   6.727  12.365
70117W        W36526  29.396  39.574   3.623
70118W        W36527  10.406   3.959  13.019
70119W        W36528  30.964  40.339   0.405
70120W        W36529   6.783  31.142  10.933
70121W        W36530  41.755  24.468  13.413
70122W        W36531  11.659  43.824  13.803
70123W        W36532  33.367   8.243   4.893
70124W        W36533   1.344  43.503   1.931
70125W        W36534  15.332  43.267   1.784
70126W        W36535   9.584  43.477   1.617
70127W        W36536  40.878   1.029  12.780
70128W        W36537  20.062   3.019   1.376
70129W        W36538  24.917  13.556  13.203
70130W        W36539   5.143  33.368   2.706
70131W        W36540  30.105  11.332  13.471
70132W        W36541  35.321  25.536   4.658
70133W        W36542  23.910   3.323   4.834
70134W        W36543  23.676   4.770  11.882
70135W        W36544   5.876   5.913  12.707
70136W        W36545  20.468  22.623  12.948
70137W        W36546  15.812  42.321  12.666
70138W        W36547  39.394  25.001  13.001
70139W        W36548  36.760  43.271   1.148
70140W        W36549   9.757  23.243   9.844
70141W        W36550  43.945  32.376   2.509
70142W        W36551   3.364   7.834   4.311
70143W        W36552   3.576   0.320   2.978
70144W        W36553   3.734   0.227  12.041
70145W        W36554  29.545   6.609  13.410
70146W        W36555  12.807  22.692   4.156
70147W        W36556  14.856   3.714   3.154
70148W        W36557   0.576  16.201   3.357
70149W        W36558  44.942  13.885   2.904
70150W        W36559  21.633  31.364  14.231
70151W        W36560  39.942  32.541   4.798
70152W        W36561  19.785  33.004  14.543
70153W        W36562   0.011   3.040  13.456
70154W        W36563  13.313  22.439  11.121
70155W        W36564  31.052  29.931  11.685
70156W        W36565  15.650  33.630   2.418
70157W        W36566  33.763  34.048  13.444
70158W        W36567   5.612  18.649  11.399
70159W        W36568  17.256  12.366   1.756
70160W        W36569  43.548  14.282   4.143
70161W        W36570  19.624  25.179   2.430
70162W        W36571   6.896  20.194  13.914
70163W        W36572  44.524   6.235  11.912
70164W        W36573  25.530  34.023   0.900
70165W        W36574  13.779  32.709  14.057
70166W        W36575   6.037   8.725   3.693
70167W        W36576  39.527  40.284  11.145
70168W        W36577   6.393   0.103   3.205
70169W        W36578  26.089  27.524  12.396
70170W        W36579  19.111  27.638   3.795
70171W        W36580  29.402  18.003  12.826
70172W        W36581   8.925   4.311   0.553
70173W        W36582   7.600   3.248   2.340
70174W        W36583  35.340  23.949  13.888
70175W        W36584  32.884   5.882   0.025
70176W        W36585   0.418   2.681  13.422
70177W        W36586  38.838  15.340  11.619
70178W        W36587   7.676  35.494   9.976
70179W        W36588  12.687  44.531  13.002
70180W        W36589  22.541  26.922  13.635
70181W        W36590  28.160  26.568   4.626
70182W        W36591  24.189  20.727  10.410
70183W        W36592   7.031  23.635   3.828
70184W        W36593  14.719  34.862   0.813
70185W        W36594   0.015  24.899  10.725
70186W        W36595  34.399  21.091  10.544
70187W        W36596  35.497  23.761   0.057
70188W        W36597   1.914  19.316  14.442
70189W        W36598   5.692  20.206   3.675
70190W        W36599  21.408  42.076   5.082
70191W        W36600  34.348   5.244  14.303
70192W        W36601  25.297  15.133  11.006
70193W        W36602   3.761  20.092  14.533
70194W        W36603  28.834  27.836  12.331
70195W        W36604  36.048  32.670   1.772
70196W        W36605   2.990  23.058  13.437
70197W        W36606  13.156  43.492  11.873
70198W        W36607   6.673  21.098   0.011
70199W        W36608  20.215   6.133  11.171
70200W        W36609  10.256  41.751  13.874
70201W        W36610  25.463  37.607  12.947
70202W        W36611   4.814  10.620   3.121
70203W        W36612   8.829   9.132  11.948
70204W        W36613  16.414  31.843   4.125
70205W        W36614  16.982  15.093  10.259
70206W        W36615   8.161  27.952   3.041
70207W        W36616  29.217  16.104  13.999
70208W        W36617  30.665  35.248  14.765
70209W        W36618  21.769  39.250  12.928
70210W        W36619  35.406  35.947   1.459
70211W        W36620  35.010   6.281  13.974
70212W        W36621  33.695  23.386   4.836
70213W        W36622   7.001  23.770   2.439
70214W        W36623   9.661   1.415   0.677
70215W        W36624  43.881  36.495  11.070
70216W        W36625   1.859  13.730   4.163
70217W        W36626  39.365   8.272   0.921
70218W        W36627  27.678   6.960  11.063
70219W        W36628   8.247   8.772  14.995
70220W        W36629  38.817  31.515   2.371
70221W        W36630  10.988  12.160  12.055
70222W        W36631  36.358   1.763  12.019
70223W        W36632   3.846  20.248  10.490
70224W        W36633  30.005  14.753  11.514
70225W        W36634  13.382  38.621  10.366
70226W        W36635  44.804   0.832   1.691
70227W        W36636  42.019  16.356  11.582
70228W        W36637  26.129  14.061  14.856
70229W        W36638  11.658  30.597   2.884
70230W        W36639  33.836  22.750  11.028
70231W        W36640   3.178  41.394  13.472
70232W        W36641  10.718  31.372   4.205
70233W        W36642  10.291  30.054   1.817
70234W        W36643  18.614  33.971   0.414
70235W        W36644  26.166   8.108   1.630
70236W        W36645  29.018   9.235   2.664
70237W        W36646   3.361   3.711   0.822
70238W        W36647   2.076  10.124   4.137
70239W        W36648  35.452  26.465   3.751
70240W        W36649  16.380  15.359  12.070
70241W        W36650  26.960   3.779  12.127
70242W        W36651  43.180  15.872   0.495
70243W        W36652   1.189   3.673   0.352
70244W        W36653  32.494  26.089  11.747
70245W        W36654  36.028  40.348   0.644
70246W        W36655  40.300   5.633  11.549
70247W        W36656  13.852  20.534   3.203
70248W        W36657  35.545  19.359   0.973
70249W        W36658   1.079  10.331   4.174
70250W        W36659  36.531  31.588  14.313
70251W        W36660  37.591  35.979  13.874
70252W        W36661  12.456  38.685   1.962
70253W        W36662   9.984  17.650  11.503
70254W        W36663  18.160  10.650  13.041
70255W        W36664  44.392  13.069   1.757
70256W        W36665  22.192  30.140  14.036
70257W        W36666   5.979   2.162  13.428
70258W        W36667  19.464  39.873  10.764
70259W        W36668  11.820  14.405   1.422
70260W        W36669   4.925  32.867   4.601
70261W        W36670  24.669  21.341  10.080
70262W        W36671  18.997  38.047   0.559
70263W        W36672  14.590  17.666   1.907
70264W        W36673  38.570  13.700  13.061
70265W        W36674  40.349  27.653  13.453
70266W        W36675  34.084  41.216  11.995
70267W        W36676  10.861  20.803   3.853
70268W        W36677  37.043   0.849   1.456
70269W        W36678  17.865  26.523   3.448
70270W        W36679   0.999  20.688   0.226
70271W        W36680   8.619  36.167  13.461
70272W        W36681  29.488   0.467   0.497
70273W        W36682  13.795   3.683  12.433
70274W        W36683   0.870  41.297  13.528
70275W        W36684   1.419  10.876  13.757
70276W        W36685  13.208   9.525  11.172
70277W        W36686  32.295  20.957   2.204
70278W        W36687  44.204  13.771   3.705
70279W        W36688  33.388  13.424   4.106
70280W        W36689  15.146  24.542  13.122
70281W        W36690  16.829  12.586   2.854
70282W        W36691  36.425  19.488   0.728
70283W        W36692  32.474   4.277   4.166
70284W        W36693  10.813  20.628  13.074
70285W        W36694  31.118  25.834   2.768
70286W        W36695   7.374  23.590   1.303
70287W        W36696  20.853  42.332  14.255
70288W        W36697  32.661  32.385   0.690
70289W        W36698  18.592   4.767   2.246
70290W        W36699  13.942  27.636  12.039
70291W        W36700  40.857   8.596   9.754
70292W        W36701   2.928   1.785   4.625
70293W        W36702  22.432   3.716  13.933
70294W        W36703  12.901   6.685   0.344
70295W        W36704  31.856  37.124   1.166
70296W        W36705  12.351  19.305  12.571
70297W        W36706  19.322  19.784  14.533
70298W        W36707   7.612  14.576   3.313
70299W        W36708  28.719  28.487  12.877
70300W        W36709  25.443  37.063   1.761
70301W        W36710  34.161  38.555   0.269
70302W        W36711  39.331   7.588   2.072
70303W        W36712  26.865  26.688  12.708
70304W        W36713  25.655  35.719  12.667
70305W        W36714  24.756  31.991   1.910
70306W        W36715  35.079  10.693  14.997
70307W        W36716   3.094  27.099   2.072
70308W        W36717  12.608  35.533   3.125
70309W        W36718  41.426  29.029   2.771
70310W        W36719   7.974   0.761   1.378
70311W        W36720  43.112  18.554  11.533
70312W        W36721   5.956  11.345   1.429
70313W        W36722  20.821  26.915  13.560
70314W        W36723  23.348  44.478  14.345
70315W        W36724   9.113  39.582   3.761
70316W        W36725   7.270   0.457   4.845
70317W        W36726  11.865   2.999  13.818
70318W        W36727  37.538  15.359   4.675
70319W        W36728   9.319   7.661  13.981
70320W        W36729  26.036  24.028   2.984
70321W        W36730   5.492  26.005   4.212
70322W        W36731  23.091  26.308   2.454
70323W        W36732  44.254   8.596   5.433
70324W        W36733  41.931  17.160  14.899
70325W        W36734   4.714   3.269  10.148
70326W        W36735  18.095  39.195   2.101
70327W        W36736   0.472  28.027   2.821
70328W        W36737  33.512  10.266  12.834
70329W        W36738  43.269  21.761  10.895
70330W        W36739  35.987  19.317  14.266
70331W        W36740   4.239  20.495   2.285
70332W        W36741   6.338  41.024  11.137
70333W        W36742  30.502  37.012   0.769
70334W        W36743  39.999  25.001   0.585
70335W        W36744  33.037  44.937   3.147
70336W        W36745  32.475  44.596   0.305
70337W        W36746  32.921  34.992   2.893
70338W        W36747  16.888   9.400   0.939
70339W        W36748  27.170  23.998  12.453
70340W        W36749   3.461  36.077   4.278
70341W        W36750   6.318   2.666  10.591
70342W        W36751  23.390  38.895  14.011
70343W        W36752  38.533  14.242   1.204
70344W        W36753  27.451  14.205  11.983
70345W        W36754   8.412   9.447   1.650
70346W        W36755  16.528   3.466   4.854
70347W        W36756  41.525  17.296  10.321
70348W        W36757  38.849  18.699   5.592
70349W        W36758  39.670  21.372   3.655
70350W        W36759  40.056  11.688  14.350
70351W        W36760  42.934  20.699  12.612
70352W        W36761   3.901  25.584  12.802
70353W        W36762  29.169  27.168   3.313
70354W        W36763  36.051   3.850  12.339
70355W        W36764  20.022   5.828   2.361
70356W        W36765   5.862  34.087   3.986
70357W        W36766  22.123  17.285  14.771
70358W        W36767   2.958   7.295  11.738
70359W        W36768  28.692   3.961   0.994
70360W        W36769  32.900  25.173  11.332
70361W        W36770  23.158   7.820   1.634
70362W        W36771   5.807  40.456   3.398
70363W        W36772  31.431  36.959   2.694
70364W        W36773  41.188   9.307   3.784
70365W        W36774  17.816  16.650   2.717
70366W        W36775  16.688  42.693  13.958
70367W        W36776  18.342  43.545  13.593
70368W        W36777   1.760  18.261  12.537
70369W        W36778  32.816  33.942   2.482
70370W        W36779  17.288  39.015  13.995
70371W        W36780  44.326   6.770   3.767
70372W        W36781  31.148  22.063   4.784
70373W        W36782  16.691   6.191   2.419
70374W        W36783  37.479  43.790  14.845
70375W        W36784  30.700  15.073  14.342
70376W        W36785  27.093  41.735   5.140
70377W        W36786  27.963  30.038  12.553
70378W        W36787  30.901  41.975  14.286
70379W        W36788  10.370  20.189   0.551
70380W        W36789  16.649  43.460   2.287
70381W        W36790  21.413   0.155  14.389
70382W        W36791  32.024  26.974  11.624
70383W        W36792  44.021  25.407  12.982
70384W        W36793  42.432  14.031   4.942
70385W        W36794  11.138   5.855   1.426
70386W        W36795  10.836  42.014  12.042
70387W        W36796  27.241  13.210   4.576
70388W        W36797  26.123  34.437   0.290
70389W        W36798   5.487  31.446  13.410
70390W        W36799   8.409  16.167   3.483
70391W        W36800  23.535  37.617   4.565
70392W        W36801  20.220  27.533  12.954
70393W        W36802  11.123  23.189   4.315
70394W        W36803   2.434  28.551  13.408
70395W        W36804  25.490  10.730   4.561
70396W        W36805  40.335  40.791   1.377
70397W        W36806   6.784  16.052  12.687
70398W        W36807  34.677  25.908   3.526
70399W        W36808  19.429   0.922  12.957
70400W        W36809  11.382  19.284  14.724
70401W        W36810  14.396   6.679  13.586
70402W        W36811   2.255  36.897  12.157
70403W        W36812  35.434  25.926  14.068
70404W        W36813  14.723  24.582   1.251
70405W        W36814  14.006  24.177   1.240
70406W        W36815   7.139  38.372  14.988
70407W        W36816  21.490   5.801   3.395
70408W        W36817  22.645  40.534  14.010
70409W        W36818  40.529  42.562   3.787
70410W        W36819   7.829  19.408   3.906
70411W        W36820  39.143  32.058  13.920
70412W        W36821  36.326   9.202   1.245
70413W        W36822  34.699  29.751  12.423
70414W        W36823  44.880  37.991   1.753
70415W        W36824  36.977  28.213  12.948
70416W        W36825   7.529   0.602  12.625
70417W        W36826   2.782  12.421  13.339
70418W        W36827  16.547   7.789  13.599
70419W        W36828  11.834  19.958   2.836
70420W        W36829  13.221  21.244  12.098
70421W        W36830  10.261  38.813   0.850
70422W        W36831   5.558  18.440  11.876
70423W        W36832  33.270  44.362  11.082
70424W        W36833  41.385  17.765   1.787
70425W        W36834  28.802  19.677  13.373
70426W        W36835   6.257   3.963   2.051
70427W        W36836  39.755  33.715  11.953
70428W        W36837  32.977  34.910  13.945
70429W        W36838  18.757  10.111  14.446
70430W        W36839  18.486  31.049   2.564
70431W        W36840   8.352   7.165  14.792
70432W        W36841   9.165  25.001   3.585
70433W        W36842  28.862  26.580  11.752
70434W        W36843  30.553  14.333  11.353
70435W        W36844   4.651  26.049   3.643
70436W        W36845  11.213  36.932   5.071
70437W        W36846  17.264   1.064  14.738
70438W        W36847  41.809   1.455  11.130
70439W        W36848  23.319  40.008  12.134
70440W        W36849   6.362  33.786   5.181
70441W        W36850  11.107  29.067  10.786
70442W        W36851  29.553  34.092   2.386
70443W        W36852  44.578  39.823   3.444
70444W        W36853  36.952  40.259  11.656
70445W        W36854  42.605  22.989  14.660
70446W        W36855  34.608   2.475  11.495
70447W        W36856  18.002  37.148  13.478
70448W        W36857  18.811  37.871  10.590
70449W        W36858  42.910  37.113   0.476
70450W        W36859  38.564  34.425   0.835
70451W        W36860  31.926  37.759   0.415
70452W        W36861  40.896  31.211  12.885
70453W        W36862  42.698  40.297  12.358
70454W        W36863  21.149  40.833   4.616
70455W        W36864   9.823  24.616   3.294
70456W        W36865  36.444   5.854   2.851
70457W        W36866  33.098  22.777  12.103
70458W        W36867   3.290  14.582   1.352
70459W        W36868  17.037   3.215  11.103
70460W        W36869  13.173   2.484   0.863
70461W        W36870  35.563  10.584   2.836
70462W        W36871  38.853  23.452  11.221
70463W        W36872   5.506  44.690   1.190
70464W        W36873  10.163  16.092   1.841
70465W        W36874  21.075  12.048  14.915
70466W        W36875  41.705  10.926   5.017
70467W        W36876   4.491  17.569  12.477
70468W        W36877  44.996   3.725  12.963
70469W        W36878  32.143  15.340   1.798
70470W        W36879  19.077  14.127   0.910
70471W        W36880   5.893  27.736   2.533
70472W        W36881   5.709  20.063   4.688
70473W        W36882  39.405   5.176   0.481
70474W        W36883  27.604   9.861   0.988
70475W        W36884   8.473  22.782  12.961
70476W        W36885  16.589  31.671  13.823
70477W        W36886  10.133  43.432   3.676
70478W        W36887  12.623  31.493   4.634
70479W        W36888   6.955  37.868   3.607
70480W        W36889  15.142  20.005   4.434
70481W        W36890  21.657  28.638   2.141
70482W        W36891   1.390  43.197  13.166
70483W        W36892  20.722  10.879   3.429
70484W        W36893  38.619  40.393  13.370
70485W        W36894   3.275   1.204  10.747
70486W        W36895  40.852  23.118  12.487
70487W        W36896  12.688  19.183   1.178
70488W        W36897  27.134  41.032  11.970
70489W        W36898   1.540  34.538   1.764
70490W        W36899   1.991   7.234   1.960
70491W        W36900   7.909  44.895   0.075
70492W        W36901   3.707  27.211  11.280
70493W        W36902  19.534  13.437  13.401
70494W        W36903  19.474   0.422  11.123
70495W        W36904  22.645  16.665   3.712
70496W        W36905  11.637   2.108  13.314
70497W        W36906  37.331  31.830   3.212
70498W        W36907  18.727  39.856   4.513
70499W        W36908  31.122  41.464   3.276
70500W        W36909  18.326   7.287   3.391
70501W        W36910  11.557   8.848   4.454
70502W        W36911  20.114  29.192   4.986
70503W        W36912  42.874  40.845   1.785
70504W        W36913  26.213   3.205   3.784
70505W        W36914  44.553  29.473   0.405
70506W        W36915   2.292  19.716  12.553
70507W        W36916  34.397  26.566  11.962
70508W        W36917  21.363   9.127  12.434
70509W        W36918  16.898   1.259  12.051
70510W        W36919  22.795  33.117   2.505
70511W        W36920  33.792  35.891   1.699
70512W        W36921  30.873   2.231   2.353
70513W        W36922  41.730  12.780   3.293
70514W        W36923  13.366  14.703  10.786
70515W        W36924  39.517  20.053  14.246
70516W        W36925  20.764  42.381  12.384
70517W        W36926  25.688  22.528   0.727
70518W        W36927   3.222  29.669   3.225
70519W        W36928  23.118  10.413  14.082
70520W        W36929  41.284   0.963  10.482
70521W        W36930  37.560  38.056   4.006
70522W        W36931  14.481  17.712  11.470
70523W        W36932  17.602  22.131   2.108
70524W        W36933  10.639  21.236   2.534
70525W        W36934  27.082  40.535  11.964
70526W        W36935  26.002  33.410  10.761
70527W        W36936   4.261  22.867   2.918
70528W        W36937  38.401  27.105  13.359
70529W        W36938  29.650   3.337  13.101
70530W        W36939  32.763   3.607   4.956
70531W        W36940  38.603  12.579   3.898
70532W        W36941  40.948   3.951   1.724
70533W        W36942  20.714  19.068   1.408
70534W        W36943  41.199  35.059   2.386
70535W        W36944  30.272   8.928   4.178
70536W        W36945  40.882  35.260  11.324
70537W        W36946  41.216   4.324  12.472
70538W        W36947   1.926  33.901   2.779
70539W        W36948  21.951  27.054   1.848
70540W        W36949  10.121   4.920  11.935
70541W        W36950   2.248   7.393   3.629
70542W        W36951  29.540  28.079   1.706
70543W        W36952   8.405  10.314   0.728
70544W        W36953  14.194   4.889   2.431
70545W        W36954   7.082  33.593   0.064
70546W        W36955  33.497  27.152   2.246
70547W        W36956   2.134  15.727   2.309
70548W        W36957   9.308   0.492   3.587
70549W        W36958  36.446   9.410   3.380
70550W        W36959  43.172  22.247   0.359
70551W        W36960  36.247  29.438   4.765
70552W        W36961  14.074   9.322  14.897
70553W        W36962  28.983  40.014   1.428
70554W        W36963  37.746  38.085  11.681
70555W        W36964  41.354   3.886  13.114
70556W        W36965  15.266  29.555  12.034
70557W        W36966  35.794  17.432  14.385
70558W        W36967  28.558   5.245  12.012
70559W        W36968   1.605  42.472  12.562
70560W        W36969  17.727  41.495   0.319
70561W        W36970  21.645   9.352   3.941
70562W        W36971   7.909   0.516  12.985
70563W        W36972  25.016  38.324  13.548
70564W        W36973   6.798  33.952  11.644
70565W        W36974  19.009  44.522   0.010
70566W        W36975  16.217  40.664   4.365
70567W        W36976   5.469  28.568  14.892
70568W        W36977  30.118  28.955  14.040
70569W        W36978  37.086  14.839  12.464
70570W        W36979   5.564  25.683  14.776
70571W        W36980  21.505   9.180  11.252
70572W        W36981  42.907   9.717   3.211
70573W        W36982  20.545  42.529   3.352
70574W        W36983  20.654  22.620   1.918
70575W        W36984  41.364  26.176   4.238
70576W        W36985  43.218  43.547  14.870
70577W        W36986  44.547  43.982   0.882
70578W        W36987  31.904  15.817   1.733
70579W        W36988  27.942  44.343  11.503
70580W        W36989   3.385  16.683   3.007
70581W        W36990  40.709  19.483  13.909
70582W        W36991  20.709  33.456   1.992
70583W        W36992  21.279  12.161  10.958
70584W        W36993  40.011  41.289   2.878
70585W        W36994  25.250  21.122   3.136
70586W        W36995  33.444  40.341  11.577
70587W        W36996  31.164   6.648   4.132
70588W        W36997  21.550   2.929   0.323
70589W        W36998  27.999   1.261   3.810
70590W        W36999  13.747   5.410  11.647
70591W        W37000  15.373  10.159  13.903
70592W        W37001  40.488  17.245   1.456
70593W        W37002  16.338  11.776   3.186
70594W        W37003  28.596  31.969  12.841
70595W        W37004   5.510  39.771   4.103
70596W        W37005  10.681  19.278  12.031
70597W        W37006  37.914   3.729   4.079
70598W        W37007  29.378  42.814   0.466
70599W        W37008  24.260  14.860  11.615
70600W        W37009   8.440  18.298  13.043
70601W        W37010  17.769  29.170   2.809
70602W        W37011  20.780  44.878  10.549
70603W        W37012  15.710   3.430   1.369
70604W        W37013  22.904  17.637  10.791
70605W        W37014   0.101  10.322  10.193
70606W        W37015  32.623  18.280  11.444
70607W        W37016  29.602  12.486  13.914
70608W        W37017   0.528   2.141   1.309
70609W        W37018  18.309  31.618  13.474
70610W        W37019  42.258  24.257  14.906
70611W        W37020  14.584  37.040   2.339
70612W        W37021  38.805  28.393   0.469
70613W        W37022  18.154  34.212   1.924
70614W        W37023  24.439  34.985   0.999
70615W        W37024  19.572  34.464   0.090
70616W        W37025  22.039  43.593  13.178
70617W        W37026   5.387   3.075   4.854
70618W        W37027   7.171  11.542   2.814
70619W        W37028  24.386  37.277  10.002
70620W        W37029  38.763  32.043  13.550
70621W        W37030  25.940   7.703   3.748
70622W        W37031  11.193   0.324   3.115
70623W        W37032  18.721  42.354  13.886
70624W        W37033  14.410  38.378  14.373
70625W        W37034   8.769  33.524  14.256
70626W        W37035  39.058   1.764  12.987
70627W        W37036  27.356  19.444   3.102
70628W        W37037   1.192  31.638   1.417
70629W        W37038  25.145  31.926   0.833
70630W        W37039  39.275   3.164   1.329
70631W        W37040  41.008   8.280  12.595
70632W        W37041   3.345   9.109   4.533
70633W        W37042   0.011  25.617   2.393
70634W        W37043  18.543  26.403  10.822
70635W        W37044  17.204   2.170  14.000
70636W        W37045  40.121  21.065  14.861
70637W        W37046  12.942   8.756   1.486
70638W        W37047  12.166  32.151   1.270
70639W        W37048   0.514   2.657  14.294
70640W        W37049   1.748  42.828  12.931
70641W        W37050  44.972  42.066  12.920
70642W        W37051  31.165  42.172  14.689
70643W        W37052   3.843   4.833  12.556
70644W        W37053  34.656  21.365  12.469
70645W        W37054  22.704  42.390   3.915
70646W        W37055  15.320   1.952  14.538
70647W        W37056  15.787  24.234   0.854
70648W        W37057   0.553  19.164  10.784
70649W        W37058  44.980  33.074  14.868
70650W        W37059  29.038   4.730   4.557
70651W        W37060  25.697  21.625  14.873
70652W        W37061  12.812   2.400   4.226
70653W        W37062  30.640  21.015   0.384
70654W        W37063  32.659  31.235  14.986
70655W        W37064  41.333  39.600  11.530
70656W        W37065  27.465   7.322  12.829
70657W        W37066   3.461   2.449   3.269
70658W        W37067  26.086  39.802   1.714
70659W        W37068  40.317  43.263   0.511
70660W        W37069  29.893  35.381  14.554
70661W        W37070  11.760  29.074   4.945
70662W        W37071  15.301  24.982  13.340
70663W        W37072  29.185  44.019  11.450
70664W        W37073  23.907  12.707   4.095
70665W        W37074  36.310  22.289   3.519
70666W        W37075  32.819   2.474  12.915
70667W        W37076   0.919   3.359   2.922
70668W        W37077  39.514  25.602  14.499
70669W        W37078   2.997   6.973   4.403
70670W        W37079  40.231  44.977  10.813
70671W        W37080  44.782   5.687   2.090
70672W        W37081  32.206  34.398  13.939
70673W        W37082  34.549   1.586   3.720
70674W        W37083  20.123  22.058  12.474
70675W        W37084  12.831  44.317  14.063
70676W        W37085  37.496  24.835   2.350
70677W        W37086  16.956  31.093   3.343
70678W        W37087  31.482  27.718  12.748
70679W        W37088  28.719  10.038   1.810
70680W        W37089  26.551   1.745  12.406
70681W        W37090   5.561  11.748   0.866
70682W        W37091  33.958   0.436  13.338
70683W        W37092   8.069  33.543   0.472
70684W        W37093   6.270  22.145   1.160
70685W        W37094  39.389  32.034   0.410
70686W        W37095  42.261   2.638   3.782
70687W        W37096  35.830  13.000   2.875
70688W        W37097   2.333  28.213  11.709
70689W        W37098   3.118  28.879   2.793
70690W        W37099   0.354  13.552   2.963
70691W        W37100  37.913  26.147  10.591
70692W        W37101  30.568  15.369   2.712
70693W        W37102   1.938  18.163   1.844
70694W        W37103  18.210  13.610  11.165
70695W        W37104  35.960  32.723   2.664
70696W        W37105   0.324  44.556   2.167
70697W        W37106  31.287  32.309   9.891
70698W        W37107  21.101  30.550  10.723
70699W        W37108  29.243  43.358  14.707
70700W        W37109   5.703  16.051  12.534
70701W        W37110  26.496  33.555  10.858
70702W        W37111  32.071  40.239  11.639
70703W        W37112  13.670  33.803   3.766
70704W        W37113  39.508   4.092  14.920
70705W        W37114  23.583   4.028  10.440
70706W        W37115  13.402  39.943   2.268
70707W        W37116   9.885  36.512  14.359
70708W        W37117   7.968  26.719   3.710
70709W        W37118  27.007  14.745  14.463
70710W        W37119  17.076  15.072  13.562
70711W        W37120   6.397  10.756   3.064
70712W        W37121  13.667   6.154   0.741
70713W        W37122   5.811  22.631   9.728
70714W        W37123  11.153  24.933   4.510
70715W        W37124   9.865  32.202   2.298
70716W        W37125   1.526  36.076   2.180
70717W        W37126  15.344  10.802  14.386
70718W        W37127  33.775  37.012   0.789
70719W        W37128  25.506  17.461   2.616
70720W        W37129  16.848  42.243  10.901
70721W        W37130  30.466  36.104   4.535
70722W        W37131   5.460   0.178   0.418
70723W        W37132  12.526  44.209   0.743
70724W        W37133  31.526  38.802   3.188
70725W        W37134  42.464  38.096   3.353
70726W        W37135   4.797  16.136   4.687
70727W        W37136  25.620  25.564   0.208
70728W        W37137  13.947  28.418   1.124
70729W        W37138  22.447  42.553  10.790
70730W        W37139  34.924  14.333  12.504
70731W        W37140  25.909   4.447   0.248
70732W        W37141  24.739  28.643  14.473
70733W        W37142  16.856  11.626  12.537
70734W        W37143  19.279   2.324   5.085
70735W        W37144  28.798   8.175  12.408
70736W        W37145  42.922  18.107  12.439
70737W        W37146  27.190  21.276   3.234
70738W        W37147  16.526  12.629   0.176
70739W        W37148  28.174  34.051   1.143
70740W        W37149  44.374  36.341  11.167
70741W        W37150  14.210  16.763  13.617
70742W        W37151  14.657   4.407   4.043
70743W        W37152  15.143  24.858  14.134
70744W        W37153  11.043  16.646   3.657
70745W        W37154   4.106  41.889  12.872
70746W        W37155  34.264  25.236  12.395
70747W        W37156   6.204   7.913  14.468
70748W        W37157   4.765  11.739   2.645
70749W        W37158  43.400  25.373  11.268
70750W        W37159  35.757   6.670  11.124
70751W        W37160  13.407  27.628  12.023
70752W        W37161  34.038  29.450   2.287
70753W        W37162   5.506  10.265   1.989
70754W        W37163  23.689  34.272   3.320
70755W        W37164   7.960  19.597   0.723
70756W        W37165  33.493   3.022  12.122
70757W        W37166  24.639  14.854   0.593
70758W        W37167  21.112  15.978  13.534
70759W        W37168  44.492  14.574  10.787
70760W        W37169  32.344  27.565  12.162
70761W        W37170  25.083  38.431  14.054
70762W        W37171   5.171  36.415  12.802
70763W        W37172  13.338   9.655  12.051
70764W        W37173  43.416   3.779  13.577
70765W        W37174  39.072  17.654   5.031
70766W        W37175  40.744   9.276   4.058
70767W        W37176  17.661  40.076   2.305
70768W        W37177  32.431  23.781   0.424
70769W        W37178  34.900  10.722   1.471
70770W        W37179  29.235  18.375   4.322
70771W        W37180  38.634  30.741   1.166
70772W        W37181  34.846  19.754   4.491
70773W        W37182  15.798  15.847  11.131
70774W        W37183  32.040  29.211   4.821
70775W        W37184  36.883  14.840  13.432
70776W        W37185  13.610  36.973  11.492
70777W        W37186  24.024  34.700  11.238
70778W        W37187   4.066  13.654   3.463
70779W        W37188  16.597  15.314  12.540
70780W        W37189   0.230   1.339   2.433
70781W        W37190   3.184  27.942   4.180
70782W        W37191  33.296  33.649   5.012
70783W        W37192  30.661  39.164   1.761
70784W        W37193   2.398  16.004   3.172
70785W        W37194   1.361  42.590  14.511
70786W        W37195   9.448   4.981  13.025
70787W        W37196   5.558  22.045   5.674
70788W        W37197  27.180  28.719  14.742
70789W        W37198  23.525  26.436   3.666
70790W        W37199  16.536  17.219  13.856
70791W        W37200  31.707  13.621  11.590
70792W        W37201  14.692  30.640   2.805
70793W        W37202   9.136  43.349   0.341
70794W        W37203   5.181  43.566  13.831
70795W        W37204  12.777  32.447  12.190
70796W        W37205  38.819  34.844   2.204
70797W        W37206   0.769  10.134  12.700
70798W        W37207   4.710  28.817  14.361
70799W        W37208   3.858  38.627   3.797
70800W        W37209  38.852  20.319   1.053
70801W        W37210  41.564  42.016  11.985
70802W        W37211   2.667  39.773   4.133
70803W        W37212  22.868  18.119  10.551
70804W        W37213  24.121   9.540  10.048
70805W        W37214  32.181  28.226   0.805
70806W        W37215  24.036  13.861   2.453
70807W        W37216  25.761  24.895   1.898
70808W        W37217  23.427  42.443   3.416
70809W        W37218  27.144  15.428   1.920
70810W        W37219  11.442   1.806   0.954
70811W        W37220  13.287  21.510   0.012
70812W        W37221  14.148  13.243   4.692
70813W        W37222  10.983   5.142   2.626
70814W        W37223  31.971  28.010   1.938
70815W        W37224  42.210   3.449  11.651
70816W        W37225  32.979  30.460   4.914
70817W        W37226  12.311  43.427  13.922
70818W        W37227   2.600  41.013   2.144
70819W        W37228   3.972  27.741  14.339
70820W        W37229  36.615  37.042   4.401
70821W        W37230  16.264  36.105   1.874
70822W        W37231  27.978  23.288   0.501
70823W        W37232  37.557  27.302   3.270
70824W        W37233  23.977  14.232   1.702
70825W        W37234   0.778  39.471   1.551
70826W        W37235   3.220  14.473  11.876
70827W        W37236  40.199   5.256   3.565
70828W        W37237  26.502  41.405   3.216
70829W        W37238  42.030   2.403  14.282
70830W        W37239  26.074  12.537  14.903
70831W        W37240   6.046   9.892  10.311
70832W        W37241  23.974  44.297   3.298
70833W        W37242  34.006  18.531   2.671
70834W        W37243   0.719  15.056   1.768
70835W        W37244  32.421  29.194   1.867
70836W        W37245  38.840  43.350   0.694
70837W        W37246  13.482  10.825   1.738
70838W        W37247  26.677  39.422   4.184
70839W        W37248  35.455   6.531   2.211
70840W        W37249  35.838  15.518   4.550
70841W        W37250  15.143  21.219  11.195
70842W        W37251  25.781  25.720  10.985
70843W        W37252  24.180  35.561   3.190
70844W        W37253  32.448  43.767   1.782
70845W        W37254  23.003  38.967   4.831
70846W        W37255  38.817  40.398   1.394
70847W        W37256   9.810  28.486   3.954
70848W        W37257  26.699  35.035   0.558
70849W        W37258  31.302  29.155   4.298
70850W        W37259   6.456  37.304   0.177
70851W        W37260   9.436   2.716   3.343
70852W        W37261  13.637  10.277   0.209
70853W        W37262  35.352  43.824   2.717
70854W        W37263  33.542  35.336   3.940
70855W        W37264   0.497  37.051  14.042
70856W        W37265   4.666  39.526   0.490
70857W        W37266   2.940   7.289  14.962
70858W        W37267  18.019  37.033   2.680
70859W        W37268  18.678  14.890  10.584
70860W        W37269   3.245  29.817   4.419
70861W        W37270   3.864   7.189  14.053
70862W        W37271  13.577  35.036  12.953
70863W        W37272  36.501  36.328   4.520
70864W        W37273  26.257  21.980   2.682
70865W        W37274   5.951  36.671  10.967
70866W        W37275  37.487  22.553  13.981
70867W        W37276   7.806   1.711  12.152
70868W        W37277  18.814  27.608   2.913
70869W        W37278  44.634  27.674   0.271
70870W        W37279  31.553  33.578   1.286
70871W        W37280   2.521  19.653   4.536
70872W        W37281  31.890  22.665   1.841
70873W        W37282  42.722   6.501  14.032
70874W        W37283  30.180  22.627  13.328
70875W        W37284  26.630  12.161  10.640
70876W        W37285   3.205  32.022  12.130
70877W        W37286  14.720  17.743  10.962
70878W        W37287  33.775  30.223   4.369
70879W        W37288  36.873  31.549   4.302
70880W        W37289  29.965  30.194  14.984
70881W        W37290  22.820  30.096  13.398
70882W        W37291  40.985   7.617  13.757
70883W        W37292  32.466  41.863  14.433
70884W        W37293   7.831  13.252   1.385
70885W        W37294  37.440   4.811   3.655
70886W        W37295  37.791   6.050  10.390
70887W        W37296  32.899  43.480   0.907
70888W        W37297  35.423  28.645   4.258
70889W        W37298  14.563   5.408  13.956
70890W        W37299  21.321  44.844   4.500
70891W        W37300  22.299  18.238   4.226
70892W        W37301  26.579  25.736  12.597
70893W        W37302   0.883   1.771   3.383
70894W        W37303  11.223  38.133   0.279
70895W        W37304  29.981  20.534  11.243
70896W        W37305   9.772  30.211   1.784
70897W        W37306  22.695   9.881   3.199
70898W        W37307  24.593  43.229   1.839
70899W        W37308  43.669  43.066   0.407
70900W        W37309   2.261  32.103  11.796
70901W        W37310  28.162  16.243  10.926
70902W        W37311  43.659  30.934   3.579
70903W        W37312  16.167   0.687   1.175
70904W        W37313  33.145   3.777   0.824
70905W        W37314   7.643  31.717   4.462
70906W        W37315   6.745   9.451  12.439
70907W        W37316  38.054  13.681  13.263
70908W        W37317   9.867  23.875   0.064
70909W        W37318  13.165  17.688   3.598
70910W        W37319  19.081  42.057   1.459
70911W        W37320  13.232  11.788  10.790
70912W        W37321  10.716   4.740   2.806
70913W        W37322   4.437  14.316  11.258
70914W        W37323  39.871  16.898   2.348
70915W        W37324  20.704  43.950   2.125
70916W        W37325  31.363  23.501  13.002
70917W        W37326  42.978  36.252   2.156
70918W        W37327   4.794  38.972   2.212
70919W        W37328  23.750  34.570   2.837
70920W        W37329  18.250  36.099  12.107
70921W        W37330  10.891   9.755   2.837
70922W        W37331  40.427  11.268  14.249
70923W        W37332   4.900   1.350  11.642
70924W        W37333  29.795   8.115   4.954
70925W        W37334  17.775  21.758   4.503
70926W        W37335   9.390   4.426   0.345
70927W        W37336  29.125  28.416   1.466
70928W        W37337  15.100  20.288   1.318
70929W        W37338  24.989  33.994   0.073
70930W        W37339  10.215  29.034   1.289
70931W        W37340  30.993  41.460  14.276
70932W        W37341  21.191   2.124   0.157
70933W        W37342  34.599  15.843  14.203
70934W        W37343  27.505  32.132   2.262
70935W        W37344  28.518  27.691  14.938
70936W        W37345   5.248  41.808  12.565
70937W        W37346  31.158  20.365  13.462
70938W        W37347  30.421  15.379   4.772
70939W        W37348   5.605  41.455   0.762
70940W        W37349   2.010  10.919   3.747
70941W        W37350   2.799  17.584   4.058
70942W        W37351   9.343  30.499  11.694
70943W        W37352  35.053  14.163  14.922
70944W        W37353  42.965  44.959   3.178
70945W        W37354   7.796  39.250  13.062
70946W        W37355  21.155  28.577  12.317
70947W        W37356  27.857  34.453   2.799
70948W        W37357  20.030   5.449  13.009
70949W        W37358  41.860  31.212  12.916
70950W        W37359  31.205  14.871   0.837
70951W        W37360  21.733  34.875   3.729
70952W        W37361  39.492  34.040   0.006
70953W        W37362  11.064  36.050  12.607
70954W        W37363   9.666   9.639  14.351
70955W        W37364  43.506  26.571  10.430
70956W        W37365   9.590  34.491   5.085
70957W        W37366   8.462  14.624  11.214
70958W        W37367  43.573  13.257  12.905
70959W        W37368  37.866   9.503  14.847
70960W        W37369  13.315   6.732   2.173
70961W        W37370  14.605   6.631  10.313
70962W        W37371  31.086  26.934  14.873
70963W        W37372  25.380   9.361  10.107
70964W        W37373  23.603  38.912  11.525
70965W        W37374  25.634  18.760   2.392
70966W        W37375  30.472  20.441   1.200
70967W        W37376   4.340  29.873  14.731
70968W        W37377   1.428   4.139   4.149
70969W        W37378  13.760  26.341   3.943
70970W        W37379  25.013   7.913  10.628
70971W        W37380  29.821  32.679  11.694
70972W        W37381  31.625  39.792   2.336
70973W        W37382  27.473   8.910  13.041
70974W        W37383  17.137  18.019   4.554
70975W        W37384  33.911  13.175  14.808
70976W        W37385   0.924  44.923  13.342
70977W        W37386  40.246  34.664  14.033
70978W        W37387  14.607  10.179   0.166
70979W        W37388  22.995  36.321   2.321
70980W        W37389  40.843   7.682  13.278
70981W        W37390  44.984  32.515   3.033
70982W        W37391  43.696  18.749   3.046
70983W        W37392  25.969  13.099  12.920
70984W        W37393   2.318  21.095   0.458
70985W        W37394  27.697  23.075  12.503
70986W        W37395  39.084  12.240   0.918
70987W        W37396  30.530  43.505  13.061
70988W        W37397  40.239   0.958  14.860
70989W        W37398  14.754  15.477  11.464
70990W        W37399  43.559   1.888   0.406
70991W        W37400  23.060   9.336   0.782
70992W        W37401  10.898  37.094   0.993
70993W        W37402  24.210  33.503  14.801
70994W        W37403  34.958  20.299   3.062
70995W        W37404  35.739  17.260   4.067
70996W        W37405   3.766  22.548   0.456
70997W        W37406  35.132   7.257  10.774
70998W        W37407   9.601  15.042   1.148
70999W        W37408  17.696  28.575   4.170
71000W        W37409  18.762  28.977   2.828
71001W        W37410  15.238  16.695  11.017
71002W        W37411  10.754  30.595   3.800
71003W        W37412  30.628  30.163  13.810
71004W        W37413  19.546  10.464   2.083
71005W        W37414  37.600  24.060   1.016
71006W        W37415   7.099   3.441   1.345
71007W        W37416  42.980  24.014   3.042
71008W        W37417   0.350  39.734  10.678
71009W        W37418  21.106  30.651   2.170
71010W        W37419  32.095  18.174   2.187
71011W        W37420  40.701  34.267   0.434
71012W        W37421   7.008   9.079   2.862
71013W        W37422   7.218  36.984  14.339
71014W        W37423  17.717  36.316   3.859
71015W        W37424  44.426  39.048   2.560
71016W        W37425  21.418  38.363  11.951
71017W        W37426  26.499  11.216   1.376
71018W        W37427   7.760  41.509  14.338
71019W        W37428  10.779  13.809   3.233
71020W        W37429  19.040  33.248   3.213
71021W        W37430  31.925  15.116  12.521
71022W        W37431  23.269  21.517  10.673
71023W        W37432  32.070  25.909   0.923
71024W        W37433  28.316  15.270   3.312
71025W        W37434  28.182  15.837  14.957
71026W        W37435   4.571  37.135  14.489
71027W        W37436   3.424  14.817   1.825
71028W        W37437  29.460  20.325  11.102
71029W        W37438  43.562  20.250   2.431
71030W        W37439  37.536  13.695  13.413
71031W        W37440  34.085   9.101  11.736
71032W        W37441  20.633   9.868  10.677
71033W        W37442  40.353  41.876   1.451
71034W        W37443  15.367   7.584   3.691
71035W        W37444  23.588  23.496   2.242
71036W        W37445  16.801  32.089  10.294
71037W        W37446  15.221  37.065  10.608
71038W        W37447   5.210  38.297  14.852
71039W        W37448  11.828  39.899  10.790
71040W        W37449  25.667  17.535   3.680
71041W        W37450  37.899  38.340  10.742
71042W        W37451  32.879   0.825  10.354
71043W        W37452  11.432  27.969  13.029
71044W        W37453   1.416   8.794  12.598
71045W        W37454  16.091  26.693  11.968
71046W        W37455   1.142  38.539   3.334
71047W        W37456   6.646  17.684  14.467
71048W        W37457  44.423  19.739   1.070
71049W        W37458  15.629  44.665  11.072
71050W        W37459  28.421  11.383   2.861
71051W        W37460  29.997   6.800   0.440
71052W        W37461  35.595  41.082  11.203
71053W        W37462  11.592  41.049  13.065
71054W        W37463  42.964  34.996   3.138
71055W        W37464  17.804  32.521   2.109
71056W        W37465   1.310  36.615   4.355
71057W        W37466  15.389  23.611  13.382
71058W        W37467  29.923  22.315  12.984
71059W        W37468  39.898  20.013  12.044
71060W        W37469  14.839  31.671  11.512
71061W        W37470   5.756   7.980  12.689
71062W        W37471  13.403   9.203   3.190
71063W        W37472  43.274  15.182  14.503
71064W        W37473  11.121  44.685   1.748
71065W        W37474  18.785  43.832  13.392
71066W        W37475  35.877  32.832   0.871
71067W        W37476  15.230   7.053  13.286
71068W        W37477  31.741   5.600  11.969
71069W        W37478  18.106  12.168   4.195
71070W        W37479  42.621   4.668   4.585
71071W        W37480  29.427   1.326  14.205
71072W        W37481  32.098  11.766  13.814
71073W        W37482  14.087  10.830  14.861
71074W        W37483   6.259   3.375   0.243
71075W        W37484   9.162  16.308  13.665
71076W        W37485  14.365  10.684   2.260
71077W        W37486  39.817  37.984   3.163
71078W        W37487  39.820  28.323  14.340
71079W        W37488  38.579  37.997   1.291
71080W        W37489  18.668   6.487   3.103
71081W        W37490  41.063   2.337  11.434
71082W        W37491   6.190   1.609   1.327
71083W        W37492  21.208  33.520   4.578
71084W        W37493   2.255  20.633  14.286
71085W        W37494  39.798  17.751  11.632
71086W        W37495  36.371  33.852  14.248
71087W        W37496  35.573  10.752  10.762
71088W        W37497  23.774  37.732   1.442
71089W        W37498  26.571  26.683   2.839
71090W        W37499  27.623   0.577   4.687
71091W        W37500  19.615  43.316  13.948
71092W        W37501  38.983  21.698  13.150
71093W        W37502  18.555  10.874  12.792
71094W        W37503  18.153  36.650   1.019
71095W        W37504   9.521  14.067  11.096
71096W        W37505  14.726  44.424   4.571
71097W        W37506  24.781   9.106  12.527
71098W        W37507  18.983   6.688   2.179
71099W        W37508  37.610  38.568  11.128
71100W        W37509  11.635  34.069  10.795
71101W        W37510  19.166  14.077   4.736
71102W        W37511   0.120   7.517  14.366
71103W        W37512  33.460  41.029  12.575
71104W        W37513  36.610   2.737  13.453
71105W        W37514  17.884   2.228  11.079
71106W        W37515  11.094  32.459   2.809
71107W        W37516  25.799  12.294  10.702
71108W        W37517  27.760   9.414  10.693
71109W        W37518   1.064  34.993   2.301
71110W        W37519  37.588  37.950   2.784
71111W        W37520  31.618  13.329   1.667
71112W        W37521  26.610  15.312  14.510
71113W        W37522  23.634   7.646   3.762
71114W        W37523  40.047  30.199   0.921
71115W        W37524  25.649  14.850  14.893
71116W        W37525  44.251   5.766  12.070
71117W        W37526   0.747  23.929   2.789
71118W        W37527  35.058  15.769  14.437
71119W        W37528  16.089  15.337  12.490
71120W        W37529  33.001  27.245  13.090
71121W        W37530   7.002  30.077  14.150
71122W        W37531  29.607  41.291  12.967
71123W        W37532  35.117  40.458   2.868
71124W        W37533  28.109  44.764  14.514
71125W        W37534   4.889  11.322   2.958
71126W        W37535  13.244   7.220   4.059
71127W        W37536  27.797   6.880  12.883
71128W        W37537  33.072  43.426  12.434
71129W        W37538  27.974   3.693  11.981
71130W        W37539  26.122  10.740   0.870
71131W        W37540  40.235  16.144  14.353
71132W        W37541  22.151  15.587  10.723
71133W        W37542   9.976  27.668   1.886
71134W        W37543  12.197  27.639  10.995
71135W        W37544  17.518  28.016   1.376
71136W        W37545   3.673  15.321   1.946
71137W        W37546  23.635   6.043  12.036
71138W        W37547  14.301  22.520   2.186
71139W        W37548  22.151  44.438   1.904
71140W        W37549   4.932  41.158  12.094
71141W        W37550  40.571  30.871  13.136
71142W        W37551  37.887   5.660  11.245
71143W        W37552  23.292   3.933   0.565
71144W        W37553   9.618  22.375   1.653
71145W        W37554  18.744  12.802  13.960
71146W        W37555  21.791  39.011   4.114
71147W        W37556   8.427  16.629  10.751
71148W        W37557  33.373  14.537  10.782
71149W        W37558  35.139  19.024   0.833
71150W        W37559   9.399   3.771   4.088
71151W        W37560  17.529  30.377  11.513
71152W        W37561  17.081  34.171   0.260
71153W        W37562  11.679  32.333   4.297
71154W        W37563  30.209  21.256  13.152
71155W        W37564  20.588   2.252  11.099
71156W        W37565  19.620  34.941  11.465
71157W        W37566  10.648  24.600  10.724
71158W        W37567   2.953  10.440   3.616
71159W        W37568  27.558  37.330  13.905
71160W        W37569  36.081  14.824  14.369
71161W        W37570   9.334  30.110   2.300
71162W        W37571  44.086  38.881  14.471
71163W        W37572   0.638   9.822  13.583
71164W        W37573  42.754   9.132  14.946
71165W        W37574  30.952  18.323  14.386
71166W        W37575  20.603  11.055  14.209
71167W        W37576  15.193  20.400   5.050
71168W        W37577  44.601  42.439   2.719
71169W        W37578  31.698  20.225  14.908
71170W        W37579  25.586  31.136  13.641
71171W        W37580  11.334  21.970   4.343
71172W        W37581  12.555  38.646   0.912
71173W        W37582  29.958   5.415   0.457
71174W        W37583  31.878  32.848   1.691
71175W        W37584  40.957   0.820  13.870
71176W        W37585  10.188  21.233   4.482
71177W        W37586   4.330  41.084   0.066
71178W        W37587   2.686  43.378  14.385
71179W        W37588  42.829  37.353   2.416
71180W        W37589  15.256  33.903  12.427
71181W        W37590  12.240  43.820   5.529
71182W        W37591   0.811  34.555  10.012
71183W        W37592  32.100  34.565   2.753
71184W        W37593   9.733  44.465  14.593
71185W        W37594  35.623  42.424   4.877
71186W        W37595   4.469  13.626  13.628
71187W        W37596  27.584   5.215  10.566
71188W        W37597   7.984  43.809  14.963
71189W        W37598   9.647  30.115   4.160
71190W        W37599  12.529  31.017   0.702
71191W        W37600  15.604  24.035   0.419
71192W        W37601  42.469  28.224   3.919
71193W        W37602  36.379  15.366   2.742
71194W        W37603  19.869  42.373  13.356
71195W        W37604  33.128  31.150   2.759
71196W        W37605   8.465  23.634  13.983
71197W        W37606  40.466  26.231  13.881
71198W        W37607  25.352   9.675   0.442
71199W        W37608  33.363  15.161   2.970
71200W        W37609  42.614   0.902   1.763
71201W        W37610   1.961   8.975  12.665
71202W        W37611   6.413  44.956   0.242
71203W        W37612  28.424  26.636  14.780
71204W        W37613  15.134   0.012   3.991
71205W        W37614   0.736  18.731   2.655
71206W        W37615  34.574   0.554   3.551
71207W        W37616   2.669  25.529   0.016
71208W        W37617  14.703   7.950   2.128
71209W        W37618  26.116  31.618   0.944
71210W        W37619  34.587  38.896  14.393
71211W        W37620   0.824   6.420   1.249
71212W        W37621   0.275  40.351   5.061
71213W        W37622  34.027  26.004   1.400
71214W        W37623  26.168  25.076  13.639
71215W        W37624  39.859   4.846  13.120
71216W        W37625   2.159  41.290   3.141
71217W        W37626  40.968  36.540   1.154
71218W        W37627   7.844   0.990   0.942
71219W        W37628   7.246  13.356  13.003
71220W        W37629  29.037  21.650  14.363
71221W        W37630  12.001  29.385   2.346
71222W        W37631  37.072  40.419   2.810
71223W        W37632   9.150  43.425   2.707
71224W        W37633  27.857  19.567   3.167
71225W        W37634  10.970  27.747  13.297
71226W        W37635  14.613  15.189   4.768
71227W        W37636   7.728  13.072   2.318
71228W        W37637  25.010  37.307   2.654
71229W        W37638   7.959  34.603   1.735
71230W        W37639  40.497  25.498  11.771
71231W        W37640   6.835   4.860  10.548
71232W        W37641  34.631  10.229   1.690
71233W        W37642  15.916   5.824   5.147
71234W        W37643   6.670  22.665   9.982
71235W        W37644  35.509   5.696   2.849
71236W        W37645  12.107  23.043  11.155
71237W        W37646  31.432  13.656   1.306
71238W        W37647   5.256   2.294   0.939
71239W        W37648  35.442  39.497  11.761
71240W        W37649   4.796  41.387   1.899
71241W        W37650  18.298  11.752   2.315
71242W        W37651  44.739  38.606  10.769
71243W        W37652   2.858  44.441  10.774
71244W        W37653  19.259   3.810   4.821
71245W        W37654   4.933   6.290   0.462
71246W        W37655  10.217  16.449  12.915
71247W        W37656   7.473   1.709   1.617
71248W        W37657  40.975  17.900  11.974
71249W        W37658  39.938  44.525  11.562
71250W        W37659  27.708  12.302  12.844
71251W        W37660  34.817  13.593  15.000
71252W        W37661  42.154   1.669  14.865
71253W        W37662  32.889  18.721   3.695
71254W        W37663  41.779  39.360   3.100
71255W        W37664   2.034  20.586  13.811
71256W        W37665  24.676  14.740  12.542
71257W        W37666  19.515  10.615  11.549
71258W        W37667  10.178   8.892  11.314
71259W        W37668  25.631   2.924  10.781
71260W        W37669  44.567  36.937   1.183
71261W        W37670  32.857   7.137  12.815
71262W        W37671  26.585  33.871  12.989
71263W        W37672  44.890   8.926  10.382
71264W        W37673  43.306   8.164   4.080
71265W        W37674  27.347  34.094  14.297
71266W        W37675  11.866  21.182   2.152
71267W        W37676   7.183  28.556  10.677
71268W        W37677   6.876   8.682  12.817
71269W        W37678   0.302  33.787   1.671
71270W        W37679  40.427  40.956  13.464
71271W        W37680  18.632  34.360   3.807
71272W        W37681  35.887  16.173   1.280
71273W        W37682  16.889   6.238   1.929
71274W        W37683   6.529  37.540  10.321
71275W        W37684  28.926  43.577   0.068
71276W        W37685  31.586  32.717  10.679
71277W        W37686  10.042  26.522  14.175
71278W        W37687  22.038  43.949   3.631
71279W        W37688  38.414  40.696   0.040
71280W        W37689   5.891  12.074  13.432
71281W        W37690  38.898  20.663  12.296
71282W        W37691  12.732   7.679   3.247
71283W        W37692  17.185  16.652   3.310
71284W        W37693  29.309  30.043  11.965
71285W        W37694  40.414  21.733  10.523
71286W        W37695  44.201  20.272  13.074
71287W        W37696  25.700  36.032   0.631
71288W        W37697  24.509  38.080   1.711
71289W        W37698  32.571  38.204   2.180
71290W        W37699  24.294  33.822   0.353
71291W        W37700   4.699  23.991  10.501
71292W        W37701  43.467  40.328   4.590
71293W        W37702   5.737  25.683   1.420
71294W        W37703  42.795  11.345  10.300
71295W        W37704  42.476  13.216   1.785
71296W        W37705  37.407   5.884   0.723
71297W        W37706   0.538  18.800   1.020
71298W        W37707  21.481   7.724  14.556
71299W        W37708  41.281  33.445  10.687
71300W        W37709   4.357  15.014   0.235
71301W        W37710  10.645  30.963   4.537
71302W        W37711  10.489   2.304  12.027
71303W        W37712  24.547  10.401   3.783
71304W        W37713  43.737   0.490  14.784
71305W        W37714  12.102  11.302   0.275
71306W        W37715  22.547  14.815  12.184
71307W        W37716  22.310   6.244   1.776
71308W        W37717  12.279  44.053   1.743
71309W        W37718  43.948   6.149  13.363
71310W        W37719  18.333  30.674  12.088
71311W        W37720   8.290  33.904   2.790
71312W        W37721  39.158  22.203   2.639
71313W        W37722  14.791  33.592   1.281
71314W        W37723  15.398  39.085   5.457
71315W        W37724  21.008   3.403  11.093
71316W        W37725  25.665   5.502  14.404
71317W        W37726  21.750   2.357  10.786
71318W        W37727  15.634   9.182  12.780
71319W        W37728  27.351  42.443  11.707
71320W        W37729  24.552  10.120   4.800
71321W        W37730  30.577  20.681  14.926
71322W        W37731  19.128   0.370   1.474
71323W        W37732  10.241  32.866   3.950
71324W        W37733   7.349  10.323  10.431
71325W        W37734  44.266  27.918   0.544
71326W        W37735   6.258  43.561  14.717
71327W        W37736  26.076   5.271  11.138
71328W        W37737  10.189  35.073  14.017
71329W        W37738  24.126  28.964   4.555
71330W        W37739   6.061  29.302   2.644
71331W        W37740   9.303  17.797   4.503
71332W        W37741   0.286  23.804  13.068
71333W        W37742  42.818  28.531   3.030
71334W        W37743  19.086  38.013   0.009
71335W        W37744  11.809  37.479  11.152
71336W        W37745   9.932  43.187  14.850
71337W        W37746  30.534  26.153  11.502
71338W        W37747   2.267  23.771  14.954
71339W        W37748  25.247  35.459  14.967
71340W        W37749   7.029   0.419  10.339
71341W        W37750   0.581   0.437  14.240
71342W        W37751  23.182  23.191  11.713
71343W        W37752  35.101   1.694   0.307
71344W        W37753  30.626  44.010  12.904
71345W        W37754   9.229  40.933  11.314
71346W        W37755   3.246  25.802   3.885
71347W        W37756  33.171  28.001   0.946
71348W        W37757  21.201  44.963  12.357
71349W        W37758  14.780  14.607   3.095
71350W        W37759  25.594  25.832   0.659
71351W        W37760  39.800  25.618   3.186
71352W        W37761  26.760  42.905  11.191
71353W        W37762  30.820  18.139   1.641
71354W        W37763  24.035  13.116  14.574
71355W        W37764  14.048  10.175  11.087
71356W        W37765  28.912  22.951  10.915
71357W        W37766  39.313  33.517  11.758
71358W        W37767  12.758   0.740  12.042
71359W        W37768  44.918  26.099   3.734
71360ION    NA+37769   3.382  28.823   4.146
71361ION    NA+37770   7.915  23.545   4.382
71362ION    NA+37771  16.536  31.388  12.961
71363ION    NA+37772  38.267  28.248   1.721
71364ION    NA+37773  10.213  18.700  11.949
71365ION    NA+37774  19.139  15.822   4.285
71366ION    NA+37775  37.442  16.745   9.842
71367ION    NA+37776  22.801  32.577   0.379
71368ION    NA+37777  24.516   4.224  14.697
71369ION    NA+37778  42.093  42.137   4.138
71370ION    NA+37779   1.059  26.035  13.552
71371ION    NA+37780  38.982  22.966   3.411
71372ION    NA+37781  36.824  11.405  10.478
71373ION    NA+37782  22.442  23.406  10.564
71374ION    NA+37783  27.918  10.748   5.387
71375ION    NA+37784  13.470  11.988   2.376
71376ION    NA+37785   1.600  13.360  12.227
71377ION    NA+37786  28.289  22.461  11.393
71378ION    NA+37787  33.532  38.267  11.104
71379ION    NA+37788  21.878  43.482   0.568
71380ION    NA+37789  38.030  43.804  13.499
71381ION    NA+37790  35.227  33.180  12.154
71382ION    NA+37791  21.559  11.699   9.826
71383ION    NA+37792  30.992  37.832  14.001
71384ION    NA+37793  21.918   2.679   4.469
71385ION    NA+37794  34.480  17.409   4.470
71386ION    NA+37795  18.060  18.183  14.501
71387ION    NA+37796  28.448  38.447   4.148
71388ION    NA+37797  33.918  32.084   1.963
71389ION    NA+37798  20.987  24.185   1.433
71390ION    NA+37799  15.082  15.583   1.599
71391ION    NA+37800  26.117   5.958  14.061
71392ION    NA+37801  34.863  33.814   1.705
71393ION    NA+37802  12.306  25.453  14.318
71394ION    NA+37803  28.671   5.505   1.710
71395ION    NA+37804   8.321  19.520   3.762
71396ION    NA+37805  32.444   4.130  14.815
71397ION    NA+37806  19.757  34.953  12.444
71398ION    NA+37807  28.484  22.684   4.076
71399ION    NA+37808  44.849  14.582  12.053
71400ION    NA+37809  14.721  25.229   3.264
71401ION    NA+37810   6.910   4.948   1.421
71402ION    NA+37811  20.546  13.353  14.793
71403ION    NA+37812  33.230   4.536  13.603
71404ION    NA+37813  19.240   4.471   3.508
71405ION    NA+37814  20.040  32.930  12.130
71406ION    NA+37815  27.152  25.723   3.593
71407ION    NA+37816  28.972  33.907   1.600
71408ION    NA+37817   6.879  18.864  12.967
71409ION    NA+37818  18.342  23.611  12.560
71410ION    NA+37819   2.500   9.189  13.406
71411ION    NA+37820   8.110   6.209  12.968
71412ION    NA+37821  32.870  15.713  13.100
71413ION    NA+37822   2.694  25.677  10.815
71414ION    NA+37823  24.120   9.081  13.153
71415ION    NA+37824  12.479  43.894  14.963
71416ION    NA+37825  18.740   1.670   4.139
71417ION    NA+37826   0.860  30.324  12.713
71418ION    NA+37827   2.235  22.265   4.231
71419ION    NA+37828  25.006   3.336   2.933
71420ION    NA+37829  41.266  17.231  14.309
71421ION    NA+37830  15.234  22.891   1.416
71422ION    NA+37831  38.025   8.626  11.170
71423ION    NA+37832  36.518  11.035  14.640
71424ION    NA+37833  23.518  40.345  10.913
71425ION    NA+37834  24.172  15.440   4.325
71426ION    NA+37835  18.660  28.517   1.990
71427ION    NA+37836   0.459  19.819   0.165
71428ION    NA+37837  12.231  19.906   4.528
71429ION    NA+37838  11.180  22.417   1.507
71430ION    NA+37839   9.570  42.952   1.657
71431ION    NA+37840  44.034   7.564   4.175
71432ION    NA+37841  11.550   6.727  13.999
71433ION    NA+37842  34.341  17.136   1.635
71434ION    NA+37843   1.059  30.383   4.582
71435ION    NA+37844  14.523  35.513  10.341
71436ION    NA+37845  22.763  14.742  13.451
71437ION    NA+37846   7.110  29.213  13.111
71438ION    NA+37847  17.933  22.988   0.729
71439ION    NA+37848   7.142  41.076  14.887
71440ION    NA+37849   5.174   5.247  12.481
71441ION    NA+37850  19.390  42.821   2.606
71442ION    NA+37851  20.470  27.620  14.963
71443ION    NA+37852  36.772  21.784  13.301
71444ION    NA+37853   2.681   8.216  13.550
71445ION    NA+37854  13.893   3.888  12.977
71446ION    NA+37855  10.106  29.759   3.096
71447ION    NA+37856  13.090  44.200  12.999
71448ION    NA+37857   8.963  35.728   2.827
71449ION    NA+37858  44.585   2.420   1.426
71450ION    NA+37859   6.295  39.912   3.399
71451ION    NA+37860  11.028  20.722   1.901
71452ION    NA+37861  43.548  35.921  14.509
71453ION    NA+37862   5.715   9.296  13.531
71454ION    NA+37863  27.384   1.988  12.722
71455ION    NA+37864  19.615  41.858  11.679
71456ION    NA+37865  31.619  24.695   0.421
71457ION    NA+37866  20.750  15.902   4.761
71458ION    NA+37867  27.427  39.214  12.290
71459ION    NA+37868  23.845  40.016  12.792
71460ION    NA+37869  17.782   4.846   4.442
71461ION    NA+37870  13.161  25.735  13.881
71462ION    NA+37871  14.260  28.125   3.981
71463ION    NA+37872  20.188   3.398  13.958
71464ION    NA+37873  28.637  22.313   3.125
71465ION    NA+37874  37.924  19.293   0.070
71466ION    NA+37875  20.535  27.985   1.422
71467ION    NA+37876  20.914  19.561   1.350
71468ION    NA+37877   3.293  24.744   1.348
71469ION    NA+37878   3.460  37.463  10.387
71470ION    NA+37879   5.373  27.427  10.533
71471ION    NA+37880   0.760  20.529   3.214
71472ION    NA+37881  24.345   4.378   1.474
71473ION    NA+37882  22.963   0.578   4.207
71474ION    NA+37883   0.223  13.169  14.376
71475ION    NA+37884   2.180  23.096   1.745
71476ION    NA+37885  39.076  11.206  12.777
71477ION    NA+37886  39.070  17.318   3.283
71478ION    NA+37887  27.960  11.556   9.999
71479ION    NA+37888  15.100  38.261   4.876
71480ION    NA+37889  35.130   2.291   2.215
71481ION    NA+37890  22.596  22.154   2.418
71482ION    NA+37891  22.222  42.059   4.890
71483ION    NA+37892  21.172  34.094   0.466
71484ION    NA+37893  34.766  34.987   4.306
71485ION    NA+37894  41.282   5.915  14.394
71486ION    NA+37895  14.436  18.766   3.959
71487ION    NA+37896  33.246  22.697   3.857
71488ION    NA+37897  26.487  14.970  13.941
71489ION    NA+37898  37.829  33.424  12.657
71490ION    NA+37899  14.197  11.550   1.006
71491ION    NA+37900  12.622  29.706  12.353
71492ION    NA+37901  33.313   5.248  13.261
71493ION    NA+37902  40.247  41.047  14.349
71494ION    NA+37903  26.505  17.550   3.323
71495ION    NA+37904  15.448  16.530  11.478
71496ION    NA+37905  27.343  16.651  12.226
71497ION    NA+37906  13.845  31.254  10.738
71498ION    NA+37907  15.718   4.260  11.668
71499ION    NA+37908  18.782  33.163  11.202
71500ION    NA+37909  13.022  25.292   3.563
71501ION    NA+37910  25.897  38.525   1.360
71502ION    NA+37911  22.569  29.131  13.413
71503ION    NA+37912   8.734   3.351   4.653
71504ION    NA+37913  39.264  34.426   2.962
71505ION    NA+37914  36.848  21.987   1.676
71506ION    NA+37915  28.374  21.497  13.469
71507ION    NA+37916  11.431  44.937   3.385
71508ION    NA+37917  14.688  12.794  11.618
71509ION    NA+37918  11.921  26.438   3.683
71510ION    NA+37919  28.026  14.212   3.303
71511ION    NA+37920  40.830  14.541  10.905
71512ION    NA+37921   5.326   6.663  13.415
71513ION    NA+37922  38.916  19.073  13.626
71514ION    NA+37923   5.469  35.456  12.388
71515ION    NA+37924   9.945   2.483  13.004
71516ION    NA+37925   6.720  43.666  12.678
71517ION    NA+37926  15.712  24.266  14.734
71518ION    NA+37927  20.782  29.543   1.250
71519ION    NA+37928  16.347   7.335  10.537
71520ION    NA+37929  41.399  27.751  11.882
71521ION    NA+37930  18.111   0.437   3.223
71522ION    NA+37931  13.647  20.992  12.731
71523ION    NA+37932  27.030  19.865  11.639
71524ION    NA+37933  24.950   6.763  13.507
71525ION    NA+37934   6.140  40.831  12.721
71526ION    NA+37935   9.662  25.218   0.668
71527ION    NA+37936   8.846  15.771   0.471
71528ION    NA+37937  44.089   9.316   3.446
71529ION    NA+37938  32.985   6.609   4.550
71530ION    NA+37939  37.945  11.976   3.727
71531ION    NA+37940   1.706  33.869  11.690
71532ION    NA+37941  17.158  25.533   3.504
71533ION    NA+37942  23.779  10.196  12.344
71534ION    NA+37943   9.713  31.730  13.901
71535ION    NA+37944  10.348   6.565   1.353
71536ION    NA+37945  22.516  42.895  11.517
71537ION    NA+37946  24.509   2.458  12.437
71538ION    NA+37947  41.482  38.949  10.767
71539ION    NA+37948  12.760  14.967  13.479
71540ION    NA+37949   8.738  42.195   0.009
71541ION    NA+37950  36.054  42.560   2.616
71542ION    NA+37951  12.133  28.125  14.130
71543ION    NA+37952  29.261  14.734  11.026
71544ION    NA+37953  37.508  11.280   1.881
71545ION    NA+37954  40.056   6.693  12.877
71546ION    NA+37955   3.315   6.927  11.079
71547ION    NA+37956  19.079  23.772   1.387
71548ION    NA+37957  43.805  17.268  12.055
71549ION    NA+37958  44.916   7.614   2.447
71550ION    NA+37959  28.601  20.054   3.564
71551ION    NA+37960  11.368  43.603  14.728
71552ION    NA+37961  17.574   1.969   4.369
71553ION    NA+37962  30.180  18.556   1.294
71554ION    NA+37963  36.989  19.600   3.203
71555ION    NA+37964  34.513  29.501   5.011
71556ION    NA+37965   8.671   5.838  10.716
71557ION    NA+37966  25.638  25.630   4.817
71558ION    NA+37967  10.481  16.873   9.810
71559ION    NA+37968   1.243  42.633  11.906
71560ION    NA+37969  23.065  35.596   1.822
71561ION    NA+37970  40.835   5.781   2.616
71562ION    NA+37971  31.532  18.648  14.026
71563ION    NA+37972  29.175  25.706   2.832
71564ION    NA+37973  37.985  41.572   0.590
71565ION    NA+37974   5.640  36.087   3.503
71566ION    NA+37975  34.720  34.198  14.815
71567ION    NA+37976  44.329  20.196  14.095
71568ION    NA+37977   9.800  38.373   4.594
71569ION    NA+37978  33.049  36.548   5.032
71570ION    NA+37979  12.565  10.256  11.207
71571ION    NA+37980  22.498  34.887  14.767
71572ION    NA+37981   4.265  17.882  14.710
71573ION    NA+37982  26.268  18.557  12.431
71574ION    NA+37983  35.480  34.184  14.096
71575ION    NA+37984  29.552   7.149   1.757
71576ION    NA+37985  35.007   1.331  10.221
71577ION    NA+37986  25.379   0.521  13.791
71578ION    NA+37987  42.160  27.783   3.851
71579ION    NA+37988  42.037  21.006  14.754
71580ION    NA+37989  44.604  28.009  11.059
71581ION    NA+37990  34.722  25.167  10.917
71582ION    NA+37991  17.242   3.298   3.716
71583ION    NA+37992   6.413   1.580   0.374
71584ION    NA+37993  41.010  26.700   2.844
71585ION    NA+37994  27.759  40.274   3.219
71586ION    NA+37995  19.802  22.194   3.199
71587ION    NA+37996   0.353  15.591  14.015
71588ION    NA+37997  21.113  40.069   2.884
71589ION    NA+37998  40.686   9.826  11.785
71590ION    NA+37999  42.285  42.572  12.446
71591ION    NA+38000   3.191   8.600   2.937
71592ION    NA+38001  37.208  41.436   0.339
71593ION    NA+38002  43.638  41.537   4.434
71594ION    NA+38003   1.834   0.878   0.233
71595ION    NA+38004  18.566  10.392  12.256
71596ION    NA+38005  42.320   1.436   2.024
71597ION    NA+38006  25.672  38.588   0.388
71598ION    NA+38007  24.268   2.160  14.552
71599ION    NA+38008  38.857  15.824   3.002
71600ION    NA+38009  43.290  37.642   2.158
71601ION    NA+38010  10.412  15.621  13.439
71602ION    NA+38011  40.151  27.927   3.342
71603ION    NA+38012  14.289  19.662   3.540
71604ION    NA+38013  19.195   6.169   1.377
71605ION    NA+38014  34.689  43.612  11.577
71606ION    NA+38015  23.710   5.277  11.140
71607ION    NA+38016  44.661  43.564   1.224
71608ION    NA+38017  22.645  34.821   4.588
71609ION    NA+38018  21.775   8.439   3.013
71610ION    NA+38019  41.764  18.866  12.795
71611ION    NA+38020   7.238  43.683   1.706
71612ION    NA+38021   9.229  14.142   2.673
71613ION    NA+38022  30.618   2.855  14.726
71614ION    NA+38023   3.009   7.646   4.639
71615ION    NA+38024   4.112  37.356   4.810
71616ION    NA+38025  34.131   3.683  11.374
71617ION    NA+38026  27.123  33.874  13.039
71618ION    NA+38027  23.349   2.475  14.816
71619ION    NA+38028   7.668  16.535  12.028
71620ION    NA+38029   7.862  41.345   3.343
71621ION    NA+38030  14.256   2.054   0.355
71622ION    NA+38031  28.809  33.454   0.878
71623ION    NA+38032  41.442  38.860   2.418
71624ION    NA+38033  44.257  15.387  12.088
71625ION    NA+38034  40.650  15.591   2.142
71626ION    NA+38035  32.744  14.129  14.286
71627ION    NA+38036  25.963  17.185  10.967
71628ION    NA+38037   3.801  25.022   2.575
71629ION    NA+38038  24.907   8.080   9.638
71630ION    NA+38039  22.397   2.854   2.308
71631ION    NA+38040  38.842  37.638  13.393
71632ION    NA+38041  18.621  36.925   1.811
71633ION    NA+38042   3.964   3.190  10.313
71634ION    NA+38043  33.974  41.305  10.655
71635ION    NA+38044  22.237  22.024  10.629
71636ION    NA+38045  43.457  15.582   3.896
71637ION    NA+38046  40.188  24.449  14.795
71638ION    NA+38047  40.471   7.405   3.164
71639ION    NA+38048   3.699   1.963   3.274
71640ION    NA+38049   5.756  27.103   3.874
71641ION    NA+38050   1.183   0.881   4.142
71642ION    NA+38051  30.195  12.973   0.512
71643ION    NA+38052   9.764  22.304   3.476
71644ION    NA+38053  20.776  30.902   2.469
71645ION    NA+38054  36.327   9.196   4.720
71646ION    NA+38055  14.831  16.713   3.807
71647ION    NA+38056  40.067  37.545   4.415
71648ION    NA+38057   5.853  14.669   0.387
71649ION    NA+38058   6.159  17.456   3.957
71650ION    NA+38059  10.078   5.972   3.334
71651ION    NA+38060  37.279  25.113  12.788
71652ION    NA+38061   7.179  39.489   2.032
71653ION    NA+38062  24.808  40.980  12.594
71654ION    NA+38063   9.842  24.563   4.842
71655ION    NA+38064  18.763   9.963   3.214
71656ION    NA+38065  18.782  42.723  13.495
71657ION    NA+38066   7.688   8.912  12.966
71658ION    NA+38067   3.352  17.121   5.045
71659ION    NA+38068  13.016  23.476   3.679
71660ION    NA+38069  26.247  28.308  11.150
71661ION    NA+38070   3.942  10.035   3.639
71662ION    NA+38071  31.164   5.405   1.357
71663ION    NA+38072   1.549  42.368  13.085
71664ION    NA+38073   3.722   9.026   3.691
71665ION    NA+38074  26.099   2.996   4.273
71666ION    NA+38075  13.478  35.754   3.604
71667ION    NA+38076  24.854   9.730   9.542
71668ION    NA+38077   1.745  32.870  12.531
71669ION    NA+38078  16.649   4.819  14.416
71670ION    NA+38079  12.748   6.418   4.268
71671ION    NA+38080  35.963  10.973  13.075
71672ION    NA+38081  10.131  23.581  14.145
71673ION    NA+38082  11.321  44.160  14.129
71674ION    NA+38083  37.123  35.305  10.763
71675ION    NA+38084   2.227  33.233  14.654
71676ION    NA+38085   6.342  36.887   2.655
71677ION    NA+38086   3.239  19.050  13.332
71678ION    NA+38087  14.628  12.378   0.343
71679ION    NA+38088  14.775  21.499  13.223
71680ION    NA+38089  18.428  21.141   2.238
71681ION    NA+38090   3.409  20.036   0.409
71682ION    NA+38091  31.444   4.469  11.542
71683ION    NA+38092  25.886  41.822   1.535
71684ION    NA+38093  28.232  12.852   0.527
71685ION    NA+38094  35.506  43.773  14.510
71686ION    NA+38095  17.322  31.288  14.288
71687ION    NA+38096  37.708  24.891  13.665
71688ION    NA+38097   5.000  23.216  10.297
71689ION    NA+38098   0.349   0.856   2.544
71690ION    NA+38099  43.209  13.673   3.845
71691ION    NA+38100   6.332  22.957  14.040
71692ION    NA+38101  38.380   0.380  11.533
71693ION    NA+38102  21.980  21.500   3.314
71694ION    NA+38103  32.847  18.172  13.797
71695ION    NA+38104  22.039  19.494   0.741
71696ION    NA+38105   0.919  24.957  11.109
71697ION    NA+38106   3.231  27.204  14.393
71698ION    NA+38107  39.241  22.843   0.160
71699ION    NA+38108  34.640   8.435  13.536
71700ION    NA+38109  40.203   0.474   0.517
71701ION    NA+38110  31.101  16.118  12.913
71702ION    NA+38111  37.977  30.906  10.824
71703ION    NA+38112  34.501  15.846  12.842
71704ION    NA+38113  36.453  33.479   3.194
71705ION    NA+38114  31.687  10.609   4.778
71706ION    NA+38115  44.812  35.707   4.326
71707ION    NA+38116  26.424  10.435   2.798
71708ION    NA+38117  42.427  25.205   1.511
71709ION    NA+38118  11.260  31.678   2.187
71710ION    NA+38119  38.095   6.141   2.749
71711ION    NA+38120  29.638  40.927  14.831
71712ION    NA+38121   4.335   4.951   1.257
71713ION    NA+38122  15.178  44.755  12.951
71714ION    NA+38123  18.231  42.863  14.318
71715ION    NA+38124  20.027  14.980  12.653
71716ION    NA+38125  44.792   6.766  10.732
71717ION    NA+38126  13.096  11.237   0.081
71718ION    NA+38127  10.389   7.169  13.149
71719ION    NA+38128  37.747  38.111  14.631
71720ION    NA+38129  18.689  24.245  11.618
71721ION    NA+38130  29.689  35.652   1.445
71722ION    NA+38131   1.692  43.408  10.747
71723ION    NA+38132  35.611  13.816  11.627
71724ION    NA+38133  14.433  29.865  12.028
71725ION    NA+38134  15.558   6.425   2.561
71726ION    NA+38135  18.296  23.737   2.247
71727ION    NA+38136  22.582   1.677   3.581
71728ION    NA+38137  15.074   8.981   3.276
71729ION    NA+38138  27.018   3.256  13.420
71730ION    NA+38139   0.804  17.628   3.220
71731ION    NA+38140  20.570   2.299  13.484
71732ION    NA+38141  39.382  38.544  10.887
71733ION    NA+38142   9.198  38.891  10.533
71734ION    NA+38143  31.743  33.211  13.275
71735ION    NA+38144   5.845  24.413   1.688
71736ION    NA+38145   5.888  21.492  14.860
71737ION    NA+38146  19.176   8.342  10.607
71738ION    NA+38147  37.312  42.820  11.656
71739ION    NA+38148  17.267  35.110  10.992
71740ION    NA+38149  36.965  23.260   0.336
71741ION    NA+38150  19.467  15.690  12.686
71742ION    NA+38151  22.554  42.605  13.089
71743ION    NA+38152  15.676  32.723   1.771
71744ION    NA+38153   8.692   8.347   4.657
71745ION    NA+38154  20.620  10.425  12.756
71746ION    NA+38155  25.233  16.457  12.137
71747ION    NA+38156   8.416  23.518  11.614
71748ION    NA+38157   3.209  44.974   1.160
71749ION    NA+38158  43.054  25.955   0.295
71750ION    NA+38159  27.054  22.477   2.594
71751ION    NA+38160  31.522  44.825  12.308
71752ION    NA+38161  34.569   9.248  12.952
71753ION    NA+38162  15.566  31.499   4.285
71754ION    NA+38163  44.570  41.972  11.189
71755ION    NA+38164  31.875  34.552   1.529
71756ION    NA+38165   2.908  21.713   3.529
71757ION    NA+38166   6.520  25.651  10.459
71758ION    NA+38167   1.024  18.588   3.048
71759ION    NA+38168  30.252  22.338   4.477
71760ION    NA+38169  42.717   3.677  13.955
71761ION    NA+38170  23.926  37.441   1.030
71762ION    NA+38171  35.960  38.411   3.138
71763ION    NA+38172  41.907   2.739  12.947
71764ION    NA+38173   1.812  44.721  13.027
71765ION    NA+38174   9.911  21.673  10.799
71766ION    NA+38175  23.764  23.322  12.289
71767ION    NA+38176  30.525  23.821   5.169
71768ION    NA+38177  29.503   9.314   1.941
71769ION    NA+38178  17.839  38.244   3.959
71770ION    NA+38179   6.391  26.855  13.433
71771ION    NA+38180  34.501  12.512  11.528
71772ION    NA+38181  32.725  26.855   0.228
71773ION    NA+38182  43.167  32.612   1.357
71774ION    NA+38183  25.223   8.104   5.516
71775ION    NA+38184  42.259  34.309  10.693
71776ION    NA+38185  32.843  37.375   3.210
71777ION    NA+38186   8.918   0.294  13.984
71778ION    NA+38187  32.462  13.921   0.138
71779ION    NA+38188   8.383   5.464  12.358
71780ION    NA+38189  38.417  39.525  11.624
71781ION    NA+38190  32.479   7.722  10.849
71782ION    NA+38191  10.341  24.427  13.576
71783ION    NA+38192  31.124  44.007   1.483
71784ION    NA+38193  10.758  24.976  14.866
71785ION    NA+38194  18.769  30.745   1.117
71786ION    NA+38195  17.957  30.411   4.198
71787ION    NA+38196  28.886  28.777   1.146
71788ION    NA+38197   9.698  32.044   0.506
71789ION    NA+38198  38.246  41.193  11.686
71790ION    NA+38199  17.115  23.123  13.312
71791ION    NA+38200  40.048  24.167   1.228
71792ION    NA+38201   2.508   2.887  14.756
71793ION    NA+38202   8.402  36.308   0.869
71794ION    NA+38203  10.884   8.282  11.075
71795ION    NA+38204  24.900  15.461  14.360
71796ION    NA+38205  43.548  28.116  13.757
71797ION    NA+38206   0.581  27.588  13.126
71798ION    NA+38207   8.602  43.632   1.810
71799ION    NA+38208  37.101  38.528  13.986
71800ION    NA+38209   4.097  28.589  13.765
71801ION    NA+38210  44.119  18.819  13.231
71802ION    NA+38211   4.308  23.051   3.410
71803ION    NA+38212  23.761  19.142   4.519
71804ION    NA+38213  21.942  25.485   1.861
71805ION    NA+38214  38.918  34.673   3.764
71806ION    NA+38215   8.698  17.753  13.509
71807ION    NA+38216   9.999  25.956  12.583
71808ION    NA+38217  43.509  37.131   2.849
71809ION    NA+38218  35.985  18.539  13.035
71810ION    NA+38219  43.441  23.642  13.111
71811ION    NA+38220  33.766  25.602   0.646
71812ION    NA+38221  25.739  25.541   1.266
71813ION    NA+38222  19.738  24.129   2.379
71814ION    NA+38223  24.363  10.498   0.998
71815ION    NA+38224  29.105  12.828  12.382
71816ION    NA+38225  12.993  21.818  11.836
71817ION    NA+38226  34.574  25.691  13.148
71818ION    NA+38227  38.885   9.887   5.423
71819ION    NA+38228  41.238  25.226  10.800
71820ION    NA+38229  23.195   2.061   1.870
71821ION    NA+38230  28.953   5.268   3.062
71822ION    NA+38231  43.272  25.779  12.054
71823ION    NA+38232   8.783  34.894  14.893
71824ION    NA+38233  40.360  38.872  11.109
71825ION    NA+38234  41.905  33.700   3.660
71826ION    NA+38235   0.609  40.399   4.654
71827ION    NA+38236  27.835   2.356  13.438
71828ION    NA+38237   5.754  24.236  13.738
71829ION    NA+38238   3.864  35.346  14.288
71830ION    NA+38239  43.283  12.098  12.933
71831ION    NA+38240  25.070   7.391  12.071
71832ION    NA+38241  41.066  13.496  14.256
71833ION    NA+38242  14.112   6.433   2.554
71834ION    NA+38243  16.753  14.301   2.918
71835ION    NA+38244   3.491  24.345   4.600
71836ION    NA+38245  22.144  41.240   0.366
71837ION    NA+38246  41.822  30.439   4.195
71838ION    NA+38247  26.253  11.780  13.535
71839ION    NA+38248  29.885   0.780  10.366
71840ION    NA+38249   2.767   0.412  11.071
71841ION    NA+38250  26.980  30.493  12.997
71842ION    NA+38251   0.664  43.605  10.830
71843ION    NA+38252  40.423  33.586   0.956
71844ION    NA+38253  37.328   9.330   2.251
71845ION    NA+38254  18.802  42.665   1.317
71846ION    NA+38255  41.082  30.420   0.070
71847ION    NA+38256  41.323  15.619  13.843
71848ION    NA+38257  14.139  14.907   3.927
71849ION    NA+38258  21.992  37.016  14.489
71850ION    NA+38259   9.804  28.013  13.257
71851ION    NA+38260  26.048   5.922   3.346
71852ION    NA+38261  28.481   8.544   1.089
71853ION    NA+38262  29.665  12.955  11.460
71854ION    NA+38263  37.321  37.265  14.310
71855ION    NA+38264  33.665   6.630  12.497
71856ION    NA+38265  38.311  18.796   3.044
71857ION    NA+38266   4.216  13.173  11.386
71858ION    NA+38267   7.931  42.935   4.609
71859ION    NA+38268  21.764  29.534  12.148
71860ION    NA+38269   4.886  40.102   2.856
71861ION    NA+38270  27.046   8.144  14.530
71862ION    NA+38271  28.804  15.415  12.882
71863ION    NA+38272  10.198   0.305   4.494
71864ION    NA+38273  30.687  44.400  14.849
71865ION    NA+38274  39.118   8.684  12.045
71866ION    NA+38275  17.169  23.673   0.665
71867ION    NA+38276  11.337  10.740   2.336
71868ION    NA+38277  33.526  28.468  11.072
71869ION    NA+38278   5.340   5.275   4.465
71870ION    NA+38279  32.604  19.302  14.451
71871ION    NA+38280  19.296   3.839   4.283
71872ION    NA+38281  27.653   6.089  12.229
71873ION    NA+38282  16.828  34.511   4.549
71874ION    NA+38283  35.843  16.593   0.310
71875ION    NA+38284   5.417   2.394  12.590
71876ION    NA+38285   9.856  23.194   1.710
71877ION    NA+38286  23.044  41.744   0.501
71878ION    NA+38287  32.126   4.987  10.669
71879ION    NA+38288   1.500  10.210   2.866
71880ION    NA+38289  14.120  37.264   2.454
71881ION    NA+38290  11.433   8.290  11.942
71882ION    NA+38291  31.081  15.522   2.632
71883ION    NA+38292  26.051  23.062   1.863
71884ION    NA+38293  27.656  26.218   5.094
71885ION    NA+38294  31.633   6.175  10.670
71886ION    NA+38295  35.710  28.679   3.410
71887ION    NA+38296  14.105  32.371   2.801
71888ION    NA+38297  15.734   4.019   4.576
71889ION    NA+38298   4.293  38.088  13.107
71890ION    NA+38299  36.767  30.168   2.614
71891ION    NA+38300  34.248  43.019  12.250
71892ION    NA+38301  31.453  44.341  13.771
71893ION    NA+38302  35.983  13.040  13.235
71894ION    NA+38303  21.373  35.828   3.509
71895ION    NA+38304  33.481   0.810   3.092
71896ION    NA+38305  32.665  33.156   1.344
71897ION    NA+38306  17.400  33.010  12.475
71898ION    NA+38307  18.603  41.942  14.434
71899ION    NA+38308   5.275  20.317   0.928
71900ION    NA+38309  17.192  20.776  12.606
71901ION    NA+38310  15.125  12.385  13.512
71902ION    NA+38311  39.881  12.325   0.347
71903ION    NA+38312  32.351  39.515  10.720
71904ION    NA+38313  17.180   8.701   9.686
71905ION    NA+38314  12.527   6.164   3.327
71906ION    NA+38315  42.821  26.289   2.169
71907ION    NA+38316  28.821  20.247  13.286
71908ION    NA+38317   7.404  26.110   2.301
71909ION    NA+38318  20.682  30.058  11.595
71910ION    NA+38319  36.312   3.883  14.431
71911ION    NA+38320  15.356  44.936  14.807
71912ION    NA+38321  41.005  37.200  14.278
71913ION    NA+38322  18.297  29.952   1.105
71914ION    NA+38323  42.388  29.204   0.138
71915ION    NA+38324  11.808  42.771   9.521
71916ION    NA+38325  24.055  26.533  10.625
71917ION    NA+38326  41.727  28.626   3.000
71918ION    NA+38327   6.607  27.735  12.835
71919ION    NA+38328  44.405  39.383  13.134
71920ION    NA+38329  25.659  27.463   4.779
71921ION    NA+38330  33.644  23.166  14.058
71922ION    NA+38331  13.303  41.365   3.233
71923ION    NA+38332  23.091  16.764  12.075
71924ION    NA+38333  44.514  44.092   2.236
71925ION    NA+38334  40.802  21.036  14.166
71926ION    NA+38335   1.557  18.330  10.767
71927ION    NA+38336  13.082   5.433   3.724
71928ION    NA+38337   2.749  33.610  13.848
71929ION    NA+38338  22.099   6.521  13.155
71930ION    NA+38339  43.455  27.582   2.984
71931ION    NA+38340  10.386  13.052   0.148
71932ION    NA+38341  11.642   5.697   4.523
71933ION    NA+38342  38.496  44.474  11.126
71934ION    NA+38343  31.381  40.734   4.623
71935ION    NA+38344  37.347  29.877   1.821
71936ION    NA+38345  34.685   8.514   4.541
71937ION    NA+38346  18.242   8.771  11.597
71938ION    NA+38347  38.325  22.598  10.512
71939ION    NA+38348   6.678  28.936   3.404
71940ION    NA+38349  41.383  24.349  14.258
71941ION    NA+38350  32.705  13.323   0.902
71942ION    NA+38351  38.375  15.572  12.888
71943ION    NA+38352  15.304  41.768   4.598
71944ION    NA+38353  33.888   1.085  14.964
71945ION    NA+38354  34.873  36.989  11.198
71946ION    NA+38355  19.094  34.425  13.039
71947ION    NA+38356  36.373  14.206  14.421
71948ION    NA+38357  35.408  42.420  12.397
71949ION    NA+38358  25.576  24.781   3.536
71950ION    NA+38359  33.901   8.585  12.164
71951ION    NA+38360   2.513  39.850   0.867
71952ION    NA+38361  25.729  38.307   2.217
71953ION    NA+38362  42.038  15.238   1.603
71954ION    NA+38363  36.812  33.765  13.937
71955ION    NA+38364  11.819  12.582   4.394
71956ION    NA+38365  25.661   8.020  10.291
71957ION    NA+38366   6.748  31.960   2.905
71958ION    NA+38367  18.518  27.306  11.329
71959ION    NA+38368  30.628  19.637  14.532
71960ION    NA+38369  34.855  36.584   0.474
71961ION    NA+38370   0.485  17.202  13.843
71962ION    NA+38371  44.592  39.835  11.677
71963ION    NA+38372  18.993  14.995   3.741
71964ION    NA+38373  23.713  34.276  11.099
71965ION    NA+38374  37.741  18.013   2.698
71966ION    NA+38375  35.214  10.880  14.027
71967ION    NA+38376  34.131  17.458  11.585
71968ION    NA+38377   8.890  14.852   5.047
71969ION    NA+38378  30.937  34.399  13.498
71970ION    NA+38379   8.075  34.155  10.950
71971ION    NA+38380   7.405  32.514   1.408
71972ION    NA+38381   4.814  24.680  12.587
71973ION    NA+38382  11.144  44.168   1.787
71974ION    NA+38383  40.280  32.830  14.227
71975ION    NA+38384  24.699  21.355   3.010
71976ION    NA+38385  41.088  33.806  14.872
71977ION    NA+38386  25.575  24.047  12.473
71978ION    NA+38387  25.020  20.493  14.304
71979ION    NA+38388  12.123  12.265  10.756
71980ION    NA+38389  23.222   9.059  13.759
71981ION    NA+38390  34.323   5.706   0.783
71982ION    NA+38391  28.638  14.084  14.192
71983ION    NA+38392  32.719  25.679   0.989
71984ION    NA+38393  43.316  34.740  12.986
71985ION    NA+38394  41.596  23.464   0.856
71986ION    NA+38395  17.547   3.373   2.413
71987ION    NA+38396   1.062  12.628  10.587
71988ION    NA+38397  22.695  27.977  12.823
71989ION    NA+38398   2.546  11.283   1.552
71990ION    NA+38399   7.421  36.591  12.921
71991ION    NA+38400  28.894   2.702   3.628
71992ION    NA+38401  27.691  18.274   4.323
71993ION    NA+38402  44.547  42.570   4.282
71994ION    NA+38403   1.259  18.563   4.417
71995ION    NA+38404  11.223   7.378  12.391
71996ION    NA+38405  35.726  14.686   3.776
71997ION    NA+38406  33.226  20.979   2.569
71998ION    NA+38407   6.483  13.685   1.029
71999ION    NA+38408  28.678   1.833  13.886
72000ION    NA+38409   9.094  36.916   2.131
72001ION    NA+38410  36.876  30.150  11.460
72002ION    NA+38411   7.620  11.661  13.462
72003ION    NA+38412   4.602  21.430   4.762
72004ION    NA+38413   7.176  30.741  11.333
72005ION    NA+38414  18.171   1.390   2.297
72006ION    NA+38415   6.436  12.654   0.900
72007ION    NA+38416  10.455  20.926  11.816
72008ION    NA+38417  30.426  14.693  11.799
72009ION    NA+38418  37.753  30.567   0.765
72010ION    NA+38419  27.424   7.110  11.531
72011ION    NA+38420  31.264  15.683  11.615
72012ION    NA+38421   4.925  12.463   0.712
72013ION    NA+38422   8.759  14.825   1.642
72014ION    NA+38423  35.570  44.071  11.908
72015ION    NA+38424  44.580  12.995  11.799
72016ION    NA+38425   6.213  14.838   2.847
72017ION    NA+38426  19.617  21.141   9.641
72018ION    NA+38427   9.728   7.146  12.380
72019ION    NA+38428  37.688  41.916  14.906
72020ION    NA+38429   8.556  14.866   2.523
72021ION    NA+38430  22.206  17.673  11.098
72022ION    NA+38431  40.153   6.976   0.949
72023ION    NA+38432   2.226  27.591   0.628
72024ION    NA+38433  40.484  28.631  14.131
72025ION    NA+38434  34.627  11.412   1.413
72026ION    NA+38435  41.565  44.312   1.277
72027ION    NA+38436   9.074   3.476   0.749
72028ION    NA+38437   2.526  27.193   2.975
72029ION    NA+38438  42.086   8.109  11.082
72030ION    NA+38439  23.178   3.464   3.514
72031ION    NA+38440   6.739  41.557   1.356
72032ION    NA+38441  23.095  20.776   4.540
72033ION    NA+38442  23.406  43.107  13.236
72034ION    NA+38443  16.899  40.398   0.367
72035ION    NA+38444  18.864  35.433   1.924
72036ION    NA+38445  10.987  43.735  10.473
72037ION    NA+38446  28.969  15.181   2.422
72038ION    NA+38447  44.781   4.882  11.454
72039ION    NA+38448  30.704  24.670  14.168
72040ION    NA+38449   9.300  29.318   0.932
72041ION    NA+38450  36.622  24.141  12.618
72042ION    NA+38451  27.135   5.312  14.352
72043ION    NA+38452  29.639  40.024   0.262
72044ION    NA+38453   8.217  40.725   0.411
72045ION    NA+38454  32.792  43.288   4.274
72046ION    NA+38455   8.383  10.178  13.718
72047ION    NA+38456  39.683  31.846  12.186
72048ION    NA+38457  13.752  30.580   2.900
72049ION    NA+38458  11.502  23.248   1.054
72050ION    NA+38459  25.128   5.885   3.827
72051ION    NA+38460  16.753  21.906  14.838
72052ION    NA+38461  41.241  37.947   1.315
72053ION    NA+38462  31.849   7.001   1.073
72054ION    NA+38463   5.923  19.844  13.326
72055ION    NA+38464  23.050  15.853   1.197
72056ION    NA+38465  43.282   3.369   1.775
72057ION    NA+38466  25.688  35.038   3.289
72058ION    NA+38467  39.326  16.140   0.523
72059ION    NA+38468  24.246  39.410   1.979
72060ION    NA+38469  35.963  30.566  13.362
72061ION    NA+38470  32.514  31.879   3.162
72062ION    NA+38471  43.988   6.935   0.793
72063ION    NA+38472  33.310  42.981  14.334
72064ION    NA+38473  35.310   6.403  11.217
72065ION    NA+38474   7.864  12.835  11.941
72066ION    NA+38475  17.078  33.246   0.579
72067ION    NA+38476   6.514   8.961   2.854
72068ION    NA+38477   7.510  43.975  11.954
72069ION    NA+38478  26.743  17.153   0.068
72070ION    NA+38479  30.980  35.453   1.044
72071ION    NA+38480  21.913  25.561  14.079
72072ION    NA+38481  44.135   2.982   0.002
72073ION    NA+38482  36.128  24.365   3.615
72074ION    NA+38483  38.412   0.719   2.764
72075ION    NA+38484   9.364   9.161   0.181
72076ION    NA+38485  37.774  10.184  12.901
72077ION    NA+38486  42.744  23.428   3.806
72078ION    NA+38487   9.017  30.661  13.727
72079ION    NA+38488  19.917  41.137   4.033
72080ION    NA+38489  13.809  18.200   3.611
72081ION    NA+38490  39.645  14.494  10.326
72082ION    NA+38491  30.686  27.674  13.655
72083ION    NA+38492  34.128  27.054  13.971
72084ION    NA+38493   1.643  13.604   1.277
72085ION    NA+38494  15.432  26.192   2.122
72086ION    NA+38495  23.909  29.313  12.895
72087ION    NA+38496  13.243  42.150  11.573
72088ION    NA+38497  38.274  30.697  11.992
72089ION    NA+38498  13.289  29.955   2.428
72090ION    NA+38499   5.164  25.715   0.525
72091ION    NA+38500  42.826   2.202  13.754
72092ION    NA+38501  13.861   7.661  14.906
72093ION    NA+38502  41.867  35.868  14.845
72094ION    NA+38503  27.253  44.335  13.417
72095ION    NA+38504  40.681  11.421   0.889
72096ION    NA+38505  19.679  40.105   4.148
72097ION    NA+38506  33.556  12.102  11.135
72098ION    NA+38507  15.943   4.855   3.640
72099ION    NA+38508  15.167  11.506  10.570
72100ION    NA+38509  33.672  42.846   3.643
72101ION    NA+38510  16.260  43.350  14.184
72102ION    NA+38511  20.064  29.755   4.104
72103ION    NA+38512  34.574  27.848  11.583
72104ION    NA+38513   4.669   4.620   4.116
72105ION    NA+38514  19.071  38.527  14.875
72106ION    NA+38515  14.917  32.935   2.651
72107ION    NA+38516  43.599  43.488  11.670
72108ION    NA+38517  24.983  24.477   4.122
72109ION    NA+38518  13.007  36.942  14.883
72110ION    NA+38519  28.867  37.067   1.843
72111ION    NA+38520  30.030  14.771   0.916
72112ION    NA+38521  43.173  44.149   0.971
72113ION    NA+38522  18.693  36.768  12.738
72114ION    NA+38523   1.717  40.995  11.884
72115ION    NA+38524   6.968  24.188  13.493
72116ION    NA+38525  32.255  20.941   1.245
72117ION    NA+38526  10.196  21.036   4.949
72118ION    NA+38527   4.302  30.854   1.874
72119ION    NA+38528  15.143  28.055   0.449
72120ION    NA+38529  15.186   9.086   1.296
72121ION    NA+38530  34.693  15.838  11.481
72122ION    NA+38531   9.726  27.974   3.867
72123ION    NA+38532  10.590   8.944  13.284
72124ION    NA+38533  33.015  34.084   1.208
72125ION    NA+38534  16.915  36.815  10.624
72126ION    NA+38535  36.098   7.324   1.206
72127ION    NA+38536  20.768  15.577  13.496
72128ION    NA+38537  10.653  34.959   1.425
72129ION    NA+38538  38.177  43.034  10.777
72130ION    NA+38539  19.168  21.711   2.595
72131ION    NA+38540  16.523  22.936   1.647
72132ION    NA+38541  12.643  32.412  10.819
72133ION    NA+38542  44.707  19.660   4.585
72134ION    NA+38543  13.363  25.269  10.281
72135ION    NA+38544  37.195  36.430   2.547
72136ION    NA+38545  21.641  44.977   2.335
72137ION    NA+38546  26.447  41.862   2.362
72138ION    NA+38547   0.394  14.054  10.676
72139ION    NA+38548  10.022  29.719   0.717
72140ION    NA+38549   9.394  31.095   0.796
72141ION    NA+38550   1.751  23.199  14.782
72142ION    NA+38551  41.924  18.463  13.696
72143ION    NA+38552  13.820  10.159  13.853
72144ION    NA+38553  19.841  39.145   1.771
72145ION    NA+38554  29.668  21.443  13.218
72146ION    NA+38555  22.121  40.322  11.335
72147ION    NA+38556  38.825  23.995   0.979
72148ION    NA+38557  22.362  42.250  12.270
72149ION    NA+38558  21.076  42.480   0.767
72150ION    NA+38559   6.296  18.848  14.857
72151ION    NA+38560  13.511  34.484  14.298
72152ION    NA+38561  44.970  42.641  10.778
72153ION    NA+38562   6.046  44.093   0.977
72154ION    NA+38563  38.273  11.689  10.802
72155ION    NA+38564  42.440  30.193   1.257
72156ION    NA+38565  22.249   5.710  12.548
72157ION    NA+38566   0.967   0.565  10.799
72158ION    NA+38567  29.106   6.571  12.676
72159ION    NA+38568  35.539  19.082  14.209
72160ION    NA+38569  33.349   8.838   1.751
72161ION    NA+38570  16.018  41.778   3.655
72162ION    NA+38571  20.672  36.130   1.669
72163ION    NA+38572   0.587   7.955   1.123
72164ION    NA+38573  19.997   3.823  10.796
72165ION    NA+38574  38.837  12.365   0.466
72166ION    NA+38575  11.698  38.863  10.777
72167ION    NA+38576   8.346  28.723   2.634
72168ION    NA+38577  37.828  33.316   1.398
72169ION    NA+38578  37.114   6.695   1.643
72170ION    NA+38579  39.467  25.528  10.857
72171ION    NA+38580  37.507   6.751  14.339
72172ION    NA+38581   7.166  41.313   3.945
72173ION    NA+38582  14.427   4.710  12.559
72174ION    NA+38583  38.372  31.671   1.485
72175ION    NA+38584  25.598   8.111  11.618
72176ION    NA+38585  37.057   5.812  11.387
72177ION    NA+38586  29.088   9.192  13.746
72178ION    NA+38587  16.899  41.703   4.123
72179ION    NA+38588  33.202  27.676  11.406
72180ION    NA+38589  34.004  44.362  11.605
72181ION    NA+38590  18.503  13.225  12.618
72182ION    NA+38591  12.634  24.938   1.916
72183ION    NA+38592  15.421  21.997  12.830
72184ION    NA+38593  44.716  25.537   4.140
72185ION    NA+38594  38.119  38.210   1.146
72186ION    NA+38595  36.759  14.134  13.442
72187ION    NA+38596  32.992  25.231  13.872
72188ION    NA+38597  40.988  43.807  12.996
72189ION    NA+38598  30.805  14.470  10.900
72190ION    NA+38599  31.639  41.272  12.073
72191ION    NA+38600  43.726  39.058   3.718
72192ION    NA+38601  15.033  34.576  10.962
72193ION    NA+38602   5.912   6.094   4.656
72194ION    NA+38603  30.394   3.940  10.624
72195ION    NA+38604   3.956  34.102  10.401
72196ION    NA+38605  10.782  36.786   3.461
72197ION    NA+38606  36.413   2.966   4.974
72198ION    NA+38607  31.303  19.467   5.287
72199ION    NA+38608  26.549  41.707  14.069
72200ION    NA+38609   8.293  14.104  13.505
72201ION    NA+38610  27.442  21.023  14.966
72202ION    NA+38611  34.507  31.848   0.150
72203ION    NA+38612  16.909   1.128   1.602
72204ION    NA+38613   8.534  11.885   2.957
72205ION    NA+38614  41.092  44.869   1.961
72206ION    NA+38615   3.408  14.224   2.314
72207ION    NA+38616  33.115   5.852  10.920
72208ION    NA+38617  28.454   5.957   3.587
72209ION    NA+38618  30.005  27.814   1.122
72210ION    NA+38619  17.364  36.507   1.437
72211ION    NA+38620   8.099  35.826  12.555
72212ION    NA+38621  28.094  41.849   1.667
72213ION    NA+38622  44.811   1.838   0.645
72214ION    NA+38623  35.888  43.543  13.141
72215ION    NA+38624  27.024   4.339   3.711
72216ION    NA+38625   9.902  33.335  11.687
72217ION    NA+38626  13.778  34.118   5.692
72218ION    NA+38627   9.819  24.174   2.660
72219ION    NA+38628  21.749  29.592  11.246
72220ION    NA+38629  39.350  10.626  14.437
72221ION    NA+38630  23.390  24.198   1.804
72222ION    NA+38631  21.438  20.644  13.521
72223ION    NA+38632   8.499  37.354   1.599
72224ION    NA+38633  18.753   6.626  12.662
72225ION    NA+38634  24.131   1.721  13.663
72226ION    NA+38635  30.695  37.594  13.175
72227ION    NA+38636   5.721  10.374   4.628
72228ION    NA+38637  30.268  26.083  14.910
72229ION    NA+38638  15.265   5.226   0.488
72230ION    NA+38639  33.243  31.344   4.446
72231ION    NA+38640  10.424  24.573   0.718
72232ION    NA+38641  31.394  22.888   0.051
72233ION    NA+38642  43.367  34.629   0.305
72234ION    NA+38643   2.303  43.248  12.378
72235ION    NA+38644  24.125  37.830  13.585
72236ION    NA+38645  37.632   7.323  10.697
72237ION    NA+38646  41.724  20.964  10.566
72238ION    NA+38647  20.177  37.538   2.651
72239ION    NA+38648  18.690  25.397  11.031
72240ION    NA+38649   4.383   1.927  12.587
72241ION    NA+38650  19.285   5.723  11.167
72242ION    NA+38651  22.001  13.077   0.397
72243ION    NA+38652  11.218  24.916  13.145
72244ION    NA+38653  11.783  21.038  12.122
72245ION    NA+38654   5.788   7.339   3.673
72246ION    NA+38655  26.700  38.992   0.990
72247ION    NA+38656  18.750  40.258   1.817
72248ION    NA+38657  34.719   0.382  10.093
72249ION    NA+38658  29.623  19.839  11.943
72250ION    NA+38659  32.076  16.182   0.714
72251ION    NA+38660   3.434  26.495  12.513
72252ION    NA+38661  16.540   2.725   4.212
72253ION    NA+38662  23.661  29.028  13.988
72254ION    NA+38663  37.679  17.785  11.736
72255ION    NA+38664  30.141   7.702   0.948
72256ION    NA+38665  37.152  20.460  11.452
72257ION    NA+38666  14.868   1.287   3.516
72258ION    NA+38667  22.722  19.814   3.664
72259ION    NA+38668  32.980  29.440  13.976
72260ION    NA+38669  13.534  17.557   0.730
72261ION    NA+38670  33.755  25.303   1.714
72262ION    NA+38671  26.443  32.981   0.334
72263ION    NA+38672  23.423  27.605  13.664
72264ION    NA+38673  19.060  32.384   3.038
72265ION    NA+38674  11.849  17.154   4.281
72266ION    NA+38675  19.622   8.506   4.131
72267ION    NA+38676  25.479  22.458  12.685
72268ION    NA+38677  16.661  41.240   4.977
72269ION    NA+38678  35.006  14.331  10.493
72270ION    NA+38679   3.813  19.168   2.167
72271ION    NA+38680  23.186  38.551   0.946
72272ION    NA+38681  21.330  44.025   3.197
72273ION    NA+38682  13.406  17.244   3.631
72274ION    NA+38683  38.776  21.327   0.931
72275ION    NA+38684  19.617  25.102   1.914
72276ION    NA+38685  29.000  16.535   0.389
72277ION    NA+38686  37.516  23.939  11.532
72278ION    NA+38687  29.675   2.640  14.212
72279ION    NA+38688  21.223  31.437   1.751
72280ION    NA+38689  40.513  12.941  14.877
72281ION    NA+38690  15.993  16.520  13.777
72282ION    NA+38691  20.953  38.237  10.681
72283ION    NA+38692  12.098  30.635   3.766
72284ION    NA+38693   3.503  44.825   4.055
72285ION    NA+38694  19.119  43.374  14.550
72286ION    NA+38695  44.904  18.972   0.256
72287ION    NA+38696  22.782  43.715   4.064
72288ION    NA+38697  38.119  25.640  12.919
72289ION    NA+38698  22.336  32.662  13.868
72290ION    NA+38699  35.429  30.516  11.447
72291ION    NA+38700  44.645  42.699   0.721
72292ION    NA+38701   1.029  44.909   2.284
72293ION    NA+38702   1.532  16.680  11.374
72294ION    NA+38703   5.723  12.337  14.758
72295ION    NA+38704  26.479   8.142   2.640
72296ION    NA+38705  31.307   0.672   3.781
72297ION    NA+38706  34.152  39.118   3.270
72298ION    NA+38707  39.198  30.770  12.367
72299ION    NA+38708  43.277  14.233   0.406
72300ION    NA+38709  40.172  34.368   2.545
72301ION    NA+38710   2.911  35.527  13.282
72302ION    NA+38711  25.924  29.087  12.561
72303ION    NA+38712  20.570  26.172  10.557
72304ION    NA+38713  42.938  44.126   5.073
72305ION    NA+38714  30.422  43.272   2.849
72306ION    NA+38715  13.550  10.346   2.474
72307ION    NA+38716  36.013  19.270   3.086
72308ION    NA+38717  25.771  36.127   0.131
72309ION    NA+38718  32.656   6.687   2.709
72310ION    NA+38719  14.029  34.267   4.313
72311ION    NA+38720  20.148  20.630  13.130
72312ION    NA+38721   3.404  40.160   3.592
72313ION    NA+38722  30.112  44.372  13.064
72314ION    NA+38723  38.833   9.783   3.574
72315ION    NA+38724  43.466   1.105  11.827
72316ION    NA+38725  12.949   7.933   2.788
72317ION    NA+38726  27.276  39.247  13.277
72318ION    NA+38727  42.246  28.261   0.501
72319ION    NA+38728  17.710  18.672   5.450
72320ION    NA+38729  26.772  30.727  11.549
72321ION    NA+38730  14.051  31.509   4.563
72322ION    NA+38731  39.343  11.794  11.122
72323ION    NA+38732  23.184   6.550   3.650
72324ION    NA+38733  21.923  38.922  13.684
72325ION    NA+38734  20.493  17.673   4.720
72326ION    NA+38735  18.567  41.469   2.007
72327ION    NA+38736  24.150  24.471   2.733
72328ION    NA+38737   1.165  40.937   4.021
72329ION    NA+38738  41.409  33.657   2.348
72330ION    NA+38739  27.508  35.808  10.814
72331ION    NA+38740   9.483  19.055  13.524
72332ION    NA+38741   8.507  31.256   0.614
72333ION    NA+38742  42.480  17.847   4.868
72334ION    NA+38743  31.402  42.513   0.858
72335ION    NA+38744  36.060   0.448  14.550
72336ION    NA+38745  34.565  35.470   1.310
72337ION    NA+38746  22.919  14.549   3.087
72338ION    NA+38747  34.776  43.702  12.569
72339ION    NA+38748  10.199  26.837   5.115
72340ION    NA+38749  34.906  26.605  10.811
72341ION    NA+38750  11.335   4.999   1.573
72342ION    NA+38751  22.721  27.749   2.597
72343ION    NA+38752  14.719   0.287  14.267
72344ION    NA+38753  29.530  22.795   4.587
72345ION    NA+38754  43.801   8.075  14.556
72346ION    NA+38755  30.139  26.045   2.694
72347ION    NA+38756  27.440  41.483   4.342
72348ION    NA+38757  29.684  33.187   3.567
72349ION    NA+38758   2.021   8.247  11.149
72350ION    NA+38759  26.421   0.425  14.968
72351ION    NA+38760  24.499  12.252  13.790
72352ION    NA+38761  33.265  24.318   4.352
72353ION    NA+38762  16.866  26.773   2.766
72354ION    NA+38763   0.261  13.627   1.981
72355ION    NA+38764   3.067   5.030   2.112
72356ION    NA+38765  21.656  43.594  11.150
72357ION    NA+38766  41.189  21.649  14.695
72358ION    NA+38767   3.073   0.406  12.352
72359ION    NA+38768  12.211  43.027   0.763
72360ION    NA+38769  16.996  15.444   1.644
72361ION    NA+38770  13.143  12.322   1.090
72362ION    NA+38771   2.735  27.078   1.134
72363ION    NA+38772  43.325   1.538  12.718
72364ION    NA+38773  15.865   8.419   4.668
72365ION    NA+38774  37.111   2.869  12.039
72366ION    NA+38775  29.928  28.045  13.661
72367ION    NA+38776  39.403  10.073   4.724
72368ION    NA+38777   6.128  38.503   1.517
72369ION    NA+38778   3.973  40.521  10.912
72370ION    NA+38779   5.011  32.021  12.442
72371ION    NA+38780   0.769   1.452  10.184
72372ION    NA+38781  11.778   5.869   3.477
72373ION    NA+38782   5.056  15.599  14.195
72374ION    NA+38783   8.867  16.696  13.511
72375ION    NA+38784  40.503   0.811  13.587
72376ION    NA+38785   3.002  22.696  12.912
72377ION    NA+38786  15.783  40.710   4.049
72378ION    NA+38787  27.744  38.275  12.475
72379ION    NA+38788  42.837   5.691   0.729
72380ION    NA+38789   7.171  33.898   0.947
72381ION    NA+38790  15.696  14.340   2.187
72382ION    NA+38791  31.193  23.712   3.911
72383ION    NA+38792   8.257  15.589  12.417
72384ION    NA+38793  40.555  23.113   4.102
72385ION    NA+38794  22.818   9.894  13.178
72386ION    NA+38795   3.655  30.049   4.590
72387ION    NA+38796  34.213   0.235  13.732
72388ION    NA+38797  27.746   1.668   3.609
72389ION    NA+38798  31.320   2.600  14.191
72390ION    NA+38799  26.345  24.465   2.934
72391ION    NA+38800  34.306  24.665   3.339
72392ION    NA+38801  20.563  34.135   2.672
72393ION    NA+38802  29.073  23.525  12.141
72394ION    NA+38803  41.578  40.802  14.734
72395ION    NA+38804   9.278  10.761  10.826
72396ION    NA+38805  24.266  16.840   4.624
72397ION    NA+38806  12.518   6.335   0.394
72398ION    NA+38807  12.890  28.897   2.799
72399ION    NA+38808  43.732  19.080  13.759
72400ION    NA+38809  33.361  23.404   3.318
72401ION    NA+38810  24.723  44.556  13.865
72402ION    NA+38811  30.283   3.800  11.962
72403ION    NA+38812   3.502   7.314   1.788
72404ION    NA+38813   4.795  17.468   0.450
72405ION    NA+38814   3.307  30.028   0.951
72406ION    NA+38815  23.181  30.664  11.652
72407ION    NA+38816  30.864   0.512  14.859
72408ION    NA+38817  22.537  35.907   2.614
72409ION    NA+38818  16.910  31.725   4.072
72410ION    NA+38819  44.431   0.617   9.875
72411ION    NA+38820   6.507   6.808   1.891
72412ION    NA+38821  19.918   6.896   0.559
72413ION    NA+38822  13.272  32.109   3.289
72414ION    NA+38823   7.799   0.507   4.209
72415ION    NA+38824  43.829   0.693  13.048
72416ION    NA+38825   9.588   0.495   2.796
72417ION    NA+38826   0.355  30.108   1.641
72418ION    NA+38827  16.801  40.828   3.650
72419ION    NA+38828  16.130  42.405  13.121
72420ION    NA+38829  35.988  15.507   0.370
72421ION    NA+38830  17.042   3.492   4.676
72422ION    NA+38831  24.735  11.175   3.291
72423ION    NA+38832  20.506   4.446   0.618
72424ION    NA+38833  43.627  19.399  14.701
72425ION    NA+38834   4.627   6.714   0.422
72426ION    NA+38835  36.822  22.989   3.167
72427ION    NA+38836  12.489  44.790  14.097
72428ION    NA+38837   0.785  16.301  13.303
72429ION    NA+38838  38.679  40.415   4.682
72430ION    NA+38839  34.083  36.761   1.542
72431ION    NA+38840  24.093  30.187  13.679
72432ION    NA+38841  28.510  20.732  11.141
72433ION    NA+38842   0.432  20.920   5.100
72434ION    NA+38843   0.881   7.242  12.029
72435ION    NA+38844  25.538  10.415  12.504
72436ION    NA+38845  25.091  20.345   1.719
72437ION    NA+38846  29.166   0.282  14.189
72438ION    NA+38847   5.424  18.846   2.615
72439ION    NA+38848  26.397  30.840   4.203
72440ION    NA+38849  19.723  35.442   0.986
72441ION    NA+38850   7.484  22.559  11.101
72442ION    NA+38851  37.057  42.785  13.448
72443ION    NA+38852  10.283   6.817   4.383
72444ION    NA+38853  38.855  10.631  12.189
72445ION    NA+38854  37.579  18.657   1.945
72446ION    NA+38855  21.234   4.235  14.364
72447ION    NA+38856   3.670  21.617   1.357
72448ION    NA+38857   5.684  17.423  12.124
72449ION    NA+38858   0.206   9.748   2.499
72450ION    NA+38859   7.722   7.824   0.434
72451ION    NA+38860  20.574  42.550  14.629
72452ION    NA+38861  25.276  27.465  11.210
72453ION    NA+38862  21.836   4.381   3.245
72454ION    NA+38863  43.189  38.915   0.784
72455ION    NA+38864  43.875   9.671   0.364
72456ION    NA+38865   4.502  38.528   0.291
72457ION    NA+38866   5.299  35.170  14.169
72458ION    NA+38867  14.282  38.326  12.414
72459ION    NA+38868   5.953  44.471   1.898
72460ION    NA+38869  27.672  29.622  11.719
72461ION    NA+38870  28.152  44.860  10.704
72462ION    NA+38871   2.055   2.159   4.052
72463ION    NA+38872  41.857  16.567  14.085
72464ION    NA+38873  21.996  40.978   4.658
72465ION    NA+38874  17.518  37.359  12.862
72466ION    NA+38875  15.435  21.706   4.026
72467ION    NA+38876   9.357  29.591  14.981
72468ION    NA+38877  12.347  30.624  10.642
72469ION    NA+38878  39.038  38.145   3.497
72470ION    NA+38879  17.963   8.086   3.483
72471ION    NA+38880  10.524  44.685   3.745
72472ION    NA+38881   8.839   4.664   3.212
72473ION    NA+38882  12.567  28.518   3.670
72474ION    NA+38883   9.750  24.376   0.003
72475ION    NA+38884   2.569   0.007   4.361
72476ION    NA+38885  14.573  28.424  13.880
72477ION    NA+38886  34.998  44.644  11.320
72478ION    NA+38887  18.642  18.192   9.904
72479ION    NA+38888   5.214  31.353   2.872
72480ION    NA+38889  42.185  18.781   3.980
72481ION    NA+38890  37.009  17.508   0.188
72482ION    NA+38891  43.865  23.467  10.963
72483ION    NA+38892  20.734   9.778   2.768
72484ION    NA+38893  12.265  22.165  12.242
72485ION    NA+38894  13.519  23.150   4.898
72486ION    NA+38895  14.361  35.256  12.536
72487ION    NA+38896  18.176  32.969  13.795
72488ION    NA+38897  13.297   6.740   2.733
72489ION    NA+38898  21.794  37.918  10.807
72490ION    NA+38899   0.215  43.954  12.989
72491ION    NA+38900  21.197   1.276  13.556
72492ION    NA+38901  37.877  29.996   3.614
72493ION    NA+38902  24.940  38.664  12.907
72494ION    NA+38903  11.475  20.953  11.074
72495ION    NA+38904   9.607  39.235  11.379
72496ION    NA+38905  40.712  23.481  11.076
72497ION    NA+38906  27.454   2.648  11.509
72498ION    NA+38907  21.355  13.519  11.367
72499ION    NA+38908  42.451  27.939   2.888
72500ION    NA+38909   2.422  33.712   1.168
72501ION    NA+38910  29.259   3.996  12.718
72502ION    NA+38911   7.622  20.319   0.055
72503ION    NA+38912  16.349  15.606   2.407
72504ION    NA+38913  12.965   1.016  13.358
72505ION    NA+38914   3.170  17.398  11.663
72506ION    NA+38915  42.186  34.123  12.038
72507ION    NA+38916  36.135  10.268  12.386
72508ION    NA+38917   9.113  25.271  14.833
72509ION    NA+38918  36.686  21.725   0.566
72510ION    NA+38919  34.607   1.226  12.549
72511ION    NA+38920  31.433  37.608  13.639
72512ION    NA+38921  32.868  32.719   3.030
72513ION    NA+38922  17.509  35.537   0.452
72514ION    NA+38923   5.424  30.364  12.321
72515ION    NA+38924  30.955  44.306   4.097
72516ION    NA+38925  17.546  36.166  13.423
72517ION    NA+38926   9.438   5.328   0.012
72518ION    NA+38927  18.086  44.114   2.706
72519ION    NA+38928   5.611   8.453  11.057
72520ION    NA+38929  13.135  15.646   1.636
72521ION    NA+38930  35.855  32.708  14.756
72522ION    NA+38931  43.478  31.669  13.918
72523ION    NA+38932  31.117  29.008   2.915
72524ION    NA+38933  35.387  30.460   3.407
72525ION    NA+38934  13.818  34.163   5.065
72526ION    NA+38935  13.398  19.294   4.094
72527ION    NA+38936   4.805  10.262   3.820
72528ION    NA+38937  44.488   4.823   1.691
72529ION    NA+38938  15.195  32.077   0.721
72530ION    NA+38939  11.210   2.311  12.519
72531ION    NA+38940  32.946  16.370   4.208
72532ION    NA+38941   8.781  29.911   4.216
72533ION    NA+38942  21.021  19.971  12.838
72534ION    NA+38943  42.471  43.888   2.817
72535ION    NA+38944  44.248  24.611   5.312
72536ION    NA+38945   2.492  43.356  11.361
72537ION    NA+38946   9.143  17.905  10.227
72538ION    NA+38947  23.175   7.018   1.933
72539ION    NA+38948  17.119   4.122   3.163
72540ION    NA+38949  24.223  19.176  11.617
72541ION    NA+38950  27.488  27.787  13.199
72542ION    NA+38951  21.986  41.589   1.350
72543ION    NA+38952  26.549   8.889   0.512
72544ION    NA+38953  11.740  31.622   0.314
72545ION    NA+38954  39.360  22.019   1.354
72546ION    NA+38955  26.514  29.458  13.952
72547ION    NA+38956  15.303  11.661  11.569
72548ION    NA+38957  30.541  39.235  11.150
72549ION    NA+38958  20.262  36.529  13.048
72550ION    NA+38959  44.822   6.672  13.101
72551ION    NA+38960  25.268   9.104  14.541
72552ION    NA+38961  26.412   2.981  12.005
72553ION    NA+38962  29.670  13.947  11.710
72554ION    NA+38963  12.169   5.767   2.749
72555ION    NA+38964   2.737  41.525   2.115
72556ION    NA+38965   4.784  19.074   3.791
72557ION    NA+38966  11.362   9.678   2.672
72558ION    NA+38967   7.480  23.907   2.571
72559ION    NA+38968  22.142   7.884  11.437
72560ION    NA+38969  42.565   8.171  12.757
72561ION    NA+38970   1.617  34.012   1.680
72562ION    NA+38971   6.154  34.872  14.206
72563ION    NA+38972  35.843  17.617   0.353
72564ION    NA+38973  12.499  13.134  11.749
72565ION    NA+38974  33.439  39.877  14.441
72566ION    NA+38975   5.819  21.003  11.521
72567ION    NA+38976   2.925  20.691  14.038
72568ION    NA+38977  15.148   5.615   4.112
72569ION    NA+38978  44.230  28.044   2.494
72570ION    NA+38979   9.803   2.540  10.648
72571ION    NA+38980  19.176  44.010   3.260
72572ION    NA+38981  32.043  23.068   3.736
72573ION    NA+38982  24.925   0.146  11.170
72574ION    NA+38983  11.954   4.037   4.309
72575ION    NA+38984   6.066   8.379  12.780
72576ION    NA+38985  33.670   1.378  11.096
72577ION    NA+38986  12.062  19.522   2.692
72578ION    NA+38987   1.383  16.816   3.145
72579ION    NA+38988  35.995  27.630  14.946
72580ION    NA+38989  42.279   4.381  13.339
72581ION    NA+38990  30.250  16.124   2.448
72582ION    NA+38991  42.422  28.460   2.035
72583ION    NA+38992  20.177  10.400   3.121
72584ION    NA+38993   5.912   5.771   0.631
72585ION    NA+38994  43.061  21.235  14.784
72586ION    NA+38995   6.570  24.193   0.651
72587ION    NA+38996  26.154  30.408  14.007
72588ION    NA+38997  15.376  11.780   1.866
72589ION    NA+38998   4.373   1.899   1.276
72590ION    NA+38999  14.741  23.639   2.308
72591ION    NA+39000  32.001  15.915   2.654
72592ION    NA+39001  19.678   7.171  12.103
72593ION    NA+39002  36.177  18.836  14.939
72594ION    NA+39003  22.942  42.832  12.517
72595ION    NA+39004   2.010  30.648  13.096
72596ION    NA+39005  14.574   9.221  14.772
72597ION    NA+39006  43.171  28.441   3.411
72598ION    NA+39007   6.907  17.771  14.917
72599ION    NA+39008  11.919  13.178  14.081
72600ION    NA+39009  43.544  26.567   0.685
72601ION    NA+39010  36.118  10.172  13.756
72602ION    NA+39011   7.105  29.687   2.828
72603ION    NA+39012  11.620  42.463   5.038
72604ION    NA+39013  44.791   2.422  10.765
72605ION    NA+39014   7.422  30.125  12.701
72606ION    NA+39015   9.811  18.186   3.265
72607ION    NA+39016   2.741   0.277  13.337
72608ION    NA+39017  11.336   2.574   3.265
72609ION    NA+39018  39.299  35.336   0.658
72610ION    NA+39019  30.292  28.355   2.735
72611ION    NA+39020   6.561   7.395   5.066
72612ION    NA+39021  41.503   0.435   0.878
72613ION    NA+39022  36.971  43.853   0.790
72614ION    NA+39023   8.601  31.727   4.426
72615ION    NA+39024  35.163  25.908  12.370
72616ION    NA+39025  41.337   1.927   1.146
72617ION    NA+39026   0.432  24.187  11.162
72618ION    NA+39027  39.957  11.603   2.006
72619ION    NA+39028  44.977  10.921  12.611
72620ION    NA+39029   6.727  17.883  13.094
72621ION    NA+39030  32.338  31.582  12.523
72622ION    NA+39031  23.186  42.152  14.740
72623ION    NA+39032  44.229  38.129   1.341
72624ION    NA+39033  21.813  32.324  14.522
72625ION    NA+39034   2.995  22.623   5.293
72626ION    NA+39035  26.200  22.390   3.587
72627ION    NA+39036  19.818  32.925   3.654
72628ION    NA+39037  15.059  15.740  14.669
72629ION    NA+39038  21.426  28.293  14.504
72630ION    NA+39039  30.435  21.246   0.794
72631ION    NA+39040  37.039  15.193   2.113
72632ION    NA+39041  13.409  39.462   3.591
72633ION    NA+39042  38.846  44.990   1.536
72634ION    NA+39043  21.323  12.976  10.662
72635ION    NA+39044   2.517   5.240   3.282
72636ION    NA+39045  39.357   3.092  14.866
72637ION    NA+39046   9.404  37.004  14.831
72638ION    NA+39047  11.727  44.394   0.393
72639ION    NA+39048  39.425  42.925  13.918
72640ION    NA+39049  32.982  36.136   1.185
72641ION    NA+39050   4.293  44.900   1.001
72642ION    NA+39051   5.476  12.990  11.164
72643ION    NA+39052  36.142  22.622  12.684
72644ION    NA+39053  34.434  40.539  12.574
72645ION    NA+39054  33.512   5.232  14.020
72646ION    NA+39055   1.924  11.760   0.684
72647ION    NA+39056  18.496  30.812   2.077
72648ION    NA+39057   9.842  37.774  11.696
72649ION    NA+39058   0.001  35.513  12.061
72650ION    NA+39059  14.252  11.127   4.929
72651ION    NA+39060  20.898  26.867  14.387
72652ION    NA+39061  38.514  11.372  12.193
72653ION    NA+39062   2.483  32.222  12.347
72654ION    NA+39063   7.835  29.007  14.187
72655ION    NA+39064   4.230  19.861   4.625
72656ION    NA+39065  17.747  10.349   3.634
72657ION    NA+39066  22.612   8.540   2.671
72658ION    NA+39067   3.359  17.533  14.267
72659ION    NA+39068  40.703  24.589   2.240
72660ION    NA+39069  27.440  34.601  14.289
72661ION    NA+39070   3.645   9.301  14.524
72662ION    NA+39071  16.523   6.176  10.860
72663ION    NA+39072  21.894  17.283   1.130
72664ION    NA+39073  15.277  40.505  13.380
72665ION    NA+39074  38.170  34.185   1.757
72666ION    NA+39075   3.352  16.559   3.941
72667ION    NA+39076   8.239  11.574   4.490
72668ION    NA+39077  39.334  31.327  13.058
72669ION    NA+39078   8.378  16.174  11.001
72670ION    NA+39079   6.803  21.555   3.618
72671ION    NA+39080   4.297  42.787  13.517
72672ION    NA+39081  42.251  43.149   2.131
72673ION    NA+39082   8.236  17.511  10.700
72674ION    NA+39083  21.281   5.563   4.450
72675ION    NA+39084  29.380  11.755  13.075
72676ION    NA+39085  13.010  33.595  13.242
72677ION    NA+39086   5.443  34.338   1.263
72678ION    NA+39087   2.355  31.438   3.398
72679ION    NA+39088   2.241  43.316   4.156
72680ION    NA+39089  31.744  25.702  12.016
72681ION    NA+39090  24.523  42.435   2.437
72682ION    NA+39091   6.906  21.572   0.073
72683ION    NA+39092  43.838  11.336   0.928
72684ION    NA+39093  17.494  42.344  14.883
72685ION    NA+39094  21.879  24.219  12.732
72686ION    NA+39095   4.165  39.037   3.805
72687ION    NA+39096  13.370  28.745   0.300
72688ION    NA+39097  35.384  24.874   3.524
72689ION    NA+39098  43.782   2.944   1.020
72690ION    NA+39099  15.404  17.615  11.548
72691ION    NA+39100  25.173  21.807   4.095
72692ION    NA+39101   8.952  35.098   4.012
72693ION    NA+39102   7.815  26.761  14.546
72694ION    NA+39103  36.148  42.775   0.112
72695ION    NA+39104  11.044  11.460  13.148
72696ION    NA+39105   2.251  27.135  14.583
72697ION    NA+39106  29.630  34.020  11.444
72698ION    NA+39107  41.832  36.546   2.656
72699ION    NA+39108  16.202  32.178  11.857
72700ION    NA+39109  38.514  27.827  14.796
72701ION    NA+39110  24.560  34.532   1.250
72702ION    NA+39111  16.211   8.531  14.579
72703ION    NA+39112  21.545  24.845  11.188
72704ION    NA+39113  22.345  24.255  11.083
72705ION    NA+39114  27.276  33.173  10.896
72706ION    NA+39115  33.020  21.353   3.376
72707ION    NA+39116  36.770   9.950  13.215
72708ION    NA+39117  19.998  43.393  11.880
72709ION    NA+39118  42.033  31.442  14.944
72710ION    NA+39119  23.186  23.011  10.802
72711ION    NA+39120  22.151   4.559   2.017
72712ION    NA+39121  28.870  32.446  13.855
72713ION    NA+39122  44.655   8.395  13.352
72714ION    NA+39123   5.502  33.664   3.190
72715ION    NA+39124  42.949  34.974  11.491
72716ION    NA+39125  25.315   8.085  14.217
72717ION    NA+39126  32.894  14.080  13.410
72718ION    NA+39127  29.594  16.889   1.679
72719ION    NA+39128  39.759   7.862   2.164
72720ION    NA+39129  30.368  11.597  13.104
72721ION    NA+39130  38.147   5.633   4.334
72722ION    NA+39131  44.254  16.612  11.058
72723ION    NA+39132  35.646   0.088  11.941
72724ION    NA+39133  25.959  26.397   3.624
72725ION    NA+39134  41.716  33.987   0.473
72726ION    NA+39135  44.079  37.824   2.744
72727ION    NA+39136  31.141   9.040   3.263
72728ION    NA+39137  26.831  13.625   1.318
72729ION    NA+39138  26.637   9.694   2.160
72730ION    NA+39139   0.772   2.081  12.999
72731ION    NA+39140  27.273  17.186   4.112
72732ION    NA+39141  34.032  38.020  14.078
72733ION    NA+39142  19.249  27.475  12.015
72734ION    NA+39143  44.097  41.538  14.378
72735ION    NA+39144  42.155  36.008  11.279
72736ION    NA+39145   3.697   6.286  14.332
72737ION    NA+39146  36.116  24.243  11.761
72738ION    NA+39147  35.672  38.700  13.349
72739ION    NA+39148  38.391  22.271  13.309
72740ION    NA+39149  19.223   7.700   4.208
72741ION    NA+39150  12.912   8.428   0.981
72742ION    NA+39151   9.609  22.181   0.339
72743ION    NA+39152  40.807  36.943   1.866
72744ION    NA+39153  16.188   2.575  11.286
72745ION    NA+39154  43.202   4.573   3.367
72746ION    NA+39155  10.569  23.483   0.780
72747ION    NA+39156   0.999  44.402   4.976
72748ION    NA+39157  14.849  34.397  13.096
72749ION    NA+39158   6.292  36.099  14.356
72750ION    NA+39159  43.994  14.781  14.972
72751ION    NA+39160  26.922  32.102   0.156
72752ION    NA+39161   6.212  42.406  12.603
72753ION    NA+39162  39.636   5.108  11.206
72754ION    NA+39163  26.620   9.003   3.203
72755ION    NA+39164  26.353  40.638  11.408
72756ION    NA+39165  14.829  21.814   2.281
72757ION    NA+39166   5.004  37.540   4.938
72758ION    NA+39167  38.769   3.274   1.343
72759ION    NA+39168  43.383  25.093  13.478
72760ION    NA+39169  38.242  33.831   0.485
72761ION    NA+39170  26.599  32.141   4.176
72762ION    NA+39171  12.189  29.323   0.744
72763ION    NA+39172   8.889  15.318  13.143
72764ION    NA+39173   0.918  26.218   2.731
72765ION    NA+39174   1.189  41.525  12.548
72766ION    NA+39175  12.024  42.231  11.996
72767ION    NA+39176   5.796  21.977  11.748
72768ION    NA+39177  10.567   0.668   2.691
72769ION    NA+39178  29.634   5.019   0.378
72770ION    NA+39179  36.434  37.769   0.057
72771ION    NA+39180  12.736   1.896  14.212
72772ION    NA+39181  23.877  16.432  11.232
72773ION    NA+39182  15.072  19.012   2.333
72774ION    NA+39183  16.782  23.780   1.581
72775ION    NA+39184  16.054  24.662   0.928
72776ION    NA+39185  34.804  30.735   4.678
72777ION    NA+39186   7.277   0.268  11.661
72778ION    NA+39187  10.633  43.845  14.460
72779ION    NA+39188  15.020  25.702  10.272
72780ION    NA+39189  20.181  17.919   3.454
72781ION    NA+39190  32.997  27.083   3.499
72782ION    NA+39191  19.623  24.116  11.282
72783ION    NA+39192  33.999  31.774  14.202
72784ION    NA+39193  23.098   8.440   0.799
72785ION    NA+39194  39.480  35.587   3.669
72786ION    NA+39195   0.319  20.719   4.098
72787ION    NA+39196  39.043   8.465  10.316
72788ION    NA+39197  10.129  44.287   4.576
72789ION    NA+39198  39.804  22.690  14.348
72790ION    NA+39199  10.131   5.831   4.322
72791ION    NA+39200   0.265  21.960   3.095
72792ION    NA+39201  17.398  24.604   3.863
72793ION    NA+39202  24.644  32.381   0.493
72794ION    NA+39203  24.226   3.496  12.956
72795ION    NA+39204  37.278  15.338  12.402
72796ION    NA+39205  42.803  34.565   1.129
72797ION    NA+39206   6.692   3.347   0.520
72798ION    NA+39207   9.415  31.967  10.419
72799ION    NA+39208   7.649  17.148   4.046
72800ION    NA+39209  44.632  10.890   0.490
72801ION    NA+39210  12.689  31.454  13.080
72802ION    NA+39211  17.723  25.853  11.090
72803ION    NA+39212  33.099   7.841  11.473
72804ION    NA+39213   6.340   7.417  11.483
72805ION    NA+39214  23.413  21.709  14.446
72806ION    NA+39215  37.887  27.056  14.907
72807ION    NA+39216  35.872  20.237  11.976
72808ION    NA+39217  29.407   3.933  10.817
72809ION    NA+39218   0.525   4.695   2.635
72810ION    NA+39219  43.176  35.646   3.799
72811ION    NA+39220  35.871  24.012  13.913
72812ION    NA+39221  44.801  37.958  10.638
72813ION    NA+39222  19.652  22.522   2.266
72814ION    NA+39223  21.805  12.153  13.334
72815ION    NA+39224  40.432  18.948   4.752
72816ION    NA+39225   8.494   9.479  12.793
72817ION    NA+39226  40.714  41.860   1.091
72818ION    NA+39227   3.956  30.406   2.586
72819ION    NA+39228   7.900  29.390   3.051
72820ION    NA+39229  28.815   2.385  14.708
72821ION    NA+39230  14.097  12.280   1.682
72822ION    NA+39231   0.358  27.194   0.329
72823ION    NA+39232   4.835  41.997   1.224
72824ION    NA+39233  19.243  30.324   1.890
72825ION    NA+39234   0.875   1.245   1.787
72826ION    NA+39235  38.657  40.393  11.822
72827ION    NA+39236  12.563  28.856  12.970
72828ION    NA+39237  29.342  43.202  10.752
72829ION    NA+39238  19.936  31.667   3.755
72830ION    NA+39239  17.065  31.295   5.238
72831ION    NA+39240  38.749  30.485   0.728
72832ION    NA+39241  43.926  34.966   4.551
72833ION    NA+39242  34.941  42.984   5.282
72834ION    NA+39243  29.637  21.057  11.918
72835ION    NA+39244  21.392  10.631  14.752
72836ION    NA+39245   6.216  35.481   0.931
72837ION    NA+39246  18.952  20.406  11.177
72838ION    NA+39247  37.892  12.638   1.242
72839ION    NA+39248  33.523  14.210  12.424
72840ION    NA+39249  21.441  11.356   2.097
72841ION    NA+39250  28.037  36.566  10.838
72842ION    NA+39251  41.028  10.463  11.243
72843ION    NA+39252  44.780   3.007   9.772
72844ION    NA+39253  23.592  42.918   5.341
72845ION    NA+39254   8.797  34.300  12.933
72846ION    NA+39255  37.095   2.724   2.791
72847ION    NA+39256  21.407  18.688   2.436
72848ION    NA+39257  32.039  24.892  13.071
72849ION    NA+39258  15.388  37.091   2.753
72850ION    NA+39259   7.397  15.964  14.431
72851ION    NA+39260  12.676  17.585   0.799
72852ION    NA+39261  30.007  13.884   1.815
72853ION    NA+39262  41.293  29.198   3.696
72854ION    NA+39263   8.802   7.460  14.746
72855ION    NA+39264  40.519   2.666   3.650
72856ION    NA+39265  21.843  15.725  11.750
72857ION    NA+39266  43.229  22.201  10.640
72858ION    NA+39267   5.639  21.746   3.806
72859ION    NA+39268  18.046  26.793   4.423
72860ION    NA+39269  10.651  15.663   3.583
72861ION    NA+39270  42.564  24.984  10.846
72862ION    NA+39271  38.017  40.251  10.706
72863ION    NA+39272  32.518  32.580  13.276
72864ION    NA+39273  14.187  25.484   0.397
72865ION    NA+39274  39.009   7.215  13.385
72866ION    NA+39275  14.803  41.110  12.082
72867ION    NA+39276  29.416  39.523   1.800
72868ION    NA+39277  30.032   0.719   4.449
72869ION    NA+39278   8.816  11.797  10.619
72870ION    NA+39279  16.779  25.252   2.279
72871ION    NA+39280  40.996  17.904   3.647
72872ION    NA+39281  37.466  34.357   0.970
72873ION    NA+39282  42.301  21.016   3.055
72874ION    NA+39283   9.690   5.180  11.947
72875ION    NA+39284   1.760  44.416   4.248
72876ION    NA+39285  40.202  38.813  13.432
72877ION    NA+39286  44.877   5.680  12.860
72878ION    NA+39287  34.822  26.456   2.637
72879ION    NA+39288  26.640  29.713   3.551
72880ION    NA+39289  14.554   0.211   0.533
72881ION    NA+39290  29.697   1.776   0.032
72882ION    NA+39291  40.184  33.724  14.664
72883ION    NA+39292  27.398   6.798   1.326
72884ION    NA+39293  35.534  15.575  14.482
72885ION    NA+39294  11.292   6.585  11.210
72886ION    NA+39295  13.291  44.898   0.851
72887ION    NA+39296  31.708  42.524  12.633
72888ION    NA+39297  33.470   1.942   2.804
72889ION    NA+39298  19.243  12.317  14.479
72890ION    NA+39299  35.759  11.203  12.368
72891ION    NA+39300  24.374  38.215   4.471
72892ION    NA+39301   1.442  31.884   3.765
72893ION    NA+39302  15.471   1.037   5.333
72894ION    NA+39303   7.980  32.005  13.970
72895ION    NA+39304  32.366  21.655  13.847
72896ION    NA+39305  32.486  30.538   1.515
72897ION    NA+39306  30.455   5.186   3.317
72898ION    NA+39307  13.485  42.893  12.859
72899ION    NA+39308  15.903   3.662   2.701
72900ION    NA+39309  20.644  23.987   4.168
72901ION    NA+39310  22.622   0.743  12.060
72902ION    NA+39311  38.643   5.624   0.706
72903ION    NA+39312  22.090  23.703  11.901
72904ION    NA+39313  30.383   1.161   2.871
72905ION    NA+39314  20.310  43.254   3.343
72906ION    NA+39315  19.654  18.835   4.059
72907ION    NA+39316  15.738  19.282  13.797
72908ION    NA+39317  39.283  42.766  12.940
72909ION    NA+39318   0.642  28.868   1.067
72910ION    NA+39319  13.022  42.579  10.676
72911ION    NA+39320   5.847  37.313   1.623
72912ION    NA+39321  34.558  28.894  10.740
72913ION    NA+39322  17.244  29.521  11.369
72914ION    NA+39323  34.276  19.458   0.916
72915ION    NA+39324  32.798   4.081  12.243
72916ION    NA+39325  29.213  31.894   4.555
72917ION    NA+39326  27.473  25.147  12.357
72918ION    NA+39327  24.656  26.200   3.720
72919ION    NA+39328  23.536  44.239  11.527
72920ION    NA+39329  18.201  26.108   3.326
72921ION    NA+39330  14.232  11.462   2.001
72922ION    NA+39331  16.185  37.759  14.302
72923ION    NA+39332  39.973  39.649   0.675
72924ION    NA+39333  27.055  19.048  14.664
72925ION    NA+39334  26.678  37.893   2.738
72926ION    NA+39335   5.397  20.540  14.946
72927ION    NA+39336  23.542  33.381   0.623
72928ION    NA+39337   2.957  18.308  12.080
72929ION    NA+39338  43.763  32.524   4.399
72930ION    NA+39339   2.984  34.881   0.406
72931ION    NA+39340  30.088  24.515   2.798
72932ION    NA+39341   0.583   6.190  12.099
72933ION    NA+39342  27.018  43.669   2.779
72934ION    NA+39343  10.500   2.539   2.718
72935ION    NA+39344   7.964  39.597  14.288
72936ION    NA+39345   6.022   6.876  14.755
72937ION    NA+39346   7.642  35.189  11.729
72938ION    NA+39347  20.411  34.678  13.257
72939ION    NA+39348   2.706   5.661   1.352
72940ION    NA+39349  31.409  25.352  10.414
72941ION    NA+39350  21.867  21.316  12.578
72942ION    NA+39351  12.336  16.498  13.282
72943ION    NA+39352  17.272  34.387  11.683
72944ION    NA+39353  37.034  35.140   2.372
72945ION    NA+39354  14.595   2.665  11.743
72946ION    NA+39355  12.887   2.307   1.264
72947ION    NA+39356  22.543   9.689  14.137
72948ION    NA+39357  34.078  35.417   0.438
72949ION    NA+39358  10.489  18.443   4.129
72950ION    NA+39359  18.111  35.443   2.405
72951ION    NA+39360  39.113  19.108   4.473
72952ION    NA+39361  19.829  33.924   3.317
72953ION    NA+39362  12.099  24.255  14.643
72954ION    NA+39363  22.944   0.741   1.849
72955ION    NA+39364   0.462  31.586  13.325
72956ION    NA+39365   9.661   2.270   0.413
72957ION    NA+39366  33.082   7.728  14.520
72958ION    NA+39367  40.457   3.668   3.778
72959ION    NA+39368  26.628  39.444  12.542
72960ION    NA+39369  11.118  40.982   2.070
72961ION    NA+39370  32.160   5.090  14.761
72962ION    NA+39371  11.017  36.612  13.750
72963ION    NA+39372  19.124  32.095  14.580
72964ION    NA+39373  44.821   2.439   2.851
72965ION    NA+39374  28.923  43.346  14.145
72966ION    NA+39375  16.880   5.200   0.977
72967ION    NA+39376  24.518  42.497  13.878
72968ION    NA+39377  31.152  15.633   1.280
72969ION    NA+39378  27.003  12.177   3.035
72970ION    NA+39379   0.144  34.024  13.440
72971ION    NA+39380  15.392   3.803   1.492
72972ION    NA+39381  29.722  12.843   2.916
72973ION    NA+39382  33.376  32.590   1.425
72974ION    NA+39383   8.106   5.849   1.962
72975ION    NA+39384  15.409  17.262   3.072
72976ION    NA+39385  30.501  33.135  13.988
72977ION    NA+39386  14.033   5.412  13.153
72978ION    NA+39387  42.580  14.811  11.484
72979ION    NA+39388  18.674  17.193   9.905
72980ION    NA+39389   8.076  14.137   3.788
72981ION    NA+39390  23.569  38.677  12.404
72982ION    NA+39391  22.675  15.393   2.002
72983ION    NA+39392  34.869  21.938   3.840
72984ION    NA+39393   5.193  24.965   2.376
72985ION    NA+39394  16.556  43.876   4.631
72986ION    NA+39395  43.241   2.585  14.796
72987ION    NA+39396  38.932  14.198   5.314
72988ION    NA+39397  14.340  33.614   0.573
72989ION    NA+39398  13.340  29.580  13.626
72990ION    NA+39399  15.647  24.627  12.941
72991ION    NA+39400   0.876  22.930   0.372
72992ION    NA+39401   6.766  25.704  12.991
72993ION    NA+39402   3.244  18.054   1.247
72994ION    NA+39403  41.178  22.168   3.176
72995ION    NA+39404  34.011  31.300   4.942
72996ION    NA+39405  11.170  15.476  11.678
72997ION    NA+39406  21.234  16.060  12.490
72998ION    NA+39407  36.712  24.335   1.946
72999ION    NA+39408   6.799  39.183  13.822
73000ION    NA+39409  17.847   7.763  14.904
73001ION    NA+39410  32.403  35.722  14.984
73002ION    NA+39411  35.052   1.493  11.207
73003ION    NA+39412  11.424   0.920  14.474
73004ION    NA+39413   6.611  28.903   2.018
73005ION    NA+39414  36.490  26.572   0.451
73006ION    NA+39415  37.002  36.309   1.574
73007ION    NA+39416  43.968  38.308   0.260
73008ION    NA+39417  20.103  25.746   0.522
73009ION    NA+39418   2.143  40.490   5.324
73010ION    NA+39419  39.995  23.339   2.635
73011ION    NA+39420  40.089  18.841   0.101
73012ION    NA+39421  40.978  18.477   2.433
73013ION    NA+39422   2.185  10.515  13.139
73014ION    NA+39423  25.101   9.811  13.852
73015ION    NA+39424   5.986   9.095   1.955
73016ION    NA+39425  38.189  16.346  12.468
73017ION    NA+39426  26.491   1.051   1.517
73018ION    NA+39427  20.195  44.496  12.912
73019ION    NA+39428  36.455  33.023   4.553
73020ION    NA+39429  25.979  11.234   2.684
73021ION    NA+39430   6.259   7.666  13.455
73022ION    NA+39431  21.809  22.366   3.514
73023ION    NA+39432  18.526   9.631  13.801
73024ION    NA+39433  17.068  20.219  13.330
73025ION    NA+39434  30.572  16.279  11.553
73026ION    NA+39435  22.247   6.549  10.848
73027ION    NA+39436  39.871  20.432   5.024
73028ION    NA+39437   8.922  23.535   1.817
73029ION    NA+39438  12.025  39.939  12.469
73030ION    NA+39439  28.523  23.993  13.842
73031ION    NA+39440  25.751   8.241   3.763
73032ION    NA+39441  12.567   1.529   0.237
73033ION    NA+39442  42.582  26.500  12.639
73034ION    NA+39443  26.741  28.034  12.195
73035ION    NA+39444  32.397  44.930  12.782
73036ION    NA+39445  21.710  37.893   0.675
73037ION    NA+39446  39.164  14.254  11.087
73038ION    NA+39447  21.038  40.695  12.163
73039ION    NA+39448  25.439  11.802  12.955
73040ION    NA+39449  27.275  12.854   1.556
73041ION    NA+39450  12.675  35.973  13.096
73042ION    NA+39451   1.902   4.881   0.157
73043ION    NA+39452  22.088  42.956  14.680
73044ION    NA+39453  10.502   5.426   2.611
73045ION    NA+39454  21.286   4.100   0.791
73046ION    NA+39455  37.667  32.354   4.341
73047ION    NA+39456  16.733  25.975  11.016
73048ION    NA+39457  17.630  13.870   3.204
73049ION    NA+39458  22.755  13.558  10.280
73050ION    NA+39459  13.390  13.222  11.611
73051ION    NA+39460   7.729  39.004  13.501
73052ION    NA+39461  27.910  35.003   3.637
73053ION    NA+39462   8.997  11.234  12.396
73054ION    NA+39463   5.232  40.529   1.704
73055ION    NA+39464  17.720   2.264  12.955
73056ION    NA+39465   7.774   3.472  10.070
73057ION    NA+39466  23.203   6.444  14.771
73058ION    NA+39467  41.979   3.109   5.429
73059ION    NA+39468  35.464  18.037   3.164
73060ION    NA+39469   3.640  39.469   2.809
73061ION    NA+39470  14.713  40.486   2.363
73062ION    NA+39471  16.587  30.011  13.436
73063ION    NA+39472  14.258   1.038   0.809
73064ION    NA+39473  37.901  30.147   2.626
73065ION    NA+39474  25.204  18.625   0.197
73066ION    NA+39475  26.106   4.749  11.919
73067ION    NA+39476  36.045  12.493  14.070
73068ION    NA+39477   7.367  27.551   3.346
73069ION    NA+39478  39.732   8.502   4.085
73070ION    NA+39479  14.264  11.762  11.800
73071ION    NA+39480  23.032  13.657  13.168
73072ION    NA+39481  18.740  11.099  14.295
73073ION    NA+39482  16.378   6.326   4.938
73074ION    NA+39483  16.924  16.097   4.288
73075ION    NA+39484  37.358  38.289  10.774
73076ION    NA+39485  11.505   8.612  14.280
73077ION    NA+39486  40.679  23.705  14.625
73078ION    NA+39487  28.581   9.428   0.960
73079ION    NA+39488   6.362   4.167   1.057
73080ION    NA+39489  31.624  27.047  12.198
73081ION    NA+39490  23.487   3.883  13.909
73082ION    NA+39491  14.410   5.957  14.923
73083ION    NA+39492   1.711   1.757   0.055
73084ION    NA+39493  33.835  44.455  13.442
73085ION    NA+39494  18.668  20.775   3.147
73086ION    NA+39495  35.262  10.633  12.712
73087ION    NA+39496   7.026  38.153  11.673
73088ION    NA+39497   2.941  20.005  13.310
73089ION    NA+39498  42.373   6.946   1.758
73090ION    NA+39499  23.152  17.975   4.321
73091ION    NA+39500  32.743  15.336  12.280
73092ION    NA+39501  26.717  10.887  12.543
73093ION    NA+39502  20.745  19.316  14.312
73094ION    NA+39503   5.158   7.617   0.364
73095ION    NA+39504  29.182  10.206   0.775
73096ION    NA+39505   2.484  40.377  12.058
73097ION    NA+39506  16.814  19.110   1.782
73098ION    NA+39507  40.715   2.234  11.783
73099ION    NA+39508  21.158  19.748   0.114
73100ION    NA+39509  14.132  19.216  10.773
73101ION    NA+39510  41.128  18.204  14.696
73102ION    NA+39511  16.989   9.231  14.189
73103ION    NA+39512  34.874  30.753  12.462
73104ION    NA+39513   7.120  10.197  11.827
73105ION    NA+39514  44.771  39.990   4.292
73106ION    NA+39515   9.141  22.338   1.881
73107ION    NA+39516  18.021   7.334  11.506
73108ION    NA+39517  32.202  24.886   4.367
73109ION    NA+39518  30.608   9.982   2.716
73110ION    NA+39519  29.321  18.895   0.912
73111ION    NA+39520  28.516  24.237  12.872
73112ION    NA+39521  29.116  14.496   1.684
73113ION    NA+39522  44.965   9.821  14.864
73114ION    NA+39523  32.524  41.411   4.659
73115ION    NA+39524  29.721  24.699   3.607
73116ION    NA+39525   5.906   2.722   1.343
73117ION    NA+39526   9.390   8.938   3.760
73118ION    NA+39527  43.421  21.212  13.600
73119ION    NA+39528  39.316  17.355   4.264
73120ION    NA+39529   2.298   3.622  13.012
73121ION    NA+39530  44.814   1.009  10.833
73122ION    NA+39531  23.800  21.834   0.758
73123ION    NA+39532  28.476  26.727   3.290
73124ION    NA+39533  14.769   0.853  12.055
73125ION    NA+39534  18.486  27.428  14.150
73126ION    NA+39535  21.398  24.685   4.216
73127ION    NA+39536  33.452  28.583   2.340
73128ION    NA+39537  36.020  15.087   4.770
73129ION    NA+39538   2.678  15.945  10.742
73130ION    NA+39539  44.269  26.701   3.727
73131ION    NA+39540   7.415  44.629   1.980
73132ION    NA+39541  12.792   0.284   2.460
73133ION    NA+39542  39.938  38.119  12.181
73134ION    NA+39543  11.483  12.317  13.897
73135ION    NA+39544   3.356  11.710  14.803
73136ION    NA+39545  19.803  39.066  11.675
73137ION    NA+39546  20.040  23.991   0.295
73138ION    NA+39547  14.119  31.997  11.357
73139ION    NA+39548  32.343  40.893   3.181
73140ION    NA+39549  42.255   6.406   3.746
73141ION    NA+39550  29.660  26.669  11.084
73142ION    NA+39551   7.290  16.736   2.696
73143ION    NA+39552   3.510  40.172  13.902
73144ION    NA+39553   3.984   7.201   4.051
73145ION    NA+39554  21.285  28.225  13.285
73146ION    NA+39555  32.152   3.739  11.561
73147ION    NA+39556  13.323  12.811  10.567
73148ION    NA+39557  31.245  12.352   0.899
73149ION    NA+39558  20.015  10.898   0.276
73150ION    NA+39559  23.399  26.528   0.906
73151ION    NA+39560  32.567  14.120  12.146
73152ION    NA+39561   4.741  30.864   0.846
73153ION    NA+39562  33.502  32.507  14.396
73154ION    NA+39563  17.683  32.174   3.624
73155ION    NA+39564  17.568   8.085  11.027
73156ION    NA+39565  14.927   7.791   0.807
73157ION    NA+39566  29.525  32.754   4.455
73158ION    NA+39567  30.666  25.550  13.526
73159ION    NA+39568  18.014   2.489  13.984
73160ION    NA+39569  26.412  25.829   4.415
73161ION    NA+39570  10.873  17.707   1.818
73162ION    NA+39571  20.244  17.955   0.425
73163ION    NA+39572  38.669   5.467  11.186
73164ION    NA+39573   0.986   7.211   0.862
73165ION    NA+39574   0.985   7.589   3.055
73166ION    NA+39575   5.978  43.161   1.332
73167ION    NA+39576  25.428  27.366   1.920
73168ION    NA+39577  10.577  13.183   0.989
73169ION    NA+39578  34.044  15.087   1.305
73170ION    NA+39579  20.786   9.993   0.227
73171ION    NA+39580  44.956  44.837  14.274
73172ION    NA+39581  41.329  13.822   1.857
73173ION    NA+39582  19.561  34.025   4.287
73174ION    NA+39583  23.530  18.714  10.648
73175ION    NA+39584  29.331  27.372   2.252
73176ION    NA+39585  22.337  31.460  12.987
73177ION    NA+39586   1.554  10.413   3.844
73178ION    NA+39587  15.882  38.557  14.626
73179ION    NA+39588  25.217  39.938   3.846
73180ION    NA+39589  15.042  16.211  13.786
73181ION    NA+39590  11.074   4.620   2.461
73182ION    NA+39591  39.433   0.282  12.013
73183ION    NA+39592  12.851  24.500   1.157
73184ION    NA+39593  28.973  38.082  14.960
73185ION    CL-39594   8.282   4.462  10.620
73186ION    CL-39595  41.655  27.467  11.648
73187ION    CL-39596  16.027  38.144  14.490
73188ION    CL-39597  27.497   5.538   1.700
73189ION    CL-39598  26.719   4.951   1.475
73190ION    CL-39599   4.807  36.178   2.550
73191ION    CL-39600  11.871  39.673  14.321
73192ION    CL-39601  39.150  15.860   3.351
73193ION    CL-39602   4.564   6.167   3.580
73194ION    CL-39603  21.530  35.424   3.392
73195ION    CL-39604  39.612  29.687  13.082
73196ION    CL-39605   2.243   1.446  13.024
73197ION    CL-39606  31.976  14.856   4.801
73198ION    CL-39607  13.741  14.634   0.688
73199ION    CL-39608  42.465   7.900  13.940
73200ION    CL-39609  41.150  41.802   1.178
73201ION    CL-39610  40.446  19.123   0.131
73202ION    CL-39611  21.238   4.405   4.688
73203ION    CL-39612  20.105  19.719  10.379
73204ION    CL-39613   7.242  16.241  14.756
73205ION    CL-39614  25.939  35.143   2.936
73206ION    CL-39615  14.056  11.426  12.009
73207ION    CL-39616   8.629  14.795   2.079
73208ION    CL-39617  34.906  19.095   3.697
73209ION    CL-39618   7.620  24.282   2.763
73210ION    CL-39619  33.411  23.429  10.302
73211ION    CL-39620  21.776  17.683   0.962
73212ION    CL-39621  38.018  38.095  12.111
73213ION    CL-39622  26.047  36.549  11.563
73214ION    CL-39623  27.251   9.453  10.693
73215ION    CL-39624  38.322  33.992   0.076
73216ION    CL-39625  12.530  13.595   0.233
73217ION    CL-39626   1.151   1.897   4.945
73218ION    CL-39627  21.136  17.173  14.233
73219ION    CL-39628  38.407  43.631   0.760
73220ION    CL-39629  11.858  19.161  10.826
73221ION    CL-39630   4.956  44.314   1.821
73222ION    CL-39631  33.035  32.890   1.321
73223ION    CL-39632   8.871  40.399   4.095
73224ION    CL-39633   3.697  30.121  10.613
73225ION    CL-39634  13.746  21.205   0.409
73226ION    CL-39635  25.329  12.289  10.430
73227ION    CL-39636  44.716  32.868  12.975
73228ION    CL-39637  17.117  41.949  12.796
73229ION    CL-39638  44.181  22.618   0.324
73230ION    CL-39639  40.739  41.672   3.346
73231ION    CL-39640  21.659   5.180  14.405
73232ION    CL-39641  38.921  40.714  14.516
73233ION    CL-39642   9.715  20.785   3.724
73234ION    CL-39643  34.957  28.696  10.744
73235ION    CL-39644  37.854  11.542  10.767
73236ION    CL-39645  12.812  42.796  10.333
73237ION    CL-39646   1.574  19.808  11.273
73238ION    CL-39647   4.987  39.739   0.900
73239ION    CL-39648  24.941  17.640  10.737
73240ION    CL-39649  13.398  37.113  11.973
73241ION    CL-39650  11.993   4.390   4.595
73242ION    CL-39651  27.442  42.568  12.498
73243ION    CL-39652  12.490  42.015  13.445
73244ION    CL-39653  12.078  41.172  12.972
73245ION    CL-39654   4.815  15.719   4.979
73246ION    CL-39655  41.001  21.389  14.373
73247ION    CL-39656  37.321  20.867  11.532
73248ION    CL-39657  13.928  43.238   2.750
73249ION    CL-39658   5.606  30.686  12.574
73250ION    CL-39659  37.108  21.625   0.670
73251ION    CL-39660  11.973  22.076  14.391
73252ION    CL-39661   6.074  29.837  14.505
73253ION    CL-39662  43.466  32.104  14.020
73254ION    CL-39663   3.606  42.228   4.958
73255ION    CL-39664  43.733  37.530   2.785
73256ION    CL-39665  11.443  15.272  11.972
73257ION    CL-39666  16.498  31.341   3.377
73258ION    CL-39667  31.620   2.469  13.877
73259ION    CL-39668  17.295  17.757  10.128
73260ION    CL-39669  25.617  44.562   0.296
73261ION    CL-39670  26.683  21.595  12.497
73262ION    CL-39671  27.234   1.630  12.477
73263ION    CL-39672   0.228  22.761  14.376
73264ION    CL-39673  18.965  32.414   3.475
73265ION    CL-39674   8.737  16.585  13.924
73266ION    CL-39675  18.620  20.705  11.153
73267ION    CL-39676  27.582  33.476   3.313
73268ION    CL-39677  13.737  34.419   4.656
73269ION    CL-39678  26.766   4.572   3.423
73270ION    CL-39679  10.424  13.000   0.600
73271ION    CL-39680  40.468  41.442  12.055
73272ION    CL-39681  35.288  11.362  14.940
73273ION    CL-39682  39.983  26.862  11.198
73274ION    CL-39683  30.230  27.690  13.689
73275ION    CL-39684  15.042  43.997   2.434
73276ION    CL-39685  40.332  20.411   5.121
73277ION    CL-39686  14.698  23.144   4.178
73278ION    CL-39687   6.851   9.860  11.707
73279ION    CL-39688  21.940  11.500   3.238
73280ION    CL-39689   2.777   4.129   1.252
73281ION    CL-39690   4.696  21.479  11.616
73282ION    CL-39691  44.353  29.666   2.908
73283ION    CL-39692   4.698  19.283  12.949
73284ION    CL-39693   4.875  44.965  13.320
73285ION    CL-39694  27.153   1.678   2.423
73286ION    CL-39695  10.510   8.365   2.784
73287ION    CL-39696   4.418   9.871   1.553
73288ION    CL-39697  40.725   2.969   4.870
73289ION    CL-39698  39.284  23.048  12.480
73290ION    CL-39699  10.285  28.114  11.319
73291ION    CL-39700  25.423   1.550  11.993
73292ION    CL-39701  30.977  25.372  10.281
73293ION    CL-39702   8.503   9.143   4.394
73294ION    CL-39703  34.768  11.538   1.006
73295ION    CL-39704  23.162  20.439   0.426
73296ION    CL-39705  19.443  42.186  11.946
73297ION    CL-39706   3.145  23.003   5.052
73298ION    CL-39707  31.566   1.752   2.959
73299ION    CL-39708   6.654   3.957  13.600
73300ION    CL-39709   1.727  38.246  11.652
73301ION    CL-39710  33.374  28.061  11.204
73302ION    CL-39711   7.336  35.155  14.178
73303ION    CL-39712  33.635  29.426   5.091
73304ION    CL-39713  10.536  34.747   3.420
73305ION    CL-39714  41.040  19.252  11.949
73306ION    CL-39715  18.452  28.623   4.644
73307ION    CL-39716  28.360   3.906   9.959
73308ION    CL-39717   6.566  21.318   9.918
73309ION    CL-39718  42.440   3.355   3.285
73310ION    CL-39719  37.396  16.108   4.004
73311ION    CL-39720   9.672  25.111   2.147
73312ION    CL-39721  35.830   2.307  10.417
73313ION    CL-39722  38.837  11.078  12.381
73314ION    CL-39723  36.929   4.393   2.693
73315ION    CL-39724  44.545   8.251  11.370
73316ION    CL-39725  33.334  22.991   3.516
73317ION    CL-39726  24.196  30.472   0.460
73318ION    CL-39727  34.093   2.274   0.296
73319ION    CL-39728   1.183  22.055   1.934
73320ION    CL-39729  21.100   8.692  14.018
73321ION    CL-39730  38.415   5.927   4.562
73322ION    CL-39731  13.100   8.833   0.993
73323ION    CL-39732  13.143  25.687   3.395
73324ION    CL-39733  11.893  13.751  10.408
73325ION    CL-39734   9.594  32.414   0.734
73326ION    CL-39735  42.248  39.655  13.073
73327ION    CL-39736  28.921   0.515   3.784
73328ION    CL-39737  23.157  38.377   3.096
73329ION    CL-39738  18.089  36.037   4.401
73330ION    CL-39739  10.040  12.955   1.858
73331ION    CL-39740  24.393  32.241   4.997
73332ION    CL-39741  42.927  12.174   4.276
73333ION    CL-39742   6.427  15.844   3.724
73334ION    CL-39743  43.440  42.722   1.422
73335ION    CL-39744  21.884  42.560  14.624
73336ION    CL-39745  12.607  32.905   2.346
73337ION    CL-39746  11.619  15.358   0.608
73338ION    CL-39747  17.525   3.493  14.913
73339ION    CL-39748  42.867  32.856   1.580
73340ION    CL-39749  25.173  17.014  13.068
73341ION    CL-39750  42.390  39.740   1.755
73342ION    CL-39751  40.853  40.845   2.797
73343ION    CL-39752   0.014  18.236  11.614
73344ION    CL-39753  33.741  32.146  14.259
73345ION    CL-39754  24.065   4.646   3.204
73346ION    CL-39755  16.333  34.244  10.906
73347ION    CL-39756  26.838  33.190  10.983
73348ION    CL-39757  31.397  20.352  14.448
73349ION    CL-39758   4.179   4.863  11.195
73350ION    CL-39759   0.558  13.296   2.045
73351ION    CL-39760   4.368  24.624   9.770
73352ION    CL-39761  21.844  21.916   3.440
73353ION    CL-39762  15.301  34.237   3.639
73354ION    CL-39763   6.672  11.172  12.833
73355ION    CL-39764  31.488  28.606  12.537
73356ION    CL-39765  11.863  24.630  14.700
73357ION    CL-39766   4.599   8.079   1.234
73358ION    CL-39767  26.350   8.978   0.904
73359ION    CL-39768  30.107  41.351   3.212
73360ION    CL-39769   6.515  16.041   1.510
73361ION    CL-39770   2.976  13.596  13.895
73362ION    CL-39771  10.576  14.639   5.199
73363ION    CL-39772   9.764   4.909  13.789
73364ION    CL-39773  27.536  28.208  13.384
73365ION    CL-39774  15.769  25.945   1.964
73366ION    CL-39775   7.098   3.402   4.098
73367ION    CL-39776  37.221  38.051   2.366
73368ION    CL-39777   3.045  42.281  13.953
73369ION    CL-39778  32.787  15.504  12.702
73370ION    CL-39779  20.669   0.697  12.557
73371ION    CL-39780  39.908  19.586   0.870
73372ION    CL-39781  10.177  29.988  12.620
73373ION    CL-39782  28.942  43.392  10.698
73374ION    CL-39783  35.117   4.712   4.644
73375ION    CL-39784  13.808  43.082  12.596
73376ION    CL-39785  31.664  15.772  11.805
73377ION    CL-39786  32.229  21.026   1.683
73378ION    CL-39787  33.768   7.064  12.486
73379ION    CL-39788  23.697  16.534  13.828
73380ION    CL-39789   8.934  25.575   4.120
73381ION    CL-39790   2.415  19.171   2.188
73382ION    CL-39791  19.022  32.406  14.274
73383ION    CL-39792  39.592  39.563   3.845
73384ION    CL-39793  18.961  41.831  14.190
73385ION    CL-39794   0.699  24.560  11.136
73386ION    CL-39795  44.204  43.569   4.070
73387ION    CL-39796  12.348  17.686   1.099
73388ION    CL-39797  13.774   1.251  14.358
73389ION    CL-39798   5.097   3.793   4.771
73390ION    CL-39799  14.920  44.999  12.678
73391ION    CL-39800  35.542   2.030   4.927
73392ION    CL-39801  11.626  32.695  13.076
73393ION    CL-39802  37.079  17.391   0.614
73394ION    CL-39803  38.062  12.536  14.372
73395ION    CL-39804  28.837  33.796   1.179
73396ION    CL-39805  22.039  22.409  12.221
73397ION    CL-39806  39.322  15.736  14.095
73398ION    CL-39807  36.082  40.840   0.768
73399ION    CL-39808   4.081   2.714   0.005
73400ION    CL-39809  33.253  35.206   2.147
73401ION    CL-39810  31.439  23.766   2.748
73402ION    CL-39811  39.608  44.222   5.025
73403ION    CL-39812   5.801  33.257  11.872
73404ION    CL-39813  16.122  12.016   4.380
73405ION    CL-39814  26.669  18.626   1.773
73406ION    CL-39815  26.061  36.047   1.507
73407ION    CL-39816   6.646   5.482  12.437
73408ION    CL-39817  29.296  16.863   0.309
73409ION    CL-39818   8.731  37.648  11.661
73410ION    CL-39819  35.375   0.516   4.780
73411ION    CL-39820  36.185   4.326  12.087
73412ION    CL-39821  19.668  16.537   3.819
73413ION    CL-39822  32.252  38.674  12.347
73414ION    CL-39823  36.560  22.710  12.544
73415ION    CL-39824  42.835  41.833  10.103
73416ION    CL-39825  40.469  11.003  11.348
73417ION    CL-39826  18.702  11.737  12.600
73418ION    CL-39827  36.714  17.867   3.755
73419ION    CL-39828  27.029  13.206   1.406
73420ION    CL-39829   8.425  12.192   3.274
73421ION    CL-39830  26.386  10.082   3.080
73422ION    CL-39831   1.720   1.310   0.151
73423ION    CL-39832  14.317  17.480  11.941
73424ION    CL-39833  40.363   0.509   0.101
73425ION    CL-39834  29.389   8.593   0.482
73426ION    CL-39835  14.267   0.145   2.796
73427ION    CL-39836  38.635  36.420   0.469
73428ION    CL-39837  30.895  44.994  10.292
73429ION    CL-39838  23.721  36.429  14.855
73430ION    CL-39839   6.971  20.250   2.827
73431ION    CL-39840   7.260   3.006   2.718
73432ION    CL-39841  39.655  11.895  10.820
73433ION    CL-39842  29.583  20.819  10.338
73434ION    CL-39843  35.514  43.521   0.793
73435ION    CL-39844  42.567  23.140  11.183
73436ION    CL-39845  19.670   6.010   5.015
73437ION    CL-39846  44.744  35.648   4.770
73438ION    CL-39847  25.617  27.387   2.356
73439ION    CL-39848  33.369  28.155   9.831
73440ION    CL-39849   3.973  41.277  11.993
73441ION    CL-39850  31.450  37.821  14.040
73442ION    CL-39851   3.513  35.142  14.476
73443ION    CL-39852  29.903   1.530   1.309
73444ION    CL-39853  32.892  27.456  11.655
73445ION    CL-39854  19.034   1.624   3.805
73446ION    CL-39855  40.933  10.149  11.581
73447ION    CL-39856  29.122  43.094   2.872
73448ION    CL-39857  44.281  35.969   1.972
73449ION    CL-39858  29.098  38.036  10.695
73450ION    CL-39859  27.632   2.160  13.078
73451ION    CL-39860  32.549  12.122  14.372
73452ION    CL-39861   0.553   6.669  13.810
73453ION    CL-39862  41.664   8.160   0.453
73454ION    CL-39863  32.122  18.446   3.873
73455ION    CL-39864  29.671   0.624   9.985
73456ION    CL-39865  37.979  29.237  12.462
73457ION    CL-39866  37.749   4.482  12.905
73458ION    CL-39867  20.151   6.531   0.437
73459ION    CL-39868  40.246  11.321   3.202
73460ION    CL-39869  34.408   3.373  12.549
73461ION    CL-39870  30.943  15.564  11.312
73462ION    CL-39871  21.237  28.118   4.881
73463ION    CL-39872  19.082  18.758  13.980
73464ION    CL-39873  12.269  31.964  13.930
73465ION    CL-39874  14.326  33.582   1.016
73466ION    CL-39875  24.035  11.777  12.508
73467ION    CL-39876  29.254  16.601   2.966
73468ION    CL-39877  11.890  11.689   3.096
73469ION    CL-39878  14.823  28.970   5.089
73470ION    CL-39879   5.700  42.829  13.382
73471ION    CL-39880  14.006  36.266   5.090
73472ION    CL-39881  38.611  26.086   1.261
73473ION    CL-39882  33.600  30.979   2.924
73474ION    CL-39883   8.012   8.254   5.240
73475ION    CL-39884  38.026  39.939  13.854
73476ION    CL-39885   9.224   6.320  13.283
73477ION    CL-39886  19.160  20.815   4.661
73478ION    CL-39887  36.858  23.172  11.129
73479ION    CL-39888  35.929  27.192  12.572
73480ION    CL-39889  27.009  34.525  14.382
73481ION    CL-39890  15.361  41.054   0.464
73482ION    CL-39891  26.469  24.536   2.511
73483ION    CL-39892  30.578  41.782  12.974
73484ION    CL-39893  13.249  42.565  13.071
73485ION    CL-39894  23.083  11.550   3.591
73486ION    CL-39895  22.404  19.311   0.555
73487ION    CL-39896   1.199  32.082   3.449
73488ION    CL-39897  17.362   9.890  13.119
73489ION    CL-39898  30.982   2.754  14.473
73490ION    CL-39899   5.413  44.312  11.054
73491ION    CL-39900  33.857  26.649   4.132
73492ION    CL-39901  12.153  24.627  10.950
73493ION    CL-39902   9.419  31.979  14.127
73494ION    CL-39903  28.685  42.563  12.032
73495ION    CL-39904  40.628  36.583  13.043
73496ION    CL-39905  10.990  28.213   9.824
73497ION    CL-39906   7.540   2.489   4.995
73498ION    CL-39907  17.533  44.755  14.006
73499ION    CL-39908   2.397  15.447  14.968
73500ION    CL-39909   6.111  33.337   5.045
73501ION    CL-39910  15.327  17.663  12.015
73502ION    CL-39911  21.531  38.359  12.908
73503ION    CL-39912  24.748   7.437   0.390
73504ION    CL-39913  31.346  33.078  13.122
73505ION    CL-39914   4.850  32.299  14.413
73506ION    CL-39915  22.177  43.382   1.820
73507ION    CL-39916  41.332  23.715  13.027
73508ION    CL-39917   7.602   6.127  11.115
73509ION    CL-39918  40.015  20.695   0.708
73510ION    CL-39919  39.164  30.879  11.921
73511ION    CL-39920  22.104   4.652  11.007
73512ION    CL-39921  27.129  18.819  10.631
73513ION    CL-39922   6.627  14.930  14.081
73514ION    CL-39923   3.211  12.341   3.419
73515ION    CL-39924  22.900  22.173  13.016
73516ION    CL-39925   0.465   1.331   1.982
73517ION    CL-39926  21.393  36.086  12.090
73518ION    CL-39927  40.078  25.978   1.552
73519ION    CL-39928  10.100  41.156   0.706
73520ION    CL-39929  16.124  38.476  12.922
73521ION    CL-39930  18.787  25.183   4.839
73522ION    CL-39931  11.819  42.126  14.892
73523ION    CL-39932  38.568   7.353  12.082
73524ION    CL-39933  39.859  10.150   1.875
73525ION    CL-39934  25.195  22.383  13.024
73526ION    CL-39935  26.471  30.445   9.542
73527ION    CL-39936  13.960  12.057   3.712
73528ION    CL-39937   6.515  43.121  14.873
73529ION    CL-39938  12.922  42.037   0.154
73530ION    CL-39939  42.961  42.241  14.400
73531ION    CL-39940   4.316  16.512   4.972
73532ION    CL-39941  38.335  27.947   2.042
73533ION    CL-39942  32.590  14.020  14.713
73534ION    CL-39943  37.867   0.513   1.334
73535ION    CL-39944   2.787  40.853  14.909
73536ION    CL-39945  30.466  11.162  13.121
73537ION    CL-39946  11.469  18.896   4.434
73538ION    CL-39947  25.804   0.911  11.101
73539ION    CL-39948  13.516  30.275   2.657
73540ION    CL-39949  22.747  18.120   4.456
73541ION    CL-39950  13.193  10.511   2.690
73542ION    CL-39951  12.611  33.821  13.361
73543ION    CL-39952   9.856  15.293   4.967
73544ION    CL-39953  18.540   4.726  11.730
73545ION    CL-39954  43.192   4.139   3.513
73546ION    CL-39955  33.073  21.145   2.977
73547ION    CL-39956  40.627  20.312  10.794
73548ION    CL-39957  13.097  17.550   0.602
73549ION    CL-39958  20.040   3.272  12.046
73550ION    CL-39959  40.297   7.295   1.227
73551ION    CL-39960   6.717  13.796   1.394
73552ION    CL-39961  18.890  20.529   3.445
73553ION    CL-39962  30.351  19.695   0.892
73554ION    CL-39963  10.645  22.373  13.517
73555ION    CL-39964  34.718  21.047   1.609
73556ION    CL-39965   3.344  14.454  14.470
73557ION    CL-39966   5.789  12.148   1.697
73558ION    CL-39967  11.759  27.522  12.902
73559ION    CL-39968   3.813  14.038   1.025
73560ION    CL-39969  31.984  12.779   4.325
73561ION    CL-39970  24.053  13.745   2.939
73562ION    CL-39971  39.027  10.061  13.328
73563ION    CL-39972  41.955   3.950   0.040
73564ION    CL-39973  21.877  15.617  11.318
73565ION    CL-39974  39.925  16.819  13.274
73566ION    CL-39975  31.034   8.936   0.732
73567ION    CL-39976  31.204   7.820   2.259
73568ION    CL-39977  22.680  10.621   2.478
73569ION    CL-39978  31.731  38.615   0.839
73570ION    CL-39979  24.020  20.801   2.429
73571ION    CL-39980   2.273  33.295   1.242
73572ION    CL-39981  10.425  38.499   1.813
73573ION    CL-39982  18.582  10.370  12.700
73574ION    CL-39983  35.413  30.119   3.694
73575ION    CL-39984  14.792  37.045  14.081
73576ION    CL-39985  39.103  34.570   3.362
73577ION    CL-39986  44.370   4.887  14.387
73578ION    CL-39987  10.583  14.084  11.792
73579ION    CL-39988  16.312  16.215  13.712
73580ION    CL-39989  23.053   3.793   1.536
73581ION    CL-39990  12.345  39.760   2.723
73582ION    CL-39991   2.806  33.878   2.556
73583ION    CL-39992  37.716  37.111   3.326
73584ION    CL-39993  20.985  18.956  14.431
73585ION    CL-39994  23.268  25.749   3.739
73586ION    CL-39995  12.715   3.972   0.404
73587ION    CL-39996  25.915  14.052  10.958
73588ION    CL-39997  33.670   3.193  14.337
73589ION    CL-39998  29.913  24.655   3.196
73590ION    CL-39999   3.232  44.585   2.629
73591ION    CL-40000  43.270   5.009   3.255
73592ION    CL-40001  26.083   3.954  11.220
73593ION    CL-40002  18.536  35.444   2.242
73594ION    CL-40003  42.616  25.889   0.398
73595ION    CL-40004  32.266   8.583   9.692
73596ION    CL-40005  18.274  27.268  10.943
73597ION    CL-40006  30.938  34.896   2.421
73598ION    CL-40007  32.831   1.311  12.045
73599ION    CL-40008   0.650  43.972  12.859
73600ION    CL-40009  40.280   2.065   2.300
73601ION    CL-40010  22.180  21.478  11.882
73602ION    CL-40011  36.092  32.111   3.997
73603ION    CL-40012  10.583   9.828   1.841
73604ION    CL-40013  17.336  44.987   9.960
73605ION    CL-40014  38.861   5.411   2.333
73606ION    CL-40015  25.282  24.533   3.782
73607ION    CL-40016  16.369   2.087  13.083
73608ION    CL-40017   2.267   9.706   4.632
73609ION    CL-40018  40.298  15.946  11.126
73610ION    CL-40019  17.232  32.693  12.740
73611ION    CL-40020  22.438  40.657  11.340
73612ION    CL-40021  12.125  10.642   3.767
73613ION    CL-40022  26.233  10.850   2.728
73614ION    CL-40023  42.832  12.324  14.048
73615ION    CL-40024  43.399   3.260  11.003
73616ION    CL-40025   7.533  29.668   2.981
73617ION    CL-40026  17.097  27.635  14.896
73618ION    CL-40027  18.002  33.764  10.186
73619ION    CL-40028   3.236  12.110  14.963
73620ION    CL-40029  10.029   3.269  12.021
73621ION    CL-40030  41.571  29.870  12.977
73622ION    CL-40031  41.888   1.375   2.123
73623ION    CL-40032  34.275  27.557  11.416
73624ION    CL-40033  29.111  26.191   0.648
73625ION    CL-40034   5.273  18.445   2.488
73626ION    CL-40035  36.420  34.774  12.489
73627ION    CL-40036  42.857  18.489  14.506
73628ION    CL-40037  26.583  27.667  12.413
73629ION    CL-40038  23.488   7.919  11.985
73630ION    CL-40039  16.106  10.773   2.557
73631ION    CL-40040  30.242  22.412  11.929
73632ION    CL-40041  37.664   6.106   2.857
73633ION    CL-40042  44.542  12.831  12.209
73634ION    CL-40043  41.414  37.226  11.667
73635ION    CL-40044  25.567  12.560  14.362
73636ION    CL-40045  25.947  42.198   1.298
73637ION    CL-40046  33.312   5.003  13.658
73638ION    CL-40047  37.289  39.875  11.479
73639ION    CL-40048  35.003  16.429   4.917
73640ION    CL-40049  13.080  35.532  10.118
73641ION    CL-40050  23.549  23.480  11.932
73642ION    CL-40051  38.836   0.771   0.497
73643ION    CL-40052  44.285  17.627  14.062
73644ION    CL-40053  12.887  33.381  11.526
73645ION    CL-40054  38.572  13.624   2.396
73646ION    CL-40055  12.893  31.315  13.464
73647ION    CL-40056  41.033  28.149   1.365
73648ION    CL-40057  31.617  38.932  13.438
73649ION    CL-40058  37.770   9.345   2.176
73650ION    CL-40059  27.871  10.974  14.318
73651ION    CL-40060   4.618  29.909   3.841
73652ION    CL-40061  42.086   5.337  11.476
73653ION    CL-40062  39.182  38.173  10.736
73654ION    CL-40063  23.323  25.469  14.125
73655ION    CL-40064  32.625   6.691  11.553
73656ION    CL-40065  15.177  36.010  13.513
73657ION    CL-40066  23.051  19.029  14.188
73658ION    CL-40067  44.730   5.282  11.646
73659ION    CL-40068  21.351  14.202   4.893
73660ION    CL-40069  21.190   6.025  13.113
73661ION    CL-40070  31.494  42.273  13.968
73662ION    CL-40071  17.525  37.108  14.367
73663ION    CL-40072  26.666   5.755  10.047
73664ION    CL-40073  24.675  29.593   1.972
73665ION    CL-40074  26.164  14.850  11.507
73666ION    CL-40075   9.719  21.440  13.975
73667ION    CL-40076  27.104  30.817  12.717
73668ION    CL-40077  15.964  12.969  12.471
73669ION    CL-40078  16.610  20.831   0.803
73670ION    CL-40079  15.143  21.685  13.006
73671ION    CL-40080   0.298  21.089   0.543
73672ION    CL-40081  22.208  29.745   4.925
73673ION    CL-40082  25.916  41.552  12.747
73674ION    CL-40083   2.098  27.072   2.826
73675ION    CL-40084   9.626  30.709   0.864
73676ION    CL-40085  39.245  30.967  12.794
73677ION    CL-40086  16.719  30.191   2.453
73678ION    CL-40087   9.553  25.939  12.547
73679ION    CL-40088  40.609  31.137   1.310
73680ION    CL-40089  15.309  29.878   2.692
73681ION    CL-40090   1.331  36.969  12.436
73682ION    CL-40091   8.042  35.302  11.555
73683ION    CL-40092  32.279  35.309   0.151
73684ION    CL-40093  16.826  29.680  11.350
73685ION    CL-40094  29.201  11.040   4.563
73686ION    CL-40095   0.547   0.497   0.502
73687ION    CL-40096  13.067   2.080   1.603
73688ION    CL-40097  34.643  12.581  13.879
73689ION    CL-40098  17.133  17.049  10.816
73690ION    CL-40099  15.850  35.072   3.622
73691ION    CL-40100  32.798  14.217  13.831
73692ION    CL-40101  40.984  28.755   5.097
73693ION    CL-40102  13.136  27.283   2.634
73694ION    CL-40103   0.792  21.238  12.760
73695ION    CL-40104  15.134   3.866   1.852
73696ION    CL-40105  39.968   3.914   1.889
73697ION    CL-40106  26.335  40.615  11.855
73698ION    CL-40107  18.165  30.670   3.111
73699ION    CL-40108  15.193  14.853  13.669
73700ION    CL-40109  37.468  22.461  11.479
73701ION    CL-40110  25.995  35.791  14.935
73702ION    CL-40111   5.679   9.282  13.085
73703ION    CL-40112  33.519  34.344  10.774
73704ION    CL-40113  42.165  33.732  11.821
73705ION    CL-40114  28.423  24.574   0.513
73706ION    CL-40115   2.821  34.688   0.038
73707ION    CL-40116  10.119  12.516   9.849
73708ION    CL-40117  26.271  21.977   3.430
73709ION    CL-40118  14.771  42.946   0.476
73710ION    CL-40119  38.951  44.481   4.589
73711ION    CL-40120   6.398  16.161  11.203
73712ION    CL-40121  28.986  33.863  14.734
73713ION    CL-40122   3.922   1.400  11.472
73714ION    CL-40123  43.579  19.204  14.295
73715ION    CL-40124  36.862  32.634   0.736
73716ION    CL-40125  42.471  41.543  12.764
73717ION    CL-40126  42.241   0.040  11.574
73718ION    CL-40127  37.166  12.011   4.991
73719ION    CL-40128  44.447  39.732  13.413
73720ION    CL-40129  18.847  13.697   4.046
73721ION    CL-40130   2.456  21.505  13.330
73722ION    CL-40131  37.625  41.648   0.289
73723ION    CL-40132   1.757  29.143  12.012
73724ION    CL-40133   0.773  21.565   4.910
73725ION    CL-40134  42.385  20.905   4.522
73726ION    CL-40135  37.401  28.192  10.710
73727ION    CL-40136  16.445  10.734   1.195
73728ION    CL-40137  34.169  23.552   2.253
73729ION    CL-40138  23.536  23.848   4.494
73730ION    CL-40139  17.571  38.563   4.128
73731ION    CL-40140  41.784  27.349  13.402
73732ION    CL-40141  29.313  16.962   2.019
73733ION    CL-40142  28.940   3.028  13.108
73734ION    CL-40143   7.408   9.256   1.256
73735ION    CL-40144  38.319  28.193   3.012
73736ION    CL-40145  12.583  35.600  12.867
73737ION    CL-40146  34.916  11.992   3.638
73738ION    CL-40147  18.531   2.812  10.749
73739ION    CL-40148  28.580   7.746  12.622
73740ION    CL-40149   6.754  30.131  12.656
73741ION    CL-40150  34.413  15.425  12.722
73742ION    CL-40151  15.773   1.316  12.861
73743ION    CL-40152  28.782  17.002   4.240
73744ION    CL-40153  23.841   3.672   0.650
73745ION    CL-40154  44.589  32.165  11.410
73746ION    CL-40155  10.700  43.399   2.768
73747ION    CL-40156  22.269  21.088   9.952
73748ION    CL-40157  38.785  14.594   1.888
73749ION    CL-40158  44.753  36.088  14.656
73750ION    CL-40159  23.099  41.834   0.057
73751ION    CL-40160   6.397   4.047   1.488
73752ION    CL-40161  35.644   5.565   3.658
73753ION    CL-40162  22.192   8.530   2.852
73754ION    CL-40163   8.975  31.591   4.227
73755ION    CL-40164   3.306  30.204   1.361
73756ION    CL-40165   6.457   2.631  11.812
73757ION    CL-40166  19.073  27.232   2.649
73758ION    CL-40167   9.868  21.661  11.246
73759ION    CL-40168  18.444  42.188  12.105
73760ION    CL-40169   3.397  39.480  13.656
73761ION    CL-40170  39.397  14.627  12.176
73762ION    CL-40171  28.422  33.645  11.762
73763ION    CL-40172   2.509  22.272  13.970
73764ION    CL-40173  31.271   9.805  13.412
73765ION    CL-40174  27.288  35.409  10.865
73766ION    CL-40175  33.558   0.789   3.542
73767ION    CL-40176   5.559  16.640  13.524
73768ION    CL-40177  43.386  41.378   4.101
73769ION    CL-40178   9.840  43.553   3.255
73770ION    CL-40179  30.056  43.525   2.802
73771ION    CL-40180  14.369   2.322  11.565
73772ION    CL-40181  27.763   0.081  10.794
73773ION    CL-40182  41.437   9.449   1.483
73774ION    CL-40183  26.122   0.065   4.043
73775ION    CL-40184  42.989   3.911  11.643
73776ION    CL-40185  20.849   6.306  14.077
73777ION    CL-40186  31.902  20.734   4.985
73778ION    CL-40187  20.702  14.433   3.674
73779ION    CL-40188  23.082  23.868   0.833
73780ION    CL-40189  25.777  11.555  10.941
73781ION    CL-40190  11.947  30.643   3.346
73782ION    CL-40191  23.135  43.062  12.870
73783ION    CL-40192  32.631   2.748   0.293
73784ION    CL-40193  29.688  39.507  12.009
73785ION    CL-40194  34.930  35.288   4.662
73786ION    CL-40195  26.432  42.389   0.356
73787ION    CL-40196   8.789  41.913   1.956
73788ION    CL-40197   5.821  35.181  12.544
73789ION    CL-40198  35.084  28.459   0.722
73790ION    CL-40199   2.902  26.911   2.966
73791ION    CL-40200   1.782  30.990   1.027
73792ION    CL-40201  18.228  35.466   5.209
73793ION    CL-40202   6.256  23.899   0.801
73794ION    CL-40203  26.665  38.551  11.169
73795ION    CL-40204  18.302  18.990   3.451
73796ION    CL-40205  12.140  22.505   2.708
73797ION    CL-40206  23.754  20.591  10.644
73798ION    CL-40207  15.167  24.027   4.192
73799ION    CL-40208   9.592  12.186  13.007
73800ION    CL-40209   9.145  29.204   2.268
73801ION    CL-40210  21.046  42.351   3.530
73802ION    CL-40211  26.326   9.854  11.651
73803ION    CL-40212  18.664   2.258   0.454
73804ION    CL-40213  29.046  15.829   9.984
73805ION    CL-40214  11.277   5.337  12.515
73806ION    CL-40215   3.886  35.629   1.893
73807ION    CL-40216  21.545  11.923  13.053
73808ION    CL-40217   9.648   3.923   3.634
73809ION    CL-40218  13.320  12.883   3.187
73810ION    CL-40219  19.693  28.866  13.085
73811ION    CL-40220  10.258  32.410   1.952
73812ION    CL-40221   9.170  10.863   2.918
73813ION    CL-40222  21.790  20.109  12.039
73814ION    CL-40223   6.140  19.117  14.535
73815ION    CL-40224  27.482  27.305  13.811
73816ION    CL-40225  11.026  43.090  13.260
73817ION    CL-40226  35.497  32.546  14.967
73818ION    CL-40227  38.412  30.434  12.335
73819ION    CL-40228   1.942  42.489  13.267
73820ION    CL-40229  40.947  30.921  12.453
73821ION    CL-40230  27.478  27.513  12.833
73822ION    CL-40231  27.090   4.896  11.762
73823ION    CL-40232  18.652  34.875  13.928
73824ION    CL-40233  36.147  35.973  10.740
73825ION    CL-40234  24.111  35.001  13.672
73826ION    CL-40235  16.108   3.176  13.202
73827ION    CL-40236  41.583  22.307   3.312
73828ION    CL-40237  39.844   7.419  11.595
73829ION    CL-40238   7.800  25.457   3.736
73830ION    CL-40239  16.204  23.723   4.574
73831ION    CL-40240  38.780  15.716   2.566
73832ION    CL-40241  38.930  27.397   3.274
73833ION    CL-40242  43.108   9.266  14.148
73834ION    CL-40243   2.990   8.149  11.437
73835ION    CL-40244  19.125   7.573   1.110
73836ION    CL-40245  44.511   2.149   4.848
73837ION    CL-40246   5.741  42.194   0.289
73838ION    CL-40247  43.515  41.786   3.176
73839ION    CL-40248  10.907  11.492  12.722
73840ION    CL-40249  43.440   0.656  13.260
73841ION    CL-40250  33.400   0.849   2.645
73842ION    CL-40251  13.864   1.867  10.174
73843ION    CL-40252   7.790  31.653  12.487
73844ION    CL-40253  44.866   6.452  11.041
73845ION    CL-40254   4.384   6.814   2.696
73846ION    CL-40255   0.029  39.705  11.650
73847ION    CL-40256  10.616  44.694  13.512
73848ION    CL-40257  33.228  25.557   2.743
73849ION    CL-40258  28.557   3.733  11.418
73850ION    CL-40259  28.965  40.170   3.142
73851ION    CL-40260   9.453  20.700  12.915
73852ION    CL-40261  35.153  32.766  12.314
73853ION    CL-40262  13.272  28.339   0.139
73854ION    CL-40263   0.535  31.849  11.530
73855ION    CL-40264  20.871   3.837  11.894
73856ION    CL-40265  21.607  24.539   2.226
73857ION    CL-40266  26.157  33.862   4.320
73858ION    CL-40267  44.586  39.770   3.950
73859ION    CL-40268  23.249  33.708   0.550
73860ION    CL-40269  22.297  13.585  10.315
73861ION    CL-40270  15.030  14.781  11.032
73862ION    CL-40271  17.199   5.474   2.233
73863ION    CL-40272  22.097  25.765  14.431
73864ION    CL-40273   0.029  10.141   2.611
73865ION    CL-40274  18.968  44.921  14.317
73866ION    CL-40275  25.382  12.060  11.709
73867ION    CL-40276  44.843  42.316  11.072
73868ION    CL-40277   5.121  27.720  12.250
73869ION    CL-40278   4.994  20.442   1.253
73870ION    CL-40279   3.373  15.703  13.817
73871ION    CL-40280  13.033  13.576  14.368
73872ION    CL-40281   2.258  21.540  14.603
73873ION    CL-40282   2.442   5.835   1.037
73874ION    CL-40283  27.491  24.775   3.866
73875ION    CL-40284   0.430  27.558  13.552
73876ION    CL-40285   0.518  13.830  11.042
73877ION    CL-40286  37.437  31.098  13.864
73878ION    CL-40287  30.491   6.541   4.504
73879ION    CL-40288  27.416   9.401   1.144
73880ION    CL-40289  19.888   9.017  13.974
73881ION    CL-40290  37.732  12.978   1.491
73882ION    CL-40291  10.135  34.393   4.265
73883ION    CL-40292  28.485  20.512  13.157
73884ION    CL-40293  15.443  43.623  12.281
73885ION    CL-40294  13.665   6.530   2.567
73886ION    CL-40295  20.880   2.760   1.072
73887ION    CL-40296  11.754   3.697   4.085
73888ION    CL-40297  12.841  14.571   1.639
73889ION    CL-40298  19.686  22.752   1.886
73890ION    CL-40299  15.839  27.919   2.114
73891ION    CL-40300  19.253  20.010  12.955
73892ION    CL-40301  22.036  32.479  14.156
73893ION    CL-40302  17.957   7.964   3.053
73894ION    CL-40303  34.002  44.857  13.588
73895ION    CL-40304   1.020  38.862  11.302
73896ION    CL-40305  20.243  32.980   3.790
73897ION    CL-40306  38.967  34.560  14.055
73898ION    CL-40307   8.505  14.184   9.656
73899ION    CL-40308   0.868  26.310  13.850
73900ION    CL-40309  40.245  10.881  13.908
73901ION    CL-40310  19.024  25.258  10.769
73902ION    CL-40311  36.648  43.471   3.203
73903ION    CL-40312  34.709  41.904   2.018
73904ION    CL-40313  33.248  26.763   3.293
73905ION    CL-40314  17.803  41.549  13.635
73906ION    CL-40315  39.818  44.359   1.563
73907ION    CL-40316  41.043  11.768  13.382
73908ION    CL-40317  16.581  43.372   3.188
73909ION    CL-40318  34.931   5.099   3.077
73910ION    CL-40319  10.008  18.958  11.648
73911ION    CL-40320   1.465  26.263   4.933
73912ION    CL-40321  13.293  12.514   0.715
73913ION    CL-40322  24.256  10.049   0.969
73914ION    CL-40323  32.815  36.049   1.593
73915ION    CL-40324   9.255  38.906  10.074
73916ION    CL-40325  40.648  33.786  14.710
73917ION    CL-40326  31.316   8.751   1.910
73918ION    CL-40327  20.740  29.159  12.158
73919ION    CL-40328  29.710  27.622  12.616
73920ION    CL-40329  25.500  26.965   1.677
73921ION    CL-40330   9.074  11.286   0.334
73922ION    CL-40331  44.335  11.614   2.172
73923ION    CL-40332  30.559  31.764   3.173
73924ION    CL-40333   9.303  30.043  14.898
73925ION    CL-40334  19.981  25.238  13.850
73926ION    CL-40335  20.303  14.881  14.969
73927ION    CL-40336   1.758  23.249   1.734
73928ION    CL-40337  13.951  30.406  14.260
73929ION    CL-40338  14.399   0.619   0.673
73930ION    CL-40339  31.137  31.896   0.852
73931ION    CL-40340   6.777  11.227   2.686
73932ION    CL-40341  32.721  19.239   3.608
73933ION    CL-40342   3.232   1.121   5.077
73934ION    CL-40343  41.913   2.402   4.099
73935ION    CL-40344  27.748  36.215  10.809
73936ION    CL-40345  42.030  16.543   4.201
73937ION    CL-40346  31.435  12.350   1.303
73938ION    CL-40347   2.557   7.699   0.324
73939ION    CL-40348   2.964  35.839   1.317
73940ION    CL-40349  30.972  37.657  13.552
73941ION    CL-40350  17.182  11.452   1.932
73942ION    CL-40351   2.827   2.674  11.252
73943ION    CL-40352  18.592   5.413   5.052
73944ION    CL-40353   3.124   4.313  13.535
73945ION    CL-40354  18.814   6.541  10.524
73946ION    CL-40355  40.198   5.325  12.829
73947ION    CL-40356  24.116  29.764   1.161
73948ION    CL-40357  18.900  34.385   0.325
73949ION    CL-40358  21.695  34.816  10.792
73950ION    CL-40359   1.806  18.498  11.096
73951ION    CL-40360  44.496  23.842   2.256
73952ION    CL-40361  29.082  28.393  12.501
73953ION    CL-40362  26.001  25.660   4.516
73954ION    CL-40363  28.148  19.555   2.728
73955ION    CL-40364   2.761  15.770  11.143
73956ION    CL-40365  18.725  28.016   3.691
73957ION    CL-40366  16.089  39.018  11.618
73958ION    CL-40367   2.877  21.455  12.424
73959ION    CL-40368  17.101  20.499  12.957
73960ION    CL-40369  23.568  16.326   0.458
73961ION    CL-40370  44.154  19.149  13.550
73962ION    CL-40371  34.337  20.742   2.482
73963ION    CL-40372  12.477   0.278   2.775
73964ION    CL-40373  43.618  36.510  12.087
73965ION    CL-40374  27.148   2.249   1.602
73966ION    CL-40375  34.536  43.357  12.376
73967ION    CL-40376  40.986  34.998   1.732
73968ION    CL-40377  35.680  10.878  12.695
73969ION    CL-40378  10.788  20.870  13.553
73970ION    CL-40379  11.573   8.139   3.696
73971ION    CL-40380  33.163  25.519  11.621
73972ION    CL-40381  16.767  21.149  11.555
73973ION    CL-40382  42.326  14.157  13.890
73974ION    CL-40383  15.819  14.255  14.872
73975ION    CL-40384  43.673   7.885  11.046
73976ION    CL-40385  17.508  10.684   1.376
73977ION    CL-40386  40.567   2.178  11.365
73978ION    CL-40387   1.714  23.504   2.700
73979ION    CL-40388  18.495  16.630  13.429
73980ION    CL-40389  24.418  10.930   1.132
73981ION    CL-40390  21.551  37.750   1.768
73982ION    CL-40391  29.866  22.573   4.359
73983ION    CL-40392   5.192  35.650  12.721
73984ION    CL-40393   9.625  29.451   0.635
73985ION    CL-40394  12.605  19.986  13.274
73986ION    CL-40395  11.625  17.623  10.500
73987ION    CL-40396  38.886  30.275   1.101
73988ION    CL-40397  17.764  12.338  14.793
73989ION    CL-40398   7.981  34.105  11.384
73990ION    CL-40399  28.535   8.976   0.950
73991ION    CL-40400  32.786  27.267   3.856
73992ION    CL-40401  15.225  43.311  13.206
73993ION    CL-40402  34.959  35.329  12.437
73994ION    CL-40403  36.699  44.498   2.059
73995ION    CL-40404  41.556  16.922  14.146
73996ION    CL-40405  17.543  16.842  14.248
73997ION    CL-40406  25.299  42.999  14.802
73998ION    CL-40407   4.691  12.785   3.569
73999ION    CL-40408  35.428   1.438   4.088
74000ION    CL-40409  12.525  16.389  12.890
74001ION    CL-40410  17.408   6.388   1.885
74002ION    CL-40411   3.033  24.316   4.672
74003ION    CL-40412   7.575  30.378  13.060
74004ION    CL-40413   6.640  22.792   5.130
74005ION    CL-40414  18.194   7.042  11.217
74006ION    CL-40415  33.744  25.746   1.778
74007ION    CL-40416   8.981  43.252  11.577
74008ION    CL-40417  19.900   0.223   4.610
74009ION    CL-40418  22.481  17.918  10.848
74010ION    CL-40419   3.393  12.786   4.335
74011ION    CL-40420  24.031   8.888   1.754
74012ION    CL-40421  25.443  15.793  12.898
74013ION    CL-40422  32.905  36.723  12.027
74014ION    CL-40423   4.383  29.435   1.664
74015ION    CL-40424  22.207   4.993   2.144
74016ION    CL-40425  34.434  31.438   0.311
74017ION    CL-40426   7.010  28.706   1.983
74018ION    CL-40427  33.353  15.725  11.272
74019ION    CL-40428  15.700   3.371  12.236
74020ION    CL-40429  36.602  14.476  13.204
74021ION    CL-40430  29.384  32.318   4.498
74022ION    CL-40431  27.947   1.579   5.114
74023ION    CL-40432   7.512  15.621  14.157
74024ION    CL-40433  25.736  27.937  14.753
74025ION    CL-40434  13.331  25.373  10.723
74026ION    CL-40435  13.715  18.792   0.229
74027ION    CL-40436   0.407  13.968   3.259
74028ION    CL-40437  20.328  13.624  14.513
74029ION    CL-40438  44.031  15.279   4.936
74030ION    CL-40439  30.385   6.167   1.371
74031ION    CL-40440  13.552  36.191   3.641
74032ION    CL-40441  42.274  43.960  11.638
74033ION    CL-40442   1.239  13.603  12.356
74034ION    CL-40443  10.884  20.123  12.895
74035ION    CL-40444   9.265  39.874  13.497
74036ION    CL-40445  39.243   5.807  14.383
74037ION    CL-40446  13.179  22.030   0.418
74038ION    CL-40447  43.955  20.973   1.424
74039ION    CL-40448  14.638   8.997   3.172
74040ION    CL-40449  13.756  29.486  13.492
74041ION    CL-40450   9.690  15.979   3.234
74042ION    CL-40451  28.295  20.390   3.614
74043ION    CL-40452  22.668  40.365   3.680
74044ION    CL-40453  14.033  11.875   1.909
74045ION    CL-40454   0.538  39.408   3.417
74046ION    CL-40455  19.140   5.121  13.430
74047ION    CL-40456   2.395  17.156  14.430
74048ION    CL-40457  10.109  29.327   2.986
74049ION    CL-40458  31.888  32.233  11.103
74050ION    CL-40459  12.727  11.815  13.360
74051ION    CL-40460  21.178   1.960  14.635
74052ION    CL-40461  33.422  15.559   2.661
74053ION    CL-40462  10.276  17.011  13.312
74054ION    CL-40463  37.163  29.645   1.486
74055ION    CL-40464  20.738  34.381  13.319
74056ION    CL-40465   2.296  19.336  14.838
74057ION    CL-40466  12.678  30.837   4.863
74058ION    CL-40467  26.811  14.072   1.232
74059ION    CL-40468   4.882  26.700   2.879
74060ION    CL-40469   8.916  34.923  11.140
74061ION    CL-40470  23.517  34.677  11.151
74062ION    CL-40471  12.006  28.997   0.482
74063ION    CL-40472  15.748  42.768   0.760
74064ION    CL-40473   3.276  40.232  14.296
74065ION    CL-40474  42.016   4.890   3.768
74066ION    CL-40475  18.878  30.589   1.960
74067ION    CL-40476  28.059   6.140   0.250
74068ION    CL-40477  39.286  29.400   3.184
74069ION    CL-40478  36.516  23.312   3.198
74070ION    CL-40479  30.264  31.623   0.448
74071ION    CL-40480  10.083  37.398  11.701
74072ION    CL-40481  28.863  19.717   3.407
74073ION    CL-40482  40.966  43.439  12.746
74074ION    CL-40483   4.431  28.191   4.777
74075ION    CL-40484  10.924  36.268  13.479
74076ION    CL-40485   3.720  35.603   4.182
74077ION    CL-40486  15.236  23.329   1.327
74078ION    CL-40487  42.497  12.733   1.553
74079ION    CL-40488  34.756  14.157   5.044
74080ION    CL-40489  44.613   7.991  13.540
74081ION    CL-40490  15.078   0.142  14.510
74082ION    CL-40491  22.580  10.924   1.530
74083ION    CL-40492  29.168  28.875   0.807
74084ION    CL-40493  43.693  18.788  13.393
74085ION    CL-40494  14.038  29.582   4.995
74086ION    CL-40495   9.511  16.618   2.486
74087ION    CL-40496  10.439  33.815   5.023
74088ION    CL-40497  33.098  14.435   4.117
74089ION    CL-40498  10.417   3.314  13.321
74090ION    CL-40499  36.012   3.436  11.632
74091ION    CL-40500  19.380  19.121  10.720
74092ION    CL-40501  10.645  20.126   4.124
74093ION    CL-40502  27.463   7.891  10.322
74094ION    CL-40503  20.055  13.534   2.085
74095ION    CL-40504   9.748  36.084   4.039
74096ION    CL-40505  38.403  21.428   1.151
74097ION    CL-40506   7.682  20.992  11.163
74098ION    CL-40507  25.141  14.939   4.955
74099ION    CL-40508  22.649  27.556  12.683
74100ION    CL-40509  30.399   7.726   0.583
74101ION    CL-40510   3.525  41.471   4.731
74102ION    CL-40511  40.509  34.086  11.018
74103ION    CL-40512  21.687  40.193  11.250
74104ION    CL-40513  15.882   5.792  12.454
74105ION    CL-40514  38.876   9.849   3.131
74106ION    CL-40515  30.160  44.364   1.933
74107ION    CL-40516  43.581  39.265   4.534
74108ION    CL-40517  40.322  27.611   4.576
74109ION    CL-40518  31.631  34.452  11.289
74110ION    CL-40519  38.023  10.880  14.620
74111ION    CL-40520  40.905  25.375  11.057
74112ION    CL-40521  26.534  24.996   0.962
74113ION    CL-40522  22.601   9.414   0.347
74114ION    CL-40523  32.058  41.495   0.248
74115ION    CL-40524  15.344  10.663   5.034
74116ION    CL-40525   1.960  38.838   3.851
74117ION    CL-40526  15.874  43.260   1.770
74118ION    CL-40527  28.939   4.449  10.438
74119ION    CL-40528  16.873  23.468  13.464
74120ION    CL-40529  31.307  21.516  13.009
74121ION    CL-40530   0.493  37.792  14.368
74122ION    CL-40531  25.729  11.612   2.655
74123ION    CL-40532   3.804  42.143   0.434
74124ION    CL-40533  16.872  32.158   3.950
74125ION    CL-40534  35.864  29.207  13.449
74126ION    CL-40535  20.134  39.172  11.953
74127ION    CL-40536  28.865   2.235  12.504
74128ION    CL-40537  44.401  26.669   1.320
74129ION    CL-40538  18.972  20.961  12.828
74130ION    CL-40539  14.546  27.784   4.004
74131ION    CL-40540  18.024  29.726   1.401
74132ION    CL-40541  36.008  41.976  13.596
74133ION    CL-40542   7.616  29.841  12.388
74134ION    CL-40543   6.147  41.138  13.046
74135ION    CL-40544   8.264  12.178   1.024
74136ION    CL-40545  25.907   4.268  14.756
74137ION    CL-40546  26.923  33.475  13.052
74138ION    CL-40547   0.479  31.813  14.781
74139ION    CL-40548  41.779  27.860   4.074
74140ION    CL-40549  38.505  40.832  11.784
74141ION    CL-40550  17.181   5.510   0.857
74142ION    CL-40551  25.957  25.510   1.665
74143ION    CL-40552   6.517  35.918  13.850
74144ION    CL-40553   3.620   8.726   2.965
74145ION    CL-40554  20.861  13.409   3.112
74146ION    CL-40555   4.905   9.028   1.317
74147ION    CL-40556  26.380  35.644  13.957
74148ION    CL-40557  22.262  27.406   4.003
74149ION    CL-40558  22.817  23.277  10.801
74150ION    CL-40559  38.979  21.445   2.309
74151ION    CL-40560  12.650  21.993  12.075
74152ION    CL-40561  14.243  22.519   1.633
74153ION    CL-40562  10.703  20.936   1.686
74154ION    CL-40563  28.678  36.032   3.939
74155ION    CL-40564  37.258  34.948   5.068
74156ION    CL-40565  27.616  10.441  13.062
74157ION    CL-40566  39.574   8.315   3.712
74158ION    CL-40567   6.461  35.655  11.938
74159ION    CL-40568  44.202  42.572   3.995
74160ION    CL-40569   2.059  29.623  10.752
74161ION    CL-40570  28.465  11.833  14.585
74162ION    CL-40571   5.780  24.762  11.601
74163ION    CL-40572  30.325  10.262  13.534
74164ION    CL-40573  15.431  22.327  14.894
74165ION    CL-40574   8.481  34.838  14.569
74166ION    CL-40575  11.106  43.869  14.436
74167ION    CL-40576  23.686  12.665  11.624
74168ION    CL-40577   8.586   0.926   0.545
74169ION    CL-40578  21.852  35.481  13.839
74170ION    CL-40579  36.477  17.296  11.612
74171ION    CL-40580   2.263  10.166  14.369
74172ION    CL-40581  44.540  14.852   1.310
74173ION    CL-40582  43.368  26.987  11.575
74174ION    CL-40583   7.211  38.041  12.062
74175ION    CL-40584  31.079  16.142  14.287
74176ION    CL-40585  12.720  22.740  14.379
74177ION    CL-40586  11.159   0.808  12.946
74178ION    CL-40587  44.799   8.561   5.389
74179ION    CL-40588  19.344  15.440   0.286
74180ION    CL-40589  11.628  13.393  14.382
74181ION    CL-40590  27.933  26.939  11.570
74182ION    CL-40591   0.399  31.476   4.334
74183ION    CL-40592  17.808  13.630  14.430
74184ION    CL-40593  17.757   9.775   0.997
74185ION    CL-40594  39.718  18.572   0.092
74186ION    CL-40595   9.338  44.594  12.902
74187ION    CL-40596  29.519  27.874  11.665
74188ION    CL-40597   6.417  38.950  13.829
74189ION    CL-40598  25.207   0.892   5.283
74190ION    CL-40599   3.371  43.668   1.491
74191ION    CL-40600  29.033   6.187  12.895
74192ION    CL-40601  10.930  19.585   0.429
74193ION    CL-40602   2.847  30.797   4.271
74194ION    CL-40603  28.048  40.263  14.307
74195ION    CL-40604  33.168  26.806   0.309
74196ION    CL-40605  18.516  30.368   1.054
74197ION    CL-40606   8.375  14.329   4.075
74198ION    CL-40607   4.156   7.118   3.647
74199ION    CL-40608  18.616  27.255  11.775
74200ION    CL-40609   7.485  41.366   3.622
74201ION    CL-40610  41.303   1.978  10.696
74202ION    CL-40611  11.774  12.652  14.001
74203ION    CL-40612  10.207   2.878   2.718
74204ION    CL-40613  36.147   0.392  14.983
74205ION    CL-40614  24.485  13.367  12.951
74206ION    CL-40615   9.829  36.344  13.075
74207ION    CL-40616  30.562  32.030   2.186
74208ION    CL-40617  29.448  16.253  14.439
74209ION    CL-40618  20.899  42.817  14.476
74210ION    CL-40619  17.748  15.479  14.517
74211ION    CL-40620   3.234  17.304  13.906
74212ION    CL-40621  20.060  23.687  13.956
74213ION    CL-40622  37.361  35.440   2.324
74214ION    CL-40623   0.916  27.272   4.519
74215ION    CL-40624  22.204  34.852   4.710
74216ION    CL-40625   0.722  17.722   0.749
74217ION    CL-40626  22.683  13.139   2.717
74218ION    CL-40627   9.490  22.214   2.133
74219ION    CL-40628  28.584  44.865  10.537
74220ION    CL-40629  38.023  21.787   0.299
74221ION    CL-40630  27.280   4.258   4.075
74222ION    CL-40631  24.177  16.250  11.511
74223ION    CL-40632  17.299   8.724   0.482
74224ION    CL-40633  23.360  31.121   0.746
74225ION    CL-40634  10.979  39.552  13.885
74226ION    CL-40635  23.107  14.838  14.788
74227ION    CL-40636   0.583  13.149  14.107
74228ION    CL-40637  22.096   4.130   1.868
74229ION    CL-40638  10.760  15.965   2.490
74230ION    CL-40639  27.077  17.028  12.242
74231ION    CL-40640  38.179  37.774   1.061
74232ION    CL-40641  27.961   8.432  11.859
74233ION    CL-40642  27.896  11.860  13.076
74234ION    CL-40643  16.877  15.801   4.642
74235ION    CL-40644  26.308  31.770  12.523
74236ION    CL-40645  43.778  40.378   3.014
74237ION    CL-40646   1.448  23.496  14.641
74238ION    CL-40647   9.282   0.318  10.673
74239ION    CL-40648  10.166  42.750  10.802
74240ION    CL-40649  15.270  42.685  10.387
74241ION    CL-40650  27.482  10.873   5.427
74242ION    CL-40651  35.704  42.793   2.774
74243ION    CL-40652  18.378  41.459   2.416
74244ION    CL-40653  26.586  29.271   3.580
74245ION    CL-40654  27.072  39.333  12.560
74246ION    CL-40655  35.880   7.661   1.008
74247ION    CL-40656   8.883  38.301   1.869
74248ION    CL-40657   4.717  36.018  10.774
74249ION    CL-40658  33.957  21.652   1.846
74250ION    CL-40659  13.325  27.673   4.350
74251ION    CL-40660  19.616  33.975   1.849
74252ION    CL-40661  24.844  20.539   1.400
74253ION    CL-40662  12.948  13.195  11.712
74254ION    CL-40663  21.753  43.880   3.206
74255ION    CL-40664  27.494  42.091  14.841
74256ION    CL-40665  31.040  20.771  10.913
74257ION    CL-40666   5.051   8.047   0.290
74258ION    CL-40667   7.220   0.103   9.918
74259ION    CL-40668  30.930   0.917  12.712
74260ION    CL-40669  42.197  16.290  14.204
74261ION    CL-40670  15.543  30.747  14.746
74262ION    CL-40671  24.135  32.188  13.793
74263ION    CL-40672  17.467  34.713  11.917
74264ION    CL-40673  27.549  40.239   0.528
74265ION    CL-40674  37.518   8.710  14.563
74266ION    CL-40675   4.972   1.914  10.750
74267ION    CL-40676  28.494  22.080  11.284
74268ION    CL-40677   0.706   7.560   0.933
74269ION    CL-40678  24.283   4.022   1.739
74270ION    CL-40679  29.320  10.350   1.173
74271ION    CL-40680  30.626  28.562  10.677
74272ION    CL-40681  33.617   7.256   0.494
74273ION    CL-40682  41.237  13.607  13.856
74274ION    CL-40683  20.188   6.840   2.750
74275ION    CL-40684   1.248  33.299  13.875
74276ION    CL-40685  37.068  34.406   1.166
74277ION    CL-40686  30.445  32.696  14.049
74278ION    CL-40687   4.371  19.158   3.619
74279ION    CL-40688  29.819  31.048   3.118
74280ION    CL-40689  24.216  17.867  12.918
74281ION    CL-40690  41.488  33.795   0.129
74282ION    CL-40691   1.606  19.831  13.961
74283ION    CL-40692  29.381  42.855   1.423
74284ION    CL-40693  11.915  14.934   1.537
74285ION    CL-40694  14.626  40.945   1.408
74286ION    CL-40695  29.037  34.152  13.296
74287ION    CL-40696  41.747   1.028   3.240
74288ION    CL-40697  15.768   8.134   4.332
74289ION    CL-40698  24.238  38.310   4.904
74290ION    CL-40699  11.905   3.850  12.963
74291ION    CL-40700  23.517   1.992   2.174
74292ION    CL-40701   9.747  11.353   2.199
74293ION    CL-40702  11.605  42.403  13.700
74294ION    CL-40703   2.652  18.575  12.268
74295ION    CL-40704  13.473  42.112   1.060
74296ION    CL-40705  44.849   4.975   0.389
74297ION    CL-40706  41.054  12.261   4.122
74298ION    CL-40707  35.945   1.353   0.468
74299ION    CL-40708  27.386   0.072   1.846
74300ION    CL-40709   9.189  21.011  11.588
74301ION    CL-40710  35.235  11.152   4.213
74302ION    CL-40711  15.852  28.814  11.143
74303ION    CL-40712  38.801   3.377   9.900
74304ION    CL-40713   1.909  13.073  12.064
74305ION    CL-40714  10.738  36.351   3.374
74306ION    CL-40715  19.032  32.080  11.143
74307ION    CL-40716  42.792  16.014   0.810
74308ION    CL-40717   7.946   7.307   2.762
74309ION    CL-40718  25.456  25.425   0.927
74310ION    CL-40719  38.570  40.324   2.683
74311ION    CL-40720   5.282  34.084   4.649
74312ION    CL-40721  29.317  14.112   1.806
74313ION    CL-40722  28.746  22.567   9.922
74314ION    CL-40723  33.070  41.807  12.199
74315ION    CL-40724  33.186  27.828   4.893
74316ION    CL-40725  26.791  37.399  12.483
74317ION    CL-40726   7.715  11.137   2.351
74318ION    CL-40727   2.597  27.610   3.186
74319ION    CL-40728   7.038  27.861  12.807
74320ION    CL-40729  43.911  24.650   3.190
74321ION    CL-40730  16.251  42.501   4.912
74322ION    CL-40731  42.141  41.701   4.207
74323ION    CL-40732   7.873  16.079  13.340
74324ION    CL-40733  14.343  42.047   0.566
74325ION    CL-40734  32.319  27.039   0.302
74326ION    CL-40735  10.646   3.776   5.557
74327ION    CL-40736  21.088   0.997   3.523
74328ION    CL-40737  27.857  38.418   2.868
74329ION    CL-40738   0.463  27.618  12.689
74330ION    CL-40739   9.956  30.855  10.695
74331ION    CL-40740  35.734  24.580   3.542
74332ION    CL-40741  27.848  14.284  11.073
74333ION    CL-40742  30.851   2.159   4.481
74334ION    CL-40743  11.210  23.024   3.334
74335ION    CL-40744  14.401  17.851  13.531
74336ION    CL-40745  28.933  39.413   3.870
74337ION    CL-40746  16.444  32.504  11.670
74338ION    CL-40747  39.479   7.267  14.484
74339ION    CL-40748  41.357   0.709  10.922
74340ION    CL-40749  19.017   7.254   2.052
74341ION    CL-40750  15.130  13.340   1.466
74342ION    CL-40751  24.497  40.821   2.652
74343ION    CL-40752  16.637   0.975  13.319
74344ION    CL-40753  17.054  14.383  12.494
74345ION    CL-40754  27.882  10.288   2.706
74346ION    CL-40755  15.248  21.763   4.426
74347ION    CL-40756  19.673  23.917   2.767
74348ION    CL-40757  40.205  42.235  13.957
74349ION    CL-40758  19.305  22.525  14.540
74350ION    CL-40759  40.582  33.317  11.682
74351ION    CL-40760   3.897  30.881  12.000
74352ION    CL-40761   3.431  37.014  10.433
74353ION    CL-40762  11.717  18.529   4.939
74354ION    CL-40763  17.068  19.941  13.690
74355ION    CL-40764  42.405   9.875   2.324
74356ION    CL-40765   2.542   6.786   0.733
74357ION    CL-40766  21.172  39.196   4.123
74358ION    CL-40767  17.326  19.582   4.155
74359ION    CL-40768  43.181  37.208   2.077
74360ION    CL-40769  34.351   6.158  13.605
74361ION    CL-40770  43.940  42.863  13.346
74362ION    CL-40771  34.777  34.246   1.785
74363ION    CL-40772  28.611   2.488   4.722
74364ION    CL-40773   8.340  27.231   0.928
74365ION    CL-40774  37.987  32.497   4.636
74366ION    CL-40775   9.434  13.555   3.937
74367ION    CL-40776  12.779  44.814   4.409
74368ION    CL-40777  15.741  33.145   1.906
74369ION    CL-40778  28.005  32.877   0.591
74370ION    CL-40779   0.826  30.764  12.642
74371ION    CL-40780  44.238   9.559  12.442
74372ION    CL-40781  30.807  16.304  11.933
74373ION    CL-40782  32.814  42.728  13.154
74374ION    CL-40783  39.322  37.296   0.889
74375ION    CL-40784  29.242  14.153   4.066
74376ION    CL-40785   5.563  19.614  13.457
74377ION    CL-40786  42.444  13.313   0.740
74378ION    CL-40787  38.520  12.734  12.342
74379ION    CL-40788  36.623  29.028  14.075
74380ION    CL-40789  34.537  18.587   2.391
74381ION    CL-40790  36.137   0.954   5.082
74382ION    CL-40791  14.255   2.219   4.663
74383ION    CL-40792   2.859  28.700   2.326
74384ION    CL-40793  42.716  28.226   1.793
74385ION    CL-40794  22.279  42.685  13.444
74386ION    CL-40795  11.405   9.385  11.349
74387ION    CL-40796  24.621  28.887   1.266
74388ION    CL-40797  41.415  13.389  12.572
74389ION    CL-40798   2.711   7.783   4.328
74390ION    CL-40799   9.061  19.066  13.678
74391ION    CL-40800  22.617  44.960  14.688
74392ION    CL-40801  24.202  17.270  14.782
74393ION    CL-40802   6.694  12.561  11.708
74394ION    CL-40803  16.692  27.428  11.507
74395ION    CL-40804  42.889  38.883  11.097
74396ION    CL-40805  32.687  32.298   3.041
74397ION    CL-40806  15.332   8.568  13.506
74398ION    CL-40807  38.859  25.058   0.249
74399ION    CL-40808   0.138  11.337  12.621
74400ION    CL-40809  39.002  17.526   4.532
74401ION    CL-40810  16.714   4.884  12.094
74402ION    CL-40811   6.951  24.444   0.666
74403ION    CL-40812  14.184  20.432  14.913
74404ION    CL-40813  42.756  12.976   3.167
74405ION    CL-40814  27.664  13.201   4.976
74406ION    CL-40815  41.534   4.084   3.283
74407ION    CL-40816   8.547   2.935   2.010
74408ION    CL-40817  42.869  19.422   4.712
74409ION    CL-40818  19.189  15.981  12.472
74410ION    CL-40819  40.472  24.103  14.710
74411ION    CL-40820  11.912  40.590  13.924
74412ION    CL-40821  38.247  15.990  12.749
74413ION    CL-40822  15.078   3.214  13.077
74414ION    CL-40823  27.954  15.836  13.224
74415ION    CL-40824  42.364  13.115  12.968
74416ION    CL-40825  22.945   0.239   3.917
74417ION    CL-40826  19.559  44.311   1.854
74418ION    CL-40827  35.599   8.541   1.981
74419ION    CL-40828  10.500  23.262   0.398
74420ION    CL-40829  16.102  29.122  14.423
74421ION    CL-40830  40.613  11.032   1.100
74422ION    CL-40831  20.268  39.014   1.808
74423ION    CL-40832  35.343  24.958  13.038
74424ION    CL-40833  15.774  11.185   4.901
74425ION    CL-40834  11.081   4.269   5.402
74426ION    CL-40835  32.559  36.125  14.826
74427ION    CL-40836  39.398  14.391  10.719
74428ION    CL-40837  39.546   9.110  10.440
74429ION    CL-40838  42.068  24.272  12.102
74430ION    CL-40839  21.378  38.089  10.750
74431ION    CL-40840  21.732  40.046   4.343
74432ION    CL-40841   8.361  44.343  13.031
74433ION    CL-40842  36.864  36.970   3.831
74434ION    CL-40843  33.150  16.186   3.856
74435ION    CL-40844  36.144  30.807   4.636
74436ION    CL-40845   1.402  36.286   4.741
74437ION    CL-40846  24.712   3.963  11.942
74438ION    CL-40847   6.102  39.560   3.203
74439ION    CL-40848  17.078   3.730  10.993
74440ION    CL-40849   9.984  21.710  10.346
74441ION    CL-40850  10.773  27.015   2.654
74442ION    CL-40851  20.011  22.689  12.032
74443ION    CL-40852  31.729  25.490  14.777
74444ION    CL-40853  35.092  25.940   1.276
74445ION    CL-40854  44.866  44.018  13.275
74446ION    CL-40855  37.948  34.771  14.534
74447ION    CL-40856  36.324   8.657  12.007
74448ION    CL-40857   3.243   4.643   1.972
74449ION    CL-40858  17.114  27.004   3.058
74450ION    CL-40859  12.549  12.255   3.916
74451ION    CL-40860  15.061  17.453  11.259
74452ION    CL-40861  35.098  24.936  11.036
74453ION    CL-40862  17.841   1.965  11.515
74454ION    CL-40863  40.691  14.700  11.300
74455ION    CL-40864  40.581  23.177   4.551
74456ION    CL-40865   5.702  32.938  10.435
74457ION    CL-40866  31.508  19.043  11.129
74458ION    CL-40867  31.549  33.494  11.973
74459ION    CL-40868  30.863  23.230  11.885
74460ION    CL-40869  29.476  20.550   4.490
74461ION    CL-40870  24.778   2.510   1.976
74462ION    CL-40871  33.963  25.539   4.982
74463ION    CL-40872  33.455  40.225   4.071
74464ION    CL-40873  33.385  20.823   2.172
74465ION    CL-40874   9.276  19.165  14.938
74466ION    CL-40875  35.452  37.359   0.802
74467ION    CL-40876  30.709  14.237  14.489
74468ION    CL-40877   4.280  25.971   3.270
74469ION    CL-40878  20.659  11.603   4.915
74470ION    CL-40879  27.925  15.799  11.097
74471ION    CL-40880  36.111  20.966   4.975
74472ION    CL-40881  10.320   9.912  14.946
74473ION    CL-40882  42.531  28.999  11.993
74474ION    CL-40883   7.245  15.264   1.232
74475ION    CL-40884  35.869  40.400   4.746
74476ION    CL-40885  39.546  16.157   4.704
74477ION    CL-40886  27.625  20.999  12.982
74478ION    CL-40887  15.106  42.244   3.288
74479ION    CL-40888  31.861   6.561   1.143
74480ION    CL-40889  21.274  13.305  10.974
74481ION    CL-40890  27.470  19.020   2.224
74482ION    CL-40891  14.243  38.757  12.528
74483ION    CL-40892  13.805  17.519  12.799
74484ION    CL-40893  13.463  33.749  13.209
74485ION    CL-40894  29.301  35.819   1.300
74486ION    CL-40895  35.439  31.827   2.875
74487ION    CL-40896   4.739  37.400   0.847
74488ION    CL-40897  19.505  29.173   3.182
74489ION    CL-40898   7.608   0.718   0.554
74490ION    CL-40899   0.657  16.445  12.898
74491ION    CL-40900  21.379  20.972  13.821
74492ION    CL-40901   8.897   1.812  12.392
74493ION    CL-40902   9.175  10.948  12.105
74494ION    CL-40903  40.923  27.147   2.847
74495ION    CL-40904  22.352  19.787  10.425
74496ION    CL-40905  34.517  16.956   4.521
74497ION    CL-40906   3.313   2.983   5.235
74498ION    CL-40907   2.988  10.865  14.237
74499ION    CL-40908  43.344  25.271   4.781
74500ION    CL-40909  28.533  43.572  14.155
74501ION    CL-40910  21.810   2.421   4.111
74502ION    CL-40911  14.656  13.678   3.121
74503ION    CL-40912  30.772  14.324  10.468
74504ION    CL-40913  31.672  34.336   1.863
74505ION    CL-40914  44.372  29.246  14.577
74506ION    CL-40915  36.419   6.311   9.838
74507ION    CL-40916   5.660  11.272   3.283
74508ION    CL-40917  24.789  15.886  14.449
74509ION    CL-40918  42.645   1.296   3.861
74510ION    CL-40919  18.178  34.623   3.767
74511ION    CL-40920  19.139   9.603   1.330
74512ION    CL-40921  21.690  13.019   2.710
74513ION    CL-40922  41.078   3.855  14.548
74514ION    CL-40923  40.616   7.248   5.303
74515ION    CL-40924  20.285   5.340   4.868
74516ION    CL-40925   7.241  35.033  11.867
74517ION    CL-40926  23.370  14.013  12.265
74518ION    CL-40927  28.924  32.503  11.546
74519ION    CL-40928  40.788  21.096  12.917
74520ION    CL-40929  16.520   2.797  12.373
74521ION    CL-40930  26.908  32.315  13.898
74522ION    CL-40931   1.047  28.870   1.262
74523ION    CL-40932  30.811   1.141   2.720
74524ION    CL-40933  38.090  29.692   3.859
74525ION    CL-40934  15.827  17.730  11.383
74526ION    CL-40935  10.474  29.801   0.676
74527ION    CL-40936  25.776  38.470   1.794
74528ION    CL-40937  19.221  19.012  12.814
74529ION    CL-40938   2.812  26.652   1.284
74530ION    CL-40939  35.242  38.767  13.245
74531ION    CL-40940   2.950  37.306  13.895
74532ION    CL-40941  33.557  17.803   2.680
74533ION    CL-40942  19.537  43.160   2.353
74534ION    CL-40943  39.877  31.655  11.827
74535ION    CL-40944  39.732  33.651  14.634
74536ION    CL-40945  33.513  22.032  12.568
74537ION    CL-40946  12.677  16.326  14.370
74538ION    CL-40947  29.174   0.699  14.025
74539ION    CL-40948  41.495  15.126  12.125
74540ION    CL-40949  10.681  22.311   2.754
74541ION    CL-40950  18.130  18.456  14.845
74542ION    CL-40951  24.633  36.408  11.593
74543ION    CL-40952   4.909  38.336  14.296
74544ION    CL-40953  16.252  10.742  14.175
74545ION    CL-40954   7.304  35.417   0.143
74546ION    CL-40955  26.879  44.092   2.831
74547ION    CL-40956  22.965  11.624  14.939
74548ION    CL-40957  22.109  14.833  14.881
74549ION    CL-40958  41.197  26.324   2.669
74550ION    CL-40959   2.233  25.760   5.001
74551ION    CL-40960  26.658  41.777  12.108
74552ION    CL-40961  21.719   1.409   0.470
74553ION    CL-40962  21.282  15.806  14.373
74554ION    CL-40963  16.141  39.064   4.948
74555ION    CL-40964  18.389   0.614   3.528
74556ION    CL-40965  29.424  17.549   3.233
74557ION    CL-40966  17.959   4.598  12.683
74558ION    CL-40967  32.806  17.833   1.924
74559ION    CL-40968  42.644  22.362   2.300
74560ION    CL-40969  14.107  18.490   3.805
74561ION    CL-40970  39.480   5.152   4.977
74562ION    CL-40971  19.859   6.916   5.108
74563ION    CL-40972  14.553  35.001   1.303
74564ION    CL-40973  39.526  29.726   5.064
74565ION    CL-40974   4.499  37.583   4.692
74566ION    CL-40975   7.244  31.076  11.631
74567ION    CL-40976  17.576  27.548   4.972
74568ION    CL-40977   1.248   0.634  11.136
74569ION    CL-40978   9.799  22.728   3.334
74570ION    CL-40979   0.503   4.142   5.083
74571ION    CL-40980  22.572  42.525  12.591
74572ION    CL-40981  14.884  40.425  13.183
74573ION    CL-40982  22.792   3.627   3.357
74574ION    CL-40983  15.268  43.349  11.135
74575ION    CL-40984  42.695  36.652  13.985
74576ION    CL-40985  15.703  28.571   2.870
74577ION    CL-40986   4.569  21.555   4.325
74578ION    CL-40987  25.264  23.661   2.708
74579ION    CL-40988  12.196  13.463  13.832
74580ION    CL-40989  15.845  26.243  12.102
74581ION    CL-40990  12.619  40.342  10.044
74582ION    CL-40991  12.797  24.734   1.545
74583ION    CL-40992  32.820  20.020   1.909
74584ION    CL-40993   1.802  25.078  13.820
74585ION    CL-40994  24.750  20.091  10.613
74586ION    CL-40995   0.858  24.143  13.410
74587ION    CL-40996  40.981  11.261   3.934
74588ION    CL-40997  43.955  12.802   1.657
74589ION    CL-40998  34.895   8.836   0.056
74590ION    CL-40999  21.029  18.894   3.372
74591ION    CL-41000  12.997   4.095   9.706
74592ION    CL-41001  36.763  24.682   1.670
74593ION    CL-41002   4.145  30.639   2.244
74594ION    CL-41003   7.306   0.415  11.239
74595ION    CL-41004  30.136  21.114   0.491
74596ION    CL-41005  31.140  35.019   4.398
74597ION    CL-41006  38.148  30.351   2.316
74598ION    CL-41007  33.630  34.252   4.223
74599ION    CL-41008  41.844  13.707  11.428
74600ION    CL-41009  29.974  44.930   3.577
74601ION    CL-41010  30.776   0.866   1.182
74602ION    CL-41011  12.904  33.168  13.071
74603ION    CL-41012   7.748  14.083   3.473
74604ION    CL-41013   7.582  39.558   2.215
74605ION    CL-41014  21.080  25.321   3.313
74606ION    CL-41015  15.813  16.362  11.279
74607ION    CL-41016   1.792  16.324  11.308
74608ION    CL-41017  18.929  41.282   3.642
74609ION    CL-41018  24.401  30.373  13.411
74610ION    CL-41019  21.714   4.140   0.944
74611ION    CL-41020  17.107  30.015   0.790
74612ION    CL-41021  35.711  11.205   1.028
74613ION    CL-41022  22.235  21.289  12.840
74614ION    CL-41023  29.811  36.827   2.906
74615ION    CL-41024  42.735   7.856  12.490
74616ION    CL-41025  39.020  16.428   0.370
74617ION    CL-41026  18.741  14.739   0.985
74618ION    CL-41027  14.733   9.515  10.466
74619ION    CL-41028  40.946  19.979   2.203
74620ION    CL-41029  38.743  36.864  11.122
74621ION    CL-41030  29.542   4.134  13.034
74622ION    CL-41031   1.916  25.214   3.592
74623ION    CL-41032   7.140  30.293  11.415
74624ION    CL-41033   4.710  13.946   4.172
74625ION    CL-41034  37.920  17.812  13.057
74626ION    CL-41035   3.546  18.843   4.089
74627ION    CL-41036   8.787  37.127   1.874
74628ION    CL-41037  26.986  35.795  14.798
74629ION    CL-41038  17.943  11.739  10.999
74630ION    CL-41039  28.451   3.089   1.721
74631ION    CL-41040  29.410   2.919  13.984
74632ION    CL-41041  17.800  30.505   4.609
74633ION    CL-41042  20.433  10.085   2.915
74634ION    CL-41043  11.917   2.068  11.136
74635ION    CL-41044  17.013  10.347   2.871
74636ION    CL-41045  28.957  27.526   5.166
74637ION    CL-41046  37.973  29.605  13.737
74638ION    CL-41047   2.567  12.136   2.306
74639ION    CL-41048  29.858  34.008  11.063
74640ION    CL-41049  36.688  25.048  13.614
74641ION    CL-41050   5.134  25.746   0.079
74642ION    CL-41051   4.201  14.851   3.931
74643ION    CL-41052  44.394  30.719  13.119
74644ION    CL-41053   1.414  31.889  13.931
74645ION    CL-41054  32.984  16.493  11.905
74646ION    CL-41055   4.898  41.104  11.089
74647ION    CL-41056  42.475   6.593  11.727
74648ION    CL-41057  24.791   0.561  11.282
74649ION    CL-41058   4.659   0.369  11.496
74650ION    CL-41059  14.450  34.291   4.162
74651ION    CL-41060   7.613  22.320   0.901
74652ION    CL-41061   9.383  29.231  14.690
74653ION    CL-41062  28.172  30.920   0.757
74654ION    CL-41063  18.830  36.533  14.590
74655ION    CL-41064  30.576  14.590  12.208
74656ION    CL-41065   5.813  21.824  12.169
74657ION    CL-41066  31.378   2.384   2.208
74658ION    CL-41067  44.492  44.936   3.142
74659ION    CL-41068  19.379   8.127   4.198
74660ION    CL-41069   5.730   2.416   3.709
74661ION    CL-41070  32.584  39.421   0.343
74662ION    CL-41071  14.475   7.791   0.740
74663ION    CL-41072  44.600  43.912   2.638
74664ION    CL-41073  16.162  44.343  13.299
74665ION    CL-41074  41.955  20.966  10.155
74666ION    CL-41075  12.633  14.993  11.216
74667ION    CL-41076   1.100   7.947   2.809
74668ION    CL-41077  24.298  24.367   2.322
74669ION    CL-41078   4.738  27.387  13.112
74670ION    CL-41079  27.760  34.423   2.137
74671ION    CL-41080  36.436  10.577   4.225
74672ION    CL-41081  29.854  38.357   4.688
74673ION    CL-41082  28.111  26.140   4.985
74674ION    CL-41083  44.093  39.048   3.464
74675ION    CL-41084   8.432   7.681  14.634
74676ION    CL-41085  19.467  15.634   2.406
74677ION    CL-41086  30.065   1.287   3.171
74678ION    CL-41087  31.130  24.661  14.301
74679ION    CL-41088  33.746  32.421  12.371
74680ION    CL-41089  20.832   4.134   0.674
74681ION    CL-41090  21.527  14.067  13.414
74682ION    CL-41091  44.282   6.775   1.089
74683ION    CL-41092   8.130  39.506   3.050
74684ION    CL-41093  13.116  23.013  12.596
74685ION    CL-41094  32.327  21.269  12.146
74686ION    CL-41095  23.454  32.665   2.806
74687ION    CL-41096  12.869   1.577  11.473
74688ION    CL-41097   0.724  12.781  10.839
74689ION    CL-41098  43.101  30.749  10.396
74690ION    CL-41099  10.316  42.270  13.896
74691ION    CL-41100  26.822  35.413   1.369
74692ION    CL-41101  21.079  39.971  13.752
74693ION    CL-41102  31.680  37.533  11.955
74694ION    CL-41103  20.735   1.357   0.299
74695ION    CL-41104  40.928  44.757  11.145
74696ION    CL-41105   3.430   3.436  13.907
74697ION    CL-41106  19.652  18.291  12.271
74698ION    CL-41107   3.704  31.449  14.522
74699ION    CL-41108  25.150  27.699   1.725
74700ION    CL-41109  13.624  19.900  13.582
74701ION    CL-41110  40.957   5.007   0.650
74702ION    CL-41111  37.083  36.418   2.978
74703ION    CL-41112   9.140   8.422  11.342
74704ION    CL-41113  16.752  23.330   1.647
74705ION    CL-41114  38.110  21.216  10.964
74706ION    CL-41115   9.050  30.592  13.286
74707ION    CL-41116  22.894  24.890   0.947
74708ION    CL-41117  33.523  35.097   5.339
74709ION    CL-41118  14.406  19.279  13.544
74710ION    CL-41119  33.643  31.408   4.656
74711ION    CL-41120  28.748  36.450  13.302
74712ION    CL-41121  26.909  28.414  12.011
74713ION    CL-41122  15.383   7.808   0.845
74714ION    CL-41123  29.605  37.574  13.486
74715ION    CL-41124  17.384  20.545  10.711
74716ION    CL-41125  37.377   5.468   1.026
74717ION    CL-41126  41.641  15.688  10.273
74718ION    CL-41127  44.144  39.878  11.721
74719ION    CL-41128   3.553  27.516  10.365
74720ION    CL-41129  12.467  31.599  12.710
74721ION    CL-41130  39.383  37.230  14.893
74722ION    CL-41131  43.505  25.582  11.730
74723ION    CL-41132   4.637  15.549   2.082
74724ION    CL-41133   4.802  33.866  12.459
74725ION    CL-41134  42.138  22.811  14.804
74726ION    CL-41135  25.543  26.159  11.095
74727ION    CL-41136  27.210  42.622  11.234
74728ION    CL-41137  11.374  13.576  11.441
74729ION    CL-41138  18.665  32.087   4.933
74730ION    CL-41139   2.142  33.961  11.657
74731ION    CL-41140  43.408  41.516  11.521
74732ION    CL-41141  39.005  23.992   1.389
74733ION    CL-41142  32.558   4.430   3.236
74734ION    CL-41143  20.071  16.832  12.928
74735ION    CL-41144   3.723  40.422  13.574
74736ION    CL-41145  28.098  30.448  10.987
74737ION    CL-41146  40.707  35.075  11.846
74738ION    CL-41147  37.073  13.584   0.702
74739ION    CL-41148  13.700  26.177   5.020
74740ION    CL-41149  34.558  26.945  13.941
74741ION    CL-41150  34.412   4.629  12.086
74742ION    CL-41151  39.701  39.598   1.028
74743ION    CL-41152   3.355  24.486   5.028
74744ION    CL-41153  41.042  39.950   3.212
74745ION    CL-41154   1.270   1.048   1.667
74746ION    CL-41155  37.447   5.758  13.088
74747ION    CL-41156  35.376   6.431   1.694
74748ION    CL-41157  27.621  39.446   4.630
74749ION    CL-41158  14.823   6.358  11.285
74750ION    CL-41159  31.450   8.928   4.901
74751ION    CL-41160  13.372  20.590  10.275
74752ION    CL-41161  19.935  41.372   3.652
74753ION    CL-41162   8.884  26.084  13.899
74754ION    CL-41163  24.686  23.297   1.439
74755ION    CL-41164  21.751  29.640  11.699
74756ION    CL-41165  39.503  21.795   5.194
74757ION    CL-41166  42.383  34.613  13.935
74758ION    CL-41167  36.821  29.750  11.271
74759ION    CL-41168  32.439   9.089  12.890
74760ION    CL-41169  39.432  38.179  14.580
74761ION    CL-41170  34.857  15.423  11.454
74762ION    CL-41171   9.138  42.002  14.956
74763ION    CL-41172  43.071  13.574  13.508
74764ION    CL-41173  27.867  11.889  10.282
74765ION    CL-41174  12.328  29.682   0.992
74766ION    CL-41175  34.081  38.922   0.666
74767ION    CL-41176  40.578   5.468   2.431
74768ION    CL-41177   5.466  35.562  11.922
74769ION    CL-41178  31.861   6.239  13.603
74770ION    CL-41179  27.662  41.148   0.127
74771ION    CL-41180  32.985  44.882   3.687
74772ION    CL-41181   7.890  33.120  11.531
74773ION    CL-41182  12.519  21.827   4.075
74774ION    CL-41183  33.129   2.441   1.214
74775ION    CL-41184  14.783  37.871  11.054
74776ION    CL-41185  22.787  21.590   1.034
74777ION    CL-41186   4.775   9.171  12.109
74778ION    CL-41187  19.700  32.966  12.415
74779ION    CL-41188  12.350  39.474   0.907
74780ION    CL-41189  29.032  14.891  10.468
74781ION    CL-41190   2.569  15.111  13.041
74782ION    CL-41191  41.515   6.754   3.035
74783ION    CL-41192  19.806  41.609  11.348
74784ION    CL-41193  12.333   1.482   0.616
74785ION    CL-41194  10.397  30.962  11.604
74786ION    CL-41195  26.889  16.087  12.525
74787ION    CL-41196   5.714  34.983  14.217
74788ION    CL-41197  26.022  31.407  11.617
74789ION    CL-41198  10.796  15.860   9.890
74790ION    CL-41199  44.701  40.808   2.696
74791ION    CL-41200  21.170  38.771   2.235
74792ION    CL-41201  18.060  40.063  12.913
74793ION    CL-41202  30.194   7.545   4.054
74794ION    CL-41203  12.697  36.163   0.891
74795ION    CL-41204  13.750  18.764   1.238
74796ION    CL-41205  39.044   6.683  10.782
74797ION    CL-41206  32.834   7.853  11.104
74798ION    CL-41207  34.512  21.494   0.342
74799ION    CL-41208  10.167  19.646  12.388
74800ION    CL-41209   2.557  27.440   0.901
74801ION    CL-41210  22.427  31.074  10.588
74802ION    CL-41211  22.069  23.409  10.286
74803ION    CL-41212   4.345  41.006   0.557
74804ION    CL-41213   0.913   6.028  11.839
74805ION    CL-41214  37.450   7.304   3.244
74806ION    CL-41215  17.037  39.528   1.812
74807ION    CL-41216  15.585  28.186  13.929
74808ION    CL-41217  14.514   8.996  14.377
74809ION    CL-41218  40.257  42.312  11.607
74810ION    CL-41219  36.397   9.948  13.475
74811ION    CL-41220   1.874   8.734   3.094
74812ION    CL-41221  44.153  33.042  11.613
74813ION    CL-41222  18.920   9.418  13.787
74814ION    CL-41223  41.171  10.532  10.815
74815ION    CL-41224  42.500  24.763   5.023
74816ION    CL-41225   4.375  10.138   3.731
74817ION    CL-41226  13.015  14.246   5.002
74818ION    CL-41227  22.124  24.127   4.761
74819ION    CL-41228  43.433   8.089  14.806
74820ION    CL-41229   8.730  11.738   2.572
74821ION    CL-41230  28.261  16.815  13.141
74822ION    CL-41231   3.331  15.190   4.957
74823ION    CL-41232   5.940  10.629   1.886
74824ION    CL-41233  29.117  36.162  14.547
74825ION    CL-41234  37.151  43.658   2.359
74826ION    CL-41235   7.695  36.992   3.217
74827ION    CL-41236  22.610   4.835  14.157
74828ION    CL-41237  43.675   5.400   4.996
74829ION    CL-41238  30.529  22.076   4.770
74830ION    CL-41239   8.955  31.246   0.711
74831ION    CL-41240  35.120  21.588   3.959
74832ION    CL-41241  17.824  25.530  12.465
74833ION    CL-41242  34.352  25.383  10.763
74834ION    CL-41243  33.685  42.414   2.432
74835ION    CL-41244  20.357  37.867   2.411
74836ION    CL-41245   3.429  37.327   0.023
74837ION    CL-41246  34.235  39.412   3.598
74838ION    CL-41247  43.828  43.856  13.339
74839ION    CL-41248  29.583  29.520  10.590
74840ION    CL-41249   8.193  29.083   2.862
74841ION    CL-41250  36.912  25.655  14.397
74842ION    CL-41251   1.312  28.913   5.081
74843ION    CL-41252  37.421  12.509  11.440
74844ION    CL-41253  25.419  18.243   1.589
74845ION    CL-41254   3.642  34.730   3.700
74846ION    CL-41255  21.703  34.646  13.310
74847ION    CL-41256  15.588   7.157  13.864
74848ION    CL-41257  42.358  44.376  12.890
74849ION    CL-41258  18.887  27.247  14.244
74850ION    CL-41259  22.479  21.773  10.905
74851ION    CL-41260  43.026  38.514   0.901
74852ION    CL-41261  13.755  23.845  14.805
74853ION    CL-41262  28.285  21.117  11.120
74854ION    CL-41263  15.738   6.050   2.395
74855ION    CL-41264  36.776  37.355  12.928
74856ION    CL-41265  33.684  36.414  13.302
74857ION    CL-41266  14.422  21.576  13.498
74858ION    CL-41267   8.254  37.427   4.487
74859ION    CL-41268  37.253  32.758  13.947
74860ION    CL-41269  11.188  42.774   2.123
74861ION    CL-41270   3.569  12.323   0.881
74862ION    CL-41271   0.368  43.921  10.947
74863ION    CL-41272  42.502  31.423   4.111
74864ION    CL-41273  41.145   8.581  13.027
74865ION    CL-41274  39.215  25.253  11.104
74866ION    CL-41275  24.028  12.325  10.749
74867ION    CL-41276   9.837  31.085   4.205
74868ION    CL-41277  19.053   8.485  14.191
74869ION    CL-41278  33.948  35.504  11.131
74870ION    CL-41279  32.947  15.087   4.860
74871ION    CL-41280  16.950  29.418  10.333
74872ION    CL-41281  28.531  12.425  13.669
74873ION    CL-41282  40.420   7.593  12.621
74874ION    CL-41283  39.271  26.049  14.344
74875ION    CL-41284  42.300   2.407   0.686
74876ION    CL-41285   8.955  37.975  13.079
74877ION    CL-41286   5.279  11.795  12.978
74878ION    CL-41287  26.478   8.152  12.343
74879ION    CL-41288  18.857   4.195  13.151
74880ION    CL-41289  18.882  20.113  14.756
74881ION    CL-41290  36.857  21.809  12.861
74882ION    CL-41291  32.107  35.182   4.985
74883ION    CL-41292   0.310   3.102   4.174
74884ION    CL-41293  12.138   5.945   3.187
74885ION    CL-41294  27.725   6.126  12.668
74886ION    CL-41295   5.145  31.869  11.104
74887ION    CL-41296  10.931  25.220   3.618
74888ION    CL-41297  41.125  20.866  11.910
74889ION    CL-41298  26.989  38.147  10.115
74890ION    CL-41299  23.775  40.140  12.367
74891ION    CL-41300  31.408  31.154   1.816
74892ION    CL-41301  33.665  32.292   1.646
74893ION    CL-41302  25.845  17.662   0.896
74894ION    CL-41303  43.433  32.368   4.144
74895ION    CL-41304   0.439  43.887   3.823
74896ION    CL-41305  38.291   5.532   0.445
74897ION    CL-41306  34.745  34.546   4.189
74898ION    CL-41307  28.664  12.851   0.418
74899ION    CL-41308  43.510   7.244   9.867
74900ION    CL-41309  14.327  18.644  14.313
74901ION    CL-41310  35.005   8.823   4.475
74902ION    CL-41311  15.012   1.817  12.449
74903ION    CL-41312  14.578  24.170  13.394
74904ION    CL-41313  29.130  15.556  12.611
74905ION    CL-41314  18.440  28.195   2.209
74906ION    CL-41315   6.852  20.111   1.637
74907ION    CL-41316  39.334  40.335  10.670
74908ION    CL-41317  29.052  17.950   4.070
74909ION    CL-41318  38.793  38.458   3.698
74910ION    CL-41319  30.186  13.045   4.052
74911ION    CL-41320  41.544  41.811  10.776
74912ION    CL-41321   5.105  15.746  14.615
74913ION    CL-41322  19.472   5.514  11.514
74914ION    CL-41323  32.689  38.428   0.508
74915ION    CL-41324  16.735  29.698   3.782
74916ION    CL-41325   2.934  39.217  12.809
74917ION    CL-41326   5.634  14.340  14.327
74918ION    CL-41327  28.878  30.388   4.978
74919ION    CL-41328  33.540  17.166  12.393
74920ION    CL-41329  30.851   1.270  11.104
74921ION    CL-41330  22.306   5.427   4.165
74922ION    CL-41331  27.743  16.439  12.141
74923ION    CL-41332  23.856  20.777   1.373
74924ION    CL-41333   5.495  38.922   9.723
74925ION    CL-41334  29.627  22.568  10.722
74926ION    CL-41335  32.342  17.702   2.854
74927ION    CL-41336   6.538  36.132  14.737
74928ION    CL-41337  44.924  25.411  13.079
74929ION    CL-41338  37.769  16.457   1.218
74930ION    CL-41339   6.410  17.792   4.113
74931ION    CL-41340  13.013  41.161  13.326
74932ION    CL-41341  37.874  24.083   1.458
74933ION    CL-41342  42.031   0.260   4.085
74934ION    CL-41343  43.854  44.812  13.638
74935ION    CL-41344   5.363  26.637  12.456
74936ION    CL-41345  27.617   9.562   3.729
74937ION    CL-41346  14.572   9.303   0.222
74938ION    CL-41347  24.362  21.647   2.979
74939ION    CL-41348  33.142   8.675   5.055
74940ION    CL-41349  37.130  31.681   3.666
74941ION    CL-41350  13.710  43.193  14.471
74942ION    CL-41351  41.572  38.213  11.644
74943ION    CL-41352  16.545  15.079  13.470
74944ION    CL-41353   5.207  19.058   3.962
74945ION    CL-41354   3.353  30.456   0.026
74946ION    CL-41355  18.986   1.361  14.020
74947ION    CL-41356  20.321  28.503   3.036
74948ION    CL-41357   6.728   6.113  11.600
74949ION    CL-41358  39.406  20.512   5.014
74950ION    CL-41359  24.467   8.972  13.412
74951ION    CL-41360  16.234   2.690   1.255
74952ION    CL-41361  35.566   4.217   2.758
74953ION    CL-41362  32.405  31.443   3.252
74954ION    CL-41363  30.926  42.584   3.860
74955ION    CL-41364  25.608  34.629   0.374
74956ION    CL-41365  19.935  12.958   3.475
74957ION    CL-41366  43.424  26.213   0.424
74958ION    CL-41367  31.037  15.180   4.921
74959ION    CL-41368  10.705  14.694  12.664
74960ION    CL-41369  41.112  36.424  12.182
74961ION    CL-41370  31.636   4.497   4.441
74962ION    CL-41371  37.521  24.496  13.572
74963ION    CL-41372  29.505  38.828  11.151
74964ION    CL-41373  34.294  16.153   4.709
74965ION    CL-41374   8.447  39.986  10.714
74966ION    CL-41375   2.925  13.757  12.909
74967ION    CL-41376  31.966   3.637   3.079
74968ION    CL-41377  22.427  18.463  13.143
74969ION    CL-41378   1.940  28.171  12.936
74970ION    CL-41379   4.447  21.066  13.384
74971ION    CL-41380   7.768  13.323   2.781
74972ION    CL-41381  29.939   1.922  10.921
74973ION    CL-41382  28.642   2.794  14.660
74974ION    CL-41383  38.416  13.659   0.416
74975ION    CL-41384  11.784  20.969  10.752
74976ION    CL-41385  29.842  28.482  13.561
74977ION    CL-41386  32.324   4.868  11.050
74978ION    CL-41387  18.700  24.876   3.656
74979ION    CL-41388  40.995  32.963  12.783
74980ION    CL-41389  33.128  38.959  11.957
74981ION    CL-41390  28.176  13.471  13.313
74982ION    CL-41391  30.608  38.791   3.702
74983ION    CL-41392   9.886   2.139  10.442
74984ION    CL-41393  17.674  10.790   3.654
74985ION    CL-41394   0.179  27.501   0.056
74986ION    CL-41395  24.677  44.549   4.099
74987ION    CL-41396  33.698   4.865   2.717
74988ION    CL-41397   8.167  41.277   3.009
74989ION    CL-41398  39.167  37.871  13.611
74990ION    CL-41399   3.987  39.770   0.928
74991ION    CL-41400  44.960  23.033   1.000
74992ION    CL-41401  17.327  28.516   4.934
74993ION    CL-41402  44.746  11.902  13.946
74994ION    CL-41403  14.074   6.251  14.952
74995ION    CL-41404  28.486  21.351  12.612
74996ION    CL-41405   4.665  16.133   2.894
74997ION    CL-41406  38.664  37.240  13.262
74998ION    CL-41407  38.530  39.943  11.764
74999ION    CL-41408  15.963  41.008   9.877
75000ION    CL-41409  19.729  15.310  12.742
75001ION    CL-41410  25.974  44.101   3.821
75002ION    CL-41411  17.049  19.113   2.161
75003ION    CL-41412  19.596   5.627   0.295
75004ION    CL-41413  17.504  26.283   1.805
75005ION    CL-41414  18.222   8.001  14.982
75006ION    CL-41415  29.673  18.638  13.756
75007ION    CL-41416   4.294  38.199   0.073
75008ION    CL-41417  34.013   7.016  10.579
75009ION    CL-41418  21.589  20.263   2.889
  45.00000  45.00000  15.00000
